<event>
 6    1  0.7336247E-003  0.6345569E+03  0.7818608E-02  0.9836196E-01
          1   -1    0    0  502    0  0.00000000000E+00  0.00000000000E+00  0.10066562506E+03  0.10066562506E+03  0.00000000000E+00 0.  1.
         13   -1    0    0    0    0 -0.00000000000E+00 -0.00000000000E+00 -0.10000000000E+04  0.10000000000E+04  0.00000000000E+00 0.  1.
    9000005    2    1    2  501    0  0.95750735341E-05  0.19061636067E-04 -0.89933435831E+03  0.11006655980E+04  0.63455690887E+03 0.  0.
         13    1    3    3    0    0 -0.29085386253E+03 -0.36175530542E+02 -0.66040492676E+03  0.72252287552E+03  0.00000000000E+00 0.  1.
          1    1    3    3  501    0  0.29085387211E+03  0.36175549603E+02 -0.23892943155E+03  0.37814272249E+03  0.00000000000E+00 0.  1.
         21    1    1    2  502  501 -0.95750734944E-05 -0.19061636069E-04 -0.16633023768E-04  0.27049685427E-04  0.00000000000E+00 0.  1.
<mgrwt>
<rscale>  1 0.63455691E+03</rscale>
<asrwt>0</asrwt>
<pdfrwt beam="1">  1        1 0.36605759E+00 0.63455691E+03</pdfrwt>
<pdfrwt beam="2">0</pdfrwt>
<totfact> 0.18951617E+00</totfact>
</mgrwt>
</event>
<event>
 6    1  0.5285482E-003  0.6497633E+03  0.7818608E-02  0.9807224E-01
          1   -1    0    0  502    0  0.00000000000E+00  0.00000000000E+00  0.10555056964E+03  0.10555056964E+03  0.00000000000E+00 0.  1.
         13   -1    0    0    0    0 -0.00000000000E+00 -0.00000000000E+00 -0.10000000000E+04  0.10000000000E+04  0.00000000000E+00 0.  1.
    9000005    2    1    2  501    0  0.27432027365E-03  0.17130881787E-03 -0.89445191705E+03  0.11055480620E+04  0.64976325343E+03 0.  0.
         13    1    3    3    0    0  0.11993931877E+03 -0.30071228500E+03 -0.40110609769E+03  0.51546039629E+03  0.00000000000E+00 0.  1.
          3    1    3    3  501    0 -0.11993904445E+03  0.30071245631E+03 -0.49334581935E+03  0.59008766572E+03  0.00000000000E+00 0.  1.
         21    1    1    2  502  501 -0.27432027365E-03 -0.17130881789E-03  0.24866819540E-02  0.25076254633E-02  0.00000000000E+00 0.  1.
<mgrwt>
<rscale>  1 0.64976325E+03</rscale>
<asrwt>0</asrwt>
<pdfrwt beam="1">  1        1 0.38382106E+00 0.64976325E+03</pdfrwt>
<pdfrwt beam="2">0</pdfrwt>
<totfact> 0.15784992E+00</totfact>
</mgrwt>
</event>
<event>
 6    1  0.5285482E-003  0.6549936E+03  0.7818608E-02  0.9797454E-01
          1   -1    0    0  502    0  0.00000000000E+00  0.00000000000E+00  0.10730519010E+03  0.10730519010E+03  0.00000000000E+00 0.  1.
         13   -1    0    0    0    0 -0.00000000000E+00 -0.00000000000E+00 -0.10000000000E+04  0.10000000000E+04  0.00000000000E+00 0.  1.
    9000005    2    1    2  501    0 -0.36991425108E-02  0.22170386467E-01 -0.89274307965E+03  0.11072519437E+04  0.65499363362E+03 0.  0.
         13    1    3    3    0    0 -0.25500275690E+03 -0.18770757652E+03 -0.30502630812E+03  0.43966076577E+03  0.00000000000E+00 0.  1.
          3    1    3    3  501    0  0.25499905776E+03  0.18772974691E+03 -0.58771677153E+03  0.66759117794E+03  0.00000000000E+00 0.  1.
         21    1    1    2  502  501  0.36991425108E-02 -0.22170386467E-01  0.48269750696E-01  0.53246394467E-01  0.00000000000E+00 0.  1.
<mgrwt>
<rscale>  1 0.65499363E+03</rscale>
<asrwt>0</asrwt>
<pdfrwt beam="1">  1        1 0.39020151E+00 0.65499363E+03</pdfrwt>
<pdfrwt beam="2">0</pdfrwt>
<totfact> 0.14776530E+00</totfact>
</mgrwt>
</event>
<event>
 6    1  0.6191796E-003  0.6513568E+03  0.7818608E-02  0.9804237E-01
          1   -1    0    0  502    0  0.00000000000E+00  0.00000000000E+00  0.10606641497E+03  0.10606641497E+03  0.00000000000E+00 0.  1.
         13   -1    0    0    0    0 -0.00000000000E+00 -0.00000000000E+00 -0.10000000000E+04  0.10000000000E+04  0.00000000000E+00 0.  1.
    9000005    2    1    2  501    0 -0.41431721129E-05  0.80512728573E-06 -0.89393357057E+03  0.11060663999E+04  0.65135677811E+03 0.  0.
         13    1    3    3    0    0 -0.15209264578E+02 -0.19832432334E+03 -0.88487331882E+03  0.90695349898E+03  0.00000000000E+00 0.  1.
          3    1    3    3  501    0  0.15209260435E+02  0.19832432415E+03 -0.90602517553E+01  0.19911290092E+03  0.00000000000E+00 0.  1.
         21    1    1    2  502  501  0.41431721136E-05 -0.80512730049E-06 -0.14459027425E-04  0.15062455949E-04  0.00000000000E+00 0. -1.
<mgrwt>
<rscale>  1 0.65135678E+03</rscale>
<asrwt>0</asrwt>
<pdfrwt beam="1">  1        1 0.38569687E+00 0.65135678E+03</pdfrwt>
<pdfrwt beam="2">0</pdfrwt>
<totfact> 0.15481765E+00</totfact>
</mgrwt>
</event>
<event>
 6    1  0.5285482E-003  0.6426186E+03  0.7818608E-02  0.9820729E-01
          1   -1    0    0  502    0  0.00000000000E+00  0.00000000000E+00  0.10329570676E+03  0.10329570676E+03  0.00000000000E+00 0.  1.
         13   -1    0    0    0    0 -0.00000000000E+00 -0.00000000000E+00 -0.10000000000E+04  0.10000000000E+04  0.00000000000E+00 0.  1.
    9000005    2    1    2  501    0 -0.96515654191E-03  0.17911034608E-02 -0.89676030316E+03  0.11032396599E+04  0.64261863173E+03 0.  0.
         13    1    3    3    0    0  0.12592709701E+03  0.24902360643E+03 -0.17493367335E+03  0.32935115058E+03  0.00000000000E+00 0.  1.
          3    1    3    3  501    0 -0.12592806217E+03 -0.24902181532E+03 -0.72182662981E+03  0.77388850932E+03  0.00000000000E+00 0.  1.
         21    1    1    2  502  501  0.96515654191E-03 -0.17911034608E-02  0.56009919508E-01  0.56046861304E-01  0.00000000000E+00 0.  1.
<mgrwt>
<rscale>  1 0.64261863E+03</rscale>
<asrwt>0</asrwt>
<pdfrwt beam="1">  1        1 0.37562154E+00 0.64261863E+03</pdfrwt>
<pdfrwt beam="2">0</pdfrwt>
<totfact> 0.17178622E+00</totfact>
</mgrwt>
</event>
<event>
 6    1  0.5285482E-003  0.6510612E+03  0.7818608E-02  0.9804790E-01
          1   -1    0    0  502    0  0.00000000000E+00  0.00000000000E+00  0.10597709543E+03  0.10597709543E+03  0.00000000000E+00 0.  1.
         13   -1    0    0    0    0 -0.00000000000E+00 -0.00000000000E+00 -0.10000000000E+04  0.10000000000E+04  0.00000000000E+00 0.  1.
    9000005    2    1    2  501    0  0.12919780886E-03 -0.13441823207E-03 -0.89402983211E+03  0.11059701654E+04  0.65106118454E+03 0.  0.
         13    1    3    3    0    0 -0.30058564555E+03 -0.74817385418E+02 -0.61706306883E+03  0.69044637908E+03  0.00000000000E+00 0.  1.
          1    1    3    3  501    0  0.30058577474E+03  0.74817251000E+02 -0.27696676328E+03  0.41552378630E+03  0.00000000000E+00 0.  1.
         21    1    1    2  502  501 -0.12919780888E-03  0.13441823206E-03  0.69275370842E-02  0.69300454824E-02  0.00000000000E+00 0.  1.
<mgrwt>
<rscale>  1 0.65106118E+03</rscale>
<asrwt>0</asrwt>
<pdfrwt beam="1">  1        1 0.38537207E+00 0.65106118E+03</pdfrwt>
<pdfrwt beam="2">0</pdfrwt>
<totfact> 0.15533926E+00</totfact>
</mgrwt>
</event>
<event>
 6    1  0.5285482E-003  0.6525055E+03  0.7818608E-02  0.9802089E-01
          1   -1    0    0  502    0  0.00000000000E+00  0.00000000000E+00  0.10706552896E+03  0.10706552896E+03  0.00000000000E+00 0.  1.
         13   -1    0    0    0    0 -0.00000000000E+00 -0.00000000000E+00 -0.10000000000E+04  0.10000000000E+04  0.00000000000E+00 0.  1.
    9000005    2    1    2  501    0  0.79010048111E-02  0.23174617777E-01 -0.89355887984E+03  0.11064406403E+04  0.65250549282E+03 0.  0.
         13    1    3    3    0    0 -0.58723928661E+02 -0.24968683197E+03 -0.78861557547E+03  0.82928073638E+03  0.00000000000E+00 0.  1.
          3    1    3    3  501    0  0.58731829666E+02  0.24971000659E+03 -0.10494330437E+03  0.27715990392E+03  0.00000000000E+00 0.  1.
         21    1    1    2  502  501 -0.79010048111E-02 -0.23174617777E-01  0.62440880197E+00  0.62488866269E+00  0.00000000000E+00 0. -1.
<mgrwt>
<rscale>  1 0.65250549E+03</rscale>
<asrwt>0</asrwt>
<pdfrwt beam="1">  1        1 0.38933002E+00 0.65250549E+03</pdfrwt>
<pdfrwt beam="2">0</pdfrwt>
<totfact> 0.14915482E+00</totfact>
</mgrwt>
</event>
<event>
 6    1  0.5285482E-003  0.6462850E+03  0.7818608E-02  0.9813775E-01
          1   -1    0    0  502    0  0.00000000000E+00  0.00000000000E+00  0.10442371301E+03  0.10442371301E+03  0.00000000000E+00 0.  1.
         13   -1    0    0    0    0 -0.00000000000E+00 -0.00000000000E+00 -0.10000000000E+04  0.10000000000E+04  0.00000000000E+00 0.  1.
    9000005    2    1    2  501    0  0.51193869695E-04  0.10949625860E-03 -0.89557892504E+03  0.11044210722E+04  0.64628499419E+03 0.  0.
         13    1    3    3    0    0  0.15138871728E+03 -0.63495524206E+02  0.27852067953E+02  0.16651114978E+03  0.00000000000E+00 0.  1.
          3    1    3    3  501    0 -0.15138866608E+03  0.63495633703E+02 -0.92343099300E+03  0.93790992240E+03  0.00000000000E+00 0.  1.
         21    1    1    2  502  501 -0.51193869680E-04 -0.10949625860E-03  0.26380529288E-02  0.26408206108E-02  0.00000000000E+00 0. -1.
<mgrwt>
<rscale>  1 0.64628499E+03</rscale>
<asrwt>0</asrwt>
<pdfrwt beam="1">  1        1 0.37972339E+00 0.64628499E+03</pdfrwt>
<pdfrwt beam="2">0</pdfrwt>
<totfact> 0.16467140E+00</totfact>
</mgrwt>
</event>
<event>
 6    1  0.5285482E-003  0.6450591E+03  0.7818608E-02  0.9816095E-01
          1   -1    0    0  502    0  0.00000000000E+00  0.00000000000E+00  0.10405191720E+03  0.10405191720E+03  0.00000000000E+00 0.  1.
         13   -1    0    0    0    0 -0.00000000000E+00 -0.00000000000E+00 -0.10000000000E+04  0.10000000000E+04  0.00000000000E+00 0.  1.
    9000005    2    1    2  501    0  0.57773375014E-01 -0.51739819824E-01 -0.89578554054E+03  0.11038718207E+04  0.64505911034E+03 0.  0.
         13    1    3    3    0    0  0.20300346020E+03 -0.16365526149E+03 -0.77286202187E+03  0.81566485416E+03  0.00000000000E+00 0.  1.
          1    1    3    3  501    0 -0.20294568683E+03  0.16360352167E+03 -0.12292351867E+03  0.28820696652E+03  0.00000000000E+00 0.  1.
         21    1    1    2  502  501 -0.57773375014E-01  0.51739819824E-01 -0.16254225813E+00  0.18009652271E+00  0.00000000000E+00 0. -1.
<mgrwt>
<rscale>  1 0.64505911E+03</rscale>
<asrwt>0</asrwt>
<pdfrwt beam="1">  1        1 0.37837141E+00 0.64505911E+03</pdfrwt>
<pdfrwt beam="2">0</pdfrwt>
<totfact> 0.16698540E+00</totfact>
</mgrwt>
</event>
<event>
 6    1  0.5285482E-003  0.6458299E+03  0.7818608E-02  0.9814636E-01
          1   -1    0    0  502    0  0.00000000000E+00  0.00000000000E+00  0.10427406614E+03  0.10427406614E+03  0.00000000000E+00 0.  1.
         13   -1    0    0    0    0 -0.00000000000E+00 -0.00000000000E+00 -0.10000000000E+04  0.10000000000E+04  0.00000000000E+00 0.  1.
    9000005    2    1    2  501    0 -0.53665644657E-05 -0.11969947749E-04 -0.89572593901E+03  0.11042740521E+04  0.64582987251E+03 0.  0.
         13    1    3    3    0    0  0.27033038930E+02  0.71235103378E+02 -0.98441040701E+03  0.98735458401E+03  0.00000000000E+00 0.  1.
          1    1    3    3  501    0 -0.27033044297E+02 -0.71235115348E+02  0.88684467998E+02  0.11691946804E+03  0.00000000000E+00 0.  1.
         21    1    1    2  502  501  0.53665644679E-05  0.11969947760E-04  0.51502299619E-05  0.14092712025E-04  0.00000000000E+00 0. -1.
<mgrwt>
<rscale>  1 0.64582987E+03</rscale>
<asrwt>0</asrwt>
<pdfrwt beam="1">  1        1 0.37917922E+00 0.64582987E+03</pdfrwt>
<pdfrwt beam="2">0</pdfrwt>
<totfact> 0.16559792E+00</totfact>
</mgrwt>
</event>
<event>
 6    1  0.5285482E-003  0.6478091E+03  0.7818608E-02  0.9810899E-01
          1   -1    0    0  502    0  0.00000000000E+00  0.00000000000E+00  0.10656281196E+03  0.10656281196E+03  0.00000000000E+00 0.  1.
         13   -1    0    0    0    0 -0.00000000000E+00 -0.00000000000E+00 -0.10000000000E+04  0.10000000000E+04  0.00000000000E+00 0.  1.
    9000005    2    1    2  501    0 -0.39667047566E+00  0.77669687828E-02 -0.89505944060E+03  0.11048927487E+04  0.64780894297E+03 0.  0.
         13    1    3    3    0    0  0.18298546075E+03 -0.70536672838E+02 -0.79354133941E+01  0.19627040492E+03  0.00000000000E+00 0.  1.
          1    1    3    3  501    0 -0.18338213123E+03  0.70544439807E+02 -0.88712402721E+03  0.90862234382E+03  0.00000000000E+00 0.  1.
         21    1    1    2  502  501  0.39667047566E+00 -0.77669687828E-02  0.16222525606E+01  0.16700632211E+01  0.00000000000E+00 0.  1.
<mgrwt>
<rscale>  1 0.64780906E+03</rscale>
<asrwt>0</asrwt>
<pdfrwt beam="1">  1        1 0.38750195E+00 0.64780906E+03</pdfrwt>
<pdfrwt beam="2">0</pdfrwt>
<totfact> 0.15209536E+00</totfact>
</mgrwt>
</event>
<event>
 6    1  0.5285482E-003  0.6660271E+03  0.7818608E-02  0.9777162E-01
          1   -1    0    0  502    0  0.00000000000E+00  0.00000000000E+00  0.11090145916E+03  0.11090145916E+03  0.00000000000E+00 0.  1.
         13   -1    0    0    0    0 -0.00000000000E+00 -0.00000000000E+00 -0.10000000000E+04  0.10000000000E+04  0.00000000000E+00 0.  1.
    9000005    2    1    2  501    0 -0.40100614568E-03  0.43832927383E-03 -0.88910194381E+03  0.11108980047E+04  0.66602710937E+03 0.  0.
         13    1    3    3    0    0  0.23554648778E+02 -0.19757973987E+03 -0.88994374919E+03  0.91191691058E+03  0.00000000000E+00 0.  1.
          3    1    3    3  501    0 -0.23555049784E+02  0.19758017820E+03  0.84180538167E+00  0.19898109414E+03  0.00000000000E+00 0.  1.
         21    1    1    2  502  501  0.40100614568E-03 -0.43832927386E-03  0.34029708675E-02  0.34544390582E-02  0.00000000000E+00 0. -1.
<mgrwt>
<rscale>  1 0.66602711E+03</rscale>
<asrwt>0</asrwt>
<pdfrwt beam="1">  1        1 0.40327888E+00 0.66602711E+03</pdfrwt>
<pdfrwt beam="2">0</pdfrwt>
<totfact> 0.12896383E+00</totfact>
</mgrwt>
</event>
<event>
 6    1  0.5285482E-003  0.6503213E+03  0.7818608E-02  0.9806177E-01
          1   -1    0    0  502    0  0.00000000000E+00  0.00000000000E+00  0.10572968021E+03  0.10572968021E+03  0.00000000000E+00 0.  1.
         13   -1    0    0    0    0 -0.00000000000E+00 -0.00000000000E+00 -0.10000000000E+04  0.10000000000E+04  0.00000000000E+00 0.  1.
    9000005    2    1    2  501    0  0.11701762759E-04  0.39112021142E-04 -0.89427056355E+03  0.11057294331E+04  0.65032125775E+03 0.  0.
         13    1    3    3    0    0 -0.17369806205E+03  0.23217538035E+03 -0.19693942798E+03  0.35051613700E+03  0.00000000000E+00 0.  1.
          1    1    3    3  501    0  0.17369807375E+03 -0.23217534124E+03 -0.69733113557E+03  0.75521329605E+03  0.00000000000E+00 0.  1.
         21    1    1    2  502  501 -0.11701762755E-04 -0.39112021135E-04  0.24376020968E-03  0.24715525742E-03  0.00000000000E+00 0. -1.
<mgrwt>
<rscale>  1 0.65032126E+03</rscale>
<asrwt>0</asrwt>
<pdfrwt beam="1">  1        1 0.38447238E+00 0.65032126E+03</pdfrwt>
<pdfrwt beam="2">0</pdfrwt>
<totfact> 0.15679058E+00</totfact>
</mgrwt>
</event>
<event>
 6    1  0.5285482E-003  0.6474479E+03  0.7818608E-02  0.9811580E-01
          1   -1    0    0  502    0  0.00000000000E+00  0.00000000000E+00  0.10482760796E+03  0.10482760796E+03  0.00000000000E+00 0.  1.
         13   -1    0    0    0    0 -0.00000000000E+00 -0.00000000000E+00 -0.10000000000E+04  0.10000000000E+04  0.00000000000E+00 0.  1.
    9000005    2    1    2  501    0 -0.42654472578E-02 -0.70902278824E-03 -0.89520264341E+03  0.11047970491E+04  0.64744787201E+03 0.  0.
         13    1    3    3    0    0 -0.13016473544E+03  0.20755996291E+03 -0.80866994065E+03  0.84496808784E+03  0.00000000000E+00 0.  1.
          1    1    3    3  501    0  0.13016046999E+03 -0.20756067193E+03 -0.86532702761E+02  0.25982896129E+03  0.00000000000E+00 0.  1.
         21    1    1    2  502  501  0.42654472578E-02  0.70902278826E-03  0.30251366757E-01  0.30558827600E-01  0.00000000000E+00 0.  1.
<mgrwt>
<rscale>  1 0.64744787E+03</rscale>
<asrwt>0</asrwt>
<pdfrwt beam="1">  1        1 0.38119211E+00 0.64744787E+03</pdfrwt>
<pdfrwt beam="2">0</pdfrwt>
<totfact> 0.16219728E+00</totfact>
</mgrwt>
</event>
<event>
 6    1  0.5285482E-003  0.6451960E+03  0.7818608E-02  0.9815836E-01
          1   -1    0    0  502    0  0.00000000000E+00  0.00000000000E+00  0.10407208914E+03  0.10407208914E+03  0.00000000000E+00 0.  1.
         13   -1    0    0    0    0 -0.00000000000E+00 -0.00000000000E+00 -0.10000000000E+04  0.10000000000E+04  0.00000000000E+00 0.  1.
    9000005    2    1    2  501    0 -0.18220651270E-04 -0.82406260844E-04 -0.89593054407E+03  0.11040694546E+04  0.64519595530E+03 0.  0.
         13    1    3    3    0    0  0.14968415009E+03  0.28125951845E+03 -0.36143169644E+03  0.48181441728E+03  0.00000000000E+00 0.  1.
          1    1    3    3  501    0 -0.14968416831E+03 -0.28125960086E+03 -0.53449884763E+03  0.62225503729E+03  0.00000000000E+00 0.  1.
         21    1    1    2  502  501  0.18220651259E-04  0.82406260804E-04  0.26332079665E-02  0.26345601110E-02  0.00000000000E+00 0. -1.
<mgrwt>
<rscale>  1 0.64519596E+03</rscale>
<asrwt>0</asrwt>
<pdfrwt beam="1">  1        1 0.37844476E+00 0.64519596E+03</pdfrwt>
<pdfrwt beam="2">0</pdfrwt>
<totfact> 0.16685691E+00</totfact>
</mgrwt>
</event>
<event>
 6    1  0.5285482E-003  0.6548820E+03  0.7818608E-02  0.9797661E-01
          1   -1    0    0  502    0  0.00000000000E+00  0.00000000000E+00  0.10721876279E+03  0.10721876279E+03  0.00000000000E+00 0.  1.
         13   -1    0    0    0    0 -0.00000000000E+00 -0.00000000000E+00 -0.10000000000E+04  0.10000000000E+04  0.00000000000E+00 0.  1.
    9000005    2    1    2  501    0 -0.14331396017E-04 -0.33015353189E-04 -0.89278240334E+03  0.11072175961E+04  0.65488196295E+03 0.  0.
         13    1    3    3    0    0 -0.28263440042E+03 -0.39143478638E+02 -0.71797673334E+03  0.77259627610E+03  0.00000000000E+00 0.  1.
          3    1    3    3  501    0  0.28263438609E+03  0.39143445623E+02 -0.17480567000E+03  0.33462132000E+03  0.00000000000E+00 0.  1.
         21    1    1    2  502  501  0.14331396016E-04  0.33015353186E-04  0.11661316721E-02  0.11666869671E-02  0.00000000000E+00 0. -1.
<mgrwt>
<rscale>  1 0.65488196E+03</rscale>
<asrwt>0</asrwt>
<pdfrwt beam="1">  1        1 0.38988723E+00 0.65488196E+03</pdfrwt>
<pdfrwt beam="2">0</pdfrwt>
<totfact> 0.14824336E+00</totfact>
</mgrwt>
</event>
<event>
 6    1  0.5285482E-003  0.5845027E+03  0.7818608E-02  0.9938090E-01
          1   -1    0    0  502    0  0.00000000000E+00  0.00000000000E+00  0.85415071344E+02  0.85415071344E+02  0.00000000000E+00 0.  1.
         13   -1    0    0    0    0 -0.00000000000E+00 -0.00000000000E+00 -0.10000000000E+04  0.10000000000E+04  0.00000000000E+00 0.  1.
    9000005    2    1    2  501    0 -0.62199059869E-04  0.33965455941E-04 -0.91458914557E+03  0.10854108538E+04  0.58450270865E+03 0.  0.
         13    1    3    3    0    0  0.21437931591E+03  0.18568224632E+03 -0.58826719256E+03  0.65306559971E+03  0.00000000000E+00 0.  1.
          3    1    3    3  501    0 -0.21437937810E+03 -0.18568221236E+03 -0.32632195301E+03  0.43234525412E+03  0.00000000000E+00 0.  1.
         21    1    1    2  502  501  0.62199059850E-04 -0.33965455933E-04  0.42169152466E-02  0.42175107080E-02  0.00000000000E+00 0.  1.
<mgrwt>
<rscale>  1 0.58450271E+03</rscale>
<asrwt>0</asrwt>
<pdfrwt beam="1">  1        1 0.31060091E+00 0.58450271E+03</pdfrwt>
<pdfrwt beam="2">0</pdfrwt>
<totfact> 0.33300754E+00</totfact>
</mgrwt>
</event>
<event>
 6    1  0.5285482E-003  0.6589552E+03  0.7818608E-02  0.9790119E-01
          1   -1    0    0  502    0  0.00000000000E+00  0.00000000000E+00  0.10856567163E+03  0.10856567163E+03  0.00000000000E+00 0.  1.
         13   -1    0    0    0    0 -0.00000000000E+00 -0.00000000000E+00 -0.10000000000E+04  0.10000000000E+04  0.00000000000E+00 0.  1.
    9000005    2    1    2  501    0 -0.28363314302E-02  0.36495672819E-02 -0.89144392614E+03  0.11085550189E+04  0.65895520059E+03 0.  0.
         13    1    3    3    0    0  0.27786017260E+03 -0.69379722893E+02 -0.71975597101E+03  0.77464087116E+03  0.00000000000E+00 0.  1.
          1    1    3    3  501    0 -0.27786300893E+03  0.69383372461E+02 -0.17168795513E+03  0.33391414771E+03  0.00000000000E+00 0.  1.
         21    1    1    2  502  501  0.28363314302E-02 -0.36495672819E-02  0.95977689396E-02  0.10652759546E-01  0.00000000000E+00 0.  1.
<mgrwt>
<rscale>  1 0.65895520E+03</rscale>
<asrwt>0</asrwt>
<pdfrwt beam="1">  1        1 0.39478509E+00 0.65895520E+03</pdfrwt>
<pdfrwt beam="2">0</pdfrwt>
<totfact> 0.14089587E+00</totfact>
</mgrwt>
</event>
<event>
 6    1  0.5285482E-003  0.6341482E+03  0.7818608E-02  0.9836987E-01
          1   -1    0    0  502    0  0.00000000000E+00  0.00000000000E+00  0.10053741987E+03  0.10053741987E+03  0.00000000000E+00 0.  1.
         13   -1    0    0    0    0 -0.00000000000E+00 -0.00000000000E+00 -0.10000000000E+04  0.10000000000E+04  0.00000000000E+00 0.  1.
    9000005    2    1    2  501    0 -0.62672889666E-03 -0.39429970271E-02 -0.89945986518E+03  0.11005325917E+04  0.63414819747E+03 0.  0.
         13    1    3    3    0    0 -0.50853315537E+02  0.10013108169E+03  0.64864271266E+02  0.12969065852E+03  0.00000000000E+00 0.  1.
          1    1    3    3  501    0  0.50852688808E+02 -0.10013502468E+03 -0.96432413644E+03  0.97084193320E+03  0.00000000000E+00 0.  1.
         21    1    1    2  502  501  0.62672889666E-03  0.39429970271E-02 -0.27149580150E-02  0.48281478529E-02  0.00000000000E+00 0.  1.
<mgrwt>
<rscale>  1 0.63414820E+03</rscale>
<asrwt>0</asrwt>
<pdfrwt beam="1">  1        1 0.36559139E+00 0.63414820E+03</pdfrwt>
<pdfrwt beam="2">0</pdfrwt>
<totfact> 0.19042426E+00</totfact>
</mgrwt>
</event>
<event>
 6    1  0.5285482E-003  0.6543589E+03  0.7818608E-02  0.9798634E-01
          1   -1    0    0  502    0  0.00000000000E+00  0.00000000000E+00  0.10762951540E+03  0.10762951540E+03  0.00000000000E+00 0.  1.
         13   -1    0    0    0    0 -0.00000000000E+00 -0.00000000000E+00 -0.10000000000E+04  0.10000000000E+04  0.00000000000E+00 0.  1.
    9000005    2    1    2  501    0  0.21094409105E+00 -0.41419740534E-01 -0.89293158434E+03  0.11070286444E+04  0.65435889164E+03 0.  0.
         13    1    3    3    0    0  0.27144972700E+03  0.18024231703E+03 -0.39514594435E+03  0.51216458729E+03  0.00000000000E+00 0.  1.
          1    1    3    3  501    0 -0.27123878291E+03 -0.18028373677E+03 -0.49778563999E+03  0.59486405714E+03  0.00000000000E+00 0.  1.
         21    1    1    2  502  501 -0.21094409105E+00  0.41419740534E-01  0.56109973738E+00  0.60087096763E+00  0.00000000000E+00 0. -1.
<mgrwt>
<rscale>  1 0.65435893E+03</rscale>
<asrwt>0</asrwt>
<pdfrwt beam="1">  1        1 0.39138088E+00 0.65435893E+03</pdfrwt>
<pdfrwt beam="2">0</pdfrwt>
<totfact> 0.14601294E+00</totfact>
</mgrwt>
</event>
<event>
 6    1  0.5285482E-003  0.6488202E+03  0.7818608E-02  0.9808995E-01
          1   -1    0    0  502    0  0.00000000000E+00  0.00000000000E+00  0.10524193192E+03  0.10524193192E+03  0.00000000000E+00 0.  1.
         13   -1    0    0    0    0 -0.00000000000E+00 -0.00000000000E+00 -0.10000000000E+04  0.10000000000E+04  0.00000000000E+00 0.  1.
    9000005    2    1    2  501    0  0.13605342133E-05  0.27050074891E-06 -0.89475807731E+03  0.11052419226E+04  0.64882022976E+03 0.  0.
         13    1    3    3    0    0  0.24097281034E+03  0.17311766717E+03 -0.22394389587E+03  0.37173712555E+03  0.00000000000E+00 0.  1.
          3    1    3    3  501    0 -0.24097280898E+03 -0.17311766690E+03 -0.67081418144E+03  0.73350479704E+03  0.00000000000E+00 0.  1.
         21    1    1    2  502  501 -0.13605342231E-05 -0.27050075041E-06  0.92232921536E-05  0.93270221496E-05  0.00000000000E+00 0. -1.
<mgrwt>
<rscale>  1 0.64882023E+03</rscale>
<asrwt>0</asrwt>
<pdfrwt beam="1">  1        1 0.38269874E+00 0.64882023E+03</pdfrwt>
<pdfrwt beam="2">0</pdfrwt>
<totfact> 0.15969077E+00</totfact>
</mgrwt>
</event>
<event>
 6    1  0.5285482E-003  0.6572041E+03  0.7818608E-02  0.9793354E-01
          1   -1    0    0  502    0  0.00000000000E+00  0.00000000000E+00  0.10797933199E+03  0.10797933199E+03  0.00000000000E+00 0.  1.
         13   -1    0    0    0    0 -0.00000000000E+00 -0.00000000000E+00 -0.10000000000E+04  0.10000000000E+04  0.00000000000E+00 0.  1.
    9000005    2    1    2  501    0 -0.25828905166E-05  0.10526274252E-05 -0.89202070613E+03  0.11079792938E+04  0.65720405907E+03 0.  0.
         13    1    3    3    0    0  0.10647404542E+03  0.87276370972E+02  0.57013280295E+02  0.14901141368E+03  0.00000000000E+00 0.  1.
          3    1    3    3  501    0 -0.10647404800E+03 -0.87276369919E+02 -0.94903398642E+03  0.95896788008E+03  0.00000000000E+00 0.  1.
         21    1    1    2  502  501  0.25828905210E-05 -0.10526274180E-05  0.38117886224E-04  0.38219793276E-04  0.00000000000E+00 0. -1.
<mgrwt>
<rscale>  1 0.65720406E+03</rscale>
<asrwt>0</asrwt>
<pdfrwt beam="1">  1        1 0.39265294E+00 0.65720406E+03</pdfrwt>
<pdfrwt beam="2">0</pdfrwt>
<totfact> 0.14405037E+00</totfact>
</mgrwt>
</event>
<event>
 6    1  0.5285482E-003  0.6783346E+03  0.7818608E-02  0.9755017E-01
          1   -1    0    0  502    0  0.00000000000E+00  0.00000000000E+00  0.11513565572E+03  0.11513565572E+03  0.00000000000E+00 0.  1.
         13   -1    0    0    0    0 -0.00000000000E+00 -0.00000000000E+00 -0.10000000000E+04  0.10000000000E+04  0.00000000000E+00 0.  1.
    9000005    2    1    2  501    0 -0.84156599389E-01  0.51499977253E-01 -0.88493796433E+03  0.11150125521E+04  0.67833456419E+03 0.  0.
         13    1    3    3    0    0  0.21665002840E+03 -0.25880205520E+03 -0.49660582489E+03  0.60044407224E+03  0.00000000000E+00 0.  1.
          1    1    3    3  501    0 -0.21673418499E+03  0.25885355518E+03 -0.38833213944E+03  0.51456847989E+03  0.00000000000E+00 0.  1.
         21    1    1    2  502  501  0.84156599389E-01 -0.51499977253E-01  0.73620052282E-01  0.12310358636E+00  0.00000000000E+00 0.  1.
<mgrwt>
<rscale>  1 0.67833457E+03</rscale>
<asrwt>0</asrwt>
<pdfrwt beam="1">  1        1 0.41867599E+00 0.67833457E+03</pdfrwt>
<pdfrwt beam="2">0</pdfrwt>
<totfact> 0.10973456E+00</totfact>
</mgrwt>
</event>
<event>
 6    1  0.5285482E-003  0.6525742E+03  0.7818608E-02  0.9801961E-01
          1   -1    0    0  502    0  0.00000000000E+00  0.00000000000E+00  0.10646362507E+03  0.10646362507E+03  0.00000000000E+00 0.  1.
         13   -1    0    0    0    0 -0.00000000000E+00 -0.00000000000E+00 -0.10000000000E+04  0.10000000000E+04  0.00000000000E+00 0.  1.
    9000005    2    1    2  501    0  0.28453067387E-04  0.27267395353E-04 -0.89353671295E+03  0.11064632848E+04  0.65257424337E+03 0.  0.
         13    1    3    3    0    0  0.23322530866E+03 -0.15533847615E+03 -0.16335907729E+03  0.32436133386E+03  0.00000000000E+00 0.  1.
          3    1    3    3  501    0 -0.23322528020E+03  0.15533850342E+03 -0.73017763567E+03  0.78210195090E+03  0.00000000000E+00 0.  1.
         21    1    1    2  502  501 -0.28453067394E-04 -0.27267395339E-04  0.33802760411E-03  0.34031713009E-03  0.00000000000E+00 0. -1.
<mgrwt>
<rscale>  1 0.65257424E+03</rscale>
<asrwt>0</asrwt>
<pdfrwt beam="1">  1        1 0.38714127E+00 0.65257424E+03</pdfrwt>
<pdfrwt beam="2">0</pdfrwt>
<totfact> 0.15252081E+00</totfact>
</mgrwt>
</event>
<event>
 6    1  0.5285482E-003  0.6765035E+03  0.7818608E-02  0.9758280E-01
          1   -1    0    0  502    0  0.00000000000E+00  0.00000000000E+00  0.11441424413E+03  0.11441424413E+03  0.00000000000E+00 0.  1.
         13   -1    0    0    0    0 -0.00000000000E+00 -0.00000000000E+00 -0.10000000000E+04  0.10000000000E+04  0.00000000000E+00 0.  1.
    9000005    2    1    2  501    0 -0.97033610871E-05  0.55009354298E-05 -0.88558576501E+03  0.11144142297E+04  0.67650345762E+03 0.  0.
         13    1    3    3    0    0  0.17230606247E+03  0.20217045904E+03 -0.78775477415E+03  0.83133618823E+03  0.00000000000E+00 0.  1.
          3    1    3    3  501    0 -0.17230607217E+03 -0.20217045354E+03 -0.97830990863E+02  0.28307804147E+03  0.00000000000E+00 0.  1.
         21    1    1    2  502  501  0.97033611049E-05 -0.55009354567E-05  0.91458245326E-05  0.14424341025E-04  0.00000000000E+00 0. -1.
<mgrwt>
<rscale>  1 0.67650346E+03</rscale>
<asrwt>0</asrwt>
<pdfrwt beam="1">  1        1 0.41605267E+00 0.67650346E+03</pdfrwt>
<pdfrwt beam="2">0</pdfrwt>
<totfact> 0.11280214E+00</totfact>
</mgrwt>
</event>
<event>
 6    1  0.5285482E-003  0.6415272E+03  0.7818608E-02  0.9822809E-01
          1   -1    0    0  502    0  0.00000000000E+00  0.00000000000E+00  0.10299580082E+03  0.10299580082E+03  0.00000000000E+00 0.  1.
         13   -1    0    0    0    0 -0.00000000000E+00 -0.00000000000E+00 -0.10000000000E+04  0.10000000000E+04  0.00000000000E+00 0.  1.
    9000005    2    1    2  501    0  0.98948960951E-02  0.22333658579E-02 -0.89711044488E+03  0.11028890720E+04  0.64152720492E+03 0.  0.
         13    1    3    3    0    0 -0.87097527124E+02 -0.22647591946E+03 -0.80921009886E+03  0.84480666748E+03  0.00000000000E+00 0.  1.
          1    1    3    3  501    0  0.87107422020E+02  0.22647815282E+03 -0.87900346028E+02  0.25808240449E+03  0.00000000000E+00 0.  1.
         21    1    1    2  502  501 -0.98948960951E-02 -0.22333658579E-02  0.10624570257E+00  0.10672884431E+00  0.00000000000E+00 0. -1.
<mgrwt>
<rscale>  1 0.64152721E+03</rscale>
<asrwt>0</asrwt>
<pdfrwt beam="1">  1        1 0.37453097E+00 0.64152721E+03</pdfrwt>
<pdfrwt beam="2">0</pdfrwt>
<totfact> 0.17373035E+00</totfact>
</mgrwt>
</event>
<event>
 6    1  0.5285482E-003  0.6532301E+03  0.7818608E-02  0.9800737E-01
          1   -1    0    0  502    0  0.00000000000E+00  0.00000000000E+00  0.10667739492E+03  0.10667739492E+03  0.00000000000E+00 0.  1.
         13   -1    0    0    0    0 -0.00000000000E+00 -0.00000000000E+00 -0.10000000000E+04  0.10000000000E+04  0.00000000000E+00 0.  1.
    9000005    2    1    2  501    0 -0.28610021161E-05  0.23312765052E-05 -0.89332261388E+03  0.11066773854E+04  0.65323008415E+03 0.  0.
         13    1    3    3    0    0 -0.20119143579E+03  0.20718065102E+03 -0.18819435352E+03  0.34470121945E+03  0.00000000000E+00 0.  1.
          1    1    3    3  501    0  0.20119143293E+03 -0.20718064869E+03 -0.70512826036E+03  0.76197616593E+03  0.00000000000E+00 0.  1.
         21    1    1    2  502  501  0.28610021225E-05 -0.23312764952E-05  0.88015330429E-05  0.95439597205E-05  0.00000000000E+00 0.  1.
<mgrwt>
<rscale>  1 0.65323008E+03</rscale>
<asrwt>0</asrwt>
<pdfrwt beam="1">  1        1 0.38791862E+00 0.65323008E+03</pdfrwt>
<pdfrwt beam="2">0</pdfrwt>
<totfact> 0.15129811E+00</totfact>
</mgrwt>
</event>
<event>
 6    1  0.5285482E-003  0.6450684E+03  0.7818608E-02  0.9816077E-01
          1   -1    0    0  502    0  0.00000000000E+00  0.00000000000E+00  0.10444015366E+03  0.10444015366E+03  0.00000000000E+00 0.  1.
         13   -1    0    0    0    0 -0.00000000000E+00 -0.00000000000E+00 -0.10000000000E+04  0.10000000000E+04  0.00000000000E+00 0.  1.
    9000005    2    1    2  501    0 -0.26037342712E+00  0.15062557610E+00 -0.89591018261E+03  0.11039783984E+04  0.64506833623E+03 0.  0.
         13    1    3    3    0    0 -0.27575881354E+03  0.41124731286E+02 -0.72604767979E+03  0.77773993089E+03  0.00000000000E+00 0.  1.
          3    1    3    3  501    0  0.27549844011E+03 -0.40974105710E+02 -0.16986250282E+03  0.32623846755E+03  0.00000000000E+00 0.  1.
         21    1    1    2  502  501  0.26037342712E+00 -0.15062557610E+00  0.35033627540E+00  0.46175522909E+00  0.00000000000E+00 0.  1.
<mgrwt>
<rscale>  1 0.64506841E+03</rscale>
<asrwt>0</asrwt>
<pdfrwt beam="1">  1        1 0.37978318E+00 0.64506841E+03</pdfrwt>
<pdfrwt beam="2">0</pdfrwt>
<totfact> 0.16460825E+00</totfact>
</mgrwt>
</event>
<event>
 6    1  0.5285482E-003  0.6482908E+03  0.7818608E-02  0.9809992E-01
          3   -1    0    0  502    0  0.00000000000E+00  0.00000000000E+00  0.10507043881E+03  0.10507043881E+03  0.00000000000E+00 0.  1.
         13   -1    0    0    0    0 -0.00000000000E+00 -0.00000000000E+00 -0.10000000000E+04  0.10000000000E+04  0.00000000000E+00 0.  1.
    9000005    2    1    2  501    0  0.39670597226E-03 -0.38918492845E-03 -0.89492904346E+03  0.11050696793E+04  0.64829083231E+03 0.  0.
         13    1    3    3    0    0  0.26850616514E+03  0.15874672218E+03 -0.59776081734E+03  0.67425075252E+03  0.00000000000E+00 0.  1.
          3    1    3    3  501    0 -0.26850576844E+03 -0.15874711136E+03 -0.29716822612E+03  0.43081892677E+03  0.00000000000E+00 0.  1.
         21    1    1    2  502  501 -0.39670597227E-03  0.38918492844E-03 -0.51772957190E-03  0.75952909528E-03  0.00000000000E+00 0. -1.
<mgrwt>
<rscale>  1 0.64829083E+03</rscale>
<asrwt>0</asrwt>
<pdfrwt beam="1">  1        3 0.38207513E+00 0.64829083E+03</pdfrwt>
<pdfrwt beam="2">0</pdfrwt>
<totfact> 0.73619508E-02</totfact>
</mgrwt>
</event>
<event>
 6    1  0.5285482E-003  0.6474852E+03  0.7818608E-02  0.9811509E-01
          1   -1    0    0  502    0  0.00000000000E+00  0.00000000000E+00  0.10741663750E+03  0.10741663750E+03  0.00000000000E+00 0.  1.
         13   -1    0    0    0    0 -0.00000000000E+00 -0.00000000000E+00 -0.10000000000E+04  0.10000000000E+04  0.00000000000E+00 0.  1.
    9000005    2    1    2  501    0 -0.25080024782E+01 -0.87215637357E+00 -0.89442226507E+03  0.11041867310E+04  0.64747980509E+03 0.  0.
         13    1    3    3    0    0 -0.37419492101E+02 -0.31286900093E+03 -0.57881580484E+03  0.65902577041E+03  0.00000000000E+00 0.  1.
          3    1    3    3  501    0  0.34911489623E+02  0.31199684455E+03 -0.31560646023E+03  0.44516096062E+03  0.00000000000E+00 0.  1.
         21    1    1    2  502  501  0.25080024782E+01  0.87215637357E+00  0.18389025664E+01  0.32299064722E+01  0.00000000000E+00 0. -1.
<mgrwt>
<rscale>  1 0.64748525E+03</rscale>
<asrwt>0</asrwt>
<pdfrwt beam="1">  1        1 0.39060678E+00 0.64748525E+03</pdfrwt>
<pdfrwt beam="2">0</pdfrwt>
<totfact> 0.14736116E+00</totfact>
</mgrwt>
</event>
<event>
 6    1  0.5285482E-003  0.7018677E+03  0.7818608E-02  0.9714043E-01
          1   -1    0    0  502    0  0.00000000000E+00  0.00000000000E+00  0.12315472373E+03  0.12315472373E+03  0.00000000000E+00 0.  1.
         13   -1    0    0    0    0 -0.00000000000E+00 -0.00000000000E+00 -0.10000000000E+04  0.10000000000E+04  0.00000000000E+00 0.  1.
    9000005    2    1    2  501    0 -0.72954965162E-05  0.79560351480E-05 -0.87684542139E+03  0.11231545782E+04  0.70186773222E+03 0.  0.
         13    1    3    3    0    0 -0.33400210080E+03  0.20895652100E+02 -0.60747733450E+03  0.69355803185E+03  0.00000000000E+00 0.  1.
          3    1    3    3  501    0  0.33400209350E+03 -0.20895644144E+02 -0.26936808690E+03  0.42959654636E+03  0.00000000000E+00 0.  1.
         21    1    1    2  502  501  0.72954964680E-05 -0.79560351489E-05  0.14512193760E-03  0.14552284885E-03  0.00000000000E+00 0.  1.
<mgrwt>
<rscale>  1 0.70186773E+03</rscale>
<asrwt>0</asrwt>
<pdfrwt beam="1">  1        1 0.44783630E+00 0.70186773E+03</pdfrwt>
<pdfrwt beam="2">0</pdfrwt>
<totfact> 0.80446902E-01</totfact>
</mgrwt>
</event>
<event>
 6    1  0.5285482E-003  0.6510058E+03  0.7818608E-02  0.9804894E-01
          3   -1    0    0  502    0  0.00000000000E+00  0.00000000000E+00  0.10605950669E+03  0.10605950669E+03  0.00000000000E+00 0.  1.
         13   -1    0    0    0    0 -0.00000000000E+00 -0.00000000000E+00 -0.10000000000E+04  0.10000000000E+04  0.00000000000E+00 0.  1.
    9000005    2    1    2  501    0 -0.14680329509E-02  0.15020847594E-02 -0.89404784364E+03  0.11059521358E+04  0.65100582177E+03 0.  0.
         13    1    3    3    0    0 -0.80379696979E+02 -0.31355812622E+03 -0.50518686171E+03  0.59999446618E+03  0.00000000000E+00 0.  1.
          3    1    3    3  501    0  0.80378228947E+02  0.31355962830E+03 -0.38886098193E+03  0.50595766963E+03  0.00000000000E+00 0.  1.
         21    1    1    2  502  501  0.14680329509E-02 -0.15020847595E-02  0.10735033083E+00  0.10737087552E+00  0.00000000000E+00 0.  1.
<mgrwt>
<rscale>  1 0.65100582E+03</rscale>
<asrwt>0</asrwt>
<pdfrwt beam="1">  1        3 0.38567175E+00 0.65100582E+03</pdfrwt>
<pdfrwt beam="2">0</pdfrwt>
<totfact> 0.70441203E-02</totfact>
</mgrwt>
</event>
<event>
 6    1  0.5285482E-003  0.6455008E+03  0.7818608E-02  0.9815258E-01
          1   -1    0    0  502    0  0.00000000000E+00  0.00000000000E+00  0.10416782338E+03  0.10416782338E+03  0.00000000000E+00 0.  1.
         13   -1    0    0    0    0 -0.00000000000E+00 -0.00000000000E+00 -0.10000000000E+04  0.10000000000E+04  0.00000000000E+00 0.  1.
    9000005    2    1    2  501    0  0.20048213401E-06  0.19203719148E-05 -0.89583217770E+03  0.11041678212E+04  0.64550080303E+03 0.  0.
         13    1    3    3    0    0 -0.65934015499E+02 -0.84463575631E+02  0.72854418093E+02  0.12957297652E+03  0.00000000000E+00 0.  1.
          3    1    3    3  501    0  0.65934015699E+02  0.84463577551E+02 -0.96868659579E+03  0.97459484465E+03  0.00000000000E+00 0.  1.
         21    1    1    2  502  501 -0.20048212384E-06 -0.19203719099E-05  0.10783166611E-05  0.22115126443E-05  0.00000000000E+00 0.  1.
<mgrwt>
<rscale>  1 0.64550080E+03</rscale>
<asrwt>0</asrwt>
<pdfrwt beam="1">  1        1 0.37879288E+00 0.64550080E+03</pdfrwt>
<pdfrwt beam="2">0</pdfrwt>
<totfact> 0.16625890E+00</totfact>
</mgrwt>
</event>
<event>
 6    1  0.5285482E-003  0.6596607E+03  0.7818608E-02  0.9788819E-01
          1   -1    0    0  502    0  0.00000000000E+00  0.00000000000E+00  0.10878913803E+03  0.10878913803E+03  0.00000000000E+00 0.  1.
         13   -1    0    0    0    0 -0.00000000000E+00 -0.00000000000E+00 -0.10000000000E+04  0.10000000000E+04  0.00000000000E+00 0.  1.
    9000005    2    1    2  501    0 -0.63979952989E-03  0.12438533966E-02 -0.89121140516E+03  0.11087876375E+04  0.65966071308E+03 0.  0.
         13    1    3    3    0    0 -0.23587096896E+03  0.53151825801E+02 -0.82268554875E+03  0.85747987889E+03  0.00000000000E+00 0.  1.
          3    1    3    3  501    0  0.23587032916E+03 -0.53150581948E+02 -0.68525856411E+02  0.25130775861E+03  0.00000000000E+00 0.  1.
         21    1    1    2  502  501  0.63979952988E-03 -0.12438533966E-02  0.54318782201E-03  0.15005224825E-02  0.00000000000E+00 0.  1.
<mgrwt>
<rscale>  1 0.65966071E+03</rscale>
<asrwt>0</asrwt>
<pdfrwt beam="1">  1        1 0.39559770E+00 0.65966071E+03</pdfrwt>
<pdfrwt beam="2">0</pdfrwt>
<totfact> 0.13970994E+00</totfact>
</mgrwt>
</event>
<event>
 6    1  0.5285482E-003  0.6396950E+03  0.7818608E-02  0.9826310E-01
          1   -1    0    0  502    0  0.00000000000E+00  0.00000000000E+00  0.10231644645E+03  0.10231644645E+03  0.00000000000E+00 0.  1.
         13   -1    0    0    0    0 -0.00000000000E+00 -0.00000000000E+00 -0.10000000000E+04  0.10000000000E+04  0.00000000000E+00 0.  1.
    9000005    2    1    2  501    0  0.43622106892E-03  0.13813179298E-01 -0.89769372513E+03  0.11022992867E+04  0.63969500016E+03 0.  0.
         13    1    3    3    0    0 -0.27745520460E+03  0.58013603398E+02 -0.19351678539E+03  0.34321380358E+03  0.00000000000E+00 0.  1.
          1    1    3    3  501    0  0.27745564082E+03 -0.57999790219E+02 -0.70417693974E+03  0.75908548317E+03  0.00000000000E+00 0.  1.
         21    1    1    2  502  501 -0.43622106894E-03 -0.13813179298E-01  0.10171580284E-01  0.17159698616E-01  0.00000000000E+00 0. -1.
<mgrwt>
<rscale>  1 0.63969500E+03</rscale>
<asrwt>0</asrwt>
<pdfrwt beam="1">  1        1 0.37206059E+00 0.63969500E+03</pdfrwt>
<pdfrwt beam="2">0</pdfrwt>
<totfact> 0.17819139E+00</totfact>
</mgrwt>
</event>
<event>
 6    1  0.5285482E-003  0.6473950E+03  0.7818608E-02  0.9811680E-01
          1   -1    0    0  502    0  0.00000000000E+00  0.00000000000E+00  0.10478350551E+03  0.10478350551E+03  0.00000000000E+00 0.  1.
         13   -1    0    0    0    0 -0.00000000000E+00 -0.00000000000E+00 -0.10000000000E+04  0.10000000000E+04  0.00000000000E+00 0.  1.
    9000005    2    1    2  501    0 -0.16949681168E-02 -0.16204404208E-02 -0.89521947697E+03  0.11047797116E+04  0.64739501013E+03 0.  0.
         13    1    3    3    0    0  0.25421308585E+03  0.19507484222E+03 -0.52582545810E+03  0.61576854375E+03  0.00000000000E+00 0.  1.
          1    1    3    3  501    0 -0.25421478082E+03 -0.19507646266E+03 -0.36939401888E+03  0.48901116782E+03  0.00000000000E+00 0.  1.
         21    1    1    2  502  501  0.16949681168E-02  0.16204404208E-02  0.29824814767E-02  0.37939346111E-02  0.00000000000E+00 0.  1.
<mgrwt>
<rscale>  1 0.64739501E+03</rscale>
<asrwt>0</asrwt>
<pdfrwt beam="1">  1        1 0.38103173E+00 0.64739501E+03</pdfrwt>
<pdfrwt beam="2">0</pdfrwt>
<totfact> 0.16246349E+00</totfact>
</mgrwt>
</event>
<event>
 6    1  0.5285482E-003  0.6360396E+03  0.7818608E-02  0.9833333E-01
          3   -1    0    0  502    0  0.00000000000E+00  0.00000000000E+00  0.10120721439E+03  0.10120721439E+03  0.00000000000E+00 0.  1.
         13   -1    0    0    0    0 -0.00000000000E+00 -0.00000000000E+00 -0.10000000000E+04  0.10000000000E+04  0.00000000000E+00 0.  1.
    9000005    2    1    2  501    0 -0.14360995636E-01 -0.75610133121E-02 -0.89886237814E+03  0.11011357544E+04  0.63603960142E+03 0.  0.
         13    1    3    3    0    0 -0.39591454569E+02  0.31387257894E+03 -0.39329368447E+03  0.50474092496E+03  0.00000000000E+00 0.  1.
          3    1    3    3  501    0  0.39577093574E+02 -0.31388013995E+03 -0.50556869367E+03  0.59639482946E+03  0.00000000000E+00 0.  1.
         21    1    1    2  502  501  0.14360995636E-01  0.75610133121E-02  0.69592524754E-01  0.71459965152E-01  0.00000000000E+00 0. -1.
<mgrwt>
<rscale>  1 0.63603960E+03</rscale>
<asrwt>0</asrwt>
<pdfrwt beam="1">  1        3 0.36802701E+00 0.63603960E+03</pdfrwt>
<pdfrwt beam="2">0</pdfrwt>
<totfact> 0.87534228E-02</totfact>
</mgrwt>
</event>
<event>
 6    1  0.5285482E-003  0.6571728E+03  0.7818608E-02  0.9793412E-01
          1   -1    0    0  502    0  0.00000000000E+00  0.00000000000E+00  0.10801396247E+03  0.10801396247E+03  0.00000000000E+00 0.  1.
         13   -1    0    0    0    0 -0.00000000000E+00 -0.00000000000E+00 -0.10000000000E+04  0.10000000000E+04  0.00000000000E+00 0.  1.
    9000005    2    1    2  501    0 -0.41019829156E-02  0.23729977676E-03 -0.89203088326E+03  0.11079689289E+04  0.65717277083E+03 0.  0.
         13    1    3    3    0    0 -0.27687154690E+03 -0.15836026244E+03 -0.57913710434E+03  0.66116231882E+03  0.00000000000E+00 0.  1.
          1    1    3    3  501    0  0.27686744492E+03  0.15836049974E+03 -0.31289377892E+03  0.44680661009E+03  0.00000000000E+00 0.  1.
         21    1    1    2  502  501  0.41019829156E-02 -0.23729977678E-03  0.44845724988E-01  0.45033561093E-01  0.00000000000E+00 0.  1.
<mgrwt>
<rscale>  1 0.65717277E+03</rscale>
<asrwt>0</asrwt>
<pdfrwt beam="1">  1        1 0.39277887E+00 0.65717277E+03</pdfrwt>
<pdfrwt beam="2">0</pdfrwt>
<totfact> 0.14386581E+00</totfact>
</mgrwt>
</event>
<event>
 6    1  0.5285482E-003  0.6503398E+03  0.7818608E-02  0.9806142E-01
          1   -1    0    0  502    0  0.00000000000E+00  0.00000000000E+00  0.10573671776E+03  0.10573671776E+03  0.00000000000E+00 0.  1.
         13   -1    0    0    0    0 -0.00000000000E+00 -0.00000000000E+00 -0.10000000000E+04  0.10000000000E+04  0.00000000000E+00 0.  1.
    9000005    2    1    2  501    0 -0.21312012905E-04  0.10383492800E-03 -0.89426454228E+03  0.11057354533E+04  0.65033977353E+03 0.  0.
         13    1    3    3    0    0 -0.24386732422E+03 -0.85595528830E+02 -0.11163002166E+03  0.28152997729E+03  0.00000000000E+00 0.  1.
          1    1    3    3  501    0  0.24386730291E+03  0.85595632665E+02 -0.78263452063E+03  0.82420547598E+03  0.00000000000E+00 0.  1.
         21    1    1    2  502  501  0.21312012900E-04 -0.10383492800E-03  0.12600398752E-02  0.12644905619E-02  0.00000000000E+00 0.  1.
<mgrwt>
<rscale>  1 0.65033977E+03</rscale>
<asrwt>0</asrwt>
<pdfrwt beam="1">  1        1 0.38449797E+00 0.65033977E+03</pdfrwt>
<pdfrwt beam="2">0</pdfrwt>
<totfact> 0.15674920E+00</totfact>
</mgrwt>
</event>
<event>
 6    1  0.5285482E-003  0.6410469E+03  0.7818608E-02  0.9823726E-01
          1   -1    0    0  502    0  0.00000000000E+00  0.00000000000E+00  0.10273631154E+03  0.10273631154E+03  0.00000000000E+00 0.  1.
         13   -1    0    0    0    0 -0.00000000000E+00 -0.00000000000E+00 -0.10000000000E+04  0.10000000000E+04  0.00000000000E+00 0.  1.
    9000005    2    1    2  501    0 -0.42566661534E-04  0.80940525294E-04 -0.89726471585E+03  0.11027352801E+04  0.64104689971E+03 0.  0.
         13    1    3    3    0    0 -0.25228784784E+03 -0.15637646390E+03 -0.65671749908E+03  0.72068067147E+03  0.00000000000E+00 0.  1.
          3    1    3    3  501    0  0.25228780528E+03  0.15637654484E+03 -0.24054721678E+03  0.38205460862E+03  0.00000000000E+00 0.  1.
         21    1    1    2  502  501  0.42566661533E-04 -0.80940525280E-04  0.10273975825E-02  0.10314596850E-02  0.00000000000E+00 0. -1.
<mgrwt>
<rscale>  1 0.64104690E+03</rscale>
<asrwt>0</asrwt>
<pdfrwt beam="1">  1        1 0.37358738E+00 0.64104690E+03</pdfrwt>
<pdfrwt beam="2">0</pdfrwt>
<totfact> 0.17541454E+00</totfact>
</mgrwt>
</event>
<event>
 6    1  0.5285482E-003  0.6515566E+03  0.7818608E-02  0.9803863E-01
          1   -1    0    0  502    0  0.00000000000E+00  0.00000000000E+00  0.10792531341E+03  0.10792531341E+03  0.00000000000E+00 0.  1.
         13   -1    0    0    0    0 -0.00000000000E+00 -0.00000000000E+00 -0.10000000000E+04  0.10000000000E+04  0.00000000000E+00 0.  1.
    9000005    2    1    2  501    0 -0.14376564170E+01 -0.33444570984E+01 -0.89153278190E+03  0.11042448366E+04  0.65154639559E+03 0.  0.
         13    1    3    3    0    0 -0.18468096852E+02  0.78971850829E+01  0.10530235799E+03  0.10720085229E+03  0.00000000000E+00 0.  1.
          1    1    3    3  501    0  0.17030440435E+02 -0.11241642181E+02 -0.99683513989E+03  0.99704398426E+03  0.00000000000E+00 0.  1.
         21    1    1    2  502  501  0.14376564170E+01  0.33444570984E+01 -0.54190468949E+00  0.36804768643E+01  0.00000000000E+00 0.  1.
<mgrwt>
<rscale>  1 0.65155657E+03</rscale>
<asrwt>0</asrwt>
<pdfrwt beam="1">  1        1 0.39245651E+00 0.65155657E+03</pdfrwt>
<pdfrwt beam="2">0</pdfrwt>
<totfact> 0.14449204E+00</totfact>
</mgrwt>
</event>
<event>
 6    1  0.5285482E-003  0.6532190E+03  0.7818608E-02  0.9800758E-01
          1   -1    0    0  502    0  0.00000000000E+00  0.00000000000E+00  0.10684186439E+03  0.10684186439E+03  0.00000000000E+00 0.  1.
         13   -1    0    0    0    0 -0.00000000000E+00 -0.00000000000E+00 -0.10000000000E+04  0.10000000000E+04  0.00000000000E+00 0.  1.
    9000005    2    1    2  501    0  0.22336813050E+00 -0.15013447326E+00 -0.89319748757E+03  0.11065698676E+04  0.65321898904E+03 0.  0.
         13    1    3    3    0    0 -0.24270789178E+02 -0.26830698904E+03 -0.75963525417E+03  0.80599220279E+03  0.00000000000E+00 0.  1.
          3    1    3    3  501    0  0.24494157309E+02  0.26815685456E+03 -0.13356223339E+03  0.30057766481E+03  0.00000000000E+00 0.  1.
         21    1    1    2  502  501 -0.22336813050E+00  0.15013447326E+00  0.39351957860E-01  0.27199679845E+00  0.00000000000E+00 0.  1.
<mgrwt>
<rscale>  1 0.65321904E+03</rscale>
<asrwt>0</asrwt>
<pdfrwt beam="1">  1        1 0.38851669E+00 0.65321904E+03</pdfrwt>
<pdfrwt beam="2">0</pdfrwt>
<totfact> 0.15037809E+00</totfact>
</mgrwt>
</event>
<event>
 6    1  0.5285482E-003  0.6493573E+03  0.7818608E-02  0.9807986E-01
          1   -1    0    0  502    0  0.00000000000E+00  0.00000000000E+00  0.11872942814E+03  0.11872942814E+03  0.00000000000E+00 0.  1.
         13   -1    0    0    0    0 -0.00000000000E+00 -0.00000000000E+00 -0.10000000000E+04  0.10000000000E+04  0.00000000000E+00 0.  1.
    9000005    2    1    2  501    0  0.48593137655E+01 -0.37821970706E+01 -0.89379214710E+03  0.11047756548E+04  0.64932805821E+03 0.  0.
         13    1    3    3    0    0  0.20291200966E+03 -0.11361494941E+03 -0.84055716285E+03  0.87213415506E+03  0.00000000000E+00 0.  1.
          1    1    3    3  501    0 -0.19805269589E+03  0.10983275234E+03 -0.53234984250E+02  0.23264149970E+03  0.00000000000E+00 0.  1.
         21    1    1    2  502  501 -0.48593137655E+01  0.37821970706E+01  0.12521575239E+02  0.13953773376E+02  0.00000000000E+00 0.  1.
<mgrwt>
<rscale>  1 0.64935726E+03</rscale>
<asrwt>0</asrwt>
<pdfrwt beam="1">  1        1 0.43174429E+00 0.64935726E+03</pdfrwt>
<pdfrwt beam="2">0</pdfrwt>
<totfact> 0.96304079E-01</totfact>
</mgrwt>
</event>
<event>
 6    1  0.5285482E-003  0.6405598E+03  0.7818608E-02  0.9824656E-01
          1   -1    0    0  502    0  0.00000000000E+00  0.00000000000E+00  0.10257922131E+03  0.10257922131E+03  0.00000000000E+00 0.  1.
         13   -1    0    0    0    0 -0.00000000000E+00 -0.00000000000E+00 -0.10000000000E+04  0.10000000000E+04  0.00000000000E+00 0.  1.
    9000005    2    1    2  501    0  0.58807017922E-06  0.37474465131E-06 -0.89742078200E+03  0.11025792179E+04  0.64055981130E+03 0.  0.
         13    1    3    3    0    0  0.29851630571E+03 -0.47102412178E+02 -0.26615306082E+03  0.40270097317E+03  0.00000000000E+00 0.  1.
          3    1    3    3  501    0 -0.29851630512E+03  0.47102412552E+02 -0.63126772117E+03  0.69987824476E+03  0.00000000000E+00 0.  1.
         21    1    1    2  502  501 -0.58807019284E-06 -0.37474465048E-06  0.33025239989E-05  0.33753407040E-05  0.00000000000E+00 0. -1.
<mgrwt>
<rscale>  1 0.64055981E+03</rscale>
<asrwt>0</asrwt>
<pdfrwt beam="1">  1        1 0.37301614E+00 0.64055981E+03</pdfrwt>
<pdfrwt beam="2">0</pdfrwt>
<totfact> 0.17644801E+00</totfact>
</mgrwt>
</event>
<event>
 6    1  0.5285482E-003  0.6487870E+03  0.7818608E-02  0.9809058E-01
          1   -1    0    0  502    0  0.00000000000E+00  0.00000000000E+00  0.10532529482E+03  0.10532529482E+03  0.00000000000E+00 0.  1.
         13   -1    0    0    0    0 -0.00000000000E+00 -0.00000000000E+00 -0.10000000000E+04  0.10000000000E+04  0.00000000000E+00 0.  1.
    9000005    2    1    2  501    0 -0.85445561978E-02 -0.43571877029E-02 -0.89476858390E+03  0.11052309274E+04  0.64878700979E+03 0.  0.
         13    1    3    3    0    0  0.14216374973E+03  0.15758379813E+03 -0.86530571904E+03  0.89095295756E+03  0.00000000000E+00 0.  1.
          3    1    3    3  501    0 -0.14217229429E+03 -0.15758815531E+03 -0.29462864857E+02  0.21427796985E+03  0.00000000000E+00 0.  1.
         21    1    1    2  502  501  0.85445561978E-02  0.43571877028E-02  0.93878722985E-01  0.94367415746E-01  0.00000000000E+00 0.  1.
<mgrwt>
<rscale>  1 0.64878701E+03</rscale>
<asrwt>0</asrwt>
<pdfrwt beam="1">  1        1 0.38300188E+00 0.64878701E+03</pdfrwt>
<pdfrwt beam="2">0</pdfrwt>
<totfact> 0.15920000E+00</totfact>
</mgrwt>
</event>
<event>
 6    1  0.5285482E-003  0.6542256E+03  0.7818608E-02  0.9798882E-01
          1   -1    0    0  502    0  0.00000000000E+00  0.00000000000E+00  0.10708654479E+03  0.10708654479E+03  0.00000000000E+00 0.  1.
         13   -1    0    0    0    0 -0.00000000000E+00 -0.00000000000E+00 -0.10000000000E+04  0.10000000000E+04  0.00000000000E+00 0.  1.
    9000005    2    1    2  501    0  0.79688301422E-02 -0.46584470692E-02 -0.89299694827E+03  0.11070025430E+04  0.65422555789E+03 0.  0.
         13    1    3    3    0    0  0.94076982946E+02  0.65779070008E+02 -0.96480077608E+03  0.97160583690E+03  0.00000000000E+00 0.  1.
          1    1    3    3  501    0 -0.94069014116E+02 -0.65783728455E+02  0.71803827810E+02  0.13539670614E+03  0.00000000000E+00 0.  1.
         21    1    1    2  502  501 -0.79688301422E-02  0.46584470692E-02  0.83493058566E-01  0.84001751241E-01  0.00000000000E+00 0. -1.
<mgrwt>
<rscale>  1 0.65422556E+03</rscale>
<asrwt>0</asrwt>
<pdfrwt beam="1">  1        1 0.38940644E+00 0.65422556E+03</pdfrwt>
<pdfrwt beam="2">0</pdfrwt>
<totfact> 0.14899096E+00</totfact>
</mgrwt>
</event>
<event>
 6    1  0.5285482E-003  0.6475893E+03  0.7818608E-02  0.9811313E-01
          1   -1    0    0  502    0  0.00000000000E+00  0.00000000000E+00  0.10484745054E+03  0.10484745054E+03  0.00000000000E+00 0.  1.
         13   -1    0    0    0    0 -0.00000000000E+00 -0.00000000000E+00 -0.10000000000E+04  0.10000000000E+04  0.00000000000E+00 0.  1.
    9000005    2    1    2  501    0  0.12587416204E-01  0.43681506332E-02 -0.89513988017E+03  0.11048290648E+04  0.64758926584E+03 0.  0.
         13    1    3    3    0    0  0.16936165912E+03  0.15260517780E+03 -0.83987449777E+03  0.87026483549E+03  0.00000000000E+00 0.  1.
          1    1    3    3  501    0 -0.16934907170E+03 -0.15260080965E+03 -0.55265382400E+02  0.23456422934E+03  0.00000000000E+00 0.  1.
         21    1    1    2  502  501 -0.12587416204E-01 -0.43681506332E-02 -0.12669284867E-01  0.18385716350E-01  0.00000000000E+00 0.  1.
<mgrwt>
<rscale>  1 0.64758927E+03</rscale>
<asrwt>0</asrwt>
<pdfrwt beam="1">  1        1 0.38126426E+00 0.64758927E+03</pdfrwt>
<pdfrwt beam="2">0</pdfrwt>
<totfact> 0.16207413E+00</totfact>
</mgrwt>
</event>
<event>
 6    1  0.5285482E-003  0.6208192E+03  0.7818608E-02  0.9863130E-01
          1   -1    0    0  502    0  0.00000000000E+00  0.00000000000E+00  0.96373734236E+02  0.96373734236E+02  0.00000000000E+00 0.  1.
         13   -1    0    0    0    0 -0.00000000000E+00 -0.00000000000E+00 -0.10000000000E+04  0.10000000000E+04  0.00000000000E+00 0.  1.
    9000005    2    1    2  501    0 -0.66031150633E-02 -0.11376955070E-02 -0.90364525438E+03  0.10963535981E+04  0.62081918970E+03 0.  0.
         13    1    3    3    0    0 -0.56742147569E+02 -0.17271885661E+03 -0.89614655263E+03  0.91440150838E+03  0.00000000000E+00 0.  1.
          1    1    3    3  501    0  0.56735544454E+02  0.17271771892E+03 -0.74987017534E+01  0.18195208974E+03  0.00000000000E+00 0.  1.
         21    1    1    2  502  501  0.66031150633E-02  0.11376955070E-02  0.18988619604E-01  0.20136115665E-01  0.00000000000E+00 0. -1.
<mgrwt>
<rscale>  1 0.62081919E+03</rscale>
<asrwt>0</asrwt>
<pdfrwt beam="1">  1        1 0.35045068E+00 0.62081919E+03</pdfrwt>
<pdfrwt beam="2">0</pdfrwt>
<totfact> 0.22229766E+00</totfact>
</mgrwt>
</event>
<event>
 6    1  0.5285482E-003  0.6647998E+03  0.7818608E-02  0.9779398E-01
          1   -1    0    0  502    0  0.00000000000E+00  0.00000000000E+00  0.11286489378E+03  0.11286489378E+03  0.00000000000E+00 0.  1.
         13   -1    0    0    0    0 -0.00000000000E+00 -0.00000000000E+00 -0.10000000000E+04  0.10000000000E+04  0.00000000000E+00 0.  1.
    9000005    2    1    2  501    0  0.12561156877E+00  0.26607341580E+00 -0.88950018546E+03  0.11104815824E+04  0.66479972798E+03 0.  0.
         13    1    3    3    0    0 -0.28695910155E+03 -0.10793562980E+03 -0.65872602491E+03  0.72657800822E+03  0.00000000000E+00 0.  1.
          3    1    3    3  501    0  0.28708471311E+03  0.10820170321E+03 -0.23077416055E+03  0.38390357417E+03  0.00000000000E+00 0.  1.
         21    1    1    2  502  501 -0.12561156877E+00 -0.26607341580E+00  0.23650792452E+01  0.23833113865E+01  0.00000000000E+00 0.  1.
<mgrwt>
<rscale>  1 0.66479979E+03</rscale>
<asrwt>0</asrwt>
<pdfrwt beam="1">  1        1 0.41041866E+00 0.66479979E+03</pdfrwt>
<pdfrwt beam="2">0</pdfrwt>
<totfact> 0.11984087E+00</totfact>
</mgrwt>
</event>
<event>
 6    1  0.5285482E-003  0.6720218E+03  0.7818608E-02  0.9766312E-01
          1   -1    0    0  502    0  0.00000000000E+00  0.00000000000E+00  0.11882919309E+03  0.11882919309E+03  0.00000000000E+00 0.  1.
         13   -1    0    0    0    0 -0.00000000000E+00 -0.00000000000E+00 -0.10000000000E+04  0.10000000000E+04  0.00000000000E+00 0.  1.
    9000005    2    1    2  501    0  0.31411210116E+00  0.38653078980E+00 -0.88708503502E+03  0.11128940295E+04  0.67202158708E+03 0.  0.
         13    1    3    3    0    0  0.31801566307E+03 -0.78750053086E+02 -0.31934203628E+03  0.45750941953E+03  0.00000000000E+00 0.  1.
          3    1    3    3  501    0 -0.31770155097E+03  0.79136583876E+02 -0.56774299874E+03  0.65538460999E+03  0.00000000000E+00 0.  1.
         21    1    1    2  502  501 -0.31411210116E+00 -0.38653078980E+00  0.59142281105E+01  0.59351635703E+01  0.00000000000E+00 0.  1.
<mgrwt>
<rscale>  1 0.67202177E+03</rscale>
<asrwt>0</asrwt>
<pdfrwt beam="1">  1        1 0.43210707E+00 0.67202177E+03</pdfrwt>
<pdfrwt beam="2">0</pdfrwt>
<totfact> 0.95506775E-01</totfact>
</mgrwt>
</event>
<event>
 6    1  0.5285482E-003  0.6508090E+03  0.7818608E-02  0.9805262E-01
          1   -1    0    0  502    0  0.00000000000E+00  0.00000000000E+00  0.10616122828E+03  0.10616122828E+03  0.00000000000E+00 0.  1.
         13   -1    0    0    0    0 -0.00000000000E+00 -0.00000000000E+00 -0.10000000000E+04  0.10000000000E+04  0.00000000000E+00 0.  1.
    9000005    2    1    2  501    0 -0.82954883059E+00  0.12382237387E+00 -0.89270787930E+03  0.11047532507E+04  0.65080848462E+03 0.  0.
         13    1    3    3    0    0 -0.28348880403E+03 -0.16039796723E+03 -0.45210778013E+03  0.55722065177E+03  0.00000000000E+00 0.  1.
          3    1    3    3  501    0  0.28265925520E+03  0.16052178961E+03 -0.44060009916E+03  0.54753259891E+03  0.00000000000E+00 0.  1.
         21    1    1    2  502  501  0.82954883059E+00 -0.12382237387E+00 -0.11308924227E+01  0.14079775972E+01  0.00000000000E+00 0. -1.
<mgrwt>
<rscale>  1 0.65080903E+03</rscale>
<asrwt>0</asrwt>
<pdfrwt beam="1">  1        1 0.38604164E+00 0.65080903E+03</pdfrwt>
<pdfrwt beam="2">0</pdfrwt>
<totfact> 0.15429033E+00</totfact>
</mgrwt>
</event>
<event>
 6    1  0.5285482E-003  0.6685047E+03  0.7818608E-02  0.9772663E-01
          1   -1    0    0  502    0  0.00000000000E+00  0.00000000000E+00  0.11172473778E+03  0.11172473778E+03  0.00000000000E+00 0.  1.
         13   -1    0    0    0    0 -0.00000000000E+00 -0.00000000000E+00 -0.10000000000E+04  0.10000000000E+04  0.00000000000E+00 0.  1.
    9000005    2    1    2  501    0 -0.56594009337E-05 -0.69476302542E-05 -0.88827535493E+03  0.11117246446E+04  0.66850473394E+03 0.  0.
         13    1    3    3    0    0 -0.61480538275E+02  0.23375569006E+03 -0.60192835583E+02  0.24908784932E+03  0.00000000000E+00 0.  1.
          3    1    3    3  501    0  0.61480532616E+02 -0.23375569701E+03 -0.82808251935E+03  0.86263679531E+03  0.00000000000E+00 0.  1.
         21    1    1    2  502  501  0.56594009315E-05  0.69476302487E-05  0.92712273367E-04  0.93144318226E-04  0.00000000000E+00 0.  1.
<mgrwt>
<rscale>  1 0.66850473E+03</rscale>
<asrwt>0</asrwt>
<pdfrwt beam="1">  1        1 0.40627263E+00 0.66850473E+03</pdfrwt>
<pdfrwt beam="2">0</pdfrwt>
<totfact> 0.12499091E+00</totfact>
</mgrwt>
</event>
<event>
 6    1  0.5285482E-003  0.6451170E+03  0.7818608E-02  0.9815985E-01
          1   -1    0    0  502    0  0.00000000000E+00  0.00000000000E+00  0.10811304601E+03  0.10811304601E+03  0.00000000000E+00 0.  1.
         13   -1    0    0    0    0 -0.00000000000E+00 -0.00000000000E+00 -0.10000000000E+04  0.10000000000E+04  0.00000000000E+00 0.  1.
    9000005    2    1    2  501    0 -0.20466422295E+01 -0.75558467233E-01 -0.89566960534E+03  0.11038115457E+04  0.64511370477E+03 0.  0.
         13    1    3    3    0    0 -0.52828409458E+02  0.26421462139E+03 -0.14419930496E+03  0.30560374107E+03  0.00000000000E+00 0.  1.
          1    1    3    3  501    0  0.50781767228E+02 -0.26429017986E+03 -0.75147030038E+03  0.79820780465E+03  0.00000000000E+00 0.  1.
         21    1    1    2  502  501  0.20466422295E+01  0.75558467233E-01  0.37826513546E+01  0.43015002927E+01  0.00000000000E+00 0.  1.
<mgrwt>
<rscale>  1 0.64511696E+03</rscale>
<asrwt>0</asrwt>
<pdfrwt beam="1">  1        1 0.39313918E+00 0.64511696E+03</pdfrwt>
<pdfrwt beam="2">0</pdfrwt>
<totfact> 0.14366098E+00</totfact>
</mgrwt>
</event>
<event>
 6    1  0.5285482E-003  0.6395640E+03  0.7818608E-02  0.9826561E-01
          1   -1    0    0  502    0  0.00000000000E+00  0.00000000000E+00  0.10233601261E+03  0.10233601261E+03  0.00000000000E+00 0.  1.
         13   -1    0    0    0    0 -0.00000000000E+00 -0.00000000000E+00 -0.10000000000E+04  0.10000000000E+04  0.00000000000E+00 0.  1.
    9000005    2    1    2  501    0 -0.80857328072E-01  0.52370802880E-02 -0.89771476363E+03  0.11022403906E+04  0.63956397284E+03 0.  0.
         13    1    3    3    0    0  0.23632761116E+03  0.12107429637E+03 -0.75582025799E+03  0.80110797489E+03  0.00000000000E+00 0.  1.
          1    1    3    3  501    0 -0.23640846848E+03 -0.12106905929E+03 -0.14189450564E+03  0.30113241576E+03  0.00000000000E+00 0.  1.
         21    1    1    2  502  501  0.80857328072E-01 -0.52370802880E-02  0.50776247409E-01  0.95621973489E-01  0.00000000000E+00 0.  1.
<mgrwt>
<rscale>  1 0.63956398E+03</rscale>
<asrwt>0</asrwt>
<pdfrwt beam="1">  1        1 0.37213174E+00 0.63956398E+03</pdfrwt>
<pdfrwt beam="2">0</pdfrwt>
<totfact> 0.17806736E+00</totfact>
</mgrwt>
</event>
<event>
 6    1  0.5285482E-003  0.6491170E+03  0.7818608E-02  0.9808437E-01
          1   -1    0    0  502    0  0.00000000000E+00  0.00000000000E+00  0.10533825655E+03  0.10533825655E+03  0.00000000000E+00 0.  1.
         13   -1    0    0    0    0 -0.00000000000E+00 -0.00000000000E+00 -0.10000000000E+04  0.10000000000E+04  0.00000000000E+00 0.  1.
    9000005    2    1    2  501    0 -0.50684655463E-04 -0.41605015923E-04 -0.89466171179E+03  0.11053381837E+04  0.64911703250E+03 0.  0.
         13    1    3    3    0    0  0.19508083338E+03 -0.23627559957E+03 -0.62958606462E+03  0.70018662031E+03  0.00000000000E+00 0.  1.
          3    1    3    3  501    0 -0.19508088407E+03  0.23627555796E+03 -0.26507564717E+03  0.40515156342E+03  0.00000000000E+00 0.  1.
         21    1    1    2  502  501  0.50684655488E-04  0.41605015925E-04 -0.31661309440E-04  0.72817238121E-04  0.00000000000E+00 0.  1.
<mgrwt>
<rscale>  1 0.64911703E+03</rscale>
<asrwt>0</asrwt>
<pdfrwt beam="1">  1        1 0.38304901E+00 0.64911703E+03</pdfrwt>
<pdfrwt beam="2">0</pdfrwt>
<totfact> 0.15911399E+00</totfact>
</mgrwt>
</event>
<event>
 6    1  0.5285482E-003  0.6265150E+03  0.7818608E-02  0.9851873E-01
          3   -1    0    0  502    0  0.00000000000E+00  0.00000000000E+00  0.98132816046E+02  0.98132816046E+02  0.00000000000E+00 0.  1.
         13   -1    0    0    0    0 -0.00000000000E+00 -0.00000000000E+00 -0.10000000000E+04  0.10000000000E+04  0.00000000000E+00 0.  1.
    9000005    2    1    2  501    0  0.31264140964E-03  0.93273579914E-03 -0.90186964212E+03  0.10981301683E+04  0.62651497606E+03 0.  0.
         13    1    3    3    0    0  0.14488266950E+03  0.68368388931E+02  0.20896425584E+02  0.16156077843E+03  0.00000000000E+00 0.  1.
          1    1    3    3  501    0 -0.14488235686E+03 -0.68367456195E+02 -0.92276606771E+03  0.93656938991E+03  0.00000000000E+00 0.  1.
         21    1    1    2  502  501 -0.31264140965E-03 -0.93273579915E-03  0.24581705493E-02  0.26477052652E-02  0.00000000000E+00 0. -1.
<mgrwt>
<rscale>  1 0.62651498E+03</rscale>
<asrwt>0</asrwt>
<pdfrwt beam="1">  1        3 0.35684736E+00 0.62651498E+03</pdfrwt>
<pdfrwt beam="2">0</pdfrwt>
<totfact> 0.10050906E-01</totfact>
</mgrwt>
</event>
<event>
 6    1  0.5285482E-003  0.6559242E+03  0.7818608E-02  0.9795726E-01
          1   -1    0    0  502    0  0.00000000000E+00  0.00000000000E+00  0.10755935459E+03  0.10755935459E+03  0.00000000000E+00 0.  1.
         13   -1    0    0    0    0 -0.00000000000E+00 -0.00000000000E+00 -0.10000000000E+04  0.10000000000E+04  0.00000000000E+00 0.  1.
    9000005    2    1    2  501    0  0.10589902885E-04 -0.18019391632E-05 -0.89244084832E+03  0.11075591514E+04  0.65592423806E+03 0.  0.
         13    1    3    3    0    0  0.96809423740E+02 -0.30500520422E+03 -0.32493953244E+03  0.45605475424E+03  0.00000000000E+00 0.  1.
          3    1    3    3  501    0 -0.96809413150E+02  0.30500520242E+03 -0.56750131588E+03  0.65150439715E+03  0.00000000000E+00 0.  1.
         21    1    1    2  502  501 -0.10589902886E-04  0.18019391892E-05  0.20291705559E-03  0.20320119211E-03  0.00000000000E+00 0. -1.
<mgrwt>
<rscale>  1 0.65592424E+03</rscale>
<asrwt>0</asrwt>
<pdfrwt beam="1">  1        1 0.39112575E+00 0.65592424E+03</pdfrwt>
<pdfrwt beam="2">0</pdfrwt>
<totfact> 0.14635152E+00</totfact>
</mgrwt>
</event>
<event>
 6    1  0.5285482E-003  0.6526461E+03  0.7818608E-02  0.9801827E-01
          1   -1    0    0  502    0  0.00000000000E+00  0.00000000000E+00  0.10823353246E+03  0.10823353246E+03  0.00000000000E+00 0.  1.
         13   -1    0    0    0    0 -0.00000000000E+00 -0.00000000000E+00 -0.10000000000E+04  0.10000000000E+04  0.00000000000E+00 0.  1.
    9000005    2    1    2  501    0 -0.48022941341E-01  0.31350568700E-01 -0.89351274134E+03  0.11064863172E+04  0.65264611229E+03 0.  0.
         13    1    3    3    0    0 -0.22574665037E+03 -0.23453080856E+03 -0.40795550768E+03  0.52191373479E+03  0.00000000000E+00 0.  1.
          3    1    3    3  501    0  0.22569862743E+03  0.23456215913E+03 -0.48555723366E+03  0.58457258239E+03  0.00000000000E+00 0.  1.
         21    1    1    2  502  501  0.48022941341E-01 -0.31350568700E-01  0.17462737960E+01  0.17472152791E+01  0.00000000000E+00 0. -1.
<mgrwt>
<rscale>  1 0.65264611E+03</rscale>
<asrwt>0</asrwt>
<pdfrwt beam="1">  1        1 0.39357731E+00 0.65264611E+03</pdfrwt>
<pdfrwt beam="2">0</pdfrwt>
<totfact> 0.14281628E+00</totfact>
</mgrwt>
</event>
<event>
 6    1  0.5285482E-003  0.6127935E+03  0.7818608E-02  0.9879213E-01
          1   -1    0    0  502    0  0.00000000000E+00  0.00000000000E+00  0.93879075704E+02  0.93879075704E+02  0.00000000000E+00 0.  1.
         13   -1    0    0    0    0 -0.00000000000E+00 -0.00000000000E+00 -0.10000000000E+04  0.10000000000E+04  0.00000000000E+00 0.  1.
    9000005    2    1    2  501    0  0.62812053443E-05  0.37495176031E-05 -0.90612104221E+03  0.10938789576E+04  0.61279346493E+03 0.  0.
         13    1    3    3    0    0 -0.75536512742E+02 -0.81993623657E+01 -0.98291644328E+03  0.98584873524E+03  0.00000000000E+00 0.  1.
          3    1    3    3  501    0  0.75536519024E+02  0.81993661152E+01  0.76795401066E+02  0.10803022233E+03  0.00000000000E+00 0.  1.
         21    1    1    2  502  501 -0.62812053520E-05 -0.37495176042E-05  0.11791630152E-03  0.11814299212E-03  0.00000000000E+00 0. -1.
<mgrwt>
<rscale>  1 0.61279346E+03</rscale>
<asrwt>0</asrwt>
<pdfrwt beam="1">  1        1 0.34137918E+00 0.61279346E+03</pdfrwt>
<pdfrwt beam="2">0</pdfrwt>
<totfact> 0.24379783E+00</totfact>
</mgrwt>
</event>
<event>
 6    1  0.5285482E-003  0.6217767E+03  0.7818608E-02  0.9861229E-01
          1   -1    0    0  502    0  0.00000000000E+00  0.00000000000E+00  0.97036946399E+02  0.97036946399E+02  0.00000000000E+00 0.  1.
         13   -1    0    0    0    0 -0.00000000000E+00 -0.00000000000E+00 -0.10000000000E+04  0.10000000000E+04  0.00000000000E+00 0.  1.
    9000005    2    1    2  501    0  0.10484073944E+01  0.14336250319E+00 -0.90230033360E+03  0.10957883838E+04  0.62177581993E+03 0.  0.
         13    1    3    3    0    0 -0.79328970511E+02 -0.14799900484E+02 -0.97981235386E+03  0.98312988531E+03  0.00000000000E+00 0.  1.
          1    1    3    3  501    0  0.80377377906E+02  0.14943262987E+02  0.77512020258E+02  0.11265849845E+03  0.00000000000E+00 0.  1.
         21    1    1    2  502  501 -0.10484073944E+01 -0.14336250319E+00 -0.66271999933E+00  0.12485626414E+01  0.00000000000E+00 0.  1.
<mgrwt>
<rscale>  1 0.62177672E+03</rscale>
<asrwt>0</asrwt>
<pdfrwt beam="1">  1        1 0.35286237E+00 0.62177672E+03</pdfrwt>
<pdfrwt beam="2">0</pdfrwt>
<totfact> 0.21694313E+00</totfact>
</mgrwt>
</event>
<event>
 6    1  0.5285482E-003  0.6458402E+03  0.7818608E-02  0.9814616E-01
          1   -1    0    0  502    0  0.00000000000E+00  0.00000000000E+00  0.10427981158E+03  0.10427981158E+03  0.00000000000E+00 0.  1.
         13   -1    0    0    0    0 -0.00000000000E+00 -0.00000000000E+00 -0.10000000000E+04  0.10000000000E+04  0.00000000000E+00 0.  1.
    9000005    2    1    2  501    0 -0.12620172223E-02  0.62098149771E-02 -0.89571672802E+03  0.11042725916E+04  0.64584015016E+03 0.  0.
         13    1    3    3    0    0  0.15665971095E+03  0.23071501273E+03 -0.72623647723E+03  0.77794029526E+03  0.00000000000E+00 0.  1.
          1    1    3    3  501    0 -0.15666097297E+03 -0.23070880291E+03 -0.16948025079E+03  0.32633229629E+03  0.00000000000E+00 0.  1.
         21    1    1    2  502  501  0.12620172223E-02 -0.62098149771E-02 -0.34604003426E-02  0.72200318594E-02  0.00000000000E+00 0. -1.
<mgrwt>
<rscale>  1 0.64584015E+03</rscale>
<asrwt>0</asrwt>
<pdfrwt beam="1">  1        1 0.37920011E+00 0.64584015E+03</pdfrwt>
<pdfrwt beam="2">0</pdfrwt>
<totfact> 0.16556247E+00</totfact>
</mgrwt>
</event>
<event>
 6    1  0.5285482E-003  0.6577041E+03  0.7818608E-02  0.9792429E-01
          1   -1    0    0  502    0  0.00000000000E+00  0.00000000000E+00  0.10827230344E+03  0.10827230344E+03  0.00000000000E+00 0.  1.
         13   -1    0    0    0    0 -0.00000000000E+00 -0.00000000000E+00 -0.10000000000E+04  0.10000000000E+04  0.00000000000E+00 0.  1.
    9000005    2    1    2  501    0  0.37530093504E-02  0.49138751660E-03 -0.89185629386E+03  0.11081436504E+04  0.65770411364E+03 0.  0.
         13    1    3    3    0    0 -0.13889852058E+03 -0.29805251467E+03 -0.45243197057E+03  0.55930563068E+03  0.00000000000E+00 0.  1.
          1    1    3    3  501    0  0.13890227359E+03  0.29805300606E+03 -0.43942432330E+03  0.54883801976E+03  0.00000000000E+00 0.  1.
         21    1    1    2  502  501 -0.37530093504E-02 -0.49138751658E-03  0.12859730732E+00  0.12865299837E+00  0.00000000000E+00 0.  1.
<mgrwt>
<rscale>  1 0.65770411E+03</rscale>
<asrwt>0</asrwt>
<pdfrwt beam="1">  1        1 0.39371830E+00 0.65770411E+03</pdfrwt>
<pdfrwt beam="2">0</pdfrwt>
<totfact> 0.14247585E+00</totfact>
</mgrwt>
</event>
<event>
 6    1  0.5285482E-003  0.6277479E+03  0.7818608E-02  0.9849453E-01
          1   -1    0    0  502    0  0.00000000000E+00  0.00000000000E+00  0.98638479311E+02  0.98638479311E+02  0.00000000000E+00 0.  1.
         13   -1    0    0    0    0 -0.00000000000E+00 -0.00000000000E+00 -0.10000000000E+04  0.10000000000E+04  0.00000000000E+00 0.  1.
    9000005    2    1    2  501    0 -0.55747698469E-01  0.12021166058E+00 -0.90144224528E+03  0.10984833178E+04  0.62774792731E+03 0.  0.
         13    1    3    3    0    0 -0.10499941918E+03 -0.89148600060E+02  0.42804613101E+02  0.14423794863E+03  0.00000000000E+00 0.  1.
          3    1    3    3  501    0  0.10494367148E+03  0.89268811720E+02 -0.94424685838E+03  0.95424536913E+03  0.00000000000E+00 0.  1.
         21    1    1    2  502  501  0.55747698469E-01 -0.12021166058E+00  0.80724595206E-01  0.15516155933E+00  0.00000000000E+00 0. -1.
<mgrwt>
<rscale>  1 0.62774794E+03</rscale>
<asrwt>0</asrwt>
<pdfrwt beam="1">  1        1 0.35868614E+00 0.62774794E+03</pdfrwt>
<pdfrwt beam="2">0</pdfrwt>
<totfact> 0.20438582E+00</totfact>
</mgrwt>
</event>
<event>
 6    1  0.5285482E-003  0.6415402E+03  0.7818608E-02  0.9822784E-01
          1   -1    0    0  502    0  0.00000000000E+00  0.00000000000E+00  0.10780871407E+03  0.10780871407E+03  0.00000000000E+00 0.  1.
         13   -1    0    0    0    0 -0.00000000000E+00 -0.00000000000E+00 -0.10000000000E+04  0.10000000000E+04  0.00000000000E+00 0.  1.
    9000005    2    1    2  501    0 -0.22105662415E+00  0.33468666600E+00 -0.89709752287E+03  0.11028861089E+04  0.64154005539E+03 0.  0.
         13    1    3    3    0    0 -0.22178522966E+03  0.14498080155E+02 -0.50852128791E+02  0.22800180136E+03  0.00000000000E+00 0.  1.
          3    1    3    3  501    0  0.22156417303E+03 -0.14163393489E+02 -0.84624539408E+03  0.87488430749E+03  0.00000000000E+00 0.  1.
         21    1    1    2  502  501  0.22105662415E+00 -0.33468666600E+00  0.49062369378E+01  0.49226052132E+01  0.00000000000E+00 0.  1.
<mgrwt>
<rscale>  1 0.64154018E+03</rscale>
<asrwt>0</asrwt>
<pdfrwt beam="1">  1        1 0.39203251E+00 0.64154018E+03</pdfrwt>
<pdfrwt beam="2">0</pdfrwt>
<totfact> 0.14539352E+00</totfact>
</mgrwt>
</event>
<event>
 6    1  0.5285482E-003  0.6543400E+03  0.7818608E-02  0.9798669E-01
          1   -1    0    0  502    0  0.00000000000E+00  0.00000000000E+00  0.10707528731E+03  0.10707528731E+03  0.00000000000E+00 0.  1.
         13   -1    0    0    0    0 -0.00000000000E+00 -0.00000000000E+00 -0.10000000000E+04  0.10000000000E+04  0.00000000000E+00 0.  1.
    9000005    2    1    2  501    0 -0.68372604204E-03  0.11896096836E-03 -0.89295978049E+03  0.11070402126E+04  0.65434002082E+03 0.  0.
         13    1    3    3    0    0 -0.85688489787E+02 -0.25550910746E+03 -0.13263144624E+03  0.30036398221E+03  0.00000000000E+00 0.  1.
          3    1    3    3  501    0  0.85687806061E+02  0.25550922642E+03 -0.76032833425E+03  0.80667623044E+03  0.00000000000E+00 0.  1.
         21    1    1    2  502  501  0.68372604205E-03 -0.11896096837E-03  0.35067797037E-01  0.35074663534E-01  0.00000000000E+00 0. -1.
<mgrwt>
<rscale>  1 0.65434002E+03</rscale>
<asrwt>0</asrwt>
<pdfrwt beam="1">  1        1 0.38936550E+00 0.65434002E+03</pdfrwt>
<pdfrwt beam="2">0</pdfrwt>
<totfact> 0.14905007E+00</totfact>
</mgrwt>
</event>
<event>
 6    1  0.5285482E-003  0.6368973E+03  0.7818608E-02  0.9831681E-01
          1   -1    0    0  502    0  0.00000000000E+00  0.00000000000E+00  0.10148654492E+03  0.10148654492E+03  0.00000000000E+00 0.  1.
         13   -1    0    0    0    0 -0.00000000000E+00 -0.00000000000E+00 -0.10000000000E+04  0.10000000000E+04  0.00000000000E+00 0.  1.
    9000005    2    1    2  501    0  0.23925973700E-02  0.22868167301E-02 -0.89859041740E+03  0.11014095115E+04  0.63689730233E+03 0.  0.
         13    1    3    3    0    0 -0.31452448862E+03 -0.36869160064E+02 -0.50726398481E+03  0.59799810969E+03  0.00000000000E+00 0.  1.
          3    1    3    3  501    0  0.31452688122E+03  0.36871446881E+02 -0.39132643258E+03  0.50341140178E+03  0.00000000000E+00 0.  1.
         21    1    1    2  502  501 -0.23925973700E-02 -0.22868167301E-02  0.76962317299E-01  0.77033449468E-01  0.00000000000E+00 0. -1.
<mgrwt>
<rscale>  1 0.63689730E+03</rscale>
<asrwt>0</asrwt>
<pdfrwt beam="1">  1        1 0.36904276E+00 0.63689730E+03</pdfrwt>
<pdfrwt beam="2">0</pdfrwt>
<totfact> 0.18380834E+00</totfact>
</mgrwt>
</event>
<event>
 6    1  0.5285482E-003  0.6443762E+03  0.7818608E-02  0.9817389E-01
          1   -1    0    0  502    0  0.00000000000E+00  0.00000000000E+00  0.10391545653E+03  0.10391545653E+03  0.00000000000E+00 0.  1.
         13   -1    0    0    0    0 -0.00000000000E+00 -0.00000000000E+00 -0.10000000000E+04  0.10000000000E+04  0.00000000000E+00 0.  1.
    9000005    2    1    2  501    0  0.15669234122E+00  0.82965217040E-02 -0.89612957441E+03  0.11037522110E+04  0.64437621347E+03 0.  0.
         13    1    3    3    0    0 -0.30810863127E+03 -0.56760153238E+02 -0.57618455450E+03  0.65585157201E+03  0.00000000000E+00 0.  1.
          3    1    3    3  501    0  0.30826532361E+03  0.56768449760E+02 -0.31994501991E+03  0.44790063898E+03  0.00000000000E+00 0.  1.
         21    1    1    2  502  501 -0.15669234122E+00 -0.82965217040E-02  0.45030937769E-01  0.16324554336E+00  0.00000000000E+00 0.  1.
<mgrwt>
<rscale>  1 0.64437623E+03</rscale>
<asrwt>0</asrwt>
<pdfrwt beam="1">  1        1 0.37787518E+00 0.64437623E+03</pdfrwt>
<pdfrwt beam="2">0</pdfrwt>
<totfact> 0.16784962E+00</totfact>
</mgrwt>
</event>
<event>
 6    1  0.5285482E-003  0.6387513E+03  0.7818608E-02  0.9828118E-01
          1   -1    0    0  502    0  0.00000000000E+00  0.00000000000E+00  0.10463082324E+03  0.10463082324E+03  0.00000000000E+00 0.  1.
         13   -1    0    0    0    0 -0.00000000000E+00 -0.00000000000E+00 -0.10000000000E+04  0.10000000000E+04  0.00000000000E+00 0.  1.
    9000005    2    1    2  501    0 -0.13920144504E+00 -0.79077365668E+00 -0.89793148952E+03  0.11019456516E+04  0.63875082350E+03 0.  0.
         13    1    3    3    0    0 -0.30807803524E+03  0.65318199374E+02 -0.35744442774E+03  0.47638751232E+03  0.00000000000E+00 0.  1.
          3    1    3    3  501    0  0.30793883380E+03 -0.66108973030E+02 -0.54048706178E+03  0.62555813929E+03  0.00000000000E+00 0.  1.
         21    1    1    2  502  501  0.13920144504E+00  0.79077365668E+00  0.25623127627E+01  0.26851716355E+01  0.00000000000E+00 0.  1.
<mgrwt>
<rscale>  1 0.63875133E+03</rscale>
<asrwt>0</asrwt>
<pdfrwt beam="1">  1        1 0.38047652E+00 0.63875133E+03</pdfrwt>
<pdfrwt beam="2">0</pdfrwt>
<totfact> 0.16364402E+00</totfact>
</mgrwt>
</event>
<event>
 6    1  0.5285482E-003  0.6451685E+03  0.7818608E-02  0.9815888E-01
          1   -1    0    0  502    0  0.00000000000E+00  0.00000000000E+00  0.10430979378E+03  0.10430979378E+03  0.00000000000E+00 0.  1.
         13   -1    0    0    0    0 -0.00000000000E+00 -0.00000000000E+00 -0.10000000000E+04  0.10000000000E+04  0.00000000000E+00 0.  1.
    9000005    2    1    2  501    0 -0.13458181843E+00 -0.13301446340E+00 -0.89589913289E+03  0.11040279153E+04  0.64516846304E+03 0.  0.
         13    1    3    3    0    0 -0.74946297911E+02 -0.75476588362E+02  0.73206376098E+02  0.12912333818E+03  0.00000000000E+00 0.  1.
          1    1    3    3  501    0  0.74811716092E+02  0.75343573899E+02 -0.96910550898E+03  0.97490457714E+03  0.00000000000E+00 0.  1.
         21    1    1    2  502  501  0.13458181843E+00  0.13301446340E+00  0.20892666510E+00  0.28187845734E+00  0.00000000000E+00 0.  1.
<mgrwt>
<rscale>  1 0.64516849E+03</rscale>
<asrwt>0</asrwt>
<pdfrwt beam="1">  1        1 0.37930914E+00 0.64516849E+03</pdfrwt>
<pdfrwt beam="2">0</pdfrwt>
<totfact> 0.16539967E+00</totfact>
</mgrwt>
</event>
<event>
 6    1  0.5285482E-003  0.6446207E+03  0.7818608E-02  0.9816926E-01
          1   -1    0    0  502    0  0.00000000000E+00  0.00000000000E+00  0.10849778385E+03  0.10849778385E+03  0.00000000000E+00 0.  1.
         13   -1    0    0    0    0 -0.00000000000E+00 -0.00000000000E+00 -0.10000000000E+04  0.10000000000E+04  0.00000000000E+00 0.  1.
    9000005    2    1    2  501    0  0.24366447266E+00  0.41731798253E+00 -0.89610206482E+03  0.11038726207E+04  0.64462052292E+03 0.  0.
         13    1    3    3    0    0  0.31704658751E+02 -0.37272939843E+02  0.97483089516E+02  0.10907525005E+03  0.00000000000E+00 0.  1.
          3    1    3    3  501    0 -0.31460994278E+02  0.37690257825E+02 -0.99358515433E+03  0.99479737063E+03  0.00000000000E+00 0.  1.
         21    1    1    2  502  501 -0.24366447266E+00 -0.41731798253E+00  0.45998486647E+01  0.46251631768E+01  0.00000000000E+00 0.  1.
<mgrwt>
<rscale>  1 0.64462070E+03</rscale>
<asrwt>0</asrwt>
<pdfrwt beam="1">  1        1 0.39453823E+00 0.64462070E+03</pdfrwt>
<pdfrwt beam="2">0</pdfrwt>
<totfact> 0.14163326E+00</totfact>
</mgrwt>
</event>
<event>
 6    1  0.5285482E-003  0.6472509E+03  0.7818608E-02  0.9811951E-01
          1   -1    0    0  502    0  0.00000000000E+00  0.00000000000E+00  0.10555937498E+03  0.10555937498E+03  0.00000000000E+00 0.  1.
         13   -1    0    0    0    0 -0.00000000000E+00 -0.00000000000E+00 -0.10000000000E+04  0.10000000000E+04  0.00000000000E+00 0.  1.
    9000005    2    1    2  501    0 -0.23161438318E+00 -0.82961810425E-01 -0.89524629652E+03  0.11047169769E+04  0.64725080701E+03 0.  0.
         13    1    3    3    0    0  0.13385935908E+03  0.49177956197E+02  0.48188004740E+02  0.15052867896E+03  0.00000000000E+00 0.  1.
          3    1    3    3  501    0 -0.13409097346E+03 -0.49260918008E+02 -0.94343430126E+03  0.95418829798E+03  0.00000000000E+00 0.  1.
         21    1    1    2  502  501  0.23161438318E+00  0.82961810425E-01  0.80567149849E+00  0.84239803416E+00  0.00000000000E+00 0.  1.
<mgrwt>
<rscale>  1 0.64725085E+03</rscale>
<asrwt>0</asrwt>
<pdfrwt beam="1">  1        1 0.38385308E+00 0.64725085E+03</pdfrwt>
<pdfrwt beam="2">0</pdfrwt>
<totfact> 0.15787172E+00</totfact>
</mgrwt>
</event>
<event>
 6    1  0.5285482E-003  0.6425590E+03  0.7818608E-02  0.9820843E-01
          1   -1    0    0  502    0  0.00000000000E+00  0.00000000000E+00  0.10322078627E+03  0.10322078627E+03  0.00000000000E+00 0.  1.
         13   -1    0    0    0    0 -0.00000000000E+00 -0.00000000000E+00 -0.10000000000E+04  0.10000000000E+04  0.00000000000E+00 0.  1.
    9000005    2    1    2  501    0 -0.24807388907E-03 -0.58632225375E-04 -0.89677942084E+03  0.11032204578E+04  0.64255898478E+03 0.  0.
         13    1    3    3    0    0 -0.84928128763E+02  0.29938067766E+03 -0.58551688857E+03  0.66307737407E+03  0.00000000000E+00 0.  1.
          3    1    3    3  501    0  0.84927880689E+02 -0.29938073629E+03 -0.31126253228E+03  0.44014308375E+03  0.00000000000E+00 0.  1.
         21    1    1    2  502  501  0.24807388907E-03  0.58632225363E-04  0.20711748827E-03  0.32844489071E-03  0.00000000000E+00 0.  1.
<mgrwt>
<rscale>  1 0.64255898E+03</rscale>
<asrwt>0</asrwt>
<pdfrwt beam="1">  1        1 0.37534911E+00 0.64255898E+03</pdfrwt>
<pdfrwt beam="2">0</pdfrwt>
<totfact> 0.17226322E+00</totfact>
</mgrwt>
</event>
<event>
 6    1  0.5285482E-003  0.6558891E+03  0.7818608E-02  0.9795791E-01
          1   -1    0    0  502    0  0.00000000000E+00  0.00000000000E+00  0.10754768122E+03  0.10754768122E+03  0.00000000000E+00 0.  1.
         13   -1    0    0    0    0 -0.00000000000E+00 -0.00000000000E+00 -0.10000000000E+04  0.10000000000E+04  0.00000000000E+00 0.  1.
    9000005    2    1    2  501    0 -0.25512723624E-04 -0.54493633996E-04 -0.89245233261E+03  0.11075476195E+04  0.65588913960E+03 0.  0.
         13    1    3    3    0    0  0.22811427588E+03  0.18944502817E+03 -0.68276609563E+03  0.74437563292E+03  0.00000000000E+00 0.  1.
          3    1    3    3  501    0 -0.22811430139E+03 -0.18944508266E+03 -0.20968623698E+03  0.36317198656E+03  0.00000000000E+00 0.  1.
         21    1    1    2  502  501  0.25512723631E-04  0.54493633974E-04  0.13832307277E-04  0.61739678776E-04  0.00000000000E+00 0. -1.
<mgrwt>
<rscale>  1 0.65588914E+03</rscale>
<asrwt>0</asrwt>
<pdfrwt beam="1">  1        1 0.39108330E+00 0.65588914E+03</pdfrwt>
<pdfrwt beam="2">0</pdfrwt>
<totfact> 0.14641596E+00</totfact>
</mgrwt>
</event>
<event>
 6    1  0.5285482E-003  0.6430955E+03  0.7818608E-02  0.9819822E-01
          3   -1    0    0  502    0  0.00000000000E+00  0.00000000000E+00  0.10339297586E+03  0.10339297586E+03  0.00000000000E+00 0.  1.
         13   -1    0    0    0    0 -0.00000000000E+00 -0.00000000000E+00 -0.10000000000E+04  0.10000000000E+04  0.00000000000E+00 0.  1.
    9000005    2    1    2  501    0 -0.53630770935E-05  0.20536187995E-05 -0.89660703188E+03  0.11033929662E+04  0.64309553590E+03 0.  0.
         13    1    3    3    0    0 -0.16661486974E+03 -0.25028993369E+01 -0.92013924580E+03  0.93510588223E+03  0.00000000000E+00 0.  1.
          1    1    3    3  501    0  0.16661486437E+03  0.25029013906E+01  0.23532213925E+02  0.16828708399E+03  0.00000000000E+00 0.  1.
         21    1    1    2  502  501  0.53630770897E-05 -0.20536187996E-05  0.77380222109E-05  0.96362302681E-05  0.00000000000E+00 0. -1.
<mgrwt>
<rscale>  1 0.64309554E+03</rscale>
<asrwt>0</asrwt>
<pdfrwt beam="1">  1        3 0.37597525E+00 0.64309554E+03</pdfrwt>
<pdfrwt beam="2">0</pdfrwt>
<totfact> 0.79358986E-02</totfact>
</mgrwt>
</event>
<event>
 6    1  0.5285482E-003  0.6426574E+03  0.7818608E-02  0.9820655E-01
          1   -1    0    0  502    0  0.00000000000E+00  0.00000000000E+00  0.10325214197E+03  0.10325214197E+03  0.00000000000E+00 0.  1.
         13   -1    0    0    0    0 -0.00000000000E+00 -0.00000000000E+00 -0.10000000000E+04  0.10000000000E+04  0.00000000000E+00 0.  1.
    9000005    2    1    2  501    0  0.29480133321E-05 -0.20136181718E-05 -0.89674787298E+03  0.11032521266E+04  0.64265737930E+03 0.  0.
         13    1    3    3    0    0 -0.25299390200E+03  0.51400709372E+02 -0.77681738608E+03  0.81859220537E+03  0.00000000000E+00 0.  1.
          1    1    3    3  501    0  0.25299390495E+03 -0.51400711385E+02 -0.11993048690E+03  0.28465992124E+03  0.00000000000E+00 0.  1.
         21    1    1    2  502  501 -0.29480133240E-05  0.20136181724E-05  0.14948622300E-04  0.15369019141E-04  0.00000000000E+00 0.  1.
<mgrwt>
<rscale>  1 0.64265738E+03</rscale>
<asrwt>0</asrwt>
<pdfrwt beam="1">  1        1 0.37546313E+00 0.64265738E+03</pdfrwt>
<pdfrwt beam="2">0</pdfrwt>
<totfact> 0.17206112E+00</totfact>
</mgrwt>
</event>
<event>
 6    1  0.5285482E-003  0.6535229E+03  0.7818608E-02  0.9800191E-01
          1   -1    0    0  502    0  0.00000000000E+00  0.00000000000E+00  0.10879185913E+03  0.10879185913E+03  0.00000000000E+00 0.  1.
         13   -1    0    0    0    0 -0.00000000000E+00 -0.00000000000E+00 -0.10000000000E+04  0.10000000000E+04  0.00000000000E+00 0.  1.
    9000005    2    1    2  501    0 -0.13908188268E+01 -0.13318154692E+01 -0.89270570974E+03  0.11063524285E+04  0.65352008666E+03 0.  0.
         13    1    3    3    0    0  0.63301676786E+02 -0.23415935416E+02 -0.98732182951E+03  0.98962609269E+03  0.00000000000E+00 0.  1.
          1    1    3    3  501    0 -0.64692495613E+02  0.22084119946E+02  0.94616119771E+02  0.11672633577E+03  0.00000000000E+00 0.  1.
         21    1    1    2  502  501  0.13908188268E+01  0.13318154692E+01  0.14975688642E+01  0.24394306622E+01  0.00000000000E+00 0. -1.
<mgrwt>
<rscale>  1 0.65352292E+03</rscale>
<asrwt>0</asrwt>
<pdfrwt beam="1">  1        1 0.39560759E+00 0.65352292E+03</pdfrwt>
<pdfrwt beam="2">0</pdfrwt>
<totfact> 0.13985623E+00</totfact>
</mgrwt>
</event>
<event>
 6    1  0.5285482E-003  0.6541374E+03  0.7818608E-02  0.9799046E-01
          1   -1    0    0  502    0  0.00000000000E+00  0.00000000000E+00  0.10697510068E+03  0.10697510068E+03  0.00000000000E+00 0.  1.
         13   -1    0    0    0    0 -0.00000000000E+00 -0.00000000000E+00 -0.10000000000E+04  0.10000000000E+04  0.00000000000E+00 0.  1.
    9000005    2    1    2  501    0  0.15727532019E-02  0.28632988549E-02 -0.89301758372E+03  0.11069670888E+04  0.65413739449E+03 0.  0.
         13    1    3    3    0    0  0.20235008767E+03  0.56505039890E+02 -0.22310325606E+02  0.21127263936E+03  0.00000000000E+00 0.  1.
          3    1    3    3  501    0 -0.20234851492E+03 -0.56502176591E+02 -0.87070725812E+03  0.89569444946E+03  0.00000000000E+00 0.  1.
         21    1    1    2  502  501 -0.15727532019E-02 -0.28632988549E-02 -0.73155969618E-02  0.80118656924E-02  0.00000000000E+00 0. -1.
<mgrwt>
<rscale>  1 0.65413739E+03</rscale>
<asrwt>0</asrwt>
<pdfrwt beam="1">  1        1 0.38900119E+00 0.65413739E+03</pdfrwt>
<pdfrwt beam="2">0</pdfrwt>
<totfact> 0.14961098E+00</totfact>
</mgrwt>
</event>
<event>
 6    1  0.5285482E-003  0.6568006E+03  0.7818608E-02  0.9794101E-01
          1   -1    0    0  502    0  0.00000000000E+00  0.00000000000E+00  0.11003059134E+03  0.11003059134E+03  0.00000000000E+00 0.  1.
         13   -1    0    0    0    0 -0.00000000000E+00 -0.00000000000E+00 -0.10000000000E+04  0.10000000000E+04  0.00000000000E+00 0.  1.
    9000005    2    1    2  501    0  0.43056279550E-02  0.13160252760E+00 -0.89215102761E+03  0.11078450024E+04  0.65680063637E+03 0.  0.
         13    1    3    3    0    0  0.21211916467E+02  0.29852003334E+03 -0.21784334965E+03  0.37016196548E+03  0.00000000000E+00 0.  1.
          3    1    3    3  501    0 -0.21207610839E+02 -0.29838843081E+03 -0.67430767796E+03  0.73768303692E+03  0.00000000000E+00 0.  1.
         21    1    1    2  502  501 -0.43056279550E-02 -0.13160252760E+00  0.21816189490E+01  0.21855889372E+01  0.00000000000E+00 0.  1.
<mgrwt>
<rscale>  1 0.65680065E+03</rscale>
<asrwt>0</asrwt>
<pdfrwt beam="1">  1        1 0.40011208E+00 0.65680065E+03</pdfrwt>
<pdfrwt beam="2">0</pdfrwt>
<totfact> 0.13346138E+00</totfact>
</mgrwt>
</event>
<event>
 6    1  0.5285482E-003  0.6414678E+03  0.7818608E-02  0.9822922E-01
          1   -1    0    0  502    0  0.00000000000E+00  0.00000000000E+00  0.10759556778E+03  0.10759556778E+03  0.00000000000E+00 0.  1.
         13   -1    0    0    0    0 -0.00000000000E+00 -0.00000000000E+00 -0.10000000000E+04  0.10000000000E+04  0.00000000000E+00 0.  1.
    9000005    2    1    2  501    0 -0.25622367736E+00 -0.15419335271E+00 -0.89712455883E+03  0.11028659778E+04  0.64146769326E+03 0.  0.
         13    1    3    3    0    0  0.27750801055E+03  0.10009871626E+03 -0.23258296026E+03  0.37566645088E+03  0.00000000000E+00 0.  1.
          1    1    3    3  501    0 -0.27776423423E+03 -0.10025290961E+03 -0.66454159858E+03  0.72719952691E+03  0.00000000000E+00 0.  1.
         21    1    1    2  502  501  0.25622367736E+00  0.15419335271E+00  0.47201266164E+01  0.47295899862E+01  0.00000000000E+00 0.  1.
<mgrwt>
<rscale>  1 0.64146776E+03</rscale>
<asrwt>0</asrwt>
<pdfrwt beam="1">  1        1 0.39125744E+00 0.64146776E+03</pdfrwt>
<pdfrwt beam="2">0</pdfrwt>
<totfact> 0.14655124E+00</totfact>
</mgrwt>
</event>
<event>
 6    1  0.5285482E-003  0.4812478E+03  0.7818608E-02  0.1018793E+00
          3   -1    0    0  502    0  0.00000000000E+00  0.00000000000E+00  0.64032329883E+02  0.64032329883E+02  0.00000000000E+00 0.  1.
         13   -1    0    0    0    0 -0.00000000000E+00 -0.00000000000E+00 -0.10000000000E+04  0.10000000000E+04  0.00000000000E+00 0.  1.
    9000005    2    1    2  501    0  0.11092363759E+01 -0.23628060832E+01 -0.94180553622E+03  0.10576374930E+04  0.48124067297E+03 0.  0.
         13    1    3    3    0    0 -0.80989042652E+02 -0.22660864252E+03 -0.51838885559E+03  0.57152227209E+03  0.00000000000E+00 0.  1.
          1    1    3    3  501    0  0.82098279028E+02  0.22424583644E+03 -0.42341668063E+03  0.48611522092E+03  0.00000000000E+00 0.  1.
         21    1    1    2  502  501 -0.11092363759E+01  0.23628060832E+01  0.58378661031E+01  0.63948368676E+01  0.00000000000E+00 0. -1.
<mgrwt>
<rscale>  1 0.48124775E+03</rscale>
<asrwt>0</asrwt>
<pdfrwt beam="1">  1        3 0.23284533E+00 0.48124775E+03</pdfrwt>
<pdfrwt beam="2">0</pdfrwt>
<totfact> 0.48818147E-01</totfact>
</mgrwt>
</event>
<event>
 6    1  0.5285482E-003  0.6550328E+03  0.7818608E-02  0.9797381E-01
          1   -1    0    0  502    0  0.00000000000E+00  0.00000000000E+00  0.10727735615E+03  0.10727735615E+03  0.00000000000E+00 0.  1.
         13   -1    0    0    0    0 -0.00000000000E+00 -0.00000000000E+00 -0.10000000000E+04  0.10000000000E+04  0.00000000000E+00 0.  1.
    9000005    2    1    2  501    0  0.22944202239E-03  0.41523748899E-03 -0.89273301590E+03  0.11072669733E+04  0.65503275673E+03 0.  0.
         13    1    3    3    0    0 -0.63874585810E+02  0.26048023110E+03 -0.12860237785E+03  0.29743652280E+03  0.00000000000E+00 0.  1.
          3    1    3    3  501    0  0.63874815252E+02 -0.26047981586E+03 -0.76413063805E+03  0.80983045046E+03  0.00000000000E+00 0.  1.
         21    1    1    2  502  501 -0.22944202240E-03 -0.41523748897E-03  0.10372043386E-01  0.10382887354E-01  0.00000000000E+00 0.  1.
<mgrwt>
<rscale>  1 0.65503276E+03</rscale>
<asrwt>0</asrwt>
<pdfrwt beam="1">  1        1 0.39010030E+00 0.65503276E+03</pdfrwt>
<pdfrwt beam="2">0</pdfrwt>
<totfact> 0.14791704E+00</totfact>
</mgrwt>
</event>
<event>
 6    1  0.5285482E-003  0.6494402E+03  0.7818608E-02  0.9807830E-01
          1   -1    0    0  502    0  0.00000000000E+00  0.00000000000E+00  0.10544825192E+03  0.10544825192E+03  0.00000000000E+00 0.  1.
         13   -1    0    0    0    0 -0.00000000000E+00 -0.00000000000E+00 -0.10000000000E+04  0.10000000000E+04  0.00000000000E+00 0.  1.
    9000005    2    1    2  501    0  0.39969798979E-03  0.57677659345E-03 -0.89455682043E+03  0.11054431313E+04  0.64944022933E+03 0.  0.
         13    1    3    3    0    0  0.38809152522E+02 -0.29912200027E+03 -0.24257492665E+03  0.38706939482E+03  0.00000000000E+00 0.  1.
          3    1    3    3  501    0 -0.38808752824E+02  0.29912257705E+03 -0.65198189378E+03  0.71837373644E+03  0.00000000000E+00 0.  1.
         21    1    1    2  502  501 -0.39969798979E-03 -0.57677659344E-03  0.50723533154E-02  0.51206638123E-02  0.00000000000E+00 0.  1.
<mgrwt>
<rscale>  1 0.64944023E+03</rscale>
<asrwt>0</asrwt>
<pdfrwt beam="1">  1        1 0.38344900E+00 0.64944023E+03</pdfrwt>
<pdfrwt beam="2">0</pdfrwt>
<totfact> 0.15845824E+00</totfact>
</mgrwt>
</event>
<event>
 6    1  0.5285482E-003  0.6388679E+03  0.7818608E-02  0.9827895E-01
          1   -1    0    0  502    0  0.00000000000E+00  0.00000000000E+00  0.10203937192E+03  0.10203937192E+03  0.00000000000E+00 0.  1.
         13   -1    0    0    0    0 -0.00000000000E+00 -0.00000000000E+00 -0.10000000000E+04  0.10000000000E+04  0.00000000000E+00 0.  1.
    9000005    2    1    2  501    0 -0.71410981590E-03  0.30683200465E-02 -0.89795947505E+03  0.11020360172E+04  0.63886787711E+03 0.  0.
         13    1    3    3    0    0 -0.94024134763E+02  0.11749932256E+03 -0.93502141506E+03  0.94705420929E+03  0.00000000000E+00 0.  1.
          1    1    3    3  501    0  0.94023420653E+02 -0.11749625424E+03  0.37061940007E+02  0.15498180793E+03  0.00000000000E+00 0.  1.
         21    1    1    2  502  501  0.71410981591E-03 -0.30683200465E-02 -0.11530261977E-02  0.33546997108E-02  0.00000000000E+00 0. -1.
<mgrwt>
<rscale>  1 0.63886788E+03</rscale>
<asrwt>0</asrwt>
<pdfrwt beam="1">  1        1 0.37105304E+00 0.63886788E+03</pdfrwt>
<pdfrwt beam="2">0</pdfrwt>
<totfact> 0.18004468E+00</totfact>
</mgrwt>
</event>
<event>
 6    1  0.5285482E-003  0.6435189E+03  0.7818608E-02  0.9819017E-01
          1   -1    0    0  502    0  0.00000000000E+00  0.00000000000E+00  0.10352915045E+03  0.10352915045E+03  0.00000000000E+00 0.  1.
         13   -1    0    0    0    0 -0.00000000000E+00 -0.00000000000E+00 -0.10000000000E+04  0.10000000000E+04  0.00000000000E+00 0.  1.
    9000005    2    1    2  501    0 -0.67949815730E-06 -0.13826436636E-05 -0.89647085371E+03  0.11035291460E+04  0.64351890768E+03 0.  0.
         13    1    3    3    0    0  0.18890240460E+03  0.24934272364E+02 -0.89284871778E+03  0.91295381551E+03  0.00000000000E+00 0.  1.
          3    1    3    3  501    0 -0.18890240528E+03 -0.24934273746E+02 -0.36221359273E+01  0.19057533050E+03  0.00000000000E+00 0.  1.
         21    1    1    2  502  501  0.67949815839E-06  0.13826436651E-05  0.41582380285E-05  0.44344520240E-05  0.00000000000E+00 0.  1.
<mgrwt>
<rscale>  1 0.64351891E+03</rscale>
<asrwt>0</asrwt>
<pdfrwt beam="1">  1        1 0.37647043E+00 0.64351891E+03</pdfrwt>
<pdfrwt beam="2">0</pdfrwt>
<totfact> 0.17028575E+00</totfact>
</mgrwt>
</event>
<event>
 6    1  0.5285482E-003  0.6509959E+03  0.7818608E-02  0.9804912E-01
          1   -1    0    0  502    0  0.00000000000E+00  0.00000000000E+00  0.10594913225E+03  0.10594913225E+03  0.00000000000E+00 0.  1.
         13   -1    0    0    0    0 -0.00000000000E+00 -0.00000000000E+00 -0.10000000000E+04  0.10000000000E+04  0.00000000000E+00 0.  1.
    9000005    2    1    2  501    0  0.30895393849E-04  0.45672403360E-04 -0.89405106511E+03  0.11059489273E+04  0.65099594687E+03 0.  0.
         13    1    3    3    0    0  0.64597181147E+02  0.21799024721E+03 -0.84274033646E+03  0.87287102048E+03  0.00000000000E+00 0.  1.
          3    1    3    3  501    0 -0.64597150252E+02 -0.21799020154E+03 -0.51310728652E+02  0.23307790685E+03  0.00000000000E+00 0.  1.
         21    1    1    2  502  501 -0.30895393845E-04 -0.45672403375E-04  0.19736194196E-03  0.20492005740E-03  0.00000000000E+00 0. -1.
<mgrwt>
<rscale>  1 0.65099595E+03</rscale>
<asrwt>0</asrwt>
<pdfrwt beam="1">  1        1 0.38527038E+00 0.65099595E+03</pdfrwt>
<pdfrwt beam="2">0</pdfrwt>
<totfact> 0.15550212E+00</totfact>
</mgrwt>
</event>
<event>
 6    1  0.5285482E-003  0.6483237E+03  0.7818608E-02  0.9809930E-01
          1   -1    0    0  502    0  0.00000000000E+00  0.00000000000E+00  0.10508573856E+03  0.10508573856E+03  0.00000000000E+00 0.  1.
         13   -1    0    0    0    0 -0.00000000000E+00 -0.00000000000E+00 -0.10000000000E+04  0.10000000000E+04  0.00000000000E+00 0.  1.
    9000005    2    1    2  501    0 -0.51500174223E-04  0.90581430541E-04 -0.89491911041E+03  0.11050808885E+04  0.64832365056E+03 0.  0.
         13    1    3    3    0    0  0.99047103389E+02  0.79715696955E+02 -0.95572676510E+03  0.96414655035E+03  0.00000000000E+00 0.  1.
          1    1    3    3  501    0 -0.99047154889E+02 -0.79715606373E+02  0.60807654688E+02  0.14093433811E+03  0.00000000000E+00 0.  1.
         21    1    1    2  502  501  0.51500174237E-04 -0.90581430555E-04  0.48489705907E-02  0.48500900047E-02  0.00000000000E+00 0.  1.
<mgrwt>
<rscale>  1 0.64832365E+03</rscale>
<asrwt>0</asrwt>
<pdfrwt beam="1">  1        1 0.38213076E+00 0.64832365E+03</pdfrwt>
<pdfrwt beam="2">0</pdfrwt>
<totfact> 0.16063071E+00</totfact>
</mgrwt>
</event>
<event>
 6    1  0.5285482E-003  0.6506431E+03  0.7818608E-02  0.9805573E-01
          1   -1    0    0  502    0  0.00000000000E+00  0.00000000000E+00  0.10918284169E+03  0.10918284169E+03  0.00000000000E+00 0.  1.
         13   -1    0    0    0    0 -0.00000000000E+00 -0.00000000000E+00 -0.10000000000E+04  0.10000000000E+04  0.00000000000E+00 0.  1.
    9000005    2    1    2  501    0 -0.66838220028E+00  0.24873531362E+00 -0.89412386294E+03  0.11058001062E+04  0.65064266995E+03 0.  0.
         13    1    3    3    0    0 -0.23122332338E+03 -0.14036767523E+03 -0.13957731718E+03  0.30438320748E+03  0.00000000000E+00 0.  1.
          3    1    3    3  501    0  0.23055494118E+03  0.14061641054E+03 -0.75454654576E+03  0.80141689871E+03  0.00000000000E+00 0.  1.
         21    1    1    2  502  501  0.66838220028E+00 -0.24873531362E+00  0.33067046269E+01  0.33827355071E+01  0.00000000000E+00 0.  1.
<mgrwt>
<rscale>  1 0.65064306E+03</rscale>
<asrwt>0</asrwt>
<pdfrwt beam="1">  1        1 0.39702935E+00 0.65064306E+03</pdfrwt>
<pdfrwt beam="2">0</pdfrwt>
<totfact> 0.13790892E+00</totfact>
</mgrwt>
</event>
<event>
 6    1  0.5285482E-003  0.6500768E+03  0.7818608E-02  0.9806635E-01
          1   -1    0    0  502    0  0.00000000000E+00  0.00000000000E+00  0.10565268976E+03  0.10565268976E+03  0.00000000000E+00 0.  1.
         13   -1    0    0    0    0 -0.00000000000E+00 -0.00000000000E+00 -0.10000000000E+04  0.10000000000E+04  0.00000000000E+00 0.  1.
    9000005    2    1    2  501    0 -0.30085765757E-02 -0.70465419611E-03 -0.89434904595E+03  0.11056491456E+04  0.65007677798E+03 0.  0.
         13    1    3    3    0    0 -0.10324921833E+03 -0.30820411148E+03 -0.44623371866E+03  0.55206404256E+03  0.00000000000E+00 0.  1.
          3    1    3    3  501    0  0.10324620975E+03  0.30820340683E+03 -0.44811532728E+03  0.55358510308E+03  0.00000000000E+00 0.  1.
         21    1    1    2  502  501  0.30085765757E-02  0.70465419608E-03  0.17357037991E-02  0.35441131791E-02  0.00000000000E+00 0.  1.
<mgrwt>
<rscale>  1 0.65007678E+03</rscale>
<asrwt>0</asrwt>
<pdfrwt beam="1">  1        1 0.38419241E+00 0.65007678E+03</pdfrwt>
<pdfrwt beam="2">0</pdfrwt>
<totfact> 0.15724524E+00</totfact>
</mgrwt>
</event>
<event>
 6    1  0.5285482E-003  0.6355855E+03  0.7818608E-02  0.9834209E-01
          1   -1    0    0  502    0  0.00000000000E+00  0.00000000000E+00  0.10099224207E+03  0.10099224207E+03  0.00000000000E+00 0.  1.
         13   -1    0    0    0    0 -0.00000000000E+00 -0.00000000000E+00 -0.10000000000E+04  0.10000000000E+04  0.00000000000E+00 0.  1.
    9000005    2    1    2  501    0 -0.52418189611E-05  0.19959907718E-05 -0.89900775588E+03  0.11009922361E+04  0.63558552440E+03 0.  0.
         13    1    3    3    0    0  0.44797998925E+02  0.31110141842E+03 -0.53077730672E+03  0.61685938639E+03  0.00000000000E+00 0.  1.
          1    1    3    3  501    0 -0.44798004167E+02 -0.31110141642E+03 -0.36823044916E+03  0.48413284971E+03  0.00000000000E+00 0.  1.
         21    1    1    2  502  501  0.52418189648E-05 -0.19959907663E-05 -0.20460482856E-05  0.59705074145E-05  0.00000000000E+00 0.  1.
<mgrwt>
<rscale>  1 0.63558552E+03</rscale>
<asrwt>0</asrwt>
<pdfrwt beam="1">  1        1 0.36724529E+00 0.63558552E+03</pdfrwt>
<pdfrwt beam="2">0</pdfrwt>
<totfact> 0.18722187E+00</totfact>
</mgrwt>
</event>
<event>
 6    1  0.5285482E-003  0.6346017E+03  0.7818608E-02  0.9836110E-01
          1   -1    0    0  502    0  0.00000000000E+00  0.00000000000E+00  0.10068648114E+03  0.10068648114E+03  0.00000000000E+00 0.  1.
         13   -1    0    0    0    0 -0.00000000000E+00 -0.00000000000E+00 -0.10000000000E+04  0.10000000000E+04  0.00000000000E+00 0.  1.
    9000005    2    1    2  501    0  0.96019095420E-02  0.11871427999E-01 -0.89930870080E+03  0.11006704705E+04  0.63460172157E+03 0.  0.
         13    1    3    3    0    0  0.14082625212E+03  0.10662118150E+03 -0.90684659447E+03  0.92388898442E+03  0.00000000000E+00 0.  1.
          3    1    3    3  501    0 -0.14081665021E+03 -0.10660931007E+03  0.75378936732E+01  0.17678148606E+03  0.00000000000E+00 0.  1.
         21    1    1    2  502  501 -0.96019095420E-02 -0.11871427999E-01 -0.48180660920E-02  0.16010659900E-01  0.00000000000E+00 0.  1.
<mgrwt>
<rscale>  1 0.63460172E+03</rscale>
<asrwt>0</asrwt>
<pdfrwt beam="1">  1        1 0.36613343E+00 0.63460172E+03</pdfrwt>
<pdfrwt beam="2">0</pdfrwt>
<totfact> 0.18936959E+00</totfact>
</mgrwt>
</event>
<event>
 6    1  0.5285482E-003  0.6577383E+03  0.7818608E-02  0.9792366E-01
          1   -1    0    0  502    0  0.00000000000E+00  0.00000000000E+00  0.10815733581E+03  0.10815733581E+03  0.00000000000E+00 0.  1.
         13   -1    0    0    0    0 -0.00000000000E+00 -0.00000000000E+00 -0.10000000000E+04  0.10000000000E+04  0.00000000000E+00 0.  1.
    9000005    2    1    2  501    0  0.33270472710E-03 -0.36576235439E-03 -0.89184505062E+03  0.11081548987E+04  0.65773831057E+03 0.  0.
         13    1    3    3    0    0  0.20939409592E+03  0.24807484139E+03 -0.53456078286E+03  0.62541365904E+03  0.00000000000E+00 0.  1.
          1    1    3    3  501    0 -0.20939376321E+03 -0.24807520716E+03 -0.35728426776E+03  0.48274123966E+03  0.00000000000E+00 0.  1.
         21    1    1    2  502  501 -0.33270472710E-03  0.36576235440E-03  0.23864294881E-02  0.24371130948E-02  0.00000000000E+00 0. -1.
<mgrwt>
<rscale>  1 0.65773831E+03</rscale>
<asrwt>0</asrwt>
<pdfrwt beam="1">  1        1 0.39330023E+00 0.65773831E+03</pdfrwt>
<pdfrwt beam="2">0</pdfrwt>
<totfact> 0.14308564E+00</totfact>
</mgrwt>
</event>
<event>
 6    1  0.5285482E-003  0.6522657E+03  0.7818608E-02  0.9802537E-01
          1   -1    0    0  502    0  0.00000000000E+00  0.00000000000E+00  0.10636277809E+03  0.10636277809E+03  0.00000000000E+00 0.  1.
         13   -1    0    0    0    0 -0.00000000000E+00 -0.00000000000E+00 -0.10000000000E+04  0.10000000000E+04  0.00000000000E+00 0.  1.
    9000005    2    1    2  501    0  0.22093907182E-03 -0.76424783657E-06 -0.89363727912E+03  0.11063625499E+04  0.65226567064E+03 0.  0.
         13    1    3    3    0    0  0.19997585131E+03  0.43857656960E+02 -0.16212331405E+02  0.20536960552E+03  0.00000000000E+00 0.  1.
          1    1    3    3  501    0 -0.19997563037E+03 -0.43857657724E+02 -0.87742494772E+03  0.90099294435E+03  0.00000000000E+00 0.  1.
         21    1    1    2  502  501 -0.22093907183E-03  0.76424783681E-06  0.57215565774E-04  0.22822856636E-03  0.00000000000E+00 0. -1.
<mgrwt>
<rscale>  1 0.65226567E+03</rscale>
<asrwt>0</asrwt>
<pdfrwt beam="1">  1        1 0.38677455E+00 0.65226567E+03</pdfrwt>
<pdfrwt beam="2">0</pdfrwt>
<totfact> 0.15310085E+00</totfact>
</mgrwt>
</event>
<event>
 6    1  0.5285482E-003  0.6513839E+03  0.7818608E-02  0.9804186E-01
          1   -1    0    0  502    0  0.00000000000E+00  0.00000000000E+00  0.10620712764E+03  0.10620712764E+03  0.00000000000E+00 0.  1.
         13   -1    0    0    0    0 -0.00000000000E+00 -0.00000000000E+00 -0.10000000000E+04  0.10000000000E+04  0.00000000000E+00 0.  1.
    9000005    2    1    2  501    0  0.96888870199E-02  0.11418721859E-01 -0.89392429881E+03  0.11060748508E+04  0.65138385245E+03 0.  0.
         13    1    3    3    0    0 -0.56077463751E+02 -0.17374866315E+02  0.97016109726E+02  0.11339617924E+03  0.00000000000E+00 0.  1.
          1    1    3    3  501    0  0.56087152638E+02  0.17386285037E+02 -0.99094040854E+03  0.99267867151E+03  0.00000000000E+00 0.  1.
         21    1    1    2  502  501 -0.96888870199E-02 -0.11418721859E-01  0.13142645841E+00  0.13227689031E+00  0.00000000000E+00 0. -1.
<mgrwt>
<rscale>  1 0.65138385E+03</rscale>
<asrwt>0</asrwt>
<pdfrwt beam="1">  1        1 0.38620855E+00 0.65138385E+03</pdfrwt>
<pdfrwt beam="2">0</pdfrwt>
<totfact> 0.15401176E+00</totfact>
</mgrwt>
</event>
<event>
 6    1  0.5285482E-003  0.5468066E+03  0.7818608E-02  0.1002236E+00
          1   -1    0    0  502    0  0.00000000000E+00  0.00000000000E+00  0.85758959174E+02  0.85758959174E+02  0.00000000000E+00 0.  1.
         13   -1    0    0    0    0 -0.00000000000E+00 -0.00000000000E+00 -0.10000000000E+04  0.10000000000E+04  0.00000000000E+00 0.  1.
    9000005    2    1    2  501    0  0.32810599439E+01  0.49594259993E+01 -0.92438283667E+03  0.10740023745E+04  0.54677427737E+03 0.  0.
         13    1    3    3    0    0  0.50627950659E+02 -0.24837334594E+03 -0.26823563179E+03  0.36905671993E+03  0.00000000000E+00 0.  1.
          3    1    3    3  501    0 -0.47346890716E+02  0.25333277194E+03 -0.65614720488E+03  0.70494565455E+03  0.00000000000E+00 0.  1.
         21    1    1    2  502  501 -0.32810599439E+01 -0.49594259993E+01  0.10141795848E+02  0.11756584692E+02  0.00000000000E+00 0. -1.
<mgrwt>
<rscale>  1 0.54680661E+03</rscale>
<asrwt>0</asrwt>
<pdfrwt beam="1">  1        1 0.31185142E+00 0.54680661E+03</pdfrwt>
<pdfrwt beam="2">0</pdfrwt>
<totfact> 0.33118483E+00</totfact>
</mgrwt>
</event>
<event>
 6    1  0.5285482E-003  0.6533132E+03  0.7818608E-02  0.9800582E-01
          1   -1    0    0  502    0  0.00000000000E+00  0.00000000000E+00  0.11940656364E+03  0.11940656364E+03  0.00000000000E+00 0.  1.
         13   -1    0    0    0    0 -0.00000000000E+00 -0.00000000000E+00 -0.10000000000E+04  0.10000000000E+04  0.00000000000E+00 0.  1.
    9000005    2    1    2  501    0 -0.26071486188E+00 -0.38372706238E+00 -0.89329076930E+03  0.11067007586E+04  0.65331306069E+03 0.  0.
         13    1    3    3    0    0 -0.14914420076E+03 -0.16229668894E+03 -0.85559969285E+03  0.88353553537E+03  0.00000000000E+00 0.  1.
          1    1    3    3  501    0  0.14888348590E+03  0.16191296188E+03 -0.37691076458E+02  0.22316522319E+03  0.00000000000E+00 0.  1.
         21    1    1    2  502  501  0.26071486188E+00  0.38372706238E+00  0.12697332944E+02  0.12705805074E+02  0.00000000000E+00 0.  1.
<mgrwt>
<rscale>  1 0.65331323E+03</rscale>
<asrwt>0</asrwt>
<pdfrwt beam="1">  1        1 0.43420660E+00 0.65331323E+03</pdfrwt>
<pdfrwt beam="2">0</pdfrwt>
<totfact> 0.93777044E-01</totfact>
</mgrwt>
</event>
<event>
 6    1  0.5285482E-003  0.6866163E+03  0.7818608E-02  0.9740398E-01
          1   -1    0    0  502    0  0.00000000000E+00  0.00000000000E+00  0.11790493317E+03  0.11790493317E+03  0.00000000000E+00 0.  1.
         13   -1    0    0    0    0 -0.00000000000E+00 -0.00000000000E+00 -0.10000000000E+04  0.10000000000E+04  0.00000000000E+00 0.  1.
    9000005    2    1    2  501    0  0.22342553079E-01 -0.27853515511E-01 -0.88213132775E+03  0.11178540425E+04  0.68661632636E+03 0.  0.
         13    1    3    3    0    0  0.17837665802E+03 -0.27812190950E+03 -0.28921290473E+03  0.43910606114E+03  0.00000000000E+00 0.  1.
          1    1    3    3  501    0 -0.17835431547E+03  0.27809405598E+03 -0.59291842302E+03  0.67874798134E+03  0.00000000000E+00 0.  1.
         21    1    1    2  502  501 -0.22342553079E-01  0.27853515511E-01  0.36260913166E-01  0.50890685082E-01  0.00000000000E+00 0. -1.
<mgrwt>
<rscale>  1 0.68661633E+03</rscale>
<asrwt>0</asrwt>
<pdfrwt beam="1">  1        1 0.42874612E+00 0.68661633E+03</pdfrwt>
<pdfrwt beam="2">0</pdfrwt>
<totfact> 0.98646528E-01</totfact>
</mgrwt>
</event>
<event>
 6    1  0.5285482E-003  0.6543067E+03  0.7818608E-02  0.9798731E-01
          1   -1    0    0  502    0  0.00000000000E+00  0.00000000000E+00  0.10748862888E+03  0.10748862888E+03  0.00000000000E+00 0.  1.
         13   -1    0    0    0    0 -0.00000000000E+00 -0.00000000000E+00 -0.10000000000E+04  0.10000000000E+04  0.00000000000E+00 0.  1.
    9000005    2    1    2  501    0  0.93333958561E-02 -0.32043447737E-01 -0.89297000666E+03  0.11070287806E+04  0.65430672252E+03 0.  0.
         13    1    3    3    0    0  0.24413367839E+03  0.65108201184E+02 -0.94872322545E+02  0.26989088234E+03  0.00000000000E+00 0.  1.
          3    1    3    3  501    0 -0.24412434499E+03 -0.65140244632E+02 -0.79809768411E+03  0.83713789825E+03  0.00000000000E+00 0.  1.
         21    1    1    2  502  501 -0.93333958562E-02  0.32043447737E-01  0.45863554223E+00  0.45984829609E+00  0.00000000000E+00 0.  1.
<mgrwt>
<rscale>  1 0.65430672E+03</rscale>
<asrwt>0</asrwt>
<pdfrwt beam="1">  1        1 0.39086857E+00 0.65430672E+03</pdfrwt>
<pdfrwt beam="2">0</pdfrwt>
<totfact> 0.14678066E+00</totfact>
</mgrwt>
</event>
<event>
 6    1  0.5285482E-003  0.6523110E+03  0.7818608E-02  0.9802452E-01
          1   -1    0    0  502    0  0.00000000000E+00  0.00000000000E+00  0.10638344810E+03  0.10638344810E+03  0.00000000000E+00 0.  1.
         13   -1    0    0    0    0 -0.00000000000E+00 -0.00000000000E+00 -0.10000000000E+04  0.10000000000E+04  0.00000000000E+00 0.  1.
    9000005    2    1    2  501    0 -0.85634617892E-03 -0.14368568524E-02 -0.89362247637E+03  0.11063772920E+04  0.65231095503E+03 0.  0.
         13    1    3    3    0    0  0.28216891181E+03  0.11666006390E+03 -0.25232792434E+03  0.39610383323E+03  0.00000000000E+00 0.  1.
          1    1    3    3  501    0 -0.28216976815E+03 -0.11666150076E+03 -0.64129455203E+03  0.71027345880E+03  0.00000000000E+00 0.  1.
         21    1    1    2  502  501  0.85634617895E-03  0.14368568524E-02  0.59244664051E-02  0.61560692473E-02  0.00000000000E+00 0.  1.
<mgrwt>
<rscale>  1 0.65231096E+03</rscale>
<asrwt>0</asrwt>
<pdfrwt beam="1">  1        1 0.38684972E+00 0.65231096E+03</pdfrwt>
<pdfrwt beam="2">0</pdfrwt>
<totfact> 0.15298230E+00</totfact>
</mgrwt>
</event>
<event>
 6    1  0.5285482E-003  0.6578438E+03  0.7818608E-02  0.9792171E-01
          3   -1    0    0  502    0  0.00000000000E+00  0.00000000000E+00  0.10830503298E+03  0.10830503298E+03  0.00000000000E+00 0.  1.
         13   -1    0    0    0    0 -0.00000000000E+00 -0.00000000000E+00 -0.10000000000E+04  0.10000000000E+04  0.00000000000E+00 0.  1.
    9000005    2    1    2  501    0 -0.10017799537E+00  0.55343793222E-01 -0.89177805138E+03  0.11081636060E+04  0.65784380497E+03 0.  0.
         13    1    3    3    0    0 -0.91631746909E+02  0.31190354536E+03 -0.36111463745E+03  0.48588473945E+03  0.00000000000E+00 0.  1.
          1    1    3    3  501    0  0.91531568913E+02 -0.31184820157E+03 -0.53066341393E+03  0.62227886659E+03  0.00000000000E+00 0.  1.
         21    1    1    2  502  501  0.10017799537E+00 -0.55343793222E-01  0.83084366870E-01  0.14142693599E+00  0.00000000000E+00 0. -1.
<mgrwt>
<rscale>  1 0.65784381E+03</rscale>
<asrwt>0</asrwt>
<pdfrwt beam="1">  1        3 0.39383731E+00 0.65784381E+03</pdfrwt>
<pdfrwt beam="2">0</pdfrwt>
<totfact> 0.63732718E-02</totfact>
</mgrwt>
</event>
<event>
 6    1  0.5285482E-003  0.6304467E+03  0.7818608E-02  0.9844177E-01
          1   -1    0    0  502    0  0.00000000000E+00  0.00000000000E+00  0.99526812396E+02  0.99526812396E+02  0.00000000000E+00 0.  1.
         13   -1    0    0    0    0 -0.00000000000E+00 -0.00000000000E+00 -0.10000000000E+04  0.10000000000E+04  0.00000000000E+00 0.  1.
    9000005    2    1    2  501    0  0.86393229841E-02  0.10426152392E-02 -0.90063409720E+03  0.10993656677E+04  0.63044674171E+03 0.  0.
         13    1    3    3    0    0  0.17913857358E+03 -0.25901473739E+03 -0.42642378395E+03  0.53010990017E+03  0.00000000000E+00 0.  1.
          3    1    3    3  501    0 -0.17912993426E+03  0.25901578001E+03 -0.47421031325E+03  0.56925576750E+03  0.00000000000E+00 0.  1.
         21    1    1    2  502  501 -0.86393229841E-02 -0.10426152392E-02  0.16090959792E+00  0.16114472890E+00  0.00000000000E+00 0.  1.
<mgrwt>
<rscale>  1 0.63044674E+03</rscale>
<asrwt>0</asrwt>
<pdfrwt beam="1">  1        1 0.36191644E+00 0.63044674E+03</pdfrwt>
<pdfrwt beam="2">0</pdfrwt>
<totfact> 0.19774704E+00</totfact>
</mgrwt>
</event>
<event>
 6    1  0.5285482E-003  0.6478135E+03  0.7818608E-02  0.9810891E-01
          1   -1    0    0  502    0  0.00000000000E+00  0.00000000000E+00  0.10491559387E+03  0.10491559387E+03  0.00000000000E+00 0.  1.
         13   -1    0    0    0    0 -0.00000000000E+00 -0.00000000000E+00 -0.10000000000E+04  0.10000000000E+04  0.00000000000E+00 0.  1.
    9000005    2    1    2  501    0 -0.12238862865E-05  0.26311769261E-05 -0.89508440846E+03  0.11049155901E+04  0.64781352493E+03 0.  0.
         13    1    3    3    0    0  0.36950331043E+02  0.27664082029E+03 -0.16717789058E+03  0.32533662184E+03  0.00000000000E+00 0.  1.
          1    1    3    3  501    0 -0.36950332267E+02 -0.27664081766E+03 -0.72790651788E+03  0.77957896830E+03  0.00000000000E+00 0.  1.
         21    1    1    2  502  501  0.12238862872E-05 -0.26311768745E-05  0.23365486815E-05  0.37256474779E-05  0.00000000000E+00 0. -1.
<mgrwt>
<rscale>  1 0.64781352E+03</rscale>
<asrwt>0</asrwt>
<pdfrwt beam="1">  1        1 0.38151205E+00 0.64781352E+03</pdfrwt>
<pdfrwt beam="2">0</pdfrwt>
<totfact> 0.16165968E+00</totfact>
</mgrwt>
</event>
<event>
 6    1  0.5285482E-003  0.6440373E+03  0.7818608E-02  0.9818033E-01
          1   -1    0    0  502    0  0.00000000000E+00  0.00000000000E+00  0.10370400652E+03  0.10370400652E+03  0.00000000000E+00 0.  1.
         13   -1    0    0    0    0 -0.00000000000E+00 -0.00000000000E+00 -0.10000000000E+04  0.10000000000E+04  0.00000000000E+00 0.  1.
    9000005    2    1    2  501    0 -0.42196857351E-04  0.22662198289E-02 -0.89630381706E+03  0.11036958612E+04  0.64403728276E+03 0.  0.
         13    1    3    3    0    0 -0.31211916775E+03 -0.40155736878E+02 -0.56520067447E+03  0.64690235778E+03  0.00000000000E+00 0.  1.
          3    1    3    3  501    0  0.31211912555E+03  0.40158003098E+02 -0.33110314259E+03  0.45679350344E+03  0.00000000000E+00 0.  1.
         21    1    1    2  502  501  0.42196857379E-04 -0.22662198289E-02  0.78235753339E-02  0.81452970414E-02  0.00000000000E+00 0. -1.
<mgrwt>
<rscale>  1 0.64403728E+03</rscale>
<asrwt>0</asrwt>
<pdfrwt beam="1">  1        1 0.37710627E+00 0.64403728E+03</pdfrwt>
<pdfrwt beam="2">0</pdfrwt>
<totfact> 0.16917488E+00</totfact>
</mgrwt>
</event>
<event>
 6    1  0.5285482E-003  0.6547117E+03  0.7818608E-02  0.9797978E-01
          1   -1    0    0  502    0  0.00000000000E+00  0.00000000000E+00  0.10735758659E+03  0.10735758659E+03  0.00000000000E+00 0.  1.
         13   -1    0    0    0    0 -0.00000000000E+00 -0.00000000000E+00 -0.10000000000E+04  0.10000000000E+04  0.00000000000E+00 0.  1.
    9000005    2    1    2  501    0 -0.21178122808E-02 -0.87898412342E-02 -0.89283803282E+03  0.11071617583E+04  0.65471169701E+03 0.  0.
         13    1    3    3    0    0 -0.31164915815E+03 -0.10010002271E+03 -0.45363241949E+03  0.55939930670E+03  0.00000000000E+00 0.  1.
          1    1    3    3  501    0  0.31164704034E+03  0.10009123286E+03 -0.43920561333E+03  0.54776245165E+03  0.00000000000E+00 0.  1.
         21    1    1    2  502  501  0.21178122808E-02  0.87898412342E-02  0.19561940929E+00  0.19582824038E+00  0.00000000000E+00 0. -1.
<mgrwt>
<rscale>  1 0.65471170E+03</rscale>
<asrwt>0</asrwt>
<pdfrwt beam="1">  1        1 0.39039205E+00 0.65471170E+03</pdfrwt>
<pdfrwt beam="2">0</pdfrwt>
<totfact> 0.14748575E+00</totfact>
</mgrwt>
</event>
<event>
 6    1  0.5285482E-003  0.6431511E+03  0.7818608E-02  0.9819716E-01
          1   -1    0    0  502    0  0.00000000000E+00  0.00000000000E+00  0.10342027843E+03  0.10342027843E+03  0.00000000000E+00 0.  1.
         13   -1    0    0    0    0 -0.00000000000E+00 -0.00000000000E+00 -0.10000000000E+04  0.10000000000E+04  0.00000000000E+00 0.  1.
    9000005    2    1    2  501    0  0.20392242244E-02  0.70259659543E-03 -0.89658902942E+03  0.11034107239E+04  0.64315110048E+03 0.  0.
         13    1    3    3    0    0 -0.15110888301E+03  0.25586488692E+03 -0.23740422886E+03  0.38034392695E+03  0.00000000000E+00 0.  1.
          1    1    3    3  501    0  0.15111092223E+03 -0.25586418433E+03 -0.65918480056E+03  0.72306679700E+03  0.00000000000E+00 0.  1.
         21    1    1    2  502  501 -0.20392242244E-02 -0.70259659541E-03  0.93078529780E-02  0.95544860915E-02  0.00000000000E+00 0. -1.
<mgrwt>
<rscale>  1 0.64315110E+03</rscale>
<asrwt>0</asrwt>
<pdfrwt beam="1">  1        1 0.37607453E+00 0.64315110E+03</pdfrwt>
<pdfrwt beam="2">0</pdfrwt>
<totfact> 0.17098234E+00</totfact>
</mgrwt>
</event>
<event>
 6    1  0.5285482E-003  0.6492184E+03  0.7818608E-02  0.9808247E-01
          1   -1    0    0  502    0  0.00000000000E+00  0.00000000000E+00  0.10537164960E+03  0.10537164960E+03  0.00000000000E+00 0.  1.
         13   -1    0    0    0    0 -0.00000000000E+00 -0.00000000000E+00 -0.10000000000E+04  0.10000000000E+04  0.00000000000E+00 0.  1.
    9000005    2    1    2  501    0 -0.10855703556E-03  0.80530543983E-04 -0.89462885195E+03  0.11053711302E+04  0.64921841674E+03 0.  0.
         13    1    3    3    0    0 -0.30231965509E+03 -0.10816298799E+03 -0.36610910919E+03  0.48696230414E+03  0.00000000000E+00 0.  1.
          1    1    3    3  501    0  0.30231954653E+03  0.10816306852E+03 -0.52851974276E+03  0.61840882601E+03  0.00000000000E+00 0.  1.
         21    1    1    2  502  501  0.10855703552E-03 -0.80530543979E-04  0.50155391012E-03  0.51944790233E-03  0.00000000000E+00 0. -1.
<mgrwt>
<rscale>  1 0.64921842E+03</rscale>
<asrwt>0</asrwt>
<pdfrwt beam="1">  1        1 0.38317044E+00 0.64921842E+03</pdfrwt>
<pdfrwt beam="2">0</pdfrwt>
<totfact> 0.15891455E+00</totfact>
</mgrwt>
</event>
<event>
 6    1  0.5285482E-003  0.6616940E+03  0.7818608E-02  0.9785080E-01
          1   -1    0    0  502    0  0.00000000000E+00  0.00000000000E+00  0.10946060358E+03  0.10946060358E+03  0.00000000000E+00 0.  1.
         13   -1    0    0    0    0 -0.00000000000E+00 -0.00000000000E+00 -0.10000000000E+04  0.10000000000E+04  0.00000000000E+00 0.  1.
    9000005    2    1    2  501    0  0.30323805333E-04  0.71624134989E-04 -0.89054026316E+03  0.11094597334E+04  0.66169399245E+03 0.  0.
         13    1    3    3    0    0  0.22429843048E+03 -0.23400052762E+03 -0.55640979671E+03  0.64393935639E+03  0.00000000000E+00 0.  1.
          1    1    3    3  501    0 -0.22429840016E+03  0.23400059925E+03 -0.33413046645E+03  0.46552037697E+03  0.00000000000E+00 0.  1.
         21    1    1    2  502  501 -0.30323805347E-04 -0.71624134967E-04  0.86673454941E-03  0.87021740331E-03  0.00000000000E+00 0.  1.
<mgrwt>
<rscale>  1 0.66169399E+03</rscale>
<asrwt>0</asrwt>
<pdfrwt beam="1">  1        1 0.39803940E+00 0.66169399E+03</pdfrwt>
<pdfrwt beam="2">0</pdfrwt>
<totfact> 0.13620523E+00</totfact>
</mgrwt>
</event>
<event>
 6    1  0.5641757E-003  0.6537486E+03  0.7818608E-02  0.9799771E-01
          1   -1    0    0  502    0  0.00000000000E+00  0.00000000000E+00  0.10684681157E+03  0.10684681157E+03  0.00000000000E+00 0.  1.
         13   -1    0    0    0    0 -0.00000000000E+00 -0.00000000000E+00 -0.10000000000E+04  0.10000000000E+04  0.00000000000E+00 0.  1.
    9000005    2    1    2  501    0 -0.79966235589E-05  0.91502332111E-05 -0.89315318998E+03  0.11068467993E+04  0.65374858806E+03 0.  0.
         13    1    3    3    0    0  0.50334851301E+02  0.29293961428E+03 -0.67685744719E+03  0.73924503291E+03  0.00000000000E+00 0.  1.
          1    1    3    3  501    0 -0.50334859298E+02 -0.29293960513E+03 -0.21629574280E+03  0.36760176641E+03  0.00000000000E+00 0.  1.
         21    1    1    2  502  501  0.79966235635E-05 -0.91502331971E-05  0.15557731583E-05  0.12251252430E-04  0.00000000000E+00 0. -1.
<mgrwt>
<rscale>  1 0.65374859E+03</rscale>
<asrwt>0</asrwt>
<pdfrwt beam="1">  1        1 0.38853468E+00 0.65374859E+03</pdfrwt>
<pdfrwt beam="2">0</pdfrwt>
<totfact> 0.15033575E+00</totfact>
</mgrwt>
</event>
<event>
 6    1  0.5285482E-003  0.6466649E+03  0.7818608E-02  0.9813057E-01
          1   -1    0    0  502    0  0.00000000000E+00  0.00000000000E+00  0.10468810434E+03  0.10468810434E+03  0.00000000000E+00 0.  1.
         13   -1    0    0    0    0 -0.00000000000E+00 -0.00000000000E+00 -0.10000000000E+04  0.10000000000E+04  0.00000000000E+00 0.  1.
    9000005    2    1    2  501    0  0.23119213224E-01 -0.20838001243E-02 -0.89545509648E+03  0.11045430343E+04  0.64666489333E+03 0.  0.
         13    1    3    3    0    0 -0.17186054021E+03  0.20825932385E+02 -0.91414810158E+03  0.93039589228E+03  0.00000000000E+00 0.  1.
          1    1    3    3  501    0  0.17188365942E+03 -0.20828016185E+02  0.18693005098E+02  0.17414714202E+03  0.00000000000E+00 0.  1.
         21    1    1    2  502  501 -0.23119213224E-01  0.20838001243E-02  0.14320082877E+00  0.14507004378E+00  0.00000000000E+00 0. -1.
<mgrwt>
<rscale>  1 0.64666489E+03</rscale>
<asrwt>0</asrwt>
<pdfrwt beam="1">  1        1 0.38068482E+00 0.64666489E+03</pdfrwt>
<pdfrwt beam="2">0</pdfrwt>
<totfact> 0.16305924E+00</totfact>
</mgrwt>
</event>
<event>
 6    1  0.5285482E-003  0.6483974E+03  0.7818608E-02  0.9809791E-01
          1   -1    0    0  502    0  0.00000000000E+00  0.00000000000E+00  0.10511228097E+03  0.10511228097E+03  0.00000000000E+00 0.  1.
         13   -1    0    0    0    0 -0.00000000000E+00 -0.00000000000E+00 -0.10000000000E+04  0.10000000000E+04  0.00000000000E+00 0.  1.
    9000005    2    1    2  501    0  0.16467580997E-03 -0.25419009546E-04 -0.89489519397E+03  0.11051048042E+04  0.64839742444E+03 0.  0.
         13    1    3    3    0    0  0.24091545141E+03 -0.21650800655E+03 -0.47087128574E+03  0.57152055025E+03  0.00000000000E+00 0.  1.
          3    1    3    3  501    0 -0.24091528674E+03  0.21650798113E+03 -0.42402390823E+03  0.53358425392E+03  0.00000000000E+00 0.  1.
         21    1    1    2  502  501 -0.16467580998E-03  0.25419009542E-04  0.74749351995E-02  0.74767921253E-02  0.00000000000E+00 0. -1.
<mgrwt>
<rscale>  1 0.64839742E+03</rscale>
<asrwt>0</asrwt>
<pdfrwt beam="1">  1        1 0.38222728E+00 0.64839742E+03</pdfrwt>
<pdfrwt beam="2">0</pdfrwt>
<totfact> 0.16047092E+00</totfact>
</mgrwt>
</event>
<event>
 6    1  0.5285482E-003  0.6354182E+03  0.7818608E-02  0.9834532E-01
          1   -1    0    0  502    0  0.00000000000E+00  0.00000000000E+00  0.10094189765E+03  0.10094189765E+03  0.00000000000E+00 0.  1.
         13   -1    0    0    0    0 -0.00000000000E+00 -0.00000000000E+00 -0.10000000000E+04  0.10000000000E+04  0.00000000000E+00 0.  1.
    9000005    2    1    2  501    0  0.30171673214E-03 -0.21347309649E-03 -0.89906091880E+03  0.11009390571E+04  0.63541818641E+03 0.  0.
         13    1    3    3    0    0 -0.18624617675E+03  0.15412173153E+03 -0.80671017449E+03  0.84215346114E+03  0.00000000000E+00 0.  1.
          1    1    3    3  501    0  0.18624647847E+03 -0.15412194501E+03 -0.92350744312E+02  0.25878559591E+03  0.00000000000E+00 0.  1.
         21    1    1    2  502  501 -0.30171673216E-03  0.21347309649E-03  0.28164536150E-02  0.28406011186E-02  0.00000000000E+00 0. -1.
<mgrwt>
<rscale>  1 0.63541819E+03</rscale>
<asrwt>0</asrwt>
<pdfrwt beam="1">  1        1 0.36706222E+00 0.63541819E+03</pdfrwt>
<pdfrwt beam="2">0</pdfrwt>
<totfact> 0.18757407E+00</totfact>
</mgrwt>
</event>
<event>
 6    1  0.5285482E-003  0.6538074E+03  0.7818608E-02  0.9799661E-01
          1   -1    0    0  502    0  0.00000000000E+00  0.00000000000E+00  0.10790966183E+03  0.10790966183E+03  0.00000000000E+00 0.  1.
         13   -1    0    0    0    0 -0.00000000000E+00 -0.00000000000E+00 -0.10000000000E+04  0.10000000000E+04  0.00000000000E+00 0.  1.
    9000005    2    1    2  501    0  0.46875522064E+00  0.12881370844E+00 -0.89307094879E+03  0.11068151658E+04  0.65380720041E+03 0.  0.
         13    1    3    3    0    0 -0.18951896815E+03 -0.86710018342E+02 -0.87234583580E+03  0.89689649560E+03  0.00000000000E+00 0.  1.
          1    1    3    3  501    0  0.18998772337E+03  0.86838832050E+02 -0.20725112983E+02  0.20991867018E+03  0.00000000000E+00 0.  1.
         21    1    1    2  502  501 -0.46875522064E+00 -0.12881370844E+00  0.98061061855E+00  0.10944960546E+01  0.00000000000E+00 0.  1.
<mgrwt>
<rscale>  1 0.65380738E+03</rscale>
<asrwt>0</asrwt>
<pdfrwt beam="1">  1        1 0.39239960E+00 0.65380738E+03</pdfrwt>
<pdfrwt beam="2">0</pdfrwt>
<totfact> 0.14451535E+00</totfact>
</mgrwt>
</event>
<event>
 6    1  0.5285482E-003  0.5864809E+03  0.7818608E-02  0.9933858E-01
          1   -1    0    0  502    0  0.00000000000E+00  0.00000000000E+00  0.86005273670E+02  0.86005273670E+02  0.00000000000E+00 0.  1.
         13   -1    0    0    0    0 -0.00000000000E+00 -0.00000000000E+00 -0.10000000000E+04  0.10000000000E+04  0.00000000000E+00 0.  1.
    9000005    2    1    2  501    0 -0.15342591698E-01  0.60758501039E-02 -0.91400510239E+03  0.10859857808E+04  0.58648085096E+03 0.  0.
         13    1    3    3    0    0 -0.20731753177E+03 -0.19945295128E+03 -0.56224353565E+03  0.63156934072E+03  0.00000000000E+00 0.  1.
          1    1    3    3  501    0  0.20730218918E+03  0.19945902713E+03 -0.35176156673E+03  0.45441644004E+03  0.00000000000E+00 0.  1.
         21    1    1    2  502  501  0.15342591699E-01 -0.60758501039E-02  0.10376056954E-01  0.19492912364E-01  0.00000000000E+00 0.  1.
<mgrwt>
<rscale>  1 0.58648085E+03</rscale>
<asrwt>0</asrwt>
<pdfrwt beam="1">  1        1 0.31274711E+00 0.58648085E+03</pdfrwt>
<pdfrwt beam="2">0</pdfrwt>
<totfact> 0.32586211E+00</totfact>
</mgrwt>
</event>
