<event>
 6    1  0.9678510E-012  0.3000000E+03  0.7818608E-02  0.1093470E+00
          1   -1    0    0  502    0  0.00000000000E+00  0.00000000000E+00  0.25526301449E+03  0.25526301449E+03  0.00000000000E+00 0.  1.
         13   -1    0    0    0    0 -0.00000000000E+00 -0.00000000000E+00 -0.27500000000E+03  0.27500000000E+03  0.00000000000E+00 0.  1.
    9000005    2    1    2  501    0 -0.43331950757E+02 -0.16531476897E+00 -0.46813827876E+02  0.47916662834E+03  0.47490150342E+03 0.  0.
         13    1    3    3    0    0 -0.21442148630E+02 -0.48515744497E+02 -0.25698267474E+03  0.26239976813E+03  0.00000000000E+00 0.  1.
          3    1    3    3  501    0 -0.21889802127E+02  0.48350429728E+02  0.21016884686E+03  0.21676686020E+03  0.00000000000E+00 0.  1.
         21    1    1    2  502  501  0.43331950757E+02  0.16531476897E+00  0.27076842371E+02  0.51096386156E+02  0.00000000000E+00 0. -1.
<scales pt_clust_4="550.00000" pt_clust_5="550.00000" pt_clust_6="43.33227"></scales>
<mgrwt>
<rscale>  0 0.30000000E+03</rscale>
<asrwt>  1 0.43332266E+02</asrwt>
<pdfrwt beam="1">  1        1 0.92822914E+00 0.30000000E+03</pdfrwt>
<pdfrwt beam="2">0</pdfrwt>
<totfact> 0.27125015E-05</totfact>
</mgrwt>
<clustering>
<clus scale="   43.332">  1  6  2 -1</clus>
<clus scale="  474.902">  4  5 -1 -1</clus>
<clus scale="  300.000">  1  4  2 -1</clus>
</clustering>
</event>
<event>
 6    1  0.9678510E-012  0.3000000E+03  0.7818608E-02  0.1093470E+00
          1   -1    0    0  502    0  0.00000000000E+00  0.00000000000E+00  0.23132494286E+03  0.23132494286E+03  0.00000000000E+00 0.  1.
         13   -1    0    0    0    0 -0.00000000000E+00 -0.00000000000E+00 -0.27500000000E+03  0.27500000000E+03  0.00000000000E+00 0.  1.
    9000005    2    1    2  501    0  0.24776199236E+02 -0.24948026578E+02 -0.56433380663E+02  0.46892121446E+03  0.46418327721E+03 0.  0.
         13    1    3    3    0    0 -0.30234991355E+02 -0.55902825603E+02  0.19738858917E+03  0.20736811652E+03  0.00000000000E+00 0.  1.
          1    1    3    3  501    0  0.55011190591E+02  0.30954799026E+02 -0.25382196984E+03  0.26155309794E+03  0.00000000000E+00 0.  1.
         21    1    1    2  502  501 -0.24776199236E+02  0.24948026578E+02  0.12758323518E+02  0.37403728393E+02  0.00000000000E+00 0. -1.
<scales pt_clust_4="550.00000" pt_clust_5="550.00000" pt_clust_6="35.16055"></scales>
<mgrwt>
<rscale>  0 0.30000000E+03</rscale>
<asrwt>  1 0.35160547E+02</asrwt>
<pdfrwt beam="1">  1        1 0.84118161E+00 0.30000000E+03</pdfrwt>
<pdfrwt beam="2">0</pdfrwt>
<totfact> 0.48615368E-04</totfact>
</mgrwt>
<clustering>
<clus scale="   35.161">  1  6  2 -1</clus>
<clus scale="  464.183">  4  5 -1 -1</clus>
<clus scale="  300.000">  1  4  2 -1</clus>
</clustering>
</event>
<event>
 6    1  0.9678510E-012  0.3000000E+03  0.7818608E-02  0.1093470E+00
          1   -1    0    0  502    0  0.00000000000E+00  0.00000000000E+00  0.25859107680E+03  0.25859107680E+03  0.00000000000E+00 0.  1.
         13   -1    0    0    0    0 -0.00000000000E+00 -0.00000000000E+00 -0.27500000000E+03  0.27500000000E+03  0.00000000000E+00 0.  1.
    9000005    2    1    2  501    0  0.28565525667E+02 -0.15475084261E+02 -0.42115611256E+02  0.49216280988E+03  0.48928012347E+03 0.  0.
         13    1    3    3    0    0  0.12016874422E+03  0.20765550452E+03 -0.68540035870E+02  0.24951767905E+03  0.00000000000E+00 0.  1.
          3    1    3    3  501    0 -0.91603218551E+02 -0.22313058878E+03  0.26424424614E+02  0.24264513082E+03  0.00000000000E+00 0.  1.
         21    1    1    2  502  501 -0.28565525667E+02  0.15475084261E+02  0.25706688058E+02  0.41428266926E+02  0.00000000000E+00 0. -1.
<scales pt_clust_4="550.00000" pt_clust_5="550.00000" pt_clust_6="32.48796"></scales>
<mgrwt>
<rscale>  0 0.30000000E+03</rscale>
<asrwt>  1 0.32487959E+02</asrwt>
<pdfrwt beam="1">  1        1 0.94033119E+00 0.30000000E+03</pdfrwt>
<pdfrwt beam="2">0</pdfrwt>
<totfact> 0.19178576E-05</totfact>
</mgrwt>
<clustering>
<clus scale="   32.488">  1  6  2 -1</clus>
<clus scale="  489.280">  4  5 -1 -1</clus>
<clus scale="  300.000">  1  4  2 -1</clus>
</clustering>
</event>
<event>
 6    1  0.9678510E-012  0.3000000E+03  0.7818608E-02  0.1093470E+00
          1   -1    0    0  502    0  0.00000000000E+00  0.00000000000E+00  0.23740408625E+03  0.23740408625E+03  0.00000000000E+00 0.  1.
         13   -1    0    0    0    0 -0.00000000000E+00 -0.00000000000E+00 -0.27500000000E+03  0.27500000000E+03  0.00000000000E+00 0.  1.
    9000005    2    1    2  501    0  0.10885221650E+02 -0.34932434704E+02 -0.39455072861E+02  0.47576777206E+03  0.47271503796E+03 0.  0.
         13    1    3    3    0    0 -0.14201591809E+03  0.13922366639E+03 -0.11778190603E+03  0.23113703222E+03  0.00000000000E+00 0.  1.
          3    1    3    3  501    0  0.15290113974E+03 -0.17415610109E+03  0.78326833165E+02  0.24463073984E+03  0.00000000000E+00 0.  1.
         21    1    1    2  502  501 -0.10885221650E+02  0.34932434704E+02  0.18591591068E+01  0.36636314189E+02  0.00000000000E+00 0. -1.
<scales pt_clust_4="550.00000" pt_clust_5="550.00000" pt_clust_6="36.58911"></scales>
<mgrwt>
<rscale>  0 0.30000000E+03</rscale>
<asrwt>  1 0.36589111E+02</asrwt>
<pdfrwt beam="1">  1        1 0.86328759E+00 0.30000000E+03</pdfrwt>
<pdfrwt beam="2">0</pdfrwt>
<totfact> 0.29567557E-04</totfact>
</mgrwt>
<clustering>
<clus scale="   36.589">  1  6  2 -1</clus>
<clus scale="  472.715">  4  5 -1 -1</clus>
<clus scale="  300.000">  1  4  2 -1</clus>
</clustering>
</event>
<event>
 6    1  0.9678510E-012  0.3000000E+03  0.7818608E-02  0.1093470E+00
          1   -1    0    0  502    0  0.00000000000E+00  0.00000000000E+00  0.22506556221E+03  0.22506556221E+03  0.00000000000E+00 0.  1.
         13   -1    0    0    0    0 -0.00000000000E+00 -0.00000000000E+00 -0.27500000000E+03  0.27500000000E+03  0.00000000000E+00 0.  1.
    9000005    2    1    2  501    0 -0.13315586242E+02  0.28890073551E+02 -0.32029917382E+02  0.46356195912E+03  0.46135868167E+03 0.  0.
         13    1    3    3    0    0 -0.15649411619E+03 -0.13304510030E+02  0.15742243318E+03  0.22237185266E+03  0.00000000000E+00 0.  1.
          1    1    3    3  501    0  0.14317852995E+03  0.42194583581E+02 -0.18945235056E+03  0.24119010646E+03  0.00000000000E+00 0.  1.
         21    1    1    2  502  501  0.13315586242E+02 -0.28890073551E+02 -0.17904520413E+02  0.36503603082E+02  0.00000000000E+00 0.  1.
<scales pt_clust_4="550.00000" pt_clust_5="550.00000" pt_clust_6="31.81104"></scales>
<mgrwt>
<rscale>  0 0.30000000E+03</rscale>
<asrwt>  1 0.31811039E+02</asrwt>
<pdfrwt beam="1">  1        1 0.81842023E+00 0.30000000E+03</pdfrwt>
<pdfrwt beam="2">0</pdfrwt>
<totfact> 0.75970691E-04</totfact>
</mgrwt>
<clustering>
<clus scale="   31.811">  1  6  2 -1</clus>
<clus scale="  461.359">  4  5 -1 -1</clus>
<clus scale="  300.000">  1  4  2 -1</clus>
</clustering>
</event>
<event>
 6    1  0.9678510E-012  0.3000000E+03  0.7818608E-02  0.1093470E+00
          1   -1    0    0  502    0  0.00000000000E+00  0.00000000000E+00  0.26542763735E+03  0.26542763735E+03  0.00000000000E+00 0.  1.
         13   -1    0    0    0    0 -0.00000000000E+00 -0.00000000000E+00 -0.27500000000E+03  0.27500000000E+03  0.00000000000E+00 0.  1.
    9000005    2    1    2  501    0  0.31215829059E+02 -0.41319271492E+01 -0.20184827124E+02  0.50719925779E+03  0.50581830636E+03 0.  0.
         13    1    3    3    0    0  0.19671952402E+03 -0.17030366876E+03 -0.65540495333E+02  0.26832343776E+03  0.00000000000E+00 0.  1.
          1    1    3    3  501    0 -0.16550369496E+03  0.16617174161E+03  0.45355668208E+02  0.23887582003E+03  0.00000000000E+00 0.  1.
         21    1    1    2  502  501 -0.31215829059E+02  0.41319271492E+01  0.10612464475E+02  0.33228379558E+02  0.00000000000E+00 0. -1.
<scales pt_clust_4="550.00000" pt_clust_5="550.00000" pt_clust_6="31.48811"></scales>
<mgrwt>
<rscale>  0 0.30000000E+03</rscale>
<asrwt>  1 0.31488106E+02</asrwt>
<pdfrwt beam="1">  1        1 0.96519141E+00 0.30000000E+03</pdfrwt>
<pdfrwt beam="2">0</pdfrwt>
<totfact> 0.60250986E-06</totfact>
</mgrwt>
<clustering>
<clus scale="   31.488">  1  6  2 -1</clus>
<clus scale="  505.818">  4  5 -1 -1</clus>
<clus scale="  300.000">  1  4  2 -1</clus>
</clustering>
</event>
<event>
 6    1  0.9678510E-012  0.3000000E+03  0.7818608E-02  0.1093470E+00
          1   -1    0    0  502    0  0.00000000000E+00  0.00000000000E+00  0.23294099135E+03  0.23294099135E+03  0.00000000000E+00 0.  1.
         13   -1    0    0    0    0 -0.00000000000E+00 -0.00000000000E+00 -0.27500000000E+03  0.27500000000E+03  0.00000000000E+00 0.  1.
    9000005    2    1    2  501    0  0.20689812759E+02 -0.22798334438E+02 -0.78316195947E+01  0.46190463000E+03  0.46081093796E+03 0.  0.
         13    1    3    3    0    0 -0.53007719392E+02  0.13372976615E+03  0.16394055824E+03  0.21810542246E+03  0.00000000000E+00 0.  1.
          3    1    3    3  501    0  0.73697532150E+02 -0.15652810059E+03 -0.17177217784E+03  0.24379920754E+03  0.00000000000E+00 0.  1.
         21    1    1    2  502  501 -0.20689812759E+02  0.22798334438E+02 -0.34227389052E+02  0.46036361351E+02  0.00000000000E+00 0.  1.
<scales pt_clust_4="550.00000" pt_clust_5="550.00000" pt_clust_6="30.78690"></scales>
<mgrwt>
<rscale>  0 0.30000000E+03</rscale>
<asrwt>  1 0.30786902E+02</asrwt>
<pdfrwt beam="1">  1        1 0.84705815E+00 0.30000000E+03</pdfrwt>
<pdfrwt beam="2">0</pdfrwt>
<totfact> 0.44383903E-04</totfact>
</mgrwt>
<clustering>
<clus scale="   30.787">  1  6  2 -1</clus>
<clus scale="  460.811">  4  5 -1 -1</clus>
<clus scale="  300.000">  1  4  2 -1</clus>
</clustering>
</event>
<event>
 6    1  0.9678510E-012  0.3000000E+03  0.7818608E-02  0.1093470E+00
          1   -1    0    0  502    0  0.00000000000E+00  0.00000000000E+00  0.23522605019E+03  0.23522605019E+03  0.00000000000E+00 0.  1.
         13   -1    0    0    0    0 -0.00000000000E+00 -0.00000000000E+00 -0.27500000000E+03  0.27500000000E+03  0.00000000000E+00 0.  1.
    9000005    2    1    2  501    0  0.31972612012E+02 -0.10659699533E+02 -0.60309230042E+02  0.47075992741E+03  0.46566278455E+03 0.  0.
         13    1    3    3    0    0 -0.30805537800E+02  0.14527818773E+03 -0.20213344158E+03  0.25082396456E+03  0.00000000000E+00 0.  1.
          3    1    3    3  501    0  0.62778149812E+02 -0.15593788726E+03  0.14182421154E+03  0.21993596285E+03  0.00000000000E+00 0.  1.
         21    1    1    2  502  501 -0.31972612012E+02  0.10659699533E+02  0.20535280228E+02  0.39466122777E+02  0.00000000000E+00 0.  1.
<scales pt_clust_4="550.00000" pt_clust_5="550.00000" pt_clust_6="33.70278"></scales>
<mgrwt>
<rscale>  0 0.30000000E+03</rscale>
<asrwt>  1 0.33702776E+02</asrwt>
<pdfrwt beam="1">  1        1 0.85536746E+00 0.30000000E+03</pdfrwt>
<pdfrwt beam="2">0</pdfrwt>
<totfact> 0.36385188E-04</totfact>
</mgrwt>
<clustering>
<clus scale="   33.703">  1  6  2 -1</clus>
<clus scale="  465.663">  4  5 -1 -1</clus>
<clus scale="  300.000">  1  4  2 -1</clus>
</clustering>
</event>
<event>
 6    1  0.9678510E-012  0.3000000E+03  0.7818608E-02  0.1093470E+00
          1   -1    0    0  502    0  0.00000000000E+00  0.00000000000E+00  0.23642675649E+03  0.23642675649E+03  0.00000000000E+00 0.  1.
         13   -1    0    0    0    0 -0.00000000000E+00 -0.00000000000E+00 -0.27500000000E+03  0.27500000000E+03  0.00000000000E+00 0.  1.
    9000005    2    1    2  501    0 -0.18863329780E+02  0.25802179978E+02 -0.45129202982E+02  0.47879918676E+03  0.47559482606E+03 0.  0.
         13    1    3    3    0    0  0.14696747775E+03  0.10511868229E+03 -0.17670967544E+03  0.25273639682E+03  0.00000000000E+00 0.  1.
          1    1    3    3  501    0 -0.16583080753E+03 -0.79316502315E+02  0.13158047246E+03  0.22606278994E+03  0.00000000000E+00 0.  1.
         21    1    1    2  502  501  0.18863329780E+02 -0.25802179978E+02  0.65559594702E+01  0.32627569731E+02  0.00000000000E+00 0.  1.
<scales pt_clust_4="550.00000" pt_clust_5="550.00000" pt_clust_6="31.96213"></scales>
<mgrwt>
<rscale>  0 0.30000000E+03</rscale>
<asrwt>  1 0.31962129E+02</asrwt>
<pdfrwt beam="1">  1        1 0.85973366E+00 0.30000000E+03</pdfrwt>
<pdfrwt beam="2">0</pdfrwt>
<totfact> 0.33120796E-04</totfact>
</mgrwt>
<clustering>
<clus scale="   31.962">  1  6  2 -1</clus>
<clus scale="  475.595">  4  5 -1 -1</clus>
<clus scale="  300.000">  1  4  2 -1</clus>
</clustering>
</event>
<event>
 6    1  0.9678510E-012  0.3000000E+03  0.7818608E-02  0.1093470E+00
          1   -1    0    0  502    0  0.00000000000E+00  0.00000000000E+00  0.24015735008E+03  0.24015735008E+03  0.00000000000E+00 0.  1.
         13   -1    0    0    0    0 -0.00000000000E+00 -0.00000000000E+00 -0.27500000000E+03  0.27500000000E+03  0.00000000000E+00 0.  1.
    9000005    2    1    2  501    0  0.11782371877E+02 -0.36097450409E+02 -0.63301199493E+02  0.46770485534E+03  0.46184298158E+03 0.  0.
         13    1    3    3    0    0  0.21131113930E+03  0.64250338444E+02 -0.98098613466E+02  0.24166886755E+03  0.00000000000E+00 0.  1.
          3    1    3    3  501    0 -0.19952876742E+03 -0.10034778885E+03  0.34797413972E+02  0.22603598779E+03  0.00000000000E+00 0.  1.
         21    1    1    2  502  501 -0.11782371877E+02  0.36097450409E+02  0.28458549572E+02  0.47452494738E+02  0.00000000000E+00 0. -1.
<scales pt_clust_4="550.00000" pt_clust_5="550.00000" pt_clust_6="37.97170"></scales>
<mgrwt>
<rscale>  0 0.30000000E+03</rscale>
<asrwt>  1 0.37971703E+02</asrwt>
<pdfrwt beam="1">  1        1 0.87329945E+00 0.30000000E+03</pdfrwt>
<pdfrwt beam="2">0</pdfrwt>
<totfact> 0.23079089E-04</totfact>
</mgrwt>
<clustering>
<clus scale="   37.972">  1  6  2 -1</clus>
<clus scale="  461.843">  4  5 -1 -1</clus>
<clus scale="  300.000">  1  4  2 -1</clus>
</clustering>
</event>
<event>
 6    1  0.9678510E-012  0.3000000E+03  0.7818608E-02  0.1093470E+00
          1   -1    0    0  502    0  0.00000000000E+00  0.00000000000E+00  0.22860755949E+03  0.22860755949E+03  0.00000000000E+00 0.  1.
         13   -1    0    0    0    0 -0.00000000000E+00 -0.00000000000E+00 -0.27500000000E+03  0.27500000000E+03  0.00000000000E+00 0.  1.
    9000005    2    1    2  501    0 -0.53651305173E+01 -0.29676581827E+02 -0.49185341388E+02  0.47332085565E+03  0.46979139035E+03 0.  0.
         13    1    3    3    0    0  0.78069106175E+01  0.22001286418E+03 -0.34656352426E+02  0.22286244865E+03  0.00000000000E+00 0.  1.
          1    1    3    3  501    0 -0.13172041135E+02 -0.24968944600E+03 -0.14528988962E+02  0.25045840699E+03  0.00000000000E+00 0.  1.
         21    1    1    2  502  501  0.53651305173E+01  0.29676581827E+02  0.27929008785E+01  0.30286703844E+02  0.00000000000E+00 0. -1.
<scales pt_clust_4="550.00000" pt_clust_5="550.00000" pt_clust_6="30.15765"></scales>
<mgrwt>
<rscale>  0 0.30000000E+03</rscale>
<asrwt>  1 0.30157655E+02</asrwt>
<pdfrwt beam="1">  1        1 0.83130022E+00 0.30000000E+03</pdfrwt>
<pdfrwt beam="2">0</pdfrwt>
<totfact> 0.59343206E-04</totfact>
</mgrwt>
<clustering>
<clus scale="   30.158">  1  6  2 -1</clus>
<clus scale="  469.791">  4  5 -1 -1</clus>
<clus scale="  300.000">  1  4  2 -1</clus>
</clustering>
</event>
<event>
 6    1  0.9678510E-012  0.3000000E+03  0.7818608E-02  0.1093470E+00
          1   -1    0    0  502    0  0.00000000000E+00  0.00000000000E+00  0.26055637456E+03  0.26055637456E+03  0.00000000000E+00 0.  1.
         13   -1    0    0    0    0 -0.00000000000E+00 -0.00000000000E+00 -0.27500000000E+03  0.27500000000E+03  0.00000000000E+00 0.  1.
    9000005    2    1    2  501    0 -0.40954390653E+02 -0.10016367943E+02 -0.17707339184E+02  0.49326876919E+03  0.49114451952E+03 0.  0.
         13    1    3    3    0    0  0.66445480316E+02 -0.17577997430E+03  0.14500716847E+03  0.23736191802E+03  0.00000000000E+00 0.  1.
          1    1    3    3  501    0 -0.10739987097E+03  0.16576360635E+03 -0.16271450765E+03  0.25590685117E+03  0.00000000000E+00 0.  1.
         21    1    1    2  502  501  0.40954390653E+02  0.10016367943E+02  0.32637137445E+01  0.42287605370E+02  0.00000000000E+00 0. -1.
<scales pt_clust_4="550.00000" pt_clust_5="550.00000" pt_clust_6="42.16147"></scales>
<mgrwt>
<rscale>  0 0.30000000E+03</rscale>
<asrwt>  1 0.42161472E+02</asrwt>
<pdfrwt beam="1">  1        1 0.94747773E+00 0.30000000E+03</pdfrwt>
<pdfrwt beam="2">0</pdfrwt>
<totfact> 0.13422927E-05</totfact>
</mgrwt>
<clustering>
<clus scale="   42.161">  1  6  2 -1</clus>
<clus scale="  491.145">  4  5 -1 -1</clus>
<clus scale="  300.000">  1  4  2 -1</clus>
</clustering>
</event>
<event>
 6    1  0.9678510E-012  0.3000000E+03  0.7818608E-02  0.1093470E+00
          1   -1    0    0  502    0  0.00000000000E+00  0.00000000000E+00  0.22946312395E+03  0.22946312395E+03  0.00000000000E+00 0.  1.
         13   -1    0    0    0    0 -0.00000000000E+00 -0.00000000000E+00 -0.27500000000E+03  0.27500000000E+03  0.00000000000E+00 0.  1.
    9000005    2    1    2  501    0 -0.71953223026E+01  0.35307951827E+02 -0.61115384278E+02  0.46520609854E+03  0.45976428722E+03 0.  0.
         13    1    3    3    0    0  0.89998820535E+02  0.14451711023E+03 -0.20062504939E+03  0.26312619271E+03  0.00000000000E+00 0.  1.
          1    1    3    3  501    0 -0.97194142838E+02 -0.10920915840E+03  0.13950966511E+03  0.20207990583E+03  0.00000000000E+00 0.  1.
         21    1    1    2  502  501  0.71953223026E+01 -0.35307951827E+02  0.15578508224E+02  0.39257025406E+02  0.00000000000E+00 0.  1.
<scales pt_clust_4="550.00000" pt_clust_5="550.00000" pt_clust_6="36.03365"></scales>
<mgrwt>
<rscale>  0 0.30000000E+03</rscale>
<asrwt>  1 0.36033653E+02</asrwt>
<pdfrwt beam="1">  1        1 0.83441136E+00 0.30000000E+03</pdfrwt>
<pdfrwt beam="2">0</pdfrwt>
<totfact> 0.54342864E-04</totfact>
</mgrwt>
<clustering>
<clus scale="   36.034">  1  6  2 -1</clus>
<clus scale="  459.764">  4  5 -1 -1</clus>
<clus scale="  300.000">  1  4  2 -1</clus>
</clustering>
</event>
<event>
 6    1  0.9678510E-012  0.3000000E+03  0.7818608E-02  0.1093470E+00
          1   -1    0    0  502    0  0.00000000000E+00  0.00000000000E+00  0.26089300215E+03  0.26089300215E+03  0.00000000000E+00 0.  1.
         13   -1    0    0    0    0 -0.00000000000E+00 -0.00000000000E+00 -0.27500000000E+03  0.27500000000E+03  0.00000000000E+00 0.  1.
    9000005    2    1    2  501    0  0.73951376608E+01 -0.33574968742E+02 -0.24728747837E+02  0.49990983720E+03  0.49811280627E+03 0.  0.
         13    1    3    3    0    0 -0.14276137502E+03 -0.19609952534E+03 -0.10529195420E+03  0.26442811813E+03  0.00000000000E+00 0.  1.
          1    1    3    3  501    0  0.15015651268E+03  0.16252455660E+03  0.80563206366E+02  0.23548171907E+03  0.00000000000E+00 0.  1.
         21    1    1    2  502  501 -0.73951376608E+01  0.33574968742E+02  0.10621749986E+02  0.35983164950E+02  0.00000000000E+00 0. -1.
<scales pt_clust_4="550.00000" pt_clust_5="550.00000" pt_clust_6="34.37974"></scales>
<mgrwt>
<rscale>  0 0.30000000E+03</rscale>
<asrwt>  1 0.34379741E+02</asrwt>
<pdfrwt beam="1">  1        1 0.94870183E+00 0.30000000E+03</pdfrwt>
<pdfrwt beam="2">0</pdfrwt>
<totfact> 0.13161299E-05</totfact>
</mgrwt>
<clustering>
<clus scale="   34.380">  1  6  2 -1</clus>
<clus scale="  498.113">  4  5 -1 -1</clus>
<clus scale="  300.000">  1  4  2 -1</clus>
</clustering>
</event>
<event>
 6    1  0.9678510E-012  0.3000000E+03  0.7818608E-02  0.1093470E+00
          1   -1    0    0  502    0  0.00000000000E+00  0.00000000000E+00  0.23397287160E+03  0.23397287160E+03  0.00000000000E+00 0.  1.
         13   -1    0    0    0    0 -0.00000000000E+00 -0.00000000000E+00 -0.27500000000E+03  0.27500000000E+03  0.00000000000E+00 0.  1.
    9000005    2    1    2  501    0  0.24047050362E+02 -0.21263524622E+02 -0.72747632677E+02  0.46384429416E+03  0.45697802250E+03 0.  0.
         13    1    3    3    0    0  0.34568623752E+02  0.40884943927E+02  0.18805732491E+03  0.19553037064E+03  0.00000000000E+00 0.  1.
          3    1    3    3  501    0 -0.10521573390E+02 -0.62148468549E+02 -0.26080495759E+03  0.26831392352E+03  0.00000000000E+00 0.  1.
         21    1    1    2  502  501 -0.24047050362E+02  0.21263524622E+02  0.31720504274E+02  0.45128577441E+02  0.00000000000E+00 0.  1.
<scales pt_clust_4="550.00000" pt_clust_5="550.00000" pt_clust_6="32.09981"></scales>
<mgrwt>
<rscale>  0 0.30000000E+03</rscale>
<asrwt>  1 0.32099815E+02</asrwt>
<pdfrwt beam="1">  1        1 0.85081044E+00 0.30000000E+03</pdfrwt>
<pdfrwt beam="2">0</pdfrwt>
<totfact> 0.40646598E-04</totfact>
</mgrwt>
<clustering>
<clus scale="   32.100">  1  6  2 -1</clus>
<clus scale="  456.978">  4  5 -1 -1</clus>
<clus scale="  300.000">  1  4  2 -1</clus>
</clustering>
</event>
<event>
 6    1  0.9678510E-012  0.3000000E+03  0.7818608E-02  0.1093470E+00
          1   -1    0    0  502    0  0.00000000000E+00  0.00000000000E+00  0.22502639092E+03  0.22502639092E+03  0.00000000000E+00 0.  1.
         13   -1    0    0    0    0 -0.00000000000E+00 -0.00000000000E+00 -0.27500000000E+03  0.27500000000E+03  0.00000000000E+00 0.  1.
    9000005    2    1    2  501    0  0.14368536082E+01  0.33356453672E+02 -0.54330763566E+02  0.46635589427E+03  0.46197540053E+03 0.  0.
         13    1    3    3    0    0  0.13924572302E+03 -0.27065105825E+02 -0.20768677933E+03  0.25150683816E+03  0.00000000000E+00 0.  1.
          3    1    3    3  501    0 -0.13780886941E+03  0.60421559498E+02  0.15335601576E+03  0.21484905611E+03  0.00000000000E+00 0.  1.
         21    1    1    2  502  501 -0.14368536082E+01 -0.33356453672E+02  0.43571544884E+01  0.33670496657E+02  0.00000000000E+00 0.  1.
<scales pt_clust_4="550.00000" pt_clust_5="550.00000" pt_clust_6="33.38739"></scales>
<mgrwt>
<rscale>  0 0.30000000E+03</rscale>
<asrwt>  1 0.33387386E+02</asrwt>
<pdfrwt beam="1">  1        1 0.81827779E+00 0.30000000E+03</pdfrwt>
<pdfrwt beam="2">0</pdfrwt>
<totfact> 0.75485567E-04</totfact>
</mgrwt>
<clustering>
<clus scale="   33.387">  1  6  2 -1</clus>
<clus scale="  461.975">  4  5 -1 -1</clus>
<clus scale="  300.000">  1  4  2 -1</clus>
</clustering>
</event>
<event>
 6    1  0.9678510E-012  0.3000000E+03  0.7818608E-02  0.1093470E+00
          1   -1    0    0  502    0  0.00000000000E+00  0.00000000000E+00  0.22135611508E+03  0.22135611508E+03  0.00000000000E+00 0.  1.
         13   -1    0    0    0    0 -0.00000000000E+00 -0.00000000000E+00 -0.27500000000E+03  0.27500000000E+03  0.00000000000E+00 0.  1.
    9000005    2    1    2  501    0 -0.27143745029E+02  0.12983277098E+02 -0.60579260111E+02  0.46547816490E+03  0.46053743264E+03 0.  0.
         13    1    3    3    0    0  0.38034069120E+02 -0.21782743752E+03 -0.40509319482E+02  0.22480299801E+03  0.00000000000E+00 0.  1.
          3    1    3    3  501    0 -0.65177814148E+02  0.23081071462E+03 -0.20069940629E+02  0.24067516689E+03  0.00000000000E+00 0.  1.
         21    1    1    2  502  501  0.27143745029E+02 -0.12983277098E+02  0.69353751933E+01  0.30877950182E+02  0.00000000000E+00 0.  1.
<scales pt_clust_4="550.00000" pt_clust_5="550.00000" pt_clust_6="30.08901"></scales>
<mgrwt>
<rscale>  0 0.30000000E+03</rscale>
<asrwt>  1 0.30089008E+02</asrwt>
<pdfrwt beam="1">  1        1 0.80493133E+00 0.30000000E+03</pdfrwt>
<pdfrwt beam="2">0</pdfrwt>
<totfact> 0.98185126E-04</totfact>
</mgrwt>
<clustering>
<clus scale="   30.089">  1  6  2 -1</clus>
<clus scale="  460.537">  4  5 -1 -1</clus>
<clus scale="  300.000">  1  4  2 -1</clus>
</clustering>
</event>
<event>
 6    1  0.9678510E-012  0.3000000E+03  0.7818608E-02  0.1093470E+00
          1   -1    0    0  502    0  0.00000000000E+00  0.00000000000E+00  0.23823222329E+03  0.23823222329E+03  0.00000000000E+00 0.  1.
         13   -1    0    0    0    0 -0.00000000000E+00 -0.00000000000E+00 -0.27500000000E+03  0.27500000000E+03  0.00000000000E+00 0.  1.
    9000005    2    1    2  501    0  0.37300785597E+02  0.20568727186E+02 -0.55123625339E+02  0.46684948595E+03  0.46162258103E+03 0.  0.
         13    1    3    3    0    0  0.89331799787E+02  0.18510448098E+03 -0.16388116996E+03  0.26287045706E+03  0.00000000000E+00 0.  1.
          3    1    3    3  501    0 -0.52031014191E+02 -0.16453575379E+03  0.10875754462E+03  0.20397902888E+03  0.00000000000E+00 0.  1.
         21    1    1    2  502  501 -0.37300785597E+02 -0.20568727186E+02  0.18355848627E+02  0.46382737338E+02  0.00000000000E+00 0. -1.
<scales pt_clust_4="550.00000" pt_clust_5="550.00000" pt_clust_6="42.59602"></scales>
<mgrwt>
<rscale>  0 0.30000000E+03</rscale>
<asrwt>  1 0.42596023E+02</asrwt>
<pdfrwt beam="1">  1        1 0.86629899E+00 0.30000000E+03</pdfrwt>
<pdfrwt beam="2">0</pdfrwt>
<totfact> 0.26689532E-04</totfact>
</mgrwt>
<clustering>
<clus scale="   42.596">  1  6  2 -1</clus>
<clus scale="  461.623">  4  5 -1 -1</clus>
<clus scale="  300.000">  1  4  2 -1</clus>
</clustering>
</event>
<event>
 6    1  0.9678510E-012  0.3000000E+03  0.7818608E-02  0.1093470E+00
          1   -1    0    0  502    0  0.00000000000E+00  0.00000000000E+00  0.23811134346E+03  0.23811134346E+03  0.00000000000E+00 0.  1.
         13   -1    0    0    0    0 -0.00000000000E+00 -0.00000000000E+00 -0.27500000000E+03  0.27500000000E+03  0.00000000000E+00 0.  1.
    9000005    2    1    2  501    0  0.12024786646E+02 -0.32841636007E+02 -0.72372803871E+02  0.46328872549E+03  0.45626248134E+03 0.  0.
         13    1    3    3    0    0  0.73481315838E+02 -0.11491688358E+03  0.15943229609E+03  0.20981909099E+03  0.00000000000E+00 0.  1.
          1    1    3    3  501    0 -0.61456529192E+02  0.82075247572E+02 -0.23180509996E+03  0.25346963450E+03  0.00000000000E+00 0.  1.
         21    1    1    2  502  501 -0.12024786646E+02  0.32841636007E+02  0.35484147333E+02  0.49822617971E+02  0.00000000000E+00 0. -1.
<scales pt_clust_4="550.00000" pt_clust_5="550.00000" pt_clust_6="34.97383"></scales>
<mgrwt>
<rscale>  0 0.30000000E+03</rscale>
<asrwt>  1 0.34973827E+02</asrwt>
<pdfrwt beam="1">  1        1 0.86585943E+00 0.30000000E+03</pdfrwt>
<pdfrwt beam="2">0</pdfrwt>
<totfact> 0.27974100E-04</totfact>
</mgrwt>
<clustering>
<clus scale="   34.974">  1  6  2 -1</clus>
<clus scale="  456.262">  4  5 -1 -1</clus>
<clus scale="  300.000">  1  4  2 -1</clus>
</clustering>
</event>
<event>
 6    1  0.9678510E-012  0.3000000E+03  0.7818608E-02  0.1093470E+00
          1   -1    0    0  502    0  0.00000000000E+00  0.00000000000E+00  0.23719343537E+03  0.23719343537E+03  0.00000000000E+00 0.  1.
         13   -1    0    0    0    0 -0.00000000000E+00 -0.00000000000E+00 -0.27500000000E+03  0.27500000000E+03  0.00000000000E+00 0.  1.
    9000005    2    1    2  501    0  0.17601897057E+02 -0.39633257479E+02 -0.50758534768E+02  0.46693445385E+03  0.46213713707E+03 0.  0.
         13    1    3    3    0    0 -0.11021038953E+03 -0.20203845153E+03 -0.10545230707E+03  0.25315223666E+03  0.00000000000E+00 0.  1.
          1    1    3    3  501    0  0.12781228659E+03  0.16240519405E+03  0.54693772304E+02  0.21378221719E+03  0.00000000000E+00 0.  1.
         21    1    1    2  502  501 -0.17601897057E+02  0.39633257479E+02  0.12951970141E+02  0.45258981527E+02  0.00000000000E+00 0.  1.
<scales pt_clust_4="550.00000" pt_clust_5="550.00000" pt_clust_6="43.36614"></scales>
<mgrwt>
<rscale>  0 0.30000000E+03</rscale>
<asrwt>  1 0.43366137E+02</asrwt>
<pdfrwt beam="1">  1        1 0.86252158E+00 0.30000000E+03</pdfrwt>
<pdfrwt beam="2">0</pdfrwt>
<totfact> 0.29216453E-04</totfact>
</mgrwt>
<clustering>
<clus scale="   43.366">  1  6  2 -1</clus>
<clus scale="  462.137">  4  5 -1 -1</clus>
<clus scale="  300.000">  1  4  2 -1</clus>
</clustering>
</event>
<event>
 6    1  0.9678510E-012  0.3000000E+03  0.7818608E-02  0.1093470E+00
          1   -1    0    0  502    0  0.00000000000E+00  0.00000000000E+00  0.23276883527E+03  0.23276883527E+03  0.00000000000E+00 0.  1.
         13   -1    0    0    0    0 -0.00000000000E+00 -0.00000000000E+00 -0.27500000000E+03  0.27500000000E+03  0.00000000000E+00 0.  1.
    9000005    2    1    2  501    0 -0.20985579576E+02  0.41248678591E+02 -0.29308728223E+02  0.45971847209E+03  0.45644301287E+03 0.  0.
         13    1    3    3    0    0  0.82727499427E+02 -0.16947889144E+02  0.19129269804E+03  0.20910276524E+03  0.00000000000E+00 0.  1.
          3    1    3    3  501    0 -0.10371307900E+03  0.58196567735E+02 -0.22060142626E+03  0.25061570685E+03  0.00000000000E+00 0.  1.
         21    1    1    2  502  501  0.20985579576E+02 -0.41248678591E+02 -0.12922436510E+02  0.48050363172E+02  0.00000000000E+00 0. -1.
<scales pt_clust_4="550.00000" pt_clust_5="550.00000" pt_clust_6="46.28013"></scales>
<mgrwt>
<rscale>  0 0.30000000E+03</rscale>
<asrwt>  1 0.46280127E+02</asrwt>
<pdfrwt beam="1">  1        1 0.84643213E+00 0.30000000E+03</pdfrwt>
<pdfrwt beam="2">0</pdfrwt>
<totfact> 0.41704768E-04</totfact>
</mgrwt>
<clustering>
<clus scale="   46.280">  1  6  2 -1</clus>
<clus scale="  456.443">  4  5 -1 -1</clus>
<clus scale="  300.000">  1  4  2 -1</clus>
</clustering>
</event>
<event>
 6    1  0.9678510E-012  0.3000000E+03  0.7818608E-02  0.1093470E+00
          1   -1    0    0  502    0  0.00000000000E+00  0.00000000000E+00  0.23548348885E+03  0.23548348885E+03  0.00000000000E+00 0.  1.
         13   -1    0    0    0    0 -0.00000000000E+00 -0.00000000000E+00 -0.27500000000E+03  0.27500000000E+03  0.00000000000E+00 0.  1.
    9000005    2    1    2  501    0  0.31211218390E+02 -0.39560364013E+01 -0.37986405247E+02  0.47898536825E+03  0.47643911010E+03 0.  0.
         13    1    3    3    0    0  0.86374913699E+02  0.13888514985E+03 -0.19846592038E+03  0.25717393359E+03  0.00000000000E+00 0.  1.
          1    1    3    3  501    0 -0.55163695309E+02 -0.14284118625E+03  0.16047951513E+03  0.22181143466E+03  0.00000000000E+00 0.  1.
         21    1    1    2  502  501 -0.31211218390E+02  0.39560364013E+01 -0.15301059016E+01  0.31498120602E+02  0.00000000000E+00 0.  1.
<scales pt_clust_4="550.00000" pt_clust_5="550.00000" pt_clust_6="31.46093"></scales>
<mgrwt>
<rscale>  0 0.30000000E+03</rscale>
<asrwt>  1 0.31460934E+02</asrwt>
<pdfrwt beam="1">  1        1 0.85630360E+00 0.30000000E+03</pdfrwt>
<pdfrwt beam="2">0</pdfrwt>
<totfact> 0.36071121E-04</totfact>
</mgrwt>
<clustering>
<clus scale="   31.461">  1  6  2 -1</clus>
<clus scale="  476.439">  4  5 -1 -1</clus>
<clus scale="  300.000">  1  4  2 -1</clus>
</clustering>
</event>
<event>
 6    1  0.9678510E-012  0.3000000E+03  0.7818608E-02  0.1093470E+00
          1   -1    0    0  502    0  0.00000000000E+00  0.00000000000E+00  0.24837617750E+03  0.24837617750E+03  0.00000000000E+00 0.  1.
         13   -1    0    0    0    0 -0.00000000000E+00 -0.00000000000E+00 -0.27500000000E+03  0.27500000000E+03  0.00000000000E+00 0.  1.
    9000005    2    1    2  501    0  0.38030822309E+02  0.23809343951E+01 -0.34169973504E+01  0.47876038402E+03  0.47722931296E+03 0.  0.
         13    1    3    3    0    0 -0.21212460159E+03  0.35142541326E+02  0.50282778670E+02  0.22081712488E+03  0.00000000000E+00 0.  1.
          3    1    3    3  501    0  0.25015542390E+03 -0.32761606931E+02 -0.53699776020E+02  0.25794325914E+03  0.00000000000E+00 0.  1.
         21    1    1    2  502  501 -0.38030822309E+02 -0.23809343951E+01 -0.23206825150E+02  0.44615793477E+02  0.00000000000E+00 0.  1.
<scales pt_clust_4="550.00000" pt_clust_5="550.00000" pt_clust_6="38.10530"></scales>
<mgrwt>
<rscale>  0 0.30000000E+03</rscale>
<asrwt>  1 0.38105298E+02</asrwt>
<pdfrwt beam="1">  1        1 0.90318610E+00 0.30000000E+03</pdfrwt>
<pdfrwt beam="2">0</pdfrwt>
<totfact> 0.97964646E-05</totfact>
</mgrwt>
<clustering>
<clus scale="   38.105">  1  6  2 -1</clus>
<clus scale="  477.229">  4  5 -1 -1</clus>
<clus scale="  300.000">  1  4  2 -1</clus>
</clustering>
</event>
<event>
 6    1  0.9678510E-012  0.3000000E+03  0.7818608E-02  0.1093470E+00
          1   -1    0    0  502    0  0.00000000000E+00  0.00000000000E+00  0.23030378105E+03  0.23030378105E+03  0.00000000000E+00 0.  1.
         13   -1    0    0    0    0 -0.00000000000E+00 -0.00000000000E+00 -0.27500000000E+03  0.27500000000E+03  0.00000000000E+00 0.  1.
    9000005    2    1    2  501    0  0.21103968051E+02 -0.26969831584E+02 -0.61098473486E+02  0.46733296019E+03  0.46205445884E+03 0.  0.
         13    1    3    3    0    0  0.71062406167E+01 -0.18763781419E+03 -0.18527444861E+03  0.26378982027E+03  0.00000000000E+00 0.  1.
          1    1    3    3  501    0  0.13997727434E+02  0.16066798261E+03  0.12417597512E+03  0.20354313992E+03  0.00000000000E+00 0.  1.
         21    1    1    2  502  501 -0.21103968051E+02  0.26969831584E+02  0.16402254539E+02  0.37970820865E+02  0.00000000000E+00 0. -1.
<scales pt_clust_4="550.00000" pt_clust_5="550.00000" pt_clust_6="34.24543"></scales>
<mgrwt>
<rscale>  0 0.30000000E+03</rscale>
<asrwt>  1 0.34245427E+02</asrwt>
<pdfrwt beam="1">  1        1 0.83746829E+00 0.30000000E+03</pdfrwt>
<pdfrwt beam="2">0</pdfrwt>
<totfact> 0.52122386E-04</totfact>
</mgrwt>
<clustering>
<clus scale="   34.245">  1  6  2 -1</clus>
<clus scale="  462.054">  4  5 -1 -1</clus>
<clus scale="  300.000">  1  4  2 -1</clus>
</clustering>
</event>
<event>
 6    1  0.9678510E-012  0.3000000E+03  0.7818608E-02  0.1093470E+00
          1   -1    0    0  502    0  0.00000000000E+00  0.00000000000E+00  0.23131103034E+03  0.23131103034E+03  0.00000000000E+00 0.  1.
         13   -1    0    0    0    0 -0.00000000000E+00 -0.00000000000E+00 -0.27500000000E+03  0.27500000000E+03  0.00000000000E+00 0.  1.
    9000005    2    1    2  501    0 -0.29596442614E+02 -0.17160783097E+02 -0.19305848869E+02  0.46429938349E+03  0.46263458563E+03 0.  0.
         13    1    3    3    0    0  0.13177874559E+03  0.16983938504E+03 -0.30072062995E+02  0.21706078290E+03  0.00000000000E+00 0.  1.
          1    1    3    3  501    0 -0.16137518821E+03 -0.18700016814E+03  0.10766214127E+02  0.24723860059E+03  0.00000000000E+00 0.  1.
         21    1    1    2  502  501  0.29596442614E+02  0.17160783097E+02 -0.24383120789E+02  0.42011646853E+02  0.00000000000E+00 0. -1.
<scales pt_clust_4="550.00000" pt_clust_5="550.00000" pt_clust_6="34.21174"></scales>
<mgrwt>
<rscale>  0 0.30000000E+03</rscale>
<asrwt>  1 0.34211739E+02</asrwt>
<pdfrwt beam="1">  1        1 0.84113102E+00 0.30000000E+03</pdfrwt>
<pdfrwt beam="2">0</pdfrwt>
<totfact> 0.48910651E-04</totfact>
</mgrwt>
<clustering>
<clus scale="   34.212">  1  6  2 -1</clus>
<clus scale="  462.635">  4  5 -1 -1</clus>
<clus scale="  300.000">  1  4  2 -1</clus>
</clustering>
</event>
<event>
 6    1  0.9678510E-012  0.3000000E+03  0.7818608E-02  0.1093470E+00
          1   -1    0    0  502    0  0.00000000000E+00  0.00000000000E+00  0.26703450286E+03  0.26703450286E+03  0.00000000000E+00 0.  1.
         13   -1    0    0    0    0 -0.00000000000E+00 -0.00000000000E+00 -0.27500000000E+03  0.27500000000E+03  0.00000000000E+00 0.  1.
    9000005    2    1    2  501    0  0.39871607353E+02 -0.43264485608E+01  0.21937520681E+02  0.49200797286E+03  0.48987970698E+03 0.  0.
         13    1    3    3    0    0  0.22585932329E+03 -0.11950333190E+03  0.76143516085E+02  0.26662954693E+03  0.00000000000E+00 0.  1.
          1    1    3    3  501    0 -0.18598771594E+03  0.11517688334E+03 -0.54205995404E+02  0.22537842593E+03  0.00000000000E+00 0.  1.
         21    1    1    2  502  501 -0.39871607353E+02  0.43264485608E+01 -0.29903017817E+02  0.50026530008E+02  0.00000000000E+00 0.  1.
<scales pt_clust_4="550.00000" pt_clust_5="550.00000" pt_clust_6="40.10567"></scales>
<mgrwt>
<rscale>  0 0.30000000E+03</rscale>
<asrwt>  1 0.40105671E+02</asrwt>
<pdfrwt beam="1">  1        1 0.97103456E+00 0.30000000E+03</pdfrwt>
<pdfrwt beam="2">0</pdfrwt>
<totfact> 0.46643871E-06</totfact>
</mgrwt>
<clustering>
<clus scale="   40.106">  1  6  2 -1</clus>
<clus scale="  489.880">  4  5 -1 -1</clus>
<clus scale="  300.000">  1  4  2 -1</clus>
</clustering>
</event>
<event>
 6    1  0.9678510E-012  0.3000000E+03  0.7818608E-02  0.1093470E+00
          1   -1    0    0  502    0  0.00000000000E+00  0.00000000000E+00  0.24381214327E+03  0.24381214327E+03  0.00000000000E+00 0.  1.
         13   -1    0    0    0    0 -0.00000000000E+00 -0.00000000000E+00 -0.27500000000E+03  0.27500000000E+03  0.00000000000E+00 0.  1.
    9000005    2    1    2  501    0 -0.40379272013E+02  0.94033451374E+00 -0.55078170308E+02  0.47188542465E+03  0.46691635152E+03 0.  0.
         13    1    3    3    0    0  0.22974466681E+02  0.16700744620E+02  0.20335742988E+03  0.20533140353E+03  0.00000000000E+00 0.  1.
          3    1    3    3  501    0 -0.63353738694E+02 -0.15760410107E+02 -0.25843560018E+03  0.26655402112E+03  0.00000000000E+00 0.  1.
         21    1    1    2  502  501  0.40379272013E+02 -0.94033451374E+00  0.23890313574E+02  0.46926718615E+02  0.00000000000E+00 0. -1.
<scales pt_clust_4="550.00000" pt_clust_5="550.00000" pt_clust_6="40.39022"></scales>
<mgrwt>
<rscale>  0 0.30000000E+03</rscale>
<asrwt>  1 0.40390220E+02</asrwt>
<pdfrwt beam="1">  1        1 0.88658961E+00 0.30000000E+03</pdfrwt>
<pdfrwt beam="2">0</pdfrwt>
<totfact> 0.15715391E-04</totfact>
</mgrwt>
<clustering>
<clus scale="   40.390">  1  6  2 -1</clus>
<clus scale="  466.916">  4  5 -1 -1</clus>
<clus scale="  300.000">  1  4  2 -1</clus>
</clustering>
</event>
<event>
 6    1  0.9678510E-012  0.3000000E+03  0.7818608E-02  0.1093470E+00
          1   -1    0    0  502    0  0.00000000000E+00  0.00000000000E+00  0.22194269457E+03  0.22194269457E+03  0.00000000000E+00 0.  1.
         13   -1    0    0    0    0 -0.00000000000E+00 -0.00000000000E+00 -0.27500000000E+03  0.27500000000E+03  0.00000000000E+00 0.  1.
    9000005    2    1    2  501    0  0.28750489521E+02 -0.12508617785E+02 -0.52050144136E+02  0.46557279593E+03  0.46159046203E+03 0.  0.
         13    1    3    3    0    0 -0.46549319773E+02 -0.10032696566E+03 -0.22891664798E+03  0.25423448022E+03  0.00000000000E+00 0.  1.
          3    1    3    3  501    0  0.75299809294E+02  0.87818347871E+02  0.17686650385E+03  0.21133831571E+03  0.00000000000E+00 0.  1.
         21    1    1    2  502  501 -0.28750489521E+02  0.12508617785E+02 -0.10071612988E+01  0.31369898637E+02  0.00000000000E+00 0.  1.
<scales pt_clust_4="550.00000" pt_clust_5="550.00000" pt_clust_6="31.35373"></scales>
<mgrwt>
<rscale>  0 0.30000000E+03</rscale>
<asrwt>  1 0.31353727E+02</asrwt>
<pdfrwt beam="1">  1        1 0.80706434E+00 0.30000000E+03</pdfrwt>
<pdfrwt beam="2">0</pdfrwt>
<totfact> 0.93826557E-04</totfact>
</mgrwt>
<clustering>
<clus scale="   31.354">  1  6  2 -1</clus>
<clus scale="  461.590">  4  5 -1 -1</clus>
<clus scale="  300.000">  1  4  2 -1</clus>
</clustering>
</event>
<event>
 6    1  0.9678510E-012  0.3000000E+03  0.7818608E-02  0.1093470E+00
          1   -1    0    0  502    0  0.00000000000E+00  0.00000000000E+00  0.23842202618E+03  0.23842202618E+03  0.00000000000E+00 0.  1.
         13   -1    0    0    0    0 -0.00000000000E+00 -0.00000000000E+00 -0.27500000000E+03  0.27500000000E+03  0.00000000000E+00 0.  1.
    9000005    2    1    2  501    0  0.19347093879E+02 -0.30923219590E+02 -0.31055171155E+02  0.47652952152E+03  0.47411539278E+03 0.  0.
         13    1    3    3    0    0 -0.18494134513E+03 -0.24097909397E+02 -0.15061625681E+03  0.23972748526E+03  0.00000000000E+00 0.  1.
          3    1    3    3  501    0  0.20428843900E+03 -0.68253101928E+01  0.11956108566E+03  0.23680203625E+03  0.00000000000E+00 0.  1.
         21    1    1    2  502  501 -0.19347093879E+02  0.30923219590E+02 -0.55228026608E+01  0.36892504667E+02  0.00000000000E+00 0. -1.
<scales pt_clust_4="550.00000" pt_clust_5="550.00000" pt_clust_6="36.47680"></scales>
<mgrwt>
<rscale>  0 0.30000000E+03</rscale>
<asrwt>  1 0.36476799E+02</asrwt>
<pdfrwt beam="1">  1        1 0.86698919E+00 0.30000000E+03</pdfrwt>
<pdfrwt beam="2">0</pdfrwt>
<totfact> 0.27000099E-04</totfact>
</mgrwt>
<clustering>
<clus scale="   36.477">  1  6  2 -1</clus>
<clus scale="  474.115">  4  5 -1 -1</clus>
<clus scale="  300.000">  1  4  2 -1</clus>
</clustering>
</event>
<event>
 6    1  0.9678510E-012  0.3000000E+03  0.7818608E-02  0.1093470E+00
          1   -1    0    0  502    0  0.00000000000E+00  0.00000000000E+00  0.25058342721E+03  0.25058342721E+03  0.00000000000E+00 0.  1.
         13   -1    0    0    0    0 -0.00000000000E+00 -0.00000000000E+00 -0.27500000000E+03  0.27500000000E+03  0.00000000000E+00 0.  1.
    9000005    2    1    2  501    0  0.13401328066E+02  0.27897443108E+02 -0.13121577418E+02  0.49263741309E+03  0.49148914744E+03 0.  0.
         13    1    3    3    0    0  0.16642525968E+03 -0.14323402329E+03 -0.10743460987E+03  0.24444947920E+03  0.00000000000E+00 0.  1.
          3    1    3    3  501    0 -0.15302393161E+03  0.17113146640E+03  0.94313032452E+02  0.24818793389E+03  0.00000000000E+00 0.  1.
         21    1    1    2  502  501 -0.13401328066E+02 -0.27897443108E+02 -0.11294995373E+02  0.32946014120E+02  0.00000000000E+00 0.  1.
<scales pt_clust_4="550.00000" pt_clust_5="550.00000" pt_clust_6="30.94938"></scales>
<mgrwt>
<rscale>  0 0.30000000E+03</rscale>
<asrwt>  1 0.30949376E+02</asrwt>
<pdfrwt beam="1">  1        1 0.91121246E+00 0.30000000E+03</pdfrwt>
<pdfrwt beam="2">0</pdfrwt>
<totfact> 0.68660351E-05</totfact>
</mgrwt>
<clustering>
<clus scale="   30.949">  1  6  2 -1</clus>
<clus scale="  491.489">  4  5 -1 -1</clus>
<clus scale="  300.000">  1  4  2 -1</clus>
</clustering>
</event>
<event>
 6    1  0.9678510E-012  0.3000000E+03  0.7818608E-02  0.1093470E+00
          1   -1    0    0  502    0  0.00000000000E+00  0.00000000000E+00  0.25032111433E+03  0.25032111433E+03  0.00000000000E+00 0.  1.
         13   -1    0    0    0    0 -0.00000000000E+00 -0.00000000000E+00 -0.27500000000E+03  0.27500000000E+03  0.00000000000E+00 0.  1.
    9000005    2    1    2  501    0  0.11287824498E+02  0.33944927844E+02 -0.30577871293E+02  0.48906547836E+03  0.48679601765E+03 0.  0.
         13    1    3    3    0    0 -0.66741047587E+02 -0.20885750460E+03 -0.71809571005E+02  0.23072156195E+03  0.00000000000E+00 0.  1.
          3    1    3    3  501    0  0.78028872085E+02  0.24280243245E+03  0.41231699712E+02  0.25834391640E+03  0.00000000000E+00 0.  1.
         21    1    1    2  502  501 -0.11287824498E+02 -0.33944927844E+02  0.58989856220E+01  0.36255635971E+02  0.00000000000E+00 0. -1.
<scales pt_clust_4="550.00000" pt_clust_5="550.00000" pt_clust_6="35.77252"></scales>
<mgrwt>
<rscale>  0 0.30000000E+03</rscale>
<asrwt>  1 0.35772519E+02</asrwt>
<pdfrwt beam="1">  1        1 0.91025860E+00 0.30000000E+03</pdfrwt>
<pdfrwt beam="2">0</pdfrwt>
<totfact> 0.70534291E-05</totfact>
</mgrwt>
<clustering>
<clus scale="   35.773">  1  6  2 -1</clus>
<clus scale="  486.796">  4  5 -1 -1</clus>
<clus scale="  300.000">  1  4  2 -1</clus>
</clustering>
</event>
<event>
 6    1  0.9678510E-012  0.3000000E+03  0.7818608E-02  0.1093470E+00
          1   -1    0    0  502    0  0.00000000000E+00  0.00000000000E+00  0.24410153746E+03  0.24410153746E+03  0.00000000000E+00 0.  1.
         13   -1    0    0    0    0 -0.00000000000E+00 -0.00000000000E+00 -0.27500000000E+03  0.27500000000E+03  0.00000000000E+00 0.  1.
    9000005    2    1    2  501    0 -0.47841324548E+02 -0.59438905332E+01 -0.57860068593E+02  0.46386522359E+03  0.45771064653E+03 0.  0.
         13    1    3    3    0    0 -0.11133431820E+03 -0.34477075507E+02  0.18088336072E+03  0.21518082937E+03  0.00000000000E+00 0.  1.
          3    1    3    3  501    0  0.63492993647E+02  0.28533184974E+02 -0.23874342931E+03  0.24868439422E+03  0.00000000000E+00 0.  1.
         21    1    1    2  502  501  0.47841324548E+02  0.59438905332E+01  0.26961606055E+02  0.55236313873E+02  0.00000000000E+00 0. -1.
<scales pt_clust_4="550.00000" pt_clust_5="550.00000" pt_clust_6="48.20915"></scales>
<mgrwt>
<rscale>  0 0.30000000E+03</rscale>
<asrwt>  1 0.48209150E+02</asrwt>
<pdfrwt beam="1">  1        1 0.88764195E+00 0.30000000E+03</pdfrwt>
<pdfrwt beam="2">0</pdfrwt>
<totfact> 0.14723743E-04</totfact>
</mgrwt>
<clustering>
<clus scale="   48.209">  1  6  2 -1</clus>
<clus scale="  457.711">  4  5 -1 -1</clus>
<clus scale="  300.000">  1  4  2 -1</clus>
</clustering>
</event>
<event>
 6    1  0.9678510E-012  0.3000000E+03  0.7818608E-02  0.1093470E+00
          1   -1    0    0  502    0  0.00000000000E+00  0.00000000000E+00  0.23523948232E+03  0.23523948232E+03  0.00000000000E+00 0.  1.
         13   -1    0    0    0    0 -0.00000000000E+00 -0.00000000000E+00 -0.27500000000E+03  0.27500000000E+03  0.00000000000E+00 0.  1.
    9000005    2    1    2  501    0  0.27203481072E+02 -0.17204556025E+02 -0.39582941242E+02  0.47805163269E+03  0.47532149978E+03 0.  0.
         13    1    3    3    0    0  0.22251025014E+03 -0.10933548955E+03 -0.75447220130E+02  0.25914733978E+03  0.00000000000E+00 0.  1.
          3    1    3    3  501    0 -0.19530676907E+03  0.92130933521E+02  0.35864278888E+02  0.21890429291E+03  0.00000000000E+00 0.  1.
         21    1    1    2  502  501 -0.27203481072E+02  0.17204556025E+02 -0.17757643405E+00  0.32187849630E+02  0.00000000000E+00 0. -1.
<scales pt_clust_4="550.00000" pt_clust_5="550.00000" pt_clust_6="32.18736"></scales>
<mgrwt>
<rscale>  0 0.30000000E+03</rscale>
<asrwt>  1 0.32187360E+02</asrwt>
<pdfrwt beam="1">  1        1 0.85541630E+00 0.30000000E+03</pdfrwt>
<pdfrwt beam="2">0</pdfrwt>
<totfact> 0.36661954E-04</totfact>
</mgrwt>
<clustering>
<clus scale="   32.187">  1  6  2 -1</clus>
<clus scale="  475.321">  4  5 -1 -1</clus>
<clus scale="  300.000">  1  4  2 -1</clus>
</clustering>
</event>
<event>
 6    1  0.9678510E-012  0.3000000E+03  0.7818608E-02  0.1093470E+00
          1   -1    0    0  502    0  0.00000000000E+00  0.00000000000E+00  0.23030811860E+03  0.23030811860E+03  0.00000000000E+00 0.  1.
         13   -1    0    0    0    0 -0.00000000000E+00 -0.00000000000E+00 -0.27500000000E+03  0.27500000000E+03  0.00000000000E+00 0.  1.
    9000005    2    1    2  501    0  0.13444784526E+02  0.31097415474E+02 -0.65591516285E+02  0.46550100594E+03  0.45960975625E+03 0.  0.
         13    1    3    3    0    0 -0.16017143074E+02  0.24286780913E+03 -0.57040107737E+01  0.24346222977E+03  0.00000000000E+00 0.  1.
          3    1    3    3  501    0  0.29461927600E+02 -0.21177039366E+03 -0.59887505511E+02  0.22203877617E+03  0.00000000000E+00 0.  1.
         21    1    1    2  502  501 -0.13444784526E+02 -0.31097415474E+02  0.20899634883E+02  0.39807112660E+02  0.00000000000E+00 0. -1.
<scales pt_clust_4="550.00000" pt_clust_5="550.00000" pt_clust_6="33.87937"></scales>
<mgrwt>
<rscale>  0 0.30000000E+03</rscale>
<asrwt>  1 0.33879367E+02</asrwt>
<pdfrwt beam="1">  1        1 0.83748407E+00 0.30000000E+03</pdfrwt>
<pdfrwt beam="2">0</pdfrwt>
<totfact> 0.52213936E-04</totfact>
</mgrwt>
<clustering>
<clus scale="   33.879">  1  6  2 -1</clus>
<clus scale="  459.610">  4  5 -1 -1</clus>
<clus scale="  300.000">  1  4  2 -1</clus>
</clustering>
</event>
<event>
 6    1  0.9678510E-012  0.3000000E+03  0.7818608E-02  0.1093470E+00
          1   -1    0    0  502    0  0.00000000000E+00  0.00000000000E+00  0.25061682760E+03  0.25061682760E+03  0.00000000000E+00 0.  1.
         13   -1    0    0    0    0 -0.00000000000E+00 -0.00000000000E+00 -0.27500000000E+03  0.27500000000E+03  0.00000000000E+00 0.  1.
    9000005    2    1    2  501    0  0.81578111889E+01  0.42919503774E+02 -0.15428133899E+02  0.48102056765E+03  0.47878400714E+03 0.  0.
         13    1    3    3    0    0  0.57187058346E+02  0.21955104807E+03  0.11662694942E+03  0.25509776103E+03  0.00000000000E+00 0.  1.
          1    1    3    3  501    0 -0.49029247157E+02 -0.17663154430E+03 -0.13205508332E+03  0.22592280662E+03  0.00000000000E+00 0.  1.
         21    1    1    2  502  501 -0.81578111889E+01 -0.42919503774E+02 -0.89550384975E+01  0.44596259956E+02  0.00000000000E+00 0.  1.
<scales pt_clust_4="550.00000" pt_clust_5="550.00000" pt_clust_6="43.68793"></scales>
<mgrwt>
<rscale>  0 0.30000000E+03</rscale>
<asrwt>  1 0.43687934E+02</asrwt>
<pdfrwt beam="1">  1        1 0.91133392E+00 0.30000000E+03</pdfrwt>
<pdfrwt beam="2">0</pdfrwt>
<totfact> 0.63962534E-05</totfact>
</mgrwt>
<clustering>
<clus scale="   43.688">  1  6  2 -1</clus>
<clus scale="  478.784">  4  5 -1 -1</clus>
<clus scale="  300.000">  1  4  2 -1</clus>
</clustering>
</event>
<event>
 6    1  0.9678510E-012  0.3000000E+03  0.7818608E-02  0.1093470E+00
          1   -1    0    0  502    0  0.00000000000E+00  0.00000000000E+00  0.23641769400E+03  0.23641769400E+03  0.00000000000E+00 0.  1.
         13   -1    0    0    0    0 -0.00000000000E+00 -0.00000000000E+00 -0.27500000000E+03  0.27500000000E+03  0.00000000000E+00 0.  1.
    9000005    2    1    2  501    0 -0.39695666383E+02 -0.69007011393E+01 -0.59437777655E+02  0.46604902305E+03  0.46048395940E+03 0.  0.
         13    1    3    3    0    0  0.98502440091E+01  0.19811328143E+03  0.79269159440E+02  0.21361062526E+03  0.00000000000E+00 0.  1.
          3    1    3    3  501    0 -0.49545910392E+02 -0.20501398256E+03 -0.13870693709E+03  0.25243839780E+03  0.00000000000E+00 0.  1.
         21    1    1    2  502  501  0.39695666383E+02  0.69007011393E+01  0.20855471658E+02  0.45368670951E+02  0.00000000000E+00 0.  1.
<scales pt_clust_4="550.00000" pt_clust_5="550.00000" pt_clust_6="40.29101"></scales>
<mgrwt>
<rscale>  0 0.30000000E+03</rscale>
<asrwt>  1 0.40291011E+02</asrwt>
<pdfrwt beam="1">  1        1 0.85970071E+00 0.30000000E+03</pdfrwt>
<pdfrwt beam="2">0</pdfrwt>
<totfact> 0.31748690E-04</totfact>
</mgrwt>
<clustering>
<clus scale="   40.291">  1  6  2 -1</clus>
<clus scale="  460.484">  4  5 -1 -1</clus>
<clus scale="  300.000">  1  4  2 -1</clus>
</clustering>
</event>
<event>
 6    1  0.9678510E-012  0.3000000E+03  0.7818608E-02  0.1093470E+00
          1   -1    0    0  502    0  0.00000000000E+00  0.00000000000E+00  0.24372471837E+03  0.24372471837E+03  0.00000000000E+00 0.  1.
         13   -1    0    0    0    0 -0.00000000000E+00 -0.00000000000E+00 -0.27500000000E+03  0.27500000000E+03  0.00000000000E+00 0.  1.
    9000005    2    1    2  501    0 -0.23346234446E+02  0.22598338220E+02 -0.50806846772E+02  0.48081411840E+03  0.47701692761E+03 0.  0.
         13    1    3    3    0    0 -0.44183962055E+02 -0.32411165199E-01  0.21182635764E+03  0.21638537230E+03  0.00000000000E+00 0.  1.
          3    1    3    3  501    0  0.20837727609E+02  0.22630749385E+02 -0.26263320441E+03  0.26442874611E+03  0.00000000000E+00 0.  1.
         21    1    1    2  502  501  0.23346234446E+02 -0.22598338220E+02  0.19531565146E+02  0.37910599971E+02  0.00000000000E+00 0.  1.
<scales pt_clust_4="550.00000" pt_clust_5="550.00000" pt_clust_6="32.49202"></scales>
<mgrwt>
<rscale>  0 0.30000000E+03</rscale>
<asrwt>  1 0.32492023E+02</asrwt>
<pdfrwt beam="1">  1        1 0.88627170E+00 0.30000000E+03</pdfrwt>
<pdfrwt beam="2">0</pdfrwt>
<totfact> 0.16530275E-04</totfact>
</mgrwt>
<clustering>
<clus scale="   32.492">  1  6  2 -1</clus>
<clus scale="  477.017">  4  5 -1 -1</clus>
<clus scale="  300.000">  1  4  2 -1</clus>
</clustering>
</event>
<event>
 6    1  0.9678510E-012  0.3000000E+03  0.7818608E-02  0.1093470E+00
          1   -1    0    0  502    0  0.00000000000E+00  0.00000000000E+00  0.23694304230E+03  0.23694304230E+03  0.00000000000E+00 0.  1.
         13   -1    0    0    0    0 -0.00000000000E+00 -0.00000000000E+00 -0.27500000000E+03  0.27500000000E+03  0.00000000000E+00 0.  1.
    9000005    2    1    2  501    0  0.39733920368E+01 -0.42500492311E+02 -0.56172825736E+02  0.46557209918E+03  0.46019551659E+03 0.  0.
         13    1    3    3    0    0 -0.10371122309E+03  0.18271688976E+03 -0.49471997042E+02  0.21584475461E+03  0.00000000000E+00 0.  1.
          3    1    3    3  501    0  0.10768461513E+03 -0.22521738207E+03 -0.67008286933E+01  0.24972734457E+03  0.00000000000E+00 0.  1.
         21    1    1    2  502  501 -0.39733920368E+01  0.42500492311E+02  0.18115868031E+02  0.46370943117E+02  0.00000000000E+00 0.  1.
<scales pt_clust_4="550.00000" pt_clust_5="550.00000" pt_clust_6="42.68583"></scales>
<mgrwt>
<rscale>  0 0.30000000E+03</rscale>
<asrwt>  1 0.42685825E+02</asrwt>
<pdfrwt beam="1">  1        1 0.86161106E+00 0.30000000E+03</pdfrwt>
<pdfrwt beam="2">0</pdfrwt>
<totfact> 0.29970966E-04</totfact>
</mgrwt>
<clustering>
<clus scale="   42.686">  1  6  2 -1</clus>
<clus scale="  460.196">  4  5 -1 -1</clus>
<clus scale="  300.000">  1  4  2 -1</clus>
</clustering>
</event>
<event>
 6    1  0.9678510E-012  0.3000000E+03  0.7818608E-02  0.1093470E+00
          1   -1    0    0  502    0  0.00000000000E+00  0.00000000000E+00  0.23776394660E+03  0.23776394660E+03  0.00000000000E+00 0.  1.
         13   -1    0    0    0    0 -0.00000000000E+00 -0.00000000000E+00 -0.27500000000E+03  0.27500000000E+03  0.00000000000E+00 0.  1.
    9000005    2    1    2  501    0 -0.26882215769E+02  0.15647664337E+02 -0.37468454647E+02  0.48165836938E+03  0.47919035547E+03 0.  0.
         13    1    3    3    0    0 -0.95077455791E+02 -0.14100768801E+03 -0.18831393305E+03  0.25374205023E+03  0.00000000000E+00 0.  1.
          1    1    3    3  501    0  0.68195240022E+02  0.15665535234E+03  0.15084547840E+03  0.22791631915E+03  0.00000000000E+00 0.  1.
         21    1    1    2  502  501  0.26882215769E+02 -0.15647664337E+02  0.23240125023E+00  0.31105577220E+02  0.00000000000E+00 0.  1.
<scales pt_clust_4="550.00000" pt_clust_5="550.00000" pt_clust_6="31.10471"></scales>
<mgrwt>
<rscale>  0 0.30000000E+03</rscale>
<asrwt>  1 0.31104709E+02</asrwt>
<pdfrwt beam="1">  1        1 0.86459617E+00 0.30000000E+03</pdfrwt>
<pdfrwt beam="2">0</pdfrwt>
<totfact> 0.29508913E-04</totfact>
</mgrwt>
<clustering>
<clus scale="   31.105">  1  6  2 -1</clus>
<clus scale="  479.190">  4  5 -1 -1</clus>
<clus scale="  300.000">  1  4  2 -1</clus>
</clustering>
</event>
<event>
 6    1  0.9678510E-012  0.3000000E+03  0.7818608E-02  0.1093470E+00
          1   -1    0    0  502    0  0.00000000000E+00  0.00000000000E+00  0.22105244700E+03  0.22105244700E+03  0.00000000000E+00 0.  1.
         13   -1    0    0    0    0 -0.00000000000E+00 -0.00000000000E+00 -0.27500000000E+03  0.27500000000E+03  0.00000000000E+00 0.  1.
    9000005    2    1    2  501    0 -0.30346295956E+02  0.62034925439E+01 -0.54114314064E+02  0.46507812203E+03  0.46087950660E+03 0.  0.
         13    1    3    3    0    0 -0.21514172712E+03 -0.11199584845E+03 -0.29821781863E+02  0.24437342632E+03  0.00000000000E+00 0.  1.
          3    1    3    3  501    0  0.18479543116E+03  0.11819934099E+03 -0.24292532201E+02  0.22070469571E+03  0.00000000000E+00 0.  1.
         21    1    1    2  502  501  0.30346295956E+02 -0.62034925439E+01  0.16676106443E+00  0.30974324969E+02  0.00000000000E+00 0.  1.
<scales pt_clust_4="550.00000" pt_clust_5="550.00000" pt_clust_6="30.97388"></scales>
<mgrwt>
<rscale>  0 0.30000000E+03</rscale>
<asrwt>  1 0.30973876E+02</asrwt>
<pdfrwt beam="1">  1        1 0.80382708E+00 0.30000000E+03</pdfrwt>
<pdfrwt beam="2">0</pdfrwt>
<totfact> 0.99517354E-04</totfact>
</mgrwt>
<clustering>
<clus scale="   30.974">  1  6  2 -1</clus>
<clus scale="  460.880">  4  5 -1 -1</clus>
<clus scale="  300.000">  1  4  2 -1</clus>
</clustering>
</event>
<event>
 6    1  0.9678510E-012  0.3000000E+03  0.7818608E-02  0.1093470E+00
          1   -1    0    0  502    0  0.00000000000E+00  0.00000000000E+00  0.22552463042E+03  0.22552463042E+03  0.00000000000E+00 0.  1.
         13   -1    0    0    0    0 -0.00000000000E+00 -0.00000000000E+00 -0.27500000000E+03  0.27500000000E+03  0.00000000000E+00 0.  1.
    9000005    2    1    2  501    0  0.22494499692E+02  0.19859926802E+02 -0.60662806417E+02  0.46849998441E+03  0.46358584976E+03 0.  0.
         13    1    3    3    0    0 -0.41056628727E+02  0.84738502286E+02  0.18445486560E+03  0.20709866725E+03  0.00000000000E+00 0.  1.
          1    1    3    3  501    0  0.63551128419E+02 -0.64878575485E+02 -0.24511767202E+03  0.26140131716E+03  0.00000000000E+00 0.  1.
         21    1    1    2  502  501 -0.22494499692E+02 -0.19859926802E+02  0.11187436834E+02  0.32024646007E+02  0.00000000000E+00 0.  1.
<scales pt_clust_4="550.00000" pt_clust_5="550.00000" pt_clust_6="30.00699"></scales>
<mgrwt>
<rscale>  0 0.30000000E+03</rscale>
<asrwt>  1 0.30006986E+02</asrwt>
<pdfrwt beam="1">  1        1 0.82008957E+00 0.30000000E+03</pdfrwt>
<pdfrwt beam="2">0</pdfrwt>
<totfact> 0.74340053E-04</totfact>
</mgrwt>
<clustering>
<clus scale="   30.007">  1  6  2 -1</clus>
<clus scale="  463.586">  4  5 -1 -1</clus>
<clus scale="  300.000">  1  4  2 -1</clus>
</clustering>
</event>
<event>
 6    1  0.9678510E-012  0.3000000E+03  0.7818608E-02  0.1093470E+00
          1   -1    0    0  502    0  0.00000000000E+00  0.00000000000E+00  0.23456151159E+03  0.23456151159E+03  0.00000000000E+00 0.  1.
         13   -1    0    0    0    0 -0.00000000000E+00 -0.00000000000E+00 -0.27500000000E+03  0.27500000000E+03  0.00000000000E+00 0.  1.
    9000005    2    1    2  501    0 -0.30322547432E+02  0.14623964232E+02 -0.48109090232E+02  0.47503390894E+03  0.47139093422E+03 0.  0.
         13    1    3    3    0    0  0.14590476188E+03 -0.16076268368E+03 -0.62709160568E+02  0.22597627933E+03  0.00000000000E+00 0.  1.
          1    1    3    3  501    0 -0.17622730931E+03  0.17538664791E+03  0.14600070337E+02  0.24905762961E+03  0.00000000000E+00 0.  1.
         21    1    1    2  502  501  0.30322547432E+02 -0.14623964232E+02  0.76706018216E+01  0.34527602652E+02  0.00000000000E+00 0.  1.
<scales pt_clust_4="550.00000" pt_clust_5="550.00000" pt_clust_6="33.66478"></scales>
<mgrwt>
<rscale>  0 0.30000000E+03</rscale>
<asrwt>  1 0.33664777E+02</asrwt>
<pdfrwt beam="1">  1        1 0.85295095E+00 0.30000000E+03</pdfrwt>
<pdfrwt beam="2">0</pdfrwt>
<totfact> 0.38427818E-04</totfact>
</mgrwt>
<clustering>
<clus scale="   33.665">  1  6  2 -1</clus>
<clus scale="  471.391">  4  5 -1 -1</clus>
<clus scale="  300.000">  1  4  2 -1</clus>
</clustering>
</event>
<event>
 6    1  0.9678510E-012  0.3000000E+03  0.7818608E-02  0.1093470E+00
          1   -1    0    0  502    0  0.00000000000E+00  0.00000000000E+00  0.23709743445E+03  0.23709743445E+03  0.00000000000E+00 0.  1.
         13   -1    0    0    0    0 -0.00000000000E+00 -0.00000000000E+00 -0.27500000000E+03  0.27500000000E+03  0.00000000000E+00 0.  1.
    9000005    2    1    2  501    0  0.73586286582E+01  0.37998711945E+02 -0.50096223896E+02  0.47151742916E+03  0.46724833101E+03 0.  0.
         13    1    3    3    0    0  0.41488510522E+02 -0.14302897269E+03  0.14171116846E+03  0.20557392539E+03  0.00000000000E+00 0.  1.
          1    1    3    3  501    0 -0.34129881864E+02  0.18102768463E+03 -0.19180739235E+03  0.26594350378E+03  0.00000000000E+00 0.  1.
         21    1    1    2  502  501 -0.73586286582E+01 -0.37998711945E+02  0.12193658346E+02  0.40580005287E+02  0.00000000000E+00 0.  1.
<scales pt_clust_4="550.00000" pt_clust_5="550.00000" pt_clust_6="38.70467"></scales>
<mgrwt>
<rscale>  0 0.30000000E+03</rscale>
<asrwt>  1 0.38704671E+02</asrwt>
<pdfrwt beam="1">  1        1 0.86217249E+00 0.30000000E+03</pdfrwt>
<pdfrwt beam="2">0</pdfrwt>
<totfact> 0.30086642E-04</totfact>
</mgrwt>
<clustering>
<clus scale="   38.705">  1  6  2 -1</clus>
<clus scale="  467.248">  4  5 -1 -1</clus>
<clus scale="  300.000">  1  4  2 -1</clus>
</clustering>
</event>
<event>
 6    1  0.9678510E-012  0.3000000E+03  0.7818608E-02  0.1093470E+00
          1   -1    0    0  502    0  0.00000000000E+00  0.00000000000E+00  0.21835218791E+03  0.21835218791E+03  0.00000000000E+00 0.  1.
         13   -1    0    0    0    0 -0.00000000000E+00 -0.00000000000E+00 -0.27500000000E+03  0.27500000000E+03  0.00000000000E+00 0.  1.
    9000005    2    1    2  501    0 -0.24176317351E+02  0.18435275577E+02 -0.58013317534E+02  0.46291835293E+03  0.45826139131E+03 0.  0.
         13    1    3    3    0    0 -0.74127933124E+02 -0.13528398045E+03 -0.19667717627E+03  0.24995723134E+03  0.00000000000E+00 0.  1.
          3    1    3    3  501    0  0.49951615774E+02  0.15371925603E+03  0.13866385873E+03  0.21296112159E+03  0.00000000000E+00 0.  1.
         21    1    1    2  502  501  0.24176317351E+02 -0.18435275577E+02  0.13655054426E+01  0.30433834976E+02  0.00000000000E+00 0. -1.
<scales pt_clust_4="550.00000" pt_clust_5="550.00000" pt_clust_6="30.40319"></scales>
<mgrwt>
<rscale>  0 0.30000000E+03</rscale>
<asrwt>  1 0.30403186E+02</asrwt>
<pdfrwt beam="1">  1        1 0.79400796E+00 0.30000000E+03</pdfrwt>
<pdfrwt beam="2">0</pdfrwt>
<totfact> 0.11786975E-03</totfact>
</mgrwt>
<clustering>
<clus scale="   30.403">  1  6  2 -1</clus>
<clus scale="  458.261">  4  5 -1 -1</clus>
<clus scale="  300.000">  1  4  2 -1</clus>
</clustering>
</event>
<event>
 6    1  0.9678510E-012  0.3000000E+03  0.7818608E-02  0.1093470E+00
          1   -1    0    0  502    0  0.00000000000E+00  0.00000000000E+00  0.23832949261E+03  0.23832949261E+03  0.00000000000E+00 0.  1.
         13   -1    0    0    0    0 -0.00000000000E+00 -0.00000000000E+00 -0.27500000000E+03  0.27500000000E+03  0.00000000000E+00 0.  1.
    9000005    2    1    2  501    0  0.98485001902E+01 -0.36135028089E+02 -0.40178902134E+02  0.47571244801E+03  0.47253069298E+03 0.  0.
         13    1    3    3    0    0  0.22810509997E+03 -0.88632196852E+02 -0.54712885329E+02  0.25076104716E+03  0.00000000000E+00 0.  1.
          3    1    3    3  501    0 -0.21825659978E+03  0.52497168763E+02  0.14533983196E+02  0.22495140085E+03  0.00000000000E+00 0.  1.
         21    1    1    2  502  501 -0.98485001902E+01  0.36135028089E+02  0.35083947467E+01  0.37617044603E+02  0.00000000000E+00 0.  1.
<scales pt_clust_4="550.00000" pt_clust_5="550.00000" pt_clust_6="37.45308"></scales>
<mgrwt>
<rscale>  0 0.30000000E+03</rscale>
<asrwt>  1 0.37453080E+02</asrwt>
<pdfrwt beam="1">  1        1 0.86665270E+00 0.30000000E+03</pdfrwt>
<pdfrwt beam="2">0</pdfrwt>
<totfact> 0.27088800E-04</totfact>
</mgrwt>
<clustering>
<clus scale="   37.453">  1  6  2 -1</clus>
<clus scale="  472.531">  4  5 -1 -1</clus>
<clus scale="  300.000">  1  4  2 -1</clus>
</clustering>
</event>
<event>
 6    1  0.9678510E-012  0.3000000E+03  0.7818608E-02  0.1093470E+00
          1   -1    0    0  502    0  0.00000000000E+00  0.00000000000E+00  0.22730485677E+03  0.22730485677E+03  0.00000000000E+00 0.  1.
         13   -1    0    0    0    0 -0.00000000000E+00 -0.00000000000E+00 -0.27500000000E+03  0.27500000000E+03  0.00000000000E+00 0.  1.
    9000005    2    1    2  501    0 -0.38170895087E+02 -0.99522437523E+01 -0.46088317061E+02  0.46282516226E+03  0.45883214084E+03 0.  0.
         13    1    3    3    0    0 -0.33331107297E+02  0.12040976102E+02 -0.25260773277E+03  0.25508158395E+03  0.00000000000E+00 0.  1.
          1    1    3    3  501    0 -0.48397877907E+01 -0.21993219854E+02  0.20651941571E+03  0.20774357831E+03  0.00000000000E+00 0.  1.
         21    1    1    2  502  501  0.38170895087E+02  0.99522437523E+01 -0.16068261743E+01  0.39479694500E+02  0.00000000000E+00 0. -1.
<scales pt_clust_4="550.00000" pt_clust_5="550.00000" pt_clust_6="39.44698"></scales>
<mgrwt>
<rscale>  0 0.30000000E+03</rscale>
<asrwt>  1 0.39446982E+02</asrwt>
<pdfrwt beam="1">  1        1 0.82656312E+00 0.30000000E+03</pdfrwt>
<pdfrwt beam="2">0</pdfrwt>
<totfact> 0.61876341E-04</totfact>
</mgrwt>
<clustering>
<clus scale="   39.447">  1  6  2 -1</clus>
<clus scale="  458.832">  4  5 -1 -1</clus>
<clus scale="  300.000">  1  4  2 -1</clus>
</clustering>
</event>
<event>
 6    1  0.9678510E-012  0.3000000E+03  0.7818608E-02  0.1093470E+00
          1   -1    0    0  502    0  0.00000000000E+00  0.00000000000E+00  0.23696055598E+03  0.23696055598E+03  0.00000000000E+00 0.  1.
         13   -1    0    0    0    0 -0.00000000000E+00 -0.00000000000E+00 -0.27500000000E+03  0.27500000000E+03  0.00000000000E+00 0.  1.
    9000005    2    1    2  501    0 -0.20195752708E+02  0.25331005792E+02 -0.61969503722E+02  0.47168430939E+03  0.46647222860E+03 0.  0.
         13    1    3    3    0    0 -0.13769737733E+03  0.18202115258E+03  0.66171486505E+02  0.23763613643E+03  0.00000000000E+00 0.  1.
          1    1    3    3  501    0  0.11750162462E+03 -0.15669014679E+03 -0.12814099023E+03  0.23404817296E+03  0.00000000000E+00 0.  1.
         21    1    1    2  502  501  0.20195752708E+02 -0.25331005792E+02  0.23930059698E+02  0.40276246586E+02  0.00000000000E+00 0. -1.
<scales pt_clust_4="550.00000" pt_clust_5="550.00000" pt_clust_6="32.39642"></scales>
<mgrwt>
<rscale>  0 0.30000000E+03</rscale>
<asrwt>  1 0.32396424E+02</asrwt>
<pdfrwt beam="1">  1        1 0.86167475E+00 0.30000000E+03</pdfrwt>
<pdfrwt beam="2">0</pdfrwt>
<totfact> 0.31489850E-04</totfact>
</mgrwt>
<clustering>
<clus scale="   32.396">  1  6  2 -1</clus>
<clus scale="  466.472">  4  5 -1 -1</clus>
<clus scale="  300.000">  1  4  2 -1</clus>
</clustering>
</event>
<event>
 6    1  0.9678510E-012  0.3000000E+03  0.7818608E-02  0.1093470E+00
          1   -1    0    0  502    0  0.00000000000E+00  0.00000000000E+00  0.26161134472E+03  0.26161134472E+03  0.00000000000E+00 0.  1.
         13   -1    0    0    0    0 -0.00000000000E+00 -0.00000000000E+00 -0.27500000000E+03  0.27500000000E+03  0.00000000000E+00 0.  1.
    9000005    2    1    2  501    0 -0.48867570849E+02  0.71455156129E+01 -0.30303961807E+02  0.48440765262E+03  0.48092966840E+03 0.  0.
         13    1    3    3    0    0  0.18910068066E+03  0.29940290089E+02 -0.12349292895E+03  0.22782886537E+03  0.00000000000E+00 0.  1.
          3    1    3    3  501    0 -0.23796825151E+03 -0.22794774476E+02  0.93188967146E+02  0.25657878725E+03  0.00000000000E+00 0.  1.
         21    1    1    2  502  501  0.48867570849E+02 -0.71455156129E+01  0.16915306530E+02  0.52203692102E+02  0.00000000000E+00 0.  1.
<scales pt_clust_4="550.00000" pt_clust_5="550.00000" pt_clust_6="49.38722"></scales>
<mgrwt>
<rscale>  0 0.30000000E+03</rscale>
<asrwt>  1 0.49387224E+02</asrwt>
<pdfrwt beam="1">  1        1 0.95131398E+00 0.30000000E+03</pdfrwt>
<pdfrwt beam="2">0</pdfrwt>
<totfact> 0.10889284E-05</totfact>
</mgrwt>
<clustering>
<clus scale="   49.387">  1  6  2 -1</clus>
<clus scale="  480.930">  4  5 -1 -1</clus>
<clus scale="  300.000">  1  4  2 -1</clus>
</clustering>
</event>
<event>
 6    1  0.9678510E-012  0.3000000E+03  0.7818608E-02  0.1093470E+00
          1   -1    0    0  502    0  0.00000000000E+00  0.00000000000E+00  0.23781377411E+03  0.23781377411E+03  0.00000000000E+00 0.  1.
         13   -1    0    0    0    0 -0.00000000000E+00 -0.00000000000E+00 -0.27500000000E+03  0.27500000000E+03  0.00000000000E+00 0.  1.
    9000005    2    1    2  501    0  0.35426712117E+02 -0.24810165387E+02 -0.33163545009E+02  0.46937671391E+03  0.46620176169E+03 0.  0.
         13    1    3    3    0    0 -0.25820218353E+02 -0.41524295258E+02 -0.24417434576E+03  0.24902221166E+03  0.00000000000E+00 0.  1.
          3    1    3    3  501    0  0.61246930471E+02  0.16714129871E+02  0.21101080075E+03  0.22035450225E+03  0.00000000000E+00 0.  1.
         21    1    1    2  502  501 -0.35426712117E+02  0.24810165387E+02 -0.40226808777E+01  0.43437060207E+02  0.00000000000E+00 0.  1.
<scales pt_clust_4="550.00000" pt_clust_5="550.00000" pt_clust_6="43.25041"></scales>
<mgrwt>
<rscale>  0 0.30000000E+03</rscale>
<asrwt>  1 0.43250412E+02</asrwt>
<pdfrwt beam="1">  1        1 0.86477736E+00 0.30000000E+03</pdfrwt>
<pdfrwt beam="2">0</pdfrwt>
<totfact> 0.27634325E-04</totfact>
</mgrwt>
<clustering>
<clus scale="   43.250">  1  6  2 -1</clus>
<clus scale="  466.202">  4  5 -1 -1</clus>
<clus scale="  300.000">  1  4  2 -1</clus>
</clustering>
</event>
<event>
 6    1  0.9678510E-012  0.3000000E+03  0.7818608E-02  0.1093470E+00
          1   -1    0    0  502    0  0.00000000000E+00  0.00000000000E+00  0.22272872807E+03  0.22272872807E+03  0.00000000000E+00 0.  1.
         13   -1    0    0    0    0 -0.00000000000E+00 -0.00000000000E+00 -0.27500000000E+03  0.27500000000E+03  0.00000000000E+00 0.  1.
    9000005    2    1    2  501    0 -0.27190625783E+02  0.13919847468E+02 -0.65541178451E+02  0.46442433342E+03  0.45876052916E+03 0.  0.
         13    1    3    3    0    0  0.17117811997E+03  0.27805567257E+02 -0.16737006526E+03  0.24101418438E+03  0.00000000000E+00 0.  1.
          3    1    3    3  501    0 -0.19836874575E+03 -0.13885719789E+02  0.10182888681E+03  0.22341014904E+03  0.00000000000E+00 0.  1.
         21    1    1    2  502  501  0.27190625783E+02 -0.13919847468E+02  0.13269906521E+02  0.33304394651E+02  0.00000000000E+00 0.  1.
<scales pt_clust_4="550.00000" pt_clust_5="550.00000" pt_clust_6="30.54656"></scales>
<mgrwt>
<rscale>  0 0.30000000E+03</rscale>
<asrwt>  1 0.30546559E+02</asrwt>
<pdfrwt beam="1">  1        1 0.80992265E+00 0.30000000E+03</pdfrwt>
<pdfrwt beam="2">0</pdfrwt>
<totfact> 0.89616806E-04</totfact>
</mgrwt>
<clustering>
<clus scale="   30.547">  1  6  2 -1</clus>
<clus scale="  458.761">  4  5 -1 -1</clus>
<clus scale="  300.000">  1  4  2 -1</clus>
</clustering>
</event>
<event>
 6    1  0.9678510E-012  0.3000000E+03  0.7818608E-02  0.1093470E+00
          1   -1    0    0  502    0  0.00000000000E+00  0.00000000000E+00  0.23020562721E+03  0.23020562721E+03  0.00000000000E+00 0.  1.
         13   -1    0    0    0    0 -0.00000000000E+00 -0.00000000000E+00 -0.27500000000E+03  0.27500000000E+03  0.00000000000E+00 0.  1.
    9000005    2    1    2  501    0 -0.22530740391E+02 -0.31897575862E+02 -0.50428603692E+02  0.46574888930E+03  0.46136091535E+03 0.  0.
         13    1    3    3    0    0  0.20724766356E+03  0.12008571893E+02  0.46147002290E+02  0.21266251590E+03  0.00000000000E+00 0.  1.
          3    1    3    3  501    0 -0.22977840395E+03 -0.43906147756E+02 -0.96575605982E+02  0.25308637340E+03  0.00000000000E+00 0.  1.
         21    1    1    2  502  501  0.22530740391E+02  0.31897575862E+02  0.56342309029E+01  0.39456737908E+02  0.00000000000E+00 0.  1.
<scales pt_clust_4="550.00000" pt_clust_5="550.00000" pt_clust_6="39.05240"></scales>
<mgrwt>
<rscale>  0 0.30000000E+03</rscale>
<asrwt>  1 0.39052396E+02</asrwt>
<pdfrwt beam="1">  1        1 0.83711137E+00 0.30000000E+03</pdfrwt>
<pdfrwt beam="2">0</pdfrwt>
<totfact> 0.51172759E-04</totfact>
</mgrwt>
<clustering>
<clus scale="   39.052">  1  6  2 -1</clus>
<clus scale="  461.361">  4  5 -1 -1</clus>
<clus scale="  300.000">  1  4  2 -1</clus>
</clustering>
</event>
<event>
 6    1  0.9678510E-012  0.3000000E+03  0.7818608E-02  0.1093470E+00
          1   -1    0    0  502    0  0.00000000000E+00  0.00000000000E+00  0.22163995755E+03  0.22163995755E+03  0.00000000000E+00 0.  1.
         13   -1    0    0    0    0 -0.00000000000E+00 -0.00000000000E+00 -0.27500000000E+03  0.27500000000E+03  0.00000000000E+00 0.  1.
    9000005    2    1    2  501    0  0.24208695676E+02 -0.20251834111E+02 -0.59584411519E+02  0.46446946639E+03  0.45954911096E+03 0.  0.
         13    1    3    3    0    0  0.17474824969E+02  0.11905760951E+02 -0.26026228938E+03  0.26111984973E+03  0.00000000000E+00 0.  1.
          3    1    3    3  501    0  0.67338707061E+01 -0.32157595062E+02  0.20067787786E+03  0.20334961666E+03  0.00000000000E+00 0.  1.
         21    1    1    2  502  501 -0.24208695676E+02  0.20251834111E+02  0.62243690719E+01  0.32170491160E+02  0.00000000000E+00 0.  1.
<scales pt_clust_4="550.00000" pt_clust_5="550.00000" pt_clust_6="31.56260"></scales>
<mgrwt>
<rscale>  0 0.30000000E+03</rscale>
<asrwt>  1 0.31562600E+02</asrwt>
<pdfrwt beam="1">  1        1 0.80596348E+00 0.30000000E+03</pdfrwt>
<pdfrwt beam="2">0</pdfrwt>
<totfact> 0.95544952E-04</totfact>
</mgrwt>
<clustering>
<clus scale="   31.563">  1  6  2 -1</clus>
<clus scale="  459.549">  4  5 -1 -1</clus>
<clus scale="  300.000">  1  4  2 -1</clus>
</clustering>
</event>
<event>
 6    1  0.9678510E-012  0.3000000E+03  0.7818608E-02  0.1093470E+00
          1   -1    0    0  502    0  0.00000000000E+00  0.00000000000E+00  0.23890946841E+03  0.23890946841E+03  0.00000000000E+00 0.  1.
         13   -1    0    0    0    0 -0.00000000000E+00 -0.00000000000E+00 -0.27500000000E+03  0.27500000000E+03  0.00000000000E+00 0.  1.
    9000005    2    1    2  501    0  0.27603345627E+02  0.13892334997E+02 -0.55718257895E+02  0.47730087240E+03  0.47302923469E+03 0.  0.
         13    1    3    3    0    0  0.66520408802E+02  0.43072489169E+02 -0.25766616667E+03  0.26957755388E+03  0.00000000000E+00 0.  1.
          1    1    3    3  501    0 -0.38917063175E+02 -0.29180154171E+02  0.20194790877E+03  0.20772331853E+03  0.00000000000E+00 0.  1.
         21    1    1    2  502  501 -0.27603345627E+02 -0.13892334997E+02  0.19627726303E+02  0.36608596003E+02  0.00000000000E+00 0.  1.
<scales pt_clust_4="550.00000" pt_clust_5="550.00000" pt_clust_6="30.90213"></scales>
<mgrwt>
<rscale>  0 0.30000000E+03</rscale>
<asrwt>  1 0.30902130E+02</asrwt>
<pdfrwt beam="1">  1        1 0.86876170E+00 0.30000000E+03</pdfrwt>
<pdfrwt beam="2">0</pdfrwt>
<totfact> 0.26698984E-04</totfact>
</mgrwt>
<clustering>
<clus scale="   30.902">  1  6  2 -1</clus>
<clus scale="  473.029">  4  5 -1 -1</clus>
<clus scale="  300.000">  1  4  2 -1</clus>
</clustering>
</event>
<event>
 6    1  0.9678510E-012  0.3000000E+03  0.7818608E-02  0.1093470E+00
          1   -1    0    0  502    0  0.00000000000E+00  0.00000000000E+00  0.23447495907E+03  0.23447495907E+03  0.00000000000E+00 0.  1.
         13   -1    0    0    0    0 -0.00000000000E+00 -0.00000000000E+00 -0.27500000000E+03  0.27500000000E+03  0.00000000000E+00 0.  1.
    9000005    2    1    2  501    0 -0.57277069112E+01 -0.37501936212E+02 -0.43867311552E+02  0.47139120112E+03  0.46780992040E+03 0.  0.
         13    1    3    3    0    0  0.22250198603E+03 -0.57498573499E+02  0.27447145823E+02  0.23144451939E+03  0.00000000000E+00 0.  1.
          3    1    3    3  501    0 -0.22822969294E+03  0.19996637287E+02 -0.71314457375E+02  0.23994668173E+03  0.00000000000E+00 0.  1.
         21    1    1    2  502  501  0.57277069112E+01  0.37501936212E+02  0.33422706191E+01  0.38083757942E+02  0.00000000000E+00 0.  1.
<scales pt_clust_4="550.00000" pt_clust_5="550.00000" pt_clust_6="37.93681"></scales>
<mgrwt>
<rscale>  0 0.30000000E+03</rscale>
<asrwt>  1 0.37936814E+02</asrwt>
<pdfrwt beam="1">  1        1 0.85263621E+00 0.30000000E+03</pdfrwt>
<pdfrwt beam="2">0</pdfrwt>
<totfact> 0.37845164E-04</totfact>
</mgrwt>
<clustering>
<clus scale="   37.937">  1  6  2 -1</clus>
<clus scale="  467.810">  4  5 -1 -1</clus>
<clus scale="  300.000">  1  4  2 -1</clus>
</clustering>
</event>
<event>
 6    1  0.9678510E-012  0.3000000E+03  0.7818608E-02  0.1093470E+00
          1   -1    0    0  502    0  0.00000000000E+00  0.00000000000E+00  0.24258336219E+03  0.24258336219E+03  0.00000000000E+00 0.  1.
         13   -1    0    0    0    0 -0.00000000000E+00 -0.00000000000E+00 -0.27500000000E+03  0.27500000000E+03  0.00000000000E+00 0.  1.
    9000005    2    1    2  501    0  0.31501729077E+02  0.20059905685E+01 -0.33766932174E+02  0.48598896034E+03  0.48378578000E+03 0.  0.
         13    1    3    3    0    0 -0.10563284951E+03  0.10757864284E+03 -0.19701029683E+03  0.24808168080E+03  0.00000000000E+00 0.  1.
          1    1    3    3  501    0  0.13713457859E+03 -0.10557265228E+03  0.16324336466E+03  0.23790727954E+03  0.00000000000E+00 0.  1.
         21    1    1    2  502  501 -0.31501729077E+02 -0.20059905685E+01  0.13502943610E+01  0.31594401843E+02  0.00000000000E+00 0.  1.
<scales pt_clust_4="550.00000" pt_clust_5="550.00000" pt_clust_6="31.56553"></scales>
<mgrwt>
<rscale>  0 0.30000000E+03</rscale>
<asrwt>  1 0.31565534E+02</asrwt>
<pdfrwt beam="1">  1        1 0.88212132E+00 0.30000000E+03</pdfrwt>
<pdfrwt beam="2">0</pdfrwt>
<totfact> 0.18915064E-04</totfact>
</mgrwt>
<clustering>
<clus scale="   31.566">  1  6  2 -1</clus>
<clus scale="  483.786">  4  5 -1 -1</clus>
<clus scale="  300.000">  1  4  2 -1</clus>
</clustering>
</event>
<event>
 6    1  0.9678510E-012  0.3000000E+03  0.7818608E-02  0.1093470E+00
          1   -1    0    0  502    0  0.00000000000E+00  0.00000000000E+00  0.25037085041E+03  0.25037085041E+03  0.00000000000E+00 0.  1.
         13   -1    0    0    0    0 -0.00000000000E+00 -0.00000000000E+00 -0.27500000000E+03  0.27500000000E+03  0.00000000000E+00 0.  1.
    9000005    2    1    2  501    0 -0.30111888053E+02 -0.40641296728E+01 -0.65242974571E+02  0.47464880657E+03  0.46916052785E+03 0.  0.
         13    1    3    3    0    0 -0.10383076804E+03 -0.14719256163E+03 -0.19676130834E+03  0.26676111232E+03  0.00000000000E+00 0.  1.
          3    1    3    3  501    0  0.73718879986E+02  0.14312843196E+03  0.13151833377E+03  0.20788769424E+03  0.00000000000E+00 0.  1.
         21    1    1    2  502  501  0.30111888053E+02  0.40641296728E+01  0.40613824985E+02  0.50722043847E+02  0.00000000000E+00 0. -1.
<scales pt_clust_4="550.00000" pt_clust_5="550.00000" pt_clust_6="30.38491"></scales>
<mgrwt>
<rscale>  0 0.30000000E+03</rscale>
<asrwt>  1 0.30384913E+02</asrwt>
<pdfrwt beam="1">  1        1 0.91043946E+00 0.30000000E+03</pdfrwt>
<pdfrwt beam="2">0</pdfrwt>
<totfact> 0.72006990E-05</totfact>
</mgrwt>
<clustering>
<clus scale="   30.385">  1  6  2 -1</clus>
<clus scale="  469.161">  4  5 -1 -1</clus>
<clus scale="  300.000">  1  4  2 -1</clus>
</clustering>
</event>
<event>
 6    1  0.9678510E-012  0.3000000E+03  0.7818608E-02  0.1093470E+00
          1   -1    0    0  502    0  0.00000000000E+00  0.00000000000E+00  0.23862579494E+03  0.23862579494E+03  0.00000000000E+00 0.  1.
         13   -1    0    0    0    0 -0.00000000000E+00 -0.00000000000E+00 -0.27500000000E+03  0.27500000000E+03  0.00000000000E+00 0.  1.
    9000005    2    1    2  501    0  0.38506940621E+02 -0.18212789268E+02 -0.57188079409E+02  0.46621580091E+03  0.46073007979E+03 0.  0.
         13    1    3    3    0    0  0.49747095222E+02  0.60586061972E+01 -0.25840963862E+03  0.26322427989E+03  0.00000000000E+00 0.  1.
          3    1    3    3  501    0 -0.11240154601E+02 -0.24271395466E+02  0.20122155921E+03  0.20299152102E+03  0.00000000000E+00 0.  1.
         21    1    1    2  502  501 -0.38506940621E+02  0.18212789268E+02  0.20813874349E+02  0.47409994034E+02  0.00000000000E+00 0. -1.
<scales pt_clust_4="550.00000" pt_clust_5="550.00000" pt_clust_6="42.59683"></scales>
<mgrwt>
<rscale>  0 0.30000000E+03</rscale>
<asrwt>  1 0.42596833E+02</asrwt>
<pdfrwt beam="1">  1        1 0.86773016E+00 0.30000000E+03</pdfrwt>
<pdfrwt beam="2">0</pdfrwt>
<totfact> 0.25779934E-04</totfact>
</mgrwt>
<clustering>
<clus scale="   42.597">  1  6  2 -1</clus>
<clus scale="  460.730">  4  5 -1 -1</clus>
<clus scale="  300.000">  1  4  2 -1</clus>
</clustering>
</event>
<event>
 6    1  0.9678510E-012  0.3000000E+03  0.7818608E-02  0.1093470E+00
          1   -1    0    0  502    0  0.00000000000E+00  0.00000000000E+00  0.23711802663E+03  0.23711802663E+03  0.00000000000E+00 0.  1.
         13   -1    0    0    0    0 -0.00000000000E+00 -0.00000000000E+00 -0.27500000000E+03  0.27500000000E+03  0.00000000000E+00 0.  1.
    9000005    2    1    2  501    0 -0.29234197919E+02 -0.80593929749E+01 -0.71474727085E+02  0.46686247178E+03  0.46036109609E+03 0.  0.
         13    1    3    3    0    0 -0.11364826325E+03 -0.11845332908E+03 -0.21273279189E+03  0.26870496768E+03  0.00000000000E+00 0.  1.
          3    1    3    3  501    0  0.84414065335E+02  0.11039393610E+03  0.14125806481E+03  0.19815750409E+03  0.00000000000E+00 0.  1.
         21    1    1    2  502  501  0.29234197919E+02  0.80593929749E+01  0.33592753718E+02  0.45255554858E+02  0.00000000000E+00 0. -1.
<scales pt_clust_4="550.00000" pt_clust_5="550.00000" pt_clust_6="30.32478"></scales>
<mgrwt>
<rscale>  0 0.30000000E+03</rscale>
<asrwt>  1 0.30324778E+02</asrwt>
<pdfrwt beam="1">  1        1 0.86224737E+00 0.30000000E+03</pdfrwt>
<pdfrwt beam="2">0</pdfrwt>
<totfact> 0.31438933E-04</totfact>
</mgrwt>
<clustering>
<clus scale="   30.325">  1  6  2 -1</clus>
<clus scale="  460.361">  4  5 -1 -1</clus>
<clus scale="  300.000">  1  4  2 -1</clus>
</clustering>
</event>
<event>
 6    1  0.9678510E-012  0.3000000E+03  0.7818608E-02  0.1093470E+00
          1   -1    0    0  502    0  0.00000000000E+00  0.00000000000E+00  0.26197226032E+03  0.26197226032E+03  0.00000000000E+00 0.  1.
         13   -1    0    0    0    0 -0.00000000000E+00 -0.00000000000E+00 -0.27500000000E+03  0.27500000000E+03  0.00000000000E+00 0.  1.
    9000005    2    1    2  501    0 -0.33560591359E+02 -0.19590411805E+02 -0.38344453315E+02  0.49059302449E+03  0.48754601942E+03 0.  0.
         13    1    3    3    0    0  0.20517965668E+03 -0.39245052075E+02  0.79640753131E+02  0.22356546063E+03  0.00000000000E+00 0.  1.
          1    1    3    3  501    0 -0.23874024804E+03  0.19654640271E+02 -0.11798520645E+03  0.26702756386E+03  0.00000000000E+00 0.  1.
         21    1    1    2  502  501  0.33560591359E+02  0.19590411805E+02  0.25316713634E+02  0.46379235831E+02  0.00000000000E+00 0. -1.
<scales pt_clust_4="550.00000" pt_clust_5="550.00000" pt_clust_6="38.85997"></scales>
<mgrwt>
<rscale>  0 0.30000000E+03</rscale>
<asrwt>  1 0.38859973E+02</asrwt>
<pdfrwt beam="1">  1        1 0.95262640E+00 0.30000000E+03</pdfrwt>
<pdfrwt beam="2">0</pdfrwt>
<totfact> 0.10679282E-05</totfact>
</mgrwt>
<clustering>
<clus scale="   38.860">  1  6  2 -1</clus>
<clus scale="  487.546">  4  5 -1 -1</clus>
<clus scale="  300.000">  1  4  2 -1</clus>
</clustering>
</event>
<event>
 6    1  0.9678510E-012  0.3000000E+03  0.7818608E-02  0.1093470E+00
          1   -1    0    0  502    0  0.00000000000E+00  0.00000000000E+00  0.22653530317E+03  0.22653530317E+03  0.00000000000E+00 0.  1.
         13   -1    0    0    0    0 -0.00000000000E+00 -0.00000000000E+00 -0.27500000000E+03  0.27500000000E+03  0.00000000000E+00 0.  1.
    9000005    2    1    2  501    0 -0.31439636307E+02 -0.15649300611E+02 -0.49803486043E+02  0.46639069196E+03  0.46239219174E+03 0.  0.
         13    1    3    3    0    0 -0.16210689963E+03 -0.18429045484E+03 -0.60482534218E+02  0.25278400977E+03  0.00000000000E+00 0.  1.
          3    1    3    3  501    0  0.13066726332E+03  0.16864115423E+03  0.10679048175E+02  0.21360668218E+03  0.00000000000E+00 0.  1.
         21    1    1    2  502  501  0.31439636307E+02  0.15649300611E+02  0.13387892137E+01  0.35144611212E+02  0.00000000000E+00 0. -1.
<scales pt_clust_4="550.00000" pt_clust_5="550.00000" pt_clust_6="35.11910"></scales>
<mgrwt>
<rscale>  0 0.30000000E+03</rscale>
<asrwt>  1 0.35119102E+02</asrwt>
<pdfrwt beam="1">  1        1 0.82376474E+00 0.30000000E+03</pdfrwt>
<pdfrwt beam="2">0</pdfrwt>
<totfact> 0.66955889E-04</totfact>
</mgrwt>
<clustering>
<clus scale="   35.119">  1  6  2 -1</clus>
<clus scale="  462.392">  4  5 -1 -1</clus>
<clus scale="  300.000">  1  4  2 -1</clus>
</clustering>
</event>
<event>
 6    1  0.9678510E-012  0.3000000E+03  0.7818608E-02  0.1093470E+00
          1   -1    0    0  502    0  0.00000000000E+00  0.00000000000E+00  0.23585186535E+03  0.23585186535E+03  0.00000000000E+00 0.  1.
         13   -1    0    0    0    0 -0.00000000000E+00 -0.00000000000E+00 -0.27500000000E+03  0.27500000000E+03  0.00000000000E+00 0.  1.
    9000005    2    1    2  501    0 -0.16202792980E+01  0.30220666134E+02 -0.55695429141E+02  0.47635944703E+03  0.47212331861E+03 0.  0.
         13    1    3    3    0    0  0.10253719350E+03  0.16569619669E+03 -0.17982050462E+03  0.26514999440E+03  0.00000000000E+00 0.  1.
          1    1    3    3  501    0 -0.10415747279E+03 -0.13547553055E+03  0.12412507548E+03  0.21120945263E+03  0.00000000000E+00 0.  1.
         21    1    1    2  502  501  0.16202792980E+01 -0.30220666134E+02  0.16547294487E+02  0.34492418318E+02  0.00000000000E+00 0. -1.
<scales pt_clust_4="550.00000" pt_clust_5="550.00000" pt_clust_6="30.26407"></scales>
<mgrwt>
<rscale>  0 0.30000000E+03</rscale>
<asrwt>  1 0.30264071E+02</asrwt>
<pdfrwt beam="1">  1        1 0.85764315E+00 0.30000000E+03</pdfrwt>
<pdfrwt beam="2">0</pdfrwt>
<totfact> 0.35206800E-04</totfact>
</mgrwt>
<clustering>
<clus scale="   30.264">  1  6  2 -1</clus>
<clus scale="  472.123">  4  5 -1 -1</clus>
<clus scale="  300.000">  1  4  2 -1</clus>
</clustering>
</event>
<event>
 6    1  0.9678510E-012  0.3000000E+03  0.7818608E-02  0.1093470E+00
          1   -1    0    0  502    0  0.00000000000E+00  0.00000000000E+00  0.22311985301E+03  0.22311985301E+03  0.00000000000E+00 0.  1.
         13   -1    0    0    0    0 -0.00000000000E+00 -0.00000000000E+00 -0.27500000000E+03  0.27500000000E+03  0.00000000000E+00 0.  1.
    9000005    2    1    2  501    0  0.32952378164E+02 -0.53907938271E+01 -0.53700234856E+02  0.46467986790E+03  0.46035719232E+03 0.  0.
         13    1    3    3    0    0 -0.16018205219E+03 -0.98616586791E+02 -0.13899093611E+03  0.23388458982E+03  0.00000000000E+00 0.  1.
          1    1    3    3  501    0  0.19313443036E+03  0.93225792964E+02  0.85290701254E+02  0.23079527808E+03  0.00000000000E+00 0.  1.
         21    1    1    2  502  501 -0.32952378164E+02  0.53907938271E+01  0.18200878696E+01  0.33439985117E+02  0.00000000000E+00 0.  1.
<scales pt_clust_4="550.00000" pt_clust_5="550.00000" pt_clust_6="33.39042"></scales>
<mgrwt>
<rscale>  0 0.30000000E+03</rscale>
<asrwt>  1 0.33390416E+02</asrwt>
<pdfrwt beam="1">  1        1 0.81134492E+00 0.30000000E+03</pdfrwt>
<pdfrwt beam="2">0</pdfrwt>
<totfact> 0.85881489E-04</totfact>
</mgrwt>
<clustering>
<clus scale="   33.390">  1  6  2 -1</clus>
<clus scale="  460.357">  4  5 -1 -1</clus>
<clus scale="  300.000">  1  4  2 -1</clus>
</clustering>
</event>
<event>
 6    1  0.9678510E-012  0.3000000E+03  0.7818608E-02  0.1093470E+00
          1   -1    0    0  502    0  0.00000000000E+00  0.00000000000E+00  0.25350620827E+03  0.25350620827E+03  0.00000000000E+00 0.  1.
         13   -1    0    0    0    0 -0.00000000000E+00 -0.00000000000E+00 -0.27500000000E+03  0.27500000000E+03  0.00000000000E+00 0.  1.
    9000005    2    1    2  501    0  0.96431334911E+01 -0.32703660513E+02 -0.49994682844E+02  0.48406725882E+03  0.48026984426E+03 0.  0.
         13    1    3    3    0    0 -0.10645334093E+03 -0.68985475437E+02  0.18216111507E+03  0.22197743457E+03  0.00000000000E+00 0.  1.
          3    1    3    3  501    0  0.11609647442E+03  0.36281814923E+02 -0.23215579791E+03  0.26208982424E+03  0.00000000000E+00 0.  1.
         21    1    1    2  502  501 -0.96431334911E+01  0.32703660513E+02  0.28500891118E+02  0.44438949459E+02  0.00000000000E+00 0.  1.
<scales pt_clust_4="550.00000" pt_clust_5="550.00000" pt_clust_6="34.09574"></scales>
<mgrwt>
<rscale>  0 0.30000000E+03</rscale>
<asrwt>  1 0.34095739E+02</asrwt>
<pdfrwt beam="1">  1        1 0.92184076E+00 0.30000000E+03</pdfrwt>
<pdfrwt beam="2">0</pdfrwt>
<totfact> 0.38356746E-05</totfact>
</mgrwt>
<clustering>
<clus scale="   34.096">  1  6  2 -1</clus>
<clus scale="  480.270">  4  5 -1 -1</clus>
<clus scale="  300.000">  1  4  2 -1</clus>
</clustering>
</event>
<event>
 6    1  0.9678510E-012  0.3000000E+03  0.7818608E-02  0.1093470E+00
          1   -1    0    0  502    0  0.00000000000E+00  0.00000000000E+00  0.24151614465E+03  0.24151614465E+03  0.00000000000E+00 0.  1.
         13   -1    0    0    0    0 -0.00000000000E+00 -0.00000000000E+00 -0.27500000000E+03  0.27500000000E+03  0.00000000000E+00 0.  1.
    9000005    2    1    2  501    0 -0.22559763363E+02 -0.21848524666E+02 -0.41097281915E+02  0.48420105194E+03  0.48143054656E+03 0.  0.
         13    1    3    3    0    0 -0.85712197005E+02 -0.23001833094E+03  0.46238542886E+02  0.24978594062E+03  0.00000000000E+00 0.  1.
          3    1    3    3  501    0  0.63152433642E+02  0.20816980628E+03 -0.87335824801E+02  0.23441511132E+03  0.00000000000E+00 0.  1.
         21    1    1    2  502  501  0.22559763363E+02  0.21848524666E+02  0.76134265692E+01  0.32315092715E+02  0.00000000000E+00 0. -1.
<scales pt_clust_4="550.00000" pt_clust_5="550.00000" pt_clust_6="31.40543"></scales>
<mgrwt>
<rscale>  0 0.30000000E+03</rscale>
<asrwt>  1 0.31405429E+02</asrwt>
<pdfrwt beam="1">  1        1 0.87824053E+00 0.30000000E+03</pdfrwt>
<pdfrwt beam="2">0</pdfrwt>
<totfact> 0.21145963E-04</totfact>
</mgrwt>
<clustering>
<clus scale="   31.405">  1  6  2 -1</clus>
<clus scale="  481.431">  4  5 -1 -1</clus>
<clus scale="  300.000">  1  4  2 -1</clus>
</clustering>
</event>
<event>
 6    1  0.9678510E-012  0.3000000E+03  0.7818608E-02  0.1093470E+00
          1   -1    0    0  502    0  0.00000000000E+00  0.00000000000E+00  0.24782651728E+03  0.24782651728E+03  0.00000000000E+00 0.  1.
         13   -1    0    0    0    0 -0.00000000000E+00 -0.00000000000E+00 -0.27500000000E+03  0.27500000000E+03  0.00000000000E+00 0.  1.
    9000005    2    1    2  501    0  0.24337598803E+02 -0.19333872259E+02 -0.77348819910E+02  0.46380379459E+03  0.45625103025E+03 0.  0.
         13    1    3    3    0    0  0.80783191684E+02 -0.22716549322E+03 -0.26767189321E+02  0.24258311522E+03  0.00000000000E+00 0.  1.
          1    1    3    3  501    0 -0.56445592881E+02  0.20783162096E+03 -0.50581630589E+02  0.22122067936E+03  0.00000000000E+00 0.  1.
         21    1    1    2  502  501 -0.24337598803E+02  0.19333872259E+02  0.50175337194E+02  0.59022722697E+02  0.00000000000E+00 0.  1.
<scales pt_clust_4="550.00000" pt_clust_5="550.00000" pt_clust_6="31.08243"></scales>
<mgrwt>
<rscale>  0 0.30000000E+03</rscale>
<asrwt>  1 0.31082428E+02</asrwt>
<pdfrwt beam="1">  1        1 0.90118734E+00 0.30000000E+03</pdfrwt>
<pdfrwt beam="2">0</pdfrwt>
<totfact> 0.10898730E-04</totfact>
</mgrwt>
<clustering>
<clus scale="   31.082">  1  6  2 -1</clus>
<clus scale="  456.251">  4  5 -1 -1</clus>
<clus scale="  300.000">  1  4  2 -1</clus>
</clustering>
</event>
<event>
 6    1  0.9678510E-012  0.3000000E+03  0.7818608E-02  0.1093470E+00
          1   -1    0    0  502    0  0.00000000000E+00  0.00000000000E+00  0.22588528215E+03  0.22588528215E+03  0.00000000000E+00 0.  1.
         13   -1    0    0    0    0 -0.00000000000E+00 -0.00000000000E+00 -0.27500000000E+03  0.27500000000E+03  0.00000000000E+00 0.  1.
    9000005    2    1    2  501    0 -0.55319846189E+01  0.29987933691E+02 -0.44092948467E+02  0.46998063544E+03  0.46691297964E+03 0.  0.
         13    1    3    3    0    0  0.17949417506E+03  0.32036944618E+02  0.12358803995E+03  0.22026921782E+03  0.00000000000E+00 0.  1.
          1    1    3    3  501    0 -0.18502615968E+03 -0.20490109262E+01 -0.16768098842E+03  0.24971141762E+03  0.00000000000E+00 0.  1.
         21    1    1    2  502  501  0.55319846189E+01 -0.29987933691E+02 -0.50217693809E+01  0.30904646716E+02  0.00000000000E+00 0. -1.
<scales pt_clust_4="550.00000" pt_clust_5="550.00000" pt_clust_6="30.49393"></scales>
<mgrwt>
<rscale>  0 0.30000000E+03</rscale>
<asrwt>  1 0.30493933E+02</asrwt>
<pdfrwt beam="1">  1        1 0.82140103E+00 0.30000000E+03</pdfrwt>
<pdfrwt beam="2">0</pdfrwt>
<totfact> 0.72178970E-04</totfact>
</mgrwt>
<clustering>
<clus scale="   30.494">  1  6  2 -1</clus>
<clus scale="  466.913">  4  5 -1 -1</clus>
<clus scale="  300.000">  1  4  2 -1</clus>
</clustering>
</event>
<event>
 6    1  0.9678510E-012  0.3000000E+03  0.7818608E-02  0.1093470E+00
          1   -1    0    0  502    0  0.00000000000E+00  0.00000000000E+00  0.24834906637E+03  0.24834906637E+03  0.00000000000E+00 0.  1.
         13   -1    0    0    0    0 -0.00000000000E+00 -0.00000000000E+00 -0.27500000000E+03  0.27500000000E+03  0.00000000000E+00 0.  1.
    9000005    2    1    2  501    0  0.36489548277E+02 -0.96060422224E+01 -0.63555119533E+02  0.47056950482E+03  0.46472856859E+03 0.  0.
         13    1    3    3    0    0  0.18020857806E+03  0.56988585594E+02 -0.18992033438E+03  0.26794134415E+03  0.00000000000E+00 0.  1.
          3    1    3    3  501    0 -0.14371902978E+03 -0.66594627816E+02  0.12636521484E+03  0.20262816067E+03  0.00000000000E+00 0.  1.
         21    1    1    2  502  501 -0.36489548277E+02  0.96060422224E+01  0.36904185905E+02  0.52779561555E+02  0.00000000000E+00 0. -1.
<scales pt_clust_4="550.00000" pt_clust_5="550.00000" pt_clust_6="37.73279"></scales>
<mgrwt>
<rscale>  0 0.30000000E+03</rscale>
<asrwt>  1 0.37732787E+02</asrwt>
<pdfrwt beam="1">  1        1 0.90308751E+00 0.30000000E+03</pdfrwt>
<pdfrwt beam="2">0</pdfrwt>
<totfact> 0.98503842E-05</totfact>
</mgrwt>
<clustering>
<clus scale="   37.733">  1  6  2 -1</clus>
<clus scale="  464.729">  4  5 -1 -1</clus>
<clus scale="  300.000">  1  4  2 -1</clus>
</clustering>
</event>
<event>
 6    1  0.9678510E-012  0.3000000E+03  0.7818608E-02  0.1093470E+00
          1   -1    0    0  502    0  0.00000000000E+00  0.00000000000E+00  0.22415833485E+03  0.22415833485E+03  0.00000000000E+00 0.  1.
         13   -1    0    0    0    0 -0.00000000000E+00 -0.00000000000E+00 -0.27500000000E+03  0.27500000000E+03  0.00000000000E+00 0.  1.
    9000005    2    1    2  501    0  0.34310684622E+02 -0.24415095051E+01 -0.58429285172E+02  0.46393396792E+03  0.45895267859E+03 0.  0.
         13    1    3    3    0    0 -0.15024469949E+02  0.25111533799E+02  0.19861121677E+03  0.20075542148E+03  0.00000000000E+00 0.  1.
          3    1    3    3  501    0  0.49335154571E+02 -0.27553043304E+02 -0.25704050194E+03  0.26317854645E+03  0.00000000000E+00 0.  1.
         21    1    1    2  502  501 -0.34310684622E+02  0.24415095051E+01  0.75876200264E+01  0.35224366929E+02  0.00000000000E+00 0.  1.
<scales pt_clust_4="550.00000" pt_clust_5="550.00000" pt_clust_6="34.39744"></scales>
<mgrwt>
<rscale>  0 0.30000000E+03</rscale>
<asrwt>  1 0.34397442E+02</asrwt>
<pdfrwt beam="1">  1        1 0.81512122E+00 0.30000000E+03</pdfrwt>
<pdfrwt beam="2">0</pdfrwt>
<totfact> 0.79683589E-04</totfact>
</mgrwt>
<clustering>
<clus scale="   34.397">  1  6  2 -1</clus>
<clus scale="  458.953">  4  5 -1 -1</clus>
<clus scale="  300.000">  1  4  2 -1</clus>
</clustering>
</event>
<event>
 6    1  0.9678510E-012  0.3000000E+03  0.7818608E-02  0.1093470E+00
          1   -1    0    0  502    0  0.00000000000E+00  0.00000000000E+00  0.22203956662E+03  0.22203956662E+03  0.00000000000E+00 0.  1.
         13   -1    0    0    0    0 -0.00000000000E+00 -0.00000000000E+00 -0.27500000000E+03  0.27500000000E+03  0.00000000000E+00 0.  1.
    9000005    2    1    2  501    0 -0.11684146540E+02  0.34520029968E+02 -0.48689444181E+02  0.46034633702E+03  0.45631122744E+03 0.  0.
         13    1    3    3    0    0  0.14752160005E+03 -0.13711298666E+03 -0.93411270553E+02  0.22200959227E+03  0.00000000000E+00 0.  1.
          1    1    3    3  501    0 -0.15920574659E+03  0.17163301663E+03  0.44721826372E+02  0.23833674475E+03  0.00000000000E+00 0.  1.
         21    1    1    2  502  501  0.11684146540E+02 -0.34520029968E+02 -0.42709891998E+01  0.36693229595E+02  0.00000000000E+00 0. -1.
<scales pt_clust_4="550.00000" pt_clust_5="550.00000" pt_clust_6="36.44383"></scales>
<mgrwt>
<rscale>  0 0.30000000E+03</rscale>
<asrwt>  1 0.36443835E+02</asrwt>
<pdfrwt beam="1">  1        1 0.80741661E+00 0.30000000E+03</pdfrwt>
<pdfrwt beam="2">0</pdfrwt>
<totfact> 0.90639791E-04</totfact>
</mgrwt>
<clustering>
<clus scale="   36.444">  1  6  2 -1</clus>
<clus scale="  456.311">  4  5 -1 -1</clus>
<clus scale="  300.000">  1  4  2 -1</clus>
</clustering>
</event>
<event>
 6    1  0.9678510E-012  0.3000000E+03  0.7818608E-02  0.1093470E+00
          1   -1    0    0  502    0  0.00000000000E+00  0.00000000000E+00  0.26060097940E+03  0.26060097940E+03  0.00000000000E+00 0.  1.
         13   -1    0    0    0    0 -0.00000000000E+00 -0.00000000000E+00 -0.27500000000E+03  0.27500000000E+03  0.00000000000E+00 0.  1.
    9000005    2    1    2  501    0  0.37260611966E+02 -0.20556495059E+02 -0.60538288896E+02  0.47283351353E+03  0.46700719952E+03 0.  0.
         13    1    3    3    0    0  0.24665803301E+03 -0.61244465168E+02 -0.14196621782E+02  0.25454393301E+03  0.00000000000E+00 0.  1.
          3    1    3    3  501    0 -0.20939742104E+03  0.40687970109E+02 -0.46341667114E+02  0.21828958052E+03  0.00000000000E+00 0.  1.
         21    1    1    2  502  501 -0.37260611966E+02  0.20556495059E+02  0.46139268299E+02  0.62767465875E+02  0.00000000000E+00 0. -1.
<scales pt_clust_4="550.00000" pt_clust_5="550.00000" pt_clust_6="42.55494"></scales>
<mgrwt>
<rscale>  0 0.30000000E+03</rscale>
<asrwt>  1 0.42554937E+02</asrwt>
<pdfrwt beam="1">  1        1 0.94763993E+00 0.30000000E+03</pdfrwt>
<pdfrwt beam="2">0</pdfrwt>
<totfact> 0.13299783E-05</totfact>
</mgrwt>
<clustering>
<clus scale="   42.555">  1  6  2 -1</clus>
<clus scale="  467.007">  4  5 -1 -1</clus>
<clus scale="  300.000">  1  4  2 -1</clus>
</clustering>
</event>
<event>
 6    1  0.9678510E-012  0.3000000E+03  0.7818608E-02  0.1093470E+00
          1   -1    0    0  502    0  0.00000000000E+00  0.00000000000E+00  0.24369238508E+03  0.24369238508E+03  0.00000000000E+00 0.  1.
         13   -1    0    0    0    0 -0.00000000000E+00 -0.00000000000E+00 -0.27500000000E+03  0.27500000000E+03  0.00000000000E+00 0.  1.
    9000005    2    1    2  501    0 -0.36533807688E+02  0.70203958345E+01 -0.71318449289E+02  0.46405840363E+03  0.45703377962E+03 0.  0.
         13    1    3    3    0    0 -0.18552314473E+03 -0.43924752977E+02 -0.18825054907E+03  0.26793001023E+03  0.00000000000E+00 0.  1.
          1    1    3    3  501    0  0.14898933704E+03  0.50945148812E+02  0.11693209979E+03  0.19612839341E+03  0.00000000000E+00 0.  1.
         21    1    1    2  502  501  0.36533807688E+02 -0.70203958345E+01  0.40010834374E+02  0.54633981451E+02  0.00000000000E+00 0.  1.
<scales pt_clust_4="550.00000" pt_clust_5="550.00000" pt_clust_6="37.20222"></scales>
<mgrwt>
<rscale>  0 0.30000000E+03</rscale>
<asrwt>  1 0.37202219E+02</asrwt>
<pdfrwt beam="1">  1        1 0.88615413E+00 0.30000000E+03</pdfrwt>
<pdfrwt beam="2">0</pdfrwt>
<totfact> 0.16176798E-04</totfact>
</mgrwt>
<clustering>
<clus scale="   37.202">  1  6  2 -1</clus>
<clus scale="  457.034">  4  5 -1 -1</clus>
<clus scale="  300.000">  1  4  2 -1</clus>
</clustering>
</event>
<event>
 6    1  0.9678510E-012  0.3000000E+03  0.7818608E-02  0.1093470E+00
          1   -1    0    0  502    0  0.00000000000E+00  0.00000000000E+00  0.24731978292E+03  0.24731978292E+03  0.00000000000E+00 0.  1.
         13   -1    0    0    0    0 -0.00000000000E+00 -0.00000000000E+00 -0.27500000000E+03  0.27500000000E+03  0.00000000000E+00 0.  1.
    9000005    2    1    2  501    0 -0.95322197866E+01 -0.57502988284E+02 -0.14582662876E+02  0.46257865135E+03  0.45865989333E+03 0.  0.
         13    1    3    3    0    0 -0.39134430677E+02 -0.25189448286E+03 -0.57491184228E+02  0.26131890560E+03  0.00000000000E+00 0.  1.
          3    1    3    3  501    0  0.29602210890E+02  0.19439149458E+03  0.42908521352E+02  0.20125974575E+03  0.00000000000E+00 0.  1.
         21    1    1    2  502  501  0.95322197866E+01  0.57502988284E+02 -0.13097554202E+02  0.59741131574E+02  0.00000000000E+00 0. -1.
<scales pt_clust_4="550.00000" pt_clust_5="550.00000" pt_clust_6="58.28774"></scales>
<mgrwt>
<rscale>  0 0.30000000E+03</rscale>
<asrwt>  1 0.58287737E+02</asrwt>
<pdfrwt beam="1">  1        1 0.89934467E+00 0.30000000E+03</pdfrwt>
<pdfrwt beam="2">0</pdfrwt>
<totfact> 0.10271610E-04</totfact>
</mgrwt>
<clustering>
<clus scale="   58.288">  1  6  2 -1</clus>
<clus scale="  458.660">  4  5 -1 -1</clus>
<clus scale="  300.000">  1  4  2 -1</clus>
</clustering>
</event>
<event>
 6    1  0.9678510E-012  0.3000000E+03  0.7818608E-02  0.1093470E+00
          1   -1    0    0  502    0  0.00000000000E+00  0.00000000000E+00  0.23453612178E+03  0.23453612178E+03  0.00000000000E+00 0.  1.
         13   -1    0    0    0    0 -0.00000000000E+00 -0.00000000000E+00 -0.27500000000E+03  0.27500000000E+03  0.00000000000E+00 0.  1.
    9000005    2    1    2  501    0  0.27983320088E+01 -0.29990745549E+02 -0.61247852501E+02  0.47294036974E+03  0.46798933579E+03 0.  0.
         13    1    3    3    0    0 -0.15315365162E+03 -0.15581591662E+02  0.14667483384E+03  0.21263192114E+03  0.00000000000E+00 0.  1.
          3    1    3    3  501    0  0.15595198363E+03 -0.14409153887E+02 -0.20792268634E+03  0.26030844860E+03  0.00000000000E+00 0.  1.
         21    1    1    2  502  501 -0.27983320088E+01  0.29990745549E+02  0.20783974278E+02  0.36595752040E+02  0.00000000000E+00 0.  1.
<scales pt_clust_4="550.00000" pt_clust_5="550.00000" pt_clust_6="30.12101"></scales>
<mgrwt>
<rscale>  0 0.30000000E+03</rscale>
<asrwt>  1 0.30121014E+02</asrwt>
<pdfrwt beam="1">  1        1 0.85285862E+00 0.30000000E+03</pdfrwt>
<pdfrwt beam="2">0</pdfrwt>
<totfact> 0.39330921E-04</totfact>
</mgrwt>
<clustering>
<clus scale="   30.121">  1  6  2 -1</clus>
<clus scale="  467.989">  4  5 -1 -1</clus>
<clus scale="  300.000">  1  4  2 -1</clus>
</clustering>
</event>
<event>
 6    1  0.9678510E-012  0.3000000E+03  0.7818608E-02  0.1093470E+00
          1   -1    0    0  502    0  0.00000000000E+00  0.00000000000E+00  0.23972785516E+03  0.23972785516E+03  0.00000000000E+00 0.  1.
         13   -1    0    0    0    0 -0.00000000000E+00 -0.00000000000E+00 -0.27500000000E+03  0.27500000000E+03  0.00000000000E+00 0.  1.
    9000005    2    1    2  501    0 -0.30285692157E+02 -0.10112696124E+01 -0.70785283103E+02  0.46804350227E+03  0.46166645741E+03 0.  0.
         13    1    3    3    0    0 -0.11014122638E+03 -0.76012454600E+02 -0.23512110267E+03  0.27053819680E+03  0.00000000000E+00 0.  1.
          1    1    3    3  501    0  0.79855534221E+02  0.75001184988E+02  0.16433581957E+03  0.19750530547E+03  0.00000000000E+00 0.  1.
         21    1    1    2  502  501  0.30285692157E+02  0.10112696124E+01  0.35513138259E+02  0.46684352889E+02  0.00000000000E+00 0.  1.
<scales pt_clust_4="550.00000" pt_clust_5="550.00000" pt_clust_6="30.30257"></scales>
<mgrwt>
<rscale>  0 0.30000000E+03</rscale>
<asrwt>  1 0.30302571E+02</asrwt>
<pdfrwt beam="1">  1        1 0.87173766E+00 0.30000000E+03</pdfrwt>
<pdfrwt beam="2">0</pdfrwt>
<totfact> 0.24984806E-04</totfact>
</mgrwt>
<clustering>
<clus scale="   30.303">  1  6  2 -1</clus>
<clus scale="  461.666">  4  5 -1 -1</clus>
<clus scale="  300.000">  1  4  2 -1</clus>
</clustering>
</event>
<event>
 6    1  0.9678510E-012  0.3000000E+03  0.7818608E-02  0.1093470E+00
          1   -1    0    0  502    0  0.00000000000E+00  0.00000000000E+00  0.22577920295E+03  0.22577920295E+03  0.00000000000E+00 0.  1.
         13   -1    0    0    0    0 -0.00000000000E+00 -0.00000000000E+00 -0.27500000000E+03  0.27500000000E+03  0.00000000000E+00 0.  1.
    9000005    2    1    2  501    0  0.11407574995E+02  0.30657652858E+02 -0.44402837497E+02  0.46771506557E+03  0.46445209241E+03 0.  0.
         13    1    3    3    0    0 -0.29258224787E+02  0.15158340420E+03 -0.20876618927E+03  0.25964763416E+03  0.00000000000E+00 0.  1.
          3    1    3    3  501    0  0.40665799781E+02 -0.12092575134E+03  0.16436335177E+03  0.20806743141E+03  0.00000000000E+00 0.  1.
         21    1    1    2  502  501 -0.11407574995E+02 -0.30657652858E+02 -0.48179595550E+01  0.33064137374E+02  0.00000000000E+00 0. -1.
<scales pt_clust_4="550.00000" pt_clust_5="550.00000" pt_clust_6="32.71124"></scales>
<mgrwt>
<rscale>  0 0.30000000E+03</rscale>
<asrwt>  1 0.32711244E+02</asrwt>
<pdfrwt beam="1">  1        1 0.82101528E+00 0.30000000E+03</pdfrwt>
<pdfrwt beam="2">0</pdfrwt>
<totfact> 0.71777572E-04</totfact>
</mgrwt>
<clustering>
<clus scale="   32.711">  1  6  2 -1</clus>
<clus scale="  464.452">  4  5 -1 -1</clus>
<clus scale="  300.000">  1  4  2 -1</clus>
</clustering>
</event>
<event>
 6    1  0.9678510E-012  0.3000000E+03  0.7818608E-02  0.1093470E+00
          1   -1    0    0  502    0  0.00000000000E+00  0.00000000000E+00  0.23540837911E+03  0.23540837911E+03  0.00000000000E+00 0.  1.
         13   -1    0    0    0    0 -0.00000000000E+00 -0.00000000000E+00 -0.27500000000E+03  0.27500000000E+03  0.00000000000E+00 0.  1.
    9000005    2    1    2  501    0  0.12531795715E+02  0.29776818416E+02 -0.37593292265E+02  0.47804021364E+03  0.47546344277E+03 0.  0.
         13    1    3    3    0    0  0.87078139802E+02 -0.13600669626E+03  0.14742805299E+03  0.21866745224E+03  0.00000000000E+00 0.  1.
          3    1    3    3  501    0 -0.74546344086E+02  0.16578351468E+03 -0.18502134525E+03  0.25937276140E+03  0.00000000000E+00 0.  1.
         21    1    1    2  502  501 -0.12531795715E+02 -0.29776818416E+02 -0.19983286260E+01  0.32368165473E+02  0.00000000000E+00 0.  1.
<scales pt_clust_4="550.00000" pt_clust_5="550.00000" pt_clust_6="32.30642"></scales>
<mgrwt>
<rscale>  0 0.30000000E+03</rscale>
<asrwt>  1 0.32306421E+02</asrwt>
<pdfrwt beam="1">  1        1 0.85603047E+00 0.30000000E+03</pdfrwt>
<pdfrwt beam="2">0</pdfrwt>
<totfact> 0.36119010E-04</totfact>
</mgrwt>
<clustering>
<clus scale="   32.306">  1  6  2 -1</clus>
<clus scale="  475.463">  4  5 -1 -1</clus>
<clus scale="  300.000">  1  4  2 -1</clus>
</clustering>
</event>
<event>
 6    1  0.9678510E-012  0.3000000E+03  0.7818608E-02  0.1093470E+00
          1   -1    0    0  502    0  0.00000000000E+00  0.00000000000E+00  0.22278843948E+03  0.22278843948E+03  0.00000000000E+00 0.  1.
         13   -1    0    0    0    0 -0.00000000000E+00 -0.00000000000E+00 -0.27500000000E+03  0.27500000000E+03  0.00000000000E+00 0.  1.
    9000005    2    1    2  501    0 -0.36659352738E+02 -0.52634819870E+01 -0.53543138030E+02  0.46072922356E+03  0.45610627866E+03 0.  0.
         13    1    3    3    0    0  0.32489309884E+02 -0.16664120614E+03 -0.17764436785E+03  0.24572824069E+03  0.00000000000E+00 0.  1.
          1    1    3    3  501    0 -0.69148662621E+02  0.16137772416E+03  0.12410122982E+03  0.21500098288E+03  0.00000000000E+00 0.  1.
         21    1    1    2  502  501  0.36659352738E+02  0.52634819870E+01  0.13315775120E+01  0.37059215918E+02  0.00000000000E+00 0. -1.
<scales pt_clust_4="550.00000" pt_clust_5="550.00000" pt_clust_6="37.03529"></scales>
<mgrwt>
<rscale>  0 0.30000000E+03</rscale>
<asrwt>  1 0.37035286E+02</asrwt>
<pdfrwt beam="1">  1        1 0.81013978E+00 0.30000000E+03</pdfrwt>
<pdfrwt beam="2">0</pdfrwt>
<totfact> 0.86085626E-04</totfact>
</mgrwt>
<clustering>
<clus scale="   37.035">  1  6  2 -1</clus>
<clus scale="  456.106">  4  5 -1 -1</clus>
<clus scale="  300.000">  1  4  2 -1</clus>
</clustering>
</event>
<event>
 6    1  0.9678510E-012  0.3000000E+03  0.7818608E-02  0.1093470E+00
          1   -1    0    0  502    0  0.00000000000E+00  0.00000000000E+00  0.24568044773E+03  0.24568044773E+03  0.00000000000E+00 0.  1.
         13   -1    0    0    0    0 -0.00000000000E+00 -0.00000000000E+00 -0.27500000000E+03  0.27500000000E+03  0.00000000000E+00 0.  1.
    9000005    2    1    2  501    0 -0.28569223309E+02  0.11167897984E+02 -0.53820890157E+02  0.48142184327E+03  0.47741950159E+03 0.  0.
         13    1    3    3    0    0 -0.51267639902E+02 -0.16797988268E+02 -0.26335014882E+03  0.26881935235E+03  0.00000000000E+00 0.  1.
          1    1    3    3  501    0  0.22698416592E+02  0.27965886251E+02  0.20952925867E+03  0.21260249092E+03  0.00000000000E+00 0.  1.
         21    1    1    2  502  501  0.28569223309E+02 -0.11167897984E+02  0.24501337892E+02  0.39258604463E+02  0.00000000000E+00 0.  1.
<scales pt_clust_4="550.00000" pt_clust_5="550.00000" pt_clust_6="30.67446"></scales>
<mgrwt>
<rscale>  0 0.30000000E+03</rscale>
<asrwt>  1 0.30674460E+02</asrwt>
<pdfrwt beam="1">  1        1 0.89338345E+00 0.30000000E+03</pdfrwt>
<pdfrwt beam="2">0</pdfrwt>
<totfact> 0.13488593E-04</totfact>
</mgrwt>
<clustering>
<clus scale="   30.674">  1  6  2 -1</clus>
<clus scale="  477.420">  4  5 -1 -1</clus>
<clus scale="  300.000">  1  4  2 -1</clus>
</clustering>
</event>
<event>
 6    1  0.9678510E-012  0.3000000E+03  0.7818608E-02  0.1093470E+00
          1   -1    0    0  502    0  0.00000000000E+00  0.00000000000E+00  0.24896278654E+03  0.24896278654E+03  0.00000000000E+00 0.  1.
         13   -1    0    0    0    0 -0.00000000000E+00 -0.00000000000E+00 -0.27500000000E+03  0.27500000000E+03  0.00000000000E+00 0.  1.
    9000005    2    1    2  501    0  0.28899796332E+02 -0.94765152761E+01 -0.46968737697E+02  0.48704217879E+03  0.48381713387E+03 0.  0.
         13    1    3    3    0    0 -0.33548397839E+02  0.23132063244E+03 -0.46279251444E+02  0.23827819688E+03  0.00000000000E+00 0.  1.
          3    1    3    3  501    0  0.62448194172E+02 -0.24079714772E+03 -0.68948625364E+00  0.24876398191E+03  0.00000000000E+00 0.  1.
         21    1    1    2  502  501 -0.28899796332E+02  0.94765152761E+01  0.20931524234E+02  0.36920607749E+02  0.00000000000E+00 0. -1.
<scales pt_clust_4="550.00000" pt_clust_5="550.00000" pt_clust_6="30.41385"></scales>
<mgrwt>
<rscale>  0 0.30000000E+03</rscale>
<asrwt>  1 0.30413855E+02</asrwt>
<pdfrwt beam="1">  1        1 0.90531922E+00 0.30000000E+03</pdfrwt>
<pdfrwt beam="2">0</pdfrwt>
<totfact> 0.93633913E-05</totfact>
</mgrwt>
<clustering>
<clus scale="   30.414">  1  6  2 -1</clus>
<clus scale="  483.817">  4  5 -1 -1</clus>
<clus scale="  300.000">  1  4  2 -1</clus>
</clustering>
</event>
<event>
 6    1  0.9678510E-012  0.3000000E+03  0.7818608E-02  0.1093470E+00
          1   -1    0    0  502    0  0.00000000000E+00  0.00000000000E+00  0.23452823477E+03  0.23452823477E+03  0.00000000000E+00 0.  1.
         13   -1    0    0    0    0 -0.00000000000E+00 -0.00000000000E+00 -0.27500000000E+03  0.27500000000E+03  0.00000000000E+00 0.  1.
    9000005    2    1    2  501    0  0.38364714602E+01 -0.38305269700E+02 -0.46044098625E+02  0.47063012300E+03  0.46678757637E+03 0.  0.
         13    1    3    3    0    0 -0.23130116625E+03 -0.13071192025E+02 -0.15667151531E+02  0.23219936521E+03  0.00000000000E+00 0.  1.
          1    1    3    3  501    0  0.23513763771E+03 -0.25234077675E+02 -0.30376947094E+02  0.23843075779E+03  0.00000000000E+00 0.  1.
         21    1    1    2  502  501 -0.38364714602E+01  0.38305269700E+02  0.55723333993E+01  0.38898111774E+02  0.00000000000E+00 0.  1.
<scales pt_clust_4="550.00000" pt_clust_5="550.00000" pt_clust_6="38.49691"></scales>
<mgrwt>
<rscale>  0 0.30000000E+03</rscale>
<asrwt>  1 0.38496912E+02</asrwt>
<pdfrwt beam="1">  1        1 0.85282994E+00 0.30000000E+03</pdfrwt>
<pdfrwt beam="2">0</pdfrwt>
<totfact> 0.37581406E-04</totfact>
</mgrwt>
<clustering>
<clus scale="   38.497">  1  6  2 -1</clus>
<clus scale="  466.788">  4  5 -1 -1</clus>
<clus scale="  300.000">  1  4  2 -1</clus>
</clustering>
</event>
<event>
 6    1  0.9678510E-012  0.3000000E+03  0.7818608E-02  0.1093470E+00
          1   -1    0    0  502    0  0.00000000000E+00  0.00000000000E+00  0.25925992911E+03  0.25925992911E+03  0.00000000000E+00 0.  1.
         13   -1    0    0    0    0 -0.00000000000E+00 -0.00000000000E+00 -0.27500000000E+03  0.27500000000E+03  0.00000000000E+00 0.  1.
    9000005    2    1    2  501    0  0.70044284582E+01  0.32598648525E+02 -0.21420266516E+02  0.50043688185E+03  0.49886522328E+03 0.  0.
         13    1    3    3    0    0 -0.63941726586E+02  0.33963719737E+02  0.22899172495E+03  0.24016512809E+03  0.00000000000E+00 0.  1.
          3    1    3    3  501    0  0.70946155044E+02 -0.13650712119E+01 -0.25041199146E+03  0.26027175376E+03  0.00000000000E+00 0.  1.
         21    1    1    2  502  501 -0.70044284582E+01 -0.32598648525E+02  0.56801956305E+01  0.33823047262E+02  0.00000000000E+00 0. -1.
<scales pt_clust_4="550.00000" pt_clust_5="550.00000" pt_clust_6="33.34267"></scales>
<mgrwt>
<rscale>  0 0.30000000E+03</rscale>
<asrwt>  1 0.33342674E+02</asrwt>
<pdfrwt beam="1">  1        1 0.94276338E+00 0.30000000E+03</pdfrwt>
<pdfrwt beam="2">0</pdfrwt>
<totfact> 0.17285940E-05</totfact>
</mgrwt>
<clustering>
<clus scale="   33.343">  1  6  2 -1</clus>
<clus scale="  498.865">  4  5 -1 -1</clus>
<clus scale="  300.000">  1  4  2 -1</clus>
</clustering>
</event>
<event>
 6    1  0.9678510E-012  0.3000000E+03  0.7818608E-02  0.1093470E+00
          1   -1    0    0  502    0  0.00000000000E+00  0.00000000000E+00  0.22880963954E+03  0.22880963954E+03  0.00000000000E+00 0.  1.
         13   -1    0    0    0    0 -0.00000000000E+00 -0.00000000000E+00 -0.27500000000E+03  0.27500000000E+03  0.00000000000E+00 0.  1.
    9000005    2    1    2  501    0  0.24966283184E+02 -0.18547388101E+02 -0.64575212578E+02  0.46768037593E+03  0.46215544468E+03 0.  0.
         13    1    3    3    0    0  0.10665914022E+03  0.11967248480E+03 -0.20092581642E+03  0.25703863429E+03  0.00000000000E+00 0.  1.
          1    1    3    3  501    0 -0.81692857032E+02 -0.13821987290E+03  0.13635060385E+03  0.21064174165E+03  0.00000000000E+00 0.  1.
         21    1    1    2  502  501 -0.24966283184E+02  0.18547388101E+02  0.18384852117E+02  0.36129263606E+02  0.00000000000E+00 0.  1.
<scales pt_clust_4="550.00000" pt_clust_5="550.00000" pt_clust_6="31.10178"></scales>
<mgrwt>
<rscale>  0 0.30000000E+03</rscale>
<asrwt>  1 0.31101783E+02</asrwt>
<pdfrwt beam="1">  1        1 0.83203505E+00 0.30000000E+03</pdfrwt>
<pdfrwt beam="2">0</pdfrwt>
<totfact> 0.58218598E-04</totfact>
</mgrwt>
<clustering>
<clus scale="   31.102">  1  6  2 -1</clus>
<clus scale="  462.155">  4  5 -1 -1</clus>
<clus scale="  300.000">  1  4  2 -1</clus>
</clustering>
</event>
<event>
 6    1  0.9678510E-012  0.3000000E+03  0.7818608E-02  0.1093470E+00
          1   -1    0    0  502    0  0.00000000000E+00  0.00000000000E+00  0.23856561618E+03  0.23856561618E+03  0.00000000000E+00 0.  1.
         13   -1    0    0    0    0 -0.00000000000E+00 -0.00000000000E+00 -0.27500000000E+03  0.27500000000E+03  0.00000000000E+00 0.  1.
    9000005    2    1    2  501    0 -0.28748949017E+02  0.23601546909E+02 -0.66457565428E+02  0.46576471117E+03  0.45949605339E+03 0.  0.
         13    1    3    3    0    0 -0.42398751691E+02  0.13591397709E+03 -0.22784499064E+03  0.26867006359E+03  0.00000000000E+00 0.  1.
          1    1    3    3  501    0  0.13649802674E+02 -0.11231243018E+03  0.16138742521E+03  0.19709464757E+03  0.00000000000E+00 0.  1.
         21    1    1    2  502  501  0.28748949017E+02 -0.23601546909E+02  0.30023181606E+02  0.47800905011E+02  0.00000000000E+00 0.  1.
<scales pt_clust_4="550.00000" pt_clust_5="550.00000" pt_clust_6="37.19590"></scales>
<mgrwt>
<rscale>  0 0.30000000E+03</rscale>
<asrwt>  1 0.37195901E+02</asrwt>
<pdfrwt beam="1">  1        1 0.86751133E+00 0.30000000E+03</pdfrwt>
<pdfrwt beam="2">0</pdfrwt>
<totfact> 0.26565558E-04</totfact>
</mgrwt>
<clustering>
<clus scale="   37.196">  1  6  2 -1</clus>
<clus scale="  459.496">  4  5 -1 -1</clus>
<clus scale="  300.000">  1  4  2 -1</clus>
</clustering>
</event>
<event>
 6    1  0.9678510E-012  0.3000000E+03  0.7818608E-02  0.1093470E+00
          1   -1    0    0  502    0  0.00000000000E+00  0.00000000000E+00  0.22871740181E+03  0.22871740181E+03  0.00000000000E+00 0.  1.
         13   -1    0    0    0    0 -0.00000000000E+00 -0.00000000000E+00 -0.27500000000E+03  0.27500000000E+03  0.00000000000E+00 0.  1.
    9000005    2    1    2  501    0 -0.27526950029E+02 -0.13466611935E+02 -0.60019095085E+02  0.47013505582E+03  0.46528012672E+03 0.  0.
         13    1    3    3    0    0  0.19719441324E+03  0.81932119720E+02  0.16810500608E+02  0.21419874366E+03  0.00000000000E+00 0.  1.
          3    1    3    3  501    0 -0.22472136327E+03 -0.95398731655E+02 -0.76829595693E+02  0.25593631216E+03  0.00000000000E+00 0.  1.
         21    1    1    2  502  501  0.27526950029E+02  0.13466611935E+02  0.13736496892E+02  0.33582345984E+02  0.00000000000E+00 0.  1.
<scales pt_clust_4="550.00000" pt_clust_5="550.00000" pt_clust_6="30.64445"></scales>
<mgrwt>
<rscale>  0 0.30000000E+03</rscale>
<asrwt>  1 0.30644455E+02</asrwt>
<pdfrwt beam="1">  1        1 0.83169964E+00 0.30000000E+03</pdfrwt>
<pdfrwt beam="2">0</pdfrwt>
<totfact> 0.58735265E-04</totfact>
</mgrwt>
<clustering>
<clus scale="   30.644">  1  6  2 -1</clus>
<clus scale="  465.280">  4  5 -1 -1</clus>
<clus scale="  300.000">  1  4  2 -1</clus>
</clustering>
</event>
<event>
 6    1  0.9678510E-012  0.3000000E+03  0.7818608E-02  0.1093470E+00
          1   -1    0    0  502    0  0.00000000000E+00  0.00000000000E+00  0.24571294778E+03  0.24571294778E+03  0.00000000000E+00 0.  1.
         13   -1    0    0    0    0 -0.00000000000E+00 -0.00000000000E+00 -0.27500000000E+03  0.27500000000E+03  0.00000000000E+00 0.  1.
    9000005    2    1    2  501    0  0.30170006230E+02 -0.70353725960E+01 -0.64931624006E+02  0.47348730600E+03  0.46798973002E+03 0.  0.
         13    1    3    3    0    0  0.10679888733E+03  0.13727275272E+03 -0.19743815618E+03  0.26311905383E+03  0.00000000000E+00 0.  1.
          1    1    3    3  501    0 -0.76628881103E+02 -0.14430812532E+03  0.13250653217E+03  0.21036825217E+03  0.00000000000E+00 0.  1.
         21    1    1    2  502  501 -0.30170006230E+02  0.70353725960E+01  0.35644571788E+02  0.47225641779E+02  0.00000000000E+00 0. -1.
<scales pt_clust_4="550.00000" pt_clust_5="550.00000" pt_clust_6="30.97944"></scales>
<mgrwt>
<rscale>  0 0.30000000E+03</rscale>
<asrwt>  1 0.30979441E+02</asrwt>
<pdfrwt beam="1">  1        1 0.89350163E+00 0.30000000E+03</pdfrwt>
<pdfrwt beam="2">0</pdfrwt>
<totfact> 0.13420546E-04</totfact>
</mgrwt>
<clustering>
<clus scale="   30.979">  1  6  2 -1</clus>
<clus scale="  467.990">  4  5 -1 -1</clus>
<clus scale="  300.000">  1  4  2 -1</clus>
</clustering>
</event>
<event>
 6    1  0.9678510E-012  0.3000000E+03  0.7818608E-02  0.1093470E+00
          1   -1    0    0  502    0  0.00000000000E+00  0.00000000000E+00  0.24544702039E+03  0.24544702039E+03  0.00000000000E+00 0.  1.
         13   -1    0    0    0    0 -0.00000000000E+00 -0.00000000000E+00 -0.27500000000E+03  0.27500000000E+03  0.00000000000E+00 0.  1.
    9000005    2    1    2  501    0  0.16598059368E+02 -0.32107868031E+02 -0.44694847723E+02  0.48125917873E+03  0.47781414476E+03 0.  0.
         13    1    3    3    0    0  0.13122393890E+03  0.40957350626E+02  0.17522952384E+03  0.22271644020E+03  0.00000000000E+00 0.  1.
          1    1    3    3  501    0 -0.11462587954E+03 -0.73065218656E+02 -0.21992437156E+03  0.25854273852E+03  0.00000000000E+00 0.  1.
         21    1    1    2  502  501 -0.16598059368E+02  0.32107868031E+02  0.15141868113E+02  0.39187841663E+02  0.00000000000E+00 0. -1.
<scales pt_clust_4="550.00000" pt_clust_5="550.00000" pt_clust_6="36.14430"></scales>
<mgrwt>
<rscale>  0 0.30000000E+03</rscale>
<asrwt>  1 0.36144305E+02</asrwt>
<pdfrwt beam="1">  1        1 0.89253462E+00 0.30000000E+03</pdfrwt>
<pdfrwt beam="2">0</pdfrwt>
<totfact> 0.13382427E-04</totfact>
</mgrwt>
<clustering>
<clus scale="   36.144">  1  6  2 -1</clus>
<clus scale="  477.814">  4  5 -1 -1</clus>
<clus scale="  300.000">  1  4  2 -1</clus>
</clustering>
</event>
<event>
 6    1  0.9678510E-012  0.3000000E+03  0.7818608E-02  0.1093470E+00
          1   -1    0    0  502    0  0.00000000000E+00  0.00000000000E+00  0.22495372629E+03  0.22495372629E+03  0.00000000000E+00 0.  1.
         13   -1    0    0    0    0 -0.00000000000E+00 -0.00000000000E+00 -0.27500000000E+03  0.27500000000E+03  0.00000000000E+00 0.  1.
    9000005    2    1    2  501    0  0.12505205094E+02 -0.35313858367E+02 -0.52830879298E+02  0.46238774733E+03  0.45782952977E+03 0.  0.
         13    1    3    3    0    0 -0.54814664200E+02  0.60924602391E+02  0.18212399561E+03  0.19971380615E+03  0.00000000000E+00 0.  1.
          3    1    3    3  501    0  0.67319869294E+02 -0.96238460758E+02 -0.23495487491E+03  0.26267394118E+03  0.00000000000E+00 0.  1.
         21    1    1    2  502  501 -0.12505205094E+02  0.35313858367E+02  0.27846055921E+01  0.37565978964E+02  0.00000000000E+00 0.  1.
<scales pt_clust_4="550.00000" pt_clust_5="550.00000" pt_clust_6="37.46263"></scales>
<mgrwt>
<rscale>  0 0.30000000E+03</rscale>
<asrwt>  1 0.37462631E+02</asrwt>
<pdfrwt beam="1">  1        1 0.81801355E+00 0.30000000E+03</pdfrwt>
<pdfrwt beam="2">0</pdfrwt>
<totfact> 0.74257546E-04</totfact>
</mgrwt>
<clustering>
<clus scale="   37.463">  1  6  2 -1</clus>
<clus scale="  457.830">  4  5 -1 -1</clus>
<clus scale="  300.000">  1  4  2 -1</clus>
</clustering>
</event>
<event>
 6    1  0.9678510E-012  0.3000000E+03  0.7818608E-02  0.1093470E+00
          1   -1    0    0  502    0  0.00000000000E+00  0.00000000000E+00  0.22217386177E+03  0.22217386177E+03  0.00000000000E+00 0.  1.
         13   -1    0    0    0    0 -0.00000000000E+00 -0.00000000000E+00 -0.27500000000E+03  0.27500000000E+03  0.00000000000E+00 0.  1.
    9000005    2    1    2  501    0 -0.21745089294E+02 -0.23152514122E+02 -0.59112617999E+02  0.46479473815E+03  0.45992494951E+03 0.  0.
         13    1    3    3    0    0 -0.98018890258E+02  0.19287116722E+03 -0.88645118356E+02  0.23380536136E+03  0.00000000000E+00 0.  1.
          1    1    3    3  501    0  0.76273800964E+02 -0.21602368134E+03  0.29532500357E+02  0.23098937679E+03  0.00000000000E+00 0.  1.
         21    1    1    2  502  501  0.21745089294E+02  0.23152514122E+02  0.62864797667E+01  0.32379123620E+02  0.00000000000E+00 0.  1.
<scales pt_clust_4="550.00000" pt_clust_5="550.00000" pt_clust_6="31.76299"></scales>
<mgrwt>
<rscale>  0 0.30000000E+03</rscale>
<asrwt>  1 0.31762994E+02</asrwt>
<pdfrwt beam="1">  1        1 0.80790495E+00 0.30000000E+03</pdfrwt>
<pdfrwt beam="2">0</pdfrwt>
<totfact> 0.92211307E-04</totfact>
</mgrwt>
<clustering>
<clus scale="   31.763">  1  6  2 -1</clus>
<clus scale="  459.925">  4  5 -1 -1</clus>
<clus scale="  300.000">  1  4  2 -1</clus>
</clustering>
</event>
<event>
 6    1  0.9678510E-012  0.3000000E+03  0.7818608E-02  0.1093470E+00
          1   -1    0    0  502    0  0.00000000000E+00  0.00000000000E+00  0.25852324587E+03  0.25852324587E+03  0.00000000000E+00 0.  1.
         13   -1    0    0    0    0 -0.00000000000E+00 -0.00000000000E+00 -0.27500000000E+03  0.27500000000E+03  0.00000000000E+00 0.  1.
    9000005    2    1    2  501    0 -0.18191750280E+02  0.27882094234E+02 -0.16151423259E+02  0.50022975105E+03  0.49885928317E+03 0.  0.
         13    1    3    3    0    0  0.11862974644E+03 -0.28134313432E+02 -0.21814955272E+03  0.24990755028E+03  0.00000000000E+00 0.  1.
          3    1    3    3  501    0 -0.13682149672E+03  0.56016407666E+02  0.20199812946E+03  0.25032220077E+03  0.00000000000E+00 0.  1.
         21    1    1    2  502  501  0.18191750280E+02 -0.27882094234E+02 -0.32533087451E+00  0.33293494820E+02  0.00000000000E+00 0. -1.
<scales pt_clust_4="550.00000" pt_clust_5="550.00000" pt_clust_6="33.29191"></scales>
<mgrwt>
<rscale>  0 0.30000000E+03</rscale>
<asrwt>  1 0.33291905E+02</asrwt>
<pdfrwt beam="1">  1        1 0.94008453E+00 0.30000000E+03</pdfrwt>
<pdfrwt beam="2">0</pdfrwt>
<totfact> 0.19275048E-05</totfact>
</mgrwt>
<clustering>
<clus scale="   33.292">  1  6  2 -1</clus>
<clus scale="  498.859">  4  5 -1 -1</clus>
<clus scale="  300.000">  1  4  2 -1</clus>
</clustering>
</event>
<event>
 6    1  0.9678510E-012  0.3000000E+03  0.7818608E-02  0.1093470E+00
          1   -1    0    0  502    0  0.00000000000E+00  0.00000000000E+00  0.23355816366E+03  0.23355816366E+03  0.00000000000E+00 0.  1.
         13   -1    0    0    0    0 -0.00000000000E+00 -0.00000000000E+00 -0.27500000000E+03  0.27500000000E+03  0.00000000000E+00 0.  1.
    9000005    2    1    2  501    0 -0.10602948554E+02 -0.29281391359E+02 -0.53266954734E+02  0.47524666680E+03  0.47122415414E+03 0.  0.
         13    1    3    3    0    0  0.15345569853E+03  0.15791832690E+03 -0.52326861177E+02  0.22632929502E+03  0.00000000000E+00 0.  1.
          3    1    3    3  501    0 -0.16405864708E+03 -0.18719971826E+03 -0.94009355632E+00  0.24891737178E+03  0.00000000000E+00 0.  1.
         21    1    1    2  502  501  0.10602948554E+02  0.29281391359E+02  0.11825118397E+02  0.33311496860E+02  0.00000000000E+00 0. -1.
<scales pt_clust_4="550.00000" pt_clust_5="550.00000" pt_clust_6="31.14197"></scales>
<mgrwt>
<rscale>  0 0.30000000E+03</rscale>
<asrwt>  1 0.31141972E+02</asrwt>
<pdfrwt beam="1">  1        1 0.84930241E+00 0.30000000E+03</pdfrwt>
<pdfrwt beam="2">0</pdfrwt>
<totfact> 0.42236683E-04</totfact>
</mgrwt>
<clustering>
<clus scale="   31.142">  1  6  2 -1</clus>
<clus scale="  471.224">  4  5 -1 -1</clus>
<clus scale="  300.000">  1  4  2 -1</clus>
</clustering>
</event>
<event>
 6    1  0.9678510E-012  0.3000000E+03  0.7818608E-02  0.1093470E+00
          1   -1    0    0  502    0  0.00000000000E+00  0.00000000000E+00  0.24430013536E+03  0.24430013536E+03  0.00000000000E+00 0.  1.
         13   -1    0    0    0    0 -0.00000000000E+00 -0.00000000000E+00 -0.27500000000E+03  0.27500000000E+03  0.00000000000E+00 0.  1.
    9000005    2    1    2  501    0 -0.13617160962E+02  0.31944620159E+02 -0.51830615524E+02  0.47865048023E+03  0.47456715403E+03 0.  0.
         13    1    3    3    0    0  0.85062320125E+02 -0.20182591271E+03  0.30442272764E+01  0.21904009831E+03  0.00000000000E+00 0.  1.
          1    1    3    3  501    0 -0.98679481087E+02  0.23377053287E+03 -0.54874842801E+02  0.25961038192E+03  0.00000000000E+00 0.  1.
         21    1    1    2  502  501  0.13617160962E+02 -0.31944620159E+02  0.21130750888E+02  0.40649655138E+02  0.00000000000E+00 0.  1.
<scales pt_clust_4="550.00000" pt_clust_5="550.00000" pt_clust_6="34.72587"></scales>
<mgrwt>
<rscale>  0 0.30000000E+03</rscale>
<asrwt>  1 0.34725867E+02</asrwt>
<pdfrwt beam="1">  1        1 0.88836413E+00 0.30000000E+03</pdfrwt>
<pdfrwt beam="2">0</pdfrwt>
<totfact> 0.15275541E-04</totfact>
</mgrwt>
<clustering>
<clus scale="   34.726">  1  6  2 -1</clus>
<clus scale="  474.567">  4  5 -1 -1</clus>
<clus scale="  300.000">  1  4  2 -1</clus>
</clustering>
</event>
<event>
 6    1  0.9678510E-012  0.3000000E+03  0.7818608E-02  0.1093470E+00
          1   -1    0    0  502    0  0.00000000000E+00  0.00000000000E+00  0.22906877109E+03  0.22906877109E+03  0.00000000000E+00 0.  1.
         13   -1    0    0    0    0 -0.00000000000E+00 -0.00000000000E+00 -0.27500000000E+03  0.27500000000E+03  0.00000000000E+00 0.  1.
    9000005    2    1    2  501    0  0.36315961323E+02 -0.55931144481E+00 -0.56392287503E+02  0.46627200373E+03  0.46142207305E+03 0.  0.
         13    1    3    3    0    0  0.11577348761E+03  0.18400946813E+03 -0.12878649243E+03  0.25268348863E+03  0.00000000000E+00 0.  1.
          3    1    3    3  501    0 -0.79457526284E+02 -0.18456877957E+03  0.72394204924E+02  0.21358851510E+03  0.00000000000E+00 0.  1.
         21    1    1    2  502  501 -0.36315961323E+02  0.55931144481E+00  0.10461058595E+02  0.37796767362E+02  0.00000000000E+00 0.  1.
<scales pt_clust_4="550.00000" pt_clust_5="550.00000" pt_clust_6="36.32027"></scales>
<mgrwt>
<rscale>  0 0.30000000E+03</rscale>
<asrwt>  1 0.36320268E+02</asrwt>
<pdfrwt beam="1">  1        1 0.83297735E+00 0.30000000E+03</pdfrwt>
<pdfrwt beam="2">0</pdfrwt>
<totfact> 0.55612468E-04</totfact>
</mgrwt>
<clustering>
<clus scale="   36.320">  1  6  2 -1</clus>
<clus scale="  461.422">  4  5 -1 -1</clus>
<clus scale="  300.000">  1  4  2 -1</clus>
</clustering>
</event>
<event>
 6    1  0.9678510E-012  0.3000000E+03  0.7818608E-02  0.1093470E+00
          1   -1    0    0  502    0  0.00000000000E+00  0.00000000000E+00  0.22844262015E+03  0.22844262015E+03  0.00000000000E+00 0.  1.
         13   -1    0    0    0    0 -0.00000000000E+00 -0.00000000000E+00 -0.27500000000E+03  0.27500000000E+03  0.00000000000E+00 0.  1.
    9000005    2    1    2  501    0 -0.33241337211E+02 -0.87067928453E+01 -0.67735895572E+02  0.46307773108E+03  0.45680634708E+03 0.  0.
         13    1    3    3    0    0  0.63127791047E+02  0.20126477297E+03  0.28414350781E+02  0.21283797164E+03  0.00000000000E+00 0.  1.
          1    1    3    3  501    0 -0.96369128258E+02 -0.20997156582E+03 -0.96150246353E+02  0.25023975944E+03  0.00000000000E+00 0.  1.
         21    1    1    2  502  501  0.33241337211E+02  0.87067928453E+01  0.21178515725E+02  0.40364889069E+02  0.00000000000E+00 0. -1.
<scales pt_clust_4="550.00000" pt_clust_5="550.00000" pt_clust_6="34.36269"></scales>
<mgrwt>
<rscale>  0 0.30000000E+03</rscale>
<asrwt>  1 0.34362694E+02</asrwt>
<pdfrwt beam="1">  1        1 0.83070044E+00 0.30000000E+03</pdfrwt>
<pdfrwt beam="2">0</pdfrwt>
<totfact> 0.58530478E-04</totfact>
</mgrwt>
<clustering>
<clus scale="   34.363">  1  6  2 -1</clus>
<clus scale="  456.806">  4  5 -1 -1</clus>
<clus scale="  300.000">  1  4  2 -1</clus>
</clustering>
</event>
<event>
 6    1  0.9678510E-012  0.3000000E+03  0.7818608E-02  0.1093470E+00
          1   -1    0    0  502    0  0.00000000000E+00  0.00000000000E+00  0.23646114495E+03  0.23646114495E+03  0.00000000000E+00 0.  1.
         13   -1    0    0    0    0 -0.00000000000E+00 -0.00000000000E+00 -0.27500000000E+03  0.27500000000E+03  0.00000000000E+00 0.  1.
    9000005    2    1    2  501    0  0.21368116429E+02 -0.29062287260E+02 -0.44715667705E+01  0.46184468527E+03  0.46041210395E+03 0.  0.
         13    1    3    3    0    0 -0.14355784463E+03 -0.72868370935E+02 -0.16287412851E+03  0.22901230529E+03  0.00000000000E+00 0.  1.
          3    1    3    3  501    0  0.16492596106E+03  0.43806083675E+02  0.15840256174E+03  0.23283237998E+03  0.00000000000E+00 0.  1.
         21    1    1    2  502  501 -0.21368116429E+02  0.29062287260E+02 -0.34067288279E+02  0.49616459680E+02  0.00000000000E+00 0.  1.
<scales pt_clust_4="550.00000" pt_clust_5="550.00000" pt_clust_6="36.07235"></scales>
<mgrwt>
<rscale>  0 0.30000000E+03</rscale>
<asrwt>  1 0.36072347E+02</asrwt>
<pdfrwt beam="1">  1        1 0.85985871E+00 0.30000000E+03</pdfrwt>
<pdfrwt beam="2">0</pdfrwt>
<totfact> 0.32276570E-04</totfact>
</mgrwt>
<clustering>
<clus scale="   36.072">  1  6  2 -1</clus>
<clus scale="  460.412">  4  5 -1 -1</clus>
<clus scale="  300.000">  1  4  2 -1</clus>
</clustering>
</event>
<event>
 6    1  0.9678510E-012  0.3000000E+03  0.7818608E-02  0.1093470E+00
          1   -1    0    0  502    0  0.00000000000E+00  0.00000000000E+00  0.22820228497E+03  0.22820228497E+03  0.00000000000E+00 0.  1.
         13   -1    0    0    0    0 -0.00000000000E+00 -0.00000000000E+00 -0.27500000000E+03  0.27500000000E+03  0.00000000000E+00 0.  1.
    9000005    2    1    2  501    0 -0.91041031887E+01 -0.28789612233E+02 -0.49591468878E+02  0.47287850671E+03  0.46930058795E+03 0.  0.
         13    1    3    3    0    0 -0.10637574276E+03 -0.47379294681E+02 -0.23523016495E+03  0.26247633553E+03  0.00000000000E+00 0.  1.
          1    1    3    3  501    0  0.97271639568E+02  0.18589682448E+02  0.18563869607E+03  0.21040217118E+03  0.00000000000E+00 0.  1.
         21    1    1    2  502  501  0.91041031887E+01  0.28789612233E+02  0.27937538430E+01  0.30323778260E+02  0.00000000000E+00 0.  1.
<scales pt_clust_4="550.00000" pt_clust_5="550.00000" pt_clust_6="30.19481"></scales>
<mgrwt>
<rscale>  0 0.30000000E+03</rscale>
<asrwt>  1 0.30194809E+02</asrwt>
<pdfrwt beam="1">  1        1 0.82982649E+00 0.30000000E+03</pdfrwt>
<pdfrwt beam="2">0</pdfrwt>
<totfact> 0.60981115E-04</totfact>
</mgrwt>
<clustering>
<clus scale="   30.195">  1  6  2 -1</clus>
<clus scale="  469.301">  4  5 -1 -1</clus>
<clus scale="  300.000">  1  4  2 -1</clus>
</clustering>
</event>
<event>
 6    1  0.9678510E-012  0.3000000E+03  0.7818608E-02  0.1093470E+00
          1   -1    0    0  502    0  0.00000000000E+00  0.00000000000E+00  0.22918446316E+03  0.22918446316E+03  0.00000000000E+00 0.  1.
         13   -1    0    0    0    0 -0.00000000000E+00 -0.00000000000E+00 -0.27500000000E+03  0.27500000000E+03  0.00000000000E+00 0.  1.
    9000005    2    1    2  501    0  0.22164657855E+02  0.20388368083E+02 -0.67923005935E+02  0.46682542408E+03  0.46087469471E+03 0.  0.
         13    1    3    3    0    0  0.22521899231E+03 -0.75142576708E+02 -0.32269684386E+02  0.23960662316E+03  0.00000000000E+00 0.  1.
          3    1    3    3  501    0 -0.20305433446E+03  0.95530944792E+02 -0.35653321549E+02  0.22721880092E+03  0.00000000000E+00 0.  1.
         21    1    1    2  502  501 -0.22164657855E+02 -0.20388368083E+02  0.22107469095E+02  0.37359039076E+02  0.00000000000E+00 0. -1.
<scales pt_clust_4="550.00000" pt_clust_5="550.00000" pt_clust_6="30.11574"></scales>
<mgrwt>
<rscale>  0 0.30000000E+03</rscale>
<asrwt>  1 0.30115737E+02</asrwt>
<pdfrwt beam="1">  1        1 0.83339805E+00 0.30000000E+03</pdfrwt>
<pdfrwt beam="2">0</pdfrwt>
<totfact> 0.57199556E-04</totfact>
</mgrwt>
<clustering>
<clus scale="   30.116">  1  6  2 -1</clus>
<clus scale="  460.875">  4  5 -1 -1</clus>
<clus scale="  300.000">  1  4  2 -1</clus>
</clustering>
</event>
<event>
 6    1  0.9678510E-012  0.3000000E+03  0.7818608E-02  0.1093470E+00
          1   -1    0    0  502    0  0.00000000000E+00  0.00000000000E+00  0.24027792172E+03  0.24027792172E+03  0.00000000000E+00 0.  1.
         13   -1    0    0    0    0 -0.00000000000E+00 -0.00000000000E+00 -0.27500000000E+03  0.27500000000E+03  0.00000000000E+00 0.  1.
    9000005    2    1    2  501    0  0.25530739272E+02  0.27666807761E+02 -0.26757841113E+02  0.47679805721E+03  0.47455572317E+03 0.  0.
         13    1    3    3    0    0 -0.48231897668E+02  0.79195933623E+02 -0.23354661033E+03  0.25128137824E+03  0.00000000000E+00 0.  1.
          1    1    3    3  501    0  0.73762636940E+02 -0.51529125863E+02  0.20678876921E+03  0.22551667897E+03  0.00000000000E+00 0.  1.
         21    1    1    2  502  501 -0.25530739272E+02 -0.27666807761E+02 -0.79642371651E+01  0.38479864515E+02  0.00000000000E+00 0.  1.
<scales pt_clust_4="550.00000" pt_clust_5="550.00000" pt_clust_6="37.64668"></scales>
<mgrwt>
<rscale>  0 0.30000000E+03</rscale>
<asrwt>  1 0.37646677E+02</asrwt>
<pdfrwt beam="1">  1        1 0.87373790E+00 0.30000000E+03</pdfrwt>
<pdfrwt beam="2">0</pdfrwt>
<totfact> 0.22875544E-04</totfact>
</mgrwt>
<clustering>
<clus scale="   37.647">  1  6  2 -1</clus>
<clus scale="  474.556">  4  5 -1 -1</clus>
<clus scale="  300.000">  1  4  2 -1</clus>
</clustering>
</event>
<event>
 6    1  0.9678510E-012  0.3000000E+03  0.7818608E-02  0.1093470E+00
          1   -1    0    0  502    0  0.00000000000E+00  0.00000000000E+00  0.23197604335E+03  0.23197604335E+03  0.00000000000E+00 0.  1.
         13   -1    0    0    0    0 -0.00000000000E+00 -0.00000000000E+00 -0.27500000000E+03  0.27500000000E+03  0.00000000000E+00 0.  1.
    9000005    2    1    2  501    0 -0.22610753673E+02 -0.33481596151E+02 -0.54469849157E+02  0.46498471189E+03  0.46001255892E+03 0.  0.
         13    1    3    3    0    0  0.22940028458E+02 -0.72235273051E+01  0.20187547991E+03  0.20330305861E+03  0.00000000000E+00 0.  1.
          3    1    3    3  501    0 -0.45550782131E+02 -0.26258068846E+02 -0.25634532906E+03  0.26168165328E+03  0.00000000000E+00 0.  1.
         21    1    1    2  502  501  0.22610753673E+02  0.33481596151E+02  0.11445892507E+02  0.41991331460E+02  0.00000000000E+00 0. -1.
<scales pt_clust_4="550.00000" pt_clust_5="550.00000" pt_clust_6="40.40128"></scales>
<mgrwt>
<rscale>  0 0.30000000E+03</rscale>
<asrwt>  1 0.40401280E+02</asrwt>
<pdfrwt beam="1">  1        1 0.84354925E+00 0.30000000E+03</pdfrwt>
<pdfrwt beam="2">0</pdfrwt>
<totfact> 0.45287866E-04</totfact>
</mgrwt>
<clustering>
<clus scale="   40.401">  1  6  2 -1</clus>
<clus scale="  460.013">  4  5 -1 -1</clus>
<clus scale="  300.000">  1  4  2 -1</clus>
</clustering>
</event>
<event>
 6    1  0.9678510E-012  0.3000000E+03  0.7818608E-02  0.1093470E+00
          1   -1    0    0  502    0  0.00000000000E+00  0.00000000000E+00  0.24712459635E+03  0.24712459635E+03  0.00000000000E+00 0.  1.
         13   -1    0    0    0    0 -0.00000000000E+00 -0.00000000000E+00 -0.27500000000E+03  0.27500000000E+03  0.00000000000E+00 0.  1.
    9000005    2    1    2  501    0  0.33939517989E+02  0.23886266713E+02 -0.14680685415E+01  0.47293321533E+03  0.47110638535E+03 0.  0.
         13    1    3    3    0    0  0.16426285440E+02 -0.18661959705E+03  0.12641672617E+03  0.22600417145E+03  0.00000000000E+00 0.  1.
          1    1    3    3  501    0  0.17513232549E+02  0.21050586376E+03 -0.12788479471E+03  0.24692904388E+03  0.00000000000E+00 0.  1.
         21    1    1    2  502  501 -0.33939517989E+02 -0.23886266713E+02 -0.26407335113E+02  0.49191381019E+02  0.00000000000E+00 0. -1.
<scales pt_clust_4="550.00000" pt_clust_5="550.00000" pt_clust_6="41.50237"></scales>
<mgrwt>
<rscale>  0 0.30000000E+03</rscale>
<asrwt>  1 0.41502365E+02</asrwt>
<pdfrwt beam="1">  1        1 0.89863490E+00 0.30000000E+03</pdfrwt>
<pdfrwt beam="2">0</pdfrwt>
<totfact> 0.11118306E-04</totfact>
</mgrwt>
<clustering>
<clus scale="   41.502">  1  6  2 -1</clus>
<clus scale="  471.106">  4  5 -1 -1</clus>
<clus scale="  300.000">  1  4  2 -1</clus>
</clustering>
</event>
<event>
 6    1  0.9678510E-012  0.3000000E+03  0.7818608E-02  0.1093470E+00
          1   -1    0    0  502    0  0.00000000000E+00  0.00000000000E+00  0.23092085106E+03  0.23092085106E+03  0.00000000000E+00 0.  1.
         13   -1    0    0    0    0 -0.00000000000E+00 -0.00000000000E+00 -0.27500000000E+03  0.27500000000E+03  0.00000000000E+00 0.  1.
    9000005    2    1    2  501    0  0.24602151692E+02 -0.29688348045E+02 -0.19203474933E+02  0.46003552623E+03  0.45801446272E+03 0.  0.
         13    1    3    3    0    0 -0.90095709005E+02  0.36006496280E+02  0.18955862652E+03  0.21294641918E+03  0.00000000000E+00 0.  1.
          3    1    3    3  501    0  0.11469786070E+03 -0.65694844325E+02 -0.20876210145E+03  0.24708910705E+03  0.00000000000E+00 0.  1.
         21    1    1    2  502  501 -0.24602151692E+02  0.29688348045E+02 -0.24875674008E+02  0.45885324832E+02  0.00000000000E+00 0. -1.
<scales pt_clust_4="550.00000" pt_clust_5="550.00000" pt_clust_6="38.55730"></scales>
<mgrwt>
<rscale>  0 0.30000000E+03</rscale>
<asrwt>  1 0.38557300E+02</asrwt>
<pdfrwt beam="1">  1        1 0.83971219E+00 0.30000000E+03</pdfrwt>
<pdfrwt beam="2">0</pdfrwt>
<totfact> 0.49068000E-04</totfact>
</mgrwt>
<clustering>
<clus scale="   38.557">  1  6  2 -1</clus>
<clus scale="  458.014">  4  5 -1 -1</clus>
<clus scale="  300.000">  1  4  2 -1</clus>
</clustering>
</event>
<event>
 6    1  0.9678510E-012  0.3000000E+03  0.7818608E-02  0.1093470E+00
          1   -1    0    0  502    0  0.00000000000E+00  0.00000000000E+00  0.22820896796E+03  0.22820896796E+03  0.00000000000E+00 0.  1.
         13   -1    0    0    0    0 -0.00000000000E+00 -0.00000000000E+00 -0.27500000000E+03  0.27500000000E+03  0.00000000000E+00 0.  1.
    9000005    2    1    2  501    0  0.15398493447E+02  0.26674679976E+02 -0.42018005877E+02  0.47204113308E+03  0.46915740040E+03 0.  0.
         13    1    3    3    0    0 -0.31894167325E+02 -0.20140234473E+03  0.67306099033E+02  0.21473298149E+03  0.00000000000E+00 0.  1.
          3    1    3    3  501    0  0.47292660772E+02  0.22807702471E+03 -0.10932410491E+03  0.25730815159E+03  0.00000000000E+00 0.  1.
         21    1    1    2  502  501 -0.15398493447E+02 -0.26674679976E+02 -0.47730261626E+01  0.31167834879E+02  0.00000000000E+00 0. -1.
<scales pt_clust_4="550.00000" pt_clust_5="550.00000" pt_clust_6="30.80021"></scales>
<mgrwt>
<rscale>  0 0.30000000E+03</rscale>
<asrwt>  1 0.30800213E+02</asrwt>
<pdfrwt beam="1">  1        1 0.82985079E+00 0.30000000E+03</pdfrwt>
<pdfrwt beam="2">0</pdfrwt>
<totfact> 0.60720843E-04</totfact>
</mgrwt>
<clustering>
<clus scale="   30.800">  1  6  2 -1</clus>
<clus scale="  469.157">  4  5 -1 -1</clus>
<clus scale="  300.000">  1  4  2 -1</clus>
</clustering>
</event>
<event>
 6    1  0.9678510E-012  0.3000000E+03  0.7818608E-02  0.1093470E+00
          1   -1    0    0  502    0  0.00000000000E+00  0.00000000000E+00  0.23644523060E+03  0.23644523060E+03  0.00000000000E+00 0.  1.
         13   -1    0    0    0    0 -0.00000000000E+00 -0.00000000000E+00 -0.27500000000E+03  0.27500000000E+03  0.00000000000E+00 0.  1.
    9000005    2    1    2  501    0  0.15657749022E+02  0.41066203782E+02 -0.39563066543E+02  0.46748371493E+03  0.46372857286E+03 0.  0.
         13    1    3    3    0    0 -0.34162001451E+02 -0.20475524961E+03 -0.59299689400E+02  0.21588934145E+03  0.00000000000E+00 0.  1.
          1    1    3    3  501    0  0.49819750473E+02  0.24582145339E+03  0.19736622857E+02  0.25159437348E+03  0.00000000000E+00 0.  1.
         21    1    1    2  502  501 -0.15657749022E+02 -0.41066203782E+02  0.10082971472E+01  0.43961515677E+02  0.00000000000E+00 0. -1.
<scales pt_clust_4="550.00000" pt_clust_5="550.00000" pt_clust_6="43.94995"></scales>
<mgrwt>
<rscale>  0 0.30000000E+03</rscale>
<asrwt>  1 0.43949951E+02</asrwt>
<pdfrwt beam="1">  1        1 0.85980084E+00 0.30000000E+03</pdfrwt>
<pdfrwt beam="2">0</pdfrwt>
<totfact> 0.31177060E-04</totfact>
</mgrwt>
<clustering>
<clus scale="   43.950">  1  6  2 -1</clus>
<clus scale="  463.729">  4  5 -1 -1</clus>
<clus scale="  300.000">  1  4  2 -1</clus>
</clustering>
</event>
<event>
 6    1  0.9678510E-012  0.3000000E+03  0.7818608E-02  0.1093470E+00
          1   -1    0    0  502    0  0.00000000000E+00  0.00000000000E+00  0.25105012903E+03  0.25105012903E+03  0.00000000000E+00 0.  1.
         13   -1    0    0    0    0 -0.00000000000E+00 -0.00000000000E+00 -0.27500000000E+03  0.27500000000E+03  0.00000000000E+00 0.  1.
    9000005    2    1    2  501    0 -0.42407616913E+02 -0.70992959117E+01 -0.51156635859E+02  0.47516777423E+03  0.47044511507E+03 0.  0.
         13    1    3    3    0    0  0.51093196280E+02  0.21588737779E+03  0.20978615212E+02  0.22284069846E+03  0.00000000000E+00 0.  1.
          1    1    3    3  501    0 -0.93500813193E+02 -0.22298667370E+03 -0.72135251071E+02  0.25232707576E+03  0.00000000000E+00 0.  1.
         21    1    1    2  502  501  0.42407616913E+02  0.70992959117E+01  0.27206764889E+02  0.50882354804E+02  0.00000000000E+00 0. -1.
<scales pt_clust_4="550.00000" pt_clust_5="550.00000" pt_clust_6="42.99774"></scales>
<mgrwt>
<rscale>  0 0.30000000E+03</rscale>
<asrwt>  1 0.42997744E+02</asrwt>
<pdfrwt beam="1">  1        1 0.91290956E+00 0.30000000E+03</pdfrwt>
<pdfrwt beam="2">0</pdfrwt>
<totfact> 0.58581527E-05</totfact>
</mgrwt>
<clustering>
<clus scale="   42.998">  1  6  2 -1</clus>
<clus scale="  470.445">  4  5 -1 -1</clus>
<clus scale="  300.000">  1  4  2 -1</clus>
</clustering>
</event>
<event>
 6    1  0.9678510E-012  0.3000000E+03  0.7818608E-02  0.1093470E+00
          1   -1    0    0  502    0  0.00000000000E+00  0.00000000000E+00  0.23221223121E+03  0.23221223121E+03  0.00000000000E+00 0.  1.
         13   -1    0    0    0    0 -0.00000000000E+00 -0.00000000000E+00 -0.27500000000E+03  0.27500000000E+03  0.00000000000E+00 0.  1.
    9000005    2    1    2  501    0 -0.28642389893E+02 -0.97225752399E+01 -0.57520012222E+02  0.47356770766E+03  0.46908731273E+03 0.  0.
         13    1    3    3    0    0  0.21651617253E+03  0.34931842419E+02 -0.77429663550E+01  0.21945259194E+03  0.00000000000E+00 0.  1.
          1    1    3    3  501    0 -0.24515856242E+03 -0.44654417659E+02 -0.49777045867E+02  0.25411511572E+03  0.00000000000E+00 0.  1.
         21    1    1    2  502  501  0.28642389893E+02  0.97225752399E+01  0.14732243429E+02  0.33644523545E+02  0.00000000000E+00 0. -1.
<scales pt_clust_4="550.00000" pt_clust_5="550.00000" pt_clust_6="30.24756"></scales>
<mgrwt>
<rscale>  0 0.30000000E+03</rscale>
<asrwt>  1 0.30247561E+02</asrwt>
<pdfrwt beam="1">  1        1 0.84440811E+00 0.30000000E+03</pdfrwt>
<pdfrwt beam="2">0</pdfrwt>
<totfact> 0.47003847E-04</totfact>
</mgrwt>
<clustering>
<clus scale="   30.248">  1  6  2 -1</clus>
<clus scale="  469.087">  4  5 -1 -1</clus>
<clus scale="  300.000">  1  4  2 -1</clus>
</clustering>
</event>
<event>
 6    1  0.9678510E-012  0.3000000E+03  0.7818608E-02  0.1093470E+00
          1   -1    0    0  502    0  0.00000000000E+00  0.00000000000E+00  0.24696753841E+03  0.24696753841E+03  0.00000000000E+00 0.  1.
         13   -1    0    0    0    0 -0.00000000000E+00 -0.00000000000E+00 -0.27500000000E+03  0.27500000000E+03  0.00000000000E+00 0.  1.
    9000005    2    1    2  501    0 -0.11294878964E+02  0.48330887979E+02 -0.51527082137E+02  0.46705445965E+03  0.46154239141E+03 0.  0.
         13    1    3    3    0    0  0.10546314974E+03  0.14694958515E+03  0.13515150199E+03  0.22579323511E+03  0.00000000000E+00 0.  1.
          3    1    3    3  501    0 -0.11675802870E+03 -0.98618697175E+02 -0.18667858413E+03  0.24126122455E+03  0.00000000000E+00 0.  1.
         21    1    1    2  502  501  0.11294878964E+02 -0.48330887979E+02  0.23494620545E+02  0.54913078754E+02  0.00000000000E+00 0. -1.
<scales pt_clust_4="550.00000" pt_clust_5="550.00000" pt_clust_6="49.63314"></scales>
<mgrwt>
<rscale>  0 0.30000000E+03</rscale>
<asrwt>  1 0.49633144E+02</asrwt>
<pdfrwt beam="1">  1        1 0.89806378E+00 0.30000000E+03</pdfrwt>
<pdfrwt beam="2">0</pdfrwt>
<totfact> 0.10934661E-04</totfact>
</mgrwt>
<clustering>
<clus scale="   49.633">  1  6  2 -1</clus>
<clus scale="  461.542">  4  5 -1 -1</clus>
<clus scale="  300.000">  1  4  2 -1</clus>
</clustering>
</event>
<event>
 6    1  0.9678510E-012  0.3000000E+03  0.7818608E-02  0.1093470E+00
          1   -1    0    0  502    0  0.00000000000E+00  0.00000000000E+00  0.25029249315E+03  0.25029249315E+03  0.00000000000E+00 0.  1.
         13   -1    0    0    0    0 -0.00000000000E+00 -0.00000000000E+00 -0.27500000000E+03  0.27500000000E+03  0.00000000000E+00 0.  1.
    9000005    2    1    2  501    0 -0.30901793551E+02  0.29774375450E+02 -0.65051690942E+02  0.46639353333E+03  0.45983667879E+03 0.  0.
         13    1    3    3    0    0  0.21140123374E+03  0.51433649314E+02 -0.15426473212E+02  0.21811436905E+03  0.00000000000E+00 0.  1.
          3    1    3    3  501    0 -0.24230302729E+03 -0.21659273864E+02 -0.49625217729E+02  0.24827916428E+03  0.00000000000E+00 0.  1.
         21    1    1    2  502  501  0.30901793551E+02 -0.29774375450E+02  0.40344184090E+02  0.58898959821E+02  0.00000000000E+00 0. -1.
<scales pt_clust_4="550.00000" pt_clust_5="550.00000" pt_clust_6="42.91194"></scales>
<mgrwt>
<rscale>  0 0.30000000E+03</rscale>
<asrwt>  1 0.42911936E+02</asrwt>
<pdfrwt beam="1">  1        1 0.91015452E+00 0.30000000E+03</pdfrwt>
<pdfrwt beam="2">0</pdfrwt>
<totfact> 0.68622529E-05</totfact>
</mgrwt>
<clustering>
<clus scale="   42.912">  1  6  2 -1</clus>
<clus scale="  459.837">  4  5 -1 -1</clus>
<clus scale="  300.000">  1  4  2 -1</clus>
</clustering>
</event>
<event>
 6    1  0.9678510E-012  0.3000000E+03  0.7818608E-02  0.1093470E+00
          1   -1    0    0  502    0  0.00000000000E+00  0.00000000000E+00  0.23095565489E+03  0.23095565489E+03  0.00000000000E+00 0.  1.
         13   -1    0    0    0    0 -0.00000000000E+00 -0.00000000000E+00 -0.27500000000E+03  0.27500000000E+03  0.00000000000E+00 0.  1.
    9000005    2    1    2  501    0 -0.39043825645E+02 -0.12200660258E+02 -0.33143407926E+02  0.46362237173E+03  0.46062342716E+03 0.  0.
         13    1    3    3    0    0  0.28446101903E+01 -0.97413475372E-02  0.21331427480E+03  0.21333324105E+03  0.00000000000E+00 0.  1.
          1    1    3    3  501    0 -0.41888435835E+02 -0.12190918910E+02 -0.24645768273E+03  0.25028913068E+03  0.00000000000E+00 0.  1.
         21    1    1    2  502  501  0.39043825645E+02  0.12200660258E+02 -0.10900937181E+02  0.42333283160E+02  0.00000000000E+00 0. -1.
<scales pt_clust_4="550.00000" pt_clust_5="550.00000" pt_clust_6="40.90572"></scales>
<mgrwt>
<rscale>  0 0.30000000E+03</rscale>
<asrwt>  1 0.40905722E+02</asrwt>
<pdfrwt beam="1">  1        1 0.83983875E+00 0.30000000E+03</pdfrwt>
<pdfrwt beam="2">0</pdfrwt>
<totfact> 0.48433189E-04</totfact>
</mgrwt>
<clustering>
<clus scale="   40.906">  1  6  2 -1</clus>
<clus scale="  460.623">  4  5 -1 -1</clus>
<clus scale="  300.000">  1  4  2 -1</clus>
</clustering>
</event>
<event>
 6    1  0.9678510E-012  0.3000000E+03  0.7818608E-02  0.1093470E+00
          1   -1    0    0  502    0  0.00000000000E+00  0.00000000000E+00  0.22469328154E+03  0.22469328154E+03  0.00000000000E+00 0.  1.
         13   -1    0    0    0    0 -0.00000000000E+00 -0.00000000000E+00 -0.27500000000E+03  0.27500000000E+03  0.00000000000E+00 0.  1.
    9000005    2    1    2  501    0  0.54064266264E+01  0.31811024119E+02 -0.63109333371E+02  0.46497905315E+03  0.45954495014E+03 0.  0.
         13    1    3    3    0    0 -0.50004659875E+02  0.54790467693E+02 -0.25414359385E+03  0.26474785675E+03  0.00000000000E+00 0.  1.
          1    1    3    3  501    0  0.55411086501E+02 -0.22979443574E+02  0.19103426048E+03  0.20023119640E+03  0.00000000000E+00 0.  1.
         21    1    1    2  502  501 -0.54064266264E+01 -0.31811024119E+02  0.12802614913E+02  0.34714228394E+02  0.00000000000E+00 0.  1.
<scales pt_clust_4="550.00000" pt_clust_5="550.00000" pt_clust_6="32.26718"></scales>
<mgrwt>
<rscale>  0 0.30000000E+03</rscale>
<asrwt>  1 0.32267177E+02</asrwt>
<pdfrwt beam="1">  1        1 0.81706648E+00 0.30000000E+03</pdfrwt>
<pdfrwt beam="2">0</pdfrwt>
<totfact> 0.77755508E-04</totfact>
</mgrwt>
<clustering>
<clus scale="   32.267">  1  6  2 -1</clus>
<clus scale="  459.545">  4  5 -1 -1</clus>
<clus scale="  300.000">  1  4  2 -1</clus>
</clustering>
</event>
<event>
 6    1  0.9678510E-012  0.3000000E+03  0.7818608E-02  0.1093470E+00
          1   -1    0    0  502    0  0.00000000000E+00  0.00000000000E+00  0.24608995908E+03  0.24608995908E+03  0.00000000000E+00 0.  1.
         13   -1    0    0    0    0 -0.00000000000E+00 -0.00000000000E+00 -0.27500000000E+03  0.27500000000E+03  0.00000000000E+00 0.  1.
    9000005    2    1    2  501    0 -0.37234350405E+02  0.14911857274E+01 -0.55166578984E+02  0.47550458559E+03  0.47082123890E+03 0.  0.
         13    1    3    3    0    0 -0.25241586364E+03  0.15266506116E+02 -0.59725102740E+02  0.25983441328E+03  0.00000000000E+00 0.  1.
          1    1    3    3  501    0  0.21518151323E+03 -0.13775320389E+02  0.45585237565E+01  0.21567017232E+03  0.00000000000E+00 0.  1.
         21    1    1    2  502  501  0.37234350405E+02 -0.14911857274E+01  0.26256538069E+02  0.45585373491E+02  0.00000000000E+00 0.  1.
<scales pt_clust_4="550.00000" pt_clust_5="550.00000" pt_clust_6="37.26420"></scales>
<mgrwt>
<rscale>  0 0.30000000E+03</rscale>
<asrwt>  1 0.37264198E+02</asrwt>
<pdfrwt beam="1">  1        1 0.89487258E+00 0.30000000E+03</pdfrwt>
<pdfrwt beam="2">0</pdfrwt>
<totfact> 0.12504201E-04</totfact>
</mgrwt>
<clustering>
<clus scale="   37.264">  1  6  2 -1</clus>
<clus scale="  470.821">  4  5 -1 -1</clus>
<clus scale="  300.000">  1  4  2 -1</clus>
</clustering>
</event>
<event>
 6    1  0.9678510E-012  0.3000000E+03  0.7818608E-02  0.1093470E+00
          1   -1    0    0  502    0  0.00000000000E+00  0.00000000000E+00  0.23904040438E+03  0.23904040438E+03  0.00000000000E+00 0.  1.
         13   -1    0    0    0    0 -0.00000000000E+00 -0.00000000000E+00 -0.27500000000E+03  0.27500000000E+03  0.00000000000E+00 0.  1.
    9000005    2    1    2  501    0  0.38182912515E+00 -0.36005745786E+02 -0.52442776313E+01  0.46671186878E+03  0.46529120611E+03 0.  0.
         13    1    3    3    0    0  0.11986291617E+03  0.67455388870E+02 -0.18295362039E+03  0.22888725472E+03  0.00000000000E+00 0.  1.
          3    1    3    3  501    0 -0.11948108704E+03 -0.10346113466E+03  0.17770934276E+03  0.23782461405E+03  0.00000000000E+00 0.  1.
         21    1    1    2  502  501 -0.38182912515E+00  0.36005745786E+02 -0.30715317990E+02  0.47328535603E+02  0.00000000000E+00 0. -1.
<scales pt_clust_4="550.00000" pt_clust_5="550.00000" pt_clust_6="36.00779"></scales>
<mgrwt>
<rscale>  0 0.30000000E+03</rscale>
<asrwt>  1 0.36007788E+02</asrwt>
<pdfrwt beam="1">  1        1 0.86923783E+00 0.30000000E+03</pdfrwt>
<pdfrwt beam="2">0</pdfrwt>
<totfact> 0.25648508E-04</totfact>
</mgrwt>
<clustering>
<clus scale="   36.008">  1  6  2 -1</clus>
<clus scale="  465.291">  4  5 -1 -1</clus>
<clus scale="  300.000">  1  4  2 -1</clus>
</clustering>
</event>
<event>
 6    1  0.9678510E-012  0.3000000E+03  0.7818608E-02  0.1093470E+00
          1   -1    0    0  502    0  0.00000000000E+00  0.00000000000E+00  0.25035180854E+03  0.25035180854E+03  0.00000000000E+00 0.  1.
         13   -1    0    0    0    0 -0.00000000000E+00 -0.00000000000E+00 -0.27500000000E+03  0.27500000000E+03  0.00000000000E+00 0.  1.
    9000005    2    1    2  501    0 -0.47136837785E+02  0.12822042868E+02 -0.29163198675E+02  0.47629396972E+03  0.47288388339E+03 0.  0.
         13    1    3    3    0    0 -0.25438867395E+03  0.23012385645E+02  0.37899598283E+02  0.25822383096E+03  0.00000000000E+00 0.  1.
          3    1    3    3  501    0  0.20725183616E+03 -0.10190342777E+02 -0.67062796958E+02  0.21807013875E+03  0.00000000000E+00 0.  1.
         21    1    1    2  502  501  0.47136837785E+02 -0.12822042868E+02  0.45150072118E+01  0.49057838821E+02  0.00000000000E+00 0. -1.
<scales pt_clust_4="550.00000" pt_clust_5="550.00000" pt_clust_6="48.84963"></scales>
<mgrwt>
<rscale>  0 0.30000000E+03</rscale>
<asrwt>  1 0.48849629E+02</asrwt>
<pdfrwt beam="1">  1        1 0.91037021E+00 0.30000000E+03</pdfrwt>
<pdfrwt beam="2">0</pdfrwt>
<totfact> 0.66246500E-05</totfact>
</mgrwt>
<clustering>
<clus scale="   48.850">  1  6  2 -1</clus>
<clus scale="  472.884">  4  5 -1 -1</clus>
<clus scale="  300.000">  1  4  2 -1</clus>
</clustering>
</event>
<event>
 6    1  0.9678510E-012  0.3000000E+03  0.7818608E-02  0.1093470E+00
          1   -1    0    0  502    0  0.00000000000E+00  0.00000000000E+00  0.23706009038E+03  0.23706009038E+03  0.00000000000E+00 0.  1.
         13   -1    0    0    0    0 -0.00000000000E+00 -0.00000000000E+00 -0.27500000000E+03  0.27500000000E+03  0.00000000000E+00 0.  1.
    9000005    2    1    2  501    0 -0.70396273412E+01  0.38436258561E+02 -0.66071820694E+02  0.46391129241E+03  0.45751644715E+03 0.  0.
         13    1    3    3    0    0 -0.73773551948E+02 -0.15634808535E+03  0.99704650019E+02  0.19957023324E+03  0.00000000000E+00 0.  1.
          1    1    3    3  501    0  0.66733924607E+02  0.19478434391E+03 -0.16577647071E+03  0.26434105918E+03  0.00000000000E+00 0.  1.
         21    1    1    2  502  501  0.70396273412E+01 -0.38436258561E+02  0.28131911075E+02  0.48148797971E+02  0.00000000000E+00 0. -1.
<scales pt_clust_4="550.00000" pt_clust_5="550.00000" pt_clust_6="39.07560"></scales>
<mgrwt>
<rscale>  0 0.30000000E+03</rscale>
<asrwt>  1 0.39075598E+02</asrwt>
<pdfrwt beam="1">  1        1 0.86203669E+00 0.30000000E+03</pdfrwt>
<pdfrwt beam="2">0</pdfrwt>
<totfact> 0.30135709E-04</totfact>
</mgrwt>
<clustering>
<clus scale="   39.076">  1  6  2 -1</clus>
<clus scale="  457.516">  4  5 -1 -1</clus>
<clus scale="  300.000">  1  4  2 -1</clus>
</clustering>
</event>
<event>
 6    1  0.9678510E-012  0.3000000E+03  0.7818608E-02  0.1093470E+00
          1   -1    0    0  502    0  0.00000000000E+00  0.00000000000E+00  0.25266570846E+03  0.25266570846E+03  0.00000000000E+00 0.  1.
         13   -1    0    0    0    0 -0.00000000000E+00 -0.00000000000E+00 -0.27500000000E+03  0.27500000000E+03  0.00000000000E+00 0.  1.
    9000005    2    1    2  501    0  0.41176125800E+02  0.36468088522E+02 -0.20054752186E+02  0.47261490360E+03  0.46897468930E+03 0.  0.
         13    1    3    3    0    0  0.30867422437E+02  0.15806031514E+03 -0.19901288002E+03  0.25601169389E+03  0.00000000000E+00 0.  1.
          3    1    3    3  501    0  0.10308703364E+02 -0.12159222662E+03  0.17895812784E+03  0.21660320972E+03  0.00000000000E+00 0.  1.
         21    1    1    2  502  501 -0.41176125800E+02 -0.36468088522E+02 -0.22795393495E+01  0.55050804863E+02  0.00000000000E+00 0.  1.
<scales pt_clust_4="550.00000" pt_clust_5="550.00000" pt_clust_6="55.00359"></scales>
<mgrwt>
<rscale>  0 0.30000000E+03</rscale>
<asrwt>  1 0.55003589E+02</asrwt>
<pdfrwt beam="1">  1        1 0.91878439E+00 0.30000000E+03</pdfrwt>
<pdfrwt beam="2">0</pdfrwt>
<totfact> 0.40977014E-05</totfact>
</mgrwt>
<clustering>
<clus scale="   55.004">  1  6  2 -1</clus>
<clus scale="  468.975">  4  5 -1 -1</clus>
<clus scale="  300.000">  1  4  2 -1</clus>
</clustering>
</event>
<event>
 6    1  0.9678510E-012  0.3000000E+03  0.7818608E-02  0.1093470E+00
          1   -1    0    0  502    0  0.00000000000E+00  0.00000000000E+00  0.24379744309E+03  0.24379744309E+03  0.00000000000E+00 0.  1.
         13   -1    0    0    0    0 -0.00000000000E+00 -0.00000000000E+00 -0.27500000000E+03  0.27500000000E+03  0.00000000000E+00 0.  1.
    9000005    2    1    2  501    0 -0.31151377971E+02 -0.41058468393E+01 -0.45592268015E+02  0.48423836160E+03  0.48106223050E+03 0.  0.
         13    1    3    3    0    0  0.51640482028E+02  0.16619706970E+03  0.13676796981E+03  0.22134516693E+03  0.00000000000E+00 0.  1.
          3    1    3    3  501    0 -0.82791859999E+02 -0.17030291654E+03 -0.18236023782E+03  0.26289319466E+03  0.00000000000E+00 0.  1.
         21    1    1    2  502  501  0.31151377971E+02  0.41058468393E+01  0.14389711102E+02  0.34559081489E+02  0.00000000000E+00 0.  1.
<scales pt_clust_4="550.00000" pt_clust_5="550.00000" pt_clust_6="31.42079"></scales>
<mgrwt>
<rscale>  0 0.30000000E+03</rscale>
<asrwt>  1 0.31420795E+02</asrwt>
<pdfrwt beam="1">  1        1 0.88653616E+00 0.30000000E+03</pdfrwt>
<pdfrwt beam="2">0</pdfrwt>
<totfact> 0.16496719E-04</totfact>
</mgrwt>
<clustering>
<clus scale="   31.421">  1  6  2 -1</clus>
<clus scale="  481.062">  4  5 -1 -1</clus>
<clus scale="  300.000">  1  4  2 -1</clus>
</clustering>
</event>
<event>
 6    1  0.9678510E-012  0.3000000E+03  0.7818608E-02  0.1093470E+00
          1   -1    0    0  502    0  0.00000000000E+00  0.00000000000E+00  0.23850153196E+03  0.23850153196E+03  0.00000000000E+00 0.  1.
         13   -1    0    0    0    0 -0.00000000000E+00 -0.00000000000E+00 -0.27500000000E+03  0.27500000000E+03  0.00000000000E+00 0.  1.
    9000005    2    1    2  501    0 -0.30399855228E+02 -0.23994218975E+01 -0.63631597051E+02  0.47268345860E+03  0.46738716656E+03 0.  0.
         13    1    3    3    0    0  0.10360003522E+03  0.31414759355E+02  0.16982011505E+03  0.20139197075E+03  0.00000000000E+00 0.  1.
          3    1    3    3  501    0 -0.13399989045E+03 -0.33814181252E+02 -0.23345171211E+03  0.27129148785E+03  0.00000000000E+00 0.  1.
         21    1    1    2  502  501  0.30399855228E+02  0.23994218975E+01  0.27133129012E+02  0.40818073366E+02  0.00000000000E+00 0.  1.
<scales pt_clust_4="550.00000" pt_clust_5="550.00000" pt_clust_6="30.49440"></scales>
<mgrwt>
<rscale>  0 0.30000000E+03</rscale>
<asrwt>  1 0.30494400E+02</asrwt>
<pdfrwt beam="1">  1        1 0.86727830E+00 0.30000000E+03</pdfrwt>
<pdfrwt beam="2">0</pdfrwt>
<totfact> 0.27734060E-04</totfact>
</mgrwt>
<clustering>
<clus scale="   30.494">  1  6  2 -1</clus>
<clus scale="  467.387">  4  5 -1 -1</clus>
<clus scale="  300.000">  1  4  2 -1</clus>
</clustering>
</event>
<event>
 6    1  0.9678510E-012  0.3000000E+03  0.7818608E-02  0.1093470E+00
          1   -1    0    0  502    0  0.00000000000E+00  0.00000000000E+00  0.22615682685E+03  0.22615682685E+03  0.00000000000E+00 0.  1.
         13   -1    0    0    0    0 -0.00000000000E+00 -0.00000000000E+00 -0.27500000000E+03  0.27500000000E+03  0.00000000000E+00 0.  1.
    9000005    2    1    2  501    0  0.24770178798E+02 -0.19103602053E+02 -0.59634004382E+02  0.46806677687E+03  0.46319734861E+03 0.  0.
         13    1    3    3    0    0  0.16043395162E+03 -0.16703825611E+03 -0.11676295823E+03  0.25937312939E+03  0.00000000000E+00 0.  1.
          3    1    3    3  501    0 -0.13566377283E+03  0.14793465405E+03  0.57128953852E+02  0.20869364747E+03  0.00000000000E+00 0.  1.
         21    1    1    2  502  501 -0.24770178798E+02  0.19103602053E+02  0.10790831230E+02  0.33090049980E+02  0.00000000000E+00 0. -1.
<scales pt_clust_4="550.00000" pt_clust_5="550.00000" pt_clust_6="31.28113"></scales>
<mgrwt>
<rscale>  0 0.30000000E+03</rscale>
<asrwt>  1 0.31281134E+02</asrwt>
<pdfrwt beam="1">  1        1 0.82238846E+00 0.30000000E+03</pdfrwt>
<pdfrwt beam="2">0</pdfrwt>
<totfact> 0.70396746E-04</totfact>
</mgrwt>
<clustering>
<clus scale="   31.281">  1  6  2 -1</clus>
<clus scale="  463.197">  4  5 -1 -1</clus>
<clus scale="  300.000">  1  4  2 -1</clus>
</clustering>
</event>
<event>
 6    1  0.9678510E-012  0.3000000E+03  0.7818608E-02  0.1093470E+00
          1   -1    0    0  502    0  0.00000000000E+00  0.00000000000E+00  0.24033652788E+03  0.24033652788E+03  0.00000000000E+00 0.  1.
         13   -1    0    0    0    0 -0.00000000000E+00 -0.00000000000E+00 -0.27500000000E+03  0.27500000000E+03  0.00000000000E+00 0.  1.
    9000005    2    1    2  501    0  0.38142600739E+02 -0.32388403578E+02 -0.48649698410E+02  0.46337999601E+03  0.45809427073E+03 0.  0.
         13    1    3    3    0    0 -0.16036670595E+03 -0.99279890252E+02 -0.13995986542E+03  0.23486749650E+03  0.00000000000E+00 0.  1.
          1    1    3    3  501    0  0.19850930669E+03  0.66891486674E+02  0.91310167009E+02  0.22851249951E+03  0.00000000000E+00 0.  1.
         21    1    1    2  502  501 -0.38142600739E+02  0.32388403578E+02  0.13986226287E+02  0.51956531863E+02  0.00000000000E+00 0.  1.
<scales pt_clust_4="550.00000" pt_clust_5="550.00000" pt_clust_6="50.03865"></scales>
<mgrwt>
<rscale>  0 0.30000000E+03</rscale>
<asrwt>  1 0.50038652E+02</asrwt>
<pdfrwt beam="1">  1        1 0.87395101E+00 0.30000000E+03</pdfrwt>
<pdfrwt beam="2">0</pdfrwt>
<totfact> 0.21623916E-04</totfact>
</mgrwt>
<clustering>
<clus scale="   50.039">  1  6  2 -1</clus>
<clus scale="  458.094">  4  5 -1 -1</clus>
<clus scale="  300.000">  1  4  2 -1</clus>
</clustering>
</event>
<event>
 6    1  0.9678510E-012  0.3000000E+03  0.7818608E-02  0.1093470E+00
          1   -1    0    0  502    0  0.00000000000E+00  0.00000000000E+00  0.23529056788E+03  0.23529056788E+03  0.00000000000E+00 0.  1.
         13   -1    0    0    0    0 -0.00000000000E+00 -0.00000000000E+00 -0.27500000000E+03  0.27500000000E+03  0.00000000000E+00 0.  1.
    9000005    2    1    2  501    0 -0.43844539366E+02  0.28686711735E+01 -0.28244659434E+02  0.46488116446E+03  0.46193740201E+03 0.  0.
         13    1    3    3    0    0 -0.22122387609E+03  0.18657760142E+01 -0.13372444818E+03  0.25850669723E+03  0.00000000000E+00 0.  1.
          1    1    3    3  501    0  0.17737933672E+03  0.10028951593E+01  0.10547978874E+03  0.20637446724E+03  0.00000000000E+00 0.  1.
         21    1    1    2  502  501  0.43844539366E+02 -0.28686711735E+01 -0.11464772681E+02  0.45409403422E+02  0.00000000000E+00 0. -1.
<scales pt_clust_4="550.00000" pt_clust_5="550.00000" pt_clust_6="43.93831"></scales>
<mgrwt>
<rscale>  0 0.30000000E+03</rscale>
<asrwt>  1 0.43938307E+02</asrwt>
<pdfrwt beam="1">  1        1 0.85560207E+00 0.30000000E+03</pdfrwt>
<pdfrwt beam="2">0</pdfrwt>
<totfact> 0.34467141E-04</totfact>
</mgrwt>
<clustering>
<clus scale="   43.938">  1  6  2 -1</clus>
<clus scale="  461.937">  4  5 -1 -1</clus>
<clus scale="  300.000">  1  4  2 -1</clus>
</clustering>
</event>
<event>
 6    1  0.9678510E-012  0.3000000E+03  0.7818608E-02  0.1093470E+00
          1   -1    0    0  502    0  0.00000000000E+00  0.00000000000E+00  0.24985717318E+03  0.24985717318E+03  0.00000000000E+00 0.  1.
         13   -1    0    0    0    0 -0.00000000000E+00 -0.00000000000E+00 -0.27500000000E+03  0.27500000000E+03  0.00000000000E+00 0.  1.
    9000005    2    1    2  501    0 -0.41250628209E+01  0.40652502141E+02 -0.58266037821E+02  0.47225689580E+03  0.46686400846E+03 0.  0.
         13    1    3    3    0    0  0.11705721445E+03 -0.17381730288E+03  0.27630767619E+02  0.21137243329E+03  0.00000000000E+00 0.  1.
          1    1    3    3  501    0 -0.12118227727E+03  0.21446980502E+03 -0.85896805441E+02  0.26088446251E+03  0.00000000000E+00 0.  1.
         21    1    1    2  502  501  0.41250628209E+01 -0.40652502141E+02  0.33123210998E+02  0.52600277379E+02  0.00000000000E+00 0.  1.
<scales pt_clust_4="550.00000" pt_clust_5="550.00000" pt_clust_6="40.86125"></scales>
<mgrwt>
<rscale>  0 0.30000000E+03</rscale>
<asrwt>  1 0.40861254E+02</asrwt>
<pdfrwt beam="1">  1        1 0.90857154E+00 0.30000000E+03</pdfrwt>
<pdfrwt beam="2">0</pdfrwt>
<totfact> 0.75513938E-05</totfact>
</mgrwt>
<clustering>
<clus scale="   40.861">  1  6  2 -1</clus>
<clus scale="  466.864">  4  5 -1 -1</clus>
<clus scale="  300.000">  1  4  2 -1</clus>
</clustering>
</event>
<event>
 6    1  0.9678510E-012  0.3000000E+03  0.7818608E-02  0.1093470E+00
          1   -1    0    0  502    0  0.00000000000E+00  0.00000000000E+00  0.24242713991E+03  0.24242713991E+03  0.00000000000E+00 0.  1.
         13   -1    0    0    0    0 -0.00000000000E+00 -0.00000000000E+00 -0.27500000000E+03  0.27500000000E+03  0.00000000000E+00 0.  1.
    9000005    2    1    2  501    0  0.26297034717E+02  0.16498794931E+02 -0.41580190581E+02  0.48510259395E+03  0.48231926163E+03 0.  0.
         13    1    3    3    0    0 -0.25623707151E+02 -0.22955530456E+02  0.21634417691E+03  0.21906239666E+03  0.00000000000E+00 0.  1.
          3    1    3    3  501    0  0.51920741868E+02  0.39454325387E+02 -0.25792436749E+03  0.26604019729E+03  0.00000000000E+00 0.  1.
         21    1    1    2  502  501 -0.26297034717E+02 -0.16498794931E+02  0.90073304906E+01  0.32324545962E+02  0.00000000000E+00 0. -1.
<scales pt_clust_4="550.00000" pt_clust_5="550.00000" pt_clust_6="31.04423"></scales>
<mgrwt>
<rscale>  0 0.30000000E+03</rscale>
<asrwt>  1 0.31044231E+02</asrwt>
<pdfrwt beam="1">  1        1 0.88155324E+00 0.30000000E+03</pdfrwt>
<pdfrwt beam="2">0</pdfrwt>
<totfact> 0.19300117E-04</totfact>
</mgrwt>
<clustering>
<clus scale="   31.044">  1  6  2 -1</clus>
<clus scale="  482.319">  4  5 -1 -1</clus>
<clus scale="  300.000">  1  4  2 -1</clus>
</clustering>
</event>
<event>
 6    1  0.9678510E-012  0.3000000E+03  0.7818608E-02  0.1093470E+00
          1   -1    0    0  502    0  0.00000000000E+00  0.00000000000E+00  0.24560028938E+03  0.24560028938E+03  0.00000000000E+00 0.  1.
         13   -1    0    0    0    0 -0.00000000000E+00 -0.00000000000E+00 -0.27500000000E+03  0.27500000000E+03  0.00000000000E+00 0.  1.
    9000005    2    1    2  501    0  0.14235763000E+02  0.29018222501E+02 -0.24373296914E+02  0.48788975560E+03  0.48620740619E+03 0.  0.
         13    1    3    3    0    0 -0.35459992598E+02  0.25200690000E+03 -0.45240994613E+02  0.25847946982E+03  0.00000000000E+00 0.  1.
          3    1    3    3  501    0  0.49695755598E+02 -0.22298867750E+03  0.20867697699E+02  0.22941028579E+03  0.00000000000E+00 0.  1.
         21    1    1    2  502  501 -0.14235763000E+02 -0.29018222501E+02 -0.50264137053E+01  0.32710533778E+02  0.00000000000E+00 0. -1.
<scales pt_clust_4="550.00000" pt_clust_5="550.00000" pt_clust_6="32.32205"></scales>
<mgrwt>
<rscale>  0 0.30000000E+03</rscale>
<asrwt>  1 0.32322055E+02</asrwt>
<pdfrwt beam="1">  1        1 0.89309196E+00 0.30000000E+03</pdfrwt>
<pdfrwt beam="2">0</pdfrwt>
<totfact> 0.13459827E-04</totfact>
</mgrwt>
<clustering>
<clus scale="   32.322">  1  6  2 -1</clus>
<clus scale="  486.207">  4  5 -1 -1</clus>
<clus scale="  300.000">  1  4  2 -1</clus>
</clustering>
</event>
<event>
 6    1  0.9678510E-012  0.3000000E+03  0.7818608E-02  0.1093470E+00
          1   -1    0    0  502    0  0.00000000000E+00  0.00000000000E+00  0.23898494630E+03  0.23898494630E+03  0.00000000000E+00 0.  1.
         13   -1    0    0    0    0 -0.00000000000E+00 -0.00000000000E+00 -0.27500000000E+03  0.27500000000E+03  0.00000000000E+00 0.  1.
    9000005    2    1    2  501    0  0.82829326161E+01  0.51849861214E+02 -0.34765076780E+02  0.46146278409E+03  0.45714579235E+03 0.  0.
         13    1    3    3    0    0  0.19350307707E+03 -0.88661303242E+02 -0.74691824040E+02  0.22557290641E+03  0.00000000000E+00 0.  1.
          3    1    3    3  501    0 -0.18522014445E+03  0.14051116446E+03  0.39926747260E+02  0.23588987768E+03  0.00000000000E+00 0.  1.
         21    1    1    2  502  501 -0.82829326161E+01 -0.51849861214E+02 -0.12499769191E+01  0.52522162207E+02  0.00000000000E+00 0. -1.
<scales pt_clust_4="550.00000" pt_clust_5="550.00000" pt_clust_6="52.50729"></scales>
<mgrwt>
<rscale>  0 0.30000000E+03</rscale>
<asrwt>  1 0.52507286E+02</asrwt>
<pdfrwt beam="1">  1        1 0.86903617E+00 0.30000000E+03</pdfrwt>
<pdfrwt beam="2">0</pdfrwt>
<totfact> 0.24081193E-04</totfact>
</mgrwt>
<clustering>
<clus scale="   52.507">  1  6  2 -1</clus>
<clus scale="  457.146">  4  5 -1 -1</clus>
<clus scale="  300.000">  1  4  2 -1</clus>
</clustering>
</event>
<event>
 6    1  0.9678510E-012  0.3000000E+03  0.7818608E-02  0.1093470E+00
          1   -1    0    0  502    0  0.00000000000E+00  0.00000000000E+00  0.26312109339E+03  0.26312109339E+03  0.00000000000E+00 0.  1.
         13   -1    0    0    0    0 -0.00000000000E+00 -0.00000000000E+00 -0.27500000000E+03  0.27500000000E+03  0.00000000000E+00 0.  1.
    9000005    2    1    2  501    0  0.23036392890E+02 -0.20848869075E+02  0.21573572551E+02  0.49246565449E+03  0.49101084619E+03 0.  0.
         13    1    3    3    0    0 -0.15179629099E+03 -0.50797497693E+02  0.18960213450E+03  0.24813598920E+03  0.00000000000E+00 0.  1.
          1    1    3    3  501    0  0.17483268388E+03  0.29948628618E+02 -0.16802856195E+03  0.24432966529E+03  0.00000000000E+00 0.  1.
         21    1    1    2  502  501 -0.23036392890E+02  0.20848869075E+02 -0.33452479164E+02  0.45655438902E+02  0.00000000000E+00 0. -1.
<scales pt_clust_4="550.00000" pt_clust_5="550.00000" pt_clust_6="31.07011"></scales>
<mgrwt>
<rscale>  0 0.30000000E+03</rscale>
<asrwt>  1 0.31070110E+02</asrwt>
<pdfrwt beam="1">  1        1 0.95680398E+00 0.30000000E+03</pdfrwt>
<pdfrwt beam="2">0</pdfrwt>
<totfact> 0.90878928E-06</totfact>
</mgrwt>
<clustering>
<clus scale="   31.070">  1  6  2 -1</clus>
<clus scale="  491.011">  4  5 -1 -1</clus>
<clus scale="  300.000">  1  4  2 -1</clus>
</clustering>
</event>
<event>
 6    1  0.9678510E-012  0.3000000E+03  0.7818608E-02  0.1093470E+00
          1   -1    0    0  502    0  0.00000000000E+00  0.00000000000E+00  0.22289800507E+03  0.22289800507E+03  0.00000000000E+00 0.  1.
         13   -1    0    0    0    0 -0.00000000000E+00 -0.00000000000E+00 -0.27500000000E+03  0.27500000000E+03  0.00000000000E+00 0.  1.
    9000005    2    1    2  501    0 -0.17827325535E+02 -0.24801401054E+02 -0.36540380470E+02  0.46361846490E+03  0.46116586881E+03 0.  0.
         13    1    3    3    0    0  0.10279516904E+03 -0.21389823469E+03 -0.73175837407E+01  0.23742967088E+03  0.00000000000E+00 0.  1.
          1    1    3    3  501    0 -0.12062249458E+03  0.18909683364E+03 -0.29222796729E+02  0.22618879402E+03  0.00000000000E+00 0.  1.
         21    1    1    2  502  501  0.17827325535E+02  0.24801401054E+02 -0.15561614459E+02  0.34279540174E+02  0.00000000000E+00 0. -1.
<scales pt_clust_4="550.00000" pt_clust_5="550.00000" pt_clust_6="30.54380"></scales>
<mgrwt>
<rscale>  0 0.30000000E+03</rscale>
<asrwt>  1 0.30543804E+02</asrwt>
<pdfrwt beam="1">  1        1 0.81053820E+00 0.30000000E+03</pdfrwt>
<pdfrwt beam="2">0</pdfrwt>
<totfact> 0.88632001E-04</totfact>
</mgrwt>
<clustering>
<clus scale="   30.544">  1  6  2 -1</clus>
<clus scale="  461.166">  4  5 -1 -1</clus>
<clus scale="  300.000">  1  4  2 -1</clus>
</clustering>
</event>
<event>
 6    1  0.9678510E-012  0.3000000E+03  0.7818608E-02  0.1093470E+00
          1   -1    0    0  502    0  0.00000000000E+00  0.00000000000E+00  0.24286324246E+03  0.24286324246E+03  0.00000000000E+00 0.  1.
         13   -1    0    0    0    0 -0.00000000000E+00 -0.00000000000E+00 -0.27500000000E+03  0.27500000000E+03  0.00000000000E+00 0.  1.
    9000005    2    1    2  501    0 -0.33817257122E+02  0.10597056013E+02 -0.28775969719E+02  0.48226549857E+03  0.48010004187E+03 0.  0.
         13    1    3    3    0    0 -0.57943811127E+02 -0.22481389455E+03 -0.69064976752E+02  0.24221631540E+03  0.00000000000E+00 0.  1.
          3    1    3    3  501    0  0.24126554005E+02  0.23541095056E+03  0.40289007032E+02  0.24004918317E+03  0.00000000000E+00 0.  1.
         21    1    1    2  502  501  0.33817257122E+02 -0.10597056013E+02 -0.33607878216E+01  0.35597743892E+02  0.00000000000E+00 0.  1.
<scales pt_clust_4="550.00000" pt_clust_5="550.00000" pt_clust_6="35.43876"></scales>
<mgrwt>
<rscale>  0 0.30000000E+03</rscale>
<asrwt>  1 0.35438760E+02</asrwt>
<pdfrwt beam="1">  1        1 0.88313906E+00 0.30000000E+03</pdfrwt>
<pdfrwt beam="2">0</pdfrwt>
<totfact> 0.17942630E-04</totfact>
</mgrwt>
<clustering>
<clus scale="   35.439">  1  6  2 -1</clus>
<clus scale="  480.100">  4  5 -1 -1</clus>
<clus scale="  300.000">  1  4  2 -1</clus>
</clustering>
</event>
<event>
 6    1  0.9678510E-012  0.3000000E+03  0.7818608E-02  0.1093470E+00
          1   -1    0    0  502    0  0.00000000000E+00  0.00000000000E+00  0.23395899504E+03  0.23395899504E+03  0.00000000000E+00 0.  1.
         13   -1    0    0    0    0 -0.00000000000E+00 -0.00000000000E+00 -0.27500000000E+03  0.27500000000E+03  0.00000000000E+00 0.  1.
    9000005    2    1    2  501    0  0.96296609210E+01 -0.36879563451E+02 -0.48270659980E+02  0.47016337052E+03  0.46612305864E+03 0.  0.
         13    1    3    3    0    0 -0.18053824753E+03  0.12353572952E+03 -0.17058223201E+02  0.21942223741E+03  0.00000000000E+00 0.  1.
          3    1    3    3  501    0  0.19016790845E+03 -0.16041529298E+03 -0.31212436779E+02  0.25074113311E+03  0.00000000000E+00 0.  1.
         21    1    1    2  502  501 -0.96296609210E+01  0.36879563451E+02  0.72296550161E+01  0.38795624514E+02  0.00000000000E+00 0. -1.
<scales pt_clust_4="550.00000" pt_clust_5="550.00000" pt_clust_6="38.11604"></scales>
<mgrwt>
<rscale>  0 0.30000000E+03</rscale>
<asrwt>  1 0.38116041E+02</asrwt>
<pdfrwt beam="1">  1        1 0.85075998E+00 0.30000000E+03</pdfrwt>
<pdfrwt beam="2">0</pdfrwt>
<totfact> 0.39404401E-04</totfact>
</mgrwt>
<clustering>
<clus scale="   38.116">  1  6  2 -1</clus>
<clus scale="  466.123">  4  5 -1 -1</clus>
<clus scale="  300.000">  1  4  2 -1</clus>
</clustering>
</event>
<event>
 6    1  0.9678510E-012  0.3000000E+03  0.7818608E-02  0.1093470E+00
          1   -1    0    0  502    0  0.00000000000E+00  0.00000000000E+00  0.24784066942E+03  0.24784066942E+03  0.00000000000E+00 0.  1.
         13   -1    0    0    0    0 -0.00000000000E+00 -0.00000000000E+00 -0.27500000000E+03  0.27500000000E+03  0.00000000000E+00 0.  1.
    9000005    2    1    2  501    0 -0.11097231708E+02 -0.28376887857E+02 -0.42339051234E+02  0.48879922064E+03  0.48600790788E+03 0.  0.
         13    1    3    3    0    0 -0.15256796617E+03  0.15512139387E+03  0.73628034489E+02  0.22969701479E+03  0.00000000000E+00 0.  1.
          3    1    3    3  501    0  0.14147073447E+03 -0.18349828173E+03 -0.11596708572E+03  0.25910220585E+03  0.00000000000E+00 0.  1.
         21    1    1    2  502  501  0.11097231708E+02  0.28376887857E+02  0.15179720657E+02  0.34041448784E+02  0.00000000000E+00 0.  1.
<scales pt_clust_4="550.00000" pt_clust_5="550.00000" pt_clust_6="30.46960"></scales>
<mgrwt>
<rscale>  0 0.30000000E+03</rscale>
<asrwt>  1 0.30469597E+02</asrwt>
<pdfrwt beam="1">  1        1 0.90123880E+00 0.30000000E+03</pdfrwt>
<pdfrwt beam="2">0</pdfrwt>
<totfact> 0.10922730E-04</totfact>
</mgrwt>
<clustering>
<clus scale="   30.470">  1  6  2 -1</clus>
<clus scale="  486.008">  4  5 -1 -1</clus>
<clus scale="  300.000">  1  4  2 -1</clus>
</clustering>
</event>
<event>
 6    1  0.9678510E-012  0.3000000E+03  0.7818608E-02  0.1093470E+00
          1   -1    0    0  502    0  0.00000000000E+00  0.00000000000E+00  0.24031121984E+03  0.24031121984E+03  0.00000000000E+00 0.  1.
         13   -1    0    0    0    0 -0.00000000000E+00 -0.00000000000E+00 -0.27500000000E+03  0.27500000000E+03  0.00000000000E+00 0.  1.
    9000005    2    1    2  501    0 -0.30792959957E+02 -0.16607838226E+02 -0.37035956669E+02  0.48024648098E+03  0.47753637949E+03 0.  0.
         13    1    3    3    0    0  0.18391232296E+03  0.10127374911E+03 -0.91988102871E+02  0.22922025623E+03  0.00000000000E+00 0.  1.
          3    1    3    3  501    0 -0.21470528291E+03 -0.11788158734E+03  0.54952146202E+02  0.25102622476E+03  0.00000000000E+00 0.  1.
         21    1    1    2  502  501  0.30792959957E+02  0.16607838226E+02  0.23471765092E+01  0.35064738856E+02  0.00000000000E+00 0.  1.
<scales pt_clust_4="550.00000" pt_clust_5="550.00000" pt_clust_6="34.98609"></scales>
<mgrwt>
<rscale>  0 0.30000000E+03</rscale>
<asrwt>  1 0.34986093E+02</asrwt>
<pdfrwt beam="1">  1        1 0.87385898E+00 0.30000000E+03</pdfrwt>
<pdfrwt beam="2">0</pdfrwt>
<totfact> 0.23122246E-04</totfact>
</mgrwt>
<clustering>
<clus scale="   34.986">  1  6  2 -1</clus>
<clus scale="  477.536">  4  5 -1 -1</clus>
<clus scale="  300.000">  1  4  2 -1</clus>
</clustering>
</event>
<event>
 6    1  0.9678510E-012  0.3000000E+03  0.7818608E-02  0.1093470E+00
          1   -1    0    0  502    0  0.00000000000E+00  0.00000000000E+00  0.23222763483E+03  0.23222763483E+03  0.00000000000E+00 0.  1.
         13   -1    0    0    0    0 -0.00000000000E+00 -0.00000000000E+00 -0.27500000000E+03  0.27500000000E+03  0.00000000000E+00 0.  1.
    9000005    2    1    2  501    0  0.10627792172E+02 -0.28562262317E+02 -0.53013535050E+02  0.47507745045E+03  0.47112566926E+03 0.  0.
         13    1    3    3    0    0 -0.22968161490E+03 -0.85639972180E+01 -0.42287053507E+02  0.23369891135E+03  0.00000000000E+00 0.  1.
          3    1    3    3  501    0  0.24030940707E+03 -0.19998265099E+02 -0.10726481542E+02  0.24137853910E+03  0.00000000000E+00 0.  1.
         21    1    1    2  502  501 -0.10627792172E+02  0.28562262317E+02  0.10241169878E+02  0.32150184379E+02  0.00000000000E+00 0.  1.
<scales pt_clust_4="550.00000" pt_clust_5="550.00000" pt_clust_6="30.47545"></scales>
<mgrwt>
<rscale>  0 0.30000000E+03</rscale>
<asrwt>  1 0.30475446E+02</asrwt>
<pdfrwt beam="1">  1        1 0.84446413E+00 0.30000000E+03</pdfrwt>
<pdfrwt beam="2">0</pdfrwt>
<totfact> 0.46883720E-04</totfact>
</mgrwt>
<clustering>
<clus scale="   30.475">  1  6  2 -1</clus>
<clus scale="  471.126">  4  5 -1 -1</clus>
<clus scale="  300.000">  1  4  2 -1</clus>
</clustering>
</event>
<event>
 6    1  0.9678510E-012  0.3000000E+03  0.7818608E-02  0.1093470E+00
          1   -1    0    0  502    0  0.00000000000E+00  0.00000000000E+00  0.24226172082E+03  0.24226172082E+03  0.00000000000E+00 0.  1.
         13   -1    0    0    0    0 -0.00000000000E+00 -0.00000000000E+00 -0.27500000000E+03  0.27500000000E+03  0.00000000000E+00 0.  1.
    9000005    2    1    2  501    0  0.13082812014E+02  0.35037522273E+02 -0.10510832667E+02  0.47375485566E+03  0.47215929274E+03 0.  0.
         13    1    3    3    0    0  0.40311374321E+02 -0.66962812349E+02  0.21282519430E+03  0.22672359486E+03  0.00000000000E+00 0.  1.
          1    1    3    3  501    0 -0.27228562308E+02  0.10200033462E+03 -0.22333602697E+03  0.24703126080E+03  0.00000000000E+00 0.  1.
         21    1    1    2  502  501 -0.13082812014E+02 -0.35037522273E+02 -0.22227446513E+02  0.43506865157E+02  0.00000000000E+00 0. -1.
<scales pt_clust_4="550.00000" pt_clust_5="550.00000" pt_clust_6="37.40039"></scales>
<mgrwt>
<rscale>  0 0.30000000E+03</rscale>
<asrwt>  1 0.37400392E+02</asrwt>
<pdfrwt beam="1">  1        1 0.88095171E+00 0.30000000E+03</pdfrwt>
<pdfrwt beam="2">0</pdfrwt>
<totfact> 0.18968838E-04</totfact>
</mgrwt>
<clustering>
<clus scale="   37.400">  1  6  2 -1</clus>
<clus scale="  472.159">  4  5 -1 -1</clus>
<clus scale="  300.000">  1  4  2 -1</clus>
</clustering>
</event>
<event>
 6    1  0.9678510E-012  0.3000000E+03  0.7818608E-02  0.1093470E+00
          1   -1    0    0  502    0  0.00000000000E+00  0.00000000000E+00  0.22356315911E+03  0.22356315911E+03  0.00000000000E+00 0.  1.
         13   -1    0    0    0    0 -0.00000000000E+00 -0.00000000000E+00 -0.27500000000E+03  0.27500000000E+03  0.00000000000E+00 0.  1.
    9000005    2    1    2  501    0 -0.26152483633E+01 -0.31263722731E+02 -0.61129398667E+02  0.46572711856E+03  0.46063074767E+03 0.  0.
         13    1    3    3    0    0  0.15411259865E+02 -0.11758998150E+03 -0.23921642020E+03  0.26700076100E+03  0.00000000000E+00 0.  1.
          3    1    3    3  501    0 -0.18026508228E+02  0.86326258772E+02  0.17808702153E+03  0.19872635756E+03  0.00000000000E+00 0.  1.
         21    1    1    2  502  501  0.26152483633E+01  0.31263722731E+02  0.96925577806E+01  0.32836040555E+02  0.00000000000E+00 0. -1.
<scales pt_clust_4="550.00000" pt_clust_5="550.00000" pt_clust_6="31.37292"></scales>
<mgrwt>
<rscale>  0 0.30000000E+03</rscale>
<asrwt>  1 0.31372916E+02</asrwt>
<pdfrwt beam="1">  1        1 0.81295694E+00 0.30000000E+03</pdfrwt>
<pdfrwt beam="2">0</pdfrwt>
<totfact> 0.84389887E-04</totfact>
</mgrwt>
<clustering>
<clus scale="   31.373">  1  6  2 -1</clus>
<clus scale="  460.631">  4  5 -1 -1</clus>
<clus scale="  300.000">  1  4  2 -1</clus>
</clustering>
</event>
<event>
 6    1  0.9678510E-012  0.3000000E+03  0.7818608E-02  0.1093470E+00
          1   -1    0    0  502    0  0.00000000000E+00  0.00000000000E+00  0.23909965950E+03  0.23909965950E+03  0.00000000000E+00 0.  1.
         13   -1    0    0    0    0 -0.00000000000E+00 -0.00000000000E+00 -0.27500000000E+03  0.27500000000E+03  0.00000000000E+00 0.  1.
    9000005    2    1    2  501    0  0.32751815552E+01  0.36573118024E+02 -0.32638605116E+02  0.47723560256E+03  0.47470013907E+03 0.  0.
         13    1    3    3    0    0 -0.64202043185E+02 -0.11401797755E+03 -0.20206151215E+03  0.24072984079E+03  0.00000000000E+00 0.  1.
          3    1    3    3  501    0  0.67477224741E+02  0.15059109557E+03  0.16942290704E+03  0.23650576177E+03  0.00000000000E+00 0.  1.
         21    1    1    2  502  501 -0.32751815552E+01 -0.36573118024E+02 -0.32617353828E+01  0.36864056938E+02  0.00000000000E+00 0.  1.
<scales pt_clust_4="550.00000" pt_clust_5="550.00000" pt_clust_6="36.71949"></scales>
<mgrwt>
<rscale>  0 0.30000000E+03</rscale>
<asrwt>  1 0.36719492E+02</asrwt>
<pdfrwt beam="1">  1        1 0.86945331E+00 0.30000000E+03</pdfrwt>
<pdfrwt beam="2">0</pdfrwt>
<totfact> 0.25425590E-04</totfact>
</mgrwt>
<clustering>
<clus scale="   36.719">  1  6  2 -1</clus>
<clus scale="  474.700">  4  5 -1 -1</clus>
<clus scale="  300.000">  1  4  2 -1</clus>
</clustering>
</event>
<event>
 6    1  0.9678510E-012  0.3000000E+03  0.7818608E-02  0.1093470E+00
          1   -1    0    0  502    0  0.00000000000E+00  0.00000000000E+00  0.22145958222E+03  0.22145958222E+03  0.00000000000E+00 0.  1.
         13   -1    0    0    0    0 -0.00000000000E+00 -0.00000000000E+00 -0.27500000000E+03  0.27500000000E+03  0.00000000000E+00 0.  1.
    9000005    2    1    2  501    0 -0.32915752391E+01  0.30344367347E+02 -0.66018612487E+02  0.46348503991E+03  0.45774262412E+03 0.  0.
         13    1    3    3    0    0 -0.95408789745E+00  0.24224971061E+03 -0.67795836041E+02  0.25155935276E+03  0.00000000000E+00 0.  1.
          1    1    3    3  501    0 -0.23374873416E+01 -0.21190534327E+03  0.17772235540E+01  0.21192568715E+03  0.00000000000E+00 0.  1.
         21    1    1    2  502  501  0.32915752391E+01 -0.30344367347E+02  0.12478194709E+02  0.32974542308E+02  0.00000000000E+00 0.  1.
<scales pt_clust_4="550.00000" pt_clust_5="550.00000" pt_clust_6="30.52237"></scales>
<mgrwt>
<rscale>  0 0.30000000E+03</rscale>
<asrwt>  1 0.30522370E+02</asrwt>
<pdfrwt beam="1">  1        1 0.80530757E+00 0.30000000E+03</pdfrwt>
<pdfrwt beam="2">0</pdfrwt>
<totfact> 0.97274297E-04</totfact>
</mgrwt>
<clustering>
<clus scale="   30.522">  1  6  2 -1</clus>
<clus scale="  457.743">  4  5 -1 -1</clus>
<clus scale="  300.000">  1  4  2 -1</clus>
</clustering>
</event>
<event>
 6    1  0.9678510E-012  0.3000000E+03  0.7818608E-02  0.1093470E+00
          1   -1    0    0  502    0  0.00000000000E+00  0.00000000000E+00  0.24298237708E+03  0.24298237708E+03  0.00000000000E+00 0.  1.
         13   -1    0    0    0    0 -0.00000000000E+00 -0.00000000000E+00 -0.27500000000E+03  0.27500000000E+03  0.00000000000E+00 0.  1.
    9000005    2    1    2  501    0  0.36019812759E+02  0.12847919090E+02 -0.60058412281E+02  0.47056105483E+03  0.46514320107E+03 0.  0.
         13    1    3    3    0    0  0.14188589764E+03  0.14433770006E+03 -0.17398753985E+03  0.26690193636E+03  0.00000000000E+00 0.  1.
          1    1    3    3  501    0 -0.10586608488E+03 -0.13148978097E+03  0.11392912757E+03  0.20365911847E+03  0.00000000000E+00 0.  1.
         21    1    1    2  502  501 -0.36019812759E+02 -0.12847919090E+02  0.28040789363E+02  0.47421322253E+02  0.00000000000E+00 0. -1.
<scales pt_clust_4="550.00000" pt_clust_5="550.00000" pt_clust_6="38.24259"></scales>
<mgrwt>
<rscale>  0 0.30000000E+03</rscale>
<asrwt>  1 0.38242593E+02</asrwt>
<pdfrwt beam="1">  1        1 0.88357228E+00 0.30000000E+03</pdfrwt>
<pdfrwt beam="2">0</pdfrwt>
<totfact> 0.17456390E-04</totfact>
</mgrwt>
<clustering>
<clus scale="   38.243">  1  6  2 -1</clus>
<clus scale="  465.143">  4  5 -1 -1</clus>
<clus scale="  300.000">  1  4  2 -1</clus>
</clustering>
</event>
<event>
 6    1  0.9678510E-012  0.3000000E+03  0.7818608E-02  0.1093470E+00
          1   -1    0    0  502    0  0.00000000000E+00  0.00000000000E+00  0.23097921801E+03  0.23097921801E+03  0.00000000000E+00 0.  1.
         13   -1    0    0    0    0 -0.00000000000E+00 -0.00000000000E+00 -0.27500000000E+03  0.27500000000E+03  0.00000000000E+00 0.  1.
    9000005    2    1    2  501    0  0.42100194717E+01  0.36060951132E+02 -0.42916627395E+02  0.46965655817E+03  0.46628031190E+03 0.  0.
         13    1    3    3    0    0 -0.11768414540E+03  0.14285570287E+03 -0.17941398065E+03  0.25777254775E+03  0.00000000000E+00 0.  1.
          1    1    3    3  501    0  0.12189416487E+03 -0.10679475174E+03  0.13649735325E+03  0.21188401042E+03  0.00000000000E+00 0.  1.
         21    1    1    2  502  501 -0.42100194717E+01 -0.36060951132E+02 -0.11041545948E+01  0.36322659840E+02  0.00000000000E+00 0. -1.
<scales pt_clust_4="550.00000" pt_clust_5="550.00000" pt_clust_6="36.30587"></scales>
<mgrwt>
<rscale>  0 0.30000000E+03</rscale>
<asrwt>  1 0.36305874E+02</asrwt>
<pdfrwt beam="1">  1        1 0.83992443E+00 0.30000000E+03</pdfrwt>
<pdfrwt beam="2">0</pdfrwt>
<totfact> 0.49431879E-04</totfact>
</mgrwt>
<clustering>
<clus scale="   36.306">  1  6  2 -1</clus>
<clus scale="  466.280">  4  5 -1 -1</clus>
<clus scale="  300.000">  1  4  2 -1</clus>
</clustering>
</event>
<event>
 6    1  0.9678510E-012  0.3000000E+03  0.7818608E-02  0.1093470E+00
          1   -1    0    0  502    0  0.00000000000E+00  0.00000000000E+00  0.24484333304E+03  0.24484333304E+03  0.00000000000E+00 0.  1.
         13   -1    0    0    0    0 -0.00000000000E+00 -0.00000000000E+00 -0.27500000000E+03  0.27500000000E+03  0.00000000000E+00 0.  1.
    9000005    2    1    2  501    0 -0.81692645711E+01 -0.34310654943E+02 -0.25544966728E+02  0.48427332172E+03  0.48231125518E+03 0.  0.
         13    1    3    3    0    0 -0.34529026715E+02  0.20531688429E+03  0.77424771981E+02  0.22213030405E+03  0.00000000000E+00 0.  1.
          1    1    3    3  501    0  0.26359762144E+02 -0.23962753924E+03 -0.10296973871E+03  0.26214301767E+03  0.00000000000E+00 0.  1.
         21    1    1    2  502  501  0.81692645711E+01  0.34310654943E+02 -0.46117002327E+01  0.35570011320E+02  0.00000000000E+00 0. -1.
<scales pt_clust_4="550.00000" pt_clust_5="550.00000" pt_clust_6="35.26981"></scales>
<mgrwt>
<rscale>  0 0.30000000E+03</rscale>
<asrwt>  1 0.35269805E+02</asrwt>
<pdfrwt beam="1">  1        1 0.89033939E+00 0.30000000E+03</pdfrwt>
<pdfrwt beam="2">0</pdfrwt>
<totfact> 0.14325798E-04</totfact>
</mgrwt>
<clustering>
<clus scale="   35.270">  1  6  2 -1</clus>
<clus scale="  482.311">  4  5 -1 -1</clus>
<clus scale="  300.000">  1  4  2 -1</clus>
</clustering>
</event>
<event>
 6    1  0.9678510E-012  0.3000000E+03  0.7818608E-02  0.1093470E+00
          1   -1    0    0  502    0  0.00000000000E+00  0.00000000000E+00  0.23105422839E+03  0.23105422839E+03  0.00000000000E+00 0.  1.
         13   -1    0    0    0    0 -0.00000000000E+00 -0.00000000000E+00 -0.27500000000E+03  0.27500000000E+03  0.00000000000E+00 0.  1.
    9000005    2    1    2  501    0 -0.35017587788E+02  0.18823448981E+02 -0.26898776625E+02  0.46279739398E+03  0.46030134695E+03 0.  0.
         13    1    3    3    0    0  0.20335334731E+03 -0.45226018588E+02 -0.51955405045E+02  0.21470291273E+03  0.00000000000E+00 0.  1.
          1    1    3    3  501    0 -0.23837093510E+03  0.64049467569E+02  0.25056628419E+02  0.24809448125E+03  0.00000000000E+00 0.  1.
         21    1    1    2  502  501  0.35017587788E+02 -0.18823448981E+02 -0.17046994981E+02  0.43256834418E+02  0.00000000000E+00 0. -1.
<scales pt_clust_4="550.00000" pt_clust_5="550.00000" pt_clust_6="39.75620"></scales>
<mgrwt>
<rscale>  0 0.30000000E+03</rscale>
<asrwt>  1 0.39756198E+02</asrwt>
<pdfrwt beam="1">  1        1 0.84019719E+00 0.30000000E+03</pdfrwt>
<pdfrwt beam="2">0</pdfrwt>
<totfact> 0.48377811E-04</totfact>
</mgrwt>
<clustering>
<clus scale="   39.756">  1  6  2 -1</clus>
<clus scale="  460.301">  4  5 -1 -1</clus>
<clus scale="  300.000">  1  4  2 -1</clus>
</clustering>
</event>
<event>
 6    1  0.9678510E-012  0.3000000E+03  0.7818608E-02  0.1093470E+00
          1   -1    0    0  502    0  0.00000000000E+00  0.00000000000E+00  0.23241287382E+03  0.23241287382E+03  0.00000000000E+00 0.  1.
         13   -1    0    0    0    0 -0.00000000000E+00 -0.00000000000E+00 -0.27500000000E+03  0.27500000000E+03  0.00000000000E+00 0.  1.
    9000005    2    1    2  501    0 -0.80204186511E+01 -0.35426552347E+02 -0.64001420304E+02  0.46524725134E+03  0.45939030829E+03 0.  0.
         13    1    3    3    0    0 -0.20875042476E+03 -0.86324935271E+02 -0.11280002763E+03  0.25249273360E+03  0.00000000000E+00 0.  1.
          3    1    3    3  501    0  0.20073000611E+03  0.50898382924E+02  0.48798607328E+02  0.21275451773E+03  0.00000000000E+00 0.  1.
         21    1    1    2  502  501  0.80204186511E+01  0.35426552347E+02  0.21414294123E+02  0.42165622483E+02  0.00000000000E+00 0. -1.
<scales pt_clust_4="550.00000" pt_clust_5="550.00000" pt_clust_6="36.32310"></scales>
<mgrwt>
<rscale>  0 0.30000000E+03</rscale>
<asrwt>  1 0.36323102E+02</asrwt>
<pdfrwt beam="1">  1        1 0.84513772E+00 0.30000000E+03</pdfrwt>
<pdfrwt beam="2">0</pdfrwt>
<totfact> 0.44746693E-04</totfact>
</mgrwt>
<clustering>
<clus scale="   36.323">  1  6  2 -1</clus>
<clus scale="  459.390">  4  5 -1 -1</clus>
<clus scale="  300.000">  1  4  2 -1</clus>
</clustering>
</event>
<event>
 6    1  0.9678510E-012  0.3000000E+03  0.7818608E-02  0.1093470E+00
          1   -1    0    0  502    0  0.00000000000E+00  0.00000000000E+00  0.23424386298E+03  0.23424386298E+03  0.00000000000E+00 0.  1.
         13   -1    0    0    0    0 -0.00000000000E+00 -0.00000000000E+00 -0.27500000000E+03  0.27500000000E+03  0.00000000000E+00 0.  1.
    9000005    2    1    2  501    0  0.28784957184E+01 -0.32741648641E+02 -0.72162224369E+02  0.46378351085E+03  0.45695454590E+03 0.  0.
         13    1    3    3    0    0  0.72534025265E+02  0.17361936498E+03  0.73234713507E+02  0.20191134684E+03  0.00000000000E+00 0.  1.
          1    1    3    3  501    0 -0.69655529547E+02 -0.20636101362E+03 -0.14539693788E+03  0.26187216401E+03  0.00000000000E+00 0.  1.
         21    1    1    2  502  501 -0.28784957184E+01  0.32741648641E+02  0.31406087347E+02  0.45460352129E+02  0.00000000000E+00 0.  1.
<scales pt_clust_4="550.00000" pt_clust_5="550.00000" pt_clust_6="32.86794"></scales>
<mgrwt>
<rscale>  0 0.30000000E+03</rscale>
<asrwt>  1 0.32867937E+02</asrwt>
<pdfrwt beam="1">  1        1 0.85179587E+00 0.30000000E+03</pdfrwt>
<pdfrwt beam="2">0</pdfrwt>
<totfact> 0.39600720E-04</totfact>
</mgrwt>
<clustering>
<clus scale="   32.868">  1  6  2 -1</clus>
<clus scale="  456.955">  4  5 -1 -1</clus>
<clus scale="  300.000">  1  4  2 -1</clus>
</clustering>
</event>
<event>
 6    1  0.9678510E-012  0.3000000E+03  0.7818608E-02  0.1093470E+00
          1   -1    0    0  502    0  0.00000000000E+00  0.00000000000E+00  0.23948060054E+03  0.23948060054E+03  0.00000000000E+00 0.  1.
         13   -1    0    0    0    0 -0.00000000000E+00 -0.00000000000E+00 -0.27500000000E+03  0.27500000000E+03  0.00000000000E+00 0.  1.
    9000005    2    1    2  501    0  0.32197826114E+02 -0.40785851360E+02 -0.46321276931E+02  0.46140644266E+03  0.45612504750E+03 0.  0.
         13    1    3    3    0    0 -0.96402313500E+01 -0.50289877930E+02 -0.24901321632E+03  0.25422349967E+03  0.00000000000E+00 0.  1.
          1    1    3    3  501    0  0.41838057464E+02  0.95040265703E+01  0.20269193939E+03  0.20718294299E+03  0.00000000000E+00 0.  1.
         21    1    1    2  502  501 -0.32197826114E+02  0.40785851360E+02  0.10801877472E+02  0.53074157879E+02  0.00000000000E+00 0.  1.
<scales pt_clust_4="550.00000" pt_clust_5="550.00000" pt_clust_6="51.96331"></scales>
<mgrwt>
<rscale>  0 0.30000000E+03</rscale>
<asrwt>  1 0.51963311E+02</asrwt>
<pdfrwt beam="1">  1        1 0.87083855E+00 0.30000000E+03</pdfrwt>
<pdfrwt beam="2">0</pdfrwt>
<totfact> 0.23121531E-04</totfact>
</mgrwt>
<clustering>
<clus scale="   51.963">  1  6  2 -1</clus>
<clus scale="  456.125">  4  5 -1 -1</clus>
<clus scale="  300.000">  1  4  2 -1</clus>
</clustering>
</event>
<event>
 6    1  0.9678510E-012  0.3000000E+03  0.7818608E-02  0.1093470E+00
          1   -1    0    0  502    0  0.00000000000E+00  0.00000000000E+00  0.24235921551E+03  0.24235921551E+03  0.00000000000E+00 0.  1.
         13   -1    0    0    0    0 -0.00000000000E+00 -0.00000000000E+00 -0.27500000000E+03  0.27500000000E+03  0.00000000000E+00 0.  1.
    9000005    2    1    2  501    0 -0.68923718486E+01  0.38245665508E+02 -0.50143855412E+02  0.47473770438E+03  0.47047980403E+03 0.  0.
         13    1    3    3    0    0 -0.89184685121E+01  0.24282353602E+03  0.48229937622E+02  0.24772754309E+03  0.00000000000E+00 0.  1.
          3    1    3    3  501    0  0.20260966635E+01 -0.20457787051E+03 -0.98373793033E+02  0.22701016128E+03  0.00000000000E+00 0.  1.
         21    1    1    2  502  501  0.68923718486E+01 -0.38245665508E+02  0.17503070924E+02  0.42621511137E+02  0.00000000000E+00 0.  1.
<scales pt_clust_4="550.00000" pt_clust_5="550.00000" pt_clust_6="38.86175"></scales>
<mgrwt>
<rscale>  0 0.30000000E+03</rscale>
<asrwt>  1 0.38861751E+02</asrwt>
<pdfrwt beam="1">  1        1 0.88130624E+00 0.30000000E+03</pdfrwt>
<pdfrwt beam="2">0</pdfrwt>
<totfact> 0.18640574E-04</totfact>
</mgrwt>
<clustering>
<clus scale="   38.862">  1  6  2 -1</clus>
<clus scale="  470.480">  4  5 -1 -1</clus>
<clus scale="  300.000">  1  4  2 -1</clus>
</clustering>
</event>
<event>
 6    1  0.9678510E-012  0.3000000E+03  0.7818608E-02  0.1093470E+00
          1   -1    0    0  502    0  0.00000000000E+00  0.00000000000E+00  0.23867256411E+03  0.23867256411E+03  0.00000000000E+00 0.  1.
         13   -1    0    0    0    0 -0.00000000000E+00 -0.00000000000E+00 -0.27500000000E+03  0.27500000000E+03  0.00000000000E+00 0.  1.
    9000005    2    1    2  501    0  0.31305719727E+02 -0.13586952781E+02 -0.68836678367E+02  0.46653972821E+03  0.46016972558E+03 0.  0.
         13    1    3    3    0    0 -0.19126177888E+03 -0.48943546246E+02 -0.12579354984E+03  0.23409518569E+03  0.00000000000E+00 0.  1.
          3    1    3    3  501    0  0.22256749861E+03  0.35356593465E+02  0.56956871476E+02  0.23244454252E+03  0.00000000000E+00 0.  1.
         21    1    1    2  502  501 -0.31305719727E+02  0.13586952781E+02  0.32509242473E+02  0.47132835897E+02  0.00000000000E+00 0.  1.
<scales pt_clust_4="550.00000" pt_clust_5="550.00000" pt_clust_6="34.12702"></scales>
<mgrwt>
<rscale>  0 0.30000000E+03</rscale>
<asrwt>  1 0.34127018E+02</asrwt>
<pdfrwt beam="1">  1        1 0.86790023E+00 0.30000000E+03</pdfrwt>
<pdfrwt beam="2">0</pdfrwt>
<totfact> 0.26744682E-04</totfact>
</mgrwt>
<clustering>
<clus scale="   34.127">  1  6  2 -1</clus>
<clus scale="  460.170">  4  5 -1 -1</clus>
<clus scale="  300.000">  1  4  2 -1</clus>
</clustering>
</event>
<event>
 6    1  0.9678510E-012  0.3000000E+03  0.7818608E-02  0.1093470E+00
          1   -1    0    0  502    0  0.00000000000E+00  0.00000000000E+00  0.23615861350E+03  0.23615861350E+03  0.00000000000E+00 0.  1.
         13   -1    0    0    0    0 -0.00000000000E+00 -0.00000000000E+00 -0.27500000000E+03  0.27500000000E+03  0.00000000000E+00 0.  1.
    9000005    2    1    2  501    0 -0.33462644238E+02 -0.54051049911E+01 -0.28750613568E+02  0.47579214042E+03  0.47371151494E+03 0.  0.
         13    1    3    3    0    0 -0.17456339020E+03 -0.17947932828E+03 -0.45620191696E+01  0.25041169800E+03  0.00000000000E+00 0.  1.
          3    1    3    3  501    0  0.14110074596E+03  0.17407422329E+03 -0.24188594399E+02  0.22538044242E+03  0.00000000000E+00 0.  1.
         21    1    1    2  502  501  0.33462644238E+02  0.54051049911E+01 -0.10090772934E+02  0.35366473075E+02  0.00000000000E+00 0. -1.
<scales pt_clust_4="550.00000" pt_clust_5="550.00000" pt_clust_6="33.89638"></scales>
<mgrwt>
<rscale>  0 0.30000000E+03</rscale>
<asrwt>  1 0.33896384E+02</asrwt>
<pdfrwt beam="1">  1        1 0.85875859E+00 0.30000000E+03</pdfrwt>
<pdfrwt beam="2">0</pdfrwt>
<totfact> 0.33542782E-04</totfact>
</mgrwt>
<clustering>
<clus scale="   33.896">  1  6  2 -1</clus>
<clus scale="  473.712">  4  5 -1 -1</clus>
<clus scale="  300.000">  1  4  2 -1</clus>
</clustering>
</event>
<event>
 6    1  0.9678510E-012  0.3000000E+03  0.7818608E-02  0.1093470E+00
          1   -1    0    0  502    0  0.00000000000E+00  0.00000000000E+00  0.24761569686E+03  0.24761569686E+03  0.00000000000E+00 0.  1.
         13   -1    0    0    0    0 -0.00000000000E+00 -0.00000000000E+00 -0.27500000000E+03  0.27500000000E+03  0.00000000000E+00 0.  1.
    9000005    2    1    2  501    0  0.34404393943E+02 -0.18594878847E+02 -0.56179732936E+02  0.47405018833E+03  0.46908206832E+03 0.  0.
         13    1    3    3    0    0 -0.71623078201E+02 -0.44098529419E+01  0.19136730287E+03  0.20437895377E+03  0.00000000000E+00 0.  1.
          1    1    3    3  501    0  0.10602747214E+03 -0.14185025905E+02 -0.24754703581E+03  0.26967123456E+03  0.00000000000E+00 0.  1.
         21    1    1    2  502  501 -0.34404393943E+02  0.18594878847E+02  0.28795429791E+02  0.48565508530E+02  0.00000000000E+00 0.  1.
<scales pt_clust_4="550.00000" pt_clust_5="550.00000" pt_clust_6="39.10795"></scales>
<mgrwt>
<rscale>  0 0.30000000E+03</rscale>
<asrwt>  1 0.39107951E+02</asrwt>
<pdfrwt beam="1">  1        1 0.90042072E+00 0.30000000E+03</pdfrwt>
<pdfrwt beam="2">0</pdfrwt>
<totfact> 0.10687075E-04</totfact>
</mgrwt>
<clustering>
<clus scale="   39.108">  1  6  2 -1</clus>
<clus scale="  469.082">  4  5 -1 -1</clus>
<clus scale="  300.000">  1  4  2 -1</clus>
</clustering>
</event>
<event>
 6    1  0.9678510E-012  0.3000000E+03  0.7818608E-02  0.1093470E+00
          1   -1    0    0  502    0  0.00000000000E+00  0.00000000000E+00  0.22941032136E+03  0.22941032136E+03  0.00000000000E+00 0.  1.
         13   -1    0    0    0    0 -0.00000000000E+00 -0.00000000000E+00 -0.27500000000E+03  0.27500000000E+03  0.00000000000E+00 0.  1.
    9000005    2    1    2  501    0 -0.20157228972E+02 -0.35992433648E+02 -0.49725999832E+02  0.46295096400E+03  0.45842027753E+03 0.  0.
         13    1    3    3    0    0  0.18819013452E+03  0.45355714931E+02 -0.12090380356E+03  0.22823320819E+03  0.00000000000E+00 0.  1.
          1    1    3    3  501    0 -0.20834736349E+03 -0.81348148579E+02  0.71177803724E+02  0.23471775581E+03  0.00000000000E+00 0.  1.
         21    1    1    2  502  501  0.20157228972E+02  0.35992433648E+02  0.41363211951E+01  0.41459357360E+02  0.00000000000E+00 0.  1.
<scales pt_clust_4="550.00000" pt_clust_5="550.00000" pt_clust_6="41.25250"></scales>
<mgrwt>
<rscale>  0 0.30000000E+03</rscale>
<asrwt>  1 0.41252505E+02</asrwt>
<pdfrwt beam="1">  1        1 0.83421935E+00 0.30000000E+03</pdfrwt>
<pdfrwt beam="2">0</pdfrwt>
<totfact> 0.53181825E-04</totfact>
</mgrwt>
<clustering>
<clus scale="   41.253">  1  6  2 -1</clus>
<clus scale="  458.420">  4  5 -1 -1</clus>
<clus scale="  300.000">  1  4  2 -1</clus>
</clustering>
</event>
<event>
 6    1  0.9678510E-012  0.3000000E+03  0.7818608E-02  0.1093470E+00
          1   -1    0    0  502    0  0.00000000000E+00  0.00000000000E+00  0.23601095118E+03  0.23601095118E+03  0.00000000000E+00 0.  1.
         13   -1    0    0    0    0 -0.00000000000E+00 -0.00000000000E+00 -0.27500000000E+03  0.27500000000E+03  0.00000000000E+00 0.  1.
    9000005    2    1    2  501    0  0.36745823826E+01 -0.34528246923E+02 -0.66223006088E+02  0.46688169989E+03  0.46085500188E+03 0.  0.
         13    1    3    3    0    0  0.18031983014E+03 -0.10193092663E+03 -0.15431490278E+03  0.25829874984E+03  0.00000000000E+00 0.  1.
          3    1    3    3  501    0 -0.17664524776E+03  0.67402679703E+02  0.88091896694E+02  0.20858295005E+03  0.00000000000E+00 0.  1.
         21    1    1    2  502  501 -0.36745823826E+01  0.34528246923E+02  0.27233957266E+02  0.44129251293E+02  0.00000000000E+00 0.  1.
<scales pt_clust_4="550.00000" pt_clust_5="550.00000" pt_clust_6="34.72323"></scales>
<mgrwt>
<rscale>  0 0.30000000E+03</rscale>
<asrwt>  1 0.34723226E+02</asrwt>
<pdfrwt beam="1">  1        1 0.85822164E+00 0.30000000E+03</pdfrwt>
<pdfrwt beam="2">0</pdfrwt>
<totfact> 0.33827600E-04</totfact>
</mgrwt>
<clustering>
<clus scale="   34.723">  1  6  2 -1</clus>
<clus scale="  460.855">  4  5 -1 -1</clus>
<clus scale="  300.000">  1  4  2 -1</clus>
</clustering>
</event>
<event>
 6    1  0.9678510E-012  0.3000000E+03  0.7818608E-02  0.1093470E+00
          1   -1    0    0  502    0  0.00000000000E+00  0.00000000000E+00  0.22971102891E+03  0.22971102891E+03  0.00000000000E+00 0.  1.
         13   -1    0    0    0    0 -0.00000000000E+00 -0.00000000000E+00 -0.27500000000E+03  0.27500000000E+03  0.00000000000E+00 0.  1.
    9000005    2    1    2  501    0 -0.16844903846E+02 -0.29075071272E+02 -0.33654370636E+02  0.46915157894E+03  0.46673491063E+03 0.  0.
         13    1    3    3    0    0  0.11467181258E+02  0.83764625961E+02 -0.22770795297E+03  0.24289693423E+03  0.00000000000E+00 0.  1.
          3    1    3    3  501    0 -0.28312085105E+02 -0.11283969723E+03  0.19405358234E+03  0.22625464471E+03  0.00000000000E+00 0.  1.
         21    1    1    2  502  501  0.16844903846E+02  0.29075071272E+02 -0.11634600450E+02  0.35559449977E+02  0.00000000000E+00 0. -1.
<scales pt_clust_4="550.00000" pt_clust_5="550.00000" pt_clust_6="33.60226"></scales>
<mgrwt>
<rscale>  0 0.30000000E+03</rscale>
<asrwt>  1 0.33602257E+02</asrwt>
<pdfrwt beam="1">  1        1 0.83531283E+00 0.30000000E+03</pdfrwt>
<pdfrwt beam="2">0</pdfrwt>
<totfact> 0.54229025E-04</totfact>
</mgrwt>
<clustering>
<clus scale="   33.602">  1  6  2 -1</clus>
<clus scale="  466.735">  4  5 -1 -1</clus>
<clus scale="  300.000">  1  4  2 -1</clus>
</clustering>
</event>
<event>
 6    1  0.9678510E-012  0.3000000E+03  0.7818608E-02  0.1093470E+00
          1   -1    0    0  502    0  0.00000000000E+00  0.00000000000E+00  0.24769863149E+03  0.24769863149E+03  0.00000000000E+00 0.  1.
         13   -1    0    0    0    0 -0.00000000000E+00 -0.00000000000E+00 -0.27500000000E+03  0.27500000000E+03  0.00000000000E+00 0.  1.
    9000005    2    1    2  501    0 -0.35003246322E+02 -0.36834254655E+01 -0.42961377018E+02  0.48417551190E+03  0.48097967892E+03 0.  0.
         13    1    3    3    0    0  0.16688288336E+03  0.10786367903E+03 -0.13021358804E+03  0.23757114413E+03  0.00000000000E+00 0.  1.
          1    1    3    3  501    0 -0.20188612968E+03 -0.11154710449E+03  0.87252211021E+02  0.24660436778E+03  0.00000000000E+00 0.  1.
         21    1    1    2  502  501  0.35003246322E+02  0.36834254655E+01  0.15660008508E+02  0.38523119587E+02  0.00000000000E+00 0. -1.
<scales pt_clust_4="550.00000" pt_clust_5="550.00000" pt_clust_6="35.19652"></scales>
<mgrwt>
<rscale>  0 0.30000000E+03</rscale>
<asrwt>  1 0.35196518E+02</asrwt>
<pdfrwt beam="1">  1        1 0.90072230E+00 0.30000000E+03</pdfrwt>
<pdfrwt beam="2">0</pdfrwt>
<totfact> 0.10799390E-04</totfact>
</mgrwt>
<clustering>
<clus scale="   35.197">  1  6  2 -1</clus>
<clus scale="  480.980">  4  5 -1 -1</clus>
<clus scale="  300.000">  1  4  2 -1</clus>
</clustering>
</event>
<event>
 6    1  0.9678510E-012  0.3000000E+03  0.7818608E-02  0.1093470E+00
          1   -1    0    0  502    0  0.00000000000E+00  0.00000000000E+00  0.23461743268E+03  0.23461743268E+03  0.00000000000E+00 0.  1.
         13   -1    0    0    0    0 -0.00000000000E+00 -0.00000000000E+00 -0.27500000000E+03  0.27500000000E+03  0.00000000000E+00 0.  1.
    9000005    2    1    2  501    0 -0.17157252148E+02 -0.30701483858E+02 -0.43510255311E+02  0.47430830009E+03  0.47099710063E+03 0.  0.
         13    1    3    3    0    0 -0.89875061686E+01 -0.59846498330E+02 -0.25427692223E+03  0.26137928726E+03  0.00000000000E+00 0.  1.
          3    1    3    3  501    0 -0.81697459796E+01  0.29145014472E+02  0.21076666692E+03  0.21292901283E+03  0.00000000000E+00 0.  1.
         21    1    1    2  502  501  0.17157252148E+02  0.30701483858E+02  0.31276879937E+01  0.35309132594E+02  0.00000000000E+00 0.  1.
<scales pt_clust_4="550.00000" pt_clust_5="550.00000" pt_clust_6="35.17033"></scales>
<mgrwt>
<rscale>  0 0.30000000E+03</rscale>
<asrwt>  1 0.35170334E+02</asrwt>
<pdfrwt beam="1">  1        1 0.85315430E+00 0.30000000E+03</pdfrwt>
<pdfrwt beam="2">0</pdfrwt>
<totfact> 0.37941777E-04</totfact>
</mgrwt>
<clustering>
<clus scale="   35.170">  1  6  2 -1</clus>
<clus scale="  470.997">  4  5 -1 -1</clus>
<clus scale="  300.000">  1  4  2 -1</clus>
</clustering>
</event>
<event>
 6    1  0.9678510E-012  0.3000000E+03  0.7818608E-02  0.1093470E+00
          1   -1    0    0  502    0  0.00000000000E+00  0.00000000000E+00  0.25713600274E+03  0.25713600274E+03  0.00000000000E+00 0.  1.
         13   -1    0    0    0    0 -0.00000000000E+00 -0.00000000000E+00 -0.27500000000E+03  0.27500000000E+03  0.00000000000E+00 0.  1.
    9000005    2    1    2  501    0  0.33480505134E+02  0.84774300915E+01 -0.72431176445E+02  0.46755746072E+03  0.46062011757E+03 0.  0.
         13    1    3    3    0    0  0.21024283888E+03 -0.10299149749E+03  0.27855464720E+02  0.23576519415E+03  0.00000000000E+00 0.  1.
          1    1    3    3  501    0 -0.17676233375E+03  0.11146892758E+03 -0.10028664116E+03  0.23179226658E+03  0.00000000000E+00 0.  1.
         21    1    1    2  502  501 -0.33480505134E+02 -0.84774300915E+01  0.54567179183E+02  0.64578542017E+02  0.00000000000E+00 0.  1.
<scales pt_clust_4="550.00000" pt_clust_5="550.00000" pt_clust_6="34.53710"></scales>
<mgrwt>
<rscale>  0 0.30000000E+03</rscale>
<asrwt>  1 0.34537097E+02</asrwt>
<pdfrwt beam="1">  1        1 0.93504001E+00 0.30000000E+03</pdfrwt>
<pdfrwt beam="2">0</pdfrwt>
<totfact> 0.22556256E-05</totfact>
</mgrwt>
<clustering>
<clus scale="   34.537">  1  6  2 -1</clus>
<clus scale="  460.620">  4  5 -1 -1</clus>
<clus scale="  300.000">  1  4  2 -1</clus>
</clustering>
</event>
<event>
 6    1  0.9678510E-012  0.3000000E+03  0.7818608E-02  0.1093470E+00
          1   -1    0    0  502    0  0.00000000000E+00  0.00000000000E+00  0.25291021065E+03  0.25291021065E+03  0.00000000000E+00 0.  1.
         13   -1    0    0    0    0 -0.00000000000E+00 -0.00000000000E+00 -0.27500000000E+03  0.27500000000E+03  0.00000000000E+00 0.  1.
    9000005    2    1    2  501    0  0.74000152278E+01  0.31588566354E+02 -0.42555380076E+02  0.48955088123E+03  0.48661741357E+03 0.  0.
         13    1    3    3    0    0 -0.22934972233E+03 -0.53518911325E+02 -0.32749547827E+02  0.23777742089E+03  0.00000000000E+00 0.  1.
          3    1    3    3  501    0  0.23674973755E+03  0.85107477679E+02 -0.98058322494E+01  0.25177346035E+03  0.00000000000E+00 0.  1.
         21    1    1    2  502  501 -0.74000152278E+01 -0.31588566354E+02  0.20465590728E+02  0.38359329419E+02  0.00000000000E+00 0. -1.
<scales pt_clust_4="550.00000" pt_clust_5="550.00000" pt_clust_6="32.44376"></scales>
<mgrwt>
<rscale>  0 0.30000000E+03</rscale>
<asrwt>  1 0.32443763E+02</asrwt>
<pdfrwt beam="1">  1        1 0.91967349E+00 0.30000000E+03</pdfrwt>
<pdfrwt beam="2">0</pdfrwt>
<totfact> 0.43100753E-05</totfact>
</mgrwt>
<clustering>
<clus scale="   32.444">  1  6  2 -1</clus>
<clus scale="  486.617">  4  5 -1 -1</clus>
<clus scale="  300.000">  1  4  2 -1</clus>
</clustering>
</event>
<event>
 6    1  0.9678510E-012  0.3000000E+03  0.7818608E-02  0.1093470E+00
          1   -1    0    0  502    0  0.00000000000E+00  0.00000000000E+00  0.26026442320E+03  0.26026442320E+03  0.00000000000E+00 0.  1.
         13   -1    0    0    0    0 -0.00000000000E+00 -0.00000000000E+00 -0.27500000000E+03  0.27500000000E+03  0.00000000000E+00 0.  1.
    9000005    2    1    2  501    0 -0.47226497255E+01 -0.30186265848E+02 -0.66936570792E+02  0.47477923625E+03  0.46904296669E+03 0.  0.
         13    1    3    3    0    0  0.54008597440E+02  0.11696652151E+03  0.15534025643E+03  0.20181350554E+03  0.00000000000E+00 0.  1.
          1    1    3    3  501    0 -0.58731247166E+02 -0.14715278736E+03 -0.22227682722E+03  0.27296573071E+03  0.00000000000E+00 0.  1.
         21    1    1    2  502  501  0.47226497255E+01  0.30186265848E+02  0.52200993988E+02  0.60485186944E+02  0.00000000000E+00 0.  1.
<scales pt_clust_4="550.00000" pt_clust_5="550.00000" pt_clust_6="30.55346"></scales>
<mgrwt>
<rscale>  0 0.30000000E+03</rscale>
<asrwt>  1 0.30553462E+02</asrwt>
<pdfrwt beam="1">  1        1 0.94641608E+00 0.30000000E+03</pdfrwt>
<pdfrwt beam="2">0</pdfrwt>
<totfact> 0.14966777E-05</totfact>
</mgrwt>
<clustering>
<clus scale="   30.553">  1  6  2 -1</clus>
<clus scale="  469.043">  4  5 -1 -1</clus>
<clus scale="  300.000">  1  4  2 -1</clus>
</clustering>
</event>
<event>
 6    1  0.9678510E-012  0.3000000E+03  0.7818608E-02  0.1093470E+00
          1   -1    0    0  502    0  0.00000000000E+00  0.00000000000E+00  0.23225162790E+03  0.23225162790E+03  0.00000000000E+00 0.  1.
         13   -1    0    0    0    0 -0.00000000000E+00 -0.00000000000E+00 -0.27500000000E+03  0.27500000000E+03  0.00000000000E+00 0.  1.
    9000005    2    1    2  501    0 -0.28396388023E+02 -0.15552785816E+02 -0.42387134159E+02  0.47487301626E+03  0.47186806252E+03 0.  0.
         13    1    3    3    0    0  0.13195836840E+03  0.16799738393E+03 -0.80284643417E+02  0.22821427643E+03  0.00000000000E+00 0.  1.
          3    1    3    3  501    0 -0.16035475642E+03 -0.18355016975E+03  0.37897509258E+02  0.24665873982E+03  0.00000000000E+00 0.  1.
         21    1    1    2  502  501  0.28396388023E+02  0.15552785816E+02 -0.36123793812E+00  0.32378611648E+02  0.00000000000E+00 0. -1.
<scales pt_clust_4="550.00000" pt_clust_5="550.00000" pt_clust_6="32.37660"></scales>
<mgrwt>
<rscale>  0 0.30000000E+03</rscale>
<asrwt>  1 0.32376596E+02</asrwt>
<pdfrwt beam="1">  1        1 0.84455137E+00 0.30000000E+03</pdfrwt>
<pdfrwt beam="2">0</pdfrwt>
<totfact> 0.46264596E-04</totfact>
</mgrwt>
<clustering>
<clus scale="   32.377">  1  6  2 -1</clus>
<clus scale="  471.868">  4  5 -1 -1</clus>
<clus scale="  300.000">  1  4  2 -1</clus>
</clustering>
</event>
<event>
 6    1  0.9678510E-012  0.3000000E+03  0.7818608E-02  0.1093470E+00
          1   -1    0    0  502    0  0.00000000000E+00  0.00000000000E+00  0.23370487707E+03  0.23370487707E+03  0.00000000000E+00 0.  1.
         13   -1    0    0    0    0 -0.00000000000E+00 -0.00000000000E+00 -0.27500000000E+03  0.27500000000E+03  0.00000000000E+00 0.  1.
    9000005    2    1    2  501    0 -0.28320996520E+02 -0.13081912349E+02 -0.59299212894E+02  0.47268595801E+03  0.46791281557E+03 0.  0.
         13    1    3    3    0    0 -0.90043286137E+02 -0.80984601684E+02  0.17968710588E+03  0.21668815175E+03  0.00000000000E+00 0.  1.
          1    1    3    3  501    0  0.61722289617E+02  0.67902689335E+02 -0.23898631877E+03  0.25599780627E+03  0.00000000000E+00 0.  1.
         21    1    1    2  502  501  0.28320996520E+02  0.13081912349E+02  0.18004089963E+02  0.36018919056E+02  0.00000000000E+00 0. -1.
<scales pt_clust_4="550.00000" pt_clust_5="550.00000" pt_clust_6="31.19640"></scales>
<mgrwt>
<rscale>  0 0.30000000E+03</rscale>
<asrwt>  1 0.31196398E+02</asrwt>
<pdfrwt beam="1">  1        1 0.84983592E+00 0.30000000E+03</pdfrwt>
<pdfrwt beam="2">0</pdfrwt>
<totfact> 0.41741115E-04</totfact>
</mgrwt>
<clustering>
<clus scale="   31.196">  1  6  2 -1</clus>
<clus scale="  467.913">  4  5 -1 -1</clus>
<clus scale="  300.000">  1  4  2 -1</clus>
</clustering>
</event>
<event>
 6    1  0.9678510E-012  0.3000000E+03  0.7818608E-02  0.1093470E+00
          1   -1    0    0  502    0  0.00000000000E+00  0.00000000000E+00  0.22669973000E+03  0.22669973000E+03  0.00000000000E+00 0.  1.
         13   -1    0    0    0    0 -0.00000000000E+00 -0.00000000000E+00 -0.27500000000E+03  0.27500000000E+03  0.00000000000E+00 0.  1.
    9000005    2    1    2  501    0  0.17305472279E+02 -0.31384183997E+02 -0.55888319885E+02  0.46506607229E+03  0.46030261885E+03 0.  0.
         13    1    3    3    0    0 -0.51027465121E+02 -0.10756545079E+03 -0.23235037751E+03  0.26107628450E+03  0.00000000000E+00 0.  1.
          1    1    3    3  501    0  0.68332937400E+02  0.76181266796E+02  0.17646205762E+03  0.20398978779E+03  0.00000000000E+00 0.  1.
         21    1    1    2  502  501 -0.17305472279E+02  0.31384183997E+02  0.75880498891E+01  0.36633657709E+02  0.00000000000E+00 0. -1.
<scales pt_clust_4="550.00000" pt_clust_5="550.00000" pt_clust_6="35.83917"></scales>
<mgrwt>
<rscale>  0 0.30000000E+03</rscale>
<asrwt>  1 0.35839174E+02</asrwt>
<pdfrwt beam="1">  1        1 0.82436265E+00 0.30000000E+03</pdfrwt>
<pdfrwt beam="2">0</pdfrwt>
<totfact> 0.65887146E-04</totfact>
</mgrwt>
<clustering>
<clus scale="   35.839">  1  6  2 -1</clus>
<clus scale="  460.303">  4  5 -1 -1</clus>
<clus scale="  300.000">  1  4  2 -1</clus>
</clustering>
</event>
<event>
 6    1  0.9678510E-012  0.3000000E+03  0.7818608E-02  0.1093470E+00
          1   -1    0    0  502    0  0.00000000000E+00  0.00000000000E+00  0.22110869877E+03  0.22110869877E+03  0.00000000000E+00 0.  1.
         13   -1    0    0    0    0 -0.00000000000E+00 -0.00000000000E+00 -0.27500000000E+03  0.27500000000E+03  0.00000000000E+00 0.  1.
    9000005    2    1    2  501    0  0.48183623954E+01 -0.29812313787E+02 -0.63311058692E+02  0.46447450050E+03  0.45914734105E+03 0.  0.
         13    1    3    3    0    0 -0.17166058460E+03 -0.65723852635E+02 -0.17398020418E+03  0.25309305118E+03  0.00000000000E+00 0.  1.
          3    1    3    3  501    0  0.17647894699E+03  0.35911538848E+02  0.11066914549E+03  0.21138144932E+03  0.00000000000E+00 0.  1.
         21    1    1    2  502  501 -0.48183623954E+01  0.29812313787E+02  0.94197574670E+01  0.31634198271E+02  0.00000000000E+00 0. -1.
<scales pt_clust_4="550.00000" pt_clust_5="550.00000" pt_clust_6="30.19918"></scales>
<mgrwt>
<rscale>  0 0.30000000E+03</rscale>
<asrwt>  1 0.30199183E+02</asrwt>
<pdfrwt beam="1">  1        1 0.80403163E+00 0.30000000E+03</pdfrwt>
<pdfrwt beam="2">0</pdfrwt>
<totfact> 0.99652660E-04</totfact>
</mgrwt>
<clustering>
<clus scale="   30.199">  1  6  2 -1</clus>
<clus scale="  459.147">  4  5 -1 -1</clus>
<clus scale="  300.000">  1  4  2 -1</clus>
</clustering>
</event>
<event>
 6    1  0.9678510E-012  0.3000000E+03  0.7818608E-02  0.1093470E+00
          1   -1    0    0  502    0  0.00000000000E+00  0.00000000000E+00  0.23046340234E+03  0.23046340234E+03  0.00000000000E+00 0.  1.
         13   -1    0    0    0    0 -0.00000000000E+00 -0.00000000000E+00 -0.27500000000E+03  0.27500000000E+03  0.00000000000E+00 0.  1.
    9000005    2    1    2  501    0 -0.15505828840E+02  0.26624868375E+02 -0.42904920597E+02  0.47460928245E+03  0.47166070902E+03 0.  0.
         13    1    3    3    0    0 -0.15200441650E+03  0.14254103130E+03  0.11311154260E+03  0.23710231823E+03  0.00000000000E+00 0.  1.
          1    1    3    3  501    0  0.13649858766E+03 -0.11591616293E+03 -0.15601646320E+03  0.23750696422E+03  0.00000000000E+00 0.  1.
         21    1    1    2  502  501  0.15505828840E+02 -0.26624868375E+02 -0.16316770668E+01  0.30854119888E+02  0.00000000000E+00 0.  1.
<scales pt_clust_4="550.00000" pt_clust_5="550.00000" pt_clust_6="30.81095"></scales>
<mgrwt>
<rscale>  0 0.30000000E+03</rscale>
<asrwt>  1 0.30810945E+02</asrwt>
<pdfrwt beam="1">  1        1 0.83804874E+00 0.30000000E+03</pdfrwt>
<pdfrwt beam="2">0</pdfrwt>
<totfact> 0.52660168E-04</totfact>
</mgrwt>
<clustering>
<clus scale="   30.811">  1  6  2 -1</clus>
<clus scale="  471.661">  4  5 -1 -1</clus>
<clus scale="  300.000">  1  4  2 -1</clus>
</clustering>
</event>
<event>
 6    1  0.9678510E-012  0.3000000E+03  0.7818608E-02  0.1093470E+00
          1   -1    0    0  502    0  0.00000000000E+00  0.00000000000E+00  0.24067440046E+03  0.24067440046E+03  0.00000000000E+00 0.  1.
         13   -1    0    0    0    0 -0.00000000000E+00 -0.00000000000E+00 -0.27500000000E+03  0.27500000000E+03  0.00000000000E+00 0.  1.
    9000005    2    1    2  501    0  0.23816937495E+02  0.19703329356E+02 -0.34421847097E+02  0.48476361006E+03  0.48255095729E+03 0.  0.
         13    1    3    3    0    0 -0.24816289109E+02 -0.15504361911E+03  0.15630703912E+03  0.22155419768E+03  0.00000000000E+00 0.  1.
          3    1    3    3  501    0  0.48633226605E+02  0.17474694847E+03 -0.19072888622E+03  0.26320941238E+03  0.00000000000E+00 0.  1.
         21    1    1    2  502  501 -0.23816937495E+02 -0.19703329356E+02  0.96247556918E-01  0.30910790397E+02  0.00000000000E+00 0.  1.
<scales pt_clust_4="550.00000" pt_clust_5="550.00000" pt_clust_6="30.91064"></scales>
<mgrwt>
<rscale>  0 0.30000000E+03</rscale>
<asrwt>  1 0.30910641E+02</asrwt>
<pdfrwt beam="1">  1        1 0.87517964E+00 0.30000000E+03</pdfrwt>
<pdfrwt beam="2">0</pdfrwt>
<totfact> 0.22927070E-04</totfact>
</mgrwt>
<clustering>
<clus scale="   30.911">  1  6  2 -1</clus>
<clus scale="  482.551">  4  5 -1 -1</clus>
<clus scale="  300.000">  1  4  2 -1</clus>
</clustering>
</event>
<event>
 6    1  0.9678510E-012  0.3000000E+03  0.7818608E-02  0.1093470E+00
          1   -1    0    0  502    0  0.00000000000E+00  0.00000000000E+00  0.24022710547E+03  0.24022710547E+03  0.00000000000E+00 0.  1.
         13   -1    0    0    0    0 -0.00000000000E+00 -0.00000000000E+00 -0.27500000000E+03  0.27500000000E+03  0.00000000000E+00 0.  1.
    9000005    2    1    2  501    0 -0.37864236994E+02 -0.48030116392E+01 -0.24888199600E+02  0.47580025474E+03  0.47361344002E+03 0.  0.
         13    1    3    3    0    0  0.42554933824E+02  0.74464200288E+02  0.20360314571E+03  0.22093003522E+03  0.00000000000E+00 0.  1.
          1    1    3    3  501    0 -0.80419170817E+02 -0.79267211927E+02 -0.22849134531E+03  0.25487021953E+03  0.00000000000E+00 0.  1.
         21    1    1    2  502  501  0.37864236994E+02  0.48030116392E+01 -0.98846949338E+01  0.39426850722E+02  0.00000000000E+00 0.  1.
<scales pt_clust_4="550.00000" pt_clust_5="550.00000" pt_clust_6="38.16767"></scales>
<mgrwt>
<rscale>  0 0.30000000E+03</rscale>
<asrwt>  1 0.38167667E+02</asrwt>
<pdfrwt beam="1">  1        1 0.87355311E+00 0.30000000E+03</pdfrwt>
<pdfrwt beam="2">0</pdfrwt>
<totfact> 0.22918474E-04</totfact>
</mgrwt>
<clustering>
<clus scale="   38.168">  1  6  2 -1</clus>
<clus scale="  473.613">  4  5 -1 -1</clus>
<clus scale="  300.000">  1  4  2 -1</clus>
</clustering>
</event>
<event>
 6    1  0.9678510E-012  0.3000000E+03  0.7818608E-02  0.1093470E+00
          1   -1    0    0  502    0  0.00000000000E+00  0.00000000000E+00  0.24265279304E+03  0.24265279304E+03  0.00000000000E+00 0.  1.
         13   -1    0    0    0    0 -0.00000000000E+00 -0.00000000000E+00 -0.27500000000E+03  0.27500000000E+03  0.00000000000E+00 0.  1.
    9000005    2    1    2  501    0  0.20854599925E+02  0.23560576086E+02 -0.54790950941E+02  0.47900390266E+03  0.47481857101E+03 0.  0.
         13    1    3    3    0    0 -0.85475930489E+02 -0.20555958139E+03 -0.13220029546E+02  0.22301489945E+03  0.00000000000E+00 0.  1.
          3    1    3    3  501    0  0.10633053041E+03  0.22912015748E+03 -0.41570921395E+02  0.25598900321E+03  0.00000000000E+00 0.  1.
         21    1    1    2  502  501 -0.20854599925E+02 -0.23560576086E+02  0.22443743977E+02  0.38648890375E+02  0.00000000000E+00 0.  1.
<scales pt_clust_4="550.00000" pt_clust_5="550.00000" pt_clust_6="31.46451"></scales>
<mgrwt>
<rscale>  0 0.30000000E+03</rscale>
<asrwt>  1 0.31464505E+02</asrwt>
<pdfrwt beam="1">  1        1 0.88237379E+00 0.30000000E+03</pdfrwt>
<pdfrwt beam="2">0</pdfrwt>
<totfact> 0.18783047E-04</totfact>
</mgrwt>
<clustering>
<clus scale="   31.465">  1  6  2 -1</clus>
<clus scale="  474.819">  4  5 -1 -1</clus>
<clus scale="  300.000">  1  4  2 -1</clus>
</clustering>
</event>
<event>
 6    1  0.9678510E-012  0.3000000E+03  0.7818608E-02  0.1093470E+00
          1   -1    0    0  502    0  0.00000000000E+00  0.00000000000E+00  0.22488712790E+03  0.22488712790E+03  0.00000000000E+00 0.  1.
         13   -1    0    0    0    0 -0.00000000000E+00 -0.00000000000E+00 -0.27500000000E+03  0.27500000000E+03  0.00000000000E+00 0.  1.
    9000005    2    1    2  501    0 -0.35669949579E+02 -0.96435022871E+01 -0.56063138858E+02  0.46246055827E+03  0.45756021460E+03 0.  0.
         13    1    3    3    0    0  0.91958111531E+02  0.18230237533E+03  0.47697004980E+02  0.20967940912E+03  0.00000000000E+00 0.  1.
          1    1    3    3  501    0 -0.12762806111E+03 -0.19194587762E+03 -0.10376014384E+03  0.25278114915E+03  0.00000000000E+00 0.  1.
         21    1    1    2  502  501  0.35669949579E+02  0.96435022871E+01  0.59502667560E+01  0.37426569623E+02  0.00000000000E+00 0. -1.
<scales pt_clust_4="550.00000" pt_clust_5="550.00000" pt_clust_6="36.95054"></scales>
<mgrwt>
<rscale>  0 0.30000000E+03</rscale>
<asrwt>  1 0.36950540E+02</asrwt>
<pdfrwt beam="1">  1        1 0.81777137E+00 0.30000000E+03</pdfrwt>
<pdfrwt beam="2">0</pdfrwt>
<totfact> 0.74793755E-04</totfact>
</mgrwt>
<clustering>
<clus scale="   36.951">  1  6  2 -1</clus>
<clus scale="  457.560">  4  5 -1 -1</clus>
<clus scale="  300.000">  1  4  2 -1</clus>
</clustering>
</event>
<event>
 6    1  0.9678510E-012  0.3000000E+03  0.7818608E-02  0.1093470E+00
          1   -1    0    0  502    0  0.00000000000E+00  0.00000000000E+00  0.24954658566E+03  0.24954658566E+03  0.00000000000E+00 0.  1.
         13   -1    0    0    0    0 -0.00000000000E+00 -0.00000000000E+00 -0.27500000000E+03  0.27500000000E+03  0.00000000000E+00 0.  1.
    9000005    2    1    2  501    0 -0.60922752026E+02  0.68039330770E+01 -0.28486281637E+02  0.46317009583E+03  0.45821086217E+03 0.  0.
         13    1    3    3    0    0 -0.15346908415E+03  0.37397672624E+01  0.17908748087E+03  0.23587935783E+03  0.00000000000E+00 0.  1.
          1    1    3    3  501    0  0.92546332124E+02  0.30641658145E+01 -0.20757376250E+03  0.22729073800E+03  0.00000000000E+00 0.  1.
         21    1    1    2  502  501  0.60922752026E+02 -0.68039330770E+01  0.30328673005E+01  0.61376489830E+02  0.00000000000E+00 0.  1.
<scales pt_clust_4="550.00000" pt_clust_5="550.00000" pt_clust_6="61.30151"></scales>
<mgrwt>
<rscale>  0 0.30000000E+03</rscale>
<asrwt>  1 0.61301511E+02</asrwt>
<pdfrwt beam="1">  1        1 0.90744213E+00 0.30000000E+03</pdfrwt>
<pdfrwt beam="2">0</pdfrwt>
<totfact> 0.74582254E-05</totfact>
</mgrwt>
<clustering>
<clus scale="   61.302">  1  6  2 -1</clus>
<clus scale="  458.211">  4  5 -1 -1</clus>
<clus scale="  300.000">  1  4  2 -1</clus>
</clustering>
</event>
<event>
 6    1  0.9678510E-012  0.3000000E+03  0.7818608E-02  0.1093470E+00
          1   -1    0    0  502    0  0.00000000000E+00  0.00000000000E+00  0.23234178001E+03  0.23234178001E+03  0.00000000000E+00 0.  1.
         13   -1    0    0    0    0 -0.00000000000E+00 -0.00000000000E+00 -0.27500000000E+03  0.27500000000E+03  0.00000000000E+00 0.  1.
    9000005    2    1    2  501    0  0.33686911716E+02  0.50767329301E+01 -0.45809561253E+02  0.47312903107E+03  0.46967220793E+03 0.  0.
         13    1    3    3    0    0 -0.18973444292E+03  0.64718106773E+02  0.72752292355E+02  0.21326154885E+03  0.00000000000E+00 0.  1.
          3    1    3    3  501    0  0.22342135464E+03 -0.59641373843E+02 -0.11856185361E+03  0.25986748222E+03  0.00000000000E+00 0.  1.
         21    1    1    2  502  501 -0.33686911716E+02 -0.50767329301E+01  0.31513412619E+01  0.34212748939E+02  0.00000000000E+00 0. -1.
<scales pt_clust_4="550.00000" pt_clust_5="550.00000" pt_clust_6="34.06730"></scales>
<mgrwt>
<rscale>  0 0.30000000E+03</rscale>
<asrwt>  1 0.34067305E+02</asrwt>
<pdfrwt beam="1">  1        1 0.84487920E+00 0.30000000E+03</pdfrwt>
<pdfrwt beam="2">0</pdfrwt>
<totfact> 0.45522241E-04</totfact>
</mgrwt>
<clustering>
<clus scale="   34.067">  1  6  2 -1</clus>
<clus scale="  469.672">  4  5 -1 -1</clus>
<clus scale="  300.000">  1  4  2 -1</clus>
</clustering>
</event>
<event>
 6    1  0.9678510E-012  0.3000000E+03  0.7818608E-02  0.1093470E+00
          1   -1    0    0  502    0  0.00000000000E+00  0.00000000000E+00  0.23248043230E+03  0.23248043230E+03  0.00000000000E+00 0.  1.
         13   -1    0    0    0    0 -0.00000000000E+00 -0.00000000000E+00 -0.27500000000E+03  0.27500000000E+03  0.00000000000E+00 0.  1.
    9000005    2    1    2  501    0 -0.26574940681E+02 -0.16764373687E+02 -0.65451909560E+02  0.46858102356E+03  0.46292218728E+03 0.  0.
         13    1    3    3    0    0 -0.86800599369E+02  0.18247824726E+03 -0.14181570265E+03  0.24686909140E+03  0.00000000000E+00 0.  1.
          1    1    3    3  501    0  0.60225658688E+02 -0.19924262095E+03  0.76363793088E+02  0.22171193216E+03  0.00000000000E+00 0.  1.
         21    1    1    2  502  501  0.26574940681E+02  0.16764373687E+02  0.22932341864E+02  0.38899408745E+02  0.00000000000E+00 0.  1.
<scales pt_clust_4="550.00000" pt_clust_5="550.00000" pt_clust_6="31.42088"></scales>
<mgrwt>
<rscale>  0 0.30000000E+03</rscale>
<asrwt>  1 0.31420880E+02</asrwt>
<pdfrwt beam="1">  1        1 0.84538339E+00 0.30000000E+03</pdfrwt>
<pdfrwt beam="2">0</pdfrwt>
<totfact> 0.45757213E-04</totfact>
</mgrwt>
<clustering>
<clus scale="   31.421">  1  6  2 -1</clus>
<clus scale="  462.922">  4  5 -1 -1</clus>
<clus scale="  300.000">  1  4  2 -1</clus>
</clustering>
</event>
<event>
 6    1  0.9678510E-012  0.3000000E+03  0.7818608E-02  0.1093470E+00
          1   -1    0    0  502    0  0.00000000000E+00  0.00000000000E+00  0.24726850268E+03  0.24726850268E+03  0.00000000000E+00 0.  1.
         13   -1    0    0    0    0 -0.00000000000E+00 -0.00000000000E+00 -0.27500000000E+03  0.27500000000E+03  0.00000000000E+00 0.  1.
    9000005    2    1    2  501    0 -0.29313016215E+02 -0.19400769402E+02 -0.65684613909E+02  0.47053764311E+03  0.46460258534E+03 0.  0.
         13    1    3    3    0    0  0.14625003420E+03  0.13601833869E+03 -0.11566149882E+03  0.23079784070E+03  0.00000000000E+00 0.  1.
          1    1    3    3  501    0 -0.17556305042E+03 -0.15541910810E+03  0.49976884908E+02  0.23973980241E+03  0.00000000000E+00 0.  1.
         21    1    1    2  502  501  0.29313016215E+02  0.19400769402E+02  0.37953116589E+02  0.51730859569E+02  0.00000000000E+00 0. -1.
<scales pt_clust_4="550.00000" pt_clust_5="550.00000" pt_clust_6="35.15171"></scales>
<mgrwt>
<rscale>  0 0.30000000E+03</rscale>
<asrwt>  1 0.35151711E+02</asrwt>
<pdfrwt beam="1">  1        1 0.89915819E+00 0.30000000E+03</pdfrwt>
<pdfrwt beam="2">0</pdfrwt>
<totfact> 0.11300783E-04</totfact>
</mgrwt>
<clustering>
<clus scale="   35.152">  1  6  2 -1</clus>
<clus scale="  464.603">  4  5 -1 -1</clus>
<clus scale="  300.000">  1  4  2 -1</clus>
</clustering>
</event>
<event>
 6    1  0.9678510E-012  0.3000000E+03  0.7818608E-02  0.1093470E+00
          1   -1    0    0  502    0  0.00000000000E+00  0.00000000000E+00  0.24634126609E+03  0.24634126609E+03  0.00000000000E+00 0.  1.
         13   -1    0    0    0    0 -0.00000000000E+00 -0.00000000000E+00 -0.27500000000E+03  0.27500000000E+03  0.00000000000E+00 0.  1.
    9000005    2    1    2  501    0 -0.10628366920E+02  0.35352579979E+02 -0.72922132661E+02  0.46370433727E+03  0.45644420018E+03 0.  0.
         13    1    3    3    0    0 -0.98557222842E+02 -0.10460460364E+03 -0.20622306800E+03  0.25136348790E+03  0.00000000000E+00 0.  1.
          3    1    3    3  501    0  0.87928855922E+02  0.13995718362E+03  0.13330093534E+03  0.21234084937E+03  0.00000000000E+00 0.  1.
         21    1    1    2  502  501  0.10628366920E+02 -0.35352579979E+02  0.44263398752E+02  0.57636928819E+02  0.00000000000E+00 0. -1.
<scales pt_clust_4="550.00000" pt_clust_5="550.00000" pt_clust_6="36.91568"></scales>
<mgrwt>
<rscale>  0 0.30000000E+03</rscale>
<asrwt>  1 0.36915675E+02</asrwt>
<pdfrwt beam="1">  1        1 0.89578642E+00 0.30000000E+03</pdfrwt>
<pdfrwt beam="2">0</pdfrwt>
<totfact> 0.12234695E-04</totfact>
</mgrwt>
<clustering>
<clus scale="   36.916">  1  6  2 -1</clus>
<clus scale="  456.444">  4  5 -1 -1</clus>
<clus scale="  300.000">  1  4  2 -1</clus>
</clustering>
</event>
<event>
 6    1  0.9678510E-012  0.3000000E+03  0.7818608E-02  0.1093470E+00
          1   -1    0    0  502    0  0.00000000000E+00  0.00000000000E+00  0.23497941965E+03  0.23497941965E+03  0.00000000000E+00 0.  1.
         13   -1    0    0    0    0 -0.00000000000E+00 -0.00000000000E+00 -0.27500000000E+03  0.27500000000E+03  0.00000000000E+00 0.  1.
    9000005    2    1    2  501    0  0.10091408832E+02  0.39552420932E+02 -0.59235095646E+02  0.46486370031E+03  0.45926379432E+03 0.  0.
         13    1    3    3    0    0  0.22389495176E+03 -0.12575029756E+02  0.32219347935E+02  0.22655058415E+03  0.00000000000E+00 0.  1.
          3    1    3    3  501    0 -0.21380354293E+03  0.52127450689E+02 -0.91454443581E+02  0.23831311616E+03  0.00000000000E+00 0.  1.
         21    1    1    2  502  501 -0.10091408832E+02 -0.39552420932E+02  0.19214515296E+02  0.45115719343E+02  0.00000000000E+00 0.  1.
<scales pt_clust_4="550.00000" pt_clust_5="550.00000" pt_clust_6="40.81949"></scales>
<mgrwt>
<rscale>  0 0.30000000E+03</rscale>
<asrwt>  1 0.40819487E+02</asrwt>
<pdfrwt beam="1">  1        1 0.85447062E+00 0.30000000E+03</pdfrwt>
<pdfrwt beam="2">0</pdfrwt>
<totfact> 0.35843087E-04</totfact>
</mgrwt>
<clustering>
<clus scale="   40.819">  1  6  2 -1</clus>
<clus scale="  459.264">  4  5 -1 -1</clus>
<clus scale="  300.000">  1  4  2 -1</clus>
</clustering>
</event>
<event>
 6    1  0.9678510E-012  0.3000000E+03  0.7818608E-02  0.1093470E+00
          1   -1    0    0  502    0  0.00000000000E+00  0.00000000000E+00  0.21899978256E+03  0.21899978256E+03  0.00000000000E+00 0.  1.
         13   -1    0    0    0    0 -0.00000000000E+00 -0.00000000000E+00 -0.27500000000E+03  0.27500000000E+03  0.00000000000E+00 0.  1.
    9000005    2    1    2  501    0 -0.32039123249E+02  0.13573663096E+01 -0.50154531392E+02  0.46140346518E+03  0.45754708260E+03 0.  0.
         13    1    3    3    0    0 -0.10138735587E+03 -0.16184859785E+03  0.11175609837E+03  0.22127763122E+03  0.00000000000E+00 0.  1.
          1    1    3    3  501    0  0.69348232616E+02  0.16320596416E+03 -0.16191062976E+03  0.24012583396E+03  0.00000000000E+00 0.  1.
         21    1    1    2  502  501  0.32039123249E+02 -0.13573663096E+01 -0.58456860449E+01  0.32596317387E+02  0.00000000000E+00 0. -1.
<scales pt_clust_4="550.00000" pt_clust_5="550.00000" pt_clust_6="32.06788"></scales>
<mgrwt>
<rscale>  0 0.30000000E+03</rscale>
<asrwt>  1 0.32067879E+02</asrwt>
<pdfrwt beam="1">  1        1 0.79636285E+00 0.30000000E+03</pdfrwt>
<pdfrwt beam="2">0</pdfrwt>
<totfact> 0.11204858E-03</totfact>
</mgrwt>
<clustering>
<clus scale="   32.068">  1  6  2 -1</clus>
<clus scale="  457.547">  4  5 -1 -1</clus>
<clus scale="  300.000">  1  4  2 -1</clus>
</clustering>
</event>
<event>
 6    1  0.9678510E-012  0.3000000E+03  0.7818608E-02  0.1093470E+00
          1   -1    0    0  502    0  0.00000000000E+00  0.00000000000E+00  0.23412428733E+03  0.23412428733E+03  0.00000000000E+00 0.  1.
         13   -1    0    0    0    0 -0.00000000000E+00 -0.00000000000E+00 -0.27500000000E+03  0.27500000000E+03  0.00000000000E+00 0.  1.
    9000005    2    1    2  501    0 -0.31861646845E+02  0.62004106305E+00 -0.55841596797E+02  0.47391737497E+03  0.46953577646E+03 0.  0.
         13    1    3    3    0    0 -0.15775917849E+03  0.87868782209E+02  0.13770370399E+03  0.22709291353E+03  0.00000000000E+00 0.  1.
          1    1    3    3  501    0  0.12589753164E+03 -0.87248741145E+02 -0.19354530079E+03  0.24682446143E+03  0.00000000000E+00 0.  1.
         21    1    1    2  502  501  0.31861646845E+02 -0.62004106305E+00  0.14965884130E+02  0.35206912366E+02  0.00000000000E+00 0.  1.
<scales pt_clust_4="550.00000" pt_clust_5="550.00000" pt_clust_6="31.86768"></scales>
<mgrwt>
<rscale>  0 0.30000000E+03</rscale>
<asrwt>  1 0.31867679E+02</asrwt>
<pdfrwt beam="1">  1        1 0.85136104E+00 0.30000000E+03</pdfrwt>
<pdfrwt beam="2">0</pdfrwt>
<totfact> 0.40215863E-04</totfact>
</mgrwt>
<clustering>
<clus scale="   31.868">  1  6  2 -1</clus>
<clus scale="  469.536">  4  5 -1 -1</clus>
<clus scale="  300.000">  1  4  2 -1</clus>
</clustering>
</event>
<event>
 6    1  0.9678510E-012  0.3000000E+03  0.7818608E-02  0.1093470E+00
          1   -1    0    0  502    0  0.00000000000E+00  0.00000000000E+00  0.25041434607E+03  0.25041434607E+03  0.00000000000E+00 0.  1.
         13   -1    0    0    0    0 -0.00000000000E+00 -0.00000000000E+00 -0.27500000000E+03  0.27500000000E+03  0.00000000000E+00 0.  1.
    9000005    2    1    2  501    0 -0.51006493167E+01  0.41773298007E+02 -0.43254367473E+02  0.47937581965E+03  0.47556199502E+03 0.  0.
         13    1    3    3    0    0 -0.21511121827E+03 -0.38741174504E+01  0.82443998012E+02  0.23040151436E+03  0.00000000000E+00 0.  1.
          3    1    3    3  501    0  0.21001056895E+03  0.45647415458E+02 -0.12569836549E+03  0.24897430529E+03  0.00000000000E+00 0.  1.
         21    1    1    2  502  501  0.51006493167E+01 -0.41773298007E+02  0.18668713544E+02  0.46038526424E+02  0.00000000000E+00 0.  1.
<scales pt_clust_4="550.00000" pt_clust_5="550.00000" pt_clust_6="42.08355"></scales>
<mgrwt>
<rscale>  0 0.30000000E+03</rscale>
<asrwt>  1 0.42083548E+02</asrwt>
<pdfrwt beam="1">  1        1 0.91059762E+00 0.30000000E+03</pdfrwt>
<pdfrwt beam="2">0</pdfrwt>
<totfact> 0.67161877E-05</totfact>
</mgrwt>
<clustering>
<clus scale="   42.084">  1  6  2 -1</clus>
<clus scale="  475.562">  4  5 -1 -1</clus>
<clus scale="  300.000">  1  4  2 -1</clus>
</clustering>
</event>
<event>
 6    1  0.9678510E-012  0.3000000E+03  0.7818608E-02  0.1093470E+00
          1   -1    0    0  502    0  0.00000000000E+00  0.00000000000E+00  0.22013435917E+03  0.22013435917E+03  0.00000000000E+00 0.  1.
         13   -1    0    0    0    0 -0.00000000000E+00 -0.00000000000E+00 -0.27500000000E+03  0.27500000000E+03  0.00000000000E+00 0.  1.
    9000005    2    1    2  501    0 -0.33664372624E+02 -0.62619384342E+01 -0.54977685693E+02  0.46089236140E+03  0.45631866170E+03 0.  0.
         13    1    3    3    0    0 -0.17138011864E+03 -0.11588749325E+03  0.96855966678E+02  0.22843409211E+03  0.00000000000E+00 0.  1.
          1    1    3    3  501    0  0.13771574602E+03  0.10962555481E+03 -0.15183365237E+03  0.23245826929E+03  0.00000000000E+00 0.  1.
         21    1    1    2  502  501  0.33664372624E+02  0.62619384342E+01  0.11204486220E+00  0.34241997768E+02  0.00000000000E+00 0.  1.
<scales pt_clust_4="550.00000" pt_clust_5="550.00000" pt_clust_6="34.24181"></scales>
<mgrwt>
<rscale>  0 0.30000000E+03</rscale>
<asrwt>  1 0.34241814E+02</asrwt>
<pdfrwt beam="1">  1        1 0.80048858E+00 0.30000000E+03</pdfrwt>
<pdfrwt beam="2">0</pdfrwt>
<totfact> 0.10328518E-03</totfact>
</mgrwt>
<clustering>
<clus scale="   34.242">  1  6  2 -1</clus>
<clus scale="  456.319">  4  5 -1 -1</clus>
<clus scale="  300.000">  1  4  2 -1</clus>
</clustering>
</event>
<event>
 6    1  0.9678510E-012  0.3000000E+03  0.7818608E-02  0.1093470E+00
          1   -1    0    0  502    0  0.00000000000E+00  0.00000000000E+00  0.22250891233E+03  0.22250891233E+03  0.00000000000E+00 0.  1.
         13   -1    0    0    0    0 -0.00000000000E+00 -0.00000000000E+00 -0.27500000000E+03  0.27500000000E+03  0.00000000000E+00 0.  1.
    9000005    2    1    2  501    0 -0.27771607279E+02  0.15820125699E+02 -0.67392882853E+02  0.46224417006E+03  0.45618673100E+03 0.  0.
         13    1    3    3    0    0  0.20743299962E+03 -0.34891419133E+02  0.67962656747E+01  0.21045676441E+03  0.00000000000E+00 0.  1.
          3    1    3    3  501    0 -0.23520460689E+03  0.50711544832E+02 -0.74189148528E+02  0.25178740565E+03  0.00000000000E+00 0.  1.
         21    1    1    2  502  501  0.27771607279E+02 -0.15820125699E+02  0.14901795184E+02  0.35264742274E+02  0.00000000000E+00 0.  1.
<scales pt_clust_4="550.00000" pt_clust_5="550.00000" pt_clust_6="31.96152"></scales>
<mgrwt>
<rscale>  0 0.30000000E+03</rscale>
<asrwt>  1 0.31961517E+02</asrwt>
<pdfrwt beam="1">  1        1 0.80912332E+00 0.30000000E+03</pdfrwt>
<pdfrwt beam="2">0</pdfrwt>
<totfact> 0.90125324E-04</totfact>
</mgrwt>
<clustering>
<clus scale="   31.962">  1  6  2 -1</clus>
<clus scale="  456.187">  4  5 -1 -1</clus>
<clus scale="  300.000">  1  4  2 -1</clus>
</clustering>
</event>
<event>
 6    1  0.9678510E-012  0.3000000E+03  0.7818608E-02  0.1093470E+00
          1   -1    0    0  502    0  0.00000000000E+00  0.00000000000E+00  0.23526533949E+03  0.23526533949E+03  0.00000000000E+00 0.  1.
         13   -1    0    0    0    0 -0.00000000000E+00 -0.00000000000E+00 -0.27500000000E+03  0.27500000000E+03  0.00000000000E+00 0.  1.
    9000005    2    1    2  501    0  0.10766321874E+02 -0.40132006846E+02 -0.62183572702E+02  0.46303774884E+03  0.45695805987E+03 0.  0.
         13    1    3    3    0    0 -0.90883480957E+02 -0.16091088477E+03  0.12125045620E+03  0.22102894172E+03  0.00000000000E+00 0.  1.
          1    1    3    3  501    0  0.10164980283E+03  0.12077887792E+03 -0.18343402890E+03  0.24200880712E+03  0.00000000000E+00 0.  1.
         21    1    1    2  502  501 -0.10766321874E+02  0.40132006846E+02  0.22448912194E+02  0.47227590653E+02  0.00000000000E+00 0. -1.
<scales pt_clust_4="550.00000" pt_clust_5="550.00000" pt_clust_6="41.55107"></scales>
<mgrwt>
<rscale>  0 0.30000000E+03</rscale>
<asrwt>  1 0.41551073E+02</asrwt>
<pdfrwt beam="1">  1        1 0.85551033E+00 0.30000000E+03</pdfrwt>
<pdfrwt beam="2">0</pdfrwt>
<totfact> 0.34889857E-04</totfact>
</mgrwt>
<clustering>
<clus scale="   41.551">  1  6  2 -1</clus>
<clus scale="  456.958">  4  5 -1 -1</clus>
<clus scale="  300.000">  1  4  2 -1</clus>
</clustering>
</event>
<event>
 6    1  0.9678510E-012  0.3000000E+03  0.7818608E-02  0.1093470E+00
          1   -1    0    0  502    0  0.00000000000E+00  0.00000000000E+00  0.24671745913E+03  0.24671745913E+03  0.00000000000E+00 0.  1.
         13   -1    0    0    0    0 -0.00000000000E+00 -0.00000000000E+00 -0.27500000000E+03  0.27500000000E+03  0.00000000000E+00 0.  1.
    9000005    2    1    2  501    0  0.11271017165E+01 -0.36218716893E+02 -0.32564662843E+02  0.48522907221E+03  0.48277710120E+03 0.  0.
         13    1    3    3    0    0 -0.34079349413E+01  0.19012279528E+03  0.10806848714E+03  0.21871691571E+03  0.00000000000E+00 0.  1.
          3    1    3    3  501    0  0.45350366578E+01 -0.22634151217E+03 -0.14063314998E+03  0.26651215650E+03  0.00000000000E+00 0.  1.
         21    1    1    2  502  501 -0.11271017165E+01  0.36218716893E+02  0.42821219773E+01  0.36488386923E+02  0.00000000000E+00 0. -1.
<scales pt_clust_4="550.00000" pt_clust_5="550.00000" pt_clust_6="36.23625"></scales>
<mgrwt>
<rscale>  0 0.30000000E+03</rscale>
<asrwt>  1 0.36236250E+02</asrwt>
<pdfrwt beam="1">  1        1 0.89715440E+00 0.30000000E+03</pdfrwt>
<pdfrwt beam="2">0</pdfrwt>
<totfact> 0.11852492E-04</totfact>
</mgrwt>
<clustering>
<clus scale="   36.236">  1  6  2 -1</clus>
<clus scale="  482.777">  4  5 -1 -1</clus>
<clus scale="  300.000">  1  4  2 -1</clus>
</clustering>
</event>
<event>
 6    1  0.9678510E-012  0.3000000E+03  0.7818608E-02  0.1093470E+00
          1   -1    0    0  502    0  0.00000000000E+00  0.00000000000E+00  0.23824956898E+03  0.23824956898E+03  0.00000000000E+00 0.  1.
         13   -1    0    0    0    0 -0.00000000000E+00 -0.00000000000E+00 -0.27500000000E+03  0.27500000000E+03  0.00000000000E+00 0.  1.
    9000005    2    1    2  501    0 -0.39111569955E+02  0.99972768799E+01 -0.54986256337E+02  0.46895277706E+03  0.46396503993E+03 0.  0.
         13    1    3    3    0    0 -0.24713253581E+03 -0.16199121882E+02  0.14465913318E+02  0.24808499441E+03  0.00000000000E+00 0.  1.
          3    1    3    3  501    0  0.20802096585E+03  0.26196398762E+02 -0.69452169655E+02  0.22086778265E+03  0.00000000000E+00 0.  1.
         21    1    1    2  502  501  0.39111569955E+02 -0.99972768799E+01  0.18235825313E+02  0.44296791917E+02  0.00000000000E+00 0.  1.
<scales pt_clust_4="550.00000" pt_clust_5="550.00000" pt_clust_6="40.36905"></scales>
<mgrwt>
<rscale>  0 0.30000000E+03</rscale>
<asrwt>  1 0.40369053E+02</asrwt>
<pdfrwt beam="1">  1        1 0.86636207E+00 0.30000000E+03</pdfrwt>
<pdfrwt beam="2">0</pdfrwt>
<totfact> 0.26908994E-04</totfact>
</mgrwt>
<clustering>
<clus scale="   40.369">  1  6  2 -1</clus>
<clus scale="  463.965">  4  5 -1 -1</clus>
<clus scale="  300.000">  1  4  2 -1</clus>
</clustering>
</event>
<event>
 6    1  0.9678510E-012  0.3000000E+03  0.7818608E-02  0.1093470E+00
          1   -1    0    0  502    0  0.00000000000E+00  0.00000000000E+00  0.24270631587E+03  0.24270631587E+03  0.00000000000E+00 0.  1.
         13   -1    0    0    0    0 -0.00000000000E+00 -0.00000000000E+00 -0.27500000000E+03  0.27500000000E+03  0.00000000000E+00 0.  1.
    9000005    2    1    2  501    0  0.38650279451E+02  0.67501802314E+01 -0.57173717191E+02  0.47124746225E+03  0.46611793326E+03 0.  0.
         13    1    3    3    0    0  0.10232195420E+03 -0.17073377038E+03 -0.16098515779E+03  0.25600004626E+03  0.00000000000E+00 0.  1.
          1    1    3    3  501    0 -0.63671674749E+02  0.17748395061E+03  0.10381144060E+03  0.21524741598E+03  0.00000000000E+00 0.  1.
         21    1    1    2  502  501 -0.38650279451E+02 -0.67501802314E+01  0.24880033065E+02  0.46458853625E+02  0.00000000000E+00 0.  1.
<scales pt_clust_4="550.00000" pt_clust_5="550.00000" pt_clust_6="39.23530"></scales>
<mgrwt>
<rscale>  0 0.30000000E+03</rscale>
<asrwt>  1 0.39235303E+02</asrwt>
<pdfrwt beam="1">  1        1 0.88256842E+00 0.30000000E+03</pdfrwt>
<pdfrwt beam="2">0</pdfrwt>
<totfact> 0.17917842E-04</totfact>
</mgrwt>
<clustering>
<clus scale="   39.235">  1  6  2 -1</clus>
<clus scale="  466.118">  4  5 -1 -1</clus>
<clus scale="  300.000">  1  4  2 -1</clus>
</clustering>
</event>
<event>
 6    1  0.9678510E-012  0.3000000E+03  0.7818608E-02  0.1093470E+00
          1   -1    0    0  502    0  0.00000000000E+00  0.00000000000E+00  0.23448303410E+03  0.23448303410E+03  0.00000000000E+00 0.  1.
         13   -1    0    0    0    0 -0.00000000000E+00 -0.00000000000E+00 -0.27500000000E+03  0.27500000000E+03  0.00000000000E+00 0.  1.
    9000005    2    1    2  501    0  0.25224508329E+02 -0.32424906619E+02 -0.13370153168E+02  0.46024280835E+03  0.45821068435E+03 0.  0.
         13    1    3    3    0    0 -0.13727688195E+03  0.69404167111E+02  0.14510543222E+03  0.21146504957E+03  0.00000000000E+00 0.  1.
          1    1    3    3  501    0  0.16250139028E+03 -0.10182907373E+03 -0.15847558539E+03  0.24877775878E+03  0.00000000000E+00 0.  1.
         21    1    1    2  502  501 -0.25224508329E+02  0.32424906619E+02 -0.27146812736E+02  0.49240225745E+02  0.00000000000E+00 0. -1.
<scales pt_clust_4="550.00000" pt_clust_5="550.00000" pt_clust_6="41.08104"></scales>
<mgrwt>
<rscale>  0 0.30000000E+03</rscale>
<asrwt>  1 0.41081043E+02</asrwt>
<pdfrwt beam="1">  1        1 0.85266558E+00 0.30000000E+03</pdfrwt>
<pdfrwt beam="2">0</pdfrwt>
<totfact> 0.37273773E-04</totfact>
</mgrwt>
<clustering>
<clus scale="   41.081">  1  6  2 -1</clus>
<clus scale="  458.211">  4  5 -1 -1</clus>
<clus scale="  300.000">  1  4  2 -1</clus>
</clustering>
</event>
<event>
 6    1  0.9678510E-012  0.3000000E+03  0.7818608E-02  0.1093470E+00
          1   -1    0    0  502    0  0.00000000000E+00  0.00000000000E+00  0.22223691744E+03  0.22223691744E+03  0.00000000000E+00 0.  1.
         13   -1    0    0    0    0 -0.00000000000E+00 -0.00000000000E+00 -0.27500000000E+03  0.27500000000E+03  0.00000000000E+00 0.  1.
    9000005    2    1    2  501    0 -0.22979200480E+02  0.20440053315E+02 -0.48227008297E+02  0.46614969492E+03  0.46262712232E+03 0.  0.
         13    1    3    3    0    0  0.14956971428E+03 -0.95335825976E+02  0.10667248835E+03  0.20697593801E+03  0.00000000000E+00 0.  1.
          1    1    3    3  501    0 -0.17254891476E+03  0.11577587929E+03 -0.15489949664E+03  0.25917375691E+03  0.00000000000E+00 0.  1.
         21    1    1    2  502  501  0.22979200480E+02 -0.20440053315E+02 -0.45360742643E+01  0.31087222519E+02  0.00000000000E+00 0. -1.
<scales pt_clust_4="550.00000" pt_clust_5="550.00000" pt_clust_6="30.75452"></scales>
<mgrwt>
<rscale>  0 0.30000000E+03</rscale>
<asrwt>  1 0.30754518E+02</asrwt>
<pdfrwt beam="1">  1        1 0.80813425E+00 0.30000000E+03</pdfrwt>
<pdfrwt beam="2">0</pdfrwt>
<totfact> 0.92404532E-04</totfact>
</mgrwt>
<clustering>
<clus scale="   30.755">  1  6  2 -1</clus>
<clus scale="  462.627">  4  5 -1 -1</clus>
<clus scale="  300.000">  1  4  2 -1</clus>
</clustering>
</event>
<event>
 6    1  0.9678510E-012  0.3000000E+03  0.7818608E-02  0.1093470E+00
          1   -1    0    0  502    0  0.00000000000E+00  0.00000000000E+00  0.23551910365E+03  0.23551910365E+03  0.00000000000E+00 0.  1.
         13   -1    0    0    0    0 -0.00000000000E+00 -0.00000000000E+00 -0.27500000000E+03  0.27500000000E+03  0.00000000000E+00 0.  1.
    9000005    2    1    2  501    0 -0.31518249230E+02 -0.11118776556E+02 -0.61793487028E+02  0.47033354742E+03  0.46505718311E+03 0.  0.
         13    1    3    3    0    0 -0.23382165798E+03 -0.82497610195E+02 -0.32794841392E+01  0.24797011603E+03  0.00000000000E+00 0.  1.
          1    1    3    3  501    0  0.20230340875E+03  0.71378833639E+02 -0.58514002889E+02  0.22236343139E+03  0.00000000000E+00 0.  1.
         21    1    1    2  502  501  0.31518249230E+02  0.11118776556E+02  0.22312590673E+02  0.40185556226E+02  0.00000000000E+00 0.  1.
<scales pt_clust_4="550.00000" pt_clust_5="550.00000" pt_clust_6="33.42196"></scales>
<mgrwt>
<rscale>  0 0.30000000E+03</rscale>
<asrwt>  1 0.33421957E+02</asrwt>
<pdfrwt beam="1">  1        1 0.85643310E+00 0.30000000E+03</pdfrwt>
<pdfrwt beam="2">0</pdfrwt>
<totfact> 0.35551707E-04</totfact>
</mgrwt>
<clustering>
<clus scale="   33.422">  1  6  2 -1</clus>
<clus scale="  465.057">  4  5 -1 -1</clus>
<clus scale="  300.000">  1  4  2 -1</clus>
</clustering>
</event>
<event>
 6    1  0.9678510E-012  0.3000000E+03  0.7818608E-02  0.1093470E+00
          1   -1    0    0  502    0  0.00000000000E+00  0.00000000000E+00  0.24965342463E+03  0.24965342463E+03  0.00000000000E+00 0.  1.
         13   -1    0    0    0    0 -0.00000000000E+00 -0.00000000000E+00 -0.27500000000E+03  0.27500000000E+03  0.00000000000E+00 0.  1.
    9000005    2    1    2  501    0 -0.23466801116E+02  0.41284647510E+02 -0.61637991924E+02  0.46488570935E+03  0.45832779518E+03 0.  0.
         13    1    3    3    0    0  0.87816925196E+02  0.22201109566E+03 -0.80141305037E+02  0.25183996450E+03  0.00000000000E+00 0.  1.
          1    1    3    3  501    0 -0.11128372631E+03 -0.18072644815E+03  0.18503313113E+02  0.21304574485E+03  0.00000000000E+00 0.  1.
         21    1    1    2  502  501  0.23466801116E+02 -0.41284647510E+02  0.36291416553E+02  0.59767715282E+02  0.00000000000E+00 0. -1.
<scales pt_clust_4="550.00000" pt_clust_5="550.00000" pt_clust_6="47.48803"></scales>
<mgrwt>
<rscale>  0 0.30000000E+03</rscale>
<asrwt>  1 0.47488029E+02</asrwt>
<pdfrwt beam="1">  1        1 0.90783064E+00 0.30000000E+03</pdfrwt>
<pdfrwt beam="2">0</pdfrwt>
<totfact> 0.76419200E-05</totfact>
</mgrwt>
<clustering>
<clus scale="   47.488">  1  6  2 -1</clus>
<clus scale="  458.328">  4  5 -1 -1</clus>
<clus scale="  300.000">  1  4  2 -1</clus>
</clustering>
</event>
<event>
 6    1  0.9678510E-012  0.3000000E+03  0.7818608E-02  0.1093470E+00
          1   -1    0    0  502    0  0.00000000000E+00  0.00000000000E+00  0.23341055958E+03  0.23341055958E+03  0.00000000000E+00 0.  1.
         13   -1    0    0    0    0 -0.00000000000E+00 -0.00000000000E+00 -0.27500000000E+03  0.27500000000E+03  0.00000000000E+00 0.  1.
    9000005    2    1    2  501    0 -0.28036568698E+02  0.22247353651E+02 -0.47408664405E+02  0.47214959852E+03  0.46839798035E+03 0.  0.
         13    1    3    3    0    0  0.66992486819E+02  0.23054870661E+03 -0.11162190438E+02  0.24034411560E+03  0.00000000000E+00 0.  1.
          3    1    3    3  501    0 -0.95029055517E+02 -0.20830135296E+03 -0.36246473967E+02  0.23180548292E+03  0.00000000000E+00 0.  1.
         21    1    1    2  502  501  0.28036568698E+02 -0.22247353651E+02  0.58192239833E+01  0.36260961054E+02  0.00000000000E+00 0. -1.
<scales pt_clust_4="550.00000" pt_clust_5="550.00000" pt_clust_6="35.79098"></scales>
<mgrwt>
<rscale>  0 0.30000000E+03</rscale>
<asrwt>  1 0.35790976E+02</asrwt>
<pdfrwt beam="1">  1        1 0.84876567E+00 0.30000000E+03</pdfrwt>
<pdfrwt beam="2">0</pdfrwt>
<totfact> 0.41616567E-04</totfact>
</mgrwt>
<clustering>
<clus scale="   35.791">  1  6  2 -1</clus>
<clus scale="  468.398">  4  5 -1 -1</clus>
<clus scale="  300.000">  1  4  2 -1</clus>
</clustering>
</event>
<event>
 6    1  0.9678510E-012  0.3000000E+03  0.7818608E-02  0.1093470E+00
          1   -1    0    0  502    0  0.00000000000E+00  0.00000000000E+00  0.22302788427E+03  0.22302788427E+03  0.00000000000E+00 0.  1.
         13   -1    0    0    0    0 -0.00000000000E+00 -0.00000000000E+00 -0.27500000000E+03  0.27500000000E+03  0.00000000000E+00 0.  1.
    9000005    2    1    2  501    0 -0.26164226332E+02  0.16439959781E+02 -0.55123199675E+02  0.46696716394E+03  0.46267150986E+03 0.  0.
         13    1    3    3    0    0  0.12299223935E+03  0.41121632721E+02  0.15879206099E+03  0.20501950700E+03  0.00000000000E+00 0.  1.
          3    1    3    3  501    0 -0.14915646568E+03 -0.24681672939E+02 -0.21391526066E+03  0.26194765694E+03  0.00000000000E+00 0.  1.
         21    1    1    2  502  501  0.26164226332E+02 -0.16439959781E+02  0.31510839406E+01  0.31060720326E+02  0.00000000000E+00 0.  1.
<scales pt_clust_4="550.00000" pt_clust_5="550.00000" pt_clust_6="30.90047"></scales>
<mgrwt>
<rscale>  0 0.30000000E+03</rscale>
<asrwt>  1 0.30900470E+02</asrwt>
<pdfrwt beam="1">  1        1 0.81101049E+00 0.30000000E+03</pdfrwt>
<pdfrwt beam="2">0</pdfrwt>
<totfact> 0.87684637E-04</totfact>
</mgrwt>
<clustering>
<clus scale="   30.900">  1  6  2 -1</clus>
<clus scale="  462.672">  4  5 -1 -1</clus>
<clus scale="  300.000">  1  4  2 -1</clus>
</clustering>
</event>
<event>
 6    1  0.9678510E-012  0.3000000E+03  0.7818608E-02  0.1093470E+00
          1   -1    0    0  502    0  0.00000000000E+00  0.00000000000E+00  0.23179398021E+03  0.23179398021E+03  0.00000000000E+00 0.  1.
         13   -1    0    0    0    0 -0.00000000000E+00 -0.00000000000E+00 -0.27500000000E+03  0.27500000000E+03  0.00000000000E+00 0.  1.
    9000005    2    1    2  501    0  0.38087612263E+02 -0.21048158179E+01 -0.61294825763E+02  0.46457666908E+03  0.45893281570E+03 0.  0.
         13    1    3    3    0    0 -0.57745463529E+02  0.19593997407E+03 -0.11994096844E+03  0.23688150605E+03  0.00000000000E+00 0.  1.
          1    1    3    3  501    0  0.95833075792E+02 -0.19804478989E+03  0.58646142680E+02  0.22769516303E+03  0.00000000000E+00 0.  1.
         21    1    1    2  502  501 -0.38087612263E+02  0.21048158179E+01  0.18088805971E+02  0.42217311129E+02  0.00000000000E+00 0.  1.
<scales pt_clust_4="550.00000" pt_clust_5="550.00000" pt_clust_6="38.14573"></scales>
<mgrwt>
<rscale>  0 0.30000000E+03</rscale>
<asrwt>  1 0.38145727E+02</asrwt>
<pdfrwt beam="1">  1        1 0.84288720E+00 0.30000000E+03</pdfrwt>
<pdfrwt beam="2">0</pdfrwt>
<totfact> 0.46360929E-04</totfact>
</mgrwt>
<clustering>
<clus scale="   38.146">  1  6  2 -1</clus>
<clus scale="  458.933">  4  5 -1 -1</clus>
<clus scale="  300.000">  1  4  2 -1</clus>
</clustering>
</event>
<event>
 6    1  0.9678510E-012  0.3000000E+03  0.7818608E-02  0.1093470E+00
          1   -1    0    0  502    0  0.00000000000E+00  0.00000000000E+00  0.23501619384E+03  0.23501619384E+03  0.00000000000E+00 0.  1.
         13   -1    0    0    0    0 -0.00000000000E+00 -0.00000000000E+00 -0.27500000000E+03  0.27500000000E+03  0.00000000000E+00 0.  1.
    9000005    2    1    2  501    0 -0.21477130472E+01  0.30551846362E+02 -0.37012159783E+02  0.47924512513E+03  0.47683116719E+03 0.  0.
         13    1    3    3    0    0 -0.20829568688E+03  0.72210286429E+02  0.84795792494E+02  0.23620276261E+03  0.00000000000E+00 0.  1.
          1    1    3    3  501    0  0.20614797383E+03 -0.41658440067E+02 -0.12180795228E+03  0.24304236252E+03  0.00000000000E+00 0.  1.
         21    1    1    2  502  501  0.21477130472E+01 -0.30551846362E+02 -0.29716463738E+01  0.30771068711E+02  0.00000000000E+00 0.  1.
<scales pt_clust_4="550.00000" pt_clust_5="550.00000" pt_clust_6="30.62726"></scales>
<mgrwt>
<rscale>  0 0.30000000E+03</rscale>
<asrwt>  1 0.30627258E+02</asrwt>
<pdfrwt beam="1">  1        1 0.85460434E+00 0.30000000E+03</pdfrwt>
<pdfrwt beam="2">0</pdfrwt>
<totfact> 0.37703998E-04</totfact>
</mgrwt>
<clustering>
<clus scale="   30.627">  1  6  2 -1</clus>
<clus scale="  476.831">  4  5 -1 -1</clus>
<clus scale="  300.000">  1  4  2 -1</clus>
</clustering>
</event>
<event>
 6    1  0.9678510E-012  0.3000000E+03  0.7818608E-02  0.1093470E+00
          1   -1    0    0  502    0  0.00000000000E+00  0.00000000000E+00  0.23911236972E+03  0.23911236972E+03  0.00000000000E+00 0.  1.
         13   -1    0    0    0    0 -0.00000000000E+00 -0.00000000000E+00 -0.27500000000E+03  0.27500000000E+03  0.00000000000E+00 0.  1.
    9000005    2    1    2  501    0 -0.31715323087E+02  0.19674146519E+02 -0.45720696052E+02  0.47551673600E+03  0.47183985674E+03 0.  0.
         13    1    3    3    0    0 -0.21721081885E+03 -0.53313954590E+02  0.82626716961E+02  0.23843257314E+03  0.00000000000E+00 0.  1.
          1    1    3    3  501    0  0.18549549576E+03  0.72988101109E+02 -0.12834741301E+03  0.23708416286E+03  0.00000000000E+00 0.  1.
         21    1    1    2  502  501  0.31715323087E+02 -0.19674146519E+02  0.98330657725E+01  0.38595633720E+02  0.00000000000E+00 0. -1.
<scales pt_clust_4="550.00000" pt_clust_5="550.00000" pt_clust_6="37.32203"></scales>
<mgrwt>
<rscale>  0 0.30000000E+03</rscale>
<asrwt>  1 0.37322028E+02</asrwt>
<pdfrwt beam="1">  1        1 0.86949953E+00 0.30000000E+03</pdfrwt>
<pdfrwt beam="2">0</pdfrwt>
<totfact> 0.25321424E-04</totfact>
</mgrwt>
<clustering>
<clus scale="   37.322">  1  6  2 -1</clus>
<clus scale="  471.840">  4  5 -1 -1</clus>
<clus scale="  300.000">  1  4  2 -1</clus>
</clustering>
</event>
<event>
 6    1  0.9678510E-012  0.3000000E+03  0.7818608E-02  0.1093470E+00
          1   -1    0    0  502    0  0.00000000000E+00  0.00000000000E+00  0.24719544588E+03  0.24719544588E+03  0.00000000000E+00 0.  1.
         13   -1    0    0    0    0 -0.00000000000E+00 -0.00000000000E+00 -0.27500000000E+03  0.27500000000E+03  0.00000000000E+00 0.  1.
    9000005    2    1    2  501    0 -0.32509439070E+02 -0.35726245700E+01 -0.53698073810E+02  0.48048092039E+03  0.47634945623E+03 0.  0.
         13    1    3    3    0    0 -0.24298265504E+03 -0.14665043311E+02 -0.10252390218E+03  0.26413402785E+03  0.00000000000E+00 0.  1.
          3    1    3    3  501    0  0.21047321597E+03  0.11092418741E+02  0.48825828373E+02  0.21634689254E+03  0.00000000000E+00 0.  1.
         21    1    1    2  502  501  0.32509439070E+02  0.35726245700E+01  0.25893519686E+02  0.41714525488E+02  0.00000000000E+00 0.  1.
<scales pt_clust_4="550.00000" pt_clust_5="550.00000" pt_clust_6="32.70516"></scales>
<mgrwt>
<rscale>  0 0.30000000E+03</rscale>
<asrwt>  1 0.32705157E+02</asrwt>
<pdfrwt beam="1">  1        1 0.89889253E+00 0.30000000E+03</pdfrwt>
<pdfrwt beam="2">0</pdfrwt>
<totfact> 0.11539050E-04</totfact>
</mgrwt>
<clustering>
<clus scale="   32.705">  1  6  2 -1</clus>
<clus scale="  476.349">  4  5 -1 -1</clus>
<clus scale="  300.000">  1  4  2 -1</clus>
</clustering>
</event>
<event>
 6    1  0.9678510E-012  0.3000000E+03  0.7818608E-02  0.1093470E+00
          1   -1    0    0  502    0  0.00000000000E+00  0.00000000000E+00  0.24166104671E+03  0.24166104671E+03  0.00000000000E+00 0.  1.
         13   -1    0    0    0    0 -0.00000000000E+00 -0.00000000000E+00 -0.27500000000E+03  0.27500000000E+03  0.00000000000E+00 0.  1.
    9000005    2    1    2  501    0 -0.36507788177E+02 -0.81865992924E+01 -0.36004653170E+02  0.47915178170E+03  0.47632998631E+03 0.  0.
         13    1    3    3    0    0  0.90406682619E+02  0.88625983182E+02 -0.20862886436E+03  0.24403675174E+03  0.00000000000E+00 0.  1.
          3    1    3    3  501    0 -0.12691447080E+03 -0.96812582475E+02  0.17262421119E+03  0.23511502996E+03  0.00000000000E+00 0.  1.
         21    1    1    2  502  501  0.36507788177E+02  0.81865992924E+01  0.26656998801E+01  0.37509265007E+02  0.00000000000E+00 0. -1.
<scales pt_clust_4="550.00000" pt_clust_5="550.00000" pt_clust_6="37.41442"></scales>
<mgrwt>
<rscale>  0 0.30000000E+03</rscale>
<asrwt>  1 0.37414422E+02</asrwt>
<pdfrwt beam="1">  1        1 0.87876744E+00 0.30000000E+03</pdfrwt>
<pdfrwt beam="2">0</pdfrwt>
<totfact> 0.20173817E-04</totfact>
</mgrwt>
<clustering>
<clus scale="   37.414">  1  6  2 -1</clus>
<clus scale="  476.330">  4  5 -1 -1</clus>
<clus scale="  300.000">  1  4  2 -1</clus>
</clustering>
</event>
<event>
 6    1  0.9678510E-012  0.3000000E+03  0.7818608E-02  0.1093470E+00
          1   -1    0    0  502    0  0.00000000000E+00  0.00000000000E+00  0.24375879862E+03  0.24375879862E+03  0.00000000000E+00 0.  1.
         13   -1    0    0    0    0 -0.00000000000E+00 -0.00000000000E+00 -0.27500000000E+03  0.27500000000E+03  0.00000000000E+00 0.  1.
    9000005    2    1    2  501    0  0.24636944524E+02 -0.26385161392E+02 -0.48013405394E+02  0.47895348987E+03  0.47517155069E+03 0.  0.
         13    1    3    3    0    0  0.48488122783E+02 -0.15587653158E+02  0.21179311449E+03  0.21783111882E+03  0.00000000000E+00 0.  1.
          1    1    3    3  501    0 -0.23851178259E+02 -0.10797508234E+02 -0.25980651988E+03  0.26112237105E+03  0.00000000000E+00 0.  1.
         21    1    1    2  502  501 -0.24636944524E+02  0.26385161392E+02  0.16772204017E+02  0.39805308751E+02  0.00000000000E+00 0.  1.
<scales pt_clust_4="550.00000" pt_clust_5="550.00000" pt_clust_6="36.09925"></scales>
<mgrwt>
<rscale>  0 0.30000000E+03</rscale>
<asrwt>  1 0.36099249E+02</asrwt>
<pdfrwt beam="1">  1        1 0.88639563E+00 0.30000000E+03</pdfrwt>
<pdfrwt beam="2">0</pdfrwt>
<totfact> 0.16142953E-04</totfact>
</mgrwt>
<clustering>
<clus scale="   36.099">  1  6  2 -1</clus>
<clus scale="  475.172">  4  5 -1 -1</clus>
<clus scale="  300.000">  1  4  2 -1</clus>
</clustering>
</event>
<event>
 6    1  0.9678510E-012  0.3000000E+03  0.7818608E-02  0.1093470E+00
          1   -1    0    0  502    0  0.00000000000E+00  0.00000000000E+00  0.23560697814E+03  0.23560697814E+03  0.00000000000E+00 0.  1.
         13   -1    0    0    0    0 -0.00000000000E+00 -0.00000000000E+00 -0.27500000000E+03  0.27500000000E+03  0.00000000000E+00 0.  1.
    9000005    2    1    2  501    0  0.11965493732E+02 -0.29631659304E+02 -0.54650052450E+02  0.47519532390E+03  0.47095940308E+03 0.  0.
         13    1    3    3    0    0 -0.13825247821E+03 -0.19662242829E+03  0.12710764983E+02  0.24069833939E+03  0.00000000000E+00 0.  1.
          3    1    3    3  501    0  0.15021797194E+03  0.16699076899E+03 -0.67360817432E+02  0.23449698451E+03  0.00000000000E+00 0.  1.
         21    1    1    2  502  501 -0.11965493732E+02  0.29631659304E+02  0.15257030587E+02  0.35411654236E+02  0.00000000000E+00 0.  1.
<scales pt_clust_4="550.00000" pt_clust_5="550.00000" pt_clust_6="31.95635"></scales>
<mgrwt>
<rscale>  0 0.30000000E+03</rscale>
<asrwt>  1 0.31956349E+02</asrwt>
<pdfrwt beam="1">  1        1 0.85675265E+00 0.30000000E+03</pdfrwt>
<pdfrwt beam="2">0</pdfrwt>
<totfact> 0.35586620E-04</totfact>
</mgrwt>
<clustering>
<clus scale="   31.956">  1  6  2 -1</clus>
<clus scale="  470.959">  4  5 -1 -1</clus>
<clus scale="  300.000">  1  4  2 -1</clus>
</clustering>
</event>
<event>
 6    1  0.9678510E-012  0.3000000E+03  0.7818608E-02  0.1093470E+00
          1   -1    0    0  502    0  0.00000000000E+00  0.00000000000E+00  0.22799093873E+03  0.22799093873E+03  0.00000000000E+00 0.  1.
         13   -1    0    0    0    0 -0.00000000000E+00 -0.00000000000E+00 -0.27500000000E+03  0.27500000000E+03  0.00000000000E+00 0.  1.
    9000005    2    1    2  501    0 -0.26496159801E+02 -0.20603882491E+02 -0.57926073034E+02  0.46769578887E+03  0.46287941684E+03 0.  0.
         13    1    3    3    0    0  0.66518428904E+02  0.20723682535E+03 -0.18147119555E+02  0.21840586328E+03  0.00000000000E+00 0.  1.
          1    1    3    3  501    0 -0.93014588705E+02 -0.22784070784E+03 -0.39778953479E+02  0.24928992559E+03  0.00000000000E+00 0.  1.
         21    1    1    2  502  501  0.26496159801E+02  0.20603882491E+02  0.10917011767E+02  0.35295149862E+02  0.00000000000E+00 0.  1.
<scales pt_clust_4="550.00000" pt_clust_5="550.00000" pt_clust_6="33.56436"></scales>
<mgrwt>
<rscale>  0 0.30000000E+03</rscale>
<asrwt>  1 0.33564363E+02</asrwt>
<pdfrwt beam="1">  1        1 0.82905796E+00 0.30000000E+03</pdfrwt>
<pdfrwt beam="2">0</pdfrwt>
<totfact> 0.60659447E-04</totfact>
</mgrwt>
<clustering>
<clus scale="   33.564">  1  6  2 -1</clus>
<clus scale="  462.879">  4  5 -1 -1</clus>
<clus scale="  300.000">  1  4  2 -1</clus>
</clustering>
</event>
<event>
 6    1  0.9678510E-012  0.3000000E+03  0.7818608E-02  0.1093470E+00
          1   -1    0    0  502    0  0.00000000000E+00  0.00000000000E+00  0.24415869010E+03  0.24415869010E+03  0.00000000000E+00 0.  1.
         13   -1    0    0    0    0 -0.00000000000E+00 -0.00000000000E+00 -0.27500000000E+03  0.27500000000E+03  0.00000000000E+00 0.  1.
    9000005    2    1    2  501    0 -0.32159812541E+02  0.97157811916E+01 -0.15902690382E+02  0.48239168994E+03  0.48095758339E+03 0.  0.
         13    1    3    3    0    0  0.18877007738E+03  0.57143019696E+02  0.10781748764E+03  0.22477561579E+03  0.00000000000E+00 0.  1.
          3    1    3    3  501    0 -0.22092988992E+03 -0.47427238504E+02 -0.12372017802E+03  0.25761607415E+03  0.00000000000E+00 0.  1.
         21    1    1    2  502  501  0.32159812541E+02 -0.97157811916E+01 -0.14938619523E+02  0.36767000150E+02  0.00000000000E+00 0. -1.
<scales pt_clust_4="550.00000" pt_clust_5="550.00000" pt_clust_6="33.59540"></scales>
<mgrwt>
<rscale>  0 0.30000000E+03</rscale>
<asrwt>  1 0.33595403E+02</asrwt>
<pdfrwt beam="1">  1        1 0.88784978E+00 0.30000000E+03</pdfrwt>
<pdfrwt beam="2">0</pdfrwt>
<totfact> 0.15622773E-04</totfact>
</mgrwt>
<clustering>
<clus scale="   33.595">  1  6  2 -1</clus>
<clus scale="  480.958">  4  5 -1 -1</clus>
<clus scale="  300.000">  1  4  2 -1</clus>
</clustering>
</event>
<event>
 6    1  0.9678510E-012  0.3000000E+03  0.7818608E-02  0.1093470E+00
          1   -1    0    0  502    0  0.00000000000E+00  0.00000000000E+00  0.24842854368E+03  0.24842854368E+03  0.00000000000E+00 0.  1.
         13   -1    0    0    0    0 -0.00000000000E+00 -0.00000000000E+00 -0.27500000000E+03  0.27500000000E+03  0.00000000000E+00 0.  1.
    9000005    2    1    2  501    0 -0.17791198721E+02  0.36178465354E+02 -0.39485492930E+02  0.48109439141E+03  0.47777327383E+03 0.  0.
         13    1    3    3    0    0 -0.90833652077E+02  0.19689439046E+03  0.11594149543E+03  0.24588733946E+03  0.00000000000E+00 0.  1.
          1    1    3    3  501    0  0.73042453356E+02 -0.16071592510E+03 -0.15542698836E+03  0.23520705195E+03  0.00000000000E+00 0.  1.
         21    1    1    2  502  501  0.17791198721E+02 -0.36178465354E+02  0.12914036611E+02  0.42334152275E+02  0.00000000000E+00 0. -1.
<scales pt_clust_4="550.00000" pt_clust_5="550.00000" pt_clust_6="40.31635"></scales>
<mgrwt>
<rscale>  0 0.30000000E+03</rscale>
<asrwt>  1 0.40316350E+02</asrwt>
<pdfrwt beam="1">  1        1 0.90337652E+00 0.30000000E+03</pdfrwt>
<pdfrwt beam="2">0</pdfrwt>
<totfact> 0.96262314E-05</totfact>
</mgrwt>
<clustering>
<clus scale="   40.316">  1  6  2 -1</clus>
<clus scale="  477.773">  4  5 -1 -1</clus>
<clus scale="  300.000">  1  4  2 -1</clus>
</clustering>
</event>
<event>
 6    1  0.9678510E-012  0.3000000E+03  0.7818608E-02  0.1093470E+00
          1   -1    0    0  502    0  0.00000000000E+00  0.00000000000E+00  0.22534572514E+03  0.22534572514E+03  0.00000000000E+00 0.  1.
         13   -1    0    0    0    0 -0.00000000000E+00 -0.00000000000E+00 -0.27500000000E+03  0.27500000000E+03  0.00000000000E+00 0.  1.
    9000005    2    1    2  501    0  0.29520393109E+02 -0.11618901326E+02 -0.65099674483E+02  0.46506098557E+03  0.45938796262E+03 0.  0.
         13    1    3    3    0    0  0.14698043766E+03 -0.41380697532E+02  0.15262217824E+03  0.21589150162E+03  0.00000000000E+00 0.  1.
          3    1    3    3  501    0 -0.11746004455E+03  0.29761796205E+02 -0.21772185272E+03  0.24916948395E+03  0.00000000000E+00 0.  1.
         21    1    1    2  502  501 -0.29520393109E+02  0.11618901326E+02  0.15445399627E+02  0.35284739576E+02  0.00000000000E+00 0.  1.
<scales pt_clust_4="550.00000" pt_clust_5="550.00000" pt_clust_6="31.72464"></scales>
<mgrwt>
<rscale>  0 0.30000000E+03</rscale>
<asrwt>  1 0.31724635E+02</asrwt>
<pdfrwt beam="1">  1        1 0.81943900E+00 0.30000000E+03</pdfrwt>
<pdfrwt beam="2">0</pdfrwt>
<totfact> 0.74508147E-04</totfact>
</mgrwt>
<clustering>
<clus scale="   31.725">  1  6  2 -1</clus>
<clus scale="  459.388">  4  5 -1 -1</clus>
<clus scale="  300.000">  1  4  2 -1</clus>
</clustering>
</event>
<event>
 6    1  0.9678510E-012  0.3000000E+03  0.7818608E-02  0.1093470E+00
          1   -1    0    0  502    0  0.00000000000E+00  0.00000000000E+00  0.23997189215E+03  0.23997189215E+03  0.00000000000E+00 0.  1.
         13   -1    0    0    0    0 -0.00000000000E+00 -0.00000000000E+00 -0.27500000000E+03  0.27500000000E+03  0.00000000000E+00 0.  1.
    9000005    2    1    2  501    0 -0.34270639796E+02  0.20738644263E+02 -0.66930109314E+02  0.46376343762E+03  0.45715677664E+03 0.  0.
         13    1    3    3    0    0  0.42618675289E+02 -0.56858798206E+01  0.18972629457E+03  0.19453726523E+03  0.00000000000E+00 0.  1.
          3    1    3    3  501    0 -0.76889315085E+02  0.26424524083E+02 -0.25665640388E+03  0.26922617239E+03  0.00000000000E+00 0.  1.
         21    1    1    2  502  501  0.34270639796E+02 -0.20738644263E+02  0.31902001467E+02  0.51208454532E+02  0.00000000000E+00 0.  1.
<scales pt_clust_4="550.00000" pt_clust_5="550.00000" pt_clust_6="40.05706"></scales>
<mgrwt>
<rscale>  0 0.30000000E+03</rscale>
<asrwt>  1 0.40057061E+02</asrwt>
<pdfrwt beam="1">  1        1 0.87262506E+00 0.30000000E+03</pdfrwt>
<pdfrwt beam="2">0</pdfrwt>
<totfact> 0.23222055E-04</totfact>
</mgrwt>
<clustering>
<clus scale="   40.057">  1  6  2 -1</clus>
<clus scale="  457.157">  4  5 -1 -1</clus>
<clus scale="  300.000">  1  4  2 -1</clus>
</clustering>
</event>
<event>
 6    1  0.9678510E-012  0.3000000E+03  0.7818608E-02  0.1093470E+00
          1   -1    0    0  502    0  0.00000000000E+00  0.00000000000E+00  0.23598615497E+03  0.23598615497E+03  0.00000000000E+00 0.  1.
         13   -1    0    0    0    0 -0.00000000000E+00 -0.00000000000E+00 -0.27500000000E+03  0.27500000000E+03  0.00000000000E+00 0.  1.
    9000005    2    1    2  501    0  0.34527219619E+02  0.55098269061E+01 -0.59158758474E+02  0.47063389822E+03  0.46558997021E+03 0.  0.
         13    1    3    3    0    0 -0.16289316634E+03  0.64677951971E+02 -0.16345012356E+03  0.23965259022E+03  0.00000000000E+00 0.  1.
          3    1    3    3  501    0  0.19742038595E+03 -0.59168125064E+02  0.10429136508E+03  0.23098130800E+03  0.00000000000E+00 0.  1.
         21    1    1    2  502  501 -0.34527219619E+02 -0.55098269061E+01  0.20144913442E+02  0.40352256749E+02  0.00000000000E+00 0.  1.
<scales pt_clust_4="550.00000" pt_clust_5="550.00000" pt_clust_6="34.96408"></scales>
<mgrwt>
<rscale>  0 0.30000000E+03</rscale>
<asrwt>  1 0.34964083E+02</asrwt>
<pdfrwt beam="1">  1        1 0.85813147E+00 0.30000000E+03</pdfrwt>
<pdfrwt beam="2">0</pdfrwt>
<totfact> 0.33857277E-04</totfact>
</mgrwt>
<clustering>
<clus scale="   34.964">  1  6  2 -1</clus>
<clus scale="  465.590">  4  5 -1 -1</clus>
<clus scale="  300.000">  1  4  2 -1</clus>
</clustering>
</event>
<event>
 6    1  0.9678510E-012  0.3000000E+03  0.7818608E-02  0.1093470E+00
          1   -1    0    0  502    0  0.00000000000E+00  0.00000000000E+00  0.24306304354E+03  0.24306304354E+03  0.00000000000E+00 0.  1.
         13   -1    0    0    0    0 -0.00000000000E+00 -0.00000000000E+00 -0.27500000000E+03  0.27500000000E+03  0.00000000000E+00 0.  1.
    9000005    2    1    2  501    0 -0.44914241348E+02  0.43535801901E+01 -0.56635426034E+02  0.46662125959E+03  0.46096809617E+03 0.  0.
         13    1    3    3    0    0 -0.29976294215E+02  0.10240985453E+03 -0.23748557931E+03  0.26035697974E+03  0.00000000000E+00 0.  1.
          1    1    3    3  501    0 -0.14937947133E+02 -0.98056274344E+02  0.18085015327E+03  0.20626427985E+03  0.00000000000E+00 0.  1.
         21    1    1    2  502  501  0.44914241348E+02 -0.43535801901E+01  0.24698469569E+02  0.51441783945E+02  0.00000000000E+00 0.  1.
<scales pt_clust_4="550.00000" pt_clust_5="550.00000" pt_clust_6="45.12475"></scales>
<mgrwt>
<rscale>  0 0.30000000E+03</rscale>
<asrwt>  1 0.45124746E+02</asrwt>
<pdfrwt beam="1">  1        1 0.88386561E+00 0.30000000E+03</pdfrwt>
<pdfrwt beam="2">0</pdfrwt>
<totfact> 0.16787138E-04</totfact>
</mgrwt>
<clustering>
<clus scale="   45.125">  1  6  2 -1</clus>
<clus scale="  460.968">  4  5 -1 -1</clus>
<clus scale="  300.000">  1  4  2 -1</clus>
</clustering>
</event>
<event>
 6    1  0.9678510E-012  0.3000000E+03  0.7818608E-02  0.1093470E+00
          1   -1    0    0  502    0  0.00000000000E+00  0.00000000000E+00  0.23350278203E+03  0.23350278203E+03  0.00000000000E+00 0.  1.
         13   -1    0    0    0    0 -0.00000000000E+00 -0.00000000000E+00 -0.27500000000E+03  0.27500000000E+03  0.00000000000E+00 0.  1.
    9000005    2    1    2  501    0  0.37944917177E+02  0.24842511415E+01 -0.47263649197E+02  0.47004189316E+03  0.46611108177E+03 0.  0.
         13    1    3    3    0    0  0.24489551232E+03 -0.35175309990E+02 -0.73419519882E+02  0.25807274224E+03  0.00000000000E+00 0.  1.
          3    1    3    3  501    0 -0.20695059514E+03  0.37659561132E+02  0.26155870684E+02  0.21196915093E+03  0.00000000000E+00 0.  1.
         21    1    1    2  502  501 -0.37944917177E+02 -0.24842511415E+01  0.57664312251E+01  0.38460888866E+02  0.00000000000E+00 0. -1.
<scales pt_clust_4="550.00000" pt_clust_5="550.00000" pt_clust_6="38.02615"></scales>
<mgrwt>
<rscale>  0 0.30000000E+03</rscale>
<asrwt>  1 0.38026152E+02</asrwt>
<pdfrwt beam="1">  1        1 0.84910103E+00 0.30000000E+03</pdfrwt>
<pdfrwt beam="2">0</pdfrwt>
<totfact> 0.40858752E-04</totfact>
</mgrwt>
<clustering>
<clus scale="   38.026">  1  6  2 -1</clus>
<clus scale="  466.111">  4  5 -1 -1</clus>
<clus scale="  300.000">  1  4  2 -1</clus>
</clustering>
</event>
<event>
 6    1  0.9678510E-012  0.3000000E+03  0.7818608E-02  0.1093470E+00
          1   -1    0    0  502    0  0.00000000000E+00  0.00000000000E+00  0.22952975454E+03  0.22952975454E+03  0.00000000000E+00 0.  1.
         13   -1    0    0    0    0 -0.00000000000E+00 -0.00000000000E+00 -0.27500000000E+03  0.27500000000E+03  0.00000000000E+00 0.  1.
    9000005    2    1    2  501    0  0.30914414721E+02 -0.60605634291E+01 -0.66748144589E+02  0.46651422537E+03  0.46063844412E+03 0.  0.
         13    1    3    3    0    0  0.53921466481E+02  0.73830681822E+02  0.18230824227E+03  0.20394800643E+03  0.00000000000E+00 0.  1.
          1    1    3    3  501    0 -0.23007051760E+02 -0.79891245251E+02 -0.24905638686E+03  0.26256621895E+03  0.00000000000E+00 0.  1.
         21    1    1    2  502  501 -0.30914414721E+02  0.60605634291E+01  0.21277899133E+02  0.38015529171E+02  0.00000000000E+00 0.  1.
<scales pt_clust_4="550.00000" pt_clust_5="550.00000" pt_clust_6="31.50288"></scales>
<mgrwt>
<rscale>  0 0.30000000E+03</rscale>
<asrwt>  1 0.31502880E+02</asrwt>
<pdfrwt beam="1">  1        1 0.83465365E+00 0.30000000E+03</pdfrwt>
<pdfrwt beam="2">0</pdfrwt>
<totfact> 0.55508173E-04</totfact>
</mgrwt>
<clustering>
<clus scale="   31.503">  1  6  2 -1</clus>
<clus scale="  460.638">  4  5 -1 -1</clus>
<clus scale="  300.000">  1  4  2 -1</clus>
</clustering>
</event>
<event>
 6    1  0.9678510E-012  0.3000000E+03  0.7818608E-02  0.1093470E+00
          1   -1    0    0  502    0  0.00000000000E+00  0.00000000000E+00  0.25663256704E+03  0.25663256704E+03  0.00000000000E+00 0.  1.
         13   -1    0    0    0    0 -0.00000000000E+00 -0.00000000000E+00 -0.27500000000E+03  0.27500000000E+03  0.00000000000E+00 0.  1.
    9000005    2    1    2  501    0  0.19045617534E+02 -0.32912587621E+02 -0.31067555883E+02  0.49154183128E+03  0.48908302455E+03 0.  0.
         13    1    3    3    0    0 -0.49392888019E+02 -0.17180342493E+03 -0.19602771460E+03  0.26529783093E+03  0.00000000000E+00 0.  1.
          1    1    3    3  501    0  0.68438505554E+02  0.13889083731E+03  0.16496015872E+03  0.22624400035E+03  0.00000000000E+00 0.  1.
         21    1    1    2  502  501 -0.19045617534E+02  0.32912587621E+02  0.12700122924E+02  0.40090735756E+02  0.00000000000E+00 0.  1.
<scales pt_clust_4="550.00000" pt_clust_5="550.00000" pt_clust_6="38.02596"></scales>
<mgrwt>
<rscale>  0 0.30000000E+03</rscale>
<asrwt>  1 0.38025964E+02</asrwt>
<pdfrwt beam="1">  1        1 0.93320933E+00 0.30000000E+03</pdfrwt>
<pdfrwt beam="2">0</pdfrwt>
<totfact> 0.23335178E-05</totfact>
</mgrwt>
<clustering>
<clus scale="   38.026">  1  6  2 -1</clus>
<clus scale="  489.083">  4  5 -1 -1</clus>
<clus scale="  300.000">  1  4  2 -1</clus>
</clustering>
</event>
<event>
 6    1  0.9678510E-012  0.3000000E+03  0.7818608E-02  0.1093470E+00
          1   -1    0    0  502    0  0.00000000000E+00  0.00000000000E+00  0.24434714256E+03  0.24434714256E+03  0.00000000000E+00 0.  1.
         13   -1    0    0    0    0 -0.00000000000E+00 -0.00000000000E+00 -0.27500000000E+03  0.27500000000E+03  0.00000000000E+00 0.  1.
    9000005    2    1    2  501    0  0.15787840252E+02 -0.46128333512E+02 -0.16016035067E+02  0.46844217599E+03  0.46562267966E+03 0.  0.
         13    1    3    3    0    0 -0.45247152868E+01 -0.71632296710E+02 -0.23568237650E+03  0.24636931946E+03  0.00000000000E+00 0.  1.
          3    1    3    3  501    0  0.20312555539E+02  0.25503963197E+02  0.21966634143E+03  0.22207285653E+03  0.00000000000E+00 0.  1.
         21    1    1    2  502  501 -0.15787840252E+02  0.46128333512E+02 -0.14636822370E+02  0.50904966570E+02  0.00000000000E+00 0. -1.
<scales pt_clust_4="550.00000" pt_clust_5="550.00000" pt_clust_6="48.75532"></scales>
<mgrwt>
<rscale>  0 0.30000000E+03</rscale>
<asrwt>  1 0.48755322E+02</asrwt>
<pdfrwt beam="1">  1        1 0.88853506E+00 0.30000000E+03</pdfrwt>
<pdfrwt beam="2">0</pdfrwt>
<totfact> 0.14285461E-04</totfact>
</mgrwt>
<clustering>
<clus scale="   48.755">  1  6  2 -1</clus>
<clus scale="  465.623">  4  5 -1 -1</clus>
<clus scale="  300.000">  1  4  2 -1</clus>
</clustering>
</event>
<event>
 6    1  0.9678510E-012  0.3000000E+03  0.7818608E-02  0.1093470E+00
          1   -1    0    0  502    0  0.00000000000E+00  0.00000000000E+00  0.22667249474E+03  0.22667249474E+03  0.00000000000E+00 0.  1.
         13   -1    0    0    0    0 -0.00000000000E+00 -0.00000000000E+00 -0.27500000000E+03  0.27500000000E+03  0.00000000000E+00 0.  1.
    9000005    2    1    2  501    0 -0.18544401968E+02 -0.24512087650E+02 -0.70418686395E+02  0.46382071051E+03  0.45741242093E+03 0.  0.
         13    1    3    3    0    0 -0.18125100963E+03  0.51374806789E+02 -0.17408328968E+03  0.25650787709E+03  0.00000000000E+00 0.  1.
          1    1    3    3  501    0  0.16270660766E+03 -0.75886894439E+02  0.10366460328E+03  0.20731283342E+03  0.00000000000E+00 0.  1.
         21    1    1    2  502  501  0.18544401968E+02  0.24512087650E+02  0.22091181131E+02  0.37851784226E+02  0.00000000000E+00 0.  1.
<scales pt_clust_4="550.00000" pt_clust_5="550.00000" pt_clust_6="30.73658"></scales>
<mgrwt>
<rscale>  0 0.30000000E+03</rscale>
<asrwt>  1 0.30736579E+02</asrwt>
<pdfrwt beam="1">  1        1 0.82426362E+00 0.30000000E+03</pdfrwt>
<pdfrwt beam="2">0</pdfrwt>
<totfact> 0.67965163E-04</totfact>
</mgrwt>
<clustering>
<clus scale="   30.737">  1  6  2 -1</clus>
<clus scale="  457.412">  4  5 -1 -1</clus>
<clus scale="  300.000">  1  4  2 -1</clus>
</clustering>
</event>
<event>
 6    1  0.9678510E-012  0.3000000E+03  0.7818608E-02  0.1093470E+00
          1   -1    0    0  502    0  0.00000000000E+00  0.00000000000E+00  0.26700363779E+03  0.26700363779E+03  0.00000000000E+00 0.  1.
         13   -1    0    0    0    0 -0.00000000000E+00 -0.00000000000E+00 -0.27500000000E+03  0.27500000000E+03  0.00000000000E+00 0.  1.
    9000005    2    1    2  501    0 -0.24167081105E+02 -0.19123162265E+02 -0.29542118815E+01  0.51077598299E+03  0.50983687027E+03 0.  0.
         13    1    3    3    0    0  0.10081372830E+03 -0.58685300807E+02 -0.22470202799E+03  0.25317656631E+03  0.00000000000E+00 0.  1.
          1    1    3    3  501    0 -0.12498080940E+03  0.39562138542E+02  0.22174781611E+03  0.25759941668E+03  0.00000000000E+00 0.  1.
         21    1    1    2  502  501  0.24167081105E+02  0.19123162265E+02 -0.50421503302E+01  0.31227654797E+02  0.00000000000E+00 0.  1.
<scales pt_clust_4="550.00000" pt_clust_5="550.00000" pt_clust_6="30.81792"></scales>
<mgrwt>
<rscale>  0 0.30000000E+03</rscale>
<asrwt>  1 0.30817918E+02</asrwt>
<pdfrwt beam="1">  1        1 0.97092232E+00 0.30000000E+03</pdfrwt>
<pdfrwt beam="2">0</pdfrwt>
<totfact> 0.49185400E-06</totfact>
</mgrwt>
<clustering>
<clus scale="   30.818">  1  6  2 -1</clus>
<clus scale="  509.837">  4  5 -1 -1</clus>
<clus scale="  300.000">  1  4  2 -1</clus>
</clustering>
</event>
<event>
 6    1  0.9678510E-012  0.3000000E+03  0.7818608E-02  0.1093470E+00
          1   -1    0    0  502    0  0.00000000000E+00  0.00000000000E+00  0.23378593813E+03  0.23378593813E+03  0.00000000000E+00 0.  1.
         13   -1    0    0    0    0 -0.00000000000E+00 -0.00000000000E+00 -0.27500000000E+03  0.27500000000E+03  0.00000000000E+00 0.  1.
    9000005    2    1    2  501    0  0.19370122146E+02 -0.23143973148E+02 -0.49639836616E+02  0.47745163097E+03  0.47390410571E+03 0.  0.
         13    1    3    3    0    0 -0.18604641266E+03  0.53364557235E+02  0.94214897645E+02  0.21526144702E+03  0.00000000000E+00 0.  1.
          1    1    3    3  501    0  0.20541653481E+03 -0.76508530382E+02 -0.14385473426E+03  0.26219018396E+03  0.00000000000E+00 0.  1.
         21    1    1    2  502  501 -0.19370122146E+02  0.23143973148E+02  0.84257747431E+01  0.31334307157E+02  0.00000000000E+00 0. -1.
<scales pt_clust_4="550.00000" pt_clust_5="550.00000" pt_clust_6="30.18021"></scales>
<mgrwt>
<rscale>  0 0.30000000E+03</rscale>
<asrwt>  1 0.30180211E+02</asrwt>
<pdfrwt beam="1">  1        1 0.85013068E+00 0.30000000E+03</pdfrwt>
<pdfrwt beam="2">0</pdfrwt>
<totfact> 0.41740499E-04</totfact>
</mgrwt>
<clustering>
<clus scale="   30.180">  1  6  2 -1</clus>
<clus scale="  473.904">  4  5 -1 -1</clus>
<clus scale="  300.000">  1  4  2 -1</clus>
</clustering>
</event>
<event>
 6    1  0.9678510E-012  0.3000000E+03  0.7818608E-02  0.1093470E+00
          1   -1    0    0  502    0  0.00000000000E+00  0.00000000000E+00  0.24403214936E+03  0.24403214936E+03  0.00000000000E+00 0.  1.
         13   -1    0    0    0    0 -0.00000000000E+00 -0.00000000000E+00 -0.27500000000E+03  0.27500000000E+03  0.00000000000E+00 0.  1.
    9000005    2    1    2  501    0  0.35520612867E+02  0.19056227998E+02 -0.35513306520E+01  0.47028259211E+03  0.46853841969E+03 0.  0.
         13    1    3    3    0    0  0.13177710648E+03  0.17110995345E+03 -0.12839811760E+03  0.25125663885E+03  0.00000000000E+00 0.  1.
          3    1    3    3  501    0 -0.96256493617E+02 -0.15205372546E+03  0.12484678695E+03  0.21902595326E+03  0.00000000000E+00 0.  1.
         21    1    1    2  502  501 -0.35520612867E+02 -0.19056227998E+02 -0.27416519989E+02  0.48749557252E+02  0.00000000000E+00 0. -1.
<scales pt_clust_4="550.00000" pt_clust_5="550.00000" pt_clust_6="40.30950"></scales>
<mgrwt>
<rscale>  0 0.30000000E+03</rscale>
<asrwt>  1 0.40309495E+02</asrwt>
<pdfrwt beam="1">  1        1 0.88738963E+00 0.30000000E+03</pdfrwt>
<pdfrwt beam="2">0</pdfrwt>
<totfact> 0.15326205E-04</totfact>
</mgrwt>
<clustering>
<clus scale="   40.309">  1  6  2 -1</clus>
<clus scale="  468.538">  4  5 -1 -1</clus>
<clus scale="  300.000">  1  4  2 -1</clus>
</clustering>
</event>
<event>
 6    1  0.9678510E-012  0.3000000E+03  0.7818608E-02  0.1093470E+00
          1   -1    0    0  502    0  0.00000000000E+00  0.00000000000E+00  0.23808239072E+03  0.23808239072E+03  0.00000000000E+00 0.  1.
         13   -1    0    0    0    0 -0.00000000000E+00 -0.00000000000E+00 -0.27500000000E+03  0.27500000000E+03  0.00000000000E+00 0.  1.
    9000005    2    1    2  501    0  0.31908818774E+02  0.12905884046E+02 -0.46595084644E+02  0.47732783733E+03  0.47379956503E+03 0.  0.
         13    1    3    3    0    0  0.36848864166E+02  0.47880026749E+02  0.20989475678E+03  0.21841736350E+03  0.00000000000E+00 0.  1.
          3    1    3    3  501    0 -0.49400453917E+01 -0.34974142703E+02 -0.25648984143E+03  0.25891047383E+03  0.00000000000E+00 0.  1.
         21    1    1    2  502  501 -0.31908818774E+02 -0.12905884046E+02  0.96774753618E+01  0.35754553388E+02  0.00000000000E+00 0. -1.
<scales pt_clust_4="550.00000" pt_clust_5="550.00000" pt_clust_6="34.41997"></scales>
<mgrwt>
<rscale>  0 0.30000000E+03</rscale>
<asrwt>  1 0.34419973E+02</asrwt>
<pdfrwt beam="1">  1        1 0.86575415E+00 0.30000000E+03</pdfrwt>
<pdfrwt beam="2">0</pdfrwt>
<totfact> 0.28130683E-04</totfact>
</mgrwt>
<clustering>
<clus scale="   34.420">  1  6  2 -1</clus>
<clus scale="  473.800">  4  5 -1 -1</clus>
<clus scale="  300.000">  1  4  2 -1</clus>
</clustering>
</event>
<event>
 6    1  0.9678510E-012  0.3000000E+03  0.7818608E-02  0.1093470E+00
          1   -1    0    0  502    0  0.00000000000E+00  0.00000000000E+00  0.24513977609E+03  0.24513977609E+03  0.00000000000E+00 0.  1.
         13   -1    0    0    0    0 -0.00000000000E+00 -0.00000000000E+00 -0.27500000000E+03  0.27500000000E+03  0.00000000000E+00 0.  1.
    9000005    2    1    2  501    0 -0.32569456388E+02 -0.14254061347E+01 -0.59769943476E+02  0.47589734627E+03  0.47100216217E+03 0.  0.
         13    1    3    3    0    0 -0.21562385505E+03  0.12097709001E+03  0.17815706171E+01  0.24724942299E+03  0.00000000000E+00 0.  1.
          1    1    3    3  501    0  0.18305439866E+03 -0.12240249614E+03 -0.61551514093E+02  0.22864792328E+03  0.00000000000E+00 0.  1.
         21    1    1    2  502  501  0.32569456388E+02  0.14254061347E+01  0.29909719567E+02  0.44242429823E+02  0.00000000000E+00 0.  1.
<scales pt_clust_4="550.00000" pt_clust_5="550.00000" pt_clust_6="32.60063"></scales>
<mgrwt>
<rscale>  0 0.30000000E+03</rscale>
<asrwt>  1 0.32600633E+02</asrwt>
<pdfrwt beam="1">  1        1 0.89141737E+00 0.30000000E+03</pdfrwt>
<pdfrwt beam="2">0</pdfrwt>
<totfact> 0.14081654E-04</totfact>
</mgrwt>
<clustering>
<clus scale="   32.601">  1  6  2 -1</clus>
<clus scale="  471.002">  4  5 -1 -1</clus>
<clus scale="  300.000">  1  4  2 -1</clus>
</clustering>
</event>
<event>
 6    1  0.9678510E-012  0.3000000E+03  0.7818608E-02  0.1093470E+00
          1   -1    0    0  502    0  0.00000000000E+00  0.00000000000E+00  0.23543515257E+03  0.23543515257E+03  0.00000000000E+00 0.  1.
         13   -1    0    0    0    0 -0.00000000000E+00 -0.00000000000E+00 -0.27500000000E+03  0.27500000000E+03  0.00000000000E+00 0.  1.
    9000005    2    1    2  501    0 -0.30745784988E+02 -0.14485957193E+02 -0.58865545686E+02  0.47134982024E+03  0.46642293503E+03 0.  0.
         13    1    3    3    0    0 -0.31488055604E+02 -0.54349560764E+02 -0.25939679654E+03  0.26689336907E+03  0.00000000000E+00 0.  1.
          1    1    3    3  501    0  0.74227061638E+00  0.39863603571E+02  0.20053125085E+03  0.20445645117E+03  0.00000000000E+00 0.  1.
         21    1    1    2  502  501  0.30745784988E+02  0.14485957193E+02  0.19300698253E+02  0.39085332330E+02  0.00000000000E+00 0.  1.
<scales pt_clust_4="550.00000" pt_clust_5="550.00000" pt_clust_6="33.98744"></scales>
<mgrwt>
<rscale>  0 0.30000000E+03</rscale>
<asrwt>  1 0.33987443E+02</asrwt>
<pdfrwt beam="1">  1        1 0.85612783E+00 0.30000000E+03</pdfrwt>
<pdfrwt beam="2">0</pdfrwt>
<totfact> 0.35693464E-04</totfact>
</mgrwt>
<clustering>
<clus scale="   33.987">  1  6  2 -1</clus>
<clus scale="  466.423">  4  5 -1 -1</clus>
<clus scale="  300.000">  1  4  2 -1</clus>
</clustering>
</event>
<event>
 6    1  0.9678510E-012  0.3000000E+03  0.7818608E-02  0.1093470E+00
          1   -1    0    0  502    0  0.00000000000E+00  0.00000000000E+00  0.24085284448E+03  0.24085284448E+03  0.00000000000E+00 0.  1.
         13   -1    0    0    0    0 -0.00000000000E+00 -0.00000000000E+00 -0.27500000000E+03  0.27500000000E+03  0.00000000000E+00 0.  1.
    9000005    2    1    2  501    0 -0.16793440039E+02 -0.40055901986E+02 -0.18233198539E+02  0.46959542411E+03  0.46722683774E+03 0.  0.
         13    1    3    3    0    0  0.17174577966E+03  0.11292426329E+03 -0.77501268142E+02  0.21967009044E+03  0.00000000000E+00 0.  1.
          3    1    3    3  501    0 -0.18853921970E+03 -0.15298016528E+03  0.59268069603E+02  0.24992533367E+03  0.00000000000E+00 0.  1.
         21    1    1    2  502  501  0.16793440039E+02  0.40055901986E+02 -0.15913956983E+02  0.46257420368E+02  0.00000000000E+00 0. -1.
<scales pt_clust_4="550.00000" pt_clust_5="550.00000" pt_clust_6="43.43382"></scales>
<mgrwt>
<rscale>  0 0.30000000E+03</rscale>
<asrwt>  1 0.43433821E+02</asrwt>
<pdfrwt beam="1">  1        1 0.87582853E+00 0.30000000E+03</pdfrwt>
<pdfrwt beam="2">0</pdfrwt>
<totfact> 0.21184086E-04</totfact>
</mgrwt>
<clustering>
<clus scale="   43.434">  1  6  2 -1</clus>
<clus scale="  467.227">  4  5 -1 -1</clus>
<clus scale="  300.000">  1  4  2 -1</clus>
</clustering>
</event>
<event>
 6    1  0.9678510E-012  0.3000000E+03  0.7818608E-02  0.1093470E+00
          1   -1    0    0  502    0  0.00000000000E+00  0.00000000000E+00  0.25141203903E+03  0.25141203903E+03  0.00000000000E+00 0.  1.
         13   -1    0    0    0    0 -0.00000000000E+00 -0.00000000000E+00 -0.27500000000E+03  0.27500000000E+03  0.00000000000E+00 0.  1.
    9000005    2    1    2  501    0  0.25398579870E+02 -0.32819355612E+02 -0.35346478371E+02  0.48327898101E+03  0.48019475423E+03 0.  0.
         13    1    3    3    0    0  0.17142484600E+03 -0.15336538124E+03 -0.13764804195E+03  0.26805671310E+03  0.00000000000E+00 0.  1.
          3    1    3    3  501    0 -0.14602626613E+03  0.12054602563E+03  0.10230156357E+03  0.21522226791E+03  0.00000000000E+00 0.  1.
         21    1    1    2  502  501 -0.25398579870E+02  0.32819355612E+02  0.11758517398E+02  0.43133058014E+02  0.00000000000E+00 0.  1.
<scales pt_clust_4="550.00000" pt_clust_5="550.00000" pt_clust_6="41.49937"></scales>
<mgrwt>
<rscale>  0 0.30000000E+03</rscale>
<asrwt>  1 0.41499373E+02</asrwt>
<pdfrwt beam="1">  1        1 0.91422560E+00 0.30000000E+03</pdfrwt>
<pdfrwt beam="2">0</pdfrwt>
<totfact> 0.54730225E-05</totfact>
</mgrwt>
<clustering>
<clus scale="   41.499">  1  6  2 -1</clus>
<clus scale="  480.195">  4  5 -1 -1</clus>
<clus scale="  300.000">  1  4  2 -1</clus>
</clustering>
</event>
<event>
 6    1  0.9678510E-012  0.3000000E+03  0.7818608E-02  0.1093470E+00
          1   -1    0    0  502    0  0.00000000000E+00  0.00000000000E+00  0.25105867894E+03  0.25105867894E+03  0.00000000000E+00 0.  1.
         13   -1    0    0    0    0 -0.00000000000E+00 -0.00000000000E+00 -0.27500000000E+03  0.27500000000E+03  0.00000000000E+00 0.  1.
    9000005    2    1    2  501    0  0.47022134531E+01  0.35819932850E+02 -0.35620178430E+02  0.48809061196E+03  0.48544667057E+03 0.  0.
         13    1    3    3    0    0  0.44855691971E+00 -0.20538623490E+03  0.80193849891E+02  0.22048755123E+03  0.00000000000E+00 0.  1.
          3    1    3    3  501    0  0.42536565333E+01  0.24120616775E+03 -0.11581402832E+03  0.26760306072E+03  0.00000000000E+00 0.  1.
         21    1    1    2  502  501 -0.47022134531E+01 -0.35819932850E+02  0.11678857366E+02  0.37968066978E+02  0.00000000000E+00 0.  1.
<scales pt_clust_4="550.00000" pt_clust_5="550.00000" pt_clust_6="36.12725"></scales>
<mgrwt>
<rscale>  0 0.30000000E+03</rscale>
<asrwt>  1 0.36127253E+02</asrwt>
<pdfrwt beam="1">  1        1 0.91294065E+00 0.30000000E+03</pdfrwt>
<pdfrwt beam="2">0</pdfrwt>
<totfact> 0.60370077E-05</totfact>
</mgrwt>
<clustering>
<clus scale="   36.127">  1  6  2 -1</clus>
<clus scale="  485.447">  4  5 -1 -1</clus>
<clus scale="  300.000">  1  4  2 -1</clus>
</clustering>
</event>
<event>
 6    1  0.9678510E-012  0.3000000E+03  0.7818608E-02  0.1093470E+00
          1   -1    0    0  502    0  0.00000000000E+00  0.00000000000E+00  0.23095438670E+03  0.23095438670E+03  0.00000000000E+00 0.  1.
         13   -1    0    0    0    0 -0.00000000000E+00 -0.00000000000E+00 -0.27500000000E+03  0.27500000000E+03  0.00000000000E+00 0.  1.
    9000005    2    1    2  501    0 -0.90019377230E+01  0.28866756392E+02 -0.51868115045E+02  0.47472113453E+03  0.47090925847E+03 0.  0.
         13    1    3    3    0    0  0.90660792828E+00 -0.38877789848E+02 -0.25624614481E+03  0.25918022920E+03  0.00000000000E+00 0.  1.
          3    1    3    3  501    0 -0.99085456512E+01  0.67744546240E+02  0.20437802976E+03  0.21554090533E+03  0.00000000000E+00 0.  1.
         21    1    1    2  502  501  0.90019377230E+01 -0.28866756392E+02  0.78225017473E+01  0.31233252167E+02  0.00000000000E+00 0.  1.
<scales pt_clust_4="550.00000" pt_clust_5="550.00000" pt_clust_6="30.23780"></scales>
<mgrwt>
<rscale>  0 0.30000000E+03</rscale>
<asrwt>  1 0.30237799E+02</asrwt>
<pdfrwt beam="1">  1        1 0.83983413E+00 0.30000000E+03</pdfrwt>
<pdfrwt beam="2">0</pdfrwt>
<totfact> 0.51251685E-04</totfact>
</mgrwt>
<clustering>
<clus scale="   30.238">  1  6  2 -1</clus>
<clus scale="  470.909">  4  5 -1 -1</clus>
<clus scale="  300.000">  1  4  2 -1</clus>
</clustering>
</event>
<event>
 6    1  0.9678510E-012  0.3000000E+03  0.7818608E-02  0.1093470E+00
          1   -1    0    0  502    0  0.00000000000E+00  0.00000000000E+00  0.24093258254E+03  0.24093258254E+03  0.00000000000E+00 0.  1.
         13   -1    0    0    0    0 -0.00000000000E+00 -0.00000000000E+00 -0.27500000000E+03  0.27500000000E+03  0.00000000000E+00 0.  1.
    9000005    2    1    2  501    0 -0.47270832662E+02 -0.33833738700E+01 -0.48613523068E+02  0.46635871818E+03  0.46139050766E+03 0.  0.
         13    1    3    3    0    0 -0.47563440422E+02  0.20263839352E+03  0.80558546467E+02  0.22319112617E+03  0.00000000000E+00 0.  1.
          1    1    3    3  501    0  0.29260775977E+00 -0.20602176739E+03 -0.12917206953E+03  0.24316759201E+03  0.00000000000E+00 0.  1.
         21    1    1    2  502  501  0.47270832662E+02  0.33833738700E+01  0.14546105612E+02  0.49573864362E+02  0.00000000000E+00 0.  1.
<scales pt_clust_4="550.00000" pt_clust_5="550.00000" pt_clust_6="47.39176"></scales>
<mgrwt>
<rscale>  0 0.30000000E+03</rscale>
<asrwt>  1 0.47391759E+02</asrwt>
<pdfrwt beam="1">  1        1 0.87611848E+00 0.30000000E+03</pdfrwt>
<pdfrwt beam="2">0</pdfrwt>
<totfact> 0.20707064E-04</totfact>
</mgrwt>
<clustering>
<clus scale="   47.392">  1  6  2 -1</clus>
<clus scale="  461.391">  4  5 -1 -1</clus>
<clus scale="  300.000">  1  4  2 -1</clus>
</clustering>
</event>
<event>
 6    1  0.9678510E-012  0.3000000E+03  0.7818608E-02  0.1093470E+00
          1   -1    0    0  502    0  0.00000000000E+00  0.00000000000E+00  0.23150574760E+03  0.23150574760E+03  0.00000000000E+00 0.  1.
         13   -1    0    0    0    0 -0.00000000000E+00 -0.00000000000E+00 -0.27500000000E+03  0.27500000000E+03  0.00000000000E+00 0.  1.
    9000005    2    1    2  501    0  0.22263679300E+02  0.28751645260E+02 -0.66703066569E+02  0.46336669828E+03  0.45709634593E+03 0.  0.
         13    1    3    3    0    0 -0.17456951828E+03 -0.10907472143E+03  0.22462826287E+02  0.20706614917E+03  0.00000000000E+00 0.  1.
          1    1    3    3  501    0  0.19683319758E+03  0.13782636669E+03 -0.89165892856E+02  0.25630054911E+03  0.00000000000E+00 0.  1.
         21    1    1    2  502  501 -0.22263679300E+02 -0.28751645260E+02  0.23208814166E+02  0.43139049319E+02  0.00000000000E+00 0. -1.
<scales pt_clust_4="550.00000" pt_clust_5="550.00000" pt_clust_6="36.36384"></scales>
<mgrwt>
<rscale>  0 0.30000000E+03</rscale>
<asrwt>  1 0.36363835E+02</asrwt>
<pdfrwt beam="1">  1        1 0.84183908E+00 0.30000000E+03</pdfrwt>
<pdfrwt beam="2">0</pdfrwt>
<totfact> 0.47721995E-04</totfact>
</mgrwt>
<clustering>
<clus scale="   36.364">  1  6  2 -1</clus>
<clus scale="  457.096">  4  5 -1 -1</clus>
<clus scale="  300.000">  1  4  2 -1</clus>
</clustering>
</event>
<event>
 6    1  0.9678510E-012  0.3000000E+03  0.7818608E-02  0.1093470E+00
          1   -1    0    0  502    0  0.00000000000E+00  0.00000000000E+00  0.21938325366E+03  0.21938325366E+03  0.00000000000E+00 0.  1.
         13   -1    0    0    0    0 -0.00000000000E+00 -0.00000000000E+00 -0.27500000000E+03  0.27500000000E+03  0.00000000000E+00 0.  1.
    9000005    2    1    2  501    0 -0.23842199087E+02  0.18735104365E+02 -0.53704681021E+02  0.46400051865E+03  0.45988350041E+03 0.  0.
         13    1    3    3    0    0  0.13673853922E+03  0.15034610427E+03  0.78497090263E+02  0.21786044239E+03  0.00000000000E+00 0.  1.
          3    1    3    3  501    0 -0.16058073831E+03 -0.13161099991E+03 -0.13220177128E+03  0.24614007626E+03  0.00000000000E+00 0.  1.
         21    1    1    2  502  501  0.23842199087E+02 -0.18735104365E+02 -0.19120653179E+01  0.30382735009E+02  0.00000000000E+00 0. -1.
<scales pt_clust_4="550.00000" pt_clust_5="550.00000" pt_clust_6="30.32251"></scales>
<mgrwt>
<rscale>  0 0.30000000E+03</rscale>
<asrwt>  1 0.30322510E+02</asrwt>
<pdfrwt beam="1">  1        1 0.79775729E+00 0.30000000E+03</pdfrwt>
<pdfrwt beam="2">0</pdfrwt>
<totfact> 0.11062453E-03</totfact>
</mgrwt>
<clustering>
<clus scale="   30.323">  1  6  2 -1</clus>
<clus scale="  459.884">  4  5 -1 -1</clus>
<clus scale="  300.000">  1  4  2 -1</clus>
</clustering>
</event>
<event>
 6    1  0.9678510E-012  0.3000000E+03  0.7818608E-02  0.1093470E+00
          1   -1    0    0  502    0  0.00000000000E+00  0.00000000000E+00  0.22728821702E+03  0.22728821702E+03  0.00000000000E+00 0.  1.
         13   -1    0    0    0    0 -0.00000000000E+00 -0.00000000000E+00 -0.27500000000E+03  0.27500000000E+03  0.00000000000E+00 0.  1.
    9000005    2    1    2  501    0  0.32715651474E+02  0.13055530145E+02 -0.61726047766E+02  0.46437831942E+03  0.45890778796E+03 0.  0.
         13    1    3    3    0    0 -0.15912465708E+03 -0.83946235980E+02 -0.14778113843E+03  0.23282373569E+03  0.00000000000E+00 0.  1.
          1    1    3    3  501    0  0.19184030855E+03  0.97001766125E+02  0.86055090660E+02  0.23155458373E+03  0.00000000000E+00 0.  1.
         21    1    1    2  502  501 -0.32715651474E+02 -0.13055530145E+02  0.14014264787E+02  0.37909897603E+02  0.00000000000E+00 0.  1.
<scales pt_clust_4="550.00000" pt_clust_5="550.00000" pt_clust_6="35.22443"></scales>
<mgrwt>
<rscale>  0 0.30000000E+03</rscale>
<asrwt>  1 0.35224434E+02</asrwt>
<pdfrwt beam="1">  1        1 0.82650261E+00 0.30000000E+03</pdfrwt>
<pdfrwt beam="2">0</pdfrwt>
<totfact> 0.63263144E-04</totfact>
</mgrwt>
<clustering>
<clus scale="   35.224">  1  6  2 -1</clus>
<clus scale="  458.908">  4  5 -1 -1</clus>
<clus scale="  300.000">  1  4  2 -1</clus>
</clustering>
</event>
<event>
 6    1  0.9678510E-012  0.3000000E+03  0.7818608E-02  0.1093470E+00
          1   -1    0    0  502    0  0.00000000000E+00  0.00000000000E+00  0.23811361180E+03  0.23811361180E+03  0.00000000000E+00 0.  1.
         13   -1    0    0    0    0 -0.00000000000E+00 -0.00000000000E+00 -0.27500000000E+03  0.27500000000E+03  0.00000000000E+00 0.  1.
    9000005    2    1    2  501    0  0.32582073203E+02  0.12850225441E+02 -0.48329723855E+02  0.47626704183E+03  0.47251223596E+03 0.  0.
         13    1    3    3    0    0 -0.42241433447E+02  0.23043627959E+03 -0.71672431692E+02  0.24499419405E+03  0.00000000000E+00 0.  1.
          3    1    3    3  501    0  0.74823506650E+02 -0.21758605415E+03  0.23342707837E+02  0.23127284778E+03  0.00000000000E+00 0.  1.
         21    1    1    2  502  501 -0.32582073203E+02 -0.12850225441E+02  0.11443335658E+02  0.36846569977E+02  0.00000000000E+00 0.  1.
<scales pt_clust_4="550.00000" pt_clust_5="550.00000" pt_clust_6="35.02456"></scales>
<mgrwt>
<rscale>  0 0.30000000E+03</rscale>
<asrwt>  1 0.35024560E+02</asrwt>
<pdfrwt beam="1">  1        1 0.86586768E+00 0.30000000E+03</pdfrwt>
<pdfrwt beam="2">0</pdfrwt>
<totfact> 0.27960842E-04</totfact>
</mgrwt>
<clustering>
<clus scale="   35.025">  1  6  2 -1</clus>
<clus scale="  472.512">  4  5 -1 -1</clus>
<clus scale="  300.000">  1  4  2 -1</clus>
</clustering>
</event>
<event>
 6    1  0.9678510E-012  0.3000000E+03  0.7818608E-02  0.1093470E+00
          1   -1    0    0  502    0  0.00000000000E+00  0.00000000000E+00  0.23489382116E+03  0.23489382116E+03  0.00000000000E+00 0.  1.
         13   -1    0    0    0    0 -0.00000000000E+00 -0.00000000000E+00 -0.27500000000E+03  0.27500000000E+03  0.00000000000E+00 0.  1.
    9000005    2    1    2  501    0  0.22429421791E+02 -0.41347372504E+02 -0.49811959242E+02  0.46186376445E+03  0.45675400540E+03 0.  0.
         13    1    3    3    0    0 -0.39502664652E+01  0.17136829398E+03  0.10175831205E+03  0.19934254653E+03  0.00000000000E+00 0.  1.
          3    1    3    3  501    0  0.26379688256E+02 -0.21271566648E+03 -0.15157027129E+03  0.26252121792E+03  0.00000000000E+00 0.  1.
         21    1    1    2  502  501 -0.22429421791E+02  0.41347372504E+02  0.97057804066E+01  0.48030056716E+02  0.00000000000E+00 0.  1.
<scales pt_clust_4="550.00000" pt_clust_5="550.00000" pt_clust_6="47.03918"></scales>
<mgrwt>
<rscale>  0 0.30000000E+03</rscale>
<asrwt>  1 0.47039177E+02</asrwt>
<pdfrwt beam="1">  1        1 0.85415935E+00 0.30000000E+03</pdfrwt>
<pdfrwt beam="2">0</pdfrwt>
<totfact> 0.35187704E-04</totfact>
</mgrwt>
<clustering>
<clus scale="   47.039">  1  6  2 -1</clus>
<clus scale="  456.754">  4  5 -1 -1</clus>
<clus scale="  300.000">  1  4  2 -1</clus>
</clustering>
</event>
<event>
 6    1  0.9678510E-012  0.3000000E+03  0.7818608E-02  0.1093470E+00
          1   -1    0    0  502    0  0.00000000000E+00  0.00000000000E+00  0.23659870886E+03  0.23659870886E+03  0.00000000000E+00 0.  1.
         13   -1    0    0    0    0 -0.00000000000E+00 -0.00000000000E+00 -0.27500000000E+03  0.27500000000E+03  0.00000000000E+00 0.  1.
    9000005    2    1    2  501    0  0.27980134036E+02  0.12617046855E+02 -0.63437779353E+02  0.47198932217E+03  0.46669850077E+03 0.  0.
         13    1    3    3    0    0 -0.20701983660E+03 -0.20571550888E+02 -0.10174312307E+03  0.23158597657E+03  0.00000000000E+00 0.  1.
          1    1    3    3  501    0  0.23499997064E+03  0.33188597743E+02  0.38305343712E+02  0.24040334560E+03  0.00000000000E+00 0.  1.
         21    1    1    2  502  501 -0.27980134036E+02 -0.12617046855E+02  0.25036488216E+02  0.39609386694E+02  0.00000000000E+00 0. -1.
<scales pt_clust_4="550.00000" pt_clust_5="550.00000" pt_clust_6="30.69329"></scales>
<mgrwt>
<rscale>  0 0.30000000E+03</rscale>
<asrwt>  1 0.30693285E+02</asrwt>
<pdfrwt beam="1">  1        1 0.86035894E+00 0.30000000E+03</pdfrwt>
<pdfrwt beam="2">0</pdfrwt>
<totfact> 0.32869103E-04</totfact>
</mgrwt>
<clustering>
<clus scale="   30.693">  1  6  2 -1</clus>
<clus scale="  466.699">  4  5 -1 -1</clus>
<clus scale="  300.000">  1  4  2 -1</clus>
</clustering>
</event>
<event>
 6    1  0.9678510E-012  0.3000000E+03  0.7818608E-02  0.1093470E+00
          1   -1    0    0  502    0  0.00000000000E+00  0.00000000000E+00  0.25485348998E+03  0.25485348998E+03  0.00000000000E+00 0.  1.
         13   -1    0    0    0    0 -0.00000000000E+00 -0.00000000000E+00 -0.27500000000E+03  0.27500000000E+03  0.00000000000E+00 0.  1.
    9000005    2    1    2  501    0  0.38678927620E+02 -0.37706537127E+01 -0.23330461287E+02  0.49086099305E+03  0.48876367173E+03 0.  0.
         13    1    3    3    0    0  0.34374312396E+02  0.12709390425E+03  0.19558834820E+03  0.23577373858E+03  0.00000000000E+00 0.  1.
          1    1    3    3  501    0  0.43046152236E+01 -0.13086455796E+03 -0.21891880949E+03  0.25508725447E+03  0.00000000000E+00 0.  1.
         21    1    1    2  502  501 -0.38678927620E+02  0.37706537127E+01  0.31839512640E+01  0.38992496931E+02  0.00000000000E+00 0. -1.
<scales pt_clust_4="550.00000" pt_clust_5="550.00000" pt_clust_6="38.86229"></scales>
<mgrwt>
<rscale>  0 0.30000000E+03</rscale>
<asrwt>  1 0.38862286E+02</asrwt>
<pdfrwt beam="1">  1        1 0.92673996E+00 0.30000000E+03</pdfrwt>
<pdfrwt beam="2">0</pdfrwt>
<totfact> 0.29614938E-05</totfact>
</mgrwt>
<clustering>
<clus scale="   38.862">  1  6  2 -1</clus>
<clus scale="  488.764">  4  5 -1 -1</clus>
<clus scale="  300.000">  1  4  2 -1</clus>
</clustering>
</event>
<event>
 6    1  0.9678510E-012  0.3000000E+03  0.7818608E-02  0.1093470E+00
          1   -1    0    0  502    0  0.00000000000E+00  0.00000000000E+00  0.22757150681E+03  0.22757150681E+03  0.00000000000E+00 0.  1.
         13   -1    0    0    0    0 -0.00000000000E+00 -0.00000000000E+00 -0.27500000000E+03  0.27500000000E+03  0.00000000000E+00 0.  1.
    9000005    2    1    2  501    0  0.33182885632E+02 -0.24795818147E+01 -0.49058120299E+02  0.46925622639E+03  0.46549699743E+03 0.  0.
         13    1    3    3    0    0  0.12610532842E+03  0.14615409198E+03  0.11871119455E+03  0.22661844622E+03  0.00000000000E+00 0.  1.
          3    1    3    3  501    0 -0.92922442783E+02 -0.14863367379E+03 -0.16776931485E+03  0.24263778017E+03  0.00000000000E+00 0.  1.
         21    1    1    2  502  501 -0.33182885632E+02  0.24795818147E+01  0.16296271065E+01  0.33315280418E+02  0.00000000000E+00 0.  1.
<scales pt_clust_4="550.00000" pt_clust_5="550.00000" pt_clust_6="33.27540"></scales>
<mgrwt>
<rscale>  0 0.30000000E+03</rscale>
<asrwt>  1 0.33275400E+02</asrwt>
<pdfrwt beam="1">  1        1 0.82753275E+00 0.30000000E+03</pdfrwt>
<pdfrwt beam="2">0</pdfrwt>
<totfact> 0.62623954E-04</totfact>
</mgrwt>
<clustering>
<clus scale="   33.275">  1  6  2 -1</clus>
<clus scale="  465.497">  4  5 -1 -1</clus>
<clus scale="  300.000">  1  4  2 -1</clus>
</clustering>
</event>
<event>
 6    1  0.9678510E-012  0.3000000E+03  0.7818608E-02  0.1093470E+00
          1   -1    0    0  502    0  0.00000000000E+00  0.00000000000E+00  0.22888375687E+03  0.22888375687E+03  0.00000000000E+00 0.  1.
         13   -1    0    0    0    0 -0.00000000000E+00 -0.00000000000E+00 -0.27500000000E+03  0.27500000000E+03  0.00000000000E+00 0.  1.
    9000005    2    1    2  501    0  0.32168658403E+02 -0.94880739683E+01 -0.60275609252E+02  0.46747862289E+03  0.46236162001E+03 0.  0.
         13    1    3    3    0    0 -0.14049608225E+03  0.50393391233E+02 -0.19127723084E+03  0.24262238571E+03  0.00000000000E+00 0.  1.
          1    1    3    3  501    0  0.17266474066E+03 -0.59881465201E+02  0.13100162159E+03  0.22485623718E+03  0.00000000000E+00 0.  1.
         21    1    1    2  502  501 -0.32168658403E+02  0.94880739683E+01  0.14159366118E+02  0.36405133978E+02  0.00000000000E+00 0.  1.
<scales pt_clust_4="550.00000" pt_clust_5="550.00000" pt_clust_6="33.53873"></scales>
<mgrwt>
<rscale>  0 0.30000000E+03</rscale>
<asrwt>  1 0.33538726E+02</asrwt>
<pdfrwt beam="1">  1        1 0.83230457E+00 0.30000000E+03</pdfrwt>
<pdfrwt beam="2">0</pdfrwt>
<totfact> 0.57117094E-04</totfact>
</mgrwt>
<clustering>
<clus scale="   33.539">  1  6  2 -1</clus>
<clus scale="  462.362">  4  5 -1 -1</clus>
<clus scale="  300.000">  1  4  2 -1</clus>
</clustering>
</event>
<event>
 6    1  0.9678510E-012  0.3000000E+03  0.7818608E-02  0.1093470E+00
          1   -1    0    0  502    0  0.00000000000E+00  0.00000000000E+00  0.22626840325E+03  0.22626840325E+03  0.00000000000E+00 0.  1.
         13   -1    0    0    0    0 -0.00000000000E+00 -0.00000000000E+00 -0.27500000000E+03  0.27500000000E+03  0.00000000000E+00 0.  1.
    9000005    2    1    2  501    0 -0.27042793100E+02  0.13588445133E+02 -0.43943865039E+02  0.47062724018E+03  0.46759274740E+03 0.  0.
         13    1    3    3    0    0  0.21848363454E+03  0.78400764429E+01 -0.52667284713E+02  0.22487865226E+03  0.00000000000E+00 0.  1.
          1    1    3    3  501    0 -0.24552642764E+03  0.57483686900E+01  0.87234196741E+01  0.24574858792E+03  0.00000000000E+00 0.  1.
         21    1    1    2  502  501  0.27042793100E+02 -0.13588445133E+02 -0.47877317064E+01  0.30641163076E+02  0.00000000000E+00 0.  1.
<scales pt_clust_4="550.00000" pt_clust_5="550.00000" pt_clust_6="30.26482"></scales>
<mgrwt>
<rscale>  0 0.30000000E+03</rscale>
<asrwt>  1 0.30264821E+02</asrwt>
<pdfrwt beam="1">  1        1 0.82279419E+00 0.30000000E+03</pdfrwt>
<pdfrwt beam="2">0</pdfrwt>
<totfact> 0.70257707E-04</totfact>
</mgrwt>
<clustering>
<clus scale="   30.265">  1  6  2 -1</clus>
<clus scale="  467.593">  4  5 -1 -1</clus>
<clus scale="  300.000">  1  4  2 -1</clus>
</clustering>
</event>
<event>
 6    1  0.9678510E-012  0.3000000E+03  0.7818608E-02  0.1093470E+00
          1   -1    0    0  502    0  0.00000000000E+00  0.00000000000E+00  0.24938382021E+03  0.24938382021E+03  0.00000000000E+00 0.  1.
         13   -1    0    0    0    0 -0.00000000000E+00 -0.00000000000E+00 -0.27500000000E+03  0.27500000000E+03  0.00000000000E+00 0.  1.
    9000005    2    1    2  501    0  0.13368612731E+02 -0.30696996081E+02 -0.40638778566E+02  0.48768635642E+03  0.48483548399E+03 0.  0.
         13    1    3    3    0    0  0.15749648199E+03  0.17456210062E+03 -0.15454748075E+02  0.23561816155E+03  0.00000000000E+00 0.  1.
          3    1    3    3  501    0 -0.14412786926E+03 -0.20525909670E+03 -0.25184030491E+02  0.25206819487E+03  0.00000000000E+00 0.  1.
         21    1    1    2  502  501 -0.13368612731E+02  0.30696996081E+02  0.15022598776E+02  0.36697463791E+02  0.00000000000E+00 0.  1.
<scales pt_clust_4="550.00000" pt_clust_5="550.00000" pt_clust_6="33.48172"></scales>
<mgrwt>
<rscale>  0 0.30000000E+03</rscale>
<asrwt>  1 0.33481717E+02</asrwt>
<pdfrwt beam="1">  1        1 0.90685026E+00 0.30000000E+03</pdfrwt>
<pdfrwt beam="2">0</pdfrwt>
<totfact> 0.85576713E-05</totfact>
</mgrwt>
<clustering>
<clus scale="   33.482">  1  6  2 -1</clus>
<clus scale="  484.835">  4  5 -1 -1</clus>
<clus scale="  300.000">  1  4  2 -1</clus>
</clustering>
</event>
<event>
 6    1  0.9678510E-012  0.3000000E+03  0.7818608E-02  0.1093470E+00
          1   -1    0    0  502    0  0.00000000000E+00  0.00000000000E+00  0.22350266296E+03  0.22350266296E+03  0.00000000000E+00 0.  1.
         13   -1    0    0    0    0 -0.00000000000E+00 -0.00000000000E+00 -0.27500000000E+03  0.27500000000E+03  0.00000000000E+00 0.  1.
    9000005    2    1    2  501    0 -0.21781051030E+02 -0.20735620640E+02 -0.61968748685E+02  0.46665881569E+03  0.46154733701E+03 0.  0.
         13    1    3    3    0    0  0.11330985471E+03 -0.63191274277E+01  0.16611456173E+03  0.20117927866E+03  0.00000000000E+00 0.  1.
          3    1    3    3  501    0 -0.13509090574E+03 -0.14416493212E+02 -0.22808331041E+03  0.26547953702E+03  0.00000000000E+00 0.  1.
         21    1    1    2  502  501  0.21781051030E+02  0.20735620640E+02  0.10471411647E+02  0.31843847273E+02  0.00000000000E+00 0.  1.
<scales pt_clust_4="550.00000" pt_clust_5="550.00000" pt_clust_6="30.07291"></scales>
<mgrwt>
<rscale>  0 0.30000000E+03</rscale>
<asrwt>  1 0.30072914E+02</asrwt>
<pdfrwt beam="1">  1        1 0.81273696E+00 0.30000000E+03</pdfrwt>
<pdfrwt beam="2">0</pdfrwt>
<totfact> 0.85420721E-04</totfact>
</mgrwt>
<clustering>
<clus scale="   30.073">  1  6  2 -1</clus>
<clus scale="  461.547">  4  5 -1 -1</clus>
<clus scale="  300.000">  1  4  2 -1</clus>
</clustering>
</event>
<event>
 6    1  0.9678510E-012  0.3000000E+03  0.7818608E-02  0.1093470E+00
          1   -1    0    0  502    0  0.00000000000E+00  0.00000000000E+00  0.23024972207E+03  0.23024972207E+03  0.00000000000E+00 0.  1.
         13   -1    0    0    0    0 -0.00000000000E+00 -0.00000000000E+00 -0.27500000000E+03  0.27500000000E+03  0.00000000000E+00 0.  1.
    9000005    2    1    2  501    0 -0.32449281339E+02  0.17874172648E+02 -0.49227402329E+02  0.46793368597E+03  0.46386006017E+03 0.  0.
         13    1    3    3    0    0 -0.12050030051E+03 -0.10973114573E+03 -0.19568167627E+03  0.25466166809E+03  0.00000000000E+00 0.  1.
          1    1    3    3  501    0  0.88051019171E+02  0.12760531838E+03  0.14645427394E+03  0.21327201788E+03  0.00000000000E+00 0.  1.
         21    1    1    2  502  501  0.32449281339E+02 -0.17874172648E+02  0.44771243991E+01  0.37316036099E+02  0.00000000000E+00 0. -1.
<scales pt_clust_4="550.00000" pt_clust_5="550.00000" pt_clust_6="37.04648"></scales>
<mgrwt>
<rscale>  0 0.30000000E+03</rscale>
<asrwt>  1 0.37046483E+02</asrwt>
<pdfrwt beam="1">  1        1 0.83727172E+00 0.30000000E+03</pdfrwt>
<pdfrwt beam="2">0</pdfrwt>
<totfact> 0.51533555E-04</totfact>
</mgrwt>
<clustering>
<clus scale="   37.046">  1  6  2 -1</clus>
<clus scale="  463.860">  4  5 -1 -1</clus>
<clus scale="  300.000">  1  4  2 -1</clus>
</clustering>
</event>
<event>
 6    1  0.9678510E-012  0.3000000E+03  0.7818608E-02  0.1093470E+00
          1   -1    0    0  502    0  0.00000000000E+00  0.00000000000E+00  0.23479774300E+03  0.23479774300E+03  0.00000000000E+00 0.  1.
         13   -1    0    0    0    0 -0.00000000000E+00 -0.00000000000E+00 -0.27500000000E+03  0.27500000000E+03  0.00000000000E+00 0.  1.
    9000005    2    1    2  501    0 -0.25950228328E+02 -0.23556169625E+02 -0.39137238762E+02  0.47473434697E+03  0.47181847066E+03 0.  0.
         13    1    3    3    0    0  0.17007571198E+03  0.13786399000E+03 -0.10431442786E+02  0.21918266935E+03  0.00000000000E+00 0.  1.
          1    1    3    3  501    0 -0.19602594031E+03 -0.16142015963E+03 -0.28705795975E+02  0.25555167761E+03  0.00000000000E+00 0.  1.
         21    1    1    2  502  501  0.25950228328E+02  0.23556169625E+02 -0.10650182371E+01  0.35063396035E+02  0.00000000000E+00 0.  1.
<scales pt_clust_4="550.00000" pt_clust_5="550.00000" pt_clust_6="35.04722"></scales>
<mgrwt>
<rscale>  0 0.30000000E+03</rscale>
<asrwt>  1 0.35047218E+02</asrwt>
<pdfrwt beam="1">  1        1 0.85380997E+00 0.30000000E+03</pdfrwt>
<pdfrwt beam="2">0</pdfrwt>
<totfact> 0.37415571E-04</totfact>
</mgrwt>
<clustering>
<clus scale="   35.047">  1  6  2 -1</clus>
<clus scale="  471.818">  4  5 -1 -1</clus>
<clus scale="  300.000">  1  4  2 -1</clus>
</clustering>
</event>
<event>
 6    1  0.9678510E-012  0.3000000E+03  0.7818608E-02  0.1093470E+00
          1   -1    0    0  502    0  0.00000000000E+00  0.00000000000E+00  0.24511651155E+03  0.24511651155E+03  0.00000000000E+00 0.  1.
         13   -1    0    0    0    0 -0.00000000000E+00 -0.00000000000E+00 -0.27500000000E+03  0.27500000000E+03  0.00000000000E+00 0.  1.
    9000005    2    1    2  501    0 -0.27691276593E+02 -0.16815932980E+02 -0.50154683710E+02  0.48189997379E+03  0.47818668952E+03 0.  0.
         13    1    3    3    0    0 -0.66744110712E+02  0.22474099552E+03 -0.18576232662E+02  0.23517731141E+03  0.00000000000E+00 0.  1.
          1    1    3    3  501    0  0.39052834119E+02 -0.24155692850E+03 -0.31578451048E+02  0.24672266238E+03  0.00000000000E+00 0.  1.
         21    1    1    2  502  501  0.27691276593E+02  0.16815932980E+02  0.20271195263E+02  0.38216537765E+02  0.00000000000E+00 0.  1.
<scales pt_clust_4="550.00000" pt_clust_5="550.00000" pt_clust_6="32.39726"></scales>
<mgrwt>
<rscale>  0 0.30000000E+03</rscale>
<asrwt>  1 0.32397259E+02</asrwt>
<pdfrwt beam="1">  1        1 0.89133277E+00 0.30000000E+03</pdfrwt>
<pdfrwt beam="2">0</pdfrwt>
<totfact> 0.14133000E-04</totfact>
</mgrwt>
<clustering>
<clus scale="   32.397">  1  6  2 -1</clus>
<clus scale="  478.187">  4  5 -1 -1</clus>
<clus scale="  300.000">  1  4  2 -1</clus>
</clustering>
</event>
<event>
 6    1  0.9678510E-012  0.3000000E+03  0.7818608E-02  0.1093470E+00
          1   -1    0    0  502    0  0.00000000000E+00  0.00000000000E+00  0.24836922393E+03  0.24836922393E+03  0.00000000000E+00 0.  1.
         13   -1    0    0    0    0 -0.00000000000E+00 -0.00000000000E+00 -0.27500000000E+03  0.27500000000E+03  0.00000000000E+00 0.  1.
    9000005    2    1    2  501    0 -0.10123876011E+02 -0.30862300847E+02 -0.36143069350E+02  0.48952460541E+03  0.48710680899E+03 0.  0.
         13    1    3    3    0    0 -0.12958930197E+03 -0.17868211977E+02  0.19161367756E+03  0.23200961535E+03  0.00000000000E+00 0.  1.
          1    1    3    3  501    0  0.11946542596E+03 -0.12994088870E+02 -0.22775674691E+03  0.25751499007E+03  0.00000000000E+00 0.  1.
         21    1    1    2  502  501  0.10123876011E+02  0.30862300847E+02  0.95122932762E+01  0.33844618515E+02  0.00000000000E+00 0.  1.
<scales pt_clust_4="550.00000" pt_clust_5="550.00000" pt_clust_6="32.48037"></scales>
<mgrwt>
<rscale>  0 0.30000000E+03</rscale>
<asrwt>  1 0.32480371E+02</asrwt>
<pdfrwt beam="1">  1        1 0.90316081E+00 0.30000000E+03</pdfrwt>
<pdfrwt beam="2">0</pdfrwt>
<totfact> 0.10102833E-04</totfact>
</mgrwt>
<clustering>
<clus scale="   32.480">  1  6  2 -1</clus>
<clus scale="  487.107">  4  5 -1 -1</clus>
<clus scale="  300.000">  1  4  2 -1</clus>
</clustering>
</event>
<event>
 6    1  0.9678510E-012  0.3000000E+03  0.7818608E-02  0.1093470E+00
          1   -1    0    0  502    0  0.00000000000E+00  0.00000000000E+00  0.23057978237E+03  0.23057978237E+03  0.00000000000E+00 0.  1.
         13   -1    0    0    0    0 -0.00000000000E+00 -0.00000000000E+00 -0.27500000000E+03  0.27500000000E+03  0.00000000000E+00 0.  1.
    9000005    2    1    2  501    0 -0.29306740561E+02 -0.73393007277E+01 -0.73135212053E+02  0.46389883610E+03  0.45710023027E+03 0.  0.
         13    1    3    3    0    0 -0.11761625394E+02 -0.21725972301E+03 -0.11945668546E+03  0.24821366355E+03  0.00000000000E+00 0.  1.
          3    1    3    3  501    0 -0.17545115167E+02  0.20992042228E+03  0.46321473407E+02  0.21568517254E+03  0.00000000000E+00 0.  1.
         21    1    1    2  502  501  0.29306740561E+02  0.73393007277E+01  0.28714994419E+02  0.41680946270E+02  0.00000000000E+00 0. -1.
<scales pt_clust_4="550.00000" pt_clust_5="550.00000" pt_clust_6="30.21176"></scales>
<mgrwt>
<rscale>  0 0.30000000E+03</rscale>
<asrwt>  1 0.30211759E+02</asrwt>
<pdfrwt beam="1">  1        1 0.83847194E+00 0.30000000E+03</pdfrwt>
<pdfrwt beam="2">0</pdfrwt>
<totfact> 0.52480993E-04</totfact>
</mgrwt>
<clustering>
<clus scale="   30.212">  1  6  2 -1</clus>
<clus scale="  457.100">  4  5 -1 -1</clus>
<clus scale="  300.000">  1  4  2 -1</clus>
</clustering>
</event>
<event>
 6    1  0.9678510E-012  0.3000000E+03  0.7818608E-02  0.1093470E+00
          1   -1    0    0  502    0  0.00000000000E+00  0.00000000000E+00  0.22169888026E+03  0.22169888026E+03  0.00000000000E+00 0.  1.
         13   -1    0    0    0    0 -0.00000000000E+00 -0.00000000000E+00 -0.27500000000E+03  0.27500000000E+03  0.00000000000E+00 0.  1.
    9000005    2    1    2  501    0 -0.34283910561E+02  0.39357586660E+01 -0.50512485933E+02  0.46207730898E+03  0.45800988146E+03 0.  0.
         13    1    3    3    0    0 -0.70137682847E+02  0.36490219335E+02 -0.24718963593E+03  0.25952561872E+03  0.00000000000E+00 0.  1.
          3    1    3    3  501    0  0.35853772285E+02 -0.32554460669E+02  0.19667714999E+03  0.20255169026E+03  0.00000000000E+00 0.  1.
         21    1    1    2  502  501  0.34283910561E+02 -0.39357586660E+01 -0.27886338034E+01  0.34621571284E+02  0.00000000000E+00 0.  1.
<scales pt_clust_4="550.00000" pt_clust_5="550.00000" pt_clust_6="34.50908"></scales>
<mgrwt>
<rscale>  0 0.30000000E+03</rscale>
<asrwt>  1 0.34509082E+02</asrwt>
<pdfrwt beam="1">  1        1 0.80617775E+00 0.30000000E+03</pdfrwt>
<pdfrwt beam="2">0</pdfrwt>
<totfact> 0.93592476E-04</totfact>
</mgrwt>
<clustering>
<clus scale="   34.509">  1  6  2 -1</clus>
<clus scale="  458.010">  4  5 -1 -1</clus>
<clus scale="  300.000">  1  4  2 -1</clus>
</clustering>
</event>
<event>
 6    1  0.9678510E-012  0.3000000E+03  0.7818608E-02  0.1093470E+00
          1   -1    0    0  502    0  0.00000000000E+00  0.00000000000E+00  0.24207778439E+03  0.24207778439E+03  0.00000000000E+00 0.  1.
         13   -1    0    0    0    0 -0.00000000000E+00 -0.00000000000E+00 -0.27500000000E+03  0.27500000000E+03  0.00000000000E+00 0.  1.
    9000005    2    1    2  501    0 -0.37469179975E+02  0.24105840315E+02 -0.23765630424E+02  0.47159290737E+03  0.46888168455E+03 0.  0.
         13    1    3    3    0    0 -0.13626166131E+03  0.34625186269E+02  0.18971207385E+03  0.23612880983E+03  0.00000000000E+00 0.  1.
          3    1    3    3  501    0  0.98792481337E+02 -0.10519345955E+02 -0.21347770427E+03  0.23546409754E+03  0.00000000000E+00 0.  1.
         21    1    1    2  502  501  0.37469179975E+02 -0.24105840315E+02 -0.91565851847E+01  0.45484877020E+02  0.00000000000E+00 0.  1.
<scales pt_clust_4="550.00000" pt_clust_5="550.00000" pt_clust_6="44.55371"></scales>
<mgrwt>
<rscale>  0 0.30000000E+03</rscale>
<asrwt>  1 0.44553709E+02</asrwt>
<pdfrwt beam="1">  1        1 0.88028285E+00 0.30000000E+03</pdfrwt>
<pdfrwt beam="2">0</pdfrwt>
<totfact> 0.18733569E-04</totfact>
</mgrwt>
<clustering>
<clus scale="   44.554">  1  6  2 -1</clus>
<clus scale="  468.882">  4  5 -1 -1</clus>
<clus scale="  300.000">  1  4  2 -1</clus>
</clustering>
</event>
<event>
 6    1  0.9678510E-012  0.3000000E+03  0.7818608E-02  0.1093470E+00
          1   -1    0    0  502    0  0.00000000000E+00  0.00000000000E+00  0.24021319306E+03  0.24021319306E+03  0.00000000000E+00 0.  1.
         13   -1    0    0    0    0 -0.00000000000E+00 -0.00000000000E+00 -0.27500000000E+03  0.27500000000E+03  0.00000000000E+00 0.  1.
    9000005    2    1    2  501    0 -0.31514204038E+02 -0.14504137888E+02 -0.67225166261E+02  0.46771832779E+03  0.46156006770E+03 0.  0.
         13    1    3    3    0    0  0.26290867811E+02 -0.82013972986E+02 -0.25003320140E+03  0.26445056872E+03  0.00000000000E+00 0.  1.
          3    1    3    3  501    0 -0.57805071849E+02  0.67509835097E+02  0.18280803513E+03  0.20326775907E+03  0.00000000000E+00 0.  1.
         21    1    1    2  502  501  0.31514204038E+02  0.14504137888E+02  0.32438359323E+02  0.47494865276E+02  0.00000000000E+00 0. -1.
<scales pt_clust_4="550.00000" pt_clust_5="550.00000" pt_clust_6="34.69171"></scales>
<mgrwt>
<rscale>  0 0.30000000E+03</rscale>
<asrwt>  1 0.34691715E+02</asrwt>
<pdfrwt beam="1">  1        1 0.87350252E+00 0.30000000E+03</pdfrwt>
<pdfrwt beam="2">0</pdfrwt>
<totfact> 0.23356703E-04</totfact>
</mgrwt>
<clustering>
<clus scale="   34.692">  1  6  2 -1</clus>
<clus scale="  461.560">  4  5 -1 -1</clus>
<clus scale="  300.000">  1  4  2 -1</clus>
</clustering>
</event>
<event>
 6    1  0.9678510E-012  0.3000000E+03  0.7818608E-02  0.1093470E+00
          1   -1    0    0  502    0  0.00000000000E+00  0.00000000000E+00  0.24137118214E+03  0.24137118214E+03  0.00000000000E+00 0.  1.
         13   -1    0    0    0    0 -0.00000000000E+00 -0.00000000000E+00 -0.27500000000E+03  0.27500000000E+03  0.00000000000E+00 0.  1.
    9000005    2    1    2  501    0  0.60633047117E+01  0.33397970153E+02 -0.71302133712E+02  0.46566154990E+03  0.45891665552E+03 0.  0.
         13    1    3    3    0    0  0.15267068798E+03  0.18523093661E+03  0.80546827862E+01  0.24017434659E+03  0.00000000000E+00 0.  1.
          1    1    3    3  501    0 -0.14660738327E+03 -0.15183296645E+03 -0.79356816499E+02  0.22548720331E+03  0.00000000000E+00 0.  1.
         21    1    1    2  502  501 -0.60633047117E+01 -0.33397970153E+02  0.37673315848E+02  0.50709632235E+02  0.00000000000E+00 0. -1.
<scales pt_clust_4="550.00000" pt_clust_5="550.00000" pt_clust_6="33.94390"></scales>
<mgrwt>
<rscale>  0 0.30000000E+03</rscale>
<asrwt>  1 0.33943896E+02</asrwt>
<pdfrwt beam="1">  1        1 0.87771339E+00 0.30000000E+03</pdfrwt>
<pdfrwt beam="2">0</pdfrwt>
<totfact> 0.21128936E-04</totfact>
</mgrwt>
<clustering>
<clus scale="   33.944">  1  6  2 -1</clus>
<clus scale="  458.917">  4  5 -1 -1</clus>
<clus scale="  300.000">  1  4  2 -1</clus>
</clustering>
</event>
<event>
 6    1  0.9678510E-012  0.3000000E+03  0.7818608E-02  0.1093470E+00
          1   -1    0    0  502    0  0.00000000000E+00  0.00000000000E+00  0.23915431027E+03  0.23915431027E+03  0.00000000000E+00 0.  1.
         13   -1    0    0    0    0 -0.00000000000E+00 -0.00000000000E+00 -0.27500000000E+03  0.27500000000E+03  0.00000000000E+00 0.  1.
    9000005    2    1    2  501    0 -0.86594525179E+01  0.33068600165E+02 -0.69828083972E+02  0.46595346429E+03  0.45942153970E+03 0.  0.
         13    1    3    3    0    0  0.39927739732E+01 -0.20475170918E+03 -0.96351233466E+02  0.22632446807E+03  0.00000000000E+00 0.  1.
          3    1    3    3  501    0 -0.12652226491E+02  0.23782030934E+03  0.26523149493E+02  0.23962899622E+03  0.00000000000E+00 0.  1.
         21    1    1    2  502  501  0.86594525179E+01 -0.33068600165E+02  0.33982394239E+02  0.48200845978E+02  0.00000000000E+00 0.  1.
<scales pt_clust_4="550.00000" pt_clust_5="550.00000" pt_clust_6="34.18360"></scales>
<mgrwt>
<rscale>  0 0.30000000E+03</rscale>
<asrwt>  1 0.34183599E+02</asrwt>
<pdfrwt beam="1">  1        1 0.86965204E+00 0.30000000E+03</pdfrwt>
<pdfrwt beam="2">0</pdfrwt>
<totfact> 0.25646874E-04</totfact>
</mgrwt>
<clustering>
<clus scale="   34.184">  1  6  2 -1</clus>
<clus scale="  459.422">  4  5 -1 -1</clus>
<clus scale="  300.000">  1  4  2 -1</clus>
</clustering>
</event>
<event>
 6    1  0.9678510E-012  0.3000000E+03  0.7818608E-02  0.1093470E+00
          1   -1    0    0  502    0  0.00000000000E+00  0.00000000000E+00  0.23500564093E+03  0.23500564093E+03  0.00000000000E+00 0.  1.
         13   -1    0    0    0    0 -0.00000000000E+00 -0.00000000000E+00 -0.27500000000E+03  0.27500000000E+03  0.00000000000E+00 0.  1.
    9000005    2    1    2  501    0  0.68334450871E+01  0.30365864717E+02 -0.54210570860E+02  0.47578748216E+03  0.47166318542E+03 0.  0.
         13    1    3    3    0    0  0.19251488645E+03 -0.31304876126E+02 -0.16097978154E+03  0.25289615821E+03  0.00000000000E+00 0.  1.
          1    1    3    3  501    0 -0.18568144136E+03  0.61670740844E+02  0.10676921068E+03  0.22289132395E+03  0.00000000000E+00 0.  1.
         21    1    1    2  502  501 -0.68334450871E+01 -0.30365864717E+02  0.14216211788E+02  0.34218158767E+02  0.00000000000E+00 0.  1.
<scales pt_clust_4="550.00000" pt_clust_5="550.00000" pt_clust_6="31.12526"></scales>
<mgrwt>
<rscale>  0 0.30000000E+03</rscale>
<asrwt>  1 0.31125258E+02</asrwt>
<pdfrwt beam="1">  1        1 0.85456597E+00 0.30000000E+03</pdfrwt>
<pdfrwt beam="2">0</pdfrwt>
<totfact> 0.37620339E-04</totfact>
</mgrwt>
<clustering>
<clus scale="   31.125">  1  6  2 -1</clus>
<clus scale="  471.663">  4  5 -1 -1</clus>
<clus scale="  300.000">  1  4  2 -1</clus>
</clustering>
</event>
<event>
 6    1  0.9678510E-012  0.3000000E+03  0.7818608E-02  0.1093470E+00
          1   -1    0    0  502    0  0.00000000000E+00  0.00000000000E+00  0.22253662295E+03  0.22253662295E+03  0.00000000000E+00 0.  1.
         13   -1    0    0    0    0 -0.00000000000E+00 -0.00000000000E+00 -0.27500000000E+03  0.27500000000E+03  0.00000000000E+00 0.  1.
    9000005    2    1    2  501    0  0.14832250256E+02 -0.29170000539E+02 -0.43980301739E+02  0.46373060061E+03  0.46047900975E+03 0.  0.
         13    1    3    3    0    0 -0.58283094114E+02 -0.16843899454E+02 -0.24346581882E+03  0.25091082269E+03  0.00000000000E+00 0.  1.
          3    1    3    3  501    0  0.73115344370E+02 -0.12326101086E+02  0.19948551708E+03  0.21281977792E+03  0.00000000000E+00 0.  1.
         21    1    1    2  502  501 -0.14832250256E+02  0.29170000539E+02 -0.84830753156E+01  0.33806022332E+02  0.00000000000E+00 0. -1.
<scales pt_clust_4="550.00000" pt_clust_5="550.00000" pt_clust_6="32.72439"></scales>
<mgrwt>
<rscale>  0 0.30000000E+03</rscale>
<asrwt>  1 0.32724389E+02</asrwt>
<pdfrwt beam="1">  1        1 0.80922408E+00 0.30000000E+03</pdfrwt>
<pdfrwt beam="2">0</pdfrwt>
<totfact> 0.89561311E-04</totfact>
</mgrwt>
<clustering>
<clus scale="   32.724">  1  6  2 -1</clus>
<clus scale="  460.479">  4  5 -1 -1</clus>
<clus scale="  300.000">  1  4  2 -1</clus>
</clustering>
</event>
<event>
 6    1  0.9678510E-012  0.3000000E+03  0.7818608E-02  0.1093470E+00
          1   -1    0    0  502    0  0.00000000000E+00  0.00000000000E+00  0.22832816428E+03  0.22832816428E+03  0.00000000000E+00 0.  1.
         13   -1    0    0    0    0 -0.00000000000E+00 -0.00000000000E+00 -0.27500000000E+03  0.27500000000E+03  0.00000000000E+00 0.  1.
    9000005    2    1    2  501    0 -0.26548082422E+01 -0.30856481374E+02 -0.36317495618E+02  0.47067264700E+03  0.46824631306E+03 0.  0.
         13    1    3    3    0    0  0.21526294931E+03  0.30112324439E+02 -0.94520827095E+02  0.23702125682E+03  0.00000000000E+00 0.  1.
          1    1    3    3  501    0 -0.21791775755E+03 -0.60968805813E+02  0.58203331477E+02  0.23365139018E+03  0.00000000000E+00 0.  1.
         21    1    1    2  502  501  0.26548082422E+01  0.30856481374E+02 -0.10354340104E+02  0.32655517276E+02  0.00000000000E+00 0. -1.
<scales pt_clust_4="550.00000" pt_clust_5="550.00000" pt_clust_6="30.97049"></scales>
<mgrwt>
<rscale>  0 0.30000000E+03</rscale>
<asrwt>  1 0.30970493E+02</asrwt>
<pdfrwt beam="1">  1        1 0.83028423E+00 0.30000000E+03</pdfrwt>
<pdfrwt beam="2">0</pdfrwt>
<totfact> 0.60160496E-04</totfact>
</mgrwt>
<clustering>
<clus scale="   30.970">  1  6  2 -1</clus>
<clus scale="  468.246">  4  5 -1 -1</clus>
<clus scale="  300.000">  1  4  2 -1</clus>
</clustering>
</event>
<event>
 6    1  0.9678510E-012  0.3000000E+03  0.7818608E-02  0.1093470E+00
          1   -1    0    0  502    0  0.00000000000E+00  0.00000000000E+00  0.23981751502E+03  0.23981751502E+03  0.00000000000E+00 0.  1.
         13   -1    0    0    0    0 -0.00000000000E+00 -0.00000000000E+00 -0.27500000000E+03  0.27500000000E+03  0.00000000000E+00 0.  1.
    9000005    2    1    2  501    0  0.18244264499E+02 -0.25703806755E+02 -0.55597970743E+02  0.47726314207E+03  0.47296451617E+03 0.  0.
         13    1    3    3    0    0 -0.20956432038E+03  0.65923396713E+02  0.19338245802E+02  0.22053812905E+03  0.00000000000E+00 0.  1.
          3    1    3    3  501    0  0.22780858488E+03 -0.91627203469E+02 -0.74936216546E+02  0.25672501302E+03  0.00000000000E+00 0.  1.
         21    1    1    2  502  501 -0.18244264499E+02  0.25703806755E+02  0.20415485765E+02  0.37554372953E+02  0.00000000000E+00 0.  1.
<scales pt_clust_4="550.00000" pt_clust_5="550.00000" pt_clust_6="31.52045"></scales>
<mgrwt>
<rscale>  0 0.30000000E+03</rscale>
<asrwt>  1 0.31520452E+02</asrwt>
<pdfrwt beam="1">  1        1 0.87206369E+00 0.30000000E+03</pdfrwt>
<pdfrwt beam="2">0</pdfrwt>
<totfact> 0.24607419E-04</totfact>
</mgrwt>
<clustering>
<clus scale="   31.520">  1  6  2 -1</clus>
<clus scale="  472.965">  4  5 -1 -1</clus>
<clus scale="  300.000">  1  4  2 -1</clus>
</clustering>
</event>
<event>
 6    1  0.9678510E-012  0.3000000E+03  0.7818608E-02  0.1093470E+00
          1   -1    0    0  502    0  0.00000000000E+00  0.00000000000E+00  0.23996736063E+03  0.23996736063E+03  0.00000000000E+00 0.  1.
         13   -1    0    0    0    0 -0.00000000000E+00 -0.00000000000E+00 -0.27500000000E+03  0.27500000000E+03  0.00000000000E+00 0.  1.
    9000005    2    1    2  501    0  0.22331602383E+02  0.22007935968E+02 -0.48091068285E+02  0.48100308121E+03  0.47756482657E+03 0.  0.
         13    1    3    3    0    0 -0.75719551938E+02 -0.12168363046E+02 -0.24590814168E+03  0.25758946747E+03  0.00000000000E+00 0.  1.
          3    1    3    3  501    0  0.98051154321E+02  0.34176299013E+02  0.19781707340E+03  0.22341361374E+03  0.00000000000E+00 0.  1.
         21    1    1    2  502  501 -0.22331602383E+02 -0.22007935968E+02  0.13058428912E+02  0.33964279415E+02  0.00000000000E+00 0.  1.
<scales pt_clust_4="550.00000" pt_clust_5="550.00000" pt_clust_6="31.35362"></scales>
<mgrwt>
<rscale>  0 0.30000000E+03</rscale>
<asrwt>  1 0.31353624E+02</asrwt>
<pdfrwt beam="1">  1        1 0.87260858E+00 0.30000000E+03</pdfrwt>
<pdfrwt beam="2">0</pdfrwt>
<totfact> 0.24317869E-04</totfact>
</mgrwt>
<clustering>
<clus scale="   31.354">  1  6  2 -1</clus>
<clus scale="  477.565">  4  5 -1 -1</clus>
<clus scale="  300.000">  1  4  2 -1</clus>
</clustering>
</event>
<event>
 6    1  0.9678510E-012  0.3000000E+03  0.7818608E-02  0.1093470E+00
          1   -1    0    0  502    0  0.00000000000E+00  0.00000000000E+00  0.23006513803E+03  0.23006513803E+03  0.00000000000E+00 0.  1.
         13   -1    0    0    0    0 -0.00000000000E+00 -0.00000000000E+00 -0.27500000000E+03  0.27500000000E+03  0.00000000000E+00 0.  1.
    9000005    2    1    2  501    0  0.29305960289E+02 -0.24213910392E+02 -0.55513623309E+02  0.46560550097E+03  0.46071853381E+03 0.  0.
         13    1    3    3    0    0 -0.12250518472E+03  0.11044970904E+02 -0.21177723020E+03  0.24490632269E+03  0.00000000000E+00 0.  1.
          3    1    3    3  501    0  0.15181114500E+03 -0.35258881297E+02  0.15626360689E+03  0.22069917828E+03  0.00000000000E+00 0.  1.
         21    1    1    2  502  501 -0.29305960289E+02  0.24213910392E+02  0.10578761336E+02  0.39459637053E+02  0.00000000000E+00 0.  1.
<scales pt_clust_4="550.00000" pt_clust_5="550.00000" pt_clust_6="38.01516"></scales>
<mgrwt>
<rscale>  0 0.30000000E+03</rscale>
<asrwt>  1 0.38015165E+02</asrwt>
<pdfrwt beam="1">  1        1 0.83660050E+00 0.30000000E+03</pdfrwt>
<pdfrwt beam="2">0</pdfrwt>
<totfact> 0.51867730E-04</totfact>
</mgrwt>
<clustering>
<clus scale="   38.015">  1  6  2 -1</clus>
<clus scale="  460.719">  4  5 -1 -1</clus>
<clus scale="  300.000">  1  4  2 -1</clus>
</clustering>
</event>
<event>
 6    1  0.9678510E-012  0.3000000E+03  0.7818608E-02  0.1093470E+00
          1   -1    0    0  502    0  0.00000000000E+00  0.00000000000E+00  0.25173571836E+03  0.25173571836E+03  0.00000000000E+00 0.  1.
         13   -1    0    0    0    0 -0.00000000000E+00 -0.00000000000E+00 -0.27500000000E+03  0.27500000000E+03  0.00000000000E+00 0.  1.
    9000005    2    1    2  501    0  0.51012164592E+02  0.66892110470E+01 -0.16777512976E+01  0.47094176910E+03  0.46812001512E+03 0.  0.
         13    1    3    3    0    0  0.25514107395E+03  0.14626172256E+02 -0.51438800551E+02  0.26068533279E+03  0.00000000000E+00 0.  1.
          1    1    3    3  501    0 -0.20412890936E+03 -0.79369612086E+01  0.49761049254E+02  0.21025643631E+03  0.00000000000E+00 0.  1.
         21    1    1    2  502  501 -0.51012164592E+02 -0.66892110470E+01 -0.21586530346E+02  0.55793949252E+02  0.00000000000E+00 0.  1.
<scales pt_clust_4="550.00000" pt_clust_5="550.00000" pt_clust_6="51.44890"></scales>
<mgrwt>
<rscale>  0 0.30000000E+03</rscale>
<asrwt>  1 0.51448898E+02</asrwt>
<pdfrwt beam="1">  1        1 0.91540261E+00 0.30000000E+03</pdfrwt>
<pdfrwt beam="2">0</pdfrwt>
<totfact> 0.49433565E-05</totfact>
</mgrwt>
<clustering>
<clus scale="   51.449">  1  6  2 -1</clus>
<clus scale="  468.120">  4  5 -1 -1</clus>
<clus scale="  300.000">  1  4  2 -1</clus>
</clustering>
</event>
<event>
 6    1  0.9678510E-012  0.3000000E+03  0.7818608E-02  0.1093470E+00
          1   -1    0    0  502    0  0.00000000000E+00  0.00000000000E+00  0.24826301725E+03  0.24826301725E+03  0.00000000000E+00 0.  1.
         13   -1    0    0    0    0 -0.00000000000E+00 -0.00000000000E+00 -0.27500000000E+03  0.27500000000E+03  0.00000000000E+00 0.  1.
    9000005    2    1    2  501    0 -0.29682037757E+02 -0.62059584791E+01 -0.49006152428E+02  0.48564050798E+03  0.48220904463E+03 0.  0.
         13    1    3    3    0    0  0.86636226660E+02 -0.15313913552E+03  0.13594053037E+03  0.22234490864E+03  0.00000000000E+00 0.  1.
          3    1    3    3  501    0 -0.11631826442E+03  0.14693317704E+03 -0.18494668280E+03  0.26329559934E+03  0.00000000000E+00 0.  1.
         21    1    1    2  502  501  0.29682037757E+02  0.62059584791E+01  0.22269169680E+02  0.37622509276E+02  0.00000000000E+00 0. -1.
<scales pt_clust_4="550.00000" pt_clust_5="550.00000" pt_clust_6="30.32387"></scales>
<mgrwt>
<rscale>  0 0.30000000E+03</rscale>
<asrwt>  1 0.30323873E+02</asrwt>
<pdfrwt beam="1">  1        1 0.90277461E+00 0.30000000E+03</pdfrwt>
<pdfrwt beam="2">0</pdfrwt>
<totfact> 0.10382431E-04</totfact>
</mgrwt>
<clustering>
<clus scale="   30.324">  1  6  2 -1</clus>
<clus scale="  482.209">  4  5 -1 -1</clus>
<clus scale="  300.000">  1  4  2 -1</clus>
</clustering>
</event>
<event>
 6    1  0.9678510E-012  0.3000000E+03  0.7818608E-02  0.1093470E+00
          1   -1    0    0  502    0  0.00000000000E+00  0.00000000000E+00  0.24300248152E+03  0.24300248152E+03  0.00000000000E+00 0.  1.
         13   -1    0    0    0    0 -0.00000000000E+00 -0.00000000000E+00 -0.27500000000E+03  0.27500000000E+03  0.00000000000E+00 0.  1.
    9000005    2    1    2  501    0 -0.18477046725E+02  0.25657336382E+02 -0.52337655300E+02  0.48040698536E+03  0.47649967603E+03 0.  0.
         13    1    3    3    0    0 -0.17276117413E+03  0.17084382078E+03 -0.10085035177E+03  0.26306810494E+03  0.00000000000E+00 0.  1.
          1    1    3    3  501    0  0.15428412740E+03 -0.14518648440E+03  0.48512696472E+02  0.21733888042E+03  0.00000000000E+00 0.  1.
         21    1    1    2  502  501  0.18477046725E+02 -0.25657336382E+02  0.20340136821E+02  0.37595496163E+02  0.00000000000E+00 0.  1.
<scales pt_clust_4="550.00000" pt_clust_5="550.00000" pt_clust_6="31.61804"></scales>
<mgrwt>
<rscale>  0 0.30000000E+03</rscale>
<asrwt>  1 0.31618035E+02</asrwt>
<pdfrwt beam="1">  1        1 0.88364539E+00 0.30000000E+03</pdfrwt>
<pdfrwt beam="2">0</pdfrwt>
<totfact> 0.18048587E-04</totfact>
</mgrwt>
<clustering>
<clus scale="   31.618">  1  6  2 -1</clus>
<clus scale="  476.500">  4  5 -1 -1</clus>
<clus scale="  300.000">  1  4  2 -1</clus>
</clustering>
</event>
<event>
 6    1  0.9678510E-012  0.3000000E+03  0.7818608E-02  0.1093470E+00
          1   -1    0    0  502    0  0.00000000000E+00  0.00000000000E+00  0.26023839451E+03  0.26023839451E+03  0.00000000000E+00 0.  1.
         13   -1    0    0    0    0 -0.00000000000E+00 -0.00000000000E+00 -0.27500000000E+03  0.27500000000E+03  0.00000000000E+00 0.  1.
    9000005    2    1    2  501    0 -0.36480655774E+02  0.24037943236E+01 -0.74902377303E+02  0.46485708373E+03  0.45732387396E+03 0.  0.
         13    1    3    3    0    0  0.35668148291E+02 -0.18192130554E+03  0.91063750979E+02  0.20654342148E+03  0.00000000000E+00 0.  1.
          3    1    3    3  501    0 -0.72148804065E+02  0.18432509987E+03 -0.16596612828E+03  0.25831366225E+03  0.00000000000E+00 0.  1.
         21    1    1    2  502  501  0.36480655774E+02 -0.24037943236E+01  0.60140771814E+02  0.70381310781E+02  0.00000000000E+00 0. -1.
<scales pt_clust_4="550.00000" pt_clust_5="550.00000" pt_clust_6="36.55977"></scales>
<mgrwt>
<rscale>  0 0.30000000E+03</rscale>
<asrwt>  1 0.36559766E+02</asrwt>
<pdfrwt beam="1">  1        1 0.94632143E+00 0.30000000E+03</pdfrwt>
<pdfrwt beam="2">0</pdfrwt>
<totfact> 0.14531086E-05</totfact>
</mgrwt>
<clustering>
<clus scale="   36.560">  1  6  2 -1</clus>
<clus scale="  457.324">  4  5 -1 -1</clus>
<clus scale="  300.000">  1  4  2 -1</clus>
</clustering>
</event>
<event>
 6    1  0.9678510E-012  0.3000000E+03  0.7818608E-02  0.1093470E+00
          1   -1    0    0  502    0  0.00000000000E+00  0.00000000000E+00  0.24498195609E+03  0.24498195609E+03  0.00000000000E+00 0.  1.
         13   -1    0    0    0    0 -0.00000000000E+00 -0.00000000000E+00 -0.27500000000E+03  0.27500000000E+03  0.00000000000E+00 0.  1.
    9000005    2    1    2  501    0  0.52660590985E+01 -0.30348496598E+02 -0.34827235045E+02  0.48880679059E+03  0.48659056670E+03 0.  0.
         13    1    3    3    0    0  0.22642687754E+03  0.24197858012E+02  0.69751356639E+02  0.23815944021E+03  0.00000000000E+00 0.  1.
          1    1    3    3  501    0 -0.22116081845E+03 -0.54546354610E+02 -0.10457859168E+03  0.25064735039E+03  0.00000000000E+00 0.  1.
         21    1    1    2  502  501 -0.52660590985E+01  0.30348496598E+02  0.48091911314E+01  0.31175165493E+02  0.00000000000E+00 0. -1.
<scales pt_clust_4="550.00000" pt_clust_5="550.00000" pt_clust_6="30.80199"></scales>
<mgrwt>
<rscale>  0 0.30000000E+03</rscale>
<asrwt>  1 0.30801991E+02</asrwt>
<pdfrwt beam="1">  1        1 0.89084348E+00 0.30000000E+03</pdfrwt>
<pdfrwt beam="2">0</pdfrwt>
<totfact> 0.14476411E-04</totfact>
</mgrwt>
<clustering>
<clus scale="   30.802">  1  6  2 -1</clus>
<clus scale="  486.591">  4  5 -1 -1</clus>
<clus scale="  300.000">  1  4  2 -1</clus>
</clustering>
</event>
<event>
 6    1  0.9678510E-012  0.3000000E+03  0.7818608E-02  0.1093470E+00
          1   -1    0    0  502    0  0.00000000000E+00  0.00000000000E+00  0.25190368936E+03  0.25190368936E+03  0.00000000000E+00 0.  1.
         13   -1    0    0    0    0 -0.00000000000E+00 -0.00000000000E+00 -0.27500000000E+03  0.27500000000E+03  0.00000000000E+00 0.  1.
    9000005    2    1    2  501    0  0.43209821078E+02 -0.96616976395E+01 -0.59769663351E+02  0.46941132606E+03  0.46348046705E+03 0.  0.
         13    1    3    3    0    0  0.14279851650E+03  0.18248185326E+03  0.32805374926E+02  0.23402400669E+03  0.00000000000E+00 0.  1.
          1    1    3    3  501    0 -0.99588695424E+02 -0.19214355090E+03 -0.92575038277E+02  0.23538731937E+03  0.00000000000E+00 0.  1.
         21    1    1    2  502  501 -0.43209821078E+02  0.96616976395E+01  0.36673352714E+02  0.57492363303E+02  0.00000000000E+00 0.  1.
<scales pt_clust_4="550.00000" pt_clust_5="550.00000" pt_clust_6="44.27682"></scales>
<mgrwt>
<rscale>  0 0.30000000E+03</rscale>
<asrwt>  1 0.44276823E+02</asrwt>
<pdfrwt beam="1">  1        1 0.91601342E+00 0.30000000E+03</pdfrwt>
<pdfrwt beam="2">0</pdfrwt>
<totfact> 0.49145408E-05</totfact>
</mgrwt>
<clustering>
<clus scale="   44.277">  1  6  2 -1</clus>
<clus scale="  463.480">  4  5 -1 -1</clus>
<clus scale="  300.000">  1  4  2 -1</clus>
</clustering>
</event>
<event>
 6    1  0.9678510E-012  0.3000000E+03  0.7818608E-02  0.1093470E+00
          1   -1    0    0  502    0  0.00000000000E+00  0.00000000000E+00  0.24119082264E+03  0.24119082264E+03  0.00000000000E+00 0.  1.
         13   -1    0    0    0    0 -0.00000000000E+00 -0.00000000000E+00 -0.27500000000E+03  0.27500000000E+03  0.00000000000E+00 0.  1.
    9000005    2    1    2  501    0  0.36867234191E+02 -0.75303509463E+01 -0.60457881143E+02  0.47008168520E+03  0.46465657880E+03 0.  0.
         13    1    3    3    0    0 -0.13348683739E+03  0.13661636082E+03 -0.13601148140E+03  0.23448217176E+03  0.00000000000E+00 0.  1.
          3    1    3    3  501    0  0.17035407158E+03 -0.14414671177E+03  0.75553600261E+02  0.23559951344E+03  0.00000000000E+00 0.  1.
         21    1    1    2  502  501 -0.36867234191E+02  0.75303509463E+01  0.26648703781E+02  0.46109137440E+02  0.00000000000E+00 0.  1.
<scales pt_clust_4="550.00000" pt_clust_5="550.00000" pt_clust_6="37.62844"></scales>
<mgrwt>
<rscale>  0 0.30000000E+03</rscale>
<asrwt>  1 0.37628435E+02</asrwt>
<pdfrwt beam="1">  1        1 0.87705754E+00 0.30000000E+03</pdfrwt>
<pdfrwt beam="2">0</pdfrwt>
<totfact> 0.21082021E-04</totfact>
</mgrwt>
<clustering>
<clus scale="   37.628">  1  6  2 -1</clus>
<clus scale="  464.657">  4  5 -1 -1</clus>
<clus scale="  300.000">  1  4  2 -1</clus>
</clustering>
</event>
<event>
 6    1  0.9678510E-012  0.3000000E+03  0.7818608E-02  0.1093470E+00
          1   -1    0    0  502    0  0.00000000000E+00  0.00000000000E+00  0.22781182798E+03  0.22781182798E+03  0.00000000000E+00 0.  1.
         13   -1    0    0    0    0 -0.00000000000E+00 -0.00000000000E+00 -0.27500000000E+03  0.27500000000E+03  0.00000000000E+00 0.  1.
    9000005    2    1    2  501    0  0.15687481556E+02 -0.28357596547E+02 -0.34155455735E+02  0.46788186872E+03  0.46550681796E+03 0.  0.
         13    1    3    3    0    0 -0.90828717528E+02  0.16828613095E+02  0.19243589083E+03  0.21345873191E+03  0.00000000000E+00 0.  1.
          1    1    3    3  501    0  0.10651619908E+03 -0.45186209642E+02 -0.22659134657E+03  0.25442313682E+03  0.00000000000E+00 0.  1.
         21    1    1    2  502  501 -0.15687481556E+02  0.28357596547E+02 -0.13032716289E+02  0.34929959252E+02  0.00000000000E+00 0.  1.
<scales pt_clust_4="550.00000" pt_clust_5="550.00000" pt_clust_6="32.40758"></scales>
<mgrwt>
<rscale>  0 0.30000000E+03</rscale>
<asrwt>  1 0.32407583E+02</asrwt>
<pdfrwt beam="1">  1        1 0.82840665E+00 0.30000000E+03</pdfrwt>
<pdfrwt beam="2">0</pdfrwt>
<totfact> 0.61850024E-04</totfact>
</mgrwt>
<clustering>
<clus scale="   32.408">  1  6  2 -1</clus>
<clus scale="  465.507">  4  5 -1 -1</clus>
<clus scale="  300.000">  1  4  2 -1</clus>
</clustering>
</event>
<event>
 6    1  0.9678510E-012  0.3000000E+03  0.7818608E-02  0.1093470E+00
          1   -1    0    0  502    0  0.00000000000E+00  0.00000000000E+00  0.23421849912E+03  0.23421849912E+03  0.00000000000E+00 0.  1.
         13   -1    0    0    0    0 -0.00000000000E+00 -0.00000000000E+00 -0.27500000000E+03  0.27500000000E+03  0.00000000000E+00 0.  1.
    9000005    2    1    2  501    0 -0.26107333595E+02 -0.25135412590E+02 -0.67313628505E+02  0.46430373952E+03  0.45796665394E+03 0.  0.
         13    1    3    3    0    0 -0.20035946389E+03 -0.89814351151E+02 -0.14470790437E+03  0.26296560617E+03  0.00000000000E+00 0.  1.
          1    1    3    3  501    0  0.17425213029E+03  0.64678938560E+02  0.77394275861E+02  0.20133813335E+03  0.00000000000E+00 0.  1.
         21    1    1    2  502  501  0.26107333595E+02  0.25135412590E+02  0.26532127623E+02  0.44914759597E+02  0.00000000000E+00 0.  1.
<scales pt_clust_4="550.00000" pt_clust_5="550.00000" pt_clust_6="36.24061"></scales>
<mgrwt>
<rscale>  0 0.30000000E+03</rscale>
<asrwt>  1 0.36240610E+02</asrwt>
<pdfrwt beam="1">  1        1 0.85170363E+00 0.30000000E+03</pdfrwt>
<pdfrwt beam="2">0</pdfrwt>
<totfact> 0.38960913E-04</totfact>
</mgrwt>
<clustering>
<clus scale="   36.241">  1  6  2 -1</clus>
<clus scale="  457.967">  4  5 -1 -1</clus>
<clus scale="  300.000">  1  4  2 -1</clus>
</clustering>
</event>
<event>
 6    1  0.9678510E-012  0.3000000E+03  0.7818608E-02  0.1093470E+00
          1   -1    0    0  502    0  0.00000000000E+00  0.00000000000E+00  0.24424874749E+03  0.24424874749E+03  0.00000000000E+00 0.  1.
         13   -1    0    0    0    0 -0.00000000000E+00 -0.00000000000E+00 -0.27500000000E+03  0.27500000000E+03  0.00000000000E+00 0.  1.
    9000005    2    1    2  501    0 -0.20229126265E+02  0.38616714904E+02 -0.29571425317E+02  0.47563842519E+03  0.47271235873E+03 0.  0.
         13    1    3    3    0    0 -0.23160618030E+03  0.10317057393E+03 -0.21912345835E+02  0.25449114126E+03  0.00000000000E+00 0.  1.
          3    1    3    3  501    0  0.21137705404E+03 -0.64553859028E+02 -0.76590794815E+01  0.22114728393E+03  0.00000000000E+00 0.  1.
         21    1    1    2  502  501  0.20229126265E+02 -0.38616714904E+02 -0.11798271919E+01  0.43610322306E+02  0.00000000000E+00 0.  1.
<scales pt_clust_4="550.00000" pt_clust_5="550.00000" pt_clust_6="43.59436"></scales>
<mgrwt>
<rscale>  0 0.30000000E+03</rscale>
<asrwt>  1 0.43594360E+02</asrwt>
<pdfrwt beam="1">  1        1 0.88817726E+00 0.30000000E+03</pdfrwt>
<pdfrwt beam="2">0</pdfrwt>
<totfact> 0.14738016E-04</totfact>
</mgrwt>
<clustering>
<clus scale="   43.594">  1  6  2 -1</clus>
<clus scale="  472.712">  4  5 -1 -1</clus>
<clus scale="  300.000">  1  4  2 -1</clus>
</clustering>
</event>
<event>
 6    1  0.9678510E-012  0.3000000E+03  0.7818608E-02  0.1093470E+00
          1   -1    0    0  502    0  0.00000000000E+00  0.00000000000E+00  0.24100937280E+03  0.24100937280E+03  0.00000000000E+00 0.  1.
         13   -1    0    0    0    0 -0.00000000000E+00 -0.00000000000E+00 -0.27500000000E+03  0.27500000000E+03  0.00000000000E+00 0.  1.
    9000005    2    1    2  501    0  0.28344545852E+02 -0.20072751672E+02 -0.45629704808E+02  0.47937882862E+03  0.47593661629E+03 0.  0.
         13    1    3    3    0    0 -0.83530793738E+02 -0.22657015340E+03 -0.86752412671E+01  0.24163337461E+03  0.00000000000E+00 0.  1.
          1    1    3    3  501    0  0.11187533959E+03  0.20649740173E+03 -0.36954463541E+02  0.23774545401E+03  0.00000000000E+00 0.  1.
         21    1    1    2  502  501 -0.28344545852E+02  0.20072751672E+02  0.11639077606E+02  0.36630544178E+02  0.00000000000E+00 0.  1.
<scales pt_clust_4="550.00000" pt_clust_5="550.00000" pt_clust_6="34.73224"></scales>
<mgrwt>
<rscale>  0 0.30000000E+03</rscale>
<asrwt>  1 0.34732242E+02</asrwt>
<pdfrwt beam="1">  1        1 0.87639772E+00 0.30000000E+03</pdfrwt>
<pdfrwt beam="2">0</pdfrwt>
<totfact> 0.21759749E-04</totfact>
</mgrwt>
<clustering>
<clus scale="   34.732">  1  6  2 -1</clus>
<clus scale="  475.937">  4  5 -1 -1</clus>
<clus scale="  300.000">  1  4  2 -1</clus>
</clustering>
</event>
<event>
 6    1  0.9678510E-012  0.3000000E+03  0.7818608E-02  0.1093470E+00
          1   -1    0    0  502    0  0.00000000000E+00  0.00000000000E+00  0.22965597179E+03  0.22965597179E+03  0.00000000000E+00 0.  1.
         13   -1    0    0    0    0 -0.00000000000E+00 -0.00000000000E+00 -0.27500000000E+03  0.27500000000E+03  0.00000000000E+00 0.  1.
    9000005    2    1    2  501    0 -0.18410894319E+02  0.28761222101E+02 -0.54340188350E+02  0.46934167123E+03  0.46493287619E+03 0.  0.
         13    1    3    3    0    0  0.55179841691E+02  0.23248707164E+03 -0.78212216903E+02  0.25142037364E+03  0.00000000000E+00 0.  1.
          1    1    3    3  501    0 -0.73590736010E+02 -0.20372584954E+03  0.23872028552E+02  0.21792129759E+03  0.00000000000E+00 0.  1.
         21    1    1    2  502  501  0.18410894319E+02 -0.28761222101E+02  0.89961601364E+01  0.35314300553E+02  0.00000000000E+00 0. -1.
<scales pt_clust_4="550.00000" pt_clust_5="550.00000" pt_clust_6="34.14922"></scales>
<mgrwt>
<rscale>  0 0.30000000E+03</rscale>
<asrwt>  1 0.34149216E+02</asrwt>
<pdfrwt beam="1">  1        1 0.83511262E+00 0.30000000E+03</pdfrwt>
<pdfrwt beam="2">0</pdfrwt>
<totfact> 0.54246437E-04</totfact>
</mgrwt>
<clustering>
<clus scale="   34.149">  1  6  2 -1</clus>
<clus scale="  464.933">  4  5 -1 -1</clus>
<clus scale="  300.000">  1  4  2 -1</clus>
</clustering>
</event>
<event>
 6    1  0.9678510E-012  0.3000000E+03  0.7818608E-02  0.1093470E+00
          1   -1    0    0  502    0  0.00000000000E+00  0.00000000000E+00  0.23500232146E+03  0.23500232146E+03  0.00000000000E+00 0.  1.
         13   -1    0    0    0    0 -0.00000000000E+00 -0.00000000000E+00 -0.27500000000E+03  0.27500000000E+03  0.00000000000E+00 0.  1.
    9000005    2    1    2  501    0 -0.46133706976E+02 -0.61900422031E+01 -0.28749061247E+02  0.46211529886E+03  0.45886534558E+03 0.  0.
         13    1    3    3    0    0  0.15304249273E+03 -0.61555337448E+02  0.12291832601E+03  0.20571820293E+03  0.00000000000E+00 0.  1.
          3    1    3    3  501    0 -0.19917619970E+03  0.55365295245E+02 -0.15166738725E+03  0.25639709593E+03  0.00000000000E+00 0.  1.
         21    1    1    2  502  501  0.46133706976E+02  0.61900422031E+01 -0.11248617297E+02  0.47887022594E+02  0.00000000000E+00 0. -1.
<scales pt_clust_4="550.00000" pt_clust_5="550.00000" pt_clust_6="46.54716"></scales>
<mgrwt>
<rscale>  0 0.30000000E+03</rscale>
<asrwt>  1 0.46547156E+02</asrwt>
<pdfrwt beam="1">  1        1 0.85455390E+00 0.30000000E+03</pdfrwt>
<pdfrwt beam="2">0</pdfrwt>
<totfact> 0.34941451E-04</totfact>
</mgrwt>
<clustering>
<clus scale="   46.547">  1  6  2 -1</clus>
<clus scale="  458.865">  4  5 -1 -1</clus>
<clus scale="  300.000">  1  4  2 -1</clus>
</clustering>
</event>
<event>
 6    1  0.9678510E-012  0.3000000E+03  0.7818608E-02  0.1093470E+00
          1   -1    0    0  502    0  0.00000000000E+00  0.00000000000E+00  0.23906068426E+03  0.23906068426E+03  0.00000000000E+00 0.  1.
         13   -1    0    0    0    0 -0.00000000000E+00 -0.00000000000E+00 -0.27500000000E+03  0.27500000000E+03  0.00000000000E+00 0.  1.
    9000005    2    1    2  501    0 -0.13136557546E+02  0.32619240252E+02 -0.62413406671E+02  0.47004407978E+03  0.46455292447E+03 0.  0.
         13    1    3    3    0    0 -0.85971284867E+02 -0.83712188239E+02 -0.22637923035E+03  0.25621543321E+03  0.00000000000E+00 0.  1.
          1    1    3    3  501    0  0.72834727321E+02  0.11633142849E+03  0.16396582368E+03  0.21382864657E+03  0.00000000000E+00 0.  1.
         21    1    1    2  502  501  0.13136557546E+02 -0.32619240252E+02  0.26474090926E+02  0.44016604471E+02  0.00000000000E+00 0. -1.
<scales pt_clust_4="550.00000" pt_clust_5="550.00000" pt_clust_6="35.16510"></scales>
<mgrwt>
<rscale>  0 0.30000000E+03</rscale>
<asrwt>  1 0.35165096E+02</asrwt>
<pdfrwt beam="1">  1        1 0.86931158E+00 0.30000000E+03</pdfrwt>
<pdfrwt beam="2">0</pdfrwt>
<totfact> 0.25717146E-04</totfact>
</mgrwt>
<clustering>
<clus scale="   35.165">  1  6  2 -1</clus>
<clus scale="  464.553">  4  5 -1 -1</clus>
<clus scale="  300.000">  1  4  2 -1</clus>
</clustering>
</event>
<event>
 6    1  0.9678510E-012  0.3000000E+03  0.7818608E-02  0.1093470E+00
          1   -1    0    0  502    0  0.00000000000E+00  0.00000000000E+00  0.22996562331E+03  0.22996562331E+03  0.00000000000E+00 0.  1.
         13   -1    0    0    0    0 -0.00000000000E+00 -0.00000000000E+00 -0.27500000000E+03  0.27500000000E+03  0.00000000000E+00 0.  1.
    9000005    2    1    2  501    0  0.25068960039E+02 -0.17610281997E+02 -0.64941189156E+02  0.46842994250E+03  0.46289380877E+03 0.  0.
         13    1    3    3    0    0  0.12492441357E+03  0.18762418928E+03 -0.81263965005E+02  0.23960963569E+03  0.00000000000E+00 0.  1.
          1    1    3    3  501    0 -0.99855453527E+02 -0.20523447127E+03  0.16322775849E+02  0.22882030681E+03  0.00000000000E+00 0.  1.
         21    1    1    2  502  501 -0.25068960039E+02  0.17610281997E+02  0.19906812462E+02  0.36535680804E+02  0.00000000000E+00 0. -1.
<scales pt_clust_4="550.00000" pt_clust_5="550.00000" pt_clust_6="30.63617"></scales>
<mgrwt>
<rscale>  0 0.30000000E+03</rscale>
<asrwt>  1 0.30636168E+02</asrwt>
<pdfrwt beam="1">  1        1 0.83623863E+00 0.30000000E+03</pdfrwt>
<pdfrwt beam="2">0</pdfrwt>
<totfact> 0.54342301E-04</totfact>
</mgrwt>
<clustering>
<clus scale="   30.636">  1  6  2 -1</clus>
<clus scale="  462.894">  4  5 -1 -1</clus>
<clus scale="  300.000">  1  4  2 -1</clus>
</clustering>
</event>
<event>
 6    1  0.9678510E-012  0.3000000E+03  0.7818608E-02  0.1093470E+00
          1   -1    0    0  502    0  0.00000000000E+00  0.00000000000E+00  0.22853770667E+03  0.22853770667E+03  0.00000000000E+00 0.  1.
         13   -1    0    0    0    0 -0.00000000000E+00 -0.00000000000E+00 -0.27500000000E+03  0.27500000000E+03  0.00000000000E+00 0.  1.
    9000005    2    1    2  501    0  0.30662079631E+02  0.80168742732E+00 -0.52707200785E+02  0.47223587447E+03  0.46828182357E+03 0.  0.
         13    1    3    3    0    0  0.22240836519E+03  0.90016027415E+02  0.36522163366E+02  0.24269782553E+03  0.00000000000E+00 0.  1.
          3    1    3    3  501    0 -0.19174628556E+03 -0.89214339987E+02 -0.89229364151E+02  0.22953804894E+03  0.00000000000E+00 0.  1.
         21    1    1    2  502  501 -0.30662079631E+02 -0.80168742732E+00  0.62449074513E+01  0.31301832200E+02  0.00000000000E+00 0.  1.
<scales pt_clust_4="550.00000" pt_clust_5="550.00000" pt_clust_6="30.67256"></scales>
<mgrwt>
<rscale>  0 0.30000000E+03</rscale>
<asrwt>  1 0.30672558E+02</asrwt>
<pdfrwt beam="1">  1        1 0.83104621E+00 0.30000000E+03</pdfrwt>
<pdfrwt beam="2">0</pdfrwt>
<totfact> 0.59425418E-04</totfact>
</mgrwt>
<clustering>
<clus scale="   30.673">  1  6  2 -1</clus>
<clus scale="  468.282">  4  5 -1 -1</clus>
<clus scale="  300.000">  1  4  2 -1</clus>
</clustering>
</event>
<event>
 6    1  0.9678510E-012  0.3000000E+03  0.7818608E-02  0.1093470E+00
          1   -1    0    0  502    0  0.00000000000E+00  0.00000000000E+00  0.22756733576E+03  0.22756733576E+03  0.00000000000E+00 0.  1.
         13   -1    0    0    0    0 -0.00000000000E+00 -0.00000000000E+00 -0.27500000000E+03  0.27500000000E+03  0.00000000000E+00 0.  1.
    9000005    2    1    2  501    0  0.37291128003E+02  0.13880832124E+02 -0.55191023855E+02  0.46202725840E+03  0.45698996998E+03 0.  0.
         13    1    3    3    0    0  0.26347392848E+02 -0.39437473100E+02 -0.25272217806E+03  0.25713420363E+03  0.00000000000E+00 0.  1.
          1    1    3    3  501    0  0.10943735156E+02  0.53318305223E+02  0.19753115420E+03  0.20489305477E+03  0.00000000000E+00 0.  1.
         21    1    1    2  502  501 -0.37291128003E+02 -0.13880832124E+02  0.77583596103E+01  0.40540077356E+02  0.00000000000E+00 0.  1.
<scales pt_clust_4="550.00000" pt_clust_5="550.00000" pt_clust_6="39.79077"></scales>
<mgrwt>
<rscale>  0 0.30000000E+03</rscale>
<asrwt>  1 0.39790774E+02</asrwt>
<pdfrwt beam="1">  1        1 0.82751758E+00 0.30000000E+03</pdfrwt>
<pdfrwt beam="2">0</pdfrwt>
<totfact> 0.60596944E-04</totfact>
</mgrwt>
<clustering>
<clus scale="   39.791">  1  6  2 -1</clus>
<clus scale="  456.990">  4  5 -1 -1</clus>
<clus scale="  300.000">  1  4  2 -1</clus>
</clustering>
</event>
<event>
 6    1  0.9678510E-012  0.3000000E+03  0.7818608E-02  0.1093470E+00
          1   -1    0    0  502    0  0.00000000000E+00  0.00000000000E+00  0.24001193305E+03  0.24001193305E+03  0.00000000000E+00 0.  1.
         13   -1    0    0    0    0 -0.00000000000E+00 -0.00000000000E+00 -0.27500000000E+03  0.27500000000E+03  0.00000000000E+00 0.  1.
    9000005    2    1    2  501    0 -0.26177727799E+02  0.29067491324E+02 -0.55820289917E+02  0.47069293037E+03  0.46573140054E+03 0.  0.
         13    1    3    3    0    0  0.17543974330E+03  0.70121340057E+02 -0.15302621597E+03  0.24313191612E+03  0.00000000000E+00 0.  1.
          3    1    3    3  501    0 -0.20161747110E+03 -0.41053848734E+02  0.97205926051E+02  0.22756101426E+03  0.00000000000E+00 0.  1.
         21    1    1    2  502  501  0.26177727799E+02 -0.29067491324E+02  0.20832222968E+02  0.44319002678E+02  0.00000000000E+00 0. -1.
<scales pt_clust_4="550.00000" pt_clust_5="550.00000" pt_clust_6="39.11767"></scales>
<mgrwt>
<rscale>  0 0.30000000E+03</rscale>
<asrwt>  1 0.39117675E+02</asrwt>
<pdfrwt beam="1">  1        1 0.87277067E+00 0.30000000E+03</pdfrwt>
<pdfrwt beam="2">0</pdfrwt>
<totfact> 0.23242872E-04</totfact>
</mgrwt>
<clustering>
<clus scale="   39.118">  1  6  2 -1</clus>
<clus scale="  465.731">  4  5 -1 -1</clus>
<clus scale="  300.000">  1  4  2 -1</clus>
</clustering>
</event>
<event>
 6    1  0.9678510E-012  0.3000000E+03  0.7818608E-02  0.1093470E+00
          1   -1    0    0  502    0  0.00000000000E+00  0.00000000000E+00  0.24081749190E+03  0.24081749190E+03  0.00000000000E+00 0.  1.
         13   -1    0    0    0    0 -0.00000000000E+00 -0.00000000000E+00 -0.27500000000E+03  0.27500000000E+03  0.00000000000E+00 0.  1.
    9000005    2    1    2  501    0 -0.20227858910E+02  0.27690453169E+02 -0.59027501001E+02  0.47347128611E+03  0.46852415671E+03 0.  0.
         13    1    3    3    0    0  0.21467559543E+03  0.38899757977E+01  0.38284976392E+02  0.21809741540E+03  0.00000000000E+00 0.  1.
          1    1    3    3  501    0 -0.23490345434E+03  0.23800477371E+02 -0.97312477393E+02  0.25537387071E+03  0.00000000000E+00 0.  1.
         21    1    1    2  502  501  0.20227858910E+02 -0.27690453169E+02  0.24844992898E+02  0.42346205791E+02  0.00000000000E+00 0. -1.
<scales pt_clust_4="550.00000" pt_clust_5="550.00000" pt_clust_6="34.29180"></scales>
<mgrwt>
<rscale>  0 0.30000000E+03</rscale>
<asrwt>  1 0.34291799E+02</asrwt>
<pdfrwt beam="1">  1        1 0.87569997E+00 0.30000000E+03</pdfrwt>
<pdfrwt beam="2">0</pdfrwt>
<totfact> 0.22194599E-04</totfact>
</mgrwt>
<clustering>
<clus scale="   34.292">  1  6  2 -1</clus>
<clus scale="  468.524">  4  5 -1 -1</clus>
<clus scale="  300.000">  1  4  2 -1</clus>
</clustering>
</event>
<event>
 6    1  0.9678510E-012  0.3000000E+03  0.7818608E-02  0.1093470E+00
          1   -1    0    0  502    0  0.00000000000E+00  0.00000000000E+00  0.24146420794E+03  0.24146420794E+03  0.00000000000E+00 0.  1.
         13   -1    0    0    0    0 -0.00000000000E+00 -0.00000000000E+00 -0.27500000000E+03  0.27500000000E+03  0.00000000000E+00 0.  1.
    9000005    2    1    2  501    0 -0.21810488245E+02 -0.22661523109E+02 -0.37698315645E+02  0.48473774218E+03  0.48224503488E+03 0.  0.
         13    1    3    3    0    0 -0.24354976197E+03  0.43723884131E+02 -0.51942247157E+02  0.25283643258E+03  0.00000000000E+00 0.  1.
          1    1    3    3  501    0  0.22173927373E+03 -0.66385407240E+02  0.14243931513E+02  0.23190130960E+03  0.00000000000E+00 0.  1.
         21    1    1    2  502  501  0.21810488245E+02  0.22661523109E+02  0.41625235860E+01  0.31726465761E+02  0.00000000000E+00 0. -1.
<scales pt_clust_4="550.00000" pt_clust_5="550.00000" pt_clust_6="31.45222"></scales>
<mgrwt>
<rscale>  0 0.30000000E+03</rscale>
<asrwt>  1 0.31452218E+02</asrwt>
<pdfrwt beam="1">  1        1 0.87805167E+00 0.30000000E+03</pdfrwt>
<pdfrwt beam="2">0</pdfrwt>
<totfact> 0.21246291E-04</totfact>
</mgrwt>
<clustering>
<clus scale="   31.452">  1  6  2 -1</clus>
<clus scale="  482.245">  4  5 -1 -1</clus>
<clus scale="  300.000">  1  4  2 -1</clus>
</clustering>
</event>
<event>
 6    1  0.9678510E-012  0.3000000E+03  0.7818608E-02  0.1093470E+00
          1   -1    0    0  502    0  0.00000000000E+00  0.00000000000E+00  0.24024157847E+03  0.24024157847E+03  0.00000000000E+00 0.  1.
         13   -1    0    0    0    0 -0.00000000000E+00 -0.00000000000E+00 -0.27500000000E+03  0.27500000000E+03  0.00000000000E+00 0.  1.
    9000005    2    1    2  501    0 -0.25071475696E+02  0.28423889940E+02 -0.53548528557E+02  0.47293833350E+03  0.46836601710E+03 0.  0.
         13    1    3    3    0    0 -0.23662461460E+03  0.84077003683E+02 -0.31204330455E+02  0.25304912768E+03  0.00000000000E+00 0.  1.
          3    1    3    3  501    0  0.21155313890E+03 -0.55653113743E+02 -0.22344198102E+02  0.21988920582E+03  0.00000000000E+00 0.  1.
         21    1    1    2  502  501  0.25071475696E+02 -0.28423889940E+02  0.18790107029E+02  0.42303244971E+02  0.00000000000E+00 0.  1.
<scales pt_clust_4="550.00000" pt_clust_5="550.00000" pt_clust_6="37.90114"></scales>
<mgrwt>
<rscale>  0 0.30000000E+03</rscale>
<asrwt>  1 0.37901140E+02</asrwt>
<pdfrwt beam="1">  1        1 0.87360574E+00 0.30000000E+03</pdfrwt>
<pdfrwt beam="2">0</pdfrwt>
<totfact> 0.22919304E-04</totfact>
</mgrwt>
<clustering>
<clus scale="   37.901">  1  6  2 -1</clus>
<clus scale="  468.366">  4  5 -1 -1</clus>
<clus scale="  300.000">  1  4  2 -1</clus>
</clustering>
</event>
<event>
 6    1  0.9678510E-012  0.3000000E+03  0.7818608E-02  0.1093470E+00
          1   -1    0    0  502    0  0.00000000000E+00  0.00000000000E+00  0.22831340896E+03  0.22831340896E+03  0.00000000000E+00 0.  1.
         13   -1    0    0    0    0 -0.00000000000E+00 -0.00000000000E+00 -0.27500000000E+03  0.27500000000E+03  0.00000000000E+00 0.  1.
    9000005    2    1    2  501    0 -0.28309420703E+02  0.11739525109E+02 -0.72219617978E+02  0.46342387130E+03  0.45673490289E+03 0.  0.
         13    1    3    3    0    0  0.20860547835E+03 -0.90991772794E+01 -0.84555259797E+02  0.22527457155E+03  0.00000000000E+00 0.  1.
          1    1    3    3  501    0 -0.23691489906E+03  0.20838702388E+02  0.12335641819E+02  0.23814929975E+03  0.00000000000E+00 0.  1.
         21    1    1    2  502  501  0.28309420703E+02 -0.11739525109E+02  0.25533026941E+02  0.39889537664E+02  0.00000000000E+00 0.  1.
<scales pt_clust_4="550.00000" pt_clust_5="550.00000" pt_clust_6="30.64702"></scales>
<mgrwt>
<rscale>  0 0.30000000E+03</rscale>
<asrwt>  1 0.30647019E+02</asrwt>
<pdfrwt beam="1">  1        1 0.83023058E+00 0.30000000E+03</pdfrwt>
<pdfrwt beam="2">0</pdfrwt>
<totfact> 0.60342602E-04</totfact>
</mgrwt>
<clustering>
<clus scale="   30.647">  1  6  2 -1</clus>
<clus scale="  456.735">  4  5 -1 -1</clus>
<clus scale="  300.000">  1  4  2 -1</clus>
</clustering>
</event>
<event>
 6    1  0.9678510E-012  0.3000000E+03  0.7818608E-02  0.1093470E+00
          1   -1    0    0  502    0  0.00000000000E+00  0.00000000000E+00  0.23129070113E+03  0.23129070113E+03  0.00000000000E+00 0.  1.
         13   -1    0    0    0    0 -0.00000000000E+00 -0.00000000000E+00 -0.27500000000E+03  0.27500000000E+03  0.00000000000E+00 0.  1.
    9000005    2    1    2  501    0 -0.35944691467E+02 -0.20490126895E+02 -0.51816179553E+02  0.46412925359E+03  0.45936824164E+03 0.  0.
         13    1    3    3    0    0  0.13956848044E+03 -0.11059921282E+03 -0.15975942303E+03  0.23923758035E+03  0.00000000000E+00 0.  1.
          3    1    3    3  501    0 -0.17551317190E+03  0.90109085926E+02  0.10794324347E+03  0.22489167323E+03  0.00000000000E+00 0.  1.
         21    1    1    2  502  501  0.35944691467E+02  0.20490126895E+02  0.81068806861E+01  0.42161447547E+02  0.00000000000E+00 0.  1.
<scales pt_clust_4="550.00000" pt_clust_5="550.00000" pt_clust_6="41.37470"></scales>
<mgrwt>
<rscale>  0 0.30000000E+03</rscale>
<asrwt>  1 0.41374704E+02</asrwt>
<pdfrwt beam="1">  1        1 0.84105710E+00 0.30000000E+03</pdfrwt>
<pdfrwt beam="2">0</pdfrwt>
<totfact> 0.47288451E-04</totfact>
</mgrwt>
<clustering>
<clus scale="   41.375">  1  6  2 -1</clus>
<clus scale="  459.368">  4  5 -1 -1</clus>
<clus scale="  300.000">  1  4  2 -1</clus>
</clustering>
</event>
<event>
 6    1  0.9678510E-012  0.3000000E+03  0.7818608E-02  0.1093470E+00
          1   -1    0    0  502    0  0.00000000000E+00  0.00000000000E+00  0.25768240561E+03  0.25768240561E+03  0.00000000000E+00 0.  1.
         13   -1    0    0    0    0 -0.00000000000E+00 -0.00000000000E+00 -0.27500000000E+03  0.27500000000E+03  0.00000000000E+00 0.  1.
    9000005    2    1    2  501    0 -0.10232572863E+02  0.47368284324E+02 -0.41521053122E+02  0.47851352781E+03  0.47423911536E+03 0.  0.
         13    1    3    3    0    0 -0.20506043704E+03 -0.29167474537E+02 -0.13711458449E+03  0.24839672641E+03  0.00000000000E+00 0.  1.
          1    1    3    3  501    0  0.19482786418E+03  0.76535758861E+02  0.95593531373E+02  0.23011680140E+03  0.00000000000E+00 0.  1.
         21    1    1    2  502  501  0.10232572863E+02 -0.47368284324E+02  0.24203458732E+02  0.54168877797E+02  0.00000000000E+00 0. -1.
<scales pt_clust_4="550.00000" pt_clust_5="550.00000" pt_clust_6="48.46091"></scales>
<mgrwt>
<rscale>  0 0.30000000E+03</rscale>
<asrwt>  1 0.48460911E+02</asrwt>
<pdfrwt beam="1">  1        1 0.93702693E+00 0.30000000E+03</pdfrwt>
<pdfrwt beam="2">0</pdfrwt>
<totfact> 0.20029653E-05</totfact>
</mgrwt>
<clustering>
<clus scale="   48.461">  1  6  2 -1</clus>
<clus scale="  474.239">  4  5 -1 -1</clus>
<clus scale="  300.000">  1  4  2 -1</clus>
</clustering>
</event>
<event>
 6    1  0.9678510E-012  0.3000000E+03  0.7818608E-02  0.1093470E+00
          1   -1    0    0  502    0  0.00000000000E+00  0.00000000000E+00  0.24443162856E+03  0.24443162856E+03  0.00000000000E+00 0.  1.
         13   -1    0    0    0    0 -0.00000000000E+00 -0.00000000000E+00 -0.27500000000E+03  0.27500000000E+03  0.00000000000E+00 0.  1.
    9000005    2    1    2  501    0  0.29159150248E+02  0.14435669399E+02 -0.36472710563E+02  0.48636342911E+03  0.48390131428E+03 0.  0.
         13    1    3    3    0    0  0.11838775075E+03 -0.17728163307E+03 -0.13577510990E+03  0.25274358037E+03  0.00000000000E+00 0.  1.
          3    1    3    3  501    0 -0.89228600499E+02  0.19171730247E+03  0.99302399334E+02  0.23361984874E+03  0.00000000000E+00 0.  1.
         21    1    1    2  502  501 -0.29159150248E+02 -0.14435669399E+02  0.59043391190E+01  0.33068199446E+02  0.00000000000E+00 0.  1.
<scales pt_clust_4="550.00000" pt_clust_5="550.00000" pt_clust_6="32.53682"></scales>
<mgrwt>
<rscale>  0 0.30000000E+03</rscale>
<asrwt>  1 0.32536819E+02</asrwt>
<pdfrwt beam="1">  1        1 0.88884229E+00 0.30000000E+03</pdfrwt>
<pdfrwt beam="2">0</pdfrwt>
<totfact> 0.15233369E-04</totfact>
</mgrwt>
<clustering>
<clus scale="   32.537">  1  6  2 -1</clus>
<clus scale="  483.901">  4  5 -1 -1</clus>
<clus scale="  300.000">  1  4  2 -1</clus>
</clustering>
</event>
<event>
 6    1  0.9678510E-012  0.3000000E+03  0.7818608E-02  0.1093470E+00
          1   -1    0    0  502    0  0.00000000000E+00  0.00000000000E+00  0.22911931395E+03  0.22911931395E+03  0.00000000000E+00 0.  1.
         13   -1    0    0    0    0 -0.00000000000E+00 -0.00000000000E+00 -0.27500000000E+03  0.27500000000E+03  0.00000000000E+00 0.  1.
    9000005    2    1    2  501    0 -0.32300586454E+02 -0.16034742842E+02 -0.60088210562E+02  0.46535986845E+03  0.46005301134E+03 0.  0.
         13    1    3    3    0    0 -0.24346802295E+03 -0.41499402451E+02 -0.11864420927E+02  0.24726431826E+03  0.00000000000E+00 0.  1.
          3    1    3    3  501    0  0.21116743649E+03  0.25464659608E+02 -0.48223789635E+02  0.21809555018E+03  0.00000000000E+00 0.  1.
         21    1    1    2  502  501  0.32300586454E+02  0.16034742842E+02  0.14207524516E+02  0.38759445509E+02  0.00000000000E+00 0.  1.
<scales pt_clust_4="550.00000" pt_clust_5="550.00000" pt_clust_6="36.06163"></scales>
<mgrwt>
<rscale>  0 0.30000000E+03</rscale>
<asrwt>  1 0.36061626E+02</asrwt>
<pdfrwt beam="1">  1        1 0.83316114E+00 0.30000000E+03</pdfrwt>
<pdfrwt beam="2">0</pdfrwt>
<totfact> 0.55509215E-04</totfact>
</mgrwt>
<clustering>
<clus scale="   36.062">  1  6  2 -1</clus>
<clus scale="  460.053">  4  5 -1 -1</clus>
<clus scale="  300.000">  1  4  2 -1</clus>
</clustering>
</event>
<event>
 6    1  0.9678510E-012  0.3000000E+03  0.7818608E-02  0.1093470E+00
          1   -1    0    0  502    0  0.00000000000E+00  0.00000000000E+00  0.22841171131E+03  0.22841171131E+03  0.00000000000E+00 0.  1.
         13   -1    0    0    0    0 -0.00000000000E+00 -0.00000000000E+00 -0.27500000000E+03  0.27500000000E+03  0.00000000000E+00 0.  1.
    9000005    2    1    2  501    0 -0.14953948195E+02 -0.32818995773E+02 -0.44604066514E+02  0.46729185268E+03  0.46375796034E+03 0.  0.
         13    1    3    3    0    0  0.16339705420E+03 -0.82545619605E+02  0.12054397812E+03  0.21918765316E+03  0.00000000000E+00 0.  1.
          3    1    3    3  501    0 -0.17835100239E+03  0.49726623832E+02 -0.16514804463E+03  0.24810419952E+03  0.00000000000E+00 0.  1.
         21    1    1    2  502  501  0.14953948195E+02  0.32818995773E+02 -0.19842221758E+01  0.36119858635E+02  0.00000000000E+00 0. -1.
<scales pt_clust_4="550.00000" pt_clust_5="550.00000" pt_clust_6="36.06532"></scales>
<mgrwt>
<rscale>  0 0.30000000E+03</rscale>
<asrwt>  1 0.36065316E+02</asrwt>
<pdfrwt beam="1">  1        1 0.83058804E+00 0.30000000E+03</pdfrwt>
<pdfrwt beam="2">0</pdfrwt>
<totfact> 0.58125232E-04</totfact>
</mgrwt>
<clustering>
<clus scale="   36.065">  1  6  2 -1</clus>
<clus scale="  463.758">  4  5 -1 -1</clus>
<clus scale="  300.000">  1  4  2 -1</clus>
</clustering>
</event>
<event>
 6    1  0.9678510E-012  0.3000000E+03  0.7818608E-02  0.1093470E+00
          1   -1    0    0  502    0  0.00000000000E+00  0.00000000000E+00  0.23739774032E+03  0.23739774032E+03  0.00000000000E+00 0.  1.
         13   -1    0    0    0    0 -0.00000000000E+00 -0.00000000000E+00 -0.27500000000E+03  0.27500000000E+03  0.00000000000E+00 0.  1.
    9000005    2    1    2  501    0 -0.11027376373E+02  0.28752881310E+02 -0.68255922812E+02  0.46894686833E+03  0.46292976044E+03 0.  0.
         13    1    3    3    0    0  0.34889593160E+01  0.80914994329E+02 -0.25863435521E+03  0.27101870570E+03  0.00000000000E+00 0.  1.
          1    1    3    3  501    0 -0.14516335689E+02 -0.52162113020E+02  0.19037843240E+03  0.19792816263E+03  0.00000000000E+00 0.  1.
         21    1    1    2  502  501  0.11027376373E+02 -0.28752881310E+02  0.30653663129E+02  0.43450871988E+02  0.00000000000E+00 0.  1.
<scales pt_clust_4="550.00000" pt_clust_5="550.00000" pt_clust_6="30.79499"></scales>
<mgrwt>
<rscale>  0 0.30000000E+03</rscale>
<asrwt>  1 0.30794987E+02</asrwt>
<pdfrwt beam="1">  1        1 0.86326451E+00 0.30000000E+03</pdfrwt>
<pdfrwt beam="2">0</pdfrwt>
<totfact> 0.30561871E-04</totfact>
</mgrwt>
<clustering>
<clus scale="   30.795">  1  6  2 -1</clus>
<clus scale="  462.930">  4  5 -1 -1</clus>
<clus scale="  300.000">  1  4  2 -1</clus>
</clustering>
</event>
<event>
 6    1  0.9678510E-012  0.3000000E+03  0.7818608E-02  0.1093470E+00
          1   -1    0    0  502    0  0.00000000000E+00  0.00000000000E+00  0.24799133405E+03  0.24799133405E+03  0.00000000000E+00 0.  1.
         13   -1    0    0    0    0 -0.00000000000E+00 -0.00000000000E+00 -0.27500000000E+03  0.27500000000E+03  0.00000000000E+00 0.  1.
    9000005    2    1    2  501    0 -0.28545622822E+01  0.30871585978E+02 -0.41346655460E+02  0.48883315363E+03  0.48609371815E+03 0.  0.
         13    1    3    3    0    0  0.10037927015E+03  0.17253959117E+03 -0.17731071460E+03  0.26699250534E+03  0.00000000000E+00 0.  1.
          3    1    3    3  501    0 -0.10323383243E+03 -0.14166800519E+03  0.13596405914E+03  0.22184064828E+03  0.00000000000E+00 0.  1.
         21    1    1    2  502  501  0.28545622822E+01 -0.30871585978E+02  0.14337989511E+02  0.34158180424E+02  0.00000000000E+00 0. -1.
<scales pt_clust_4="550.00000" pt_clust_5="550.00000" pt_clust_6="31.00328"></scales>
<mgrwt>
<rscale>  0 0.30000000E+03</rscale>
<asrwt>  1 0.31003280E+02</asrwt>
<pdfrwt beam="1">  1        1 0.90178667E+00 0.30000000E+03</pdfrwt>
<pdfrwt beam="2">0</pdfrwt>
<totfact> 0.10696051E-04</totfact>
</mgrwt>
<clustering>
<clus scale="   31.003">  1  6  2 -1</clus>
<clus scale="  486.094">  4  5 -1 -1</clus>
<clus scale="  300.000">  1  4  2 -1</clus>
</clustering>
</event>
<event>
 6    1  0.9678510E-012  0.3000000E+03  0.7818608E-02  0.1093470E+00
          1   -1    0    0  502    0  0.00000000000E+00  0.00000000000E+00  0.25322902170E+03  0.25322902170E+03  0.00000000000E+00 0.  1.
         13   -1    0    0    0    0 -0.00000000000E+00 -0.00000000000E+00 -0.27500000000E+03  0.27500000000E+03  0.00000000000E+00 0.  1.
    9000005    2    1    2  501    0 -0.27774249841E+02  0.29530107111E+02 -0.67317471479E+02  0.46725427922E+03  0.46059904830E+03 0.  0.
         13    1    3    3    0    0 -0.18865107315E+03  0.13370377285E+03  0.57836205390E+02  0.23835048338E+03  0.00000000000E+00 0.  1.
          1    1    3    3  501    0  0.16087682331E+03 -0.10417366574E+03 -0.12515367687E+03  0.22890379583E+03  0.00000000000E+00 0.  1.
         21    1    1    2  502  501  0.27774249841E+02 -0.29530107111E+02  0.45546493179E+02  0.60974742485E+02  0.00000000000E+00 0.  1.
<scales pt_clust_4="550.00000" pt_clust_5="550.00000" pt_clust_6="40.53932"></scales>
<mgrwt>
<rscale>  0 0.30000000E+03</rscale>
<asrwt>  1 0.40539316E+02</asrwt>
<pdfrwt beam="1">  1        1 0.92083281E+00 0.30000000E+03</pdfrwt>
<pdfrwt beam="2">0</pdfrwt>
<totfact> 0.39032749E-05</totfact>
</mgrwt>
<clustering>
<clus scale="   40.539">  1  6  2 -1</clus>
<clus scale="  460.599">  4  5 -1 -1</clus>
<clus scale="  300.000">  1  4  2 -1</clus>
</clustering>
</event>
<event>
 6    1  0.9678510E-012  0.3000000E+03  0.7818608E-02  0.1093470E+00
          1   -1    0    0  502    0  0.00000000000E+00  0.00000000000E+00  0.22437209733E+03  0.22437209733E+03  0.00000000000E+00 0.  1.
         13   -1    0    0    0    0 -0.00000000000E+00 -0.00000000000E+00 -0.27500000000E+03  0.27500000000E+03  0.00000000000E+00 0.  1.
    9000005    2    1    2  501    0  0.62855936993E+01 -0.31039855383E+02 -0.53241120473E+02  0.46759458614E+03  0.46347286735E+03 0.  0.
         13    1    3    3    0    0 -0.22584744071E+03  0.12289210415E+02 -0.48927122332E+02  0.23141295225E+03  0.00000000000E+00 0.  1.
          3    1    3    3  501    0  0.23213303441E+03 -0.43329065798E+02 -0.43139981411E+01  0.23618163389E+03  0.00000000000E+00 0.  1.
         21    1    1    2  502  501 -0.62855936993E+01  0.31039855383E+02  0.26132178049E+01  0.31777511194E+02  0.00000000000E+00 0. -1.
<scales pt_clust_4="550.00000" pt_clust_5="550.00000" pt_clust_6="31.66988"></scales>
<mgrwt>
<rscale>  0 0.30000000E+03</rscale>
<asrwt>  1 0.31669880E+02</asrwt>
<pdfrwt beam="1">  1        1 0.81589854E+00 0.30000000E+03</pdfrwt>
<pdfrwt beam="2">0</pdfrwt>
<totfact> 0.79770412E-04</totfact>
</mgrwt>
<clustering>
<clus scale="   31.670">  1  6  2 -1</clus>
<clus scale="  463.473">  4  5 -1 -1</clus>
<clus scale="  300.000">  1  4  2 -1</clus>
</clustering>
</event>
<event>
 6    1  0.9678510E-012  0.3000000E+03  0.7818608E-02  0.1093470E+00
          1   -1    0    0  502    0  0.00000000000E+00  0.00000000000E+00  0.22941883734E+03  0.22941883734E+03  0.00000000000E+00 0.  1.
         13   -1    0    0    0    0 -0.00000000000E+00 -0.00000000000E+00 -0.27500000000E+03  0.27500000000E+03  0.00000000000E+00 0.  1.
    9000005    2    1    2  501    0  0.43291376215E+01  0.31460585013E+02 -0.49581770883E+02  0.47241079604E+03  0.46872710436E+03 0.  0.
         13    1    3    3    0    0  0.15426584546E+02  0.24874703113E+03 -0.53072352008E+02  0.25481314635E+03  0.00000000000E+00 0.  1.
          1    1    3    3  501    0 -0.11097446925E+02 -0.21728644611E+03  0.34905811243E+01  0.21759764969E+03  0.00000000000E+00 0.  1.
         21    1    1    2  502  501 -0.43291376215E+01 -0.31460585013E+02  0.40006082221E+01  0.32008041303E+02  0.00000000000E+00 0.  1.
<scales pt_clust_4="550.00000" pt_clust_5="550.00000" pt_clust_6="31.75704"></scales>
<mgrwt>
<rscale>  0 0.30000000E+03</rscale>
<asrwt>  1 0.31757044E+02</asrwt>
<pdfrwt beam="1">  1        1 0.83425032E+00 0.30000000E+03</pdfrwt>
<pdfrwt beam="2">0</pdfrwt>
<totfact> 0.55802650E-04</totfact>
</mgrwt>
<clustering>
<clus scale="   31.757">  1  6  2 -1</clus>
<clus scale="  468.727">  4  5 -1 -1</clus>
<clus scale="  300.000">  1  4  2 -1</clus>
</clustering>
</event>
<event>
 6    1  0.9678510E-012  0.3000000E+03  0.7818608E-02  0.1093470E+00
          1   -1    0    0  502    0  0.00000000000E+00  0.00000000000E+00  0.22940687276E+03  0.22940687276E+03  0.00000000000E+00 0.  1.
         13   -1    0    0    0    0 -0.00000000000E+00 -0.00000000000E+00 -0.27500000000E+03  0.27500000000E+03  0.00000000000E+00 0.  1.
    9000005    2    1    2  501    0 -0.30535822995E+01  0.29935280874E+02 -0.64423052029E+02  0.46891023245E+03  0.46348789742E+03 0.  0.
         13    1    3    3    0    0  0.22828251918E+03  0.44069705431E+02 -0.39119913204E+02  0.23576559356E+03  0.00000000000E+00 0.  1.
          3    1    3    3  501    0 -0.23133610148E+03 -0.14134424557E+02 -0.25303138825E+02  0.23314463888E+03  0.00000000000E+00 0.  1.
         21    1    1    2  502  501  0.30535822995E+01 -0.29935280874E+02  0.18829924785E+02  0.35496640310E+02  0.00000000000E+00 0. -1.
<scales pt_clust_4="550.00000" pt_clust_5="550.00000" pt_clust_6="30.09062"></scales>
<mgrwt>
<rscale>  0 0.30000000E+03</rscale>
<asrwt>  1 0.30090620E+02</asrwt>
<pdfrwt beam="1">  1        1 0.83420681E+00 0.30000000E+03</pdfrwt>
<pdfrwt beam="2">0</pdfrwt>
<totfact> 0.56423375E-04</totfact>
</mgrwt>
<clustering>
<clus scale="   30.091">  1  6  2 -1</clus>
<clus scale="  463.488">  4  5 -1 -1</clus>
<clus scale="  300.000">  1  4  2 -1</clus>
</clustering>
</event>
<event>
 6    1  0.9678510E-012  0.3000000E+03  0.7818608E-02  0.1093470E+00
          1   -1    0    0  502    0  0.00000000000E+00  0.00000000000E+00  0.22414612188E+03  0.22414612188E+03  0.00000000000E+00 0.  1.
         13   -1    0    0    0    0 -0.00000000000E+00 -0.00000000000E+00 -0.27500000000E+03  0.27500000000E+03  0.00000000000E+00 0.  1.
    9000005    2    1    2  501    0 -0.67347136502E+01 -0.29536821408E+02 -0.62368237616E+02  0.46673685374E+03  0.46155791986E+03 0.  0.
         13    1    3    3    0    0 -0.16594618917E+03  0.57148623195E+02  0.11762091512E+03  0.21127892111E+03  0.00000000000E+00 0.  1.
          3    1    3    3  501    0  0.15921147552E+03 -0.86685444604E+02 -0.17998915273E+03  0.25545793263E+03  0.00000000000E+00 0.  1.
         21    1    1    2  502  501  0.67347136502E+01  0.29536821408E+02  0.11514359497E+02  0.32409268142E+02  0.00000000000E+00 0.  1.
<scales pt_clust_4="550.00000" pt_clust_5="550.00000" pt_clust_6="30.29489"></scales>
<mgrwt>
<rscale>  0 0.30000000E+03</rscale>
<asrwt>  1 0.30294887E+02</asrwt>
<pdfrwt beam="1">  1        1 0.81507681E+00 0.30000000E+03</pdfrwt>
<pdfrwt beam="2">0</pdfrwt>
<totfact> 0.81696351E-04</totfact>
</mgrwt>
<clustering>
<clus scale="   30.295">  1  6  2 -1</clus>
<clus scale="  461.558">  4  5 -1 -1</clus>
<clus scale="  300.000">  1  4  2 -1</clus>
</clustering>
</event>
<event>
 6    1  0.9678510E-012  0.3000000E+03  0.7818608E-02  0.1093470E+00
          1   -1    0    0  502    0  0.00000000000E+00  0.00000000000E+00  0.22588290572E+03  0.22588290572E+03  0.00000000000E+00 0.  1.
         13   -1    0    0    0    0 -0.00000000000E+00 -0.00000000000E+00 -0.27500000000E+03  0.27500000000E+03  0.00000000000E+00 0.  1.
    9000005    2    1    2  501    0 -0.17012275282E+02  0.27402792290E+02 -0.47100216384E+02  0.46856575343E+03  0.46507537494E+03 0.  0.
         13    1    3    3    0    0 -0.13092454208E+02  0.21683520453E+03 -0.13908885725E+03  0.25794307219E+03  0.00000000000E+00 0.  1.
          1    1    3    3  501    0 -0.39198210744E+01 -0.18943241224E+03  0.91988640862E+02  0.21062268124E+03  0.00000000000E+00 0.  1.
         21    1    1    2  502  501  0.17012275282E+02 -0.27402792290E+02 -0.20168778934E+01  0.32317152288E+02  0.00000000000E+00 0.  1.
<scales pt_clust_4="550.00000" pt_clust_5="550.00000" pt_clust_6="32.25416"></scales>
<mgrwt>
<rscale>  0 0.30000000E+03</rscale>
<asrwt>  1 0.32254155E+02</asrwt>
<pdfrwt beam="1">  1        1 0.82139238E+00 0.30000000E+03</pdfrwt>
<pdfrwt beam="2">0</pdfrwt>
<totfact> 0.71422061E-04</totfact>
</mgrwt>
<clustering>
<clus scale="   32.254">  1  6  2 -1</clus>
<clus scale="  465.075">  4  5 -1 -1</clus>
<clus scale="  300.000">  1  4  2 -1</clus>
</clustering>
</event>
<event>
 6    1  0.9678510E-012  0.3000000E+03  0.7818608E-02  0.1093470E+00
          1   -1    0    0  502    0  0.00000000000E+00  0.00000000000E+00  0.23267353965E+03  0.23267353965E+03  0.00000000000E+00 0.  1.
         13   -1    0    0    0    0 -0.00000000000E+00 -0.00000000000E+00 -0.27500000000E+03  0.27500000000E+03  0.00000000000E+00 0.  1.
    9000005    2    1    2  501    0 -0.17869607670E+02  0.36434972508E+02 -0.60676050284E+02  0.46313661620E+03  0.45734791143E+03 0.  0.
         13    1    3    3    0    0  0.72834207915E+02 -0.26463045391E+02  0.18130422749E+03  0.19717083334E+03  0.00000000000E+00 0.  1.
          1    1    3    3  501    0 -0.90703815585E+02  0.62898017900E+02 -0.24198027778E+03  0.26596578286E+03  0.00000000000E+00 0.  1.
         21    1    1    2  502  501  0.17869607670E+02 -0.36434972508E+02  0.18349589938E+02  0.44536923455E+02  0.00000000000E+00 0.  1.
<scales pt_clust_4="550.00000" pt_clust_5="550.00000" pt_clust_6="40.58115"></scales>
<mgrwt>
<rscale>  0 0.30000000E+03</rscale>
<asrwt>  1 0.40581154E+02</asrwt>
<pdfrwt beam="1">  1        1 0.84608560E+00 0.30000000E+03</pdfrwt>
<pdfrwt beam="2">0</pdfrwt>
<totfact> 0.43007284E-04</totfact>
</mgrwt>
<clustering>
<clus scale="   40.581">  1  6  2 -1</clus>
<clus scale="  457.348">  4  5 -1 -1</clus>
<clus scale="  300.000">  1  4  2 -1</clus>
</clustering>
</event>
<event>
 6    1  0.9678510E-012  0.3000000E+03  0.7818608E-02  0.1093470E+00
          1   -1    0    0  502    0  0.00000000000E+00  0.00000000000E+00  0.23364091056E+03  0.23364091056E+03  0.00000000000E+00 0.  1.
         13   -1    0    0    0    0 -0.00000000000E+00 -0.00000000000E+00 -0.27500000000E+03  0.27500000000E+03  0.00000000000E+00 0.  1.
    9000005    2    1    2  501    0 -0.33347100454E+02  0.83314492266E+01 -0.57544837773E+02  0.47064853495E+03  0.46585104158E+03 0.  0.
         13    1    3    3    0    0  0.42254307393E+02 -0.15791239348E+03  0.13001215648E+03  0.20886577350E+03  0.00000000000E+00 0.  1.
          1    1    3    3  501    0 -0.75601407847E+02  0.16624384270E+03 -0.18755699425E+03  0.26178276146E+03  0.00000000000E+00 0.  1.
         21    1    1    2  502  501  0.33347100454E+02 -0.83314492266E+01  0.16185748329E+02  0.37992375602E+02  0.00000000000E+00 0. -1.
<scales pt_clust_4="550.00000" pt_clust_5="550.00000" pt_clust_6="34.37211"></scales>
<mgrwt>
<rscale>  0 0.30000000E+03</rscale>
<asrwt>  1 0.34372113E+02</asrwt>
<pdfrwt beam="1">  1        1 0.84960331E+00 0.30000000E+03</pdfrwt>
<pdfrwt beam="2">0</pdfrwt>
<totfact> 0.41187645E-04</totfact>
</mgrwt>
<clustering>
<clus scale="   34.372">  1  6  2 -1</clus>
<clus scale="  465.851">  4  5 -1 -1</clus>
<clus scale="  300.000">  1  4  2 -1</clus>
</clustering>
</event>
<event>
 6    1  0.9678510E-012  0.3000000E+03  0.7818608E-02  0.1093470E+00
          1   -1    0    0  502    0  0.00000000000E+00  0.00000000000E+00  0.24419627338E+03  0.24419627338E+03  0.00000000000E+00 0.  1.
         13   -1    0    0    0    0 -0.00000000000E+00 -0.00000000000E+00 -0.27500000000E+03  0.27500000000E+03  0.00000000000E+00 0.  1.
    9000005    2    1    2  501    0 -0.47645301067E+02 -0.17845249349E+02 -0.27242903138E+02  0.46819424300E+03  0.46462366037E+03 0.  0.
         13    1    3    3    0    0  0.20840077662E+03 -0.63944857093E+00  0.11223623859E+02  0.20870376692E+03  0.00000000000E+00 0.  1.
          3    1    3    3  501    0 -0.25604607769E+03 -0.17205800778E+02 -0.38466526997E+02  0.25949047609E+03  0.00000000000E+00 0.  1.
         21    1    1    2  502  501  0.47645301067E+02  0.17845249349E+02 -0.35608234862E+01  0.51002030372E+02  0.00000000000E+00 0. -1.
<scales pt_clust_4="550.00000" pt_clust_5="550.00000" pt_clust_6="50.87760"></scales>
<mgrwt>
<rscale>  0 0.30000000E+03</rscale>
<asrwt>  1 0.50877600E+02</asrwt>
<pdfrwt beam="1">  1        1 0.88798645E+00 0.30000000E+03</pdfrwt>
<pdfrwt beam="2">0</pdfrwt>
<totfact> 0.14426763E-04</totfact>
</mgrwt>
<clustering>
<clus scale="   50.878">  1  6  2 -1</clus>
<clus scale="  464.624">  4  5 -1 -1</clus>
<clus scale="  300.000">  1  4  2 -1</clus>
</clustering>
</event>
<event>
 6    1  0.9678510E-012  0.3000000E+03  0.7818608E-02  0.1093470E+00
          1   -1    0    0  502    0  0.00000000000E+00  0.00000000000E+00  0.24424698977E+03  0.24424698977E+03  0.00000000000E+00 0.  1.
         13   -1    0    0    0    0 -0.00000000000E+00 -0.00000000000E+00 -0.27500000000E+03  0.27500000000E+03  0.00000000000E+00 0.  1.
    9000005    2    1    2  501    0 -0.13023516078E+02 -0.28760925138E+02 -0.56810859945E+02  0.47831027864E+03  0.47387387147E+03 0.  0.
         13    1    3    3    0    0  0.16670778023E+03 -0.23193022092E+00  0.13455175122E+03  0.21423284421E+03  0.00000000000E+00 0.  1.
          1    1    3    3  501    0 -0.17973129631E+03 -0.28528994917E+02 -0.19136261117E+03  0.26407743443E+03  0.00000000000E+00 0.  1.
         21    1    1    2  502  501  0.13023516078E+02  0.28760925138E+02  0.26057849710E+02  0.40936711121E+02  0.00000000000E+00 0.  1.
<scales pt_clust_4="550.00000" pt_clust_5="550.00000" pt_clust_6="31.57218"></scales>
<mgrwt>
<rscale>  0 0.30000000E+03</rscale>
<asrwt>  1 0.31572184E+02</asrwt>
<pdfrwt beam="1">  1        1 0.88817087E+00 0.30000000E+03</pdfrwt>
<pdfrwt beam="2">0</pdfrwt>
<totfact> 0.15648008E-04</totfact>
</mgrwt>
<clustering>
<clus scale="   31.572">  1  6  2 -1</clus>
<clus scale="  473.874">  4  5 -1 -1</clus>
<clus scale="  300.000">  1  4  2 -1</clus>
</clustering>
</event>
<event>
 6    1  0.9678510E-012  0.3000000E+03  0.7818608E-02  0.1093470E+00
          1   -1    0    0  502    0  0.00000000000E+00  0.00000000000E+00  0.24268804669E+03  0.24268804669E+03  0.00000000000E+00 0.  1.
         13   -1    0    0    0    0 -0.00000000000E+00 -0.00000000000E+00 -0.27500000000E+03  0.27500000000E+03  0.00000000000E+00 0.  1.
    9000005    2    1    2  501    0 -0.32976556550E+02  0.56009460004E+01 -0.22117624204E+02  0.48272022972E+03  0.48105177164E+03 0.  0.
         13    1    3    3    0    0 -0.22936404334E+03 -0.10800906359E+03  0.91862691901E+01  0.25368919909E+03  0.00000000000E+00 0.  1.
          1    1    3    3  501    0  0.19638748679E+03  0.11361000959E+03 -0.31303893394E+02  0.22903103062E+03  0.00000000000E+00 0.  1.
         21    1    1    2  502  501  0.32976556550E+02 -0.56009460004E+01 -0.10194329105E+02  0.34967816973E+02  0.00000000000E+00 0. -1.
<scales pt_clust_4="550.00000" pt_clust_5="550.00000" pt_clust_6="33.44884"></scales>
<mgrwt>
<rscale>  0 0.30000000E+03</rscale>
<asrwt>  1 0.33448841E+02</asrwt>
<pdfrwt beam="1">  1        1 0.88250199E+00 0.30000000E+03</pdfrwt>
<pdfrwt beam="2">0</pdfrwt>
<totfact> 0.18494444E-04</totfact>
</mgrwt>
<clustering>
<clus scale="   33.449">  1  6  2 -1</clus>
<clus scale="  481.052">  4  5 -1 -1</clus>
<clus scale="  300.000">  1  4  2 -1</clus>
</clustering>
</event>
<event>
 6    1  0.9678510E-012  0.3000000E+03  0.7818608E-02  0.1093470E+00
          1   -1    0    0  502    0  0.00000000000E+00  0.00000000000E+00  0.25031102390E+03  0.25031102390E+03  0.00000000000E+00 0.  1.
         13   -1    0    0    0    0 -0.00000000000E+00 -0.00000000000E+00 -0.27500000000E+03  0.27500000000E+03  0.00000000000E+00 0.  1.
    9000005    2    1    2  501    0 -0.34843054903E+02  0.18249330387E+02 -0.69276277823E+02  0.46585428324E+03  0.45899230278E+03 0.  0.
         13    1    3    3    0    0 -0.76652235191E+02  0.64117333394E+01 -0.25953649271E+03  0.27069515425E+03  0.00000000000E+00 0.  1.
          1    1    3    3  501    0  0.41809180288E+02  0.11837597048E+02  0.19026021489E+03  0.19515912899E+03  0.00000000000E+00 0.  1.
         21    1    1    2  502  501  0.34843054903E+02 -0.18249330387E+02  0.44587301719E+02  0.59456740654E+02  0.00000000000E+00 0.  1.
<scales pt_clust_4="550.00000" pt_clust_5="550.00000" pt_clust_6="39.33289"></scales>
<mgrwt>
<rscale>  0 0.30000000E+03</rscale>
<asrwt>  1 0.39332894E+02</asrwt>
<pdfrwt beam="1">  1        1 0.91022191E+00 0.30000000E+03</pdfrwt>
<pdfrwt beam="2">0</pdfrwt>
<totfact> 0.69452437E-05</totfact>
</mgrwt>
<clustering>
<clus scale="   39.333">  1  6  2 -1</clus>
<clus scale="  458.992">  4  5 -1 -1</clus>
<clus scale="  300.000">  1  4  2 -1</clus>
</clustering>
</event>
<event>
 6    1  0.9678510E-012  0.3000000E+03  0.7818608E-02  0.1093470E+00
          1   -1    0    0  502    0  0.00000000000E+00  0.00000000000E+00  0.26071357671E+03  0.26071357671E+03  0.00000000000E+00 0.  1.
         13   -1    0    0    0    0 -0.00000000000E+00 -0.00000000000E+00 -0.27500000000E+03  0.27500000000E+03  0.00000000000E+00 0.  1.
    9000005    2    1    2  501    0 -0.11458347856E+01 -0.33156048116E+02 -0.70747118901E+02  0.47022734447E+03  0.46368951270E+03 0.  0.
         13    1    3    3    0    0 -0.89412168796E+02 -0.10348344550E+02  0.18118336014E+03  0.20230925376E+03  0.00000000000E+00 0.  1.
          1    1    3    3  501    0  0.88266334010E+02 -0.22807703566E+02 -0.25193047904E+03  0.26791809071E+03  0.00000000000E+00 0.  1.
         21    1    1    2  502  501  0.11458347856E+01  0.33156048116E+02  0.56460695606E+02  0.65486232235E+02  0.00000000000E+00 0.  1.
<scales pt_clust_4="550.00000" pt_clust_5="550.00000" pt_clust_6="33.17584"></scales>
<mgrwt>
<rscale>  0 0.30000000E+03</rscale>
<asrwt>  1 0.33175842E+02</asrwt>
<pdfrwt beam="1">  1        1 0.94804937E+00 0.30000000E+03</pdfrwt>
<pdfrwt beam="2">0</pdfrwt>
<totfact> 0.13661890E-05</totfact>
</mgrwt>
<clustering>
<clus scale="   33.176">  1  6  2 -1</clus>
<clus scale="  463.690">  4  5 -1 -1</clus>
<clus scale="  300.000">  1  4  2 -1</clus>
</clustering>
</event>
<event>
 6    1  0.9678510E-012  0.3000000E+03  0.7818608E-02  0.1093470E+00
          1   -1    0    0  502    0  0.00000000000E+00  0.00000000000E+00  0.23100057132E+03  0.23100057132E+03  0.00000000000E+00 0.  1.
         13   -1    0    0    0    0 -0.00000000000E+00 -0.00000000000E+00 -0.27500000000E+03  0.27500000000E+03  0.00000000000E+00 0.  1.
    9000005    2    1    2  501    0 -0.30546948927E+02 -0.82325960117E+01 -0.61492977952E+02  0.46984927823E+03  0.46473225215E+03 0.  0.
         13    1    3    3    0    0  0.13354648081E+03 -0.13725224152E+03 -0.14986608903E+03  0.24317213035E+03  0.00000000000E+00 0.  1.
          1    1    3    3  501    0 -0.16409342974E+03  0.12901964551E+03  0.88373111076E+02  0.22667714788E+03  0.00000000000E+00 0.  1.
         21    1    1    2  502  501  0.30546948927E+02  0.82325960117E+01  0.17493549275E+02  0.36151293090E+02  0.00000000000E+00 0.  1.
<scales pt_clust_4="550.00000" pt_clust_5="550.00000" pt_clust_6="31.63687"></scales>
<mgrwt>
<rscale>  0 0.30000000E+03</rscale>
<asrwt>  1 0.31636873E+02</asrwt>
<pdfrwt beam="1">  1        1 0.84000208E+00 0.30000000E+03</pdfrwt>
<pdfrwt beam="2">0</pdfrwt>
<totfact> 0.50659496E-04</totfact>
</mgrwt>
<clustering>
<clus scale="   31.637">  1  6  2 -1</clus>
<clus scale="  464.732">  4  5 -1 -1</clus>
<clus scale="  300.000">  1  4  2 -1</clus>
</clustering>
</event>
<event>
 6    1  0.9678510E-012  0.3000000E+03  0.7818608E-02  0.1093470E+00
          1   -1    0    0  502    0  0.00000000000E+00  0.00000000000E+00  0.23589135994E+03  0.23589135994E+03  0.00000000000E+00 0.  1.
         13   -1    0    0    0    0 -0.00000000000E+00 -0.00000000000E+00 -0.27500000000E+03  0.27500000000E+03  0.00000000000E+00 0.  1.
    9000005    2    1    2  501    0 -0.31434570587E+02  0.12769069746E+02 -0.52856756178E+02  0.47428272617E+03  0.47010539913E+03 0.  0.
         13    1    3    3    0    0  0.21192453976E+03 -0.31339680162E+02  0.23315462171E+02  0.21549430823E+03  0.00000000000E+00 0.  1.
          3    1    3    3  501    0 -0.24335911035E+03  0.44108749908E+02 -0.76172218349E+02  0.25878841793E+03  0.00000000000E+00 0.  1.
         21    1    1    2  502  501  0.31434570587E+02 -0.12769069746E+02  0.13748116122E+02  0.36608633778E+02  0.00000000000E+00 0.  1.
<scales pt_clust_4="550.00000" pt_clust_5="550.00000" pt_clust_6="33.92906"></scales>
<mgrwt>
<rscale>  0 0.30000000E+03</rscale>
<asrwt>  1 0.33929064E+02</asrwt>
<pdfrwt beam="1">  1        1 0.85778676E+00 0.30000000E+03</pdfrwt>
<pdfrwt beam="2">0</pdfrwt>
<totfact> 0.34331549E-04</totfact>
</mgrwt>
<clustering>
<clus scale="   33.929">  1  6  2 -1</clus>
<clus scale="  470.105">  4  5 -1 -1</clus>
<clus scale="  300.000">  1  4  2 -1</clus>
</clustering>
</event>
<event>
 6    1  0.9678510E-012  0.3000000E+03  0.7818608E-02  0.1093470E+00
          1   -1    0    0  502    0  0.00000000000E+00  0.00000000000E+00  0.24624310204E+03  0.24624310204E+03  0.00000000000E+00 0.  1.
         13   -1    0    0    0    0 -0.00000000000E+00 -0.00000000000E+00 -0.27500000000E+03  0.27500000000E+03  0.00000000000E+00 0.  1.
    9000005    2    1    2  501    0  0.26953576499E+01  0.31095529427E+02 -0.39801148371E+02  0.48813460811E+03  0.48550702087E+03 0.  0.
         13    1    3    3    0    0 -0.18416096242E+03 -0.13795030379E+03  0.13831269377E+02  0.23051431715E+03  0.00000000000E+00 0.  1.
          1    1    3    3  501    0  0.18685632007E+03  0.16904583322E+03 -0.53632417748E+02  0.25762029096E+03  0.00000000000E+00 0.  1.
         21    1    1    2  502  501 -0.26953576499E+01 -0.31095529427E+02  0.11044250406E+02  0.33108493929E+02  0.00000000000E+00 0.  1.
<scales pt_clust_4="550.00000" pt_clust_5="550.00000" pt_clust_6="31.21213"></scales>
<mgrwt>
<rscale>  0 0.30000000E+03</rscale>
<asrwt>  1 0.31212128E+02</asrwt>
<pdfrwt beam="1">  1        1 0.89542946E+00 0.30000000E+03</pdfrwt>
<pdfrwt beam="2">0</pdfrwt>
<totfact> 0.12743438E-04</totfact>
</mgrwt>
<clustering>
<clus scale="   31.212">  1  6  2 -1</clus>
<clus scale="  485.507">  4  5 -1 -1</clus>
<clus scale="  300.000">  1  4  2 -1</clus>
</clustering>
</event>
<event>
 6    1  0.9678510E-012  0.3000000E+03  0.7818608E-02  0.1093470E+00
          1   -1    0    0  502    0  0.00000000000E+00  0.00000000000E+00  0.23249998015E+03  0.23249998015E+03  0.00000000000E+00 0.  1.
         13   -1    0    0    0    0 -0.00000000000E+00 -0.00000000000E+00 -0.27500000000E+03  0.27500000000E+03  0.00000000000E+00 0.  1.
    9000005    2    1    2  501    0  0.58257644052E+01  0.32523484990E+02 -0.47421988957E+02  0.47409425629E+03  0.47055796901E+03 0.  0.
         13    1    3    3    0    0  0.21041522595E+03  0.82725152269E+02  0.65085037747E+02  0.23527447857E+03  0.00000000000E+00 0.  1.
          1    1    3    3  501    0 -0.20458946154E+03 -0.50201667279E+02 -0.11250702670E+03  0.23881977772E+03  0.00000000000E+00 0.  1.
         21    1    1    2  502  501 -0.58257644052E+01 -0.32523484990E+02  0.49219691036E+01  0.33405723860E+02  0.00000000000E+00 0. -1.
<scales pt_clust_4="550.00000" pt_clust_5="550.00000" pt_clust_6="33.04114"></scales>
<mgrwt>
<rscale>  0 0.30000000E+03</rscale>
<asrwt>  1 0.33041135E+02</asrwt>
<pdfrwt beam="1">  1        1 0.84545447E+00 0.30000000E+03</pdfrwt>
<pdfrwt beam="2">0</pdfrwt>
<totfact> 0.45257055E-04</totfact>
</mgrwt>
<clustering>
<clus scale="   33.041">  1  6  2 -1</clus>
<clus scale="  470.558">  4  5 -1 -1</clus>
<clus scale="  300.000">  1  4  2 -1</clus>
</clustering>
</event>
<event>
 6    1  0.9678510E-012  0.3000000E+03  0.7818608E-02  0.1093470E+00
          1   -1    0    0  502    0  0.00000000000E+00  0.00000000000E+00  0.21945405907E+03  0.21945405907E+03  0.00000000000E+00 0.  1.
         13   -1    0    0    0    0 -0.00000000000E+00 -0.00000000000E+00 -0.27500000000E+03  0.27500000000E+03  0.00000000000E+00 0.  1.
    9000005    2    1    2  501    0  0.14252306981E+02  0.27774581120E+02 -0.56560112064E+02  0.46321971654E+03  0.45869260284E+03 0.  0.
         13    1    3    3    0    0  0.64909672458E+02 -0.16073432075E+03 -0.16551384926E+03  0.23967399054E+03  0.00000000000E+00 0.  1.
          1    1    3    3  501    0 -0.50657365477E+02  0.18850890187E+03  0.10895373720E+03  0.22354572599E+03  0.00000000000E+00 0.  1.
         21    1    1    2  502  501 -0.14252306981E+02 -0.27774581120E+02  0.10141711390E+01  0.31234342538E+02  0.00000000000E+00 0. -1.
<scales pt_clust_4="550.00000" pt_clust_5="550.00000" pt_clust_6="31.21787"></scales>
<mgrwt>
<rscale>  0 0.30000000E+03</rscale>
<asrwt>  1 0.31217873E+02</asrwt>
<pdfrwt beam="1">  1        1 0.79801476E+00 0.30000000E+03</pdfrwt>
<pdfrwt beam="2">0</pdfrwt>
<totfact> 0.10953575E-03</totfact>
</mgrwt>
<clustering>
<clus scale="   31.218">  1  6  2 -1</clus>
<clus scale="  458.693">  4  5 -1 -1</clus>
<clus scale="  300.000">  1  4  2 -1</clus>
</clustering>
</event>
<event>
 6    1  0.9678510E-012  0.3000000E+03  0.7818608E-02  0.1093470E+00
          1   -1    0    0  502    0  0.00000000000E+00  0.00000000000E+00  0.25288850614E+03  0.25288850614E+03  0.00000000000E+00 0.  1.
         13   -1    0    0    0    0 -0.00000000000E+00 -0.00000000000E+00 -0.27500000000E+03  0.27500000000E+03  0.00000000000E+00 0.  1.
    9000005    2    1    2  501    0 -0.28669647772E+02 -0.13922255394E+02 -0.59488425702E+02  0.47876811391E+03  0.47398761187E+03 0.  0.
         13    1    3    3    0    0  0.15473135488E+03  0.33712264897E+01  0.13895980577E+03  0.20799756001E+03  0.00000000000E+00 0.  1.
          1    1    3    3  501    0 -0.18340100265E+03 -0.17293481884E+02 -0.19844823147E+03  0.27077055391E+03  0.00000000000E+00 0.  1.
         21    1    1    2  502  501  0.28669647772E+02  0.13922255394E+02  0.37376931846E+02  0.49120392230E+02  0.00000000000E+00 0.  1.
<scales pt_clust_4="550.00000" pt_clust_5="550.00000" pt_clust_6="31.87127"></scales>
<mgrwt>
<rscale>  0 0.30000000E+03</rscale>
<asrwt>  1 0.31871271E+02</asrwt>
<pdfrwt beam="1">  1        1 0.91959457E+00 0.30000000E+03</pdfrwt>
<pdfrwt beam="2">0</pdfrwt>
<totfact> 0.43418618E-05</totfact>
</mgrwt>
<clustering>
<clus scale="   31.871">  1  6  2 -1</clus>
<clus scale="  473.988">  4  5 -1 -1</clus>
<clus scale="  300.000">  1  4  2 -1</clus>
</clustering>
</event>
<event>
 6    1  0.9678510E-012  0.3000000E+03  0.7818608E-02  0.1093470E+00
          1   -1    0    0  502    0  0.00000000000E+00  0.00000000000E+00  0.24326304903E+03  0.24326304903E+03  0.00000000000E+00 0.  1.
         13   -1    0    0    0    0 -0.00000000000E+00 -0.00000000000E+00 -0.27500000000E+03  0.27500000000E+03  0.00000000000E+00 0.  1.
    9000005    2    1    2  501    0  0.61393539310E+01 -0.35255889310E+02 -0.47761591161E+02  0.47905261048E+03  0.47532048622E+03 0.  0.
         13    1    3    3    0    0  0.12915377119E+03 -0.19088969996E+03 -0.12964541071E+03  0.26443809612E+03  0.00000000000E+00 0.  1.
          3    1    3    3  501    0 -0.12301441726E+03  0.15563381065E+03  0.81883819545E+02  0.21461451436E+03  0.00000000000E+00 0.  1.
         21    1    1    2  502  501 -0.61393539310E+01  0.35255889310E+02  0.16024640191E+02  0.39210438546E+02  0.00000000000E+00 0. -1.
<scales pt_clust_4="550.00000" pt_clust_5="550.00000" pt_clust_6="35.78644"></scales>
<mgrwt>
<rscale>  0 0.30000000E+03</rscale>
<asrwt>  1 0.35786442E+02</asrwt>
<pdfrwt beam="1">  1        1 0.88459291E+00 0.30000000E+03</pdfrwt>
<pdfrwt beam="2">0</pdfrwt>
<totfact> 0.17118526E-04</totfact>
</mgrwt>
<clustering>
<clus scale="   35.786">  1  6  2 -1</clus>
<clus scale="  475.320">  4  5 -1 -1</clus>
<clus scale="  300.000">  1  4  2 -1</clus>
</clustering>
</event>
<event>
 6    1  0.9678510E-012  0.3000000E+03  0.7818608E-02  0.1093470E+00
          1   -1    0    0  502    0  0.00000000000E+00  0.00000000000E+00  0.22272424260E+03  0.22272424260E+03  0.00000000000E+00 0.  1.
         13   -1    0    0    0    0 -0.00000000000E+00 -0.00000000000E+00 -0.27500000000E+03  0.27500000000E+03  0.00000000000E+00 0.  1.
    9000005    2    1    2  501    0 -0.28450661095E+02  0.11378007022E+02 -0.53917559242E+02  0.46703882792E+03  0.46290308319E+03 0.  0.
         13    1    3    3    0    0  0.21634176081E+02  0.52358445454E+02 -0.25218886875E+03  0.25847373156E+03  0.00000000000E+00 0.  1.
          1    1    3    3  501    0 -0.50084837177E+02 -0.40980438432E+02  0.19827130950E+03  0.20856509636E+03  0.00000000000E+00 0.  1.
         21    1    1    2  502  501  0.28450661095E+02 -0.11378007022E+02  0.16418018371E+01  0.30685414676E+02  0.00000000000E+00 0. -1.
<scales pt_clust_4="550.00000" pt_clust_5="550.00000" pt_clust_6="30.64146"></scales>
<mgrwt>
<rscale>  0 0.30000000E+03</rscale>
<asrwt>  1 0.30641461E+02</asrwt>
<pdfrwt beam="1">  1        1 0.80990634E+00 0.30000000E+03</pdfrwt>
<pdfrwt beam="2">0</pdfrwt>
<totfact> 0.89589684E-04</totfact>
</mgrwt>
<clustering>
<clus scale="   30.641">  1  6  2 -1</clus>
<clus scale="  462.903">  4  5 -1 -1</clus>
<clus scale="  300.000">  1  4  2 -1</clus>
</clustering>
</event>
<event>
 6    1  0.9678510E-012  0.3000000E+03  0.7818608E-02  0.1093470E+00
          1   -1    0    0  502    0  0.00000000000E+00  0.00000000000E+00  0.22259973771E+03  0.22259973771E+03  0.00000000000E+00 0.  1.
         13   -1    0    0    0    0 -0.00000000000E+00 -0.00000000000E+00 -0.27500000000E+03  0.27500000000E+03  0.00000000000E+00 0.  1.
    9000005    2    1    2  501    0  0.29458690613E+02 -0.21447801205E+02 -0.55303514227E+02  0.46104496372E+03  0.45626325434E+03 0.  0.
         13    1    3    3    0    0 -0.59202716427E+02  0.16047962629E+03 -0.15909345078E+03  0.23360093786E+03  0.00000000000E+00 0.  1.
          1    1    3    3  501    0  0.88661407040E+02 -0.18192742750E+03  0.10378993655E+03  0.22744402587E+03  0.00000000000E+00 0.  1.
         21    1    1    2  502  501 -0.29458690613E+02  0.21447801205E+02  0.29032519342E+01  0.36554773983E+02  0.00000000000E+00 0. -1.
<scales pt_clust_4="550.00000" pt_clust_5="550.00000" pt_clust_6="36.43930"></scales>
<mgrwt>
<rscale>  0 0.30000000E+03</rscale>
<asrwt>  1 0.36439301E+02</asrwt>
<pdfrwt beam="1">  1        1 0.80945359E+00 0.30000000E+03</pdfrwt>
<pdfrwt beam="2">0</pdfrwt>
<totfact> 0.87414114E-04</totfact>
</mgrwt>
<clustering>
<clus scale="   36.439">  1  6  2 -1</clus>
<clus scale="  456.263">  4  5 -1 -1</clus>
<clus scale="  300.000">  1  4  2 -1</clus>
</clustering>
</event>
<event>
 6    1  0.9678510E-012  0.3000000E+03  0.7818608E-02  0.1093470E+00
          1   -1    0    0  502    0  0.00000000000E+00  0.00000000000E+00  0.23055064055E+03  0.23055064055E+03  0.00000000000E+00 0.  1.
         13   -1    0    0    0    0 -0.00000000000E+00 -0.00000000000E+00 -0.27500000000E+03  0.27500000000E+03  0.00000000000E+00 0.  1.
    9000005    2    1    2  501    0  0.58784063037E+01 -0.29926075748E+02 -0.65956584174E+02  0.46823192694E+03  0.46255890515E+03 0.  0.
         13    1    3    3    0    0  0.19084501873E+03  0.71745052358E-01  0.10217613426E+03  0.21647583868E+03  0.00000000000E+00 0.  1.
          1    1    3    3  501    0 -0.18496661243E+03 -0.29997820800E+02 -0.16813271843E+03  0.25175608825E+03  0.00000000000E+00 0.  1.
         21    1    1    2  502  501 -0.58784063037E+01  0.29926075748E+02  0.21507224722E+02  0.37318713611E+02  0.00000000000E+00 0.  1.
<scales pt_clust_4="550.00000" pt_clust_5="550.00000" pt_clust_6="30.49796"></scales>
<mgrwt>
<rscale>  0 0.30000000E+03</rscale>
<asrwt>  1 0.30497962E+02</asrwt>
<pdfrwt beam="1">  1        1 0.83836597E+00 0.30000000E+03</pdfrwt>
<pdfrwt beam="2">0</pdfrwt>
<totfact> 0.52480460E-04</totfact>
</mgrwt>
<clustering>
<clus scale="   30.498">  1  6  2 -1</clus>
<clus scale="  462.559">  4  5 -1 -1</clus>
<clus scale="  300.000">  1  4  2 -1</clus>
</clustering>
</event>
<event>
 6    1  0.9678510E-012  0.3000000E+03  0.7818608E-02  0.1093470E+00
          1   -1    0    0  502    0  0.00000000000E+00  0.00000000000E+00  0.21763022641E+03  0.21763022641E+03  0.00000000000E+00 0.  1.
         13   -1    0    0    0    0 -0.00000000000E+00 -0.00000000000E+00 -0.27500000000E+03  0.27500000000E+03  0.00000000000E+00 0.  1.
    9000005    2    1    2  501    0 -0.30412865592E+02  0.10692754522E+01 -0.55455021112E+02  0.46213839111E+03  0.45778875852E+03 0.  0.
         13    1    3    3    0    0  0.18239844518E+03 -0.11090334228E+03  0.73702596733E+01  0.21359556377E+03  0.00000000000E+00 0.  1.
          3    1    3    3  501    0 -0.21281131077E+03  0.11197261773E+03 -0.62825280786E+02  0.24854282734E+03  0.00000000000E+00 0.  1.
         21    1    1    2  502  501  0.30412865592E+02 -0.10692754522E+01 -0.19147524729E+01  0.30491835309E+02  0.00000000000E+00 0.  1.
<scales pt_clust_4="550.00000" pt_clust_5="550.00000" pt_clust_6="30.43166"></scales>
<mgrwt>
<rscale>  0 0.30000000E+03</rscale>
<asrwt>  1 0.30431657E+02</asrwt>
<pdfrwt beam="1">  1        1 0.79138264E+00 0.30000000E+03</pdfrwt>
<pdfrwt beam="2">0</pdfrwt>
<totfact> 0.12348514E-03</totfact>
</mgrwt>
<clustering>
<clus scale="   30.432">  1  6  2 -1</clus>
<clus scale="  457.789">  4  5 -1 -1</clus>
<clus scale="  300.000">  1  4  2 -1</clus>
</clustering>
</event>
<event>
 6    1  0.9678510E-012  0.3000000E+03  0.7818608E-02  0.1093470E+00
          1   -1    0    0  502    0  0.00000000000E+00  0.00000000000E+00  0.21937903688E+03  0.21937903688E+03  0.00000000000E+00 0.  1.
         13   -1    0    0    0    0 -0.00000000000E+00 -0.00000000000E+00 -0.27500000000E+03  0.27500000000E+03  0.00000000000E+00 0.  1.
    9000005    2    1    2  501    0 -0.66936204512E+01 -0.29944920001E+02 -0.62192486366E+02  0.46299930287E+03  0.45777608753E+03 0.  0.
         13    1    3    3    0    0  0.19500558264E+03  0.26706988554E+02  0.77130045661E+02  0.21139887521E+03  0.00000000000E+00 0.  1.
          3    1    3    3  501    0 -0.20169920309E+03 -0.56651908555E+02 -0.13932253203E+03  0.25160042766E+03  0.00000000000E+00 0.  1.
         21    1    1    2  502  501  0.66936204512E+01  0.29944920001E+02  0.65715232461E+01  0.31379734008E+02  0.00000000000E+00 0.  1.
<scales pt_clust_4="550.00000" pt_clust_5="550.00000" pt_clust_6="30.68392"></scales>
<mgrwt>
<rscale>  0 0.30000000E+03</rscale>
<asrwt>  1 0.30683917E+02</asrwt>
<pdfrwt beam="1">  1        1 0.79774195E+00 0.30000000E+03</pdfrwt>
<pdfrwt beam="2">0</pdfrwt>
<totfact> 0.11040145E-03</totfact>
</mgrwt>
<clustering>
<clus scale="   30.684">  1  6  2 -1</clus>
<clus scale="  457.776">  4  5 -1 -1</clus>
<clus scale="  300.000">  1  4  2 -1</clus>
</clustering>
</event>
<event>
 6    1  0.9678510E-012  0.3000000E+03  0.7818608E-02  0.1093470E+00
          1   -1    0    0  502    0  0.00000000000E+00  0.00000000000E+00  0.24003459749E+03  0.24003459749E+03  0.00000000000E+00 0.  1.
         13   -1    0    0    0    0 -0.00000000000E+00 -0.00000000000E+00 -0.27500000000E+03  0.27500000000E+03  0.00000000000E+00 0.  1.
    9000005    2    1    2  501    0  0.27281064781E+01  0.38155133322E+02 -0.44171202415E+02  0.47568992167E+03  0.47208743861E+03 0.  0.
         13    1    3    3    0    0  0.14262530350E+03 -0.16510143931E+03 -0.66102837029E+02  0.22796940041E+03  0.00000000000E+00 0.  1.
          1    1    3    3  501    0 -0.13989719702E+03  0.20325657263E+03  0.21931634614E+02  0.24772052125E+03  0.00000000000E+00 0.  1.
         21    1    1    2  502  501 -0.27281064781E+01 -0.38155133322E+02  0.92057999071E+01  0.39344675824E+02  0.00000000000E+00 0.  1.
<scales pt_clust_4="550.00000" pt_clust_5="550.00000" pt_clust_6="38.25254"></scales>
<mgrwt>
<rscale>  0 0.30000000E+03</rscale>
<asrwt>  1 0.38252539E+02</asrwt>
<pdfrwt beam="1">  1        1 0.87285308E+00 0.30000000E+03</pdfrwt>
<pdfrwt beam="2">0</pdfrwt>
<totfact> 0.23293040E-04</totfact>
</mgrwt>
<clustering>
<clus scale="   38.253">  1  6  2 -1</clus>
<clus scale="  472.087">  4  5 -1 -1</clus>
<clus scale="  300.000">  1  4  2 -1</clus>
</clustering>
</event>
<event>
 6    1  0.9678510E-012  0.3000000E+03  0.7818608E-02  0.1093470E+00
          1   -1    0    0  502    0  0.00000000000E+00  0.00000000000E+00  0.23479348711E+03  0.23479348711E+03  0.00000000000E+00 0.  1.
         13   -1    0    0    0    0 -0.00000000000E+00 -0.00000000000E+00 -0.27500000000E+03  0.27500000000E+03  0.00000000000E+00 0.  1.
    9000005    2    1    2  501    0 -0.31844863226E+02  0.24702476121E+02 -0.60379613769E+02  0.46472396704E+03  0.45901891044E+03 0.  0.
         13    1    3    3    0    0 -0.37269354554E+02  0.70887438198E+02  0.19203263030E+03  0.20806384785E+03  0.00000000000E+00 0.  1.
          3    1    3    3  501    0  0.54244913282E+01 -0.46184962077E+02 -0.25241224407E+03  0.25666011919E+03  0.00000000000E+00 0.  1.
         21    1    1    2  502  501  0.31844863226E+02 -0.24702476121E+02  0.20173100880E+02  0.45069520072E+02  0.00000000000E+00 0. -1.
<scales pt_clust_4="550.00000" pt_clust_5="550.00000" pt_clust_6="40.30270"></scales>
<mgrwt>
<rscale>  0 0.30000000E+03</rscale>
<asrwt>  1 0.40302700E+02</asrwt>
<pdfrwt beam="1">  1        1 0.85379450E+00 0.30000000E+03</pdfrwt>
<pdfrwt beam="2">0</pdfrwt>
<totfact> 0.36475430E-04</totfact>
</mgrwt>
<clustering>
<clus scale="   40.303">  1  6  2 -1</clus>
<clus scale="  459.019">  4  5 -1 -1</clus>
<clus scale="  300.000">  1  4  2 -1</clus>
</clustering>
</event>
<event>
 6    1  0.9678510E-012  0.3000000E+03  0.7818608E-02  0.1093470E+00
          1   -1    0    0  502    0  0.00000000000E+00  0.00000000000E+00  0.24717745609E+03  0.24717745609E+03  0.00000000000E+00 0.  1.
         13   -1    0    0    0    0 -0.00000000000E+00 -0.00000000000E+00 -0.27500000000E+03  0.27500000000E+03  0.00000000000E+00 0.  1.
    9000005    2    1    2  501    0  0.16556301335E+02  0.27125643163E+02 -0.53699503172E+02  0.48119540329E+03  0.47713254749E+03 0.  0.
         13    1    3    3    0    0  0.14469767381E+03 -0.96469224251E+02  0.13619869618E+03  0.22089321600E+03  0.00000000000E+00 0.  1.
          3    1    3    3  501    0 -0.12814137247E+03  0.12359486741E+03 -0.18989819936E+03  0.26030218729E+03  0.00000000000E+00 0.  1.
         21    1    1    2  502  501 -0.16556301335E+02 -0.27125643163E+02  0.25876959263E+02  0.40982052799E+02  0.00000000000E+00 0.  1.
<scales pt_clust_4="550.00000" pt_clust_5="550.00000" pt_clust_6="31.77911"></scales>
<mgrwt>
<rscale>  0 0.30000000E+03</rscale>
<asrwt>  1 0.31779107E+02</asrwt>
<pdfrwt beam="1">  1        1 0.89882711E+00 0.30000000E+03</pdfrwt>
<pdfrwt beam="2">0</pdfrwt>
<totfact> 0.11622874E-04</totfact>
</mgrwt>
<clustering>
<clus scale="   31.779">  1  6  2 -1</clus>
<clus scale="  477.133">  4  5 -1 -1</clus>
<clus scale="  300.000">  1  4  2 -1</clus>
</clustering>
</event>
<event>
 6    1  0.9678510E-012  0.3000000E+03  0.7818608E-02  0.1093470E+00
          1   -1    0    0  502    0  0.00000000000E+00  0.00000000000E+00  0.23678309459E+03  0.23678309459E+03  0.00000000000E+00 0.  1.
         13   -1    0    0    0    0 -0.00000000000E+00 -0.00000000000E+00 -0.27500000000E+03  0.27500000000E+03  0.00000000000E+00 0.  1.
    9000005    2    1    2  501    0 -0.23870050369E+02 -0.27794198704E+02 -0.57648425099E+02  0.47031164967E+03  0.46532505855E+03 0.  0.
         13    1    3    3    0    0  0.14656066916E+03  0.10125196751E+03  0.10037836405E+03  0.20446957387E+03  0.00000000000E+00 0.  1.
          1    1    3    3  501    0 -0.17043071953E+03 -0.12904616622E+03 -0.15802678915E+03  0.26584207580E+03  0.00000000000E+00 0.  1.
         21    1    1    2  502  501  0.23870050369E+02  0.27794198704E+02  0.19431519685E+02  0.41471444917E+02  0.00000000000E+00 0. -1.
<scales pt_clust_4="550.00000" pt_clust_5="550.00000" pt_clust_6="36.63737"></scales>
<mgrwt>
<rscale>  0 0.30000000E+03</rscale>
<asrwt>  1 0.36637369E+02</asrwt>
<pdfrwt beam="1">  1        1 0.86102943E+00 0.30000000E+03</pdfrwt>
<pdfrwt beam="2">0</pdfrwt>
<totfact> 0.31267911E-04</totfact>
</mgrwt>
<clustering>
<clus scale="   36.637">  1  6  2 -1</clus>
<clus scale="  465.325">  4  5 -1 -1</clus>
<clus scale="  300.000">  1  4  2 -1</clus>
</clustering>
</event>
<event>
 6    1  0.9678510E-012  0.3000000E+03  0.7818608E-02  0.1093470E+00
          1   -1    0    0  502    0  0.00000000000E+00  0.00000000000E+00  0.24822136766E+03  0.24822136766E+03  0.00000000000E+00 0.  1.
         13   -1    0    0    0    0 -0.00000000000E+00 -0.00000000000E+00 -0.27500000000E+03  0.27500000000E+03  0.00000000000E+00 0.  1.
    9000005    2    1    2  501    0 -0.14570438171E+02  0.30016134141E+02 -0.76056817628E+02  0.46370997780E+03  0.45621161540E+03 0.  0.
         13    1    3    3    0    0 -0.23105770316E+03  0.27261531274E+02  0.45005008024E+01  0.23270390582E+03  0.00000000000E+00 0.  1.
          3    1    3    3  501    0  0.21648726499E+03  0.27546028668E+01 -0.80557318431E+02  0.23100607198E+03  0.00000000000E+00 0.  1.
         21    1    1    2  502  501  0.14570438171E+02 -0.30016134141E+02  0.49278185284E+02  0.59511389852E+02  0.00000000000E+00 0.  1.
<scales pt_clust_4="550.00000" pt_clust_5="550.00000" pt_clust_6="33.36564"></scales>
<mgrwt>
<rscale>  0 0.30000000E+03</rscale>
<asrwt>  1 0.33365641E+02</asrwt>
<pdfrwt beam="1">  1        1 0.90262316E+00 0.30000000E+03</pdfrwt>
<pdfrwt beam="2">0</pdfrwt>
<totfact> 0.10250516E-04</totfact>
</mgrwt>
<clustering>
<clus scale="   33.366">  1  6  2 -1</clus>
<clus scale="  456.212">  4  5 -1 -1</clus>
<clus scale="  300.000">  1  4  2 -1</clus>
</clustering>
</event>
<event>
 6    1  0.9678510E-012  0.3000000E+03  0.7818608E-02  0.1093470E+00
          1   -1    0    0  502    0  0.00000000000E+00  0.00000000000E+00  0.23118056944E+03  0.23118056944E+03  0.00000000000E+00 0.  1.
         13   -1    0    0    0    0 -0.00000000000E+00 -0.00000000000E+00 -0.27500000000E+03  0.27500000000E+03  0.00000000000E+00 0.  1.
    9000005    2    1    2  501    0  0.26961248060E+02  0.24070362942E+02 -0.35531053346E+02  0.46909973253E+03  0.46635374131E+03 0.  0.
         13    1    3    3    0    0  0.19660337610E+03  0.14830353648E+03  0.31811060914E+02  0.24831184028E+03  0.00000000000E+00 0.  1.
          1    1    3    3  501    0 -0.16964212804E+03 -0.12423317353E+03 -0.67342114260E+02  0.22078789225E+03  0.00000000000E+00 0.  1.
         21    1    1    2  502  501 -0.26961248060E+02 -0.24070362942E+02 -0.82883772144E+01  0.37080836910E+02  0.00000000000E+00 0.  1.
<scales pt_clust_4="550.00000" pt_clust_5="550.00000" pt_clust_6="36.14267"></scales>
<mgrwt>
<rscale>  0 0.30000000E+03</rscale>
<asrwt>  1 0.36142670E+02</asrwt>
<pdfrwt beam="1">  1        1 0.84065662E+00 0.30000000E+03</pdfrwt>
<pdfrwt beam="2">0</pdfrwt>
<totfact> 0.48831511E-04</totfact>
</mgrwt>
<clustering>
<clus scale="   36.143">  1  6  2 -1</clus>
<clus scale="  466.354">  4  5 -1 -1</clus>
<clus scale="  300.000">  1  4  2 -1</clus>
</clustering>
</event>
<event>
 6    1  0.9678510E-012  0.3000000E+03  0.7818608E-02  0.1093470E+00
          1   -1    0    0  502    0  0.00000000000E+00  0.00000000000E+00  0.23992711225E+03  0.23992711225E+03  0.00000000000E+00 0.  1.
         13   -1    0    0    0    0 -0.00000000000E+00 -0.00000000000E+00 -0.27500000000E+03  0.27500000000E+03  0.00000000000E+00 0.  1.
    9000005    2    1    2  501    0 -0.25882367193E+02 -0.25569399448E+02 -0.39295417502E+02  0.47830033411E+03  0.47529295035E+03 0.  0.
         13    1    3    3    0    0 -0.12318628906E+03  0.49394394697E+01  0.19048958242E+03  0.22690425488E+03  0.00000000000E+00 0.  1.
          1    1    3    3  501    0  0.97303921865E+02 -0.30508838917E+02 -0.22978499992E+03  0.25139607923E+03  0.00000000000E+00 0.  1.
         21    1    1    2  502  501  0.25882367193E+02  0.25569399448E+02  0.42225297518E+01  0.36626778143E+02  0.00000000000E+00 0. -1.
<scales pt_clust_4="550.00000" pt_clust_5="550.00000" pt_clust_6="36.38257"></scales>
<mgrwt>
<rscale>  0 0.30000000E+03</rscale>
<asrwt>  1 0.36382566E+02</asrwt>
<pdfrwt beam="1">  1        1 0.87246223E+00 0.30000000E+03</pdfrwt>
<pdfrwt beam="2">0</pdfrwt>
<totfact> 0.23728038E-04</totfact>
</mgrwt>
<clustering>
<clus scale="   36.383">  1  6  2 -1</clus>
<clus scale="  475.293">  4  5 -1 -1</clus>
<clus scale="  300.000">  1  4  2 -1</clus>
</clustering>
</event>
<event>
 6    1  0.9678510E-012  0.3000000E+03  0.7818608E-02  0.1093470E+00
          1   -1    0    0  502    0  0.00000000000E+00  0.00000000000E+00  0.24653901907E+03  0.24653901907E+03  0.00000000000E+00 0.  1.
         13   -1    0    0    0    0 -0.00000000000E+00 -0.00000000000E+00 -0.27500000000E+03  0.27500000000E+03  0.00000000000E+00 0.  1.
    9000005    2    1    2  501    0 -0.33445644958E+02 -0.22379878744E+02 -0.32707046088E+02  0.48107299371E+03  0.47826980280E+03 0.  0.
         13    1    3    3    0    0  0.12049679119E+03 -0.15413900727E+03  0.11805823061E+03  0.22850832822E+03  0.00000000000E+00 0.  1.
          3    1    3    3  501    0 -0.15394243615E+03  0.13175912853E+03 -0.15076527670E+03  0.25256466549E+03  0.00000000000E+00 0.  1.
         21    1    1    2  502  501  0.33445644958E+02  0.22379878744E+02  0.42460651562E+01  0.40466025362E+02  0.00000000000E+00 0.  1.
<scales pt_clust_4="550.00000" pt_clust_5="550.00000" pt_clust_6="40.24264"></scales>
<mgrwt>
<rscale>  0 0.30000000E+03</rscale>
<asrwt>  1 0.40242641E+02</asrwt>
<pdfrwt beam="1">  1        1 0.89650552E+00 0.30000000E+03</pdfrwt>
<pdfrwt beam="2">0</pdfrwt>
<totfact> 0.11822056E-04</totfact>
</mgrwt>
<clustering>
<clus scale="   40.243">  1  6  2 -1</clus>
<clus scale="  478.270">  4  5 -1 -1</clus>
<clus scale="  300.000">  1  4  2 -1</clus>
</clustering>
</event>
<event>
 6    1  0.9678510E-012  0.3000000E+03  0.7818608E-02  0.1093470E+00
          1   -1    0    0  502    0  0.00000000000E+00  0.00000000000E+00  0.23046448311E+03  0.23046448311E+03  0.00000000000E+00 0.  1.
         13   -1    0    0    0    0 -0.00000000000E+00 -0.00000000000E+00 -0.27500000000E+03  0.27500000000E+03  0.00000000000E+00 0.  1.
    9000005    2    1    2  501    0  0.17129138407E+02 -0.25380635040E+02 -0.46145882807E+02  0.47480217244E+03  0.47156131779E+03 0.  0.
         13    1    3    3    0    0 -0.97747503057E+02 -0.75957205194E+02  0.17864442823E+03  0.21734282392E+03  0.00000000000E+00 0.  1.
          1    1    3    3  501    0  0.11487664146E+03  0.50576570154E+02 -0.22479031103E+03  0.25745934851E+03  0.00000000000E+00 0.  1.
         21    1    1    2  502  501 -0.17129138407E+02  0.25380635040E+02  0.16103659189E+01  0.30662310676E+02  0.00000000000E+00 0. -1.
<scales pt_clust_4="550.00000" pt_clust_5="550.00000" pt_clust_6="30.61999"></scales>
<mgrwt>
<rscale>  0 0.30000000E+03</rscale>
<asrwt>  1 0.30619994E+02</asrwt>
<pdfrwt beam="1">  1        1 0.83805267E+00 0.30000000E+03</pdfrwt>
<pdfrwt beam="2">0</pdfrwt>
<totfact> 0.52719487E-04</totfact>
</mgrwt>
<clustering>
<clus scale="   30.620">  1  6  2 -1</clus>
<clus scale="  471.561">  4  5 -1 -1</clus>
<clus scale="  300.000">  1  4  2 -1</clus>
</clustering>
</event>
<event>
 6    1  0.9678510E-012  0.3000000E+03  0.7818608E-02  0.1093470E+00
          1   -1    0    0  502    0  0.00000000000E+00  0.00000000000E+00  0.22523812306E+03  0.22523812306E+03  0.00000000000E+00 0.  1.
         13   -1    0    0    0    0 -0.00000000000E+00 -0.00000000000E+00 -0.27500000000E+03  0.27500000000E+03  0.00000000000E+00 0.  1.
    9000005    2    1    2  501    0 -0.28103769843E+02 -0.20369111183E+02 -0.59503723941E+02  0.46418779501E+03  0.45904781156E+03 0.  0.
         13    1    3    3    0    0 -0.18053551112E+03 -0.49312698963E+02  0.12352916576E+03  0.22424153908E+03  0.00000000000E+00 0.  1.
          1    1    3    3  501    0  0.15243174128E+03  0.28943587780E+02 -0.18303288970E+03  0.23994625593E+03  0.00000000000E+00 0.  1.
         21    1    1    2  502  501  0.28103769843E+02  0.20369111183E+02  0.97418470004E+01  0.36050328053E+02  0.00000000000E+00 0.  1.
<scales pt_clust_4="550.00000" pt_clust_5="550.00000" pt_clust_6="34.70911"></scales>
<mgrwt>
<rscale>  0 0.30000000E+03</rscale>
<asrwt>  1 0.34709114E+02</asrwt>
<pdfrwt beam="1">  1        1 0.81904772E+00 0.30000000E+03</pdfrwt>
<pdfrwt beam="2">0</pdfrwt>
<totfact> 0.73820350E-04</totfact>
</mgrwt>
<clustering>
<clus scale="   34.709">  1  6  2 -1</clus>
<clus scale="  459.048">  4  5 -1 -1</clus>
<clus scale="  300.000">  1  4  2 -1</clus>
</clustering>
</event>
<event>
 6    1  0.9678510E-012  0.3000000E+03  0.7818608E-02  0.1093470E+00
          1   -1    0    0  502    0  0.00000000000E+00  0.00000000000E+00  0.23704060804E+03  0.23704060804E+03  0.00000000000E+00 0.  1.
         13   -1    0    0    0    0 -0.00000000000E+00 -0.00000000000E+00 -0.27500000000E+03  0.27500000000E+03  0.00000000000E+00 0.  1.
    9000005    2    1    2  501    0 -0.33879876081E+02 -0.58433681777E+01 -0.54051252918E+02  0.47408090646E+03  0.46973309121E+03 0.  0.
         13    1    3    3    0    0 -0.60035308613E+02 -0.21762307618E+03 -0.11334329861E+03  0.25260788766E+03  0.00000000000E+00 0.  1.
          1    1    3    3  501    0  0.26155432532E+02  0.21177970801E+03  0.59292045694E+02  0.22147301880E+03  0.00000000000E+00 0.  1.
         21    1    1    2  502  501  0.33879876081E+02  0.58433681777E+01  0.16091860962E+02  0.37959701581E+02  0.00000000000E+00 0. -1.
<scales pt_clust_4="550.00000" pt_clust_5="550.00000" pt_clust_6="34.38010"></scales>
<mgrwt>
<rscale>  0 0.30000000E+03</rscale>
<asrwt>  1 0.34380095E+02</asrwt>
<pdfrwt beam="1">  1        1 0.86196585E+00 0.30000000E+03</pdfrwt>
<pdfrwt beam="2">0</pdfrwt>
<totfact> 0.30914254E-04</totfact>
</mgrwt>
<clustering>
<clus scale="   34.380">  1  6  2 -1</clus>
<clus scale="  469.733">  4  5 -1 -1</clus>
<clus scale="  300.000">  1  4  2 -1</clus>
</clustering>
</event>
<event>
 6    1  0.9678510E-012  0.3000000E+03  0.7818608E-02  0.1093470E+00
          1   -1    0    0  502    0  0.00000000000E+00  0.00000000000E+00  0.24136266743E+03  0.24136266743E+03  0.00000000000E+00 0.  1.
         13   -1    0    0    0    0 -0.00000000000E+00 -0.00000000000E+00 -0.27500000000E+03  0.27500000000E+03  0.00000000000E+00 0.  1.
    9000005    2    1    2  501    0  0.29200191910E+02 -0.70547607859E+01 -0.56208272825E+02  0.47878783275E+03  0.47452713094E+03 0.  0.
         13    1    3    3    0    0 -0.12705058685E+03  0.26889109557E+02 -0.21644835112E+03  0.25241783719E+03  0.00000000000E+00 0.  1.
          1    1    3    3  501    0  0.15625077876E+03 -0.33943870343E+02  0.16024007829E+03  0.22636999556E+03  0.00000000000E+00 0.  1.
         21    1    1    2  502  501 -0.29200191910E+02  0.70547607859E+01  0.22570940256E+02  0.37574834681E+02  0.00000000000E+00 0.  1.
<scales pt_clust_4="550.00000" pt_clust_5="550.00000" pt_clust_6="30.04032"></scales>
<mgrwt>
<rscale>  0 0.30000000E+03</rscale>
<asrwt>  1 0.30040321E+02</asrwt>
<pdfrwt beam="1">  1        1 0.87768243E+00 0.30000000E+03</pdfrwt>
<pdfrwt beam="2">0</pdfrwt>
<totfact> 0.21643450E-04</totfact>
</mgrwt>
<clustering>
<clus scale="   30.040">  1  6  2 -1</clus>
<clus scale="  474.527">  4  5 -1 -1</clus>
<clus scale="  300.000">  1  4  2 -1</clus>
</clustering>
</event>
<event>
 6    1  0.9678510E-012  0.3000000E+03  0.7818608E-02  0.1093470E+00
          1   -1    0    0  502    0  0.00000000000E+00  0.00000000000E+00  0.24376608332E+03  0.24376608332E+03  0.00000000000E+00 0.  1.
         13   -1    0    0    0    0 -0.00000000000E+00 -0.00000000000E+00 -0.27500000000E+03  0.27500000000E+03  0.00000000000E+00 0.  1.
    9000005    2    1    2  501    0 -0.27174487243E+02  0.21110439631E+02 -0.67157971064E+02  0.46902031866E+03  0.46291010231E+03 0.  0.
         13    1    3    3    0    0 -0.34612677159E+01  0.16016326161E+03 -0.21273702149E+03  0.26631051623E+03  0.00000000000E+00 0.  1.
          3    1    3    3  501    0 -0.23713219527E+02 -0.13905282198E+03  0.14557905042E+03  0.20270980243E+03  0.00000000000E+00 0.  1.
         21    1    1    2  502  501  0.27174487243E+02 -0.21110439631E+02  0.35924054387E+02  0.49745764664E+02  0.00000000000E+00 0. -1.
<scales pt_clust_4="550.00000" pt_clust_5="550.00000" pt_clust_6="34.41080"></scales>
<mgrwt>
<rscale>  0 0.30000000E+03</rscale>
<asrwt>  1 0.34410804E+02</asrwt>
<pdfrwt beam="1">  1        1 0.88642212E+00 0.30000000E+03</pdfrwt>
<pdfrwt beam="2">0</pdfrwt>
<totfact> 0.16274334E-04</totfact>
</mgrwt>
<clustering>
<clus scale="   34.411">  1  6  2 -1</clus>
<clus scale="  462.910">  4  5 -1 -1</clus>
<clus scale="  300.000">  1  4  2 -1</clus>
</clustering>
</event>
<event>
 6    1  0.9678510E-012  0.3000000E+03  0.7818608E-02  0.1093470E+00
          1   -1    0    0  502    0  0.00000000000E+00  0.00000000000E+00  0.21928612673E+03  0.21928612673E+03  0.00000000000E+00 0.  1.
         13   -1    0    0    0    0 -0.00000000000E+00 -0.00000000000E+00 -0.27500000000E+03  0.27500000000E+03  0.00000000000E+00 0.  1.
    9000005    2    1    2  501    0 -0.28572495912E+02  0.95434613038E+01 -0.40410594827E+02  0.46049773364E+03  0.45773101418E+03 0.  0.
         13    1    3    3    0    0 -0.13426533539E+03 -0.38806247639E+02 -0.21159492351E+03  0.25358532449E+03  0.00000000000E+00 0.  1.
          3    1    3    3  501    0  0.10569283948E+03  0.48349708942E+02  0.17118432868E+03  0.20691240915E+03  0.00000000000E+00 0.  1.
         21    1    1    2  502  501  0.28572495912E+02 -0.95434613038E+01 -0.15303278444E+02  0.33788393088E+02  0.00000000000E+00 0.  1.
<scales pt_clust_4="550.00000" pt_clust_5="550.00000" pt_clust_6="30.12418"></scales>
<mgrwt>
<rscale>  0 0.30000000E+03</rscale>
<asrwt>  1 0.30124178E+02</asrwt>
<pdfrwt beam="1">  1        1 0.79740410E+00 0.30000000E+03</pdfrwt>
<pdfrwt beam="2">0</pdfrwt>
<totfact> 0.11142264E-03</totfact>
</mgrwt>
<clustering>
<clus scale="   30.124">  1  6  2 -1</clus>
<clus scale="  457.731">  4  5 -1 -1</clus>
<clus scale="  300.000">  1  4  2 -1</clus>
</clustering>
</event>
<event>
 6    1  0.9678510E-012  0.3000000E+03  0.7818608E-02  0.1093470E+00
          1   -1    0    0  502    0  0.00000000000E+00  0.00000000000E+00  0.23052122996E+03  0.23052122996E+03  0.00000000000E+00 0.  1.
         13   -1    0    0    0    0 -0.00000000000E+00 -0.00000000000E+00 -0.27500000000E+03  0.27500000000E+03  0.00000000000E+00 0.  1.
    9000005    2    1    2  501    0 -0.14952223559E+01  0.30622766018E+02 -0.56646548657E+02  0.47253571306E+03  0.46812517467E+03 0.  0.
         13    1    3    3    0    0  0.96313792702E+02  0.20630232569E+03 -0.12553250112E+03  0.25999116348E+03  0.00000000000E+00 0.  1.
          3    1    3    3  501    0 -0.97809015058E+02 -0.17567955967E+03  0.68885952458E+02  0.21254454959E+03  0.00000000000E+00 0.  1.
         21    1    1    2  502  501  0.14952223559E+01 -0.30622766018E+02  0.12167778620E+02  0.32985516898E+02  0.00000000000E+00 0. -1.
<scales pt_clust_4="550.00000" pt_clust_5="550.00000" pt_clust_6="30.65925"></scales>
<mgrwt>
<rscale>  0 0.30000000E+03</rscale>
<asrwt>  1 0.30659248E+02</asrwt>
<pdfrwt beam="1">  1        1 0.83825902E+00 0.30000000E+03</pdfrwt>
<pdfrwt beam="2">0</pdfrwt>
<totfact> 0.52522639E-04</totfact>
</mgrwt>
<clustering>
<clus scale="   30.659">  1  6  2 -1</clus>
<clus scale="  468.125">  4  5 -1 -1</clus>
<clus scale="  300.000">  1  4  2 -1</clus>
</clustering>
</event>
<event>
 6    1  0.9678510E-012  0.3000000E+03  0.7818608E-02  0.1093470E+00
          1   -1    0    0  502    0  0.00000000000E+00  0.00000000000E+00  0.23014760844E+03  0.23014760844E+03  0.00000000000E+00 0.  1.
         13   -1    0    0    0    0 -0.00000000000E+00 -0.00000000000E+00 -0.27500000000E+03  0.27500000000E+03  0.00000000000E+00 0.  1.
    9000005    2    1    2  501    0 -0.34713703247E+01 -0.29805228065E+02 -0.37168038217E+02  0.47417259725E+03  0.47176030660E+03 0.  0.
         13    1    3    3    0    0 -0.19948538707E+03  0.85121814834E+02  0.62999245644E+02  0.22585182746E+03  0.00000000000E+00 0.  1.
          1    1    3    3  501    0  0.19601401675E+03 -0.11492704290E+03 -0.10016728386E+03  0.24832076979E+03  0.00000000000E+00 0.  1.
         21    1    1    2  502  501  0.34713703247E+01  0.29805228065E+02 -0.76843533433E+01  0.30975011190E+02  0.00000000000E+00 0.  1.
<scales pt_clust_4="550.00000" pt_clust_5="550.00000" pt_clust_6="30.00671"></scales>
<mgrwt>
<rscale>  0 0.30000000E+03</rscale>
<asrwt>  1 0.30006715E+02</asrwt>
<pdfrwt beam="1">  1        1 0.83690039E+00 0.30000000E+03</pdfrwt>
<pdfrwt beam="2">0</pdfrwt>
<totfact> 0.53959708E-04</totfact>
</mgrwt>
<clustering>
<clus scale="   30.007">  1  6  2 -1</clus>
<clus scale="  471.760">  4  5 -1 -1</clus>
<clus scale="  300.000">  1  4  2 -1</clus>
</clustering>
</event>
<event>
 6    1  0.9678510E-012  0.3000000E+03  0.7818608E-02  0.1093470E+00
          1   -1    0    0  502    0  0.00000000000E+00  0.00000000000E+00  0.22527247732E+03  0.22527247732E+03  0.00000000000E+00 0.  1.
         13   -1    0    0    0    0 -0.00000000000E+00 -0.00000000000E+00 -0.27500000000E+03  0.27500000000E+03  0.00000000000E+00 0.  1.
    9000005    2    1    2  501    0 -0.31038735726E+02  0.56556248416E+01 -0.53529259982E+02  0.46849445954E+03  0.46435577711E+03 0.  0.
         13    1    3    3    0    0 -0.18933485934E+03 -0.53449436090E+02 -0.17265558090E+03  0.26175270924E+03  0.00000000000E+00 0.  1.
          1    1    3    3  501    0  0.15829612361E+03  0.59105060931E+02  0.11912632092E+03  0.20674175029E+03  0.00000000000E+00 0.  1.
         21    1    1    2  502  501  0.31038735726E+02 -0.56556248416E+01  0.38017373053E+01  0.31778017786E+02  0.00000000000E+00 0.  1.
<scales pt_clust_4="550.00000" pt_clust_5="550.00000" pt_clust_6="31.54979"></scales>
<mgrwt>
<rscale>  0 0.30000000E+03</rscale>
<asrwt>  1 0.31549789E+02</asrwt>
<pdfrwt beam="1">  1        1 0.81917264E+00 0.30000000E+03</pdfrwt>
<pdfrwt beam="2">0</pdfrwt>
<totfact> 0.74979497E-04</totfact>
</mgrwt>
<clustering>
<clus scale="   31.550">  1  6  2 -1</clus>
<clus scale="  464.356">  4  5 -1 -1</clus>
<clus scale="  300.000">  1  4  2 -1</clus>
</clustering>
</event>
<event>
 6    1  0.9678510E-012  0.3000000E+03  0.7818608E-02  0.1093470E+00
          1   -1    0    0  502    0  0.00000000000E+00  0.00000000000E+00  0.25292672047E+03  0.25292672047E+03  0.00000000000E+00 0.  1.
         13   -1    0    0    0    0 -0.00000000000E+00 -0.00000000000E+00 -0.27500000000E+03  0.27500000000E+03  0.00000000000E+00 0.  1.
    9000005    2    1    2  501    0  0.95674747643E+00  0.33231723777E+02 -0.28618059113E+02  0.49404314081E+03  0.49209182968E+03 0.  0.
         13    1    3    3    0    0 -0.19330624878E+03  0.72668385525E+02  0.12664123212E+03  0.24225193858E+03  0.00000000000E+00 0.  1.
          3    1    3    3  501    0  0.19426299626E+03 -0.39436661748E+02 -0.15525929123E+03  0.25179120223E+03  0.00000000000E+00 0.  1.
         21    1    1    2  502  501 -0.95674747643E+00 -0.33231723777E+02  0.65447795817E+01  0.33883579662E+02  0.00000000000E+00 0.  1.
<scales pt_clust_4="550.00000" pt_clust_5="550.00000" pt_clust_6="33.24549"></scales>
<mgrwt>
<rscale>  0 0.30000000E+03</rscale>
<asrwt>  1 0.33245493E+02</asrwt>
<pdfrwt beam="1">  1        1 0.91973353E+00 0.30000000E+03</pdfrwt>
<pdfrwt beam="2">0</pdfrwt>
<totfact> 0.42773036E-05</totfact>
</mgrwt>
<clustering>
<clus scale="   33.245">  1  6  2 -1</clus>
<clus scale="  492.092">  4  5 -1 -1</clus>
<clus scale="  300.000">  1  4  2 -1</clus>
</clustering>
</event>
<event>
 6    1  0.9678510E-012  0.3000000E+03  0.7818608E-02  0.1093470E+00
          1   -1    0    0  502    0  0.00000000000E+00  0.00000000000E+00  0.25380850177E+03  0.25380850177E+03  0.00000000000E+00 0.  1.
         13   -1    0    0    0    0 -0.00000000000E+00 -0.00000000000E+00 -0.27500000000E+03  0.27500000000E+03  0.00000000000E+00 0.  1.
    9000005    2    1    2  501    0 -0.25647186592E+02 -0.41558338833E+02 -0.45733136218E+02  0.47415353217E+03  0.46940939340E+03 0.  0.
         13    1    3    3    0    0  0.14853013220E+03 -0.58613484244E+02  0.14472026531E+03  0.21550103456E+03  0.00000000000E+00 0.  1.
          1    1    3    3  501    0 -0.17417731879E+03  0.17055145411E+02 -0.19045340153E+03  0.25865249761E+03  0.00000000000E+00 0.  1.
         21    1    1    2  502  501  0.25647186592E+02  0.41558338833E+02  0.24541637985E+02  0.54654969597E+02  0.00000000000E+00 0.  1.
<scales pt_clust_4="550.00000" pt_clust_5="550.00000" pt_clust_6="48.83517"></scales>
<mgrwt>
<rscale>  0 0.30000000E+03</rscale>
<asrwt>  1 0.48835169E+02</asrwt>
<pdfrwt beam="1">  1        1 0.92294001E+00 0.30000000E+03</pdfrwt>
<pdfrwt beam="2">0</pdfrwt>
<totfact> 0.34065398E-05</totfact>
</mgrwt>
<clustering>
<clus scale="   48.835">  1  6  2 -1</clus>
<clus scale="  469.409">  4  5 -1 -1</clus>
<clus scale="  300.000">  1  4  2 -1</clus>
</clustering>
</event>
<event>
 6    1  0.9678510E-012  0.3000000E+03  0.7818608E-02  0.1093470E+00
          1   -1    0    0  502    0  0.00000000000E+00  0.00000000000E+00  0.23192837112E+03  0.23192837112E+03  0.00000000000E+00 0.  1.
         13   -1    0    0    0    0 -0.00000000000E+00 -0.00000000000E+00 -0.27500000000E+03  0.27500000000E+03  0.00000000000E+00 0.  1.
    9000005    2    1    2  501    0 -0.30206252294E+02  0.39413916748E+01 -0.64480117721E+02  0.46969564841E+03  0.46425032505E+03 0.  0.
         13    1    3    3    0    0 -0.16231326263E+03 -0.15516663021E+03 -0.12131497669E+03  0.25522461073E+03  0.00000000000E+00 0.  1.
          3    1    3    3  501    0  0.13210701034E+03  0.15910802188E+03  0.56834858966E+02  0.21447103767E+03  0.00000000000E+00 0.  1.
         21    1    1    2  502  501  0.30206252294E+02 -0.39413916748E+01  0.21408488838E+02  0.37232722708E+02  0.00000000000E+00 0.  1.
<scales pt_clust_4="550.00000" pt_clust_5="550.00000" pt_clust_6="30.46231"></scales>
<mgrwt>
<rscale>  0 0.30000000E+03</rscale>
<asrwt>  1 0.30462309E+02</asrwt>
<pdfrwt beam="1">  1        1 0.84337589E+00 0.30000000E+03</pdfrwt>
<pdfrwt beam="2">0</pdfrwt>
<totfact> 0.47905755E-04</totfact>
</mgrwt>
<clustering>
<clus scale="   30.462">  1  6  2 -1</clus>
<clus scale="  464.250">  4  5 -1 -1</clus>
<clus scale="  300.000">  1  4  2 -1</clus>
</clustering>
</event>
<event>
 6    1  0.9678510E-012  0.3000000E+03  0.7818608E-02  0.1093470E+00
          1   -1    0    0  502    0  0.00000000000E+00  0.00000000000E+00  0.25307622103E+03  0.25307622103E+03  0.00000000000E+00 0.  1.
         13   -1    0    0    0    0 -0.00000000000E+00 -0.00000000000E+00 -0.27500000000E+03  0.27500000000E+03  0.00000000000E+00 0.  1.
    9000005    2    1    2  501    0  0.20737205030E+02  0.24849853800E+02 -0.58459046684E+02  0.47926666568E+03  0.47458564010E+03 0.  0.
         13    1    3    3    0    0 -0.16320191243E+03  0.84122082504E+02  0.11743608842E+03  0.21795096661E+03  0.00000000000E+00 0.  1.
          3    1    3    3  501    0  0.18393911746E+03 -0.59272228704E+02 -0.17589513510E+03  0.26131569907E+03  0.00000000000E+00 0.  1.
         21    1    1    2  502  501 -0.20737205030E+02 -0.24849853800E+02  0.36535267716E+02  0.48809555349E+02  0.00000000000E+00 0.  1.
<scales pt_clust_4="550.00000" pt_clust_5="550.00000" pt_clust_6="32.36583"></scales>
<mgrwt>
<rscale>  0 0.30000000E+03</rscale>
<asrwt>  1 0.32365829E+02</asrwt>
<pdfrwt beam="1">  1        1 0.92027717E+00 0.30000000E+03</pdfrwt>
<pdfrwt beam="2">0</pdfrwt>
<totfact> 0.41838368E-05</totfact>
</mgrwt>
<clustering>
<clus scale="   32.366">  1  6  2 -1</clus>
<clus scale="  474.586">  4  5 -1 -1</clus>
<clus scale="  300.000">  1  4  2 -1</clus>
</clustering>
</event>
<event>
 6    1  0.9678510E-012  0.3000000E+03  0.7818608E-02  0.1093470E+00
          1   -1    0    0  502    0  0.00000000000E+00  0.00000000000E+00  0.25044936805E+03  0.25044936805E+03  0.00000000000E+00 0.  1.
         13   -1    0    0    0    0 -0.00000000000E+00 -0.00000000000E+00 -0.27500000000E+03  0.27500000000E+03  0.00000000000E+00 0.  1.
    9000005    2    1    2  501    0 -0.23830970721E+02 -0.20262588017E+02 -0.30190809861E+02  0.49366416323E+03  0.49174620834E+03 0.  0.
         13    1    3    3    0    0 -0.25114498430E+03  0.28215540580E+02 -0.58825780552E+02  0.25948100571E+03  0.00000000000E+00 0.  1.
          3    1    3    3  501    0  0.22731401357E+03 -0.48478128597E+02  0.28634970690E+02  0.23418315752E+03  0.00000000000E+00 0.  1.
         21    1    1    2  502  501  0.23830970721E+02  0.20262588017E+02  0.56401779154E+01  0.31785204822E+02  0.00000000000E+00 0.  1.
<scales pt_clust_4="550.00000" pt_clust_5="550.00000" pt_clust_6="31.28079"></scales>
<mgrwt>
<rscale>  0 0.30000000E+03</rscale>
<asrwt>  1 0.31280787E+02</asrwt>
<pdfrwt beam="1">  1        1 0.91072497E+00 0.30000000E+03</pdfrwt>
<pdfrwt beam="2">0</pdfrwt>
<totfact> 0.70456219E-05</totfact>
</mgrwt>
<clustering>
<clus scale="   31.281">  1  6  2 -1</clus>
<clus scale="  491.746">  4  5 -1 -1</clus>
<clus scale="  300.000">  1  4  2 -1</clus>
</clustering>
</event>
<event>
 6    1  0.9678510E-012  0.3000000E+03  0.7818608E-02  0.1093470E+00
          1   -1    0    0  502    0  0.00000000000E+00  0.00000000000E+00  0.24790601380E+03  0.24790601380E+03  0.00000000000E+00 0.  1.
         13   -1    0    0    0    0 -0.00000000000E+00 -0.00000000000E+00 -0.27500000000E+03  0.27500000000E+03  0.00000000000E+00 0.  1.
    9000005    2    1    2  501    0  0.71295748841E+01 -0.32042247943E+02 -0.29269697508E+02  0.49000813832E+03  0.48803045390E+03 0.  0.
         13    1    3    3    0    0 -0.45064439299E+02 -0.96161276562E+02 -0.24064676272E+03  0.26303737226E+03  0.00000000000E+00 0.  1.
          3    1    3    3  501    0  0.52194014183E+02  0.64119028619E+02  0.21137706521E+03  0.22697076606E+03  0.00000000000E+00 0.  1.
         21    1    1    2  502  501 -0.71295748841E+01  0.32042247943E+02  0.21757113076E+01  0.32897875478E+02  0.00000000000E+00 0. -1.
<scales pt_clust_4="550.00000" pt_clust_5="550.00000" pt_clust_6="32.82585"></scales>
<mgrwt>
<rscale>  0 0.30000000E+03</rscale>
<asrwt>  1 0.32825851E+02</asrwt>
<pdfrwt beam="1">  1        1 0.90147641E+00 0.30000000E+03</pdfrwt>
<pdfrwt beam="2">0</pdfrwt>
<totfact> 0.10687657E-04</totfact>
</mgrwt>
<clustering>
<clus scale="   32.826">  1  6  2 -1</clus>
<clus scale="  488.030">  4  5 -1 -1</clus>
<clus scale="  300.000">  1  4  2 -1</clus>
</clustering>
</event>
<event>
 6    1  0.9678510E-012  0.3000000E+03  0.7818608E-02  0.1093470E+00
          1   -1    0    0  502    0  0.00000000000E+00  0.00000000000E+00  0.23497881812E+03  0.23497881812E+03  0.00000000000E+00 0.  1.
         13   -1    0    0    0    0 -0.00000000000E+00 -0.00000000000E+00 -0.27500000000E+03  0.27500000000E+03  0.00000000000E+00 0.  1.
    9000005    2    1    2  501    0 -0.83910889077E+01 -0.30908158832E+02 -0.50671702717E+02  0.47622739964E+03  0.47243961525E+03 0.  0.
         13    1    3    3    0    0  0.17505701559E+02  0.12060710013E+03 -0.21754017105E+03  0.24935165572E+03  0.00000000000E+00 0.  1.
          1    1    3    3  501    0 -0.25896790467E+02 -0.15151525896E+03  0.16686846834E+03  0.22687574392E+03  0.00000000000E+00 0.  1.
         21    1    1    2  502  501  0.83910889077E+01  0.30908158832E+02  0.10650520840E+02  0.33751418483E+02  0.00000000000E+00 0.  1.
<scales pt_clust_4="550.00000" pt_clust_5="550.00000" pt_clust_6="32.02694"></scales>
<mgrwt>
<rscale>  0 0.30000000E+03</rscale>
<asrwt>  1 0.32026936E+02</asrwt>
<pdfrwt beam="1">  1        1 0.85446843E+00 0.30000000E+03</pdfrwt>
<pdfrwt beam="2">0</pdfrwt>
<totfact> 0.37498595E-04</totfact>
</mgrwt>
<clustering>
<clus scale="   32.027">  1  6  2 -1</clus>
<clus scale="  472.440">  4  5 -1 -1</clus>
<clus scale="  300.000">  1  4  2 -1</clus>
</clustering>
</event>
<event>
 6    1  0.9678510E-012  0.3000000E+03  0.7818608E-02  0.1093470E+00
          1   -1    0    0  502    0  0.00000000000E+00  0.00000000000E+00  0.23256680608E+03  0.23256680608E+03  0.00000000000E+00 0.  1.
         13   -1    0    0    0    0 -0.00000000000E+00 -0.00000000000E+00 -0.27500000000E+03  0.27500000000E+03  0.00000000000E+00 0.  1.
    9000005    2    1    2  501    0 -0.13120238036E+02 -0.27325184727E+02 -0.54041360515E+02  0.47510828026E+03  0.47105053122E+03 0.  0.
         13    1    3    3    0    0 -0.11093260421E+03 -0.19559460833E+03 -0.13724417674E+03  0.26343738826E+03  0.00000000000E+00 0.  1.
          3    1    3    3  501    0  0.97812366171E+02  0.16826942360E+03  0.83202816221E+02  0.21167089201E+03  0.00000000000E+00 0.  1.
         21    1    1    2  502  501  0.13120238036E+02  0.27325184727E+02  0.11608166592E+02  0.32458525815E+02  0.00000000000E+00 0. -1.
<scales pt_clust_4="550.00000" pt_clust_5="550.00000" pt_clust_6="30.31182"></scales>
<mgrwt>
<rscale>  0 0.30000000E+03</rscale>
<asrwt>  1 0.30311819E+02</asrwt>
<pdfrwt beam="1">  1        1 0.84569748E+00 0.30000000E+03</pdfrwt>
<pdfrwt beam="2">0</pdfrwt>
<totfact> 0.45780478E-04</totfact>
</mgrwt>
<clustering>
<clus scale="   30.312">  1  6  2 -1</clus>
<clus scale="  471.051">  4  5 -1 -1</clus>
<clus scale="  300.000">  1  4  2 -1</clus>
</clustering>
</event>
<event>
 6    1  0.9678510E-012  0.3000000E+03  0.7818608E-02  0.1093470E+00
          1   -1    0    0  502    0  0.00000000000E+00  0.00000000000E+00  0.24646144319E+03  0.24646144319E+03  0.00000000000E+00 0.  1.
         13   -1    0    0    0    0 -0.00000000000E+00 -0.00000000000E+00 -0.27500000000E+03  0.27500000000E+03  0.00000000000E+00 0.  1.
    9000005    2    1    2  501    0 -0.13892605126E+02 -0.30156163526E+02 -0.74841746230E+02  0.46448439495E+03  0.45721118479E+03 0.  0.
         13    1    3    3    0    0 -0.12750228937E+03 -0.13940499819E+03 -0.19103289371E+03  0.26867108850E+03  0.00000000000E+00 0.  1.
          3    1    3    3  501    0  0.11360968424E+03  0.10924883467E+03  0.11619114748E+03  0.19581330645E+03  0.00000000000E+00 0.  1.
         21    1    1    2  502  501  0.13892605126E+02  0.30156163526E+02  0.46303189418E+02  0.56977048239E+02  0.00000000000E+00 0.  1.
<scales pt_clust_4="550.00000" pt_clust_5="550.00000" pt_clust_6="33.20239"></scales>
<mgrwt>
<rscale>  0 0.30000000E+03</rscale>
<asrwt>  1 0.33202390E+02</asrwt>
<pdfrwt beam="1">  1        1 0.89622343E+00 0.30000000E+03</pdfrwt>
<pdfrwt beam="2">0</pdfrwt>
<totfact> 0.12340580E-04</totfact>
</mgrwt>
<clustering>
<clus scale="   33.202">  1  6  2 -1</clus>
<clus scale="  457.211">  4  5 -1 -1</clus>
<clus scale="  300.000">  1  4  2 -1</clus>
</clustering>
</event>
<event>
 6    1  0.9678510E-012  0.3000000E+03  0.7818608E-02  0.1093470E+00
          1   -1    0    0  502    0  0.00000000000E+00  0.00000000000E+00  0.24182869004E+03  0.24182869004E+03  0.00000000000E+00 0.  1.
         13   -1    0    0    0    0 -0.00000000000E+00 -0.00000000000E+00 -0.27500000000E+03  0.27500000000E+03  0.00000000000E+00 0.  1.
    9000005    2    1    2  501    0 -0.25297199751E+02 -0.24986134961E+02 -0.62013326727E+02  0.47104531766E+03  0.46558971567E+03 0.  0.
         13    1    3    3    0    0 -0.16141558617E+03  0.11515887563E+03  0.95504648770E+02  0.22008565612E+03  0.00000000000E+00 0.  1.
          3    1    3    3  501    0  0.13611838642E+03 -0.14014501059E+03 -0.15751797550E+03  0.25095966154E+03  0.00000000000E+00 0.  1.
         21    1    1    2  502  501  0.25297199751E+02  0.24986134961E+02  0.28842016764E+02  0.45783372381E+02  0.00000000000E+00 0.  1.
<scales pt_clust_4="550.00000" pt_clust_5="550.00000" pt_clust_6="35.55637"></scales>
<mgrwt>
<rscale>  0 0.30000000E+03</rscale>
<asrwt>  1 0.35556367E+02</asrwt>
<pdfrwt beam="1">  1        1 0.87937705E+00 0.30000000E+03</pdfrwt>
<pdfrwt beam="2">0</pdfrwt>
<totfact> 0.20027017E-04</totfact>
</mgrwt>
<clustering>
<clus scale="   35.556">  1  6  2 -1</clus>
<clus scale="  465.590">  4  5 -1 -1</clus>
<clus scale="  300.000">  1  4  2 -1</clus>
</clustering>
</event>
<event>
 6    1  0.9678510E-012  0.3000000E+03  0.7818608E-02  0.1093470E+00
          1   -1    0    0  502    0  0.00000000000E+00  0.00000000000E+00  0.22756750596E+03  0.22756750596E+03  0.00000000000E+00 0.  1.
         13   -1    0    0    0    0 -0.00000000000E+00 -0.00000000000E+00 -0.27500000000E+03  0.27500000000E+03  0.00000000000E+00 0.  1.
    9000005    2    1    2  501    0 -0.13108521524E+01 -0.36551367699E+02 -0.57310435766E+02  0.46468222456E+03  0.45968180621E+03 0.  0.
         13    1    3    3    0    0 -0.12377539951E+03  0.17485701940E+03 -0.22814832141E+01  0.21424409425E+03  0.00000000000E+00 0.  1.
          1    1    3    3  501    0  0.12246454736E+03 -0.21140838709E+03 -0.55028952552E+02  0.25043813031E+03  0.00000000000E+00 0.  1.
         21    1    1    2  502  501  0.13108521524E+01  0.36551367699E+02  0.98779417251E+01  0.37885281400E+02  0.00000000000E+00 0. -1.
<scales pt_clust_4="550.00000" pt_clust_5="550.00000" pt_clust_6="36.57487"></scales>
<mgrwt>
<rscale>  0 0.30000000E+03</rscale>
<asrwt>  1 0.36574866E+02</asrwt>
<pdfrwt beam="1">  1        1 0.82751820E+00 0.30000000E+03</pdfrwt>
<pdfrwt beam="2">0</pdfrwt>
<totfact> 0.61543613E-04</totfact>
</mgrwt>
<clustering>
<clus scale="   36.575">  1  6  2 -1</clus>
<clus scale="  459.682">  4  5 -1 -1</clus>
<clus scale="  300.000">  1  4  2 -1</clus>
</clustering>
</event>
<event>
 6    1  0.9678510E-012  0.3000000E+03  0.7818608E-02  0.1093470E+00
          1   -1    0    0  502    0  0.00000000000E+00  0.00000000000E+00  0.24749920531E+03  0.24749920531E+03  0.00000000000E+00 0.  1.
         13   -1    0    0    0    0 -0.00000000000E+00 -0.00000000000E+00 -0.27500000000E+03  0.27500000000E+03  0.00000000000E+00 0.  1.
    9000005    2    1    2  501    0  0.40828620374E+02 -0.15831754442E+02 -0.47631529423E+02  0.47430307298E+03  0.46986915387E+03 0.  0.
         13    1    3    3    0    0 -0.72326646431E+01 -0.27966971270E+02  0.20998410435E+03  0.21196175834E+03  0.00000000000E+00 0.  1.
          1    1    3    3  501    0  0.48061285017E+02  0.12135216827E+02 -0.25761563377E+03  0.26234131464E+03  0.00000000000E+00 0.  1.
         21    1    1    2  502  501 -0.40828620374E+02  0.15831754442E+02  0.20130734731E+02  0.48196132326E+02  0.00000000000E+00 0. -1.
<scales pt_clust_4="550.00000" pt_clust_5="550.00000" pt_clust_6="43.79065"></scales>
<mgrwt>
<rscale>  0 0.30000000E+03</rscale>
<asrwt>  1 0.43790646E+02</asrwt>
<pdfrwt beam="1">  1        1 0.89999711E+00 0.30000000E+03</pdfrwt>
<pdfrwt beam="2">0</pdfrwt>
<totfact> 0.10600869E-04</totfact>
</mgrwt>
<clustering>
<clus scale="   43.791">  1  6  2 -1</clus>
<clus scale="  469.869">  4  5 -1 -1</clus>
<clus scale="  300.000">  1  4  2 -1</clus>
</clustering>
</event>
<event>
 6    1  0.9678510E-012  0.3000000E+03  0.7818608E-02  0.1093470E+00
          1   -1    0    0  502    0  0.00000000000E+00  0.00000000000E+00  0.21839763333E+03  0.21839763333E+03  0.00000000000E+00 0.  1.
         13   -1    0    0    0    0 -0.00000000000E+00 -0.00000000000E+00 -0.27500000000E+03  0.27500000000E+03  0.00000000000E+00 0.  1.
    9000005    2    1    2  501    0 -0.14655989910E+02  0.27175329983E+02 -0.63703410154E+02  0.46171607057E+03  0.45625684517E+03 0.  0.
         13    1    3    3    0    0 -0.22190199436E+02  0.24107035390E+03 -0.17236459962E+02  0.24270231979E+03  0.00000000000E+00 0.  1.
          1    1    3    3  501    0  0.75342095266E+01 -0.21389502392E+03 -0.46466950192E+02  0.21901375078E+03  0.00000000000E+00 0.  1.
         21    1    1    2  502  501  0.14655989910E+02 -0.27175329983E+02  0.71010434808E+01  0.31681562752E+02  0.00000000000E+00 0.  1.
<scales pt_clust_4="550.00000" pt_clust_5="550.00000" pt_clust_6="30.87550"></scales>
<mgrwt>
<rscale>  0 0.30000000E+03</rscale>
<asrwt>  1 0.30875502E+02</asrwt>
<pdfrwt beam="1">  1        1 0.79417321E+00 0.30000000E+03</pdfrwt>
<pdfrwt beam="2">0</pdfrwt>
<totfact> 0.11718359E-03</totfact>
</mgrwt>
<clustering>
<clus scale="   30.876">  1  6  2 -1</clus>
<clus scale="  456.257">  4  5 -1 -1</clus>
<clus scale="  300.000">  1  4  2 -1</clus>
</clustering>
</event>
<event>
 6    1  0.9678510E-012  0.3000000E+03  0.7818608E-02  0.1093470E+00
          1   -1    0    0  502    0  0.00000000000E+00  0.00000000000E+00  0.23157795081E+03  0.23157795081E+03  0.00000000000E+00 0.  1.
         13   -1    0    0    0    0 -0.00000000000E+00 -0.00000000000E+00 -0.27500000000E+03  0.27500000000E+03  0.00000000000E+00 0.  1.
    9000005    2    1    2  501    0 -0.31142559471E+02 -0.84064628869E+01 -0.66330772544E+02  0.46701360784E+03  0.46115226433E+03 0.  0.
         13    1    3    3    0    0 -0.16859968243E+03  0.11707608017E+03  0.89831576593E+02  0.22405886195E+03  0.00000000000E+00 0.  1.
          1    1    3    3  501    0  0.13745712296E+03 -0.12548254306E+03 -0.15616234914E+03  0.24295474590E+03  0.00000000000E+00 0.  1.
         21    1    1    2  502  501  0.31142559471E+02  0.84064628869E+01  0.22908723356E+02  0.39564342967E+02  0.00000000000E+00 0. -1.
<scales pt_clust_4="550.00000" pt_clust_5="550.00000" pt_clust_6="32.25721"></scales>
<mgrwt>
<rscale>  0 0.30000000E+03</rscale>
<asrwt>  1 0.32257210E+02</asrwt>
<pdfrwt beam="1">  1        1 0.84210164E+00 0.30000000E+03</pdfrwt>
<pdfrwt beam="2">0</pdfrwt>
<totfact> 0.48565017E-04</totfact>
</mgrwt>
<clustering>
<clus scale="   32.257">  1  6  2 -1</clus>
<clus scale="  461.152">  4  5 -1 -1</clus>
<clus scale="  300.000">  1  4  2 -1</clus>
</clustering>
</event>
<event>
 6    1  0.9678510E-012  0.3000000E+03  0.7818608E-02  0.1093470E+00
          1   -1    0    0  502    0  0.00000000000E+00  0.00000000000E+00  0.23835442038E+03  0.23835442038E+03  0.00000000000E+00 0.  1.
         13   -1    0    0    0    0 -0.00000000000E+00 -0.00000000000E+00 -0.27500000000E+03  0.27500000000E+03  0.00000000000E+00 0.  1.
    9000005    2    1    2  501    0 -0.19857973001E+02  0.35486477504E+02 -0.50273643164E+02  0.47046673808E+03  0.46600202066E+03 0.  0.
         13    1    3    3    0    0 -0.15391790962E+03  0.19985569356E+03  0.96956514635E+00  0.25225772774E+03  0.00000000000E+00 0.  1.
          3    1    3    3  501    0  0.13405993662E+03 -0.16436921605E+03 -0.51243208311E+02  0.21820901033E+03  0.00000000000E+00 0.  1.
         21    1    1    2  502  501  0.19857973001E+02 -0.35486477504E+02  0.13628063541E+02  0.42887682301E+02  0.00000000000E+00 0. -1.
<scales pt_clust_4="550.00000" pt_clust_5="550.00000" pt_clust_6="40.66484"></scales>
<mgrwt>
<rscale>  0 0.30000000E+03</rscale>
<asrwt>  1 0.40664840E+02</asrwt>
<pdfrwt beam="1">  1        1 0.86674335E+00 0.30000000E+03</pdfrwt>
<pdfrwt beam="2">0</pdfrwt>
<totfact> 0.26624583E-04</totfact>
</mgrwt>
<clustering>
<clus scale="   40.665">  1  6  2 -1</clus>
<clus scale="  466.002">  4  5 -1 -1</clus>
<clus scale="  300.000">  1  4  2 -1</clus>
</clustering>
</event>
<event>
 6    1  0.9678510E-012  0.3000000E+03  0.7818608E-02  0.1093470E+00
          1   -1    0    0  502    0  0.00000000000E+00  0.00000000000E+00  0.23878372131E+03  0.23878372131E+03  0.00000000000E+00 0.  1.
         13   -1    0    0    0    0 -0.00000000000E+00 -0.00000000000E+00 -0.27500000000E+03  0.27500000000E+03  0.00000000000E+00 0.  1.
    9000005    2    1    2  501    0 -0.32780120066E+02 -0.18143809776E+01 -0.40325523943E+02  0.48069725661E+03  0.47787642376E+03 0.  0.
         13    1    3    3    0    0 -0.18821725232E+03  0.41876313164E+02  0.14027438692E+03  0.23844551432E+03  0.00000000000E+00 0.  1.
          1    1    3    3  501    0  0.15543713225E+03 -0.43690694141E+02 -0.18059991086E+03  0.24225174229E+03  0.00000000000E+00 0.  1.
         21    1    1    2  502  501  0.32780120066E+02  0.18143809776E+01  0.41092452564E+01  0.33086464702E+02  0.00000000000E+00 0.  1.
<scales pt_clust_4="550.00000" pt_clust_5="550.00000" pt_clust_6="32.83029"></scales>
<mgrwt>
<rscale>  0 0.30000000E+03</rscale>
<asrwt>  1 0.32830295E+02</asrwt>
<pdfrwt beam="1">  1        1 0.86830444E+00 0.30000000E+03</pdfrwt>
<pdfrwt beam="2">0</pdfrwt>
<totfact> 0.26681788E-04</totfact>
</mgrwt>
<clustering>
<clus scale="   32.830">  1  6  2 -1</clus>
<clus scale="  477.876">  4  5 -1 -1</clus>
<clus scale="  300.000">  1  4  2 -1</clus>
</clustering>
</event>
<event>
 6    1  0.9678510E-012  0.3000000E+03  0.7818608E-02  0.1093470E+00
          1   -1    0    0  502    0  0.00000000000E+00  0.00000000000E+00  0.24938093396E+03  0.24938093396E+03  0.00000000000E+00 0.  1.
         13   -1    0    0    0    0 -0.00000000000E+00 -0.00000000000E+00 -0.27500000000E+03  0.27500000000E+03  0.00000000000E+00 0.  1.
    9000005    2    1    2  501    0 -0.27549361684E+02  0.13905479645E+02 -0.38989891428E+02  0.49074897498E+03  0.48822332504E+03 0.  0.
         13    1    3    3    0    0  0.15212833635E+03  0.14120409094E+03 -0.13806375645E+03  0.24928543251E+03  0.00000000000E+00 0.  1.
          3    1    3    3  501    0 -0.17967769804E+03 -0.12729861130E+03  0.99073865018E+02  0.24146354246E+03  0.00000000000E+00 0.  1.
         21    1    1    2  502  501  0.27549361684E+02 -0.13905479645E+02  0.13370825385E+02  0.33631958979E+02  0.00000000000E+00 0. -1.
<scales pt_clust_4="550.00000" pt_clust_5="550.00000" pt_clust_6="30.85984"></scales>
<mgrwt>
<rscale>  0 0.30000000E+03</rscale>
<asrwt>  1 0.30859839E+02</asrwt>
<pdfrwt beam="1">  1        1 0.90683976E+00 0.30000000E+03</pdfrwt>
<pdfrwt beam="2">0</pdfrwt>
<totfact> 0.86957936E-05</totfact>
</mgrwt>
<clustering>
<clus scale="   30.860">  1  6  2 -1</clus>
<clus scale="  488.223">  4  5 -1 -1</clus>
<clus scale="  300.000">  1  4  2 -1</clus>
</clustering>
</event>
<event>
 6    1  0.9678510E-012  0.3000000E+03  0.7818608E-02  0.1093470E+00
          1   -1    0    0  502    0  0.00000000000E+00  0.00000000000E+00  0.24180108187E+03  0.24180108187E+03  0.00000000000E+00 0.  1.
         13   -1    0    0    0    0 -0.00000000000E+00 -0.00000000000E+00 -0.27500000000E+03  0.27500000000E+03  0.00000000000E+00 0.  1.
    9000005    2    1    2  501    0  0.88580546509E+01  0.33108155970E+02 -0.14312468459E+02  0.47766908595E+03  0.47622294547E+03 0.  0.
         13    1    3    3    0    0 -0.11033227659E+03  0.22233736651E+03  0.28931716231E+02  0.24988829507E+03  0.00000000000E+00 0.  1.
          1    1    3    3  501    0  0.11919033124E+03 -0.18922921054E+03 -0.43244184690E+02  0.22778079088E+03  0.00000000000E+00 0.  1.
         21    1    1    2  502  501 -0.88580546509E+01 -0.33108155970E+02 -0.18886449669E+02  0.39131995924E+02  0.00000000000E+00 0.  1.
<scales pt_clust_4="550.00000" pt_clust_5="550.00000" pt_clust_6="34.27268"></scales>
<mgrwt>
<rscale>  0 0.30000000E+03</rscale>
<asrwt>  1 0.34272676E+02</asrwt>
<pdfrwt beam="1">  1        1 0.87927666E+00 0.30000000E+03</pdfrwt>
<pdfrwt beam="2">0</pdfrwt>
<totfact> 0.20221532E-04</totfact>
</mgrwt>
<clustering>
<clus scale="   34.273">  1  6  2 -1</clus>
<clus scale="  476.223">  4  5 -1 -1</clus>
<clus scale="  300.000">  1  4  2 -1</clus>
</clustering>
</event>
<event>
 6    1  0.9678510E-012  0.3000000E+03  0.7818608E-02  0.1093470E+00
          1   -1    0    0  502    0  0.00000000000E+00  0.00000000000E+00  0.24349163520E+03  0.24349163520E+03  0.00000000000E+00 0.  1.
         13   -1    0    0    0    0 -0.00000000000E+00 -0.00000000000E+00 -0.27500000000E+03  0.27500000000E+03  0.00000000000E+00 0.  1.
    9000005    2    1    2  501    0  0.15317531178E+02  0.26236057284E+02 -0.65366661186E+02  0.47300161764E+03  0.46747702878E+03 0.  0.
         13    1    3    3    0    0 -0.14799919934E+03  0.18633055245E+03 -0.54092327276E+02  0.24402626426E+03  0.00000000000E+00 0.  1.
          3    1    3    3  501    0  0.16331673052E+03 -0.16009449516E+03 -0.11274333910E+02  0.22897535338E+03  0.00000000000E+00 0.  1.
         21    1    1    2  502  501 -0.15317531178E+02 -0.26236057284E+02  0.33858296382E+02  0.45490017555E+02  0.00000000000E+00 0.  1.
<scales pt_clust_4="550.00000" pt_clust_5="550.00000" pt_clust_6="30.38021"></scales>
<mgrwt>
<rscale>  0 0.30000000E+03</rscale>
<asrwt>  1 0.30380215E+02</asrwt>
<pdfrwt beam="1">  1        1 0.88542413E+00 0.30000000E+03</pdfrwt>
<pdfrwt beam="2">0</pdfrwt>
<totfact> 0.17200214E-04</totfact>
</mgrwt>
<clustering>
<clus scale="   30.380">  1  6  2 -1</clus>
<clus scale="  467.477">  4  5 -1 -1</clus>
<clus scale="  300.000">  1  4  2 -1</clus>
</clustering>
</event>
<event>
 6    1  0.9678510E-012  0.3000000E+03  0.7818608E-02  0.1093470E+00
          1   -1    0    0  502    0  0.00000000000E+00  0.00000000000E+00  0.22644005109E+03  0.22644005109E+03  0.00000000000E+00 0.  1.
         13   -1    0    0    0    0 -0.00000000000E+00 -0.00000000000E+00 -0.27500000000E+03  0.27500000000E+03  0.00000000000E+00 0.  1.
    9000005    2    1    2  501    0  0.17037994316E+02 -0.25871817386E+02 -0.49083344061E+02  0.47045750556E+03  0.46686341224E+03 0.  0.
         13    1    3    3    0    0  0.17613608575E+03  0.91742270640E+02 -0.14950410221E+03  0.24858005049E+03  0.00000000000E+00 0.  1.
          3    1    3    3  501    0 -0.15909809144E+03 -0.11761408803E+03  0.10042075814E+03  0.22187745507E+03  0.00000000000E+00 0.  1.
         21    1    1    2  502  501 -0.17037994316E+02  0.25871817386E+02  0.52339515586E+00  0.30982545532E+02  0.00000000000E+00 0.  1.
<scales pt_clust_4="550.00000" pt_clust_5="550.00000" pt_clust_6="30.97812"></scales>
<mgrwt>
<rscale>  0 0.30000000E+03</rscale>
<asrwt>  1 0.30978124E+02</asrwt>
<pdfrwt beam="1">  1        1 0.82341837E+00 0.30000000E+03</pdfrwt>
<pdfrwt beam="2">0</pdfrwt>
<totfact> 0.69053672E-04</totfact>
</mgrwt>
<clustering>
<clus scale="   30.978">  1  6  2 -1</clus>
<clus scale="  466.863">  4  5 -1 -1</clus>
<clus scale="  300.000">  1  4  2 -1</clus>
</clustering>
</event>
<event>
 6    1  0.9678510E-012  0.3000000E+03  0.7818608E-02  0.1093470E+00
          1   -1    0    0  502    0  0.00000000000E+00  0.00000000000E+00  0.22374740934E+03  0.22374740934E+03  0.00000000000E+00 0.  1.
         13   -1    0    0    0    0 -0.00000000000E+00 -0.00000000000E+00 -0.27500000000E+03  0.27500000000E+03  0.00000000000E+00 0.  1.
    9000005    2    1    2  501    0 -0.84529245805E+00  0.32493764453E+02 -0.44830615685E+02  0.46561432904E+03  0.46230980961E+03 0.  0.
         13    1    3    3    0    0  0.19388365705E+03  0.46727057035E+02 -0.14461160279E+03  0.24634692202E+03  0.00000000000E+00 0.  1.
          3    1    3    3  501    0 -0.19472894951E+03 -0.14233292582E+02  0.99780987103E+02  0.21926740702E+03  0.00000000000E+00 0.  1.
         21    1    1    2  502  501  0.84529245805E+00 -0.32493764453E+02 -0.64219749738E+01  0.33133080301E+02  0.00000000000E+00 0.  1.
<scales pt_clust_4="550.00000" pt_clust_5="550.00000" pt_clust_6="32.50477"></scales>
<mgrwt>
<rscale>  0 0.30000000E+03</rscale>
<asrwt>  1 0.32504774E+02</asrwt>
<pdfrwt beam="1">  1        1 0.81362694E+00 0.30000000E+03</pdfrwt>
<pdfrwt beam="2">0</pdfrwt>
<totfact> 0.82798041E-04</totfact>
</mgrwt>
<clustering>
<clus scale="   32.505">  1  6  2 -1</clus>
<clus scale="  462.310">  4  5 -1 -1</clus>
<clus scale="  300.000">  1  4  2 -1</clus>
</clustering>
</event>
<event>
 6    1  0.9678510E-012  0.3000000E+03  0.7818608E-02  0.1093470E+00
          1   -1    0    0  502    0  0.00000000000E+00  0.00000000000E+00  0.22195800601E+03  0.22195800601E+03  0.00000000000E+00 0.  1.
         13   -1    0    0    0    0 -0.00000000000E+00 -0.00000000000E+00 -0.27500000000E+03  0.27500000000E+03  0.00000000000E+00 0.  1.
    9000005    2    1    2  501    0  0.31980919001E+02 -0.89484450804E+01 -0.47102531939E+02  0.46322180796E+03  0.45962260715E+03 0.  0.
         13    1    3    3    0    0  0.13509849655E+03 -0.20085418668E+03 -0.10311825086E+02  0.24228153420E+03  0.00000000000E+00 0.  1.
          3    1    3    3  501    0 -0.10311757755E+03  0.19190574160E+03 -0.36790706853E+02  0.22094027376E+03  0.00000000000E+00 0.  1.
         21    1    1    2  502  501 -0.31980919001E+02  0.89484450804E+01 -0.59394620490E+01  0.33736198051E+02  0.00000000000E+00 0. -1.
<scales pt_clust_4="550.00000" pt_clust_5="550.00000" pt_clust_6="33.20926"></scales>
<mgrwt>
<rscale>  0 0.30000000E+03</rscale>
<asrwt>  1 0.33209260E+02</asrwt>
<pdfrwt beam="1">  1        1 0.80712002E+00 0.30000000E+03</pdfrwt>
<pdfrwt beam="2">0</pdfrwt>
<totfact> 0.92716403E-04</totfact>
</mgrwt>
<clustering>
<clus scale="   33.209">  1  6  2 -1</clus>
<clus scale="  459.623">  4  5 -1 -1</clus>
<clus scale="  300.000">  1  4  2 -1</clus>
</clustering>
</event>
<event>
 6    1  0.9678510E-012  0.3000000E+03  0.7818608E-02  0.1093470E+00
          1   -1    0    0  502    0  0.00000000000E+00  0.00000000000E+00  0.22128866225E+03  0.22128866225E+03  0.00000000000E+00 0.  1.
         13   -1    0    0    0    0 -0.00000000000E+00 -0.00000000000E+00 -0.27500000000E+03  0.27500000000E+03  0.00000000000E+00 0.  1.
    9000005    2    1    2  501    0 -0.52414428916E+01  0.31037129987E+02 -0.55301864319E+02  0.46477190581E+03  0.46039532152E+03 0.  0.
         13    1    3    3    0    0  0.23383007593E+02 -0.21006243081E+03 -0.66921114343E+02  0.22170120755E+03  0.00000000000E+00 0.  1.
          3    1    3    3  501    0 -0.28624450485E+02  0.24109956080E+03  0.11619250024E+02  0.24307069826E+03  0.00000000000E+00 0.  1.
         21    1    1    2  502  501  0.52414428916E+01 -0.31037129987E+02  0.15905265650E+01  0.31516756435E+02  0.00000000000E+00 0. -1.
<scales pt_clust_4="550.00000" pt_clust_5="550.00000" pt_clust_6="31.47660"></scales>
<mgrwt>
<rscale>  0 0.30000000E+03</rscale>
<asrwt>  1 0.31476597E+02</asrwt>
<pdfrwt beam="1">  1        1 0.80468604E+00 0.30000000E+03</pdfrwt>
<pdfrwt beam="2">0</pdfrwt>
<totfact> 0.97755647E-04</totfact>
</mgrwt>
<clustering>
<clus scale="   31.477">  1  6  2 -1</clus>
<clus scale="  460.395">  4  5 -1 -1</clus>
<clus scale="  300.000">  1  4  2 -1</clus>
</clustering>
</event>
<event>
 6    1  0.9678510E-012  0.3000000E+03  0.7818608E-02  0.1093470E+00
          1   -1    0    0  502    0  0.00000000000E+00  0.00000000000E+00  0.24055009197E+03  0.24055009197E+03  0.00000000000E+00 0.  1.
         13   -1    0    0    0    0 -0.00000000000E+00 -0.00000000000E+00 -0.27500000000E+03  0.27500000000E+03  0.00000000000E+00 0.  1.
    9000005    2    1    2  501    0  0.28233807594E+02 -0.13212555277E+02 -0.60260824778E+02  0.47507883141E+03  0.47020932524E+03 0.  0.
         13    1    3    3    0    0  0.68080054496E+02  0.11518956810E+03 -0.22540607138E+03  0.26212864673E+03  0.00000000000E+00 0.  1.
          3    1    3    3  501    0 -0.39846246901E+02 -0.12840212338E+03  0.16514524660E+03  0.21295018468E+03  0.00000000000E+00 0.  1.
         21    1    1    2  502  501 -0.28233807594E+02  0.13212555277E+02  0.25810916744E+02  0.40471260561E+02  0.00000000000E+00 0.  1.
<scales pt_clust_4="550.00000" pt_clust_5="550.00000" pt_clust_6="31.17242"></scales>
<mgrwt>
<rscale>  0 0.30000000E+03</rscale>
<asrwt>  1 0.31172416E+02</asrwt>
<pdfrwt beam="1">  1        1 0.87472761E+00 0.30000000E+03</pdfrwt>
<pdfrwt beam="2">0</pdfrwt>
<totfact> 0.23143350E-04</totfact>
</mgrwt>
<clustering>
<clus scale="   31.172">  1  6  2 -1</clus>
<clus scale="  470.209">  4  5 -1 -1</clus>
<clus scale="  300.000">  1  4  2 -1</clus>
</clustering>
</event>
<event>
 6    1  0.9678510E-012  0.3000000E+03  0.7818608E-02  0.1093470E+00
          1   -1    0    0  502    0  0.00000000000E+00  0.00000000000E+00  0.26188413683E+03  0.26188413683E+03  0.00000000000E+00 0.  1.
         13   -1    0    0    0    0 -0.00000000000E+00 -0.00000000000E+00 -0.27500000000E+03  0.27500000000E+03  0.00000000000E+00 0.  1.
    9000005    2    1    2  501    0 -0.42127387227E+02 -0.29254130168E+02 -0.20044345935E+02  0.48512967074E+03  0.48199429534E+03 0.  0.
         13    1    3    3    0    0 -0.18451755478E+03 -0.19345828235E+03 -0.13667752936E+02  0.26769318726E+03  0.00000000000E+00 0.  1.
          3    1    3    3  501    0  0.14239016756E+03  0.16420415219E+03 -0.63765929991E+01  0.21743648348E+03  0.00000000000E+00 0.  1.
         21    1    1    2  502  501  0.42127387227E+02  0.29254130168E+02  0.69284827628E+01  0.51754466086E+02  0.00000000000E+00 0. -1.
<scales pt_clust_4="550.00000" pt_clust_5="550.00000" pt_clust_6="51.28860"></scales>
<mgrwt>
<rscale>  0 0.30000000E+03</rscale>
<asrwt>  1 0.51288604E+02</asrwt>
<pdfrwt beam="1">  1        1 0.95230595E+00 0.30000000E+03</pdfrwt>
<pdfrwt beam="2">0</pdfrwt>
<totfact> 0.10318982E-05</totfact>
</mgrwt>
<clustering>
<clus scale="   51.289">  1  6  2 -1</clus>
<clus scale="  481.994">  4  5 -1 -1</clus>
<clus scale="  300.000">  1  4  2 -1</clus>
</clustering>
</event>
<event>
 6    1  0.9678510E-012  0.3000000E+03  0.7818608E-02  0.1093470E+00
          1   -1    0    0  502    0  0.00000000000E+00  0.00000000000E+00  0.24750546306E+03  0.24750546306E+03  0.00000000000E+00 0.  1.
         13   -1    0    0    0    0 -0.00000000000E+00 -0.00000000000E+00 -0.27500000000E+03  0.27500000000E+03  0.00000000000E+00 0.  1.
    9000005    2    1    2  501    0 -0.41703618528E+02  0.42432638945E+01 -0.50283596082E+02  0.47479237991E+03  0.47025755379E+03 0.  0.
         13    1    3    3    0    0  0.97985183046E+02  0.20519153893E+03 -0.23150192907E+02  0.22856201604E+03  0.00000000000E+00 0.  1.
          1    1    3    3  501    0 -0.13968880157E+03 -0.20094827503E+03 -0.27133403175E+02  0.24623036387E+03  0.00000000000E+00 0.  1.
         21    1    1    2  502  501  0.41703618528E+02 -0.42432638945E+01  0.22789059140E+02  0.47713083146E+02  0.00000000000E+00 0. -1.
<scales pt_clust_4="550.00000" pt_clust_5="550.00000" pt_clust_6="41.91893"></scales>
<mgrwt>
<rscale>  0 0.30000000E+03</rscale>
<asrwt>  1 0.41918935E+02</asrwt>
<pdfrwt beam="1">  1        1 0.90001987E+00 0.30000000E+03</pdfrwt>
<pdfrwt beam="2">0</pdfrwt>
<totfact> 0.10677623E-04</totfact>
</mgrwt>
<clustering>
<clus scale="   41.919">  1  6  2 -1</clus>
<clus scale="  470.258">  4  5 -1 -1</clus>
<clus scale="  300.000">  1  4  2 -1</clus>
</clustering>
</event>
<event>
 6    1  0.9678510E-012  0.3000000E+03  0.7818608E-02  0.1093470E+00
          1   -1    0    0  502    0  0.00000000000E+00  0.00000000000E+00  0.24650607272E+03  0.24650607272E+03  0.00000000000E+00 0.  1.
         13   -1    0    0    0    0 -0.00000000000E+00 -0.00000000000E+00 -0.27500000000E+03  0.27500000000E+03  0.00000000000E+00 0.  1.
    9000005    2    1    2  501    0 -0.23454468367E+02  0.26980619626E+02 -0.71169441873E+02  0.46583502578E+03  0.45897616045E+03 0.  0.
         13    1    3    3    0    0 -0.59546677033E+02  0.10184281665E+03  0.17216087997E+03  0.20870346102E+03  0.00000000000E+00 0.  1.
          3    1    3    3  501    0  0.36092208666E+02 -0.74862197022E+02 -0.24333032184E+03  0.25713156476E+03  0.00000000000E+00 0.  1.
         21    1    1    2  502  501  0.23454468367E+02 -0.26980619626E+02  0.42675514589E+02  0.55671046938E+02  0.00000000000E+00 0.  1.
<scales pt_clust_4="550.00000" pt_clust_5="550.00000" pt_clust_6="35.75005"></scales>
<mgrwt>
<rscale>  0 0.30000000E+03</rscale>
<asrwt>  1 0.35750048E+02</asrwt>
<pdfrwt beam="1">  1        1 0.89638572E+00 0.30000000E+03</pdfrwt>
<pdfrwt beam="2">0</pdfrwt>
<totfact> 0.12120042E-04</totfact>
</mgrwt>
<clustering>
<clus scale="   35.750">  1  6  2 -1</clus>
<clus scale="  458.976">  4  5 -1 -1</clus>
<clus scale="  300.000">  1  4  2 -1</clus>
</clustering>
</event>
<event>
 6    1  0.9678510E-012  0.3000000E+03  0.7818608E-02  0.1093470E+00
          1   -1    0    0  502    0  0.00000000000E+00  0.00000000000E+00  0.22430303550E+03  0.22430303550E+03  0.00000000000E+00 0.  1.
         13   -1    0    0    0    0 -0.00000000000E+00 -0.00000000000E+00 -0.27500000000E+03  0.27500000000E+03  0.00000000000E+00 0.  1.
    9000005    2    1    2  501    0 -0.16587057176E+02 -0.26895644699E+02 -0.59059442102E+02  0.46661607784E+03  0.46178354261E+03 0.  0.
         13    1    3    3    0    0  0.17976524733E+03 -0.68465269806E+02  0.94103492488E+02  0.21414598902E+03  0.00000000000E+00 0.  1.
          1    1    3    3  501    0 -0.19635230450E+03  0.41569625107E+02 -0.15316293459E+03  0.25247008882E+03  0.00000000000E+00 0.  1.
         21    1    1    2  502  501  0.16587057176E+02  0.26895644699E+02  0.83624776040E+01  0.32686957662E+02  0.00000000000E+00 0.  1.
<scales pt_clust_4="550.00000" pt_clust_5="550.00000" pt_clust_6="31.59915"></scales>
<mgrwt>
<rscale>  0 0.30000000E+03</rscale>
<asrwt>  1 0.31599148E+02</asrwt>
<pdfrwt beam="1">  1        1 0.81564740E+00 0.30000000E+03</pdfrwt>
<pdfrwt beam="2">0</pdfrwt>
<totfact> 0.80180842E-04</totfact>
</mgrwt>
<clustering>
<clus scale="   31.599">  1  6  2 -1</clus>
<clus scale="  461.784">  4  5 -1 -1</clus>
<clus scale="  300.000">  1  4  2 -1</clus>
</clustering>
</event>
<event>
 6    1  0.9678510E-012  0.3000000E+03  0.7818608E-02  0.1093470E+00
          1   -1    0    0  502    0  0.00000000000E+00  0.00000000000E+00  0.22320492331E+03  0.22320492331E+03  0.00000000000E+00 0.  1.
         13   -1    0    0    0    0 -0.00000000000E+00 -0.00000000000E+00 -0.27500000000E+03  0.27500000000E+03  0.00000000000E+00 0.  1.
    9000005    2    1    2  501    0 -0.27649598988E+02  0.20226348173E+02 -0.50657266108E+02  0.46392810757E+03  0.45987990269E+03 0.  0.
         13    1    3    3    0    0 -0.21489763942E+03 -0.67290996529E+02 -0.10754773937E+03  0.24955077617E+03  0.00000000000E+00 0.  1.
          3    1    3    3  501    0  0.18724804043E+03  0.87517344702E+02  0.56890473259E+02  0.21437733140E+03  0.00000000000E+00 0.  1.
         21    1    1    2  502  501  0.27649598988E+02 -0.20226348173E+02 -0.11378105830E+01  0.34276815744E+02  0.00000000000E+00 0. -1.
<scales pt_clust_4="550.00000" pt_clust_5="550.00000" pt_clust_6="34.25793"></scales>
<mgrwt>
<rscale>  0 0.30000000E+03</rscale>
<asrwt>  1 0.34257926E+02</asrwt>
<pdfrwt beam="1">  1        1 0.81165427E+00 0.30000000E+03</pdfrwt>
<pdfrwt beam="2">0</pdfrwt>
<totfact> 0.84990088E-04</totfact>
</mgrwt>
<clustering>
<clus scale="   34.258">  1  6  2 -1</clus>
<clus scale="  459.880">  4  5 -1 -1</clus>
<clus scale="  300.000">  1  4  2 -1</clus>
</clustering>
</event>
<event>
 6    1  0.9678510E-012  0.3000000E+03  0.7818608E-02  0.1093470E+00
          1   -1    0    0  502    0  0.00000000000E+00  0.00000000000E+00  0.25027821109E+03  0.25027821109E+03  0.00000000000E+00 0.  1.
         13   -1    0    0    0    0 -0.00000000000E+00 -0.00000000000E+00 -0.27500000000E+03  0.27500000000E+03  0.00000000000E+00 0.  1.
    9000005    2    1    2  501    0  0.39202894582E+02  0.66866716813E-01 -0.65568531985E+02  0.46866259633E+03  0.46239433971E+03 0.  0.
         13    1    3    3    0    0 -0.80710040077E+02 -0.20065007545E+02  0.17797799043E+03  0.19645070673E+03  0.00000000000E+00 0.  1.
          1    1    3    3  501    0  0.11991293466E+03  0.20131874262E+02 -0.24354652241E+03  0.27221188960E+03  0.00000000000E+00 0.  1.
         21    1    1    2  502  501 -0.39202894582E+02 -0.66866716813E-01  0.40846743072E+02  0.56615614757E+02  0.00000000000E+00 0.  1.
<scales pt_clust_4="550.00000" pt_clust_5="550.00000" pt_clust_6="39.20295"></scales>
<mgrwt>
<rscale>  0 0.30000000E+03</rscale>
<asrwt>  1 0.39202952E+02</asrwt>
<pdfrwt beam="1">  1        1 0.91010259E+00 0.30000000E+03</pdfrwt>
<pdfrwt beam="2">0</pdfrwt>
<totfact> 0.69962190E-05</totfact>
</mgrwt>
<clustering>
<clus scale="   39.203">  1  6  2 -1</clus>
<clus scale="  462.394">  4  5 -1 -1</clus>
<clus scale="  300.000">  1  4  2 -1</clus>
</clustering>
</event>
<event>
 6    1  0.9678510E-012  0.3000000E+03  0.7818608E-02  0.1093470E+00
          1   -1    0    0  502    0  0.00000000000E+00  0.00000000000E+00  0.23096385048E+03  0.23096385048E+03  0.00000000000E+00 0.  1.
         13   -1    0    0    0    0 -0.00000000000E+00 -0.00000000000E+00 -0.27500000000E+03  0.27500000000E+03  0.00000000000E+00 0.  1.
    9000005    2    1    2  501    0 -0.28849948594E+02  0.14677655577E+02 -0.11622710846E+02  0.46015572769E+03  0.45886866663E+03 0.  0.
         13    1    3    3    0    0 -0.20488768246E+03  0.13168985359E+03 -0.40196434682E+02  0.24685407293E+03  0.00000000000E+00 0.  1.
          1    1    3    3  501    0  0.17603773387E+03 -0.11701219801E+03  0.28573723836E+02  0.21330165476E+03  0.00000000000E+00 0.  1.
         21    1    1    2  502  501  0.28849948594E+02 -0.14677655577E+02 -0.32413438673E+02  0.45808122792E+02  0.00000000000E+00 0. -1.
<scales pt_clust_4="550.00000" pt_clust_5="550.00000" pt_clust_6="32.36903"></scales>
<mgrwt>
<rscale>  0 0.30000000E+03</rscale>
<asrwt>  1 0.32369031E+02</asrwt>
<pdfrwt beam="1">  1        1 0.83986855E+00 0.30000000E+03</pdfrwt>
<pdfrwt beam="2">0</pdfrwt>
<totfact> 0.50558424E-04</totfact>
</mgrwt>
<clustering>
<clus scale="   32.369">  1  6  2 -1</clus>
<clus scale="  458.869">  4  5 -1 -1</clus>
<clus scale="  300.000">  1  4  2 -1</clus>
</clustering>
</event>
<event>
 6    1  0.9678510E-012  0.3000000E+03  0.7818608E-02  0.1093470E+00
          1   -1    0    0  502    0  0.00000000000E+00  0.00000000000E+00  0.22169375096E+03  0.22169375096E+03  0.00000000000E+00 0.  1.
         13   -1    0    0    0    0 -0.00000000000E+00 -0.00000000000E+00 -0.27500000000E+03  0.27500000000E+03  0.00000000000E+00 0.  1.
    9000005    2    1    2  501    0 -0.30242046371E+02 -0.70566895260E+01 -0.56189045262E+02  0.46550579255E+03  0.46105754072E+03 0.  0.
         13    1    3    3    0    0  0.29570928470E+02 -0.18988084211E+03 -0.15716493256E+03  0.24825388222E+03  0.00000000000E+00 0.  1.
          3    1    3    3  501    0 -0.59812974841E+02  0.18282415258E+03  0.10097588729E+03  0.21725191033E+03  0.00000000000E+00 0.  1.
         21    1    1    2  502  501  0.30242046371E+02  0.70566895260E+01  0.28827962206E+01  0.31187958411E+02  0.00000000000E+00 0.  1.
<scales pt_clust_4="550.00000" pt_clust_5="550.00000" pt_clust_6="31.05444"></scales>
<mgrwt>
<rscale>  0 0.30000000E+03</rscale>
<asrwt>  1 0.31054440E+02</asrwt>
<pdfrwt beam="1">  1        1 0.80615909E+00 0.30000000E+03</pdfrwt>
<pdfrwt beam="2">0</pdfrwt>
<totfact> 0.95512221E-04</totfact>
</mgrwt>
<clustering>
<clus scale="   31.054">  1  6  2 -1</clus>
<clus scale="  461.058">  4  5 -1 -1</clus>
<clus scale="  300.000">  1  4  2 -1</clus>
</clustering>
</event>
<event>
 6    1  0.9678510E-012  0.3000000E+03  0.7818608E-02  0.1093470E+00
          1   -1    0    0  502    0  0.00000000000E+00  0.00000000000E+00  0.23412399805E+03  0.23412399805E+03  0.00000000000E+00 0.  1.
         13   -1    0    0    0    0 -0.00000000000E+00 -0.00000000000E+00 -0.27500000000E+03  0.27500000000E+03  0.00000000000E+00 0.  1.
    9000005    2    1    2  501    0 -0.73557897284E+01 -0.31771693742E+02 -0.64541062680E+02  0.46883028558E+03  0.46321996906E+03 0.  0.
         13    1    3    3    0    0  0.10185359059E+03 -0.12336011137E+03 -0.21078601363E+03  0.26461786511E+03  0.00000000000E+00 0.  1.
          3    1    3    3  501    0 -0.10920938031E+03  0.91588417629E+02  0.14624495095E+03  0.20421242046E+03  0.00000000000E+00 0.  1.
         21    1    1    2  502  501  0.73557897284E+01  0.31771693742E+02  0.23665060733E+02  0.40293712478E+02  0.00000000000E+00 0.  1.
<scales pt_clust_4="550.00000" pt_clust_5="550.00000" pt_clust_6="32.61209"></scales>
<mgrwt>
<rscale>  0 0.30000000E+03</rscale>
<asrwt>  1 0.32612086E+02</asrwt>
<pdfrwt beam="1">  1        1 0.85135999E+00 0.30000000E+03</pdfrwt>
<pdfrwt beam="2">0</pdfrwt>
<totfact> 0.40040809E-04</totfact>
</mgrwt>
<clustering>
<clus scale="   32.612">  1  6  2 -1</clus>
<clus scale="  463.220">  4  5 -1 -1</clus>
<clus scale="  300.000">  1  4  2 -1</clus>
</clustering>
</event>
<event>
 6    1  0.9678510E-012  0.3000000E+03  0.7818608E-02  0.1093470E+00
          1   -1    0    0  502    0  0.00000000000E+00  0.00000000000E+00  0.23109732045E+03  0.23109732045E+03  0.00000000000E+00 0.  1.
         13   -1    0    0    0    0 -0.00000000000E+00 -0.00000000000E+00 -0.27500000000E+03  0.27500000000E+03  0.00000000000E+00 0.  1.
    9000005    2    1    2  501    0 -0.34798522800E+02 -0.10014440295E+02 -0.36836320651E+02  0.46920342350E+03  0.46635148966E+03 0.  0.
         13    1    3    3    0    0  0.10934562450E+02  0.20631985991E+03 -0.11280897248E+03  0.23540032609E+03  0.00000000000E+00 0.  1.
          1    1    3    3  501    0 -0.45733085250E+02 -0.21633430021E+03  0.75972651833E+02  0.23380309741E+03  0.00000000000E+00 0.  1.
         21    1    1    2  502  501  0.34798522800E+02  0.10014440295E+02 -0.70663589028E+01  0.36893896943E+02  0.00000000000E+00 0.  1.
<scales pt_clust_4="550.00000" pt_clust_5="550.00000" pt_clust_6="36.21088"></scales>
<mgrwt>
<rscale>  0 0.30000000E+03</rscale>
<asrwt>  1 0.36210876E+02</asrwt>
<pdfrwt beam="1">  1        1 0.84035389E+00 0.30000000E+03</pdfrwt>
<pdfrwt beam="2">0</pdfrwt>
<totfact> 0.49080516E-04</totfact>
</mgrwt>
<clustering>
<clus scale="   36.211">  1  6  2 -1</clus>
<clus scale="  466.351">  4  5 -1 -1</clus>
<clus scale="  300.000">  1  4  2 -1</clus>
</clustering>
</event>
<event>
 6    1  0.9678510E-012  0.3000000E+03  0.7818608E-02  0.1093470E+00
          1   -1    0    0  502    0  0.00000000000E+00  0.00000000000E+00  0.22387032031E+03  0.22387032031E+03  0.00000000000E+00 0.  1.
         13   -1    0    0    0    0 -0.00000000000E+00 -0.00000000000E+00 -0.27500000000E+03  0.27500000000E+03  0.00000000000E+00 0.  1.
    9000005    2    1    2  501    0  0.31569535515E+02  0.26968000216E+01 -0.66569774645E+02  0.46362397532E+03  0.45772453211E+03 0.  0.
         13    1    3    3    0    0  0.20955600998E+03  0.12302194505E+03 -0.20215571664E+02  0.24383762963E+03  0.00000000000E+00 0.  1.
          1    1    3    3  501    0 -0.17798647447E+03 -0.12032514503E+03 -0.46354202981E+02  0.21978634570E+03  0.00000000000E+00 0.  1.
         21    1    1    2  502  501 -0.31569535515E+02 -0.26968000216E+01  0.15440094959E+02  0.35246344992E+02  0.00000000000E+00 0. -1.
<scales pt_clust_4="550.00000" pt_clust_5="550.00000" pt_clust_6="31.68451"></scales>
<mgrwt>
<rscale>  0 0.30000000E+03</rscale>
<asrwt>  1 0.31684512E+02</asrwt>
<pdfrwt beam="1">  1        1 0.81407389E+00 0.30000000E+03</pdfrwt>
<pdfrwt beam="2">0</pdfrwt>
<totfact> 0.82518520E-04</totfact>
</mgrwt>
<clustering>
<clus scale="   31.685">  1  6  2 -1</clus>
<clus scale="  457.725">  4  5 -1 -1</clus>
<clus scale="  300.000">  1  4  2 -1</clus>
</clustering>
</event>
<event>
 6    1  0.9678510E-012  0.3000000E+03  0.7818608E-02  0.1093470E+00
          1   -1    0    0  502    0  0.00000000000E+00  0.00000000000E+00  0.25433496207E+03  0.25433496207E+03  0.00000000000E+00 0.  1.
         13   -1    0    0    0    0 -0.00000000000E+00 -0.00000000000E+00 -0.27500000000E+03  0.27500000000E+03  0.00000000000E+00 0.  1.
    9000005    2    1    2  501    0  0.28640624072E+02 -0.97530428374E+01 -0.11704982410E+02  0.49778040952E+03  0.49672217818E+03 0.  0.
         13    1    3    3    0    0 -0.21396738884E+03 -0.97968332644E+02 -0.37686985115E+02  0.23832781318E+03  0.00000000000E+00 0.  1.
          3    1    3    3  501    0  0.24260801291E+03  0.88215289806E+02  0.25982002705E+02  0.25945259634E+03  0.00000000000E+00 0.  1.
         21    1    1    2  502  501 -0.28640624072E+02  0.97530428374E+01 -0.89600555174E+01  0.31554552551E+02  0.00000000000E+00 0. -1.
<scales pt_clust_4="550.00000" pt_clust_5="550.00000" pt_clust_6="30.25571"></scales>
<mgrwt>
<rscale>  0 0.30000000E+03</rscale>
<asrwt>  1 0.30255712E+02</asrwt>
<pdfrwt beam="1">  1        1 0.92485441E+00 0.30000000E+03</pdfrwt>
<pdfrwt beam="2">0</pdfrwt>
<totfact> 0.33946737E-05</totfact>
</mgrwt>
<clustering>
<clus scale="   30.256">  1  6  2 -1</clus>
<clus scale="  496.722">  4  5 -1 -1</clus>
<clus scale="  300.000">  1  4  2 -1</clus>
</clustering>
</event>
<event>
 6    1  0.9678510E-012  0.3000000E+03  0.7818608E-02  0.1093470E+00
          1   -1    0    0  502    0  0.00000000000E+00  0.00000000000E+00  0.24196761334E+03  0.24196761334E+03  0.00000000000E+00 0.  1.
         13   -1    0    0    0    0 -0.00000000000E+00 -0.00000000000E+00 -0.27500000000E+03  0.27500000000E+03  0.00000000000E+00 0.  1.
    9000005    2    1    2  501    0  0.13794048758E+02  0.29600306077E+02 -0.64637123271E+02  0.47152189542E+03  0.46592755473E+03 0.  0.
         13    1    3    3    0    0  0.17715031088E+03  0.78129606555E+01 -0.19339584882E+03  0.26238374443E+03  0.00000000000E+00 0.  1.
          1    1    3    3  501    0 -0.16335626212E+03  0.21787345422E+02  0.12875872555E+03  0.20913815099E+03  0.00000000000E+00 0.  1.
         21    1    1    2  502  501 -0.13794048758E+02 -0.29600306077E+02  0.31604736609E+02  0.45445717918E+02  0.00000000000E+00 0.  1.
<scales pt_clust_4="550.00000" pt_clust_5="550.00000" pt_clust_6="32.65661"></scales>
<mgrwt>
<rscale>  0 0.30000000E+03</rscale>
<asrwt>  1 0.32656606E+02</asrwt>
<pdfrwt beam="1">  1        1 0.87988223E+00 0.30000000E+03</pdfrwt>
<pdfrwt beam="2">0</pdfrwt>
<totfact> 0.20063668E-04</totfact>
</mgrwt>
<clustering>
<clus scale="   32.657">  1  6  2 -1</clus>
<clus scale="  465.928">  4  5 -1 -1</clus>
<clus scale="  300.000">  1  4  2 -1</clus>
</clustering>
</event>
<event>
 6    1  0.9678510E-012  0.3000000E+03  0.7818608E-02  0.1093470E+00
          1   -1    0    0  502    0  0.00000000000E+00  0.00000000000E+00  0.23615753698E+03  0.23615753698E+03  0.00000000000E+00 0.  1.
         13   -1    0    0    0    0 -0.00000000000E+00 -0.00000000000E+00 -0.27500000000E+03  0.27500000000E+03  0.00000000000E+00 0.  1.
    9000005    2    1    2  501    0 -0.33447411497E+02  0.59131907999E+01 -0.69949808635E+02  0.46509929002E+03  0.45855280905E+03 0.  0.
         13    1    3    3    0    0 -0.75457704303E+02 -0.81985744017E+02 -0.24254051273E+03  0.26691089838E+03  0.00000000000E+00 0.  1.
          1    1    3    3  501    0  0.42010292807E+02  0.87898934817E+02  0.17259070409E+03  0.19818839164E+03  0.00000000000E+00 0.  1.
         21    1    1    2  502  501  0.33447411497E+02 -0.59131907999E+01  0.31107345610E+02  0.46058246951E+02  0.00000000000E+00 0.  1.
<scales pt_clust_4="550.00000" pt_clust_5="550.00000" pt_clust_6="33.96609"></scales>
<mgrwt>
<rscale>  0 0.30000000E+03</rscale>
<asrwt>  1 0.33966088E+02</asrwt>
<pdfrwt beam="1">  1        1 0.85875468E+00 0.30000000E+03</pdfrwt>
<pdfrwt beam="2">0</pdfrwt>
<totfact> 0.33533008E-04</totfact>
</mgrwt>
<clustering>
<clus scale="   33.966">  1  6  2 -1</clus>
<clus scale="  458.553">  4  5 -1 -1</clus>
<clus scale="  300.000">  1  4  2 -1</clus>
</clustering>
</event>
<event>
 6    1  0.9678510E-012  0.3000000E+03  0.7818608E-02  0.1093470E+00
          1   -1    0    0  502    0  0.00000000000E+00  0.00000000000E+00  0.23535125864E+03  0.23535125864E+03  0.00000000000E+00 0.  1.
         13   -1    0    0    0    0 -0.00000000000E+00 -0.00000000000E+00 -0.27500000000E+03  0.27500000000E+03  0.00000000000E+00 0.  1.
    9000005    2    1    2  501    0 -0.15485543645E+02  0.29284603571E+02 -0.70319429934E+02  0.46520614588E+03  0.45866605049E+03 0.  0.
         13    1    3    3    0    0  0.78896372085E+02  0.15037927091E+03 -0.20132233209E+03  0.26338041698E+03  0.00000000000E+00 0.  1.
          1    1    3    3  501    0 -0.94381915730E+02 -0.12109466734E+03  0.13100290216E+03  0.20182572891E+03  0.00000000000E+00 0.  1.
         21    1    1    2  502  501  0.15485543645E+02 -0.29284603571E+02  0.30670688572E+02  0.45145112756E+02  0.00000000000E+00 0. -1.
<scales pt_clust_4="550.00000" pt_clust_5="550.00000" pt_clust_6="33.12688"></scales>
<mgrwt>
<rscale>  0 0.30000000E+03</rscale>
<asrwt>  1 0.33126878E+02</asrwt>
<pdfrwt beam="1">  1        1 0.85582276E+00 0.30000000E+03</pdfrwt>
<pdfrwt beam="2">0</pdfrwt>
<totfact> 0.36121807E-04</totfact>
</mgrwt>
<clustering>
<clus scale="   33.127">  1  6  2 -1</clus>
<clus scale="  458.666">  4  5 -1 -1</clus>
<clus scale="  300.000">  1  4  2 -1</clus>
</clustering>
</event>
<event>
 6    1  0.9678510E-012  0.3000000E+03  0.7818608E-02  0.1093470E+00
          1   -1    0    0  502    0  0.00000000000E+00  0.00000000000E+00  0.23034589677E+03  0.23034589677E+03  0.00000000000E+00 0.  1.
         13   -1    0    0    0    0 -0.00000000000E+00 -0.00000000000E+00 -0.27500000000E+03  0.27500000000E+03  0.00000000000E+00 0.  1.
    9000005    2    1    2  501    0 -0.26838252435E+02 -0.22178039155E+02 -0.66122522066E+02  0.46444296018E+03  0.45839166454E+03 0.  0.
         13    1    3    3    0    0  0.96678707306E+02 -0.21164824643E+03 -0.19393642225E+02  0.23349061228E+03  0.00000000000E+00 0.  1.
          1    1    3    3  501    0 -0.12351695974E+03  0.18947020728E+03 -0.46728879840E+02  0.23095234790E+03  0.00000000000E+00 0.  1.
         21    1    1    2  502  501  0.26838252435E+02  0.22178039155E+02  0.21468418833E+02  0.40902936591E+02  0.00000000000E+00 0.  1.
<scales pt_clust_4="550.00000" pt_clust_5="550.00000" pt_clust_6="34.81605"></scales>
<mgrwt>
<rscale>  0 0.30000000E+03</rscale>
<asrwt>  1 0.34816048E+02</asrwt>
<pdfrwt beam="1">  1        1 0.83762144E+00 0.30000000E+03</pdfrwt>
<pdfrwt beam="2">0</pdfrwt>
<totfact> 0.51827579E-04</totfact>
</mgrwt>
<clustering>
<clus scale="   34.816">  1  6  2 -1</clus>
<clus scale="  458.392">  4  5 -1 -1</clus>
<clus scale="  300.000">  1  4  2 -1</clus>
</clustering>
</event>
<event>
 6    1  0.9678510E-012  0.3000000E+03  0.7818608E-02  0.1093470E+00
          1   -1    0    0  502    0  0.00000000000E+00  0.00000000000E+00  0.24582492144E+03  0.24582492144E+03  0.00000000000E+00 0.  1.
         13   -1    0    0    0    0 -0.00000000000E+00 -0.00000000000E+00 -0.27500000000E+03  0.27500000000E+03  0.00000000000E+00 0.  1.
    9000005    2    1    2  501    0  0.16165717913E+02  0.29836441980E+02 -0.60221866373E+02  0.47483093554E+03  0.46977249861E+03 0.  0.
         13    1    3    3    0    0  0.17720876172E+03 -0.14803833538E+03 -0.35372896201E+02  0.23360123235E+03  0.00000000000E+00 0.  1.
          3    1    3    3  501    0 -0.16104304381E+03  0.17787477736E+03 -0.24848970171E+02  0.24122970318E+03  0.00000000000E+00 0.  1.
         21    1    1    2  502  501 -0.16165717913E+02 -0.29836441980E+02  0.31046787808E+02  0.45993985898E+02  0.00000000000E+00 0. -1.
<scales pt_clust_4="550.00000" pt_clust_5="550.00000" pt_clust_6="33.93440"></scales>
<mgrwt>
<rscale>  0 0.30000000E+03</rscale>
<asrwt>  1 0.33934403E+02</asrwt>
<pdfrwt beam="1">  1        1 0.89390881E+00 0.30000000E+03</pdfrwt>
<pdfrwt beam="2">0</pdfrwt>
<totfact> 0.13048749E-04</totfact>
</mgrwt>
<clustering>
<clus scale="   33.934">  1  6  2 -1</clus>
<clus scale="  469.772">  4  5 -1 -1</clus>
<clus scale="  300.000">  1  4  2 -1</clus>
</clustering>
</event>
<event>
 6    1  0.9678510E-012  0.3000000E+03  0.7818608E-02  0.1093470E+00
          1   -1    0    0  502    0  0.00000000000E+00  0.00000000000E+00  0.24329949034E+03  0.24329949034E+03  0.00000000000E+00 0.  1.
         13   -1    0    0    0    0 -0.00000000000E+00 -0.00000000000E+00 -0.27500000000E+03  0.27500000000E+03  0.00000000000E+00 0.  1.
    9000005    2    1    2  501    0 -0.20340474468E+01  0.43944750710E+02 -0.41372276752E+02  0.47325704877E+03  0.46938820869E+03 0.  0.
         13    1    3    3    0    0 -0.75515822896E+01 -0.78028260656E+02  0.19337191224E+03  0.20865793131E+03  0.00000000000E+00 0.  1.
          3    1    3    3  501    0  0.55175348428E+01  0.12197301137E+03 -0.23474418899E+03  0.26459911745E+03  0.00000000000E+00 0.  1.
         21    1    1    2  502  501  0.20340474468E+01 -0.43944750710E+02  0.96717670888E+01  0.45042441570E+02  0.00000000000E+00 0.  1.
<scales pt_clust_4="550.00000" pt_clust_5="550.00000" pt_clust_6="43.99180"></scales>
<mgrwt>
<rscale>  0 0.30000000E+03</rscale>
<asrwt>  1 0.43991800E+02</asrwt>
<pdfrwt beam="1">  1        1 0.88472542E+00 0.30000000E+03</pdfrwt>
<pdfrwt beam="2">0</pdfrwt>
<totfact> 0.16416148E-04</totfact>
</mgrwt>
<clustering>
<clus scale="   43.992">  1  6  2 -1</clus>
<clus scale="  469.388">  4  5 -1 -1</clus>
<clus scale="  300.000">  1  4  2 -1</clus>
</clustering>
</event>
<event>
 6    1  0.9678510E-012  0.3000000E+03  0.7818608E-02  0.1093470E+00
          1   -1    0    0  502    0  0.00000000000E+00  0.00000000000E+00  0.24580778753E+03  0.24580778753E+03  0.00000000000E+00 0.  1.
         13   -1    0    0    0    0 -0.00000000000E+00 -0.00000000000E+00 -0.27500000000E+03  0.27500000000E+03  0.00000000000E+00 0.  1.
    9000005    2    1    2  501    0  0.10319085458E+02 -0.35472070003E+02 -0.62805593251E+02  0.47086171018E+03  0.46518969926E+03 0.  0.
         13    1    3    3    0    0  0.39224063287E+02  0.59936743375E+01  0.19966440768E+03  0.20356897349E+03  0.00000000000E+00 0.  1.
          3    1    3    3  501    0 -0.28904977829E+02 -0.41465744341E+02 -0.26247000093E+03  0.26729273669E+03  0.00000000000E+00 0.  1.
         21    1    1    2  502  501 -0.10319085458E+02  0.35472070003E+02  0.33613380779E+02  0.49946077347E+02  0.00000000000E+00 0.  1.
<scales pt_clust_4="550.00000" pt_clust_5="550.00000" pt_clust_6="36.94254"></scales>
<mgrwt>
<rscale>  0 0.30000000E+03</rscale>
<asrwt>  1 0.36942540E+02</asrwt>
<pdfrwt beam="1">  1        1 0.89384650E+00 0.30000000E+03</pdfrwt>
<pdfrwt beam="2">0</pdfrwt>
<totfact> 0.12864666E-04</totfact>
</mgrwt>
<clustering>
<clus scale="   36.943">  1  6  2 -1</clus>
<clus scale="  465.190">  4  5 -1 -1</clus>
<clus scale="  300.000">  1  4  2 -1</clus>
</clustering>
</event>
<event>
 6    1  0.9678510E-012  0.3000000E+03  0.7818608E-02  0.1093470E+00
          1   -1    0    0  502    0  0.00000000000E+00  0.00000000000E+00  0.23077899197E+03  0.23077899197E+03  0.00000000000E+00 0.  1.
         13   -1    0    0    0    0 -0.00000000000E+00 -0.00000000000E+00 -0.27500000000E+03  0.27500000000E+03  0.00000000000E+00 0.  1.
    9000005    2    1    2  501    0  0.33781767603E+02 -0.51274237794E+01 -0.55443590057E+02  0.46981450053E+03  0.46527859927E+03 0.  0.
         13    1    3    3    0    0  0.11221152243E+02  0.20857205371E+03 -0.12564423012E+03  0.24375128391E+03  0.00000000000E+00 0.  1.
          3    1    3    3  501    0  0.22560615360E+02 -0.21369947749E+03  0.70200640060E+02  0.22606321662E+03  0.00000000000E+00 0.  1.
         21    1    1    2  502  501 -0.33781767603E+02  0.51274237794E+01  0.11222582029E+02  0.35964491438E+02  0.00000000000E+00 0. -1.
<scales pt_clust_4="550.00000" pt_clust_5="550.00000" pt_clust_6="34.16867"></scales>
<mgrwt>
<rscale>  0 0.30000000E+03</rscale>
<asrwt>  1 0.34168674E+02</asrwt>
<pdfrwt beam="1">  1        1 0.83919633E+00 0.30000000E+03</pdfrwt>
<pdfrwt beam="2">0</pdfrwt>
<totfact> 0.50634565E-04</totfact>
</mgrwt>
<clustering>
<clus scale="   34.169">  1  6  2 -1</clus>
<clus scale="  465.279">  4  5 -1 -1</clus>
<clus scale="  300.000">  1  4  2 -1</clus>
</clustering>
</event>
<event>
 6    1  0.9678510E-012  0.3000000E+03  0.7818608E-02  0.1093470E+00
          1   -1    0    0  502    0  0.00000000000E+00  0.00000000000E+00  0.23648953397E+03  0.23648953397E+03  0.00000000000E+00 0.  1.
         13   -1    0    0    0    0 -0.00000000000E+00 -0.00000000000E+00 -0.27500000000E+03  0.27500000000E+03  0.00000000000E+00 0.  1.
    9000005    2    1    2  501    0  0.28045121765E+02  0.29456970044E+02 -0.65469961064E+02  0.46269346536E+03  0.45622876405E+03 0.  0.
         13    1    3    3    0    0  0.82330738449E+02 -0.17988470814E+03 -0.13034029861E+03  0.23690810911E+03  0.00000000000E+00 0.  1.
          3    1    3    3  501    0 -0.54285616684E+02  0.20934167819E+03  0.64870337548E+02  0.22578535626E+03  0.00000000000E+00 0.  1.
         21    1    1    2  502  501 -0.28045121765E+02 -0.29456970044E+02  0.26959495030E+02  0.48796068605E+02  0.00000000000E+00 0.  1.
<scales pt_clust_4="550.00000" pt_clust_5="550.00000" pt_clust_6="40.67237"></scales>
<mgrwt>
<rscale>  0 0.30000000E+03</rscale>
<asrwt>  1 0.40672373E+02</asrwt>
<pdfrwt beam="1">  1        1 0.85996194E+00 0.30000000E+03</pdfrwt>
<pdfrwt beam="2">0</pdfrwt>
<totfact> 0.31491858E-04</totfact>
</mgrwt>
<clustering>
<clus scale="   40.672">  1  6  2 -1</clus>
<clus scale="  456.229">  4  5 -1 -1</clus>
<clus scale="  300.000">  1  4  2 -1</clus>
</clustering>
</event>
<event>
 6    1  0.9678510E-012  0.3000000E+03  0.7818608E-02  0.1093470E+00
          1   -1    0    0  502    0  0.00000000000E+00  0.00000000000E+00  0.22956638126E+03  0.22956638126E+03  0.00000000000E+00 0.  1.
         13   -1    0    0    0    0 -0.00000000000E+00 -0.00000000000E+00 -0.27500000000E+03  0.27500000000E+03  0.00000000000E+00 0.  1.
    9000005    2    1    2  501    0 -0.13075530280E+02 -0.27552248015E+02 -0.66423872911E+02  0.46754359594E+03  0.46179517900E+03 0.  0.
         13    1    3    3    0    0 -0.81526454124E+02 -0.19867270420E+03  0.83046675779E+02  0.23024803251E+03  0.00000000000E+00 0.  1.
          1    1    3    3  501    0  0.68450923844E+02  0.17112045618E+03 -0.14947054869E+03  0.23729556343E+03  0.00000000000E+00 0.  1.
         21    1    1    2  502  501  0.13075530280E+02  0.27552248015E+02  0.20990254171E+02  0.37022785321E+02  0.00000000000E+00 0.  1.
<scales pt_clust_4="550.00000" pt_clust_5="550.00000" pt_clust_6="30.49747"></scales>
<mgrwt>
<rscale>  0 0.30000000E+03</rscale>
<asrwt>  1 0.30497473E+02</asrwt>
<pdfrwt beam="1">  1        1 0.83478684E+00 0.30000000E+03</pdfrwt>
<pdfrwt beam="2">0</pdfrwt>
<totfact> 0.55728618E-04</totfact>
</mgrwt>
<clustering>
<clus scale="   30.497">  1  6  2 -1</clus>
<clus scale="  461.795">  4  5 -1 -1</clus>
<clus scale="  300.000">  1  4  2 -1</clus>
</clustering>
</event>
<event>
 6    1  0.9678510E-012  0.3000000E+03  0.7818608E-02  0.1093470E+00
          1   -1    0    0  502    0  0.00000000000E+00  0.00000000000E+00  0.25749607625E+03  0.25749607625E+03  0.00000000000E+00 0.  1.
         13   -1    0    0    0    0 -0.00000000000E+00 -0.00000000000E+00 -0.27500000000E+03  0.27500000000E+03  0.00000000000E+00 0.  1.
    9000005    2    1    2  501    0  0.58069935692E+01  0.42509920819E+02 -0.64981354968E+02  0.46850450636E+03  0.46198818323E+03 0.  0.
         13    1    3    3    0    0  0.48001536964E+02  0.11876438189E+03 -0.24052983105E+03  0.27251371632E+03  0.00000000000E+00 0.  1.
          1    1    3    3  501    0 -0.42194543394E+02 -0.76254461069E+02  0.17554847608E+03  0.19599079004E+03  0.00000000000E+00 0.  1.
         21    1    1    2  502  501 -0.58069935692E+01 -0.42509920819E+02  0.47477431217E+02  0.63991569892E+02  0.00000000000E+00 0.  1.
<scales pt_clust_4="550.00000" pt_clust_5="550.00000" pt_clust_6="42.90471"></scales>
<mgrwt>
<rscale>  0 0.30000000E+03</rscale>
<asrwt>  1 0.42904715E+02</asrwt>
<pdfrwt beam="1">  1        1 0.93634937E+00 0.30000000E+03</pdfrwt>
<pdfrwt beam="2">0</pdfrwt>
<totfact> 0.20883987E-05</totfact>
</mgrwt>
<clustering>
<clus scale="   42.905">  1  6  2 -1</clus>
<clus scale="  461.988">  4  5 -1 -1</clus>
<clus scale="  300.000">  1  4  2 -1</clus>
</clustering>
</event>
<event>
 6    1  0.9678510E-012  0.3000000E+03  0.7818608E-02  0.1093470E+00
          1   -1    0    0  502    0  0.00000000000E+00  0.00000000000E+00  0.22871187844E+03  0.22871187844E+03  0.00000000000E+00 0.  1.
         13   -1    0    0    0    0 -0.00000000000E+00 -0.00000000000E+00 -0.27500000000E+03  0.27500000000E+03  0.00000000000E+00 0.  1.
    9000005    2    1    2  501    0 -0.10510243805E+02 -0.31328279688E+02 -0.69151254113E+02  0.46352918113E+03  0.45714929671E+03 0.  0.
         13    1    3    3    0    0  0.21981412836E+03  0.21741736069E+02 -0.17402755996E+02  0.22157123015E+03  0.00000000000E+00 0.  1.
          3    1    3    3  501    0 -0.23032437216E+03 -0.53070015756E+02 -0.51748498118E+02  0.24195795098E+03  0.00000000000E+00 0.  1.
         21    1    1    2  502  501  0.10510243805E+02  0.31328279688E+02  0.22863132558E+02  0.40182697314E+02  0.00000000000E+00 0.  1.
<scales pt_clust_4="550.00000" pt_clust_5="550.00000" pt_clust_6="33.04431"></scales>
<mgrwt>
<rscale>  0 0.30000000E+03</rscale>
<asrwt>  1 0.33044309E+02</asrwt>
<pdfrwt beam="1">  1        1 0.83167956E+00 0.30000000E+03</pdfrwt>
<pdfrwt beam="2">0</pdfrwt>
<totfact> 0.57918916E-04</totfact>
</mgrwt>
<clustering>
<clus scale="   33.044">  1  6  2 -1</clus>
<clus scale="  457.149">  4  5 -1 -1</clus>
<clus scale="  300.000">  1  4  2 -1</clus>
</clustering>
</event>
<event>
 6    1  0.9678510E-012  0.3000000E+03  0.7818608E-02  0.1093470E+00
          1   -1    0    0  502    0  0.00000000000E+00  0.00000000000E+00  0.22941652993E+03  0.22941652993E+03  0.00000000000E+00 0.  1.
         13   -1    0    0    0    0 -0.00000000000E+00 -0.00000000000E+00 -0.27500000000E+03  0.27500000000E+03  0.00000000000E+00 0.  1.
    9000005    2    1    2  501    0 -0.25190019537E+02 -0.16937403336E+02 -0.57137753393E+02  0.47193708752E+03  0.46748099320E+03 0.  0.
         13    1    3    3    0    0 -0.94596606048E+02  0.20985960258E+03 -0.44238845095E+02  0.23440700947E+03  0.00000000000E+00 0.  1.
          3    1    3    3  501    0  0.69406586511E+02 -0.22679700592E+03 -0.12898908298E+02  0.23753007805E+03  0.00000000000E+00 0.  1.
         21    1    1    2  502  501  0.25190019537E+02  0.16937403336E+02  0.11554283325E+02  0.32479442409E+02  0.00000000000E+00 0. -1.
<scales pt_clust_4="550.00000" pt_clust_5="550.00000" pt_clust_6="30.35478"></scales>
<mgrwt>
<rscale>  0 0.30000000E+03</rscale>
<asrwt>  1 0.30354781E+02</asrwt>
<pdfrwt beam="1">  1        1 0.83424193E+00 0.30000000E+03</pdfrwt>
<pdfrwt beam="2">0</pdfrwt>
<totfact> 0.56294997E-04</totfact>
</mgrwt>
<clustering>
<clus scale="   30.355">  1  6  2 -1</clus>
<clus scale="  467.481">  4  5 -1 -1</clus>
<clus scale="  300.000">  1  4  2 -1</clus>
</clustering>
</event>
<event>
 6    1  0.9678510E-012  0.3000000E+03  0.7818608E-02  0.1093470E+00
          1   -1    0    0  502    0  0.00000000000E+00  0.00000000000E+00  0.24290764325E+03  0.24290764325E+03  0.00000000000E+00 0.  1.
         13   -1    0    0    0    0 -0.00000000000E+00 -0.00000000000E+00 -0.27500000000E+03  0.27500000000E+03  0.00000000000E+00 0.  1.
    9000005    2    1    2  501    0  0.21603828507E+02 -0.21569297029E+02 -0.33444943287E+02  0.48734967423E+03  0.48524136340E+03 0.  0.
         13    1    3    3    0    0  0.62976643826E+01  0.14196934940E+03  0.17277506492E+03  0.22371003510E+03  0.00000000000E+00 0.  1.
          3    1    3    3  501    0  0.15306164124E+02 -0.16353864643E+03 -0.20622000820E+03  0.26363963913E+03  0.00000000000E+00 0.  1.
         21    1    1    2  502  501 -0.21603828507E+02  0.21569297029E+02  0.13525865371E+01  0.30557969023E+02  0.00000000000E+00 0. -1.
<scales pt_clust_4="550.00000" pt_clust_5="550.00000" pt_clust_6="30.52802"></scales>
<mgrwt>
<rscale>  0 0.30000000E+03</rscale>
<asrwt>  1 0.30528020E+02</asrwt>
<pdfrwt beam="1">  1        1 0.88330052E+00 0.30000000E+03</pdfrwt>
<pdfrwt beam="2">0</pdfrwt>
<totfact> 0.18364832E-04</totfact>
</mgrwt>
<clustering>
<clus scale="   30.528">  1  6  2 -1</clus>
<clus scale="  485.241">  4  5 -1 -1</clus>
<clus scale="  300.000">  1  4  2 -1</clus>
</clustering>
</event>
<event>
 6    1  0.9678510E-012  0.3000000E+03  0.7818608E-02  0.1093470E+00
          1   -1    0    0  502    0  0.00000000000E+00  0.00000000000E+00  0.23729056397E+03  0.23729056397E+03  0.00000000000E+00 0.  1.
         13   -1    0    0    0    0 -0.00000000000E+00 -0.00000000000E+00 -0.27500000000E+03  0.27500000000E+03  0.00000000000E+00 0.  1.
    9000005    2    1    2  501    0  0.18458463514E+02 -0.24202606685E+02 -0.56747038539E+02  0.47638915237E+03  0.47201686100E+03 0.  0.
         13    1    3    3    0    0 -0.68682299525E+02  0.13357086339E+03  0.14297379023E+03  0.20736426526E+03  0.00000000000E+00 0.  1.
          3    1    3    3  501    0  0.87140763039E+02 -0.15777347008E+03 -0.19972082876E+03  0.26902488711E+03  0.00000000000E+00 0.  1.
         21    1    1    2  502  501 -0.18458463514E+02  0.24202606685E+02  0.19037602508E+02  0.35901411601E+02  0.00000000000E+00 0.  1.
<scales pt_clust_4="550.00000" pt_clust_5="550.00000" pt_clust_6="30.43815"></scales>
<mgrwt>
<rscale>  0 0.30000000E+03</rscale>
<asrwt>  1 0.30438151E+02</asrwt>
<pdfrwt beam="1">  1        1 0.86287478E+00 0.30000000E+03</pdfrwt>
<pdfrwt beam="2">0</pdfrwt>
<totfact> 0.30929253E-04</totfact>
</mgrwt>
<clustering>
<clus scale="   30.438">  1  6  2 -1</clus>
<clus scale="  472.017">  4  5 -1 -1</clus>
<clus scale="  300.000">  1  4  2 -1</clus>
</clustering>
</event>
<event>
 6    1  0.9678510E-012  0.3000000E+03  0.7818608E-02  0.1093470E+00
          1   -1    0    0  502    0  0.00000000000E+00  0.00000000000E+00  0.22666990106E+03  0.22666990106E+03  0.00000000000E+00 0.  1.
         13   -1    0    0    0    0 -0.00000000000E+00 -0.00000000000E+00 -0.27500000000E+03  0.27500000000E+03  0.00000000000E+00 0.  1.
    9000005    2    1    2  501    0 -0.27625402154E+02  0.15186016847E+02 -0.52857727204E+02  0.46982217948E+03  0.46577372517E+03 0.  0.
         13    1    3    3    0    0 -0.19409995844E+03 -0.10535318746E+03  0.68385529497E+02  0.23119400645E+03  0.00000000000E+00 0.  1.
          3    1    3    3  501    0  0.16647455629E+03  0.12053920431E+03 -0.12124325670E+03  0.23862817303E+03  0.00000000000E+00 0.  1.
         21    1    1    2  502  501  0.27625402154E+02 -0.15186016847E+02  0.45276282607E+01  0.31847721575E+02  0.00000000000E+00 0.  1.
<scales pt_clust_4="550.00000" pt_clust_5="550.00000" pt_clust_6="31.52424"></scales>
<mgrwt>
<rscale>  0 0.30000000E+03</rscale>
<asrwt>  1 0.31524244E+02</asrwt>
<pdfrwt beam="1">  1        1 0.82425419E+00 0.30000000E+03</pdfrwt>
<pdfrwt beam="2">0</pdfrwt>
<totfact> 0.67650171E-04</totfact>
</mgrwt>
<clustering>
<clus scale="   31.524">  1  6  2 -1</clus>
<clus scale="  465.774">  4  5 -1 -1</clus>
<clus scale="  300.000">  1  4  2 -1</clus>
</clustering>
</event>
<event>
 6    1  0.9678510E-012  0.3000000E+03  0.7818608E-02  0.1093470E+00
          1   -1    0    0  502    0  0.00000000000E+00  0.00000000000E+00  0.22907183325E+03  0.22907183325E+03  0.00000000000E+00 0.  1.
         13   -1    0    0    0    0 -0.00000000000E+00 -0.00000000000E+00 -0.27500000000E+03  0.27500000000E+03  0.00000000000E+00 0.  1.
    9000005    2    1    2  501    0 -0.10041039474E+02 -0.36146331039E+02 -0.50737074129E+02  0.46624981173E+03  0.46196023263E+03 0.  0.
         13    1    3    3    0    0  0.20690535945E+03  0.26567511947E+02 -0.10566146114E+03  0.23383756077E+03  0.00000000000E+00 0.  1.
          3    1    3    3  501    0 -0.21694639892E+03 -0.62713842985E+02  0.54924387012E+02  0.23241225096E+03  0.00000000000E+00 0.  1.
         21    1    1    2  502  501  0.10041039474E+02  0.36146331039E+02  0.48089073742E+01  0.37822021514E+02  0.00000000000E+00 0. -1.
<scales pt_clust_4="550.00000" pt_clust_5="550.00000" pt_clust_6="37.51506"></scales>
<mgrwt>
<rscale>  0 0.30000000E+03</rscale>
<asrwt>  1 0.37515060E+02</asrwt>
<pdfrwt beam="1">  1        1 0.83298848E+00 0.30000000E+03</pdfrwt>
<pdfrwt beam="2">0</pdfrwt>
<totfact> 0.55269273E-04</totfact>
</mgrwt>
<clustering>
<clus scale="   37.515">  1  6  2 -1</clus>
<clus scale="  461.960">  4  5 -1 -1</clus>
<clus scale="  300.000">  1  4  2 -1</clus>
</clustering>
</event>
<event>
 6    1  0.9678510E-012  0.3000000E+03  0.7818608E-02  0.1093470E+00
          1   -1    0    0  502    0  0.00000000000E+00  0.00000000000E+00  0.23746134267E+03  0.23746134267E+03  0.00000000000E+00 0.  1.
         13   -1    0    0    0    0 -0.00000000000E+00 -0.00000000000E+00 -0.27500000000E+03  0.27500000000E+03  0.00000000000E+00 0.  1.
    9000005    2    1    2  501    0 -0.42041934323E+02  0.11786210925E+02 -0.20962514999E+02  0.46575794340E+03  0.46323276632E+03 0.  0.
         13    1    3    3    0    0 -0.12258902079E+03  0.21423841123E+03 -0.22601025597E+02  0.24786482450E+03  0.00000000000E+00 0.  1.
          3    1    3    3  501    0  0.80547086464E+02 -0.20245220031E+03  0.16385105980E+01  0.21789311890E+03  0.00000000000E+00 0.  1.
         21    1    1    2  502  501  0.42041934323E+02 -0.11786210925E+02 -0.16576142326E+02  0.46703399277E+02  0.00000000000E+00 0. -1.
<scales pt_clust_4="550.00000" pt_clust_5="550.00000" pt_clust_6="43.66281"></scales>
<mgrwt>
<rscale>  0 0.30000000E+03</rscale>
<asrwt>  1 0.43662809E+02</asrwt>
<pdfrwt beam="1">  1        1 0.86349579E+00 0.30000000E+03</pdfrwt>
<pdfrwt beam="2">0</pdfrwt>
<totfact> 0.28480830E-04</totfact>
</mgrwt>
<clustering>
<clus scale="   43.663">  1  6  2 -1</clus>
<clus scale="  463.233">  4  5 -1 -1</clus>
<clus scale="  300.000">  1  4  2 -1</clus>
</clustering>
</event>
<event>
 6    1  0.9678510E-012  0.3000000E+03  0.7818608E-02  0.1093470E+00
          1   -1    0    0  502    0  0.00000000000E+00  0.00000000000E+00  0.24542301535E+03  0.24542301535E+03  0.00000000000E+00 0.  1.
         13   -1    0    0    0    0 -0.00000000000E+00 -0.00000000000E+00 -0.27500000000E+03  0.27500000000E+03  0.00000000000E+00 0.  1.
    9000005    2    1    2  501    0 -0.26806578655E+02 -0.16601776615E+02 -0.31220818610E+02  0.48884907299E+03  0.48683104359E+03 0.  0.
         13    1    3    3    0    0  0.14449017071E+03  0.51083582815E+02  0.16124244574E+03  0.22245464296E+03  0.00000000000E+00 0.  1.
          3    1    3    3  501    0 -0.17129674937E+03 -0.67685359430E+02 -0.19246326435E+03  0.26639443003E+03  0.00000000000E+00 0.  1.
         21    1    1    2  502  501  0.26806578655E+02  0.16601776615E+02  0.16438339565E+01  0.31573942358E+02  0.00000000000E+00 0.  1.
<scales pt_clust_4="550.00000" pt_clust_5="550.00000" pt_clust_6="31.53112"></scales>
<mgrwt>
<rscale>  0 0.30000000E+03</rscale>
<asrwt>  1 0.31531122E+02</asrwt>
<pdfrwt beam="1">  1        1 0.89244733E+00 0.30000000E+03</pdfrwt>
<pdfrwt beam="2">0</pdfrwt>
<totfact> 0.13764145E-04</totfact>
</mgrwt>
<clustering>
<clus scale="   31.531">  1  6  2 -1</clus>
<clus scale="  486.831">  4  5 -1 -1</clus>
<clus scale="  300.000">  1  4  2 -1</clus>
</clustering>
</event>
<event>
 6    1  0.9678510E-012  0.3000000E+03  0.7818608E-02  0.1093470E+00
          1   -1    0    0  502    0  0.00000000000E+00  0.00000000000E+00  0.23310585212E+03  0.23310585212E+03  0.00000000000E+00 0.  1.
         13   -1    0    0    0    0 -0.00000000000E+00 -0.00000000000E+00 -0.27500000000E+03  0.27500000000E+03  0.00000000000E+00 0.  1.
    9000005    2    1    2  501    0  0.39975228962E+01 -0.34629299538E+02 -0.55974431688E+02  0.47051033420E+03  0.46586657855E+03 0.  0.
         13    1    3    3    0    0 -0.93991469501E+02  0.13163057010E+03 -0.17930758158E+03  0.24147921678E+03  0.00000000000E+00 0.  1.
          1    1    3    3  501    0  0.97988992397E+02 -0.16625986964E+03  0.12333314989E+03  0.22903111742E+03  0.00000000000E+00 0.  1.
         21    1    1    2  502  501 -0.39975228962E+01  0.34629299538E+02  0.14080283812E+02  0.37595517925E+02  0.00000000000E+00 0. -1.
<scales pt_clust_4="550.00000" pt_clust_5="550.00000" pt_clust_6="34.85927"></scales>
<mgrwt>
<rscale>  0 0.30000000E+03</rscale>
<asrwt>  1 0.34859268E+02</asrwt>
<pdfrwt beam="1">  1        1 0.84765764E+00 0.30000000E+03</pdfrwt>
<pdfrwt beam="2">0</pdfrwt>
<totfact> 0.42812725E-04</totfact>
</mgrwt>
<clustering>
<clus scale="   34.859">  1  6  2 -1</clus>
<clus scale="  465.867">  4  5 -1 -1</clus>
<clus scale="  300.000">  1  4  2 -1</clus>
</clustering>
</event>
<event>
 6    1  0.9678510E-012  0.3000000E+03  0.7818608E-02  0.1093470E+00
          1   -1    0    0  502    0  0.00000000000E+00  0.00000000000E+00  0.24126414071E+03  0.24126414071E+03  0.00000000000E+00 0.  1.
         13   -1    0    0    0    0 -0.00000000000E+00 -0.00000000000E+00 -0.27500000000E+03  0.27500000000E+03  0.00000000000E+00 0.  1.
    9000005    2    1    2  501    0  0.35387200574E+02  0.10494268754E+02 -0.57933585793E+02  0.47212896643E+03  0.46710499562E+03 0.  0.
         13    1    3    3    0    0 -0.11580443345E+03  0.12065092865E+03 -0.18238326504E+03  0.24744892151E+03  0.00000000000E+00 0.  1.
          3    1    3    3  501    0  0.15119163403E+03 -0.11015665990E+03  0.12444967924E+03  0.22468004492E+03  0.00000000000E+00 0.  1.
         21    1    1    2  502  501 -0.35387200574E+02 -0.10494268754E+02  0.24197726505E+02  0.44135174285E+02  0.00000000000E+00 0. -1.
<scales pt_clust_4="550.00000" pt_clust_5="550.00000" pt_clust_6="36.91048"></scales>
<mgrwt>
<rscale>  0 0.30000000E+03</rscale>
<asrwt>  1 0.36910481E+02</asrwt>
<pdfrwt beam="1">  1        1 0.87732415E+00 0.30000000E+03</pdfrwt>
<pdfrwt beam="2">0</pdfrwt>
<totfact> 0.21012621E-04</totfact>
</mgrwt>
<clustering>
<clus scale="   36.910">  1  6  2 -1</clus>
<clus scale="  467.105">  4  5 -1 -1</clus>
<clus scale="  300.000">  1  4  2 -1</clus>
</clustering>
</event>
<event>
 6    1  0.9678510E-012  0.3000000E+03  0.7818608E-02  0.1093470E+00
          1   -1    0    0  502    0  0.00000000000E+00  0.00000000000E+00  0.22730881860E+03  0.22730881860E+03  0.00000000000E+00 0.  1.
         13   -1    0    0    0    0 -0.00000000000E+00 -0.00000000000E+00 -0.27500000000E+03  0.27500000000E+03  0.00000000000E+00 0.  1.
    9000005    2    1    2  501    0  0.32005075062E+02 -0.51693414592E+00 -0.45187120461E+02  0.47020177308E+03  0.46692958731E+03 0.  0.
         13    1    3    3    0    0  0.11540146024E+03  0.20223383854E+03  0.37598678775E+02  0.23585945629E+03  0.00000000000E+00 0.  1.
          3    1    3    3  501    0 -0.83396385180E+02 -0.20275077268E+03 -0.82785799236E+02  0.23434231679E+03  0.00000000000E+00 0.  1.
         21    1    1    2  502  501 -0.32005075062E+02  0.51693414592E+00 -0.25040609409E+01  0.32107045517E+02  0.00000000000E+00 0. -1.
<scales pt_clust_4="550.00000" pt_clust_5="550.00000" pt_clust_6="32.00925"></scales>
<mgrwt>
<rscale>  0 0.30000000E+03</rscale>
<asrwt>  1 0.32009249E+02</asrwt>
<pdfrwt beam="1">  1        1 0.82657752E+00 0.30000000E+03</pdfrwt>
<pdfrwt beam="2">0</pdfrwt>
<totfact> 0.64316580E-04</totfact>
</mgrwt>
<clustering>
<clus scale="   32.009">  1  6  2 -1</clus>
<clus scale="  466.930">  4  5 -1 -1</clus>
<clus scale="  300.000">  1  4  2 -1</clus>
</clustering>
</event>
<event>
 6    1  0.9678510E-012  0.3000000E+03  0.7818608E-02  0.1093470E+00
          1   -1    0    0  502    0  0.00000000000E+00  0.00000000000E+00  0.23394469304E+03  0.23394469304E+03  0.00000000000E+00 0.  1.
         13   -1    0    0    0    0 -0.00000000000E+00 -0.00000000000E+00 -0.27500000000E+03  0.27500000000E+03  0.00000000000E+00 0.  1.
    9000005    2    1    2  501    0  0.15845726770E+02  0.29159024855E+02 -0.33820894147E+02  0.47497893799E+03  0.47260956704E+03 0.  0.
         13    1    3    3    0    0 -0.15296330928E+03 -0.13836155737E+03 -0.98425838178E+02  0.22853739336E+03  0.00000000000E+00 0.  1.
          3    1    3    3  501    0  0.16880903605E+03  0.16752058223E+03  0.64604944031E+02  0.24644154462E+03  0.00000000000E+00 0.  1.
         21    1    1    2  502  501 -0.15845726770E+02 -0.29159024855E+02 -0.72344128163E+01  0.33965755051E+02  0.00000000000E+00 0. -1.
<scales pt_clust_4="550.00000" pt_clust_5="550.00000" pt_clust_6="33.18640"></scales>
<mgrwt>
<rscale>  0 0.30000000E+03</rscale>
<asrwt>  1 0.33186396E+02</asrwt>
<pdfrwt beam="1">  1        1 0.85070797E+00 0.30000000E+03</pdfrwt>
<pdfrwt beam="2">0</pdfrwt>
<totfact> 0.40481295E-04</totfact>
</mgrwt>
<clustering>
<clus scale="   33.186">  1  6  2 -1</clus>
<clus scale="  472.610">  4  5 -1 -1</clus>
<clus scale="  300.000">  1  4  2 -1</clus>
</clustering>
</event>
<event>
 6    1  0.9678510E-012  0.3000000E+03  0.7818608E-02  0.1093470E+00
          1   -1    0    0  502    0  0.00000000000E+00  0.00000000000E+00  0.23076640420E+03  0.23076640420E+03  0.00000000000E+00 0.  1.
         13   -1    0    0    0    0 -0.00000000000E+00 -0.00000000000E+00 -0.27500000000E+03  0.27500000000E+03  0.00000000000E+00 0.  1.
    9000005    2    1    2  501    0  0.31074283310E+02 -0.27490240496E+02 -0.36112312005E+02  0.46349017380E+03  0.46021486040E+03 0.  0.
         13    1    3    3    0    0 -0.12908165630E+03  0.16157364830E+03 -0.57891316452E+02  0.21475456302E+03  0.00000000000E+00 0.  1.
          1    1    3    3  501    0  0.16015593961E+03 -0.18906388880E+03  0.21779004448E+02  0.24873561079E+03  0.00000000000E+00 0.  1.
         21    1    1    2  502  501 -0.31074283310E+02  0.27490240496E+02 -0.81212837973E+01  0.42276230394E+02  0.00000000000E+00 0.  1.
<scales pt_clust_4="550.00000" pt_clust_5="550.00000" pt_clust_6="41.48887"></scales>
<mgrwt>
<rscale>  0 0.30000000E+03</rscale>
<asrwt>  1 0.41488868E+02</asrwt>
<pdfrwt beam="1">  1        1 0.83915056E+00 0.30000000E+03</pdfrwt>
<pdfrwt beam="2">0</pdfrwt>
<totfact> 0.48891482E-04</totfact>
</mgrwt>
<clustering>
<clus scale="   41.489">  1  6  2 -1</clus>
<clus scale="  460.215">  4  5 -1 -1</clus>
<clus scale="  300.000">  1  4  2 -1</clus>
</clustering>
</event>
<event>
 6    1  0.9678510E-012  0.3000000E+03  0.7818608E-02  0.1093470E+00
          1   -1    0    0  502    0  0.00000000000E+00  0.00000000000E+00  0.23780433394E+03  0.23780433394E+03  0.00000000000E+00 0.  1.
         13   -1    0    0    0    0 -0.00000000000E+00 -0.00000000000E+00 -0.27500000000E+03  0.27500000000E+03  0.00000000000E+00 0.  1.
    9000005    2    1    2  501    0 -0.28450268570E+02 -0.18718063673E+02 -0.64183093073E+02  0.46935200482E+03  0.46369391984E+03 0.  0.
         13    1    3    3    0    0  0.26794711968E+02 -0.21611922743E+03  0.64741266438E+02  0.22719354884E+03  0.00000000000E+00 0.  1.
          1    1    3    3  501    0 -0.55244980539E+02  0.19740116376E+03 -0.12892435951E+03  0.24215845598E+03  0.00000000000E+00 0.  1.
         21    1    1    2  502  501  0.28450268570E+02  0.18718063673E+02  0.26987427014E+02  0.43452329123E+02  0.00000000000E+00 0.  1.
<scales pt_clust_4="550.00000" pt_clust_5="550.00000" pt_clust_6="34.05560"></scales>
<mgrwt>
<rscale>  0 0.30000000E+03</rscale>
<asrwt>  1 0.34055597E+02</asrwt>
<pdfrwt beam="1">  1        1 0.86474303E+00 0.30000000E+03</pdfrwt>
<pdfrwt beam="2">0</pdfrwt>
<totfact> 0.28900636E-04</totfact>
</mgrwt>
<clustering>
<clus scale="   34.056">  1  6  2 -1</clus>
<clus scale="  463.694">  4  5 -1 -1</clus>
<clus scale="  300.000">  1  4  2 -1</clus>
</clustering>
</event>
<event>
 6    1  0.9678510E-012  0.3000000E+03  0.7818608E-02  0.1093470E+00
          1   -1    0    0  502    0  0.00000000000E+00  0.00000000000E+00  0.22222182826E+03  0.22222182826E+03  0.00000000000E+00 0.  1.
         13   -1    0    0    0    0 -0.00000000000E+00 -0.00000000000E+00 -0.27500000000E+03  0.27500000000E+03  0.00000000000E+00 0.  1.
    9000005    2    1    2  501    0  0.15102841942E+02  0.32261069099E+02 -0.51191147866E+02  0.46156525721E+03  0.45733257115E+03 0.  0.
         13    1    3    3    0    0  0.14963596763E+03  0.31899966437E+02  0.15343096585E+03  0.21667854520E+03  0.00000000000E+00 0.  1.
          3    1    3    3  501    0 -0.13453312569E+03  0.36110266126E+00 -0.20462211371E+03  0.24488671202E+03  0.00000000000E+00 0.  1.
         21    1    1    2  502  501 -0.15102841942E+02 -0.32261069099E+02 -0.15870238715E+01  0.35656571048E+02  0.00000000000E+00 0.  1.
<scales pt_clust_4="550.00000" pt_clust_5="550.00000" pt_clust_6="35.62124"></scales>
<mgrwt>
<rscale>  0 0.30000000E+03</rscale>
<asrwt>  1 0.35621235E+02</asrwt>
<pdfrwt beam="1">  1        1 0.80807938E+00 0.30000000E+03</pdfrwt>
<pdfrwt beam="2">0</pdfrwt>
<totfact> 0.89961856E-04</totfact>
</mgrwt>
<clustering>
<clus scale="   35.621">  1  6  2 -1</clus>
<clus scale="  457.333">  4  5 -1 -1</clus>
<clus scale="  300.000">  1  4  2 -1</clus>
</clustering>
</event>
<event>
 6    1  0.9678510E-012  0.3000000E+03  0.7818608E-02  0.1093470E+00
          1   -1    0    0  502    0  0.00000000000E+00  0.00000000000E+00  0.26828997493E+03  0.26828997493E+03  0.00000000000E+00 0.  1.
         13   -1    0    0    0    0 -0.00000000000E+00 -0.00000000000E+00 -0.27500000000E+03  0.27500000000E+03  0.00000000000E+00 0.  1.
    9000005    2    1    2  501    0 -0.30955263540E+02 -0.34593297822E+01 -0.20998740528E+02  0.50902099927E+03  0.50763297301E+03 0.  0.
         13    1    3    3    0    0  0.80660474095E+02  0.13883379676E+03  0.17827306417E+03  0.23992128003E+03  0.00000000000E+00 0.  1.
          3    1    3    3  501    0 -0.11161573764E+03 -0.14229312654E+03 -0.19927180470E+03  0.26909971924E+03  0.00000000000E+00 0.  1.
         21    1    1    2  502  501  0.30955263540E+02  0.34593297822E+01  0.14288715457E+02  0.34268975660E+02  0.00000000000E+00 0.  1.
<scales pt_clust_4="550.00000" pt_clust_5="550.00000" pt_clust_6="31.14796"></scales>
<mgrwt>
<rscale>  0 0.30000000E+03</rscale>
<asrwt>  1 0.31147958E+02</asrwt>
<pdfrwt beam="1">  1        1 0.97559991E+00 0.30000000E+03</pdfrwt>
<pdfrwt beam="2">0</pdfrwt>
<totfact> 0.40424181E-06</totfact>
</mgrwt>
<clustering>
<clus scale="   31.148">  1  6  2 -1</clus>
<clus scale="  507.633">  4  5 -1 -1</clus>
<clus scale="  300.000">  1  4  2 -1</clus>
</clustering>
</event>
<event>
 6    1  0.9678510E-012  0.3000000E+03  0.7818608E-02  0.1093470E+00
          1   -1    0    0  502    0  0.00000000000E+00  0.00000000000E+00  0.24377128216E+03  0.24377128216E+03  0.00000000000E+00 0.  1.
         13   -1    0    0    0    0 -0.00000000000E+00 -0.00000000000E+00 -0.27500000000E+03  0.27500000000E+03  0.00000000000E+00 0.  1.
    9000005    2    1    2  501    0  0.27825398919E+02  0.17136235146E+02 -0.28806203436E+02  0.48600282238E+03  0.48404652941E+03 0.  0.
         13    1    3    3    0    0  0.12798463588E+03  0.42949170996E+02 -0.22604522111E+03  0.26328908123E+03  0.00000000000E+00 0.  1.
          1    1    3    3  501    0 -0.10015923696E+03 -0.25812935850E+02  0.19723901767E+03  0.22271374115E+03  0.00000000000E+00 0.  1.
         21    1    1    2  502  501 -0.27825398919E+02 -0.17136235146E+02 -0.24225144035E+01  0.32768459775E+02  0.00000000000E+00 0. -1.
<scales pt_clust_4="550.00000" pt_clust_5="550.00000" pt_clust_6="32.67881"></scales>
<mgrwt>
<rscale>  0 0.30000000E+03</rscale>
<asrwt>  1 0.32678807E+02</asrwt>
<pdfrwt beam="1">  1        1 0.88644103E+00 0.30000000E+03</pdfrwt>
<pdfrwt beam="2">0</pdfrwt>
<totfact> 0.16423655E-04</totfact>
</mgrwt>
<clustering>
<clus scale="   32.679">  1  6  2 -1</clus>
<clus scale="  484.047">  4  5 -1 -1</clus>
<clus scale="  300.000">  1  4  2 -1</clus>
</clustering>
</event>
<event>
 6    1  0.9678510E-012  0.3000000E+03  0.7818608E-02  0.1093470E+00
          1   -1    0    0  502    0  0.00000000000E+00  0.00000000000E+00  0.23199252720E+03  0.23199252720E+03  0.00000000000E+00 0.  1.
         13   -1    0    0    0    0 -0.00000000000E+00 -0.00000000000E+00 -0.27500000000E+03  0.27500000000E+03  0.00000000000E+00 0.  1.
    9000005    2    1    2  501    0 -0.12045960653E+02  0.34851260994E+02 -0.61541875360E+02  0.46572220325E+03  0.46016307176E+03 0.  0.
         13    1    3    3    0    0  0.10419670782E+01  0.24362400765E+03  0.12175785780E+02  0.24393030267E+03  0.00000000000E+00 0.  1.
          3    1    3    3  501    0 -0.13087927732E+02 -0.20877274666E+03 -0.73717661140E+02  0.22179190058E+03  0.00000000000E+00 0.  1.
         21    1    1    2  502  501  0.12045960653E+02 -0.34851260994E+02  0.18534402559E+02  0.41270323952E+02  0.00000000000E+00 0.  1.
<scales pt_clust_4="550.00000" pt_clust_5="550.00000" pt_clust_6="36.87432"></scales>
<mgrwt>
<rscale>  0 0.30000000E+03</rscale>
<asrwt>  1 0.36874321E+02</asrwt>
<pdfrwt beam="1">  1        1 0.84360919E+00 0.30000000E+03</pdfrwt>
<pdfrwt beam="2">0</pdfrwt>
<totfact> 0.45999999E-04</totfact>
</mgrwt>
<clustering>
<clus scale="   36.874">  1  6  2 -1</clus>
<clus scale="  460.163">  4  5 -1 -1</clus>
<clus scale="  300.000">  1  4  2 -1</clus>
</clustering>
</event>
<event>
 6    1  0.9678510E-012  0.3000000E+03  0.7818608E-02  0.1093470E+00
          1   -1    0    0  502    0  0.00000000000E+00  0.00000000000E+00  0.26210665852E+03  0.26210665852E+03  0.00000000000E+00 0.  1.
         13   -1    0    0    0    0 -0.00000000000E+00 -0.00000000000E+00 -0.27500000000E+03  0.27500000000E+03  0.00000000000E+00 0.  1.
    9000005    2    1    2  501    0 -0.16987947605E+02 -0.43315938587E+02 -0.52230073804E+02  0.47617850895E+03  0.47101287762E+03 0.  0.
         13    1    3    3    0    0 -0.14701754833E+03  0.11271131885E+03 -0.16130512147E+03  0.24563660787E+03  0.00000000000E+00 0.  1.
          3    1    3    3  501    0  0.13002960073E+03 -0.15602725744E+03  0.10907504767E+03  0.23054190108E+03  0.00000000000E+00 0.  1.
         21    1    1    2  502  501  0.16987947605E+02  0.43315938587E+02  0.39336732322E+02  0.60928149564E+02  0.00000000000E+00 0. -1.
<scales pt_clust_4="550.00000" pt_clust_5="550.00000" pt_clust_6="46.52807"></scales>
<mgrwt>
<rscale>  0 0.30000000E+03</rscale>
<asrwt>  1 0.46528066E+02</asrwt>
<pdfrwt beam="1">  1        1 0.95311512E+00 0.30000000E+03</pdfrwt>
<pdfrwt beam="2">0</pdfrwt>
<totfact> 0.10098035E-05</totfact>
</mgrwt>
<clustering>
<clus scale="   46.528">  1  6  2 -1</clus>
<clus scale="  471.013">  4  5 -1 -1</clus>
<clus scale="  300.000">  1  4  2 -1</clus>
</clustering>
</event>
<event>
 6    1  0.9678510E-012  0.3000000E+03  0.7818608E-02  0.1093470E+00
          1   -1    0    0  502    0  0.00000000000E+00  0.00000000000E+00  0.22883139136E+03  0.22883139136E+03  0.00000000000E+00 0.  1.
         13   -1    0    0    0    0 -0.00000000000E+00 -0.00000000000E+00 -0.27500000000E+03  0.27500000000E+03  0.00000000000E+00 0.  1.
    9000005    2    1    2  501    0 -0.36595047022E+02 -0.24840395219E+01 -0.48073317937E+02  0.46710271269E+03  0.46317224916E+03 0.  0.
         13    1    3    3    0    0  0.15048826856E+03  0.82106366836E+02  0.11370127330E+03  0.20570890598E+03  0.00000000000E+00 0.  1.
          3    1    3    3  501    0 -0.18708331558E+03 -0.84590406358E+02 -0.16177459124E+03  0.26139380671E+03  0.00000000000E+00 0.  1.
         21    1    1    2  502  501  0.36595047022E+02  0.24840395219E+01  0.19047092948E+01  0.36728678664E+02  0.00000000000E+00 0.  1.
<scales pt_clust_4="550.00000" pt_clust_5="550.00000" pt_clust_6="36.67926"></scales>
<mgrwt>
<rscale>  0 0.30000000E+03</rscale>
<asrwt>  1 0.36679257E+02</asrwt>
<pdfrwt beam="1">  1        1 0.83211415E+00 0.30000000E+03</pdfrwt>
<pdfrwt beam="2">0</pdfrwt>
<totfact> 0.56358887E-04</totfact>
</mgrwt>
<clustering>
<clus scale="   36.679">  1  6  2 -1</clus>
<clus scale="  463.172">  4  5 -1 -1</clus>
<clus scale="  300.000">  1  4  2 -1</clus>
</clustering>
</event>
<event>
 6    1  0.9678510E-012  0.3000000E+03  0.7818608E-02  0.1093470E+00
          1   -1    0    0  502    0  0.00000000000E+00  0.00000000000E+00  0.23627155678E+03  0.23627155678E+03  0.00000000000E+00 0.  1.
         13   -1    0    0    0    0 -0.00000000000E+00 -0.00000000000E+00 -0.27500000000E+03  0.27500000000E+03  0.00000000000E+00 0.  1.
    9000005    2    1    2  501    0 -0.85533678569E+01  0.31577985848E+02 -0.51757764219E+02  0.47605660970E+03  0.47210242553E+03 0.  0.
         13    1    3    3    0    0 -0.22602635072E+03 -0.59933336554E+02  0.29446848467E+01  0.23385591124E+03  0.00000000000E+00 0.  1.
          1    1    3    3  501    0  0.21747298286E+03  0.91511322402E+02 -0.54702449066E+02  0.24220069847E+03  0.00000000000E+00 0.  1.
         21    1    1    2  502  501  0.85533678569E+01 -0.31577985848E+02  0.13029320997E+02  0.35214947076E+02  0.00000000000E+00 0.  1.
<scales pt_clust_4="550.00000" pt_clust_5="550.00000" pt_clust_6="32.71589"></scales>
<mgrwt>
<rscale>  0 0.30000000E+03</rscale>
<asrwt>  1 0.32715887E+02</asrwt>
<pdfrwt beam="1">  1        1 0.85916930E+00 0.30000000E+03</pdfrwt>
<pdfrwt beam="2">0</pdfrwt>
<totfact> 0.33432495E-04</totfact>
</mgrwt>
<clustering>
<clus scale="   32.716">  1  6  2 -1</clus>
<clus scale="  472.102">  4  5 -1 -1</clus>
<clus scale="  300.000">  1  4  2 -1</clus>
</clustering>
</event>
<event>
 6    1  0.9678510E-012  0.3000000E+03  0.7818608E-02  0.1093470E+00
          1   -1    0    0  502    0  0.00000000000E+00  0.00000000000E+00  0.23169147572E+03  0.23169147572E+03  0.00000000000E+00 0.  1.
         13   -1    0    0    0    0 -0.00000000000E+00 -0.00000000000E+00 -0.27500000000E+03  0.27500000000E+03  0.00000000000E+00 0.  1.
    9000005    2    1    2  501    0 -0.21589921324E+02 -0.24204986960E+02 -0.53648555628E+02  0.47264852719E+03  0.46847247159E+03 0.  0.
         13    1    3    3    0    0 -0.14376110487E+03  0.13274975491E+03  0.10146226118E+03  0.22041856352E+03  0.00000000000E+00 0.  1.
          3    1    3    3  501    0  0.12217118354E+03 -0.15695474187E+03 -0.15511081681E+03  0.25222996367E+03  0.00000000000E+00 0.  1.
         21    1    1    2  502  501  0.21589921324E+02  0.24204986960E+02  0.10340031352E+02  0.34042948534E+02  0.00000000000E+00 0. -1.
<scales pt_clust_4="550.00000" pt_clust_5="550.00000" pt_clust_6="32.43464"></scales>
<mgrwt>
<rscale>  0 0.30000000E+03</rscale>
<asrwt>  1 0.32434643E+02</asrwt>
<pdfrwt beam="1">  1        1 0.84251446E+00 0.30000000E+03</pdfrwt>
<pdfrwt beam="2">0</pdfrwt>
<totfact> 0.48132555E-04</totfact>
</mgrwt>
<clustering>
<clus scale="   32.435">  1  6  2 -1</clus>
<clus scale="  468.472">  4  5 -1 -1</clus>
<clus scale="  300.000">  1  4  2 -1</clus>
</clustering>
</event>
<event>
 6    1  0.9678510E-012  0.3000000E+03  0.7818608E-02  0.1093470E+00
          1   -1    0    0  502    0  0.00000000000E+00  0.00000000000E+00  0.24797412148E+03  0.24797412148E+03  0.00000000000E+00 0.  1.
         13   -1    0    0    0    0 -0.00000000000E+00 -0.00000000000E+00 -0.27500000000E+03  0.27500000000E+03  0.00000000000E+00 0.  1.
    9000005    2    1    2  501    0 -0.10729483779E+02 -0.38423656832E+02 -0.43810702245E+02  0.47969329970E+03  0.47601973165E+03 0.  0.
         13    1    3    3    0    0  0.65127381083E+02  0.13604485173E+03 -0.18796633659E+03  0.24100025133E+03  0.00000000000E+00 0.  1.
          1    1    3    3  501    0 -0.75856864862E+02 -0.17446850856E+03  0.14415563435E+03  0.23869304837E+03  0.00000000000E+00 0.  1.
         21    1    1    2  502  501  0.10729483779E+02  0.38423656832E+02  0.16784823723E+02  0.43280821780E+02  0.00000000000E+00 0.  1.
<scales pt_clust_4="550.00000" pt_clust_5="550.00000" pt_clust_6="39.89360"></scales>
<mgrwt>
<rscale>  0 0.30000000E+03</rscale>
<asrwt>  1 0.39893599E+02</asrwt>
<pdfrwt beam="1">  1        1 0.90172408E+00 0.30000000E+03</pdfrwt>
<pdfrwt beam="2">0</pdfrwt>
<totfact> 0.10224722E-04</totfact>
</mgrwt>
<clustering>
<clus scale="   39.894">  1  6  2 -1</clus>
<clus scale="  476.020">  4  5 -1 -1</clus>
<clus scale="  300.000">  1  4  2 -1</clus>
</clustering>
</event>
<event>
 6    1  0.9678510E-012  0.3000000E+03  0.7818608E-02  0.1093470E+00
          1   -1    0    0  502    0  0.00000000000E+00  0.00000000000E+00  0.24419121891E+03  0.24419121891E+03  0.00000000000E+00 0.  1.
         13   -1    0    0    0    0 -0.00000000000E+00 -0.00000000000E+00 -0.27500000000E+03  0.27500000000E+03  0.00000000000E+00 0.  1.
    9000005    2    1    2  501    0 -0.39391650595E+01  0.35485863752E+02 -0.63302278334E+02  0.47091502487E+03  0.46527305817E+03 0.  0.
         13    1    3    3    0    0 -0.13460393094E+03 -0.35874269490E+02 -0.21640196892E+03  0.25736160084E+03  0.00000000000E+00 0.  1.
          3    1    3    3  501    0  0.13066476588E+03  0.71360133241E+02  0.15309969058E+03  0.21355342403E+03  0.00000000000E+00 0.  1.
         21    1    1    2  502  501  0.39391650595E+01 -0.35485863752E+02  0.32493497240E+02  0.48276194035E+02  0.00000000000E+00 0.  1.
<scales pt_clust_4="550.00000" pt_clust_5="550.00000" pt_clust_6="35.70383"></scales>
<mgrwt>
<rscale>  0 0.30000000E+03</rscale>
<asrwt>  1 0.35703831E+02</asrwt>
<pdfrwt beam="1">  1        1 0.88796807E+00 0.30000000E+03</pdfrwt>
<pdfrwt beam="2">0</pdfrwt>
<totfact> 0.15387842E-04</totfact>
</mgrwt>
<clustering>
<clus scale="   35.704">  1  6  2 -1</clus>
<clus scale="  465.273">  4  5 -1 -1</clus>
<clus scale="  300.000">  1  4  2 -1</clus>
</clustering>
</event>
<event>
 6    1  0.9678510E-012  0.3000000E+03  0.7818608E-02  0.1093470E+00
          1   -1    0    0  502    0  0.00000000000E+00  0.00000000000E+00  0.23599286575E+03  0.23599286575E+03  0.00000000000E+00 0.  1.
         13   -1    0    0    0    0 -0.00000000000E+00 -0.00000000000E+00 -0.27500000000E+03  0.27500000000E+03  0.00000000000E+00 0.  1.
    9000005    2    1    2  501    0  0.30616395360E+02  0.12869394152E+02 -0.39637224849E+02  0.47777567164E+03  0.47496894408E+03 0.  0.
         13    1    3    3    0    0  0.13689995745E+01 -0.21097046078E+02 -0.25597328884E+03  0.25684486390E+03  0.00000000000E+00 0.  1.
          3    1    3    3  501    0  0.29247395785E+02  0.33966440230E+02  0.21633606399E+03  0.22093080773E+03  0.00000000000E+00 0.  1.
         21    1    1    2  502  501 -0.30616395360E+02 -0.12869394152E+02  0.63009060019E+00  0.33217194114E+02  0.00000000000E+00 0. -1.
<scales pt_clust_4="550.00000" pt_clust_5="550.00000" pt_clust_6="33.21122"></scales>
<mgrwt>
<rscale>  0 0.30000000E+03</rscale>
<asrwt>  1 0.33211218E+02</asrwt>
<pdfrwt beam="1">  1        1 0.85815588E+00 0.30000000E+03</pdfrwt>
<pdfrwt beam="2">0</pdfrwt>
<totfact> 0.34166067E-04</totfact>
</mgrwt>
<clustering>
<clus scale="   33.211">  1  6  2 -1</clus>
<clus scale="  474.969">  4  5 -1 -1</clus>
<clus scale="  300.000">  1  4  2 -1</clus>
</clustering>
</event>
<event>
 6    1  0.9678510E-012  0.3000000E+03  0.7818608E-02  0.1093470E+00
          1   -1    0    0  502    0  0.00000000000E+00  0.00000000000E+00  0.23009757563E+03  0.23009757563E+03  0.00000000000E+00 0.  1.
         13   -1    0    0    0    0 -0.00000000000E+00 -0.00000000000E+00 -0.27500000000E+03  0.27500000000E+03  0.00000000000E+00 0.  1.
    9000005    2    1    2  501    0  0.32244705620E+02 -0.13845233943E+02 -0.65030096062E+02  0.46464346940E+03  0.45873001724E+03 0.  0.
         13    1    3    3    0    0 -0.79263255899E+02  0.14520844777E+03  0.11365340211E+03  0.20071186525E+03  0.00000000000E+00 0.  1.
          1    1    3    3  501    0  0.11150796152E+03 -0.15905368172E+03 -0.17868349817E+03  0.26393160415E+03  0.00000000000E+00 0.  1.
         21    1    1    2  502  501 -0.32244705620E+02  0.13845233943E+02  0.20127671696E+02  0.40454106235E+02  0.00000000000E+00 0. -1.
<scales pt_clust_4="550.00000" pt_clust_5="550.00000" pt_clust_6="35.09147"></scales>
<mgrwt>
<rscale>  0 0.30000000E+03</rscale>
<asrwt>  1 0.35091474E+02</asrwt>
<pdfrwt beam="1">  1        1 0.83671846E+00 0.30000000E+03</pdfrwt>
<pdfrwt beam="2">0</pdfrwt>
<totfact> 0.52540277E-04</totfact>
</mgrwt>
<clustering>
<clus scale="   35.091">  1  6  2 -1</clus>
<clus scale="  458.730">  4  5 -1 -1</clus>
<clus scale="  300.000">  1  4  2 -1</clus>
</clustering>
</event>
<event>
 6    1  0.9678510E-012  0.3000000E+03  0.7818608E-02  0.1093470E+00
          1   -1    0    0  502    0  0.00000000000E+00  0.00000000000E+00  0.21956243635E+03  0.21956243635E+03  0.00000000000E+00 0.  1.
         13   -1    0    0    0    0 -0.00000000000E+00 -0.00000000000E+00 -0.27500000000E+03  0.27500000000E+03  0.00000000000E+00 0.  1.
    9000005    2    1    2  501    0  0.82570983561E+01  0.29280733607E+02 -0.59433843384E+02  0.46387838047E+03  0.45904817731E+03 0.  0.
         13    1    3    3    0    0 -0.54347280701E+02  0.98636775738E+02 -0.23746674227E+03  0.26281798670E+03  0.00000000000E+00 0.  1.
          1    1    3    3  501    0  0.62604379057E+02 -0.69356042131E+02  0.17803289889E+03  0.20106039377E+03  0.00000000000E+00 0.  1.
         21    1    1    2  502  501 -0.82570983561E+01 -0.29280733607E+02  0.39962797357E+01  0.30684055885E+02  0.00000000000E+00 0. -1.
<scales pt_clust_4="550.00000" pt_clust_5="550.00000" pt_clust_6="30.42271"></scales>
<mgrwt>
<rscale>  0 0.30000000E+03</rscale>
<asrwt>  1 0.30422706E+02</asrwt>
<pdfrwt beam="1">  1        1 0.79840886E+00 0.30000000E+03</pdfrwt>
<pdfrwt beam="2">0</pdfrwt>
<totfact> 0.10935587E-03</totfact>
</mgrwt>
<clustering>
<clus scale="   30.423">  1  6  2 -1</clus>
<clus scale="  459.048">  4  5 -1 -1</clus>
<clus scale="  300.000">  1  4  2 -1</clus>
</clustering>
</event>
<event>
 6    1  0.9678510E-012  0.3000000E+03  0.7818608E-02  0.1093470E+00
          1   -1    0    0  502    0  0.00000000000E+00  0.00000000000E+00  0.26085082089E+03  0.26085082089E+03  0.00000000000E+00 0.  1.
         13   -1    0    0    0    0 -0.00000000000E+00 -0.00000000000E+00 -0.27500000000E+03  0.27500000000E+03  0.00000000000E+00 0.  1.
    9000005    2    1    2  501    0  0.19214190190E+02 -0.44268881234E+02 -0.32075301626E+02  0.48437009810E+03  0.48089151376E+03 0.  0.
         13    1    3    3    0    0 -0.21720489524E+03 -0.60448374273E+02  0.54716697621E+02  0.23200407209E+03  0.00000000000E+00 0.  1.
          1    1    3    3  501    0  0.23641908543E+03  0.16179493039E+02 -0.86791999247E+02  0.25236602601E+03  0.00000000000E+00 0.  1.
         21    1    1    2  502  501 -0.19214190190E+02  0.44268881234E+02  0.17926122517E+02  0.51480722789E+02  0.00000000000E+00 0.  1.
<scales pt_clust_4="550.00000" pt_clust_5="550.00000" pt_clust_6="48.25887"></scales>
<mgrwt>
<rscale>  0 0.30000000E+03</rscale>
<asrwt>  1 0.48258874E+02</asrwt>
<pdfrwt beam="1">  1        1 0.94854844E+00 0.30000000E+03</pdfrwt>
<pdfrwt beam="2">0</pdfrwt>
<totfact> 0.12463406E-05</totfact>
</mgrwt>
<clustering>
<clus scale="   48.259">  1  6  2 -1</clus>
<clus scale="  480.892">  4  5 -1 -1</clus>
<clus scale="  300.000">  1  4  2 -1</clus>
</clustering>
</event>
<event>
 6    1  0.9678510E-012  0.3000000E+03  0.7818608E-02  0.1093470E+00
          1   -1    0    0  502    0  0.00000000000E+00  0.00000000000E+00  0.23016919481E+03  0.23016919481E+03  0.00000000000E+00 0.  1.
         13   -1    0    0    0    0 -0.00000000000E+00 -0.00000000000E+00 -0.27500000000E+03  0.27500000000E+03  0.00000000000E+00 0.  1.
    9000005    2    1    2  501    0  0.27776158772E+02  0.28765603487E+02 -0.38321333250E+02  0.46465563948E+03  0.46134300014E+03 0.  0.
         13    1    3    3    0    0 -0.12625559517E+03 -0.61345775242E+02  0.14984672047E+03  0.20532369344E+03  0.00000000000E+00 0.  1.
          1    1    3    3  501    0  0.15403175395E+03  0.90111378729E+02 -0.18816805372E+03  0.25933194604E+03  0.00000000000E+00 0.  1.
         21    1    1    2  502  501 -0.27776158772E+02 -0.28765603487E+02 -0.65094719423E+01  0.40513555325E+02  0.00000000000E+00 0.  1.
<scales pt_clust_4="550.00000" pt_clust_5="550.00000" pt_clust_6="39.98720"></scales>
<mgrwt>
<rscale>  0 0.30000000E+03</rscale>
<asrwt>  1 0.39987205E+02</asrwt>
<pdfrwt beam="1">  1        1 0.83697889E+00 0.30000000E+03</pdfrwt>
<pdfrwt beam="2">0</pdfrwt>
<totfact> 0.51065023E-04</totfact>
</mgrwt>
<clustering>
<clus scale="   39.987">  1  6  2 -1</clus>
<clus scale="  461.343">  4  5 -1 -1</clus>
<clus scale="  300.000">  1  4  2 -1</clus>
</clustering>
</event>
<event>
 6    1  0.9678510E-012  0.3000000E+03  0.7818608E-02  0.1093470E+00
          1   -1    0    0  502    0  0.00000000000E+00  0.00000000000E+00  0.22482003684E+03  0.22482003684E+03  0.00000000000E+00 0.  1.
         13   -1    0    0    0    0 -0.00000000000E+00 -0.00000000000E+00 -0.27500000000E+03  0.27500000000E+03  0.00000000000E+00 0.  1.
    9000005    2    1    2  501    0 -0.34250801369E+02  0.17407765902E+02 -0.46461916308E+02  0.46121988683E+03  0.45726242644E+03 0.  0.
         13    1    3    3    0    0  0.19089333743E+03 -0.28644756596E+02  0.67779156744E+02  0.20458446286E+03  0.00000000000E+00 0.  1.
          3    1    3    3  501    0 -0.22514413880E+03  0.46052522499E+02 -0.11424107305E+03  0.25663542397E+03  0.00000000000E+00 0.  1.
         21    1    1    2  502  501  0.34250801369E+02 -0.17407765902E+02 -0.37180468527E+01  0.38600150006E+02  0.00000000000E+00 0.  1.
<scales pt_clust_4="550.00000" pt_clust_5="550.00000" pt_clust_6="38.42067"></scales>
<mgrwt>
<rscale>  0 0.30000000E+03</rscale>
<asrwt>  1 0.38420668E+02</asrwt>
<pdfrwt beam="1">  1        1 0.81752741E+00 0.30000000E+03</pdfrwt>
<pdfrwt beam="2">0</pdfrwt>
<totfact> 0.74603971E-04</totfact>
</mgrwt>
<clustering>
<clus scale="   38.421">  1  6  2 -1</clus>
<clus scale="  457.262">  4  5 -1 -1</clus>
<clus scale="  300.000">  1  4  2 -1</clus>
</clustering>
</event>
<event>
 6    1  0.9678510E-012  0.3000000E+03  0.7818608E-02  0.1093470E+00
          1   -1    0    0  502    0  0.00000000000E+00  0.00000000000E+00  0.23187413921E+03  0.23187413921E+03  0.00000000000E+00 0.  1.
         13   -1    0    0    0    0 -0.00000000000E+00 -0.00000000000E+00 -0.27500000000E+03  0.27500000000E+03  0.00000000000E+00 0.  1.
    9000005    2    1    2  501    0  0.70688148278E+01 -0.37503312151E+02 -0.55442833105E+02  0.46677208974E+03  0.46189372094E+03 0.  0.
         13    1    3    3    0    0  0.13416990597E+02  0.20763956485E+03  0.22918937874E+02  0.20933103506E+03  0.00000000000E+00 0.  1.
          3    1    3    3  501    0 -0.63481757688E+01 -0.24514287700E+03 -0.78361770979E+02  0.25744105467E+03  0.00000000000E+00 0.  1.
         21    1    1    2  502  501 -0.70688148278E+01  0.37503312151E+02  0.12316972320E+02  0.40102049480E+02  0.00000000000E+00 0.  1.
<scales pt_clust_4="550.00000" pt_clust_5="550.00000" pt_clust_6="38.16368"></scales>
<mgrwt>
<rscale>  0 0.30000000E+03</rscale>
<asrwt>  1 0.38163681E+02</asrwt>
<pdfrwt beam="1">  1        1 0.84317869E+00 0.30000000E+03</pdfrwt>
<pdfrwt beam="2">0</pdfrwt>
<totfact> 0.46095273E-04</totfact>
</mgrwt>
<clustering>
<clus scale="   38.164">  1  6  2 -1</clus>
<clus scale="  461.894">  4  5 -1 -1</clus>
<clus scale="  300.000">  1  4  2 -1</clus>
</clustering>
</event>
<event>
 6    1  0.9678510E-012  0.3000000E+03  0.7818608E-02  0.1093470E+00
          1   -1    0    0  502    0  0.00000000000E+00  0.00000000000E+00  0.23067546151E+03  0.23067546151E+03  0.00000000000E+00 0.  1.
         13   -1    0    0    0    0 -0.00000000000E+00 -0.00000000000E+00 -0.27500000000E+03  0.27500000000E+03  0.00000000000E+00 0.  1.
    9000005    2    1    2  501    0  0.19549702174E+02 -0.26299736584E+02 -0.41676228164E+02  0.47279871369E+03  0.46981682460E+03 0.  0.
         13    1    3    3    0    0 -0.45114948867E+02  0.58848778158E+02 -0.23798046845E+03  0.24926540206E+03  0.00000000000E+00 0.  1.
          1    1    3    3  501    0  0.64664651041E+02 -0.85148514742E+02  0.19630424028E+03  0.22353331163E+03  0.00000000000E+00 0.  1.
         21    1    1    2  502  501 -0.19549702174E+02  0.26299736584E+02 -0.26483103277E+01  0.32876747818E+02  0.00000000000E+00 0. -1.
<scales pt_clust_4="550.00000" pt_clust_5="550.00000" pt_clust_6="32.76991"></scales>
<mgrwt>
<rscale>  0 0.30000000E+03</rscale>
<asrwt>  1 0.32769910E+02</asrwt>
<pdfrwt beam="1">  1        1 0.83881986E+00 0.30000000E+03</pdfrwt>
<pdfrwt beam="2">0</pdfrwt>
<totfact> 0.51366986E-04</totfact>
</mgrwt>
<clustering>
<clus scale="   32.770">  1  6  2 -1</clus>
<clus scale="  469.817">  4  5 -1 -1</clus>
<clus scale="  300.000">  1  4  2 -1</clus>
</clustering>
</event>
<event>
 6    1  0.9678510E-012  0.3000000E+03  0.7818608E-02  0.1093470E+00
          1   -1    0    0  502    0  0.00000000000E+00  0.00000000000E+00  0.24383406273E+03  0.24383406273E+03  0.00000000000E+00 0.  1.
         13   -1    0    0    0    0 -0.00000000000E+00 -0.00000000000E+00 -0.27500000000E+03  0.27500000000E+03  0.00000000000E+00 0.  1.
    9000005    2    1    2  501    0  0.31826819908E+02 -0.12616763428E+02 -0.60957797703E+02  0.47345031968E+03  0.46825978145E+03 0.  0.
         13    1    3    3    0    0 -0.20001743165E+03 -0.25938093811E+02  0.61571475319E+02  0.21088101917E+03  0.00000000000E+00 0.  1.
          3    1    3    3  501    0  0.23184425156E+03  0.13321330383E+02 -0.12252927302E+03  0.26256930051E+03  0.00000000000E+00 0.  1.
         21    1    1    2  502  501 -0.31826819908E+02  0.12616763428E+02  0.29791860435E+02  0.45383743048E+02  0.00000000000E+00 0. -1.
<scales pt_clust_4="550.00000" pt_clust_5="550.00000" pt_clust_6="34.23637"></scales>
<mgrwt>
<rscale>  0 0.30000000E+03</rscale>
<asrwt>  1 0.34236372E+02</asrwt>
<pdfrwt beam="1">  1        1 0.88666932E+00 0.30000000E+03</pdfrwt>
<pdfrwt beam="2">0</pdfrwt>
<totfact> 0.16162276E-04</totfact>
</mgrwt>
<clustering>
<clus scale="   34.236">  1  6  2 -1</clus>
<clus scale="  468.260">  4  5 -1 -1</clus>
<clus scale="  300.000">  1  4  2 -1</clus>
</clustering>
</event>
<event>
 6    1  0.9678510E-012  0.3000000E+03  0.7818608E-02  0.1093470E+00
          1   -1    0    0  502    0  0.00000000000E+00  0.00000000000E+00  0.24303076090E+03  0.24303076090E+03  0.00000000000E+00 0.  1.
         13   -1    0    0    0    0 -0.00000000000E+00 -0.00000000000E+00 -0.27500000000E+03  0.27500000000E+03  0.00000000000E+00 0.  1.
    9000005    2    1    2  501    0 -0.35473991969E+02 -0.15618214345E+02 -0.55530811160E+02  0.47267130319E+03  0.46779499479E+03 0.  0.
         13    1    3    3    0    0  0.10044286206E+03  0.15166590051E+03  0.99334558349E+02  0.20726473024E+03  0.00000000000E+00 0.  1.
          3    1    3    3  501    0 -0.13591685403E+03 -0.16728411486E+03 -0.15486536951E+03  0.26540657295E+03  0.00000000000E+00 0.  1.
         21    1    1    2  502  501  0.35473991969E+02  0.15618214345E+02  0.23561572059E+02  0.45359457707E+02  0.00000000000E+00 0.  1.
<scales pt_clust_4="550.00000" pt_clust_5="550.00000" pt_clust_6="38.75994"></scales>
<mgrwt>
<rscale>  0 0.30000000E+03</rscale>
<asrwt>  1 0.38759937E+02</asrwt>
<pdfrwt beam="1">  1        1 0.88374822E+00 0.30000000E+03</pdfrwt>
<pdfrwt beam="2">0</pdfrwt>
<totfact> 0.17318623E-04</totfact>
</mgrwt>
<clustering>
<clus scale="   38.760">  1  6  2 -1</clus>
<clus scale="  467.795">  4  5 -1 -1</clus>
<clus scale="  300.000">  1  4  2 -1</clus>
</clustering>
</event>
<event>
 6    1  0.9678510E-012  0.3000000E+03  0.7818608E-02  0.1093470E+00
          1   -1    0    0  502    0  0.00000000000E+00  0.00000000000E+00  0.23268789710E+03  0.23268789710E+03  0.00000000000E+00 0.  1.
         13   -1    0    0    0    0 -0.00000000000E+00 -0.00000000000E+00 -0.27500000000E+03  0.27500000000E+03  0.00000000000E+00 0.  1.
    9000005    2    1    2  501    0 -0.42351387086E+01  0.31409611924E+02 -0.59140874718E+02  0.47180325300E+03  0.46700767270E+03 0.  0.
         13    1    3    3    0    0  0.19057331277E+03  0.83300688471E+02 -0.14410608519E+03  0.25302916043E+03  0.00000000000E+00 0.  1.
          3    1    3    3  501    0 -0.19480845148E+03 -0.51891076547E+02  0.84965210468E+02  0.21877409257E+03  0.00000000000E+00 0.  1.
         21    1    1    2  502  501  0.42351387086E+01 -0.31409611924E+02  0.16828771814E+02  0.35884644096E+02  0.00000000000E+00 0. -1.
<scales pt_clust_4="550.00000" pt_clust_5="550.00000" pt_clust_6="31.69385"></scales>
<mgrwt>
<rscale>  0 0.30000000E+03</rscale>
<asrwt>  1 0.31693850E+02</asrwt>
<pdfrwt beam="1">  1        1 0.84613781E+00 0.30000000E+03</pdfrwt>
<pdfrwt beam="2">0</pdfrwt>
<totfact> 0.44984969E-04</totfact>
</mgrwt>
<clustering>
<clus scale="   31.694">  1  6  2 -1</clus>
<clus scale="  467.008">  4  5 -1 -1</clus>
<clus scale="  300.000">  1  4  2 -1</clus>
</clustering>
</event>
<event>
 6    1  0.9678510E-012  0.3000000E+03  0.7818608E-02  0.1093470E+00
          1   -1    0    0  502    0  0.00000000000E+00  0.00000000000E+00  0.23931855399E+03  0.23931855399E+03  0.00000000000E+00 0.  1.
         13   -1    0    0    0    0 -0.00000000000E+00 -0.00000000000E+00 -0.27500000000E+03  0.27500000000E+03  0.00000000000E+00 0.  1.
    9000005    2    1    2  501    0 -0.24735186967E+02 -0.22883643100E+02 -0.59029395239E+02  0.47332322098E+03  0.46841745422E+03 0.  0.
         13    1    3    3    0    0  0.10249785446E+03 -0.17177338273E+03 -0.15704944239E+03  0.25431561599E+03  0.00000000000E+00 0.  1.
          1    1    3    3  501    0 -0.12723304142E+03  0.14888973963E+03  0.98020047151E+02  0.21900760498E+03  0.00000000000E+00 0.  1.
         21    1    1    2  502  501  0.24735186967E+02  0.22883643100E+02  0.23347949231E+02  0.40995333016E+02  0.00000000000E+00 0. -1.
<scales pt_clust_4="550.00000" pt_clust_5="550.00000" pt_clust_6="33.69704"></scales>
<mgrwt>
<rscale>  0 0.30000000E+03</rscale>
<asrwt>  1 0.33697041E+02</asrwt>
<pdfrwt beam="1">  1        1 0.87024929E+00 0.30000000E+03</pdfrwt>
<pdfrwt beam="2">0</pdfrwt>
<totfact> 0.25356854E-04</totfact>
</mgrwt>
<clustering>
<clus scale="   33.697">  1  6  2 -1</clus>
<clus scale="  468.417">  4  5 -1 -1</clus>
<clus scale="  300.000">  1  4  2 -1</clus>
</clustering>
</event>
<event>
 6    1  0.9678510E-012  0.3000000E+03  0.7818608E-02  0.1093470E+00
          1   -1    0    0  502    0  0.00000000000E+00  0.00000000000E+00  0.24151694656E+03  0.24151694656E+03  0.00000000000E+00 0.  1.
         13   -1    0    0    0    0 -0.00000000000E+00 -0.00000000000E+00 -0.27500000000E+03  0.27500000000E+03  0.00000000000E+00 0.  1.
    9000005    2    1    2  501    0  0.16618212751E+02 -0.39378175263E+02 -0.63215490476E+02  0.46445137738E+03  0.45813980184E+03 0.  0.
         13    1    3    3    0    0  0.23400682385E+03 -0.53119189326E+02 -0.97240907345E+01  0.24015703160E+03  0.00000000000E+00 0.  1.
          1    1    3    3  501    0 -0.21738861110E+03  0.13741014064E+02 -0.53491399741E+02  0.22429434578E+03  0.00000000000E+00 0.  1.
         21    1    1    2  502  501 -0.16618212751E+02  0.39378175263E+02  0.29732437037E+02  0.52065569182E+02  0.00000000000E+00 0. -1.
<scales pt_clust_4="550.00000" pt_clust_5="550.00000" pt_clust_6="42.74115"></scales>
<mgrwt>
<rscale>  0 0.30000000E+03</rscale>
<asrwt>  1 0.42741147E+02</asrwt>
<pdfrwt beam="1">  1        1 0.87824344E+00 0.30000000E+03</pdfrwt>
<pdfrwt beam="2">0</pdfrwt>
<totfact> 0.19969519E-04</totfact>
</mgrwt>
<clustering>
<clus scale="   42.741">  1  6  2 -1</clus>
<clus scale="  458.140">  4  5 -1 -1</clus>
<clus scale="  300.000">  1  4  2 -1</clus>
</clustering>
</event>
<event>
 6    1  0.9678510E-012  0.3000000E+03  0.7818608E-02  0.1093470E+00
          1   -1    0    0  502    0  0.00000000000E+00  0.00000000000E+00  0.22677477428E+03  0.22677477428E+03  0.00000000000E+00 0.  1.
         13   -1    0    0    0    0 -0.00000000000E+00 -0.00000000000E+00 -0.27500000000E+03  0.27500000000E+03  0.00000000000E+00 0.  1.
    9000005    2    1    2  501    0 -0.31263083039E+02  0.44224660982E+01 -0.64555274368E+02  0.46622749511E+03  0.46065578817E+03 0.  0.
         13    1    3    3    0    0 -0.20233452778E+03  0.47121714399E+02 -0.16320343952E+03  0.26418758444E+03  0.00000000000E+00 0.  1.
          1    1    3    3  501    0  0.17107144475E+03 -0.42699248301E+02  0.98648165156E+02  0.20203991066E+03  0.00000000000E+00 0.  1.
         21    1    1    2  502  501  0.31263083039E+02 -0.44224660982E+01  0.16330048645E+02  0.35547279168E+02  0.00000000000E+00 0.  1.
<scales pt_clust_4="550.00000" pt_clust_5="550.00000" pt_clust_6="31.57433"></scales>
<mgrwt>
<rscale>  0 0.30000000E+03</rscale>
<asrwt>  1 0.31574334E+02</asrwt>
<pdfrwt beam="1">  1        1 0.82463554E+00 0.30000000E+03</pdfrwt>
<pdfrwt beam="2">0</pdfrwt>
<totfact> 0.67101076E-04</totfact>
</mgrwt>
<clustering>
<clus scale="   31.574">  1  6  2 -1</clus>
<clus scale="  460.656">  4  5 -1 -1</clus>
<clus scale="  300.000">  1  4  2 -1</clus>
</clustering>
</event>
<event>
 6    1  0.9678510E-012  0.3000000E+03  0.7818608E-02  0.1093470E+00
          1   -1    0    0  502    0  0.00000000000E+00  0.00000000000E+00  0.23032748274E+03  0.23032748274E+03  0.00000000000E+00 0.  1.
         13   -1    0    0    0    0 -0.00000000000E+00 -0.00000000000E+00 -0.27500000000E+03  0.27500000000E+03  0.00000000000E+00 0.  1.
    9000005    2    1    2  501    0 -0.95893096366E+01 -0.35115570559E+02 -0.47954546842E+02  0.46877847628E+03  0.46489629285E+03 0.  0.
         13    1    3    3    0    0  0.16550845728E+03 -0.77667781520E+02  0.12303406073E+03  0.22036949384E+03  0.00000000000E+00 0.  1.
          1    1    3    3  501    0 -0.17509776691E+03  0.42552210961E+02 -0.17098860757E+03  0.24840898244E+03  0.00000000000E+00 0.  1.
         21    1    1    2  502  501  0.95893096366E+01  0.35115570559E+02  0.32820295825E+01  0.36549006460E+02  0.00000000000E+00 0. -1.
<scales pt_clust_4="550.00000" pt_clust_5="550.00000" pt_clust_6="36.40135"></scales>
<mgrwt>
<rscale>  0 0.30000000E+03</rscale>
<asrwt>  1 0.36401348E+02</asrwt>
<pdfrwt beam="1">  1        1 0.83755448E+00 0.30000000E+03</pdfrwt>
<pdfrwt beam="2">0</pdfrwt>
<totfact> 0.51456919E-04</totfact>
</mgrwt>
<clustering>
<clus scale="   36.401">  1  6  2 -1</clus>
<clus scale="  464.896">  4  5 -1 -1</clus>
<clus scale="  300.000">  1  4  2 -1</clus>
</clustering>
</event>
<event>
 6    1  0.9678510E-012  0.3000000E+03  0.7818608E-02  0.1093470E+00
          1   -1    0    0  502    0  0.00000000000E+00  0.00000000000E+00  0.25168376768E+03  0.25168376768E+03  0.00000000000E+00 0.  1.
         13   -1    0    0    0    0 -0.00000000000E+00 -0.00000000000E+00 -0.27500000000E+03  0.27500000000E+03  0.00000000000E+00 0.  1.
    9000005    2    1    2  501    0 -0.38972623701E+02 -0.24147381904E+02 -0.32254982537E+02  0.47997335442E+03  0.47668865689E+03 0.  0.
         13    1    3    3    0    0 -0.11629856958E+03 -0.16386627742E+03  0.14013951781E+03  0.24498285372E+03  0.00000000000E+00 0.  1.
          1    1    3    3  501    0  0.77325945874E+02  0.13971889552E+03 -0.17239450035E+03  0.23499050071E+03  0.00000000000E+00 0.  1.
         21    1    1    2  502  501  0.38972623701E+02  0.24147381904E+02  0.89387502144E+01  0.46710413254E+02  0.00000000000E+00 0.  1.
<scales pt_clust_4="550.00000" pt_clust_5="550.00000" pt_clust_6="45.84715"></scales>
<mgrwt>
<rscale>  0 0.30000000E+03</rscale>
<asrwt>  1 0.45847153E+02</asrwt>
<pdfrwt beam="1">  1        1 0.91521370E+00 0.30000000E+03</pdfrwt>
<pdfrwt beam="2">0</pdfrwt>
<totfact> 0.50958449E-05</totfact>
</mgrwt>
<clustering>
<clus scale="   45.847">  1  6  2 -1</clus>
<clus scale="  476.689">  4  5 -1 -1</clus>
<clus scale="  300.000">  1  4  2 -1</clus>
</clustering>
</event>
<event>
 6    1  0.9678510E-012  0.3000000E+03  0.7818608E-02  0.1093470E+00
          1   -1    0    0  502    0  0.00000000000E+00  0.00000000000E+00  0.23554034928E+03  0.23554034928E+03  0.00000000000E+00 0.  1.
         13   -1    0    0    0    0 -0.00000000000E+00 -0.00000000000E+00 -0.27500000000E+03  0.27500000000E+03  0.00000000000E+00 0.  1.
    9000005    2    1    2  501    0 -0.16814782453E+02 -0.33059613757E+02 -0.47330527378E+02  0.47262431481E+03  0.46878341391E+03 0.  0.
         13    1    3    3    0    0  0.20960555244E+03  0.55663652836E+02 -0.71232242567E+02  0.22826949477E+03  0.00000000000E+00 0.  1.
          3    1    3    3  501    0 -0.22642033489E+03 -0.88723266593E+02  0.23901715189E+02  0.24435482004E+03  0.00000000000E+00 0.  1.
         21    1    1    2  502  501  0.16814782453E+02  0.33059613757E+02  0.78708766609E+01  0.37916034472E+02  0.00000000000E+00 0.  1.
<scales pt_clust_4="550.00000" pt_clust_5="550.00000" pt_clust_6="37.09009"></scales>
<mgrwt>
<rscale>  0 0.30000000E+03</rscale>
<asrwt>  1 0.37090093E+02</asrwt>
<pdfrwt beam="1">  1        1 0.85651036E+00 0.30000000E+03</pdfrwt>
<pdfrwt beam="2">0</pdfrwt>
<totfact> 0.34803487E-04</totfact>
</mgrwt>
<clustering>
<clus scale="   37.090">  1  6  2 -1</clus>
<clus scale="  468.783">  4  5 -1 -1</clus>
<clus scale="  300.000">  1  4  2 -1</clus>
</clustering>
</event>
<event>
 6    1  0.9678510E-012  0.3000000E+03  0.7818608E-02  0.1093470E+00
          1   -1    0    0  502    0  0.00000000000E+00  0.00000000000E+00  0.25868153846E+03  0.25868153846E+03  0.00000000000E+00 0.  1.
         13   -1    0    0    0    0 -0.00000000000E+00 -0.00000000000E+00 -0.27500000000E+03  0.27500000000E+03  0.00000000000E+00 0.  1.
    9000005    2    1    2  501    0 -0.51755496056E+01  0.64279372525E+02 -0.30556251751E+02  0.46764110602E+03  0.46216435981E+03 0.  0.
         13    1    3    3    0    0  0.21035876505E+03 -0.25249541595E+02  0.55290481288E+02  0.21896435031E+03  0.00000000000E+00 0.  1.
          3    1    3    3  501    0 -0.21553431466E+03  0.89528914120E+02 -0.85846733038E+02  0.24867675571E+03  0.00000000000E+00 0.  1.
         21    1    1    2  502  501  0.51755496056E+01 -0.64279372525E+02  0.14237790209E+02  0.66040432433E+02  0.00000000000E+00 0.  1.
<scales pt_clust_4="550.00000" pt_clust_5="550.00000" pt_clust_6="64.48739"></scales>
<mgrwt>
<rscale>  0 0.30000000E+03</rscale>
<asrwt>  1 0.64487394E+02</asrwt>
<pdfrwt beam="1">  1        1 0.94066014E+00 0.30000000E+03</pdfrwt>
<pdfrwt beam="2">0</pdfrwt>
<totfact> 0.16752776E-05</totfact>
</mgrwt>
<clustering>
<clus scale="   64.487">  1  6  2 -1</clus>
<clus scale="  462.164">  4  5 -1 -1</clus>
<clus scale="  300.000">  1  4  2 -1</clus>
</clustering>
</event>
<event>
 6    1  0.9678510E-012  0.3000000E+03  0.7818608E-02  0.1093470E+00
          1   -1    0    0  502    0  0.00000000000E+00  0.00000000000E+00  0.26001449905E+03  0.26001449905E+03  0.00000000000E+00 0.  1.
         13   -1    0    0    0    0 -0.00000000000E+00 -0.00000000000E+00 -0.27500000000E+03  0.27500000000E+03  0.00000000000E+00 0.  1.
    9000005    2    1    2  501    0 -0.33736622480E+02  0.14581873077E+02 -0.67371609514E+01  0.49734719451E+03  0.49594158106E+03 0.  0.
         13    1    3    3    0    0 -0.12105416792E+03  0.68676328769E+02  0.21319978872E+03  0.25460695123E+03  0.00000000000E+00 0.  1.
          1    1    3    3  501    0  0.87317545442E+02 -0.54094455692E+02 -0.21993694967E+03  0.24274024328E+03  0.00000000000E+00 0.  1.
         21    1    1    2  502  501  0.33736622480E+02 -0.14581873077E+02 -0.82483399985E+01  0.37667304543E+02  0.00000000000E+00 0.  1.
<scales pt_clust_4="550.00000" pt_clust_5="550.00000" pt_clust_6="36.75312"></scales>
<mgrwt>
<rscale>  0 0.30000000E+03</rscale>
<asrwt>  1 0.36753123E+02</asrwt>
<pdfrwt beam="1">  1        1 0.94550727E+00 0.30000000E+03</pdfrwt>
<pdfrwt beam="2">0</pdfrwt>
<totfact> 0.15061747E-05</totfact>
</mgrwt>
<clustering>
<clus scale="   36.753">  1  6  2 -1</clus>
<clus scale="  495.942">  4  5 -1 -1</clus>
<clus scale="  300.000">  1  4  2 -1</clus>
</clustering>
</event>
<event>
 6    1  0.9678510E-012  0.3000000E+03  0.7818608E-02  0.1093470E+00
          1   -1    0    0  502    0  0.00000000000E+00  0.00000000000E+00  0.23963017858E+03  0.23963017858E+03  0.00000000000E+00 0.  1.
         13   -1    0    0    0    0 -0.00000000000E+00 -0.00000000000E+00 -0.27500000000E+03  0.27500000000E+03  0.00000000000E+00 0.  1.
    9000005    2    1    2  501    0  0.18628238631E+02  0.35514711851E+02 -0.34251617361E+02  0.47451090126E+03  0.47157090251E+03 0.  0.
         13    1    3    3    0    0 -0.12622208115E+03 -0.88750631422E+02  0.14568698280E+03  0.21221070968E+03  0.00000000000E+00 0.  1.
          1    1    3    3  501    0  0.14485031978E+03  0.12426534327E+03 -0.17993860016E+03  0.26230019158E+03  0.00000000000E+00 0.  1.
         21    1    1    2  502  501 -0.18628238631E+02 -0.35514711851E+02 -0.11182040559E+01  0.40119277320E+02  0.00000000000E+00 0.  1.
<scales pt_clust_4="550.00000" pt_clust_5="550.00000" pt_clust_6="40.10369"></scales>
<mgrwt>
<rscale>  0 0.30000000E+03</rscale>
<asrwt>  1 0.40103691E+02</asrwt>
<pdfrwt beam="1">  1        1 0.87138247E+00 0.30000000E+03</pdfrwt>
<pdfrwt beam="2">0</pdfrwt>
<totfact> 0.23906529E-04</totfact>
</mgrwt>
<clustering>
<clus scale="   40.104">  1  6  2 -1</clus>
<clus scale="  471.571">  4  5 -1 -1</clus>
<clus scale="  300.000">  1  4  2 -1</clus>
</clustering>
</event>
<event>
 6    1  0.9678510E-012  0.3000000E+03  0.7818608E-02  0.1093470E+00
          1   -1    0    0  502    0  0.00000000000E+00  0.00000000000E+00  0.22612543916E+03  0.22612543916E+03  0.00000000000E+00 0.  1.
         13   -1    0    0    0    0 -0.00000000000E+00 -0.00000000000E+00 -0.27500000000E+03  0.27500000000E+03  0.00000000000E+00 0.  1.
    9000005    2    1    2  501    0 -0.28986851758E+02  0.16648360023E+02 -0.60980198595E+02  0.46557333751E+03  0.46035045619E+03 0.  0.
         13    1    3    3    0    0  0.17823199613E+03 -0.30522522272E+01  0.98212923599E+02  0.20352331328E+03  0.00000000000E+00 0.  1.
          3    1    3    3  501    0 -0.20721884789E+03  0.19700612250E+02 -0.15919312219E+03  0.26205002422E+03  0.00000000000E+00 0.  1.
         21    1    1    2  502  501  0.28986851758E+02 -0.16648360023E+02  0.12105637751E+02  0.35552101649E+02  0.00000000000E+00 0. -1.
<scales pt_clust_4="550.00000" pt_clust_5="550.00000" pt_clust_6="33.42762"></scales>
<mgrwt>
<rscale>  0 0.30000000E+03</rscale>
<asrwt>  1 0.33427615E+02</asrwt>
<pdfrwt beam="1">  1        1 0.82227432E+00 0.30000000E+03</pdfrwt>
<pdfrwt beam="2">0</pdfrwt>
<totfact> 0.69677894E-04</totfact>
</mgrwt>
<clustering>
<clus scale="   33.428">  1  6  2 -1</clus>
<clus scale="  460.350">  4  5 -1 -1</clus>
<clus scale="  300.000">  1  4  2 -1</clus>
</clustering>
</event>
<event>
 6    1  0.9678510E-012  0.3000000E+03  0.7818608E-02  0.1093470E+00
          1   -1    0    0  502    0  0.00000000000E+00  0.00000000000E+00  0.23214379865E+03  0.23214379865E+03  0.00000000000E+00 0.  1.
         13   -1    0    0    0    0 -0.00000000000E+00 -0.00000000000E+00 -0.27500000000E+03  0.27500000000E+03  0.00000000000E+00 0.  1.
    9000005    2    1    2  501    0 -0.26610264265E+02 -0.16456229969E+02 -0.59326990537E+02  0.47178562328E+03  0.46699364970E+03 0.  0.
         13    1    3    3    0    0 -0.22907920187E+03 -0.38800617788E+02 -0.11692018158E+03  0.26010209059E+03  0.00000000000E+00 0.  1.
          1    1    3    3  501    0  0.20246893760E+03  0.22344387818E+02  0.57593191038E+02  0.21168353269E+03  0.00000000000E+00 0.  1.
         21    1    1    2  502  501  0.26610264265E+02  0.16456229969E+02  0.16470789191E+02  0.35358175372E+02  0.00000000000E+00 0. -1.
<scales pt_clust_4="550.00000" pt_clust_5="550.00000" pt_clust_6="31.28760"></scales>
<mgrwt>
<rscale>  0 0.30000000E+03</rscale>
<asrwt>  1 0.31287596E+02</asrwt>
<pdfrwt beam="1">  1        1 0.84415927E+00 0.30000000E+03</pdfrwt>
<pdfrwt beam="2">0</pdfrwt>
<totfact> 0.46931675E-04</totfact>
</mgrwt>
<clustering>
<clus scale="   31.288">  1  6  2 -1</clus>
<clus scale="  466.994">  4  5 -1 -1</clus>
<clus scale="  300.000">  1  4  2 -1</clus>
</clustering>
</event>
<event>
 6    1  0.9678510E-012  0.3000000E+03  0.7818608E-02  0.1093470E+00
          1   -1    0    0  502    0  0.00000000000E+00  0.00000000000E+00  0.23927822059E+03  0.23927822059E+03  0.00000000000E+00 0.  1.
         13   -1    0    0    0    0 -0.00000000000E+00 -0.00000000000E+00 -0.27500000000E+03  0.27500000000E+03  0.00000000000E+00 0.  1.
    9000005    2    1    2  501    0  0.33063784498E+02  0.21076291063E+01 -0.70847786189E+02  0.46599269172E+03  0.45938232877E+03 0.  0.
         13    1    3    3    0    0  0.23567127748E+02  0.22953285378E+03 -0.12852411683E+02  0.23109721971E+03  0.00000000000E+00 0.  1.
          1    1    3    3  501    0  0.94966567502E+01 -0.22742522467E+03 -0.57995374505E+02  0.23489547201E+03  0.00000000000E+00 0.  1.
         21    1    1    2  502  501 -0.33063784498E+02 -0.21076291063E+01  0.35126006779E+02  0.48285528868E+02  0.00000000000E+00 0. -1.
<scales pt_clust_4="550.00000" pt_clust_5="550.00000" pt_clust_6="33.13089"></scales>
<mgrwt>
<rscale>  0 0.30000000E+03</rscale>
<asrwt>  1 0.33130891E+02</asrwt>
<pdfrwt beam="1">  1        1 0.87010262E+00 0.30000000E+03</pdfrwt>
<pdfrwt beam="2">0</pdfrwt>
<totfact> 0.25525976E-04</totfact>
</mgrwt>
<clustering>
<clus scale="   33.131">  1  6  2 -1</clus>
<clus scale="  459.382">  4  5 -1 -1</clus>
<clus scale="  300.000">  1  4  2 -1</clus>
</clustering>
</event>
<event>
 6    1  0.9678510E-012  0.3000000E+03  0.7818608E-02  0.1093470E+00
          1   -1    0    0  502    0  0.00000000000E+00  0.00000000000E+00  0.22159329640E+03  0.22159329640E+03  0.00000000000E+00 0.  1.
         13   -1    0    0    0    0 -0.00000000000E+00 -0.00000000000E+00 -0.27500000000E+03  0.27500000000E+03  0.00000000000E+00 0.  1.
    9000005    2    1    2  501    0  0.26421575903E+02  0.20608124335E+02 -0.58195884278E+02  0.46274465221E+03  0.45784610705E+03 0.  0.
         13    1    3    3    0    0  0.20834097194E+03 -0.54111626113E+02  0.71898141743E+02  0.22694354244E+03  0.00000000000E+00 0.  1.
          3    1    3    3  501    0 -0.18191939604E+03  0.74719750448E+02 -0.13009402602E+03  0.23580110977E+03  0.00000000000E+00 0.  1.
         21    1    1    2  502  501 -0.26421575903E+02 -0.20608124335E+02  0.47891806772E+01  0.33848644189E+02  0.00000000000E+00 0. -1.
<scales pt_clust_4="550.00000" pt_clust_5="550.00000" pt_clust_6="33.50813"></scales>
<mgrwt>
<rscale>  0 0.30000000E+03</rscale>
<asrwt>  1 0.33508125E+02</asrwt>
<pdfrwt beam="1">  1        1 0.80579381E+00 0.30000000E+03</pdfrwt>
<pdfrwt beam="2">0</pdfrwt>
<totfact> 0.94749840E-04</totfact>
</mgrwt>
<clustering>
<clus scale="   33.508">  1  6  2 -1</clus>
<clus scale="  457.846">  4  5 -1 -1</clus>
<clus scale="  300.000">  1  4  2 -1</clus>
</clustering>
</event>
<event>
 6    1  0.9678510E-012  0.3000000E+03  0.7818608E-02  0.1093470E+00
          1   -1    0    0  502    0  0.00000000000E+00  0.00000000000E+00  0.23000802085E+03  0.23000802085E+03  0.00000000000E+00 0.  1.
         13   -1    0    0    0    0 -0.00000000000E+00 -0.00000000000E+00 -0.27500000000E+03  0.27500000000E+03  0.00000000000E+00 0.  1.
    9000005    2    1    2  501    0  0.27551474610E+02 -0.15017832737E+02 -0.43908082860E+02  0.47361066611E+03  0.47052579553E+03 0.  0.
         13    1    3    3    0    0  0.19019195221E+03 -0.16296457144E+03 -0.40545135297E+02  0.25372098499E+03  0.00000000000E+00 0.  1.
          1    1    3    3  501    0 -0.16264047760E+03  0.14794673870E+03 -0.33629475629E+01  0.21988968112E+03  0.00000000000E+00 0.  1.
         21    1    1    2  502  501 -0.27551474610E+02  0.15017832737E+02 -0.10838962902E+01  0.31397354737E+02  0.00000000000E+00 0.  1.
<scales pt_clust_4="550.00000" pt_clust_5="550.00000" pt_clust_6="31.37864"></scales>
<mgrwt>
<rscale>  0 0.30000000E+03</rscale>
<asrwt>  1 0.31378640E+02</asrwt>
<pdfrwt beam="1">  1        1 0.83639280E+00 0.30000000E+03</pdfrwt>
<pdfrwt beam="2">0</pdfrwt>
<totfact> 0.53954680E-04</totfact>
</mgrwt>
<clustering>
<clus scale="   31.379">  1  6  2 -1</clus>
<clus scale="  470.526">  4  5 -1 -1</clus>
<clus scale="  300.000">  1  4  2 -1</clus>
</clustering>
</event>
<event>
 6    1  0.9678510E-012  0.3000000E+03  0.7818608E-02  0.1093470E+00
          1   -1    0    0  502    0  0.00000000000E+00  0.00000000000E+00  0.24927678366E+03  0.24927678366E+03  0.00000000000E+00 0.  1.
         13   -1    0    0    0    0 -0.00000000000E+00 -0.00000000000E+00 -0.27500000000E+03  0.27500000000E+03  0.00000000000E+00 0.  1.
    9000005    2    1    2  501    0  0.40762346384E+02  0.56441665061E+01 -0.59021087834E+02  0.47134122147E+03  0.46581716665E+03 0.  0.
         13    1    3    3    0    0  0.30618824026E+02 -0.83628935902E+02 -0.24723271850E+03  0.26278380545E+03  0.00000000000E+00 0.  1.
          1    1    3    3  501    0  0.10143522358E+02  0.89273102409E+02  0.18821163067E+03  0.20855741603E+03  0.00000000000E+00 0.  1.
         21    1    1    2  502  501 -0.40762346384E+02 -0.56441665061E+01  0.33297871495E+02  0.52935562190E+02  0.00000000000E+00 0. -1.
<scales pt_clust_4="550.00000" pt_clust_5="550.00000" pt_clust_6="41.15125"></scales>
<mgrwt>
<rscale>  0 0.30000000E+03</rscale>
<asrwt>  1 0.41151251E+02</asrwt>
<pdfrwt beam="1">  1        1 0.90646103E+00 0.30000000E+03</pdfrwt>
<pdfrwt beam="2">0</pdfrwt>
<totfact> 0.83941758E-05</totfact>
</mgrwt>
<clustering>
<clus scale="   41.151">  1  6  2 -1</clus>
<clus scale="  465.817">  4  5 -1 -1</clus>
<clus scale="  300.000">  1  4  2 -1</clus>
</clustering>
</event>
<event>
 6    1  0.9678510E-012  0.3000000E+03  0.7818608E-02  0.1093470E+00
          1   -1    0    0  502    0  0.00000000000E+00  0.00000000000E+00  0.23652123770E+03  0.23652123770E+03  0.00000000000E+00 0.  1.
         13   -1    0    0    0    0 -0.00000000000E+00 -0.00000000000E+00 -0.27500000000E+03  0.27500000000E+03  0.00000000000E+00 0.  1.
    9000005    2    1    2  501    0  0.35100487094E+02  0.65981225654E+00 -0.11060520627E+02  0.46697643416E+03  0.46552354978E+03 0.  0.
         13    1    3    3    0    0 -0.43312567855E+02 -0.22434408722E+03 -0.98094267025E+01  0.22869733898E+03  0.00000000000E+00 0.  1.
          1    1    3    3  501    0  0.78413054948E+02  0.22500389947E+03 -0.12510939241E+01  0.23827909518E+03  0.00000000000E+00 0.  1.
         21    1    1    2  502  501 -0.35100487094E+02 -0.65981225654E+00 -0.27418241671E+02  0.44544803544E+02  0.00000000000E+00 0. -1.
<scales pt_clust_4="550.00000" pt_clust_5="550.00000" pt_clust_6="35.10671"></scales>
<mgrwt>
<rscale>  0 0.30000000E+03</rscale>
<asrwt>  1 0.35106706E+02</asrwt>
<pdfrwt beam="1">  1        1 0.86007723E+00 0.30000000E+03</pdfrwt>
<pdfrwt beam="2">0</pdfrwt>
<totfact> 0.32266686E-04</totfact>
</mgrwt>
<clustering>
<clus scale="   35.107">  1  6  2 -1</clus>
<clus scale="  465.524">  4  5 -1 -1</clus>
<clus scale="  300.000">  1  4  2 -1</clus>
</clustering>
</event>
<event>
 6    1  0.9678510E-012  0.3000000E+03  0.7818608E-02  0.1093470E+00
          1   -1    0    0  502    0  0.00000000000E+00  0.00000000000E+00  0.23735783783E+03  0.23735783783E+03  0.00000000000E+00 0.  1.
         13   -1    0    0    0    0 -0.00000000000E+00 -0.00000000000E+00 -0.27500000000E+03  0.27500000000E+03  0.00000000000E+00 0.  1.
    9000005    2    1    2  501    0  0.26251157758E+02  0.41232601234E+02 -0.48272404091E+02  0.46233531559E+03  0.45720287440E+03 0.  0.
         13    1    3    3    0    0  0.20584309313E+03 -0.52572148427E+01 -0.14622776077E+03  0.25255014416E+03  0.00000000000E+00 0.  1.
          1    1    3    3  501    0 -0.17959193537E+03  0.46489816076E+02  0.97955356678E+02  0.20978517143E+03  0.00000000000E+00 0.  1.
         21    1    1    2  502  501 -0.26251157758E+02 -0.41232601234E+02  0.10630241921E+02  0.50022522241E+02  0.00000000000E+00 0.  1.
<scales pt_clust_4="550.00000" pt_clust_5="550.00000" pt_clust_6="48.87996"></scales>
<mgrwt>
<rscale>  0 0.30000000E+03</rscale>
<asrwt>  1 0.48879962E+02</asrwt>
<pdfrwt beam="1">  1        1 0.86311941E+00 0.30000000E+03</pdfrwt>
<pdfrwt beam="2">0</pdfrwt>
<totfact> 0.28177896E-04</totfact>
</mgrwt>
<clustering>
<clus scale="   48.880">  1  6  2 -1</clus>
<clus scale="  457.203">  4  5 -1 -1</clus>
<clus scale="  300.000">  1  4  2 -1</clus>
</clustering>
</event>
<event>
 6    1  0.9678510E-012  0.3000000E+03  0.7818608E-02  0.1093470E+00
          1   -1    0    0  502    0  0.00000000000E+00  0.00000000000E+00  0.23810290249E+03  0.23810290249E+03  0.00000000000E+00 0.  1.
         13   -1    0    0    0    0 -0.00000000000E+00 -0.00000000000E+00 -0.27500000000E+03  0.27500000000E+03  0.00000000000E+00 0.  1.
    9000005    2    1    2  501    0  0.41106142200E+02  0.97432874303E+01 -0.43454191349E+02  0.47035197202E+03  0.46643119992E+03 0.  0.
         13    1    3    3    0    0 -0.12630934134E+03 -0.74029273736E+02  0.14405211944E+03  0.20539083766E+03  0.00000000000E+00 0.  1.
          1    1    3    3  501    0  0.16741548354E+03  0.83772561167E+02 -0.18750631079E+03  0.26496113436E+03  0.00000000000E+00 0.  1.
         21    1    1    2  502  501 -0.41106142200E+02 -0.97432874303E+01  0.65570938354E+01  0.42750930470E+02  0.00000000000E+00 0. -1.
<scales pt_clust_4="550.00000" pt_clust_5="550.00000" pt_clust_6="42.24508"></scales>
<mgrwt>
<rscale>  0 0.30000000E+03</rscale>
<asrwt>  1 0.42245078E+02</asrwt>
<pdfrwt beam="1">  1        1 0.86582874E+00 0.30000000E+03</pdfrwt>
<pdfrwt beam="2">0</pdfrwt>
<totfact> 0.27039800E-04</totfact>
</mgrwt>
<clustering>
<clus scale="   42.245">  1  6  2 -1</clus>
<clus scale="  466.431">  4  5 -1 -1</clus>
<clus scale="  300.000">  1  4  2 -1</clus>
</clustering>
</event>
<event>
 6    1  0.9678510E-012  0.3000000E+03  0.7818608E-02  0.1093470E+00
          1   -1    0    0  502    0  0.00000000000E+00  0.00000000000E+00  0.24643202946E+03  0.24643202946E+03  0.00000000000E+00 0.  1.
         13   -1    0    0    0    0 -0.00000000000E+00 -0.00000000000E+00 -0.27500000000E+03  0.27500000000E+03  0.00000000000E+00 0.  1.
    9000005    2    1    2  501    0 -0.34729096213E+02 -0.19183761231E+02 -0.65016381536E+02  0.46755612127E+03  0.46131060020E+03 0.  0.
         13    1    3    3    0    0 -0.78984481289E+02 -0.17453107535E+03  0.11678537496E+03  0.22436235948E+03  0.00000000000E+00 0.  1.
          1    1    3    3  501    0  0.44255385076E+02  0.15534731412E+03 -0.18180175650E+03  0.24319376179E+03  0.00000000000E+00 0.  1.
         21    1    1    2  502  501  0.34729096213E+02  0.19183761231E+02  0.36448410994E+02  0.53875908185E+02  0.00000000000E+00 0.  1.
<scales pt_clust_4="550.00000" pt_clust_5="550.00000" pt_clust_6="39.67527"></scales>
<mgrwt>
<rscale>  0 0.30000000E+03</rscale>
<asrwt>  1 0.39675267E+02</asrwt>
<pdfrwt beam="1">  1        1 0.89611647E+00 0.30000000E+03</pdfrwt>
<pdfrwt beam="2">0</pdfrwt>
<totfact> 0.11971698E-04</totfact>
</mgrwt>
<clustering>
<clus scale="   39.675">  1  6  2 -1</clus>
<clus scale="  461.311">  4  5 -1 -1</clus>
<clus scale="  300.000">  1  4  2 -1</clus>
</clustering>
</event>
<event>
 6    1  0.9678510E-012  0.3000000E+03  0.7818608E-02  0.1093470E+00
          1   -1    0    0  502    0  0.00000000000E+00  0.00000000000E+00  0.24003165459E+03  0.24003165459E+03  0.00000000000E+00 0.  1.
         13   -1    0    0    0    0 -0.00000000000E+00 -0.00000000000E+00 -0.27500000000E+03  0.27500000000E+03  0.00000000000E+00 0.  1.
    9000005    2    1    2  501    0  0.34600188881E+02  0.14295109480E+02 -0.49494090824E+02  0.47487545326E+03  0.47080304572E+03 0.  0.
         13    1    3    3    0    0 -0.19592963495E+03  0.18147819788E+02  0.77702361150E+02  0.21155477339E+03  0.00000000000E+00 0.  1.
          1    1    3    3  501    0  0.23052982383E+03 -0.38527103080E+01 -0.12719645197E+03  0.26332067987E+03  0.00000000000E+00 0.  1.
         21    1    1    2  502  501 -0.34600188881E+02 -0.14295109480E+02  0.14525745418E+02  0.40156201334E+02  0.00000000000E+00 0.  1.
<scales pt_clust_4="550.00000" pt_clust_5="550.00000" pt_clust_6="37.43692"></scales>
<mgrwt>
<rscale>  0 0.30000000E+03</rscale>
<asrwt>  1 0.37436923E+02</asrwt>
<pdfrwt beam="1">  1        1 0.87284238E+00 0.30000000E+03</pdfrwt>
<pdfrwt beam="2">0</pdfrwt>
<totfact> 0.23391704E-04</totfact>
</mgrwt>
<clustering>
<clus scale="   37.437">  1  6  2 -1</clus>
<clus scale="  470.803">  4  5 -1 -1</clus>
<clus scale="  300.000">  1  4  2 -1</clus>
</clustering>
</event>
<event>
 6    1  0.9678510E-012  0.3000000E+03  0.7818608E-02  0.1093470E+00
          1   -1    0    0  502    0  0.00000000000E+00  0.00000000000E+00  0.25838064097E+03  0.25838064097E+03  0.00000000000E+00 0.  1.
         13   -1    0    0    0    0 -0.00000000000E+00 -0.00000000000E+00 -0.27500000000E+03  0.27500000000E+03  0.00000000000E+00 0.  1.
    9000005    2    1    2  501    0  0.44971464760E+02 -0.61089159437E+01 -0.36988553516E+02  0.48363473078E+03  0.48007775227E+03 0.  0.
         13    1    3    3    0    0  0.84489770423E+02  0.11391713513E+03  0.18203972379E+03  0.23076849009E+03  0.00000000000E+00 0.  1.
          1    1    3    3  501    0 -0.39518305663E+02 -0.12002605107E+03 -0.21902827731E+03  0.25286624069E+03  0.00000000000E+00 0.  1.
         21    1    1    2  502  501 -0.44971464760E+02  0.61089159437E+01  0.20369194485E+02  0.49745910190E+02  0.00000000000E+00 0.  1.
<scales pt_clust_4="550.00000" pt_clust_5="550.00000" pt_clust_6="45.38449"></scales>
<mgrwt>
<rscale>  0 0.30000000E+03</rscale>
<asrwt>  1 0.45384485E+02</asrwt>
<pdfrwt beam="1">  1        1 0.93956597E+00 0.30000000E+03</pdfrwt>
<pdfrwt beam="2">0</pdfrwt>
<totfact> 0.18578052E-05</totfact>
</mgrwt>
<clustering>
<clus scale="   45.384">  1  6  2 -1</clus>
<clus scale="  480.078">  4  5 -1 -1</clus>
<clus scale="  300.000">  1  4  2 -1</clus>
</clustering>
</event>
<event>
 6    1  0.9678510E-012  0.3000000E+03  0.7818608E-02  0.1093470E+00
          1   -1    0    0  502    0  0.00000000000E+00  0.00000000000E+00  0.23283769493E+03  0.23283769493E+03  0.00000000000E+00 0.  1.
         13   -1    0    0    0    0 -0.00000000000E+00 -0.00000000000E+00 -0.27500000000E+03  0.27500000000E+03  0.00000000000E+00 0.  1.
    9000005    2    1    2  501    0 -0.30669434348E+02  0.14288529105E+02 -0.56581108793E+02  0.47105892159E+03  0.46642288695E+03 0.  0.
         13    1    3    3    0    0 -0.63373380810E+02  0.73050061278E+02  0.19122583079E+03  0.21428909260E+03  0.00000000000E+00 0.  1.
          1    1    3    3  501    0  0.32703946462E+02 -0.58761532173E+02 -0.24780693958E+03  0.25676982899E+03  0.00000000000E+00 0.  1.
         21    1    1    2  502  501  0.30669434348E+02 -0.14288529105E+02  0.14418803720E+02  0.36778773334E+02  0.00000000000E+00 0. -1.
<scales pt_clust_4="550.00000" pt_clust_5="550.00000" pt_clust_6="33.83454"></scales>
<mgrwt>
<rscale>  0 0.30000000E+03</rscale>
<asrwt>  1 0.33834543E+02</asrwt>
<pdfrwt beam="1">  1        1 0.84668253E+00 0.30000000E+03</pdfrwt>
<pdfrwt beam="2">0</pdfrwt>
<totfact> 0.43936215E-04</totfact>
</mgrwt>
<clustering>
<clus scale="   33.835">  1  6  2 -1</clus>
<clus scale="  466.423">  4  5 -1 -1</clus>
<clus scale="  300.000">  1  4  2 -1</clus>
</clustering>
</event>
<event>
 6    1  0.9678510E-012  0.3000000E+03  0.7818608E-02  0.1093470E+00
          1   -1    0    0  502    0  0.00000000000E+00  0.00000000000E+00  0.22262500365E+03  0.22262500365E+03  0.00000000000E+00 0.  1.
         13   -1    0    0    0    0 -0.00000000000E+00 -0.00000000000E+00 -0.27500000000E+03  0.27500000000E+03  0.00000000000E+00 0.  1.
    9000005    2    1    2  501    0  0.14851889908E+02 -0.30924589923E+02 -0.58812703123E+02  0.46272009047E+03  0.45768333941E+03 0.  0.
         13    1    3    3    0    0  0.16021207382E+03  0.15174385218E+03  0.49471454333E+01  0.22072285681E+03  0.00000000000E+00 0.  1.
          3    1    3    3  501    0 -0.14536018392E+03 -0.18266844210E+03 -0.63759848556E+02  0.24199723365E+03  0.00000000000E+00 0.  1.
         21    1    1    2  502  501 -0.14851889908E+02  0.30924589923E+02  0.64377067706E+01  0.34904913181E+02  0.00000000000E+00 0.  1.
<scales pt_clust_4="550.00000" pt_clust_5="550.00000" pt_clust_6="34.30611"></scales>
<mgrwt>
<rscale>  0 0.30000000E+03</rscale>
<asrwt>  1 0.34306106E+02</asrwt>
<pdfrwt beam="1">  1        1 0.80954547E+00 0.30000000E+03</pdfrwt>
<pdfrwt beam="2">0</pdfrwt>
<totfact> 0.88258915E-04</totfact>
</mgrwt>
<clustering>
<clus scale="   34.306">  1  6  2 -1</clus>
<clus scale="  457.683">  4  5 -1 -1</clus>
<clus scale="  300.000">  1  4  2 -1</clus>
</clustering>
</event>
<event>
 6    1  0.9678510E-012  0.3000000E+03  0.7818608E-02  0.1093470E+00
          1   -1    0    0  502    0  0.00000000000E+00  0.00000000000E+00  0.25884530190E+03  0.25884530190E+03  0.00000000000E+00 0.  1.
         13   -1    0    0    0    0 -0.00000000000E+00 -0.00000000000E+00 -0.27500000000E+03  0.27500000000E+03  0.00000000000E+00 0.  1.
    9000005    2    1    2  501    0 -0.14728993061E+02 -0.28659960840E+02 -0.59621162706E+02  0.47973735297E+03  0.47492621343E+03 0.  0.
         13    1    3    3    0    0  0.13156656722E+03 -0.10263364510E+03 -0.20241958395E+03  0.26233016351E+03  0.00000000000E+00 0.  1.
          3    1    3    3  501    0 -0.14629556028E+03  0.73973684260E+02  0.14279842125E+03  0.21740718947E+03  0.00000000000E+00 0.  1.
         21    1    1    2  502  501  0.14728993061E+02  0.28659960840E+02  0.43466464608E+02  0.54107948930E+02  0.00000000000E+00 0.  1.
<scales pt_clust_4="550.00000" pt_clust_5="550.00000" pt_clust_6="32.22323"></scales>
<mgrwt>
<rscale>  0 0.30000000E+03</rscale>
<asrwt>  1 0.32223231E+02</asrwt>
<pdfrwt beam="1">  1        1 0.94125564E+00 0.30000000E+03</pdfrwt>
<pdfrwt beam="2">0</pdfrwt>
<totfact> 0.18514377E-05</totfact>
</mgrwt>
<clustering>
<clus scale="   32.223">  1  6  2 -1</clus>
<clus scale="  474.926">  4  5 -1 -1</clus>
<clus scale="  300.000">  1  4  2 -1</clus>
</clustering>
</event>
<event>
 6    1  0.9678510E-012  0.3000000E+03  0.7818608E-02  0.1093470E+00
          1   -1    0    0  502    0  0.00000000000E+00  0.00000000000E+00  0.24362140505E+03  0.24362140505E+03  0.00000000000E+00 0.  1.
         13   -1    0    0    0    0 -0.00000000000E+00 -0.00000000000E+00 -0.27500000000E+03  0.27500000000E+03  0.00000000000E+00 0.  1.
    9000005    2    1    2  501    0  0.26554474498E+01  0.35360854800E+02 -0.37611758619E+02  0.48261732497E+03  0.47984101171E+03 0.  0.
         13    1    3    3    0    0  0.75118996888E+02  0.18255378490E+03  0.13909758995E+03  0.24148889748E+03  0.00000000000E+00 0.  1.
          3    1    3    3  501    0 -0.72463549438E+02 -0.14719293010E+03 -0.17670934857E+03  0.24112842749E+03  0.00000000000E+00 0.  1.
         21    1    1    2  502  501 -0.26554474498E+01 -0.35360854800E+02  0.62331636706E+01  0.36004080084E+02  0.00000000000E+00 0. -1.
<scales pt_clust_4="550.00000" pt_clust_5="550.00000" pt_clust_6="35.46042"></scales>
<mgrwt>
<rscale>  0 0.30000000E+03</rscale>
<asrwt>  1 0.35460421E+02</asrwt>
<pdfrwt beam="1">  1        1 0.88589602E+00 0.30000000E+03</pdfrwt>
<pdfrwt beam="2">0</pdfrwt>
<totfact> 0.16455961E-04</totfact>
</mgrwt>
<clustering>
<clus scale="   35.460">  1  6  2 -1</clus>
<clus scale="  479.841">  4  5 -1 -1</clus>
<clus scale="  300.000">  1  4  2 -1</clus>
</clustering>
</event>
<event>
 6    1  0.9678510E-012  0.3000000E+03  0.7818608E-02  0.1093470E+00
          1   -1    0    0  502    0  0.00000000000E+00  0.00000000000E+00  0.22285151490E+03  0.22285151490E+03  0.00000000000E+00 0.  1.
         13   -1    0    0    0    0 -0.00000000000E+00 -0.00000000000E+00 -0.27500000000E+03  0.27500000000E+03  0.00000000000E+00 0.  1.
    9000005    2    1    2  501    0 -0.28245459112E+02 -0.20759966440E+02 -0.42798674345E+02  0.46157202858E+03  0.45824472596E+03 0.  0.
         13    1    3    3    0    0  0.21364527039E+03 -0.19039653651E+02 -0.47248266113E+02  0.21963426104E+03  0.00000000000E+00 0.  1.
          3    1    3    3  501    0 -0.24189072950E+03 -0.17203127891E+01  0.44495917683E+01  0.24193776754E+03  0.00000000000E+00 0.  1.
         21    1    1    2  502  501  0.28245459112E+02  0.20759966440E+02 -0.93498107520E+01  0.36279486327E+02  0.00000000000E+00 0. -1.
<scales pt_clust_4="550.00000" pt_clust_5="550.00000" pt_clust_6="35.05401"></scales>
<mgrwt>
<rscale>  0 0.30000000E+03</rscale>
<asrwt>  1 0.35054007E+02</asrwt>
<pdfrwt beam="1">  1        1 0.81036915E+00 0.30000000E+03</pdfrwt>
<pdfrwt beam="2">0</pdfrwt>
<totfact> 0.86612952E-04</totfact>
</mgrwt>
<clustering>
<clus scale="   35.054">  1  6  2 -1</clus>
<clus scale="  458.245">  4  5 -1 -1</clus>
<clus scale="  300.000">  1  4  2 -1</clus>
</clustering>
</event>
<event>
 6    1  0.9678510E-012  0.3000000E+03  0.7818608E-02  0.1093470E+00
          1   -1    0    0  502    0  0.00000000000E+00  0.00000000000E+00  0.22724184123E+03  0.22724184123E+03  0.00000000000E+00 0.  1.
         13   -1    0    0    0    0 -0.00000000000E+00 -0.00000000000E+00 -0.27500000000E+03  0.27500000000E+03  0.00000000000E+00 0.  1.
    9000005    2    1    2  501    0 -0.46712819289E+01  0.30097931240E+02 -0.52264965546E+02  0.47145194602E+03  0.46755492131E+03 0.  0.
         13    1    3    3    0    0  0.74755764178E+02 -0.12325704776E+03  0.14827246480E+03  0.20679808490E+03  0.00000000000E+00 0.  1.
          1    1    3    3  501    0 -0.79427046107E+02  0.15335497900E+03 -0.20053743035E+03  0.26465386112E+03  0.00000000000E+00 0.  1.
         21    1    1    2  502  501  0.46712819289E+01 -0.30097931240E+02  0.45068067785E+01  0.30789895212E+02  0.00000000000E+00 0.  1.
<scales pt_clust_4="550.00000" pt_clust_5="550.00000" pt_clust_6="30.45827"></scales>
<mgrwt>
<rscale>  0 0.30000000E+03</rscale>
<asrwt>  1 0.30458272E+02</asrwt>
<pdfrwt beam="1">  1        1 0.82633397E+00 0.30000000E+03</pdfrwt>
<pdfrwt beam="2">0</pdfrwt>
<totfact> 0.65252894E-04</totfact>
</mgrwt>
<clustering>
<clus scale="   30.458">  1  6  2 -1</clus>
<clus scale="  467.555">  4  5 -1 -1</clus>
<clus scale="  300.000">  1  4  2 -1</clus>
</clustering>
</event>
<event>
 6    1  0.9678510E-012  0.3000000E+03  0.7818608E-02  0.1093470E+00
          1   -1    0    0  502    0  0.00000000000E+00  0.00000000000E+00  0.22002012496E+03  0.22002012496E+03  0.00000000000E+00 0.  1.
         13   -1    0    0    0    0 -0.00000000000E+00 -0.00000000000E+00 -0.27500000000E+03  0.27500000000E+03  0.00000000000E+00 0.  1.
    9000005    2    1    2  501    0  0.28352203112E+02 -0.11217674902E+02 -0.40418686552E+02  0.46123089796E+03  0.45844365778E+03 0.  0.
         13    1    3    3    0    0 -0.14052869655E+03  0.69329650502E+02 -0.17185737176E+03  0.23257229246E+03  0.00000000000E+00 0.  1.
          3    1    3    3  501    0  0.16888089966E+03 -0.80547325404E+02  0.13143868521E+03  0.22865860550E+03  0.00000000000E+00 0.  1.
         21    1    1    2  502  501 -0.28352203112E+02  0.11217674902E+02 -0.14561188485E+02  0.33789227005E+02  0.00000000000E+00 0.  1.
<scales pt_clust_4="550.00000" pt_clust_5="550.00000" pt_clust_6="30.49073"></scales>
<mgrwt>
<rscale>  0 0.30000000E+03</rscale>
<asrwt>  1 0.30490729E+02</asrwt>
<pdfrwt beam="1">  1        1 0.80007318E+00 0.30000000E+03</pdfrwt>
<pdfrwt beam="2">0</pdfrwt>
<totfact> 0.10631876E-03</totfact>
</mgrwt>
<clustering>
<clus scale="   30.491">  1  6  2 -1</clus>
<clus scale="  458.444">  4  5 -1 -1</clus>
<clus scale="  300.000">  1  4  2 -1</clus>
</clustering>
</event>
<event>
 6    1  0.9678510E-012  0.3000000E+03  0.7818608E-02  0.1093470E+00
          1   -1    0    0  502    0  0.00000000000E+00  0.00000000000E+00  0.23900119048E+03  0.23900119048E+03  0.00000000000E+00 0.  1.
         13   -1    0    0    0    0 -0.00000000000E+00 -0.00000000000E+00 -0.27500000000E+03  0.27500000000E+03  0.00000000000E+00 0.  1.
    9000005    2    1    2  501    0 -0.31382922594E+02  0.93405867789E+01 -0.66874901057E+02  0.46899599722E+03  0.46304736110E+03 0.  0.
         13    1    3    3    0    0  0.18689631537E+03 -0.48773514909E+02  0.69335100782E+02  0.20522291455E+03  0.00000000000E+00 0.  1.
          1    1    3    3  501    0 -0.21827923796E+03  0.58114101688E+02 -0.13621000184E+03  0.26377308267E+03  0.00000000000E+00 0.  1.
         21    1    1    2  502  501  0.31382922594E+02 -0.93405867789E+01  0.30876091539E+02  0.45005193263E+02  0.00000000000E+00 0.  1.
<scales pt_clust_4="550.00000" pt_clust_5="550.00000" pt_clust_6="32.74346"></scales>
<mgrwt>
<rscale>  0 0.30000000E+03</rscale>
<asrwt>  1 0.32743463E+02</asrwt>
<pdfrwt beam="1">  1        1 0.86909524E+00 0.30000000E+03</pdfrwt>
<pdfrwt beam="2">0</pdfrwt>
<totfact> 0.26198345E-04</totfact>
</mgrwt>
<clustering>
<clus scale="   32.743">  1  6  2 -1</clus>
<clus scale="  463.047">  4  5 -1 -1</clus>
<clus scale="  300.000">  1  4  2 -1</clus>
</clustering>
</event>
<event>
 6    1  0.9678510E-012  0.3000000E+03  0.7818608E-02  0.1093470E+00
          1   -1    0    0  502    0  0.00000000000E+00  0.00000000000E+00  0.23966680413E+03  0.23966680413E+03  0.00000000000E+00 0.  1.
         13   -1    0    0    0    0 -0.00000000000E+00 -0.00000000000E+00 -0.27500000000E+03  0.27500000000E+03  0.00000000000E+00 0.  1.
    9000005    2    1    2  501    0  0.42414245873E+02 -0.85368367960E+01 -0.45857006853E+02  0.47014044752E+03  0.46589411832E+03 0.  0.
         13    1    3    3    0    0  0.18442951704E+03 -0.14273137627E+03 -0.11862033245E+03  0.26164341344E+03  0.00000000000E+00 0.  1.
          1    1    3    3  501    0 -0.14201527117E+03  0.13419453947E+03  0.72763325595E+02  0.20849703408E+03  0.00000000000E+00 0.  1.
         21    1    1    2  502  501 -0.42414245873E+02  0.85368367960E+01  0.10523810984E+02  0.44526356612E+02  0.00000000000E+00 0.  1.
<scales pt_clust_4="550.00000" pt_clust_5="550.00000" pt_clust_6="43.26483"></scales>
<mgrwt>
<rscale>  0 0.30000000E+03</rscale>
<asrwt>  1 0.43264834E+02</asrwt>
<pdfrwt beam="1">  1        1 0.87151565E+00 0.30000000E+03</pdfrwt>
<pdfrwt beam="2">0</pdfrwt>
<totfact> 0.23506580E-04</totfact>
</mgrwt>
<clustering>
<clus scale="   43.265">  1  6  2 -1</clus>
<clus scale="  465.894">  4  5 -1 -1</clus>
<clus scale="  300.000">  1  4  2 -1</clus>
</clustering>
</event>
<event>
 6    1  0.9678510E-012  0.3000000E+03  0.7818608E-02  0.1093470E+00
          1   -1    0    0  502    0  0.00000000000E+00  0.00000000000E+00  0.23602098483E+03  0.23602098483E+03  0.00000000000E+00 0.  1.
         13   -1    0    0    0    0 -0.00000000000E+00 -0.00000000000E+00 -0.27500000000E+03  0.27500000000E+03  0.00000000000E+00 0.  1.
    9000005    2    1    2  501    0 -0.23810914124E+02  0.18348214196E+02 -0.54191696581E+02  0.47733059642E+03  0.47329075810E+03 0.  0.
         13    1    3    3    0    0  0.36584426296E+02 -0.16712521893E+03  0.12545363228E+03  0.21215059015E+03  0.00000000000E+00 0.  1.
          3    1    3    3  501    0 -0.60395340421E+02  0.18547343313E+03 -0.17964532886E+03  0.26518000626E+03  0.00000000000E+00 0.  1.
         21    1    1    2  502  501  0.23810914124E+02 -0.18348214196E+02  0.15212681410E+02  0.33690388412E+02  0.00000000000E+00 0. -1.
<scales pt_clust_4="550.00000" pt_clust_5="550.00000" pt_clust_6="30.06022"></scales>
<mgrwt>
<rscale>  0 0.30000000E+03</rscale>
<asrwt>  1 0.30060216E+02</asrwt>
<pdfrwt beam="1">  1        1 0.85825813E+00 0.30000000E+03</pdfrwt>
<pdfrwt beam="2">0</pdfrwt>
<totfact> 0.34736124E-04</totfact>
</mgrwt>
<clustering>
<clus scale="   30.060">  1  6  2 -1</clus>
<clus scale="  473.291">  4  5 -1 -1</clus>
<clus scale="  300.000">  1  4  2 -1</clus>
</clustering>
</event>
<event>
 6    1  0.9678510E-012  0.3000000E+03  0.7818608E-02  0.1093470E+00
          1   -1    0    0  502    0  0.00000000000E+00  0.00000000000E+00  0.25629258737E+03  0.25629258737E+03  0.00000000000E+00 0.  1.
         13   -1    0    0    0    0 -0.00000000000E+00 -0.00000000000E+00 -0.27500000000E+03  0.27500000000E+03  0.00000000000E+00 0.  1.
    9000005    2    1    2  501    0  0.21359564231E+02 -0.24211609402E+02 -0.45889816028E+02  0.48908694713E+03  0.48585772982E+03 0.  0.
         13    1    3    3    0    0  0.17700208437E+03  0.30675810448E+01 -0.20087657571E+03  0.26775090401E+03  0.00000000000E+00 0.  1.
          3    1    3    3  501    0 -0.15564252014E+03 -0.27279190447E+02  0.15498675969E+03  0.22133604312E+03  0.00000000000E+00 0.  1.
         21    1    1    2  502  501 -0.21359564231E+02  0.24211609402E+02  0.27182403403E+02  0.42205640248E+02  0.00000000000E+00 0.  1.
<scales pt_clust_4="550.00000" pt_clust_5="550.00000" pt_clust_6="32.28673"></scales>
<mgrwt>
<rscale>  0 0.30000000E+03</rscale>
<asrwt>  1 0.32286731E+02</asrwt>
<pdfrwt beam="1">  1        1 0.93197305E+00 0.30000000E+03</pdfrwt>
<pdfrwt beam="2">0</pdfrwt>
<totfact> 0.24972535E-05</totfact>
</mgrwt>
<clustering>
<clus scale="   32.287">  1  6  2 -1</clus>
<clus scale="  485.858">  4  5 -1 -1</clus>
<clus scale="  300.000">  1  4  2 -1</clus>
</clustering>
</event>
<event>
 6    1  0.9678510E-012  0.3000000E+03  0.7818608E-02  0.1093470E+00
          1   -1    0    0  502    0  0.00000000000E+00  0.00000000000E+00  0.24438477089E+03  0.24438477089E+03  0.00000000000E+00 0.  1.
         13   -1    0    0    0    0 -0.00000000000E+00 -0.00000000000E+00 -0.27500000000E+03  0.27500000000E+03  0.00000000000E+00 0.  1.
    9000005    2    1    2  501    0 -0.29917487400E+02  0.26400814276E+01 -0.74647120222E+02  0.46608530075E+03  0.45908745238E+03 0.  0.
         13    1    3    3    0    0 -0.15654653226E+03  0.83071280268E+02 -0.20241563326E+03  0.26903483596E+03  0.00000000000E+00 0.  1.
          3    1    3    3  501    0  0.12662904486E+03 -0.80431198840E+02  0.12776851304E+03  0.19705046479E+03  0.00000000000E+00 0.  1.
         21    1    1    2  502  501  0.29917487400E+02 -0.26400814276E+01  0.44031891107E+02  0.53299470135E+02  0.00000000000E+00 0.  1.
<scales pt_clust_4="550.00000" pt_clust_5="550.00000" pt_clust_6="30.03375"></scales>
<mgrwt>
<rscale>  0 0.30000000E+03</rscale>
<asrwt>  1 0.30033749E+02</asrwt>
<pdfrwt beam="1">  1        1 0.88867189E+00 0.30000000E+03</pdfrwt>
<pdfrwt beam="2">0</pdfrwt>
<totfact> 0.15551116E-04</totfact>
</mgrwt>
<clustering>
<clus scale="   30.034">  1  6  2 -1</clus>
<clus scale="  459.087">  4  5 -1 -1</clus>
<clus scale="  300.000">  1  4  2 -1</clus>
</clustering>
</event>
<event>
 6    1  0.9678510E-012  0.3000000E+03  0.7818608E-02  0.1093470E+00
          1   -1    0    0  502    0  0.00000000000E+00  0.00000000000E+00  0.23001434015E+03  0.23001434015E+03  0.00000000000E+00 0.  1.
         13   -1    0    0    0    0 -0.00000000000E+00 -0.00000000000E+00 -0.27500000000E+03  0.27500000000E+03  0.00000000000E+00 0.  1.
    9000005    2    1    2  501    0 -0.31231538768E+02  0.28576101730E+01 -0.44684169937E+02  0.47365089254E+03  0.47049433367E+03 0.  0.
         13    1    3    3    0    0  0.12644672293E+03 -0.16393579245E+03 -0.11076222922E+03  0.23480202130E+03  0.00000000000E+00 0.  1.
          1    1    3    3  501    0 -0.15767826170E+03  0.16679340262E+03  0.66078059286E+02  0.23884887124E+03  0.00000000000E+00 0.  1.
         21    1    1    2  502  501  0.31231538768E+02 -0.28576101730E+01 -0.30148991407E+00  0.31363447609E+02  0.00000000000E+00 0. -1.
<scales pt_clust_4="550.00000" pt_clust_5="550.00000" pt_clust_6="31.36200"></scales>
<mgrwt>
<rscale>  0 0.30000000E+03</rscale>
<asrwt>  1 0.31361998E+02</asrwt>
<pdfrwt beam="1">  1        1 0.83641578E+00 0.30000000E+03</pdfrwt>
<pdfrwt beam="2">0</pdfrwt>
<totfact> 0.53939439E-04</totfact>
</mgrwt>
<clustering>
<clus scale="   31.362">  1  6  2 -1</clus>
<clus scale="  470.494">  4  5 -1 -1</clus>
<clus scale="  300.000">  1  4  2 -1</clus>
</clustering>
</event>
<event>
 6    1  0.9678510E-012  0.3000000E+03  0.7818608E-02  0.1093470E+00
          1   -1    0    0  502    0  0.00000000000E+00  0.00000000000E+00  0.24139728973E+03  0.24139728973E+03  0.00000000000E+00 0.  1.
         13   -1    0    0    0    0 -0.00000000000E+00 -0.00000000000E+00 -0.27500000000E+03  0.27500000000E+03  0.00000000000E+00 0.  1.
    9000005    2    1    2  501    0  0.16167963318E+02 -0.43416342560E+02 -0.42963490812E+02  0.46913201652E+03  0.46485761857E+03 0.  0.
         13    1    3    3    0    0  0.59575564629E+02  0.20568397413E+03 -0.13427402714E+02  0.21455871052E+03  0.00000000000E+00 0.  1.
          3    1    3    3  501    0 -0.43407601311E+02 -0.24910031669E+03 -0.29536088098E+02  0.25457330600E+03  0.00000000000E+00 0.  1.
         21    1    1    2  502  501 -0.16167963318E+02  0.43416342560E+02  0.93607805394E+01  0.47265273208E+02  0.00000000000E+00 0.  1.
<scales pt_clust_4="550.00000" pt_clust_5="550.00000" pt_clust_6="46.32906"></scales>
<mgrwt>
<rscale>  0 0.30000000E+03</rscale>
<asrwt>  1 0.46329060E+02</asrwt>
<pdfrwt beam="1">  1        1 0.87780833E+00 0.30000000E+03</pdfrwt>
<pdfrwt beam="2">0</pdfrwt>
<totfact> 0.19911242E-04</totfact>
</mgrwt>
<clustering>
<clus scale="   46.329">  1  6  2 -1</clus>
<clus scale="  464.858">  4  5 -1 -1</clus>
<clus scale="  300.000">  1  4  2 -1</clus>
</clustering>
</event>
<event>
 6    1  0.9678510E-012  0.3000000E+03  0.7818608E-02  0.1093470E+00
          1   -1    0    0  502    0  0.00000000000E+00  0.00000000000E+00  0.23381687979E+03  0.23381687979E+03  0.00000000000E+00 0.  1.
         13   -1    0    0    0    0 -0.00000000000E+00 -0.00000000000E+00 -0.27500000000E+03  0.27500000000E+03  0.00000000000E+00 0.  1.
    9000005    2    1    2  501    0  0.20784531541E+02  0.24611035659E+02 -0.58759166711E+02  0.47212059608E+03  0.46734090099E+03 0.  0.
         13    1    3    3    0    0 -0.17409620149E+03 -0.46371107185E+02  0.10440192276E+03  0.20822950903E+03  0.00000000000E+00 0.  1.
          3    1    3    3  501    0  0.19488073303E+03  0.70982142844E+02 -0.16316108947E+03  0.26389108705E+03  0.00000000000E+00 0.  1.
         21    1    1    2  502  501 -0.20784531541E+02 -0.24611035659E+02  0.17576046501E+02  0.36696283711E+02  0.00000000000E+00 0.  1.
<scales pt_clust_4="550.00000" pt_clust_5="550.00000" pt_clust_6="32.21335"></scales>
<mgrwt>
<rscale>  0 0.30000000E+03</rscale>
<asrwt>  1 0.32213349E+02</asrwt>
<pdfrwt beam="1">  1        1 0.85024320E+00 0.30000000E+03</pdfrwt>
<pdfrwt beam="2">0</pdfrwt>
<totfact> 0.41123129E-04</totfact>
</mgrwt>
<clustering>
<clus scale="   32.213">  1  6  2 -1</clus>
<clus scale="  467.341">  4  5 -1 -1</clus>
<clus scale="  300.000">  1  4  2 -1</clus>
</clustering>
</event>
<event>
 6    1  0.9678510E-012  0.3000000E+03  0.7818608E-02  0.1093470E+00
          1   -1    0    0  502    0  0.00000000000E+00  0.00000000000E+00  0.22180684235E+03  0.22180684235E+03  0.00000000000E+00 0.  1.
         13   -1    0    0    0    0 -0.00000000000E+00 -0.00000000000E+00 -0.27500000000E+03  0.27500000000E+03  0.00000000000E+00 0.  1.
    9000005    2    1    2  501    0 -0.19476143370E+02  0.22928746828E+02 -0.64668594874E+02  0.46460849998E+03  0.45910127804E+03 0.  0.
         13    1    3    3    0    0 -0.82793442871E+02 -0.15238337763E+03  0.11309148391E+03  0.20703896178E+03  0.00000000000E+00 0.  1.
          1    1    3    3  501    0  0.63317299501E+02  0.17531212446E+03 -0.17776007879E+03  0.25756953820E+03  0.00000000000E+00 0.  1.
         21    1    1    2  502  501  0.19476143370E+02 -0.22928746828E+02  0.11475437224E+02  0.32198342367E+02  0.00000000000E+00 0. -1.
<scales pt_clust_4="550.00000" pt_clust_5="550.00000" pt_clust_6="30.08401"></scales>
<mgrwt>
<rscale>  0 0.30000000E+03</rscale>
<asrwt>  1 0.30084009E+02</asrwt>
<pdfrwt beam="1">  1        1 0.80657034E+00 0.30000000E+03</pdfrwt>
<pdfrwt beam="2">0</pdfrwt>
<totfact> 0.95402117E-04</totfact>
</mgrwt>
<clustering>
<clus scale="   30.084">  1  6  2 -1</clus>
<clus scale="  459.101">  4  5 -1 -1</clus>
<clus scale="  300.000">  1  4  2 -1</clus>
</clustering>
</event>
<event>
 6    1  0.9678510E-012  0.3000000E+03  0.7818608E-02  0.1093470E+00
          1   -1    0    0  502    0  0.00000000000E+00  0.00000000000E+00  0.23143769487E+03  0.23143769487E+03  0.00000000000E+00 0.  1.
         13   -1    0    0    0    0 -0.00000000000E+00 -0.00000000000E+00 -0.27500000000E+03  0.27500000000E+03  0.00000000000E+00 0.  1.
    9000005    2    1    2  501    0 -0.25931563375E+02 -0.15436402654E+02 -0.63630133893E+02  0.47019619577E+03  0.46489239623E+03 0.  0.
         13    1    3    3    0    0 -0.16114427432E+03 -0.18159655952E+03 -0.79280102633E+02  0.25540188380E+03  0.00000000000E+00 0.  1.
          1    1    3    3  501    0  0.13521271094E+03  0.16616015687E+03  0.15649968740E+02  0.21479431197E+03  0.00000000000E+00 0.  1.
         21    1    1    2  502  501  0.25931563375E+02  0.15436402654E+02  0.20067828762E+02  0.36241499102E+02  0.00000000000E+00 0. -1.
<scales pt_clust_4="550.00000" pt_clust_5="550.00000" pt_clust_6="30.17828"></scales>
<mgrwt>
<rscale>  0 0.30000000E+03</rscale>
<asrwt>  1 0.30178279E+02</asrwt>
<pdfrwt beam="1">  1        1 0.84159162E+00 0.30000000E+03</pdfrwt>
<pdfrwt beam="2">0</pdfrwt>
<totfact> 0.49664633E-04</totfact>
</mgrwt>
<clustering>
<clus scale="   30.178">  1  6  2 -1</clus>
<clus scale="  464.892">  4  5 -1 -1</clus>
<clus scale="  300.000">  1  4  2 -1</clus>
</clustering>
</event>
<event>
 6    1  0.9678510E-012  0.3000000E+03  0.7818608E-02  0.1093470E+00
          1   -1    0    0  502    0  0.00000000000E+00  0.00000000000E+00  0.24198076539E+03  0.24198076539E+03  0.00000000000E+00 0.  1.
         13   -1    0    0    0    0 -0.00000000000E+00 -0.00000000000E+00 -0.27500000000E+03  0.27500000000E+03  0.00000000000E+00 0.  1.
    9000005    2    1    2  501    0  0.28270632168E+02  0.16117960621E+02 -0.64840702273E+02  0.47146567886E+03  0.46585035405E+03 0.  0.
         13    1    3    3    0    0  0.46256342202E+02 -0.43674981893E+02  0.19453882061E+03  0.20467658870E+03  0.00000000000E+00 0.  1.
          3    1    3    3  501    0 -0.17985710034E+02  0.59792942513E+02 -0.25937952288E+03  0.26678909016E+03  0.00000000000E+00 0.  1.
         21    1    1    2  502  501 -0.28270632168E+02 -0.16117960621E+02  0.31821467665E+02  0.45515086533E+02  0.00000000000E+00 0.  1.
<scales pt_clust_4="550.00000" pt_clust_5="550.00000" pt_clust_6="32.54255"></scales>
<mgrwt>
<rscale>  0 0.30000000E+03</rscale>
<asrwt>  1 0.32542546E+02</asrwt>
<pdfrwt beam="1">  1        1 0.87993006E+00 0.30000000E+03</pdfrwt>
<pdfrwt beam="2">0</pdfrwt>
<totfact> 0.20049832E-04</totfact>
</mgrwt>
<clustering>
<clus scale="   32.543">  1  6  2 -1</clus>
<clus scale="  465.850">  4  5 -1 -1</clus>
<clus scale="  300.000">  1  4  2 -1</clus>
</clustering>
</event>
<event>
 6    1  0.9678510E-012  0.3000000E+03  0.7818608E-02  0.1093470E+00
          1   -1    0    0  502    0  0.00000000000E+00  0.00000000000E+00  0.23718985650E+03  0.23718985650E+03  0.00000000000E+00 0.  1.
         13   -1    0    0    0    0 -0.00000000000E+00 -0.00000000000E+00 -0.27500000000E+03  0.27500000000E+03  0.00000000000E+00 0.  1.
    9000005    2    1    2  501    0 -0.24717705748E+02 -0.36850819773E+02 -0.32311523458E+02  0.46747763538E+03  0.46424385525E+03 0.  0.
         13    1    3    3    0    0 -0.37143960680E+02 -0.43831684759E+01 -0.24708957244E+03  0.24990426725E+03  0.00000000000E+00 0.  1.
          1    1    3    3  501    0  0.12426254932E+02 -0.32467651297E+02  0.21477804899E+03  0.21757336813E+03  0.00000000000E+00 0.  1.
         21    1    1    2  502  501  0.24717705748E+02  0.36850819773E+02 -0.54986200398E+01  0.44712221122E+02  0.00000000000E+00 0.  1.
<scales pt_clust_4="550.00000" pt_clust_5="550.00000" pt_clust_6="44.37285"></scales>
<mgrwt>
<rscale>  0 0.30000000E+03</rscale>
<asrwt>  1 0.44372851E+02</asrwt>
<pdfrwt beam="1">  1        1 0.86250857E+00 0.30000000E+03</pdfrwt>
<pdfrwt beam="2">0</pdfrwt>
<totfact> 0.29105776E-04</totfact>
</mgrwt>
<clustering>
<clus scale="   44.373">  1  6  2 -1</clus>
<clus scale="  464.244">  4  5 -1 -1</clus>
<clus scale="  300.000">  1  4  2 -1</clus>
</clustering>
</event>
<event>
 6    1  0.9678510E-012  0.3000000E+03  0.7818608E-02  0.1093470E+00
          1   -1    0    0  502    0  0.00000000000E+00  0.00000000000E+00  0.22270031536E+03  0.22270031536E+03  0.00000000000E+00 0.  1.
         13   -1    0    0    0    0 -0.00000000000E+00 -0.00000000000E+00 -0.27500000000E+03  0.27500000000E+03  0.00000000000E+00 0.  1.
    9000005    2    1    2  501    0  0.23918833767E+02  0.20695314351E+02 -0.68100908010E+02  0.46234376993E+03  0.45620567870E+03 0.  0.
         13    1    3    3    0    0  0.77843490290E+02 -0.20325871154E+03 -0.79468530751E+02  0.23170878312E+03  0.00000000000E+00 0.  1.
          3    1    3    3  501    0 -0.53924656523E+02  0.22395402589E+03  0.11367622741E+02  0.23063498681E+03  0.00000000000E+00 0.  1.
         21    1    1    2  502  501 -0.23918833767E+02 -0.20695314351E+02  0.15801223374E+02  0.35356545433E+02  0.00000000000E+00 0. -1.
<scales pt_clust_4="550.00000" pt_clust_5="550.00000" pt_clust_6="31.62921"></scales>
<mgrwt>
<rscale>  0 0.30000000E+03</rscale>
<asrwt>  1 0.31629206E+02</asrwt>
<pdfrwt beam="1">  1        1 0.80981933E+00 0.30000000E+03</pdfrwt>
<pdfrwt beam="2">0</pdfrwt>
<totfact> 0.89186814E-04</totfact>
</mgrwt>
<clustering>
<clus scale="   31.629">  1  6  2 -1</clus>
<clus scale="  456.206">  4  5 -1 -1</clus>
<clus scale="  300.000">  1  4  2 -1</clus>
</clustering>
</event>
<event>
 6    1  0.9678510E-012  0.3000000E+03  0.7818608E-02  0.1093470E+00
          1   -1    0    0  502    0  0.00000000000E+00  0.00000000000E+00  0.21699790929E+03  0.21699790929E+03  0.00000000000E+00 0.  1.
         13   -1    0    0    0    0 -0.00000000000E+00 -0.00000000000E+00 -0.27500000000E+03  0.27500000000E+03  0.00000000000E+00 0.  1.
    9000005    2    1    2  501    0  0.43810813257E+01  0.30018722818E+02 -0.54107406969E+02  0.46141219114E+03  0.45722344762E+03 0.  0.
         13    1    3    3    0    0  0.18380791752E+02 -0.16918641291E+03  0.11025345629E+03  0.20277504887E+03  0.00000000000E+00 0.  1.
          1    1    3    3  501    0 -0.13999710426E+02  0.19920513573E+03 -0.16436086326E+03  0.25863714228E+03  0.00000000000E+00 0.  1.
         21    1    1    2  502  501 -0.43810813257E+01 -0.30018722818E+02 -0.38946837405E+01  0.30585718148E+02  0.00000000000E+00 0.  1.
<scales pt_clust_4="550.00000" pt_clust_5="550.00000" pt_clust_6="30.33675"></scales>
<mgrwt>
<rscale>  0 0.30000000E+03</rscale>
<asrwt>  1 0.30336752E+02</asrwt>
<pdfrwt beam="1">  1        1 0.78908331E+00 0.30000000E+03</pdfrwt>
<pdfrwt beam="2">0</pdfrwt>
<totfact> 0.12884996E-03</totfact>
</mgrwt>
<clustering>
<clus scale="   30.337">  1  6  2 -1</clus>
<clus scale="  457.223">  4  5 -1 -1</clus>
<clus scale="  300.000">  1  4  2 -1</clus>
</clustering>
</event>
<event>
 6    1  0.9678510E-012  0.3000000E+03  0.7818608E-02  0.1093470E+00
          1   -1    0    0  502    0  0.00000000000E+00  0.00000000000E+00  0.24028497134E+03  0.24028497134E+03  0.00000000000E+00 0.  1.
         13   -1    0    0    0    0 -0.00000000000E+00 -0.00000000000E+00 -0.27500000000E+03  0.27500000000E+03  0.00000000000E+00 0.  1.
    9000005    2    1    2  501    0 -0.32817185072E+02 -0.22772209245E+00 -0.59164286178E+02  0.47436082582E+03  0.46951119350E+03 0.  0.
         13    1    3    3    0    0 -0.65821553413E+02  0.21664076935E+03 -0.10607548081E+03  0.25003541243E+03  0.00000000000E+00 0.  1.
          3    1    3    3  501    0  0.33004368341E+02 -0.21686849145E+03  0.46911194629E+02  0.22432541339E+03  0.00000000000E+00 0.  1.
         21    1    1    2  502  501  0.32817185072E+02  0.22772209245E+00  0.24449257520E+02  0.40924145522E+02  0.00000000000E+00 0.  1.
<scales pt_clust_4="550.00000" pt_clust_5="550.00000" pt_clust_6="32.81798"></scales>
<mgrwt>
<rscale>  0 0.30000000E+03</rscale>
<asrwt>  1 0.32817975E+02</asrwt>
<pdfrwt beam="1">  1        1 0.87376353E+00 0.30000000E+03</pdfrwt>
<pdfrwt beam="2">0</pdfrwt>
<totfact> 0.23455678E-04</totfact>
</mgrwt>
<clustering>
<clus scale="   32.818">  1  6  2 -1</clus>
<clus scale="  469.511">  4  5 -1 -1</clus>
<clus scale="  300.000">  1  4  2 -1</clus>
</clustering>
</event>
<event>
 6    1  0.9678510E-012  0.3000000E+03  0.7818608E-02  0.1093470E+00
          1   -1    0    0  502    0  0.00000000000E+00  0.00000000000E+00  0.25599697315E+03  0.25599697315E+03  0.00000000000E+00 0.  1.
         13   -1    0    0    0    0 -0.00000000000E+00 -0.00000000000E+00 -0.27500000000E+03  0.27500000000E+03  0.00000000000E+00 0.  1.
    9000005    2    1    2  501    0 -0.29353989606E+02 -0.11084641120E+02 -0.44688578138E+02  0.49044733049E+03  0.48739818321E+03 0.  0.
         13    1    3    3    0    0 -0.17177761234E+03  0.61474538455E+02 -0.19780780076E+03  0.26909959685E+03  0.00000000000E+00 0.  1.
          1    1    3    3  501    0  0.14242362274E+03 -0.72559179575E+02  0.15311922262E+03  0.22134773365E+03  0.00000000000E+00 0.  1.
         21    1    1    2  502  501  0.29353989606E+02  0.11084641120E+02  0.25685551290E+02  0.40549642657E+02  0.00000000000E+00 0.  1.
<scales pt_clust_4="550.00000" pt_clust_5="550.00000" pt_clust_6="31.37716"></scales>
<mgrwt>
<rscale>  0 0.30000000E+03</rscale>
<asrwt>  1 0.31377157E+02</asrwt>
<pdfrwt beam="1">  1        1 0.93089808E+00 0.30000000E+03</pdfrwt>
<pdfrwt beam="2">0</pdfrwt>
<totfact> 0.26003475E-05</totfact>
</mgrwt>
<clustering>
<clus scale="   31.377">  1  6  2 -1</clus>
<clus scale="  487.398">  4  5 -1 -1</clus>
<clus scale="  300.000">  1  4  2 -1</clus>
</clustering>
</event>
<event>
 6    1  0.9678510E-012  0.3000000E+03  0.7818608E-02  0.1093470E+00
          1   -1    0    0  502    0  0.00000000000E+00  0.00000000000E+00  0.25778690036E+03  0.25778690036E+03  0.00000000000E+00 0.  1.
         13   -1    0    0    0    0 -0.00000000000E+00 -0.00000000000E+00 -0.27500000000E+03  0.27500000000E+03  0.00000000000E+00 0.  1.
    9000005    2    1    2  501    0  0.22724345357E+02 -0.36547874212E+02  0.10182429740E+02  0.48177064794E+03  0.47973652389E+03 0.  0.
         13    1    3    3    0    0  0.91639792935E+02  0.20390127850E+03  0.48428639475E+02  0.22873328604E+03  0.00000000000E+00 0.  1.
          1    1    3    3  501    0 -0.68915447578E+02 -0.24044915271E+03 -0.38246209735E+02  0.25303736189E+03  0.00000000000E+00 0.  1.
         21    1    1    2  502  501 -0.22724345357E+02  0.36547874212E+02 -0.27395529380E+02  0.51016252424E+02  0.00000000000E+00 0. -1.
<scales pt_clust_4="550.00000" pt_clust_5="550.00000" pt_clust_6="43.03655"></scales>
<mgrwt>
<rscale>  0 0.30000000E+03</rscale>
<asrwt>  1 0.43036552E+02</asrwt>
<pdfrwt beam="1">  1        1 0.93740691E+00 0.30000000E+03</pdfrwt>
<pdfrwt beam="2">0</pdfrwt>
<totfact> 0.20220620E-05</totfact>
</mgrwt>
<clustering>
<clus scale="   43.037">  1  6  2 -1</clus>
<clus scale="  479.737">  4  5 -1 -1</clus>
<clus scale="  300.000">  1  4  2 -1</clus>
</clustering>
</event>
<event>
 6    1  0.9678510E-012  0.3000000E+03  0.7818608E-02  0.1093470E+00
          1   -1    0    0  502    0  0.00000000000E+00  0.00000000000E+00  0.23073008011E+03  0.23073008011E+03  0.00000000000E+00 0.  1.
         13   -1    0    0    0    0 -0.00000000000E+00 -0.00000000000E+00 -0.27500000000E+03  0.27500000000E+03  0.00000000000E+00 0.  1.
    9000005    2    1    2  501    0 -0.38805573442E+02 -0.14473815783E+02 -0.52216603771E+02  0.46355765241E+03  0.45874149531E+03 0.  0.
         13    1    3    3    0    0 -0.11157794685E+03  0.20143757224E+03 -0.21944940607E+01  0.23028579969E+03  0.00000000000E+00 0.  1.
          3    1    3    3  501    0  0.72772373404E+02 -0.21591138803E+03 -0.50022109710E+02  0.23327185272E+03  0.00000000000E+00 0.  1.
         21    1    1    2  502  501  0.38805573442E+02  0.14473815783E+02  0.79466838764E+01  0.42172427700E+02  0.00000000000E+00 0.  1.
<scales pt_clust_4="550.00000" pt_clust_5="550.00000" pt_clust_6="41.41695"></scales>
<mgrwt>
<rscale>  0 0.30000000E+03</rscale>
<asrwt>  1 0.41416952E+02</asrwt>
<pdfrwt beam="1">  1        1 0.83901847E+00 0.30000000E+03</pdfrwt>
<pdfrwt beam="2">0</pdfrwt>
<totfact> 0.49018352E-04</totfact>
</mgrwt>
<clustering>
<clus scale="   41.417">  1  6  2 -1</clus>
<clus scale="  458.741">  4  5 -1 -1</clus>
<clus scale="  300.000">  1  4  2 -1</clus>
</clustering>
</event>
<event>
 6    1  0.9678510E-012  0.3000000E+03  0.7818608E-02  0.1093470E+00
          1   -1    0    0  502    0  0.00000000000E+00  0.00000000000E+00  0.24532681490E+03  0.24532681490E+03  0.00000000000E+00 0.  1.
         13   -1    0    0    0    0 -0.00000000000E+00 -0.00000000000E+00 -0.27500000000E+03  0.27500000000E+03  0.00000000000E+00 0.  1.
    9000005    2    1    2  501    0 -0.31801630139E+02  0.28537444805E+02 -0.64620943197E+02  0.46512649578E+03  0.45862954695E+03 0.  0.
         13    1    3    3    0    0  0.19139233159E+03 -0.77433337771E+02  0.10952729251E+02  0.20675325552E+03  0.00000000000E+00 0.  1.
          1    1    3    3  501    0 -0.22319396173E+03  0.10597078258E+03 -0.75573672448E+02  0.25837324026E+03  0.00000000000E+00 0.  1.
         21    1    1    2  502  501  0.31801630139E+02 -0.28537444805E+02  0.34947758101E+02  0.55200319127E+02  0.00000000000E+00 0. -1.
<scales pt_clust_4="550.00000" pt_clust_5="550.00000" pt_clust_6="42.72856"></scales>
<mgrwt>
<rscale>  0 0.30000000E+03</rscale>
<asrwt>  1 0.42728555E+02</asrwt>
<pdfrwt beam="1">  1        1 0.89209751E+00 0.30000000E+03</pdfrwt>
<pdfrwt beam="2">0</pdfrwt>
<totfact> 0.13137573E-04</totfact>
</mgrwt>
<clustering>
<clus scale="   42.729">  1  6  2 -1</clus>
<clus scale="  458.630">  4  5 -1 -1</clus>
<clus scale="  300.000">  1  4  2 -1</clus>
</clustering>
</event>
<event>
 6    1  0.9678510E-012  0.3000000E+03  0.7818608E-02  0.1093470E+00
          1   -1    0    0  502    0  0.00000000000E+00  0.00000000000E+00  0.24590826702E+03  0.24590826702E+03  0.00000000000E+00 0.  1.
         13   -1    0    0    0    0 -0.00000000000E+00 -0.00000000000E+00 -0.27500000000E+03  0.27500000000E+03  0.00000000000E+00 0.  1.
    9000005    2    1    2  501    0  0.35810169992E+02 -0.20070922969E+02 -0.60692495283E+02  0.46910268429E+03  0.46334494624E+03 0.  0.
         13    1    3    3    0    0 -0.18007302220E+03  0.98607196899E+02 -0.83629960217E+02  0.22168365490E+03  0.00000000000E+00 0.  1.
          1    1    3    3  501    0  0.21588319219E+03 -0.11867811987E+03  0.22937464934E+02  0.24741902939E+03  0.00000000000E+00 0.  1.
         21    1    1    2  502  501 -0.35810169992E+02  0.20070922969E+02  0.31600762306E+02  0.51805582730E+02  0.00000000000E+00 0. -1.
<scales pt_clust_4="550.00000" pt_clust_5="550.00000" pt_clust_6="41.05131"></scales>
<mgrwt>
<rscale>  0 0.30000000E+03</rscale>
<asrwt>  1 0.41051312E+02</asrwt>
<pdfrwt beam="1">  1        1 0.89421188E+00 0.30000000E+03</pdfrwt>
<pdfrwt beam="2">0</pdfrwt>
<totfact> 0.12497511E-04</totfact>
</mgrwt>
<clustering>
<clus scale="   41.051">  1  6  2 -1</clus>
<clus scale="  463.345">  4  5 -1 -1</clus>
<clus scale="  300.000">  1  4  2 -1</clus>
</clustering>
</event>
<event>
 6    1  0.9678510E-012  0.3000000E+03  0.7818608E-02  0.1093470E+00
          1   -1    0    0  502    0  0.00000000000E+00  0.00000000000E+00  0.24401983219E+03  0.24401983219E+03  0.00000000000E+00 0.  1.
         13   -1    0    0    0    0 -0.00000000000E+00 -0.00000000000E+00 -0.27500000000E+03  0.27500000000E+03  0.00000000000E+00 0.  1.
    9000005    2    1    2  501    0 -0.13824877593E+02  0.28849324704E+02 -0.60031661482E+02  0.47580640765E+03  0.47091881084E+03 0.  0.
         13    1    3    3    0    0  0.18169296782E+03  0.82828276585E+02 -0.15409322144E+03  0.25222525419E+03  0.00000000000E+00 0.  1.
          1    1    3    3  501    0 -0.19551784541E+03 -0.53978951881E+02  0.94061559955E+02  0.22358115346E+03  0.00000000000E+00 0.  1.
         21    1    1    2  502  501  0.13824877593E+02 -0.28849324704E+02  0.29051493673E+02  0.43213424546E+02  0.00000000000E+00 0.  1.
<scales pt_clust_4="550.00000" pt_clust_5="550.00000" pt_clust_6="31.99079"></scales>
<mgrwt>
<rscale>  0 0.30000000E+03</rscale>
<asrwt>  1 0.31990792E+02</asrwt>
<pdfrwt beam="1">  1        1 0.88734484E+00 0.30000000E+03</pdfrwt>
<pdfrwt beam="2">0</pdfrwt>
<totfact> 0.16022877E-04</totfact>
</mgrwt>
<clustering>
<clus scale="   31.991">  1  6  2 -1</clus>
<clus scale="  470.919">  4  5 -1 -1</clus>
<clus scale="  300.000">  1  4  2 -1</clus>
</clustering>
</event>
<event>
 6    1  0.9678510E-012  0.3000000E+03  0.7818608E-02  0.1093470E+00
          1   -1    0    0  502    0  0.00000000000E+00  0.00000000000E+00  0.22464192394E+03  0.22464192394E+03  0.00000000000E+00 0.  1.
         13   -1    0    0    0    0 -0.00000000000E+00 -0.00000000000E+00 -0.27500000000E+03  0.27500000000E+03  0.00000000000E+00 0.  1.
    9000005    2    1    2  501    0  0.22757771574E+02  0.25796752484E+02 -0.56431453880E+02  0.46470949597E+03  0.45998588897E+03 0.  0.
         13    1    3    3    0    0 -0.13936779073E+03 -0.95399779432E+02  0.11092898582E+03  0.20206370012E+03  0.00000000000E+00 0.  1.
          1    1    3    3  501    0  0.16212556231E+03  0.12119653192E+03 -0.16736043970E+03  0.26264579585E+03  0.00000000000E+00 0.  1.
         21    1    1    2  502  501 -0.22757771574E+02 -0.25796752484E+02  0.60733778208E+01  0.34932427970E+02  0.00000000000E+00 0.  1.
<scales pt_clust_4="550.00000" pt_clust_5="550.00000" pt_clust_6="34.40042"></scales>
<mgrwt>
<rscale>  0 0.30000000E+03</rscale>
<asrwt>  1 0.34400416E+02</asrwt>
<pdfrwt beam="1">  1        1 0.81687972E+00 0.30000000E+03</pdfrwt>
<pdfrwt beam="2">0</pdfrwt>
<totfact> 0.77094050E-04</totfact>
</mgrwt>
<clustering>
<clus scale="   34.400">  1  6  2 -1</clus>
<clus scale="  459.986">  4  5 -1 -1</clus>
<clus scale="  300.000">  1  4  2 -1</clus>
</clustering>
</event>
<event>
 6    1  0.9678510E-012  0.3000000E+03  0.7818608E-02  0.1093470E+00
          1   -1    0    0  502    0  0.00000000000E+00  0.00000000000E+00  0.23146451123E+03  0.23146451123E+03  0.00000000000E+00 0.  1.
         13   -1    0    0    0    0 -0.00000000000E+00 -0.00000000000E+00 -0.27500000000E+03  0.27500000000E+03  0.00000000000E+00 0.  1.
    9000005    2    1    2  501    0 -0.42179896800E+02  0.13909457524E+02 -0.26939402483E+02  0.45905093952E+03  0.45610241938E+03 0.  0.
         13    1    3    3    0    0  0.16461217047E+03 -0.88814410095E+02  0.81410701569E+02  0.20399232446E+03  0.00000000000E+00 0.  1.
          3    1    3    3  501    0 -0.20679206727E+03  0.10272386762E+03 -0.10835010405E+03  0.25505861506E+03  0.00000000000E+00 0.  1.
         21    1    1    2  502  501  0.42179896800E+02 -0.13909457524E+02 -0.16596086285E+02  0.47413571714E+02  0.00000000000E+00 0. -1.
<scales pt_clust_4="550.00000" pt_clust_5="550.00000" pt_clust_6="44.41417"></scales>
<mgrwt>
<rscale>  0 0.30000000E+03</rscale>
<asrwt>  1 0.44414172E+02</asrwt>
<pdfrwt beam="1">  1        1 0.84168913E+00 0.30000000E+03</pdfrwt>
<pdfrwt beam="2">0</pdfrwt>
<totfact> 0.46143547E-04</totfact>
</mgrwt>
<clustering>
<clus scale="   44.414">  1  6  2 -1</clus>
<clus scale="  456.102">  4  5 -1 -1</clus>
<clus scale="  300.000">  1  4  2 -1</clus>
</clustering>
</event>
<event>
 6    1  0.9678510E-012  0.3000000E+03  0.7818608E-02  0.1093470E+00
          1   -1    0    0  502    0  0.00000000000E+00  0.00000000000E+00  0.22143704127E+03  0.22143704127E+03  0.00000000000E+00 0.  1.
         13   -1    0    0    0    0 -0.00000000000E+00 -0.00000000000E+00 -0.27500000000E+03  0.27500000000E+03  0.00000000000E+00 0.  1.
    9000005    2    1    2  501    0  0.19663931545E+02  0.23428110624E+02 -0.61416946088E+02  0.46485806585E+03  0.45976671644E+03 0.  0.
         13    1    3    3    0    0  0.13190625810E+03 -0.18308329132E+03 -0.25541772947E+02  0.22709278864E+03  0.00000000000E+00 0.  1.
          1    1    3    3  501    0 -0.11224232655E+03  0.20651140194E+03 -0.35875173141E+02  0.23776527722E+03  0.00000000000E+00 0.  1.
         21    1    1    2  502  501 -0.19663931545E+02 -0.23428110624E+02  0.78539873624E+01  0.31578975422E+02  0.00000000000E+00 0.  1.
<scales pt_clust_4="550.00000" pt_clust_5="550.00000" pt_clust_6="30.58671"></scales>
<mgrwt>
<rscale>  0 0.30000000E+03</rscale>
<asrwt>  1 0.30586706E+02</asrwt>
<pdfrwt beam="1">  1        1 0.80522560E+00 0.30000000E+03</pdfrwt>
<pdfrwt beam="2">0</pdfrwt>
<totfact> 0.97374633E-04</totfact>
</mgrwt>
<clustering>
<clus scale="   30.587">  1  6  2 -1</clus>
<clus scale="  459.767">  4  5 -1 -1</clus>
<clus scale="  300.000">  1  4  2 -1</clus>
</clustering>
</event>
<event>
 6    1  0.9678510E-012  0.3000000E+03  0.7818608E-02  0.1093470E+00
          1   -1    0    0  502    0  0.00000000000E+00  0.00000000000E+00  0.22103185632E+03  0.22103185632E+03  0.00000000000E+00 0.  1.
         13   -1    0    0    0    0 -0.00000000000E+00 -0.00000000000E+00 -0.27500000000E+03  0.27500000000E+03  0.00000000000E+00 0.  1.
    9000005    2    1    2  501    0 -0.31853882729E+02 -0.79775518285E+01 -0.53119988167E+02  0.46318325595E+03  0.45895390212E+03 0.  0.
         13    1    3    3    0    0 -0.23061783644E+03 -0.54609604867E+02 -0.94023652594E+02  0.25496517934E+03  0.00000000000E+00 0.  1.
          1    1    3    3  501    0  0.19876395371E+03  0.46632053038E+02  0.40903664427E+02  0.20821807661E+03  0.00000000000E+00 0.  1.
         21    1    1    2  502  501  0.31853882729E+02  0.79775518285E+01 -0.84815551503E+00  0.32848600364E+02  0.00000000000E+00 0.  1.
<scales pt_clust_4="550.00000" pt_clust_5="550.00000" pt_clust_6="32.83765"></scales>
<mgrwt>
<rscale>  0 0.30000000E+03</rscale>
<asrwt>  1 0.32837649E+02</asrwt>
<pdfrwt beam="1">  1        1 0.80375220E+00 0.30000000E+03</pdfrwt>
<pdfrwt beam="2">0</pdfrwt>
<totfact> 0.98542753E-04</totfact>
</mgrwt>
<clustering>
<clus scale="   32.838">  1  6  2 -1</clus>
<clus scale="  458.954">  4  5 -1 -1</clus>
<clus scale="  300.000">  1  4  2 -1</clus>
</clustering>
</event>
<event>
 6    1  0.9678510E-012  0.3000000E+03  0.7818608E-02  0.1093470E+00
          1   -1    0    0  502    0  0.00000000000E+00  0.00000000000E+00  0.23959107308E+03  0.23959107308E+03  0.00000000000E+00 0.  1.
         13   -1    0    0    0    0 -0.00000000000E+00 -0.00000000000E+00 -0.27500000000E+03  0.27500000000E+03  0.00000000000E+00 0.  1.
    9000005    2    1    2  501    0  0.10580193439E+02 -0.29774838823E+02 -0.74061039045E+02  0.46466645699E+03  0.45763675249E+03 0.  0.
         13    1    3    3    0    0 -0.17960421820E+03 -0.93735380644E+02 -0.14792615804E+03  0.25085084216E+03  0.00000000000E+00 0.  1.
          3    1    3    3  501    0  0.19018441164E+03  0.63960541821E+02  0.73865118998E+02  0.21381561483E+03  0.00000000000E+00 0.  1.
         21    1    1    2  502  501 -0.10580193439E+02  0.29774838823E+02  0.38652112120E+02  0.49924616088E+02  0.00000000000E+00 0.  1.
<scales pt_clust_4="550.00000" pt_clust_5="550.00000" pt_clust_6="31.59876"></scales>
<mgrwt>
<rscale>  0 0.30000000E+03</rscale>
<asrwt>  1 0.31598758E+02</asrwt>
<pdfrwt beam="1">  1        1 0.87124027E+00 0.30000000E+03</pdfrwt>
<pdfrwt beam="2">0</pdfrwt>
<totfact> 0.25076695E-04</totfact>
</mgrwt>
<clustering>
<clus scale="   31.599">  1  6  2 -1</clus>
<clus scale="  457.637">  4  5 -1 -1</clus>
<clus scale="  300.000">  1  4  2 -1</clus>
</clustering>
</event>
<event>
 6    1  0.9678510E-012  0.3000000E+03  0.7818608E-02  0.1093470E+00
          1   -1    0    0  502    0  0.00000000000E+00  0.00000000000E+00  0.25184287955E+03  0.25184287955E+03  0.00000000000E+00 0.  1.
         13   -1    0    0    0    0 -0.00000000000E+00 -0.00000000000E+00 -0.27500000000E+03  0.27500000000E+03  0.00000000000E+00 0.  1.
    9000005    2    1    2  501    0  0.32421083937E+02  0.53128487704E+01 -0.35514371159E+02  0.49174224294E+03  0.48935652635E+03 0.  0.
         13    1    3    3    0    0 -0.81142686701E+02  0.10103277762E+03 -0.21974015604E+03  0.25510290852E+03  0.00000000000E+00 0.  1.
          1    1    3    3  501    0  0.11356377064E+03 -0.95719928847E+02  0.18422578488E+03  0.23663933442E+03  0.00000000000E+00 0.  1.
         21    1    1    2  502  501 -0.32421083937E+02 -0.53128487704E+01  0.12357250710E+02  0.35100636616E+02  0.00000000000E+00 0.  1.
<scales pt_clust_4="550.00000" pt_clust_5="550.00000" pt_clust_6="32.85351"></scales>
<mgrwt>
<rscale>  0 0.30000000E+03</rscale>
<asrwt>  1 0.32853509E+02</asrwt>
<pdfrwt beam="1">  1        1 0.91579229E+00 0.30000000E+03</pdfrwt>
<pdfrwt beam="2">0</pdfrwt>
<totfact> 0.52531939E-05</totfact>
</mgrwt>
<clustering>
<clus scale="   32.854">  1  6  2 -1</clus>
<clus scale="  489.357">  4  5 -1 -1</clus>
<clus scale="  300.000">  1  4  2 -1</clus>
</clustering>
</event>
<event>
 6    1  0.9678510E-012  0.3000000E+03  0.7818608E-02  0.1093470E+00
          1   -1    0    0  502    0  0.00000000000E+00  0.00000000000E+00  0.23120959182E+03  0.23120959182E+03  0.00000000000E+00 0.  1.
         13   -1    0    0    0    0 -0.00000000000E+00 -0.00000000000E+00 -0.27500000000E+03  0.27500000000E+03  0.00000000000E+00 0.  1.
    9000005    2    1    2  501    0 -0.17372404522E+02 -0.33922388036E+02 -0.58546411512E+02  0.46534067352E+03  0.46006709432E+03 0.  0.
         13    1    3    3    0    0 -0.86797321964E+02  0.19759329951E+03 -0.58633157180E+02  0.22363974206E+03  0.00000000000E+00 0.  1.
          3    1    3    3  501    0  0.69424917442E+02 -0.23151568754E+03  0.86745668590E-01  0.24170093145E+03  0.00000000000E+00 0.  1.
         21    1    1    2  502  501  0.17372404522E+02  0.33922388036E+02  0.14756003329E+02  0.40868918302E+02  0.00000000000E+00 0. -1.
<scales pt_clust_4="550.00000" pt_clust_5="550.00000" pt_clust_6="38.11206"></scales>
<mgrwt>
<rscale>  0 0.30000000E+03</rscale>
<asrwt>  1 0.38112056E+02</asrwt>
<pdfrwt beam="1">  1        1 0.84076215E+00 0.30000000E+03</pdfrwt>
<pdfrwt beam="2">0</pdfrwt>
<totfact> 0.48262132E-04</totfact>
</mgrwt>
<clustering>
<clus scale="   38.112">  1  6  2 -1</clus>
<clus scale="  460.067">  4  5 -1 -1</clus>
<clus scale="  300.000">  1  4  2 -1</clus>
</clustering>
</event>
<event>
 6    1  0.9678510E-012  0.3000000E+03  0.7818608E-02  0.1093470E+00
          1   -1    0    0  502    0  0.00000000000E+00  0.00000000000E+00  0.24014129807E+03  0.24014129807E+03  0.00000000000E+00 0.  1.
         13   -1    0    0    0    0 -0.00000000000E+00 -0.00000000000E+00 -0.27500000000E+03  0.27500000000E+03  0.00000000000E+00 0.  1.
    9000005    2    1    2  501    0 -0.16277907530E+02  0.32515804106E+02 -0.54604177729E+02  0.47376338603E+03  0.46919919217E+03 0.  0.
         13    1    3    3    0    0  0.17099132426E+03  0.16752560755E+03 -0.18486904991E+02  0.24009295660E+03  0.00000000000E+00 0.  1.
          1    1    3    3  501    0 -0.18726923179E+03 -0.13500980344E+03 -0.36117272738E+02  0.23367042943E+03  0.00000000000E+00 0.  1.
         21    1    1    2  502  501  0.16277907530E+02 -0.32515804106E+02  0.19745475803E+02  0.41377912041E+02  0.00000000000E+00 0.  1.
<scales pt_clust_4="550.00000" pt_clust_5="550.00000" pt_clust_6="36.36273"></scales>
<mgrwt>
<rscale>  0 0.30000000E+03</rscale>
<asrwt>  1 0.36362725E+02</asrwt>
<pdfrwt beam="1">  1        1 0.87324108E+00 0.30000000E+03</pdfrwt>
<pdfrwt beam="2">0</pdfrwt>
<totfact> 0.23297013E-04</totfact>
</mgrwt>
<clustering>
<clus scale="   36.363">  1  6  2 -1</clus>
<clus scale="  469.199">  4  5 -1 -1</clus>
<clus scale="  300.000">  1  4  2 -1</clus>
</clustering>
</event>
<event>
 6    1  0.9678510E-012  0.3000000E+03  0.7818608E-02  0.1093470E+00
          1   -1    0    0  502    0  0.00000000000E+00  0.00000000000E+00  0.23223320184E+03  0.23223320184E+03  0.00000000000E+00 0.  1.
         13   -1    0    0    0    0 -0.00000000000E+00 -0.00000000000E+00 -0.27500000000E+03  0.27500000000E+03  0.00000000000E+00 0.  1.
    9000005    2    1    2  501    0  0.30314254926E+02  0.98868310813E+01 -0.45746262047E+02  0.47520851315E+03  0.47192553120E+03 0.  0.
         13    1    3    3    0    0 -0.18434920487E+03  0.46639045560E+02 -0.14177348997E+03  0.23719096181E+03  0.00000000000E+00 0.  1.
          3    1    3    3  501    0  0.21466345980E+03 -0.36752214479E+02  0.96027227924E+02  0.23801755134E+03  0.00000000000E+00 0.  1.
         21    1    1    2  502  501 -0.30314254926E+02 -0.98868310813E+01  0.29794638878E+01  0.32024688689E+02  0.00000000000E+00 0. -1.
<scales pt_clust_4="550.00000" pt_clust_5="550.00000" pt_clust_6="31.88579"></scales>
<mgrwt>
<rscale>  0 0.30000000E+03</rscale>
<asrwt>  1 0.31885788E+02</asrwt>
<pdfrwt beam="1">  1        1 0.84448437E+00 0.30000000E+03</pdfrwt>
<pdfrwt beam="2">0</pdfrwt>
<totfact> 0.46461172E-04</totfact>
</mgrwt>
<clustering>
<clus scale="   31.886">  1  6  2 -1</clus>
<clus scale="  471.926">  4  5 -1 -1</clus>
<clus scale="  300.000">  1  4  2 -1</clus>
</clustering>
</event>
<event>
 6    1  0.9678510E-012  0.3000000E+03  0.7818608E-02  0.1093470E+00
          1   -1    0    0  502    0  0.00000000000E+00  0.00000000000E+00  0.23581550741E+03  0.23581550741E+03  0.00000000000E+00 0.  1.
         13   -1    0    0    0    0 -0.00000000000E+00 -0.00000000000E+00 -0.27500000000E+03  0.27500000000E+03  0.00000000000E+00 0.  1.
    9000005    2    1    2  501    0 -0.11490595030E+02 -0.38923371340E+02 -0.57470039249E+02  0.46630232029E+03  0.46096419155E+03 0.  0.
         13    1    3    3    0    0 -0.14471401174E+03 -0.52455529795E+02 -0.21189560407E+03  0.26190356016E+03  0.00000000000E+00 0.  1.
          1    1    3    3  501    0  0.13322341671E+03  0.13532158455E+02  0.15442556482E+03  0.20439876013E+03  0.00000000000E+00 0.  1.
         21    1    1    2  502  501  0.11490595030E+02  0.38923371340E+02  0.18285546657E+02  0.44513187115E+02  0.00000000000E+00 0.  1.
<scales pt_clust_4="550.00000" pt_clust_5="550.00000" pt_clust_6="40.58402"></scales>
<mgrwt>
<rscale>  0 0.30000000E+03</rscale>
<asrwt>  1 0.40584019E+02</asrwt>
<pdfrwt beam="1">  1        1 0.85751094E+00 0.30000000E+03</pdfrwt>
<pdfrwt beam="2">0</pdfrwt>
<totfact> 0.33432092E-04</totfact>
</mgrwt>
<clustering>
<clus scale="   40.584">  1  6  2 -1</clus>
<clus scale="  460.964">  4  5 -1 -1</clus>
<clus scale="  300.000">  1  4  2 -1</clus>
</clustering>
</event>
<event>
 6    1  0.9678510E-012  0.3000000E+03  0.7818608E-02  0.1093470E+00
          1   -1    0    0  502    0  0.00000000000E+00  0.00000000000E+00  0.22426544352E+03  0.22426544352E+03  0.00000000000E+00 0.  1.
         13   -1    0    0    0    0 -0.00000000000E+00 -0.00000000000E+00 -0.27500000000E+03  0.27500000000E+03  0.00000000000E+00 0.  1.
    9000005    2    1    2  501    0  0.13668036737E+02 -0.28429634108E+02 -0.30565396826E+02  0.46182409840E+03  0.45973056789E+03 0.  0.
         13    1    3    3    0    0 -0.20672441900E+03 -0.27751210828E+02  0.69396883454E+02  0.21982047800E+03  0.00000000000E+00 0.  1.
          1    1    3    3  501    0  0.22039245574E+03 -0.67842327987E+00 -0.99962280280E+02  0.24200362040E+03  0.00000000000E+00 0.  1.
         21    1    1    2  502  501 -0.13668036737E+02  0.28429634108E+02 -0.20169159652E+02  0.37441345126E+02  0.00000000000E+00 0.  1.
<scales pt_clust_4="550.00000" pt_clust_5="550.00000" pt_clust_6="31.54458"></scales>
<mgrwt>
<rscale>  0 0.30000000E+03</rscale>
<asrwt>  1 0.31544577E+02</asrwt>
<pdfrwt beam="1">  1        1 0.81551070E+00 0.30000000E+03</pdfrwt>
<pdfrwt beam="2">0</pdfrwt>
<totfact> 0.80412629E-04</totfact>
</mgrwt>
<clustering>
<clus scale="   31.545">  1  6  2 -1</clus>
<clus scale="  459.731">  4  5 -1 -1</clus>
<clus scale="  300.000">  1  4  2 -1</clus>
</clustering>
</event>
<event>
 6    1  0.9678510E-012  0.3000000E+03  0.7818608E-02  0.1093470E+00
          1   -1    0    0  502    0  0.00000000000E+00  0.00000000000E+00  0.24070811962E+03  0.24070811962E+03  0.00000000000E+00 0.  1.
         13   -1    0    0    0    0 -0.00000000000E+00 -0.00000000000E+00 -0.27500000000E+03  0.27500000000E+03  0.00000000000E+00 0.  1.
    9000005    2    1    2  501    0 -0.36620171396E+02 -0.47655431039E+01 -0.44855242779E+02  0.47729806912E+03  0.47374856899E+03 0.  0.
         13    1    3    3    0    0  0.87994527440E+01  0.65077677619E+02 -0.24862662442E+03  0.25715313115E+03  0.00000000000E+00 0.  1.
          1    1    3    3  501    0 -0.45419624140E+02 -0.69843220723E+02  0.20377138164E+03  0.22014493797E+03  0.00000000000E+00 0.  1.
         21    1    1    2  502  501  0.36620171396E+02  0.47655431039E+01  0.10563362394E+02  0.38410050498E+02  0.00000000000E+00 0.  1.
<scales pt_clust_4="550.00000" pt_clust_5="550.00000" pt_clust_6="36.92895"></scales>
<mgrwt>
<rscale>  0 0.30000000E+03</rscale>
<asrwt>  1 0.36928950E+02</asrwt>
<pdfrwt beam="1">  1        1 0.87530225E+00 0.30000000E+03</pdfrwt>
<pdfrwt beam="2">0</pdfrwt>
<totfact> 0.22105368E-04</totfact>
</mgrwt>
<clustering>
<clus scale="   36.929">  1  6  2 -1</clus>
<clus scale="  473.749">  4  5 -1 -1</clus>
<clus scale="  300.000">  1  4  2 -1</clus>
</clustering>
</event>
<event>
 6    1  0.9678510E-012  0.3000000E+03  0.7818608E-02  0.1093470E+00
          1   -1    0    0  502    0  0.00000000000E+00  0.00000000000E+00  0.22957987051E+03  0.22957987051E+03  0.00000000000E+00 0.  1.
         13   -1    0    0    0    0 -0.00000000000E+00 -0.00000000000E+00 -0.27500000000E+03  0.27500000000E+03  0.00000000000E+00 0.  1.
    9000005    2    1    2  501    0  0.94404825165E+01 -0.32146262671E+02 -0.34277077274E+02  0.46927162039E+03  0.46681734197E+03 0.  0.
         13    1    3    3    0    0  0.27948884469E+02 -0.58965562105E+02  0.21150318751E+03  0.22134063338E+03  0.00000000000E+00 0.  1.
          1    1    3    3  501    0 -0.18508401952E+02  0.26819299433E+02 -0.24578026478E+03  0.24793098701E+03  0.00000000000E+00 0.  1.
         21    1    1    2  502  501 -0.94404825165E+01  0.32146262671E+02 -0.11143052218E+02  0.35308250121E+02  0.00000000000E+00 0.  1.
<scales pt_clust_4="550.00000" pt_clust_5="550.00000" pt_clust_6="33.50382"></scales>
<mgrwt>
<rscale>  0 0.30000000E+03</rscale>
<asrwt>  1 0.33503821E+02</asrwt>
<pdfrwt beam="1">  1        1 0.83483589E+00 0.30000000E+03</pdfrwt>
<pdfrwt beam="2">0</pdfrwt>
<totfact> 0.54695452E-04</totfact>
</mgrwt>
<clustering>
<clus scale="   33.504">  1  6  2 -1</clus>
<clus scale="  466.817">  4  5 -1 -1</clus>
<clus scale="  300.000">  1  4  2 -1</clus>
</clustering>
</event>
<event>
 6    1  0.9678510E-012  0.3000000E+03  0.7818608E-02  0.1093470E+00
          1   -1    0    0  502    0  0.00000000000E+00  0.00000000000E+00  0.26124969174E+03  0.26124969174E+03  0.00000000000E+00 0.  1.
         13   -1    0    0    0    0 -0.00000000000E+00 -0.00000000000E+00 -0.27500000000E+03  0.27500000000E+03  0.00000000000E+00 0.  1.
    9000005    2    1    2  501    0  0.34122994878E+02  0.11972537775E+01 -0.23164818584E+02  0.50083154384E+03  0.49912905574E+03 0.  0.
         13    1    3    3    0    0  0.44450218509E+02  0.24866187227E+03 -0.13429664727E+02  0.25296028254E+03  0.00000000000E+00 0.  1.
          3    1    3    3  501    0 -0.10327223631E+02 -0.24746461850E+03 -0.97351538565E+01  0.24787126130E+03  0.00000000000E+00 0.  1.
         21    1    1    2  502  501 -0.34122994878E+02 -0.11972537775E+01  0.94145103199E+01  0.35418147899E+02  0.00000000000E+00 0. -1.
<scales pt_clust_4="550.00000" pt_clust_5="550.00000" pt_clust_6="34.14399"></scales>
<mgrwt>
<rscale>  0 0.30000000E+03</rscale>
<asrwt>  1 0.34143992E+02</asrwt>
<pdfrwt beam="1">  1        1 0.94999888E+00 0.30000000E+03</pdfrwt>
<pdfrwt beam="2">0</pdfrwt>
<totfact> 0.12394272E-05</totfact>
</mgrwt>
<clustering>
<clus scale="   34.144">  1  6  2 -1</clus>
<clus scale="  499.129">  4  5 -1 -1</clus>
<clus scale="  300.000">  1  4  2 -1</clus>
</clustering>
</event>
<event>
 6    1  0.9678510E-012  0.3000000E+03  0.7818608E-02  0.1093470E+00
          1   -1    0    0  502    0  0.00000000000E+00  0.00000000000E+00  0.24316427626E+03  0.24316427626E+03  0.00000000000E+00 0.  1.
         13   -1    0    0    0    0 -0.00000000000E+00 -0.00000000000E+00 -0.27500000000E+03  0.27500000000E+03  0.00000000000E+00 0.  1.
    9000005    2    1    2  501    0  0.16982981832E+02  0.31073236107E+02 -0.37856386546E+02  0.48224469866E+03  0.47945059778E+03 0.  0.
         13    1    3    3    0    0  0.46490877768E+02  0.19083780822E+03 -0.17996417173E+03  0.26639739839E+03  0.00000000000E+00 0.  1.
          3    1    3    3  501    0 -0.29507895936E+02 -0.15976457212E+03  0.14210778518E+03  0.21584730027E+03  0.00000000000E+00 0.  1.
         21    1    1    2  502  501 -0.16982981832E+02 -0.31073236107E+02  0.60206628017E+01  0.35919577595E+02  0.00000000000E+00 0.  1.
<scales pt_clust_4="550.00000" pt_clust_5="550.00000" pt_clust_6="35.41141"></scales>
<mgrwt>
<rscale>  0 0.30000000E+03</rscale>
<asrwt>  1 0.35411406E+02</asrwt>
<pdfrwt beam="1">  1        1 0.88423373E+00 0.30000000E+03</pdfrwt>
<pdfrwt beam="2">0</pdfrwt>
<totfact> 0.17346338E-04</totfact>
</mgrwt>
<clustering>
<clus scale="   35.411">  1  6  2 -1</clus>
<clus scale="  479.451">  4  5 -1 -1</clus>
<clus scale="  300.000">  1  4  2 -1</clus>
</clustering>
</event>
<event>
 6    1  0.9678510E-012  0.3000000E+03  0.7818608E-02  0.1093470E+00
          1   -1    0    0  502    0  0.00000000000E+00  0.00000000000E+00  0.24207634490E+03  0.24207634490E+03  0.00000000000E+00 0.  1.
         13   -1    0    0    0    0 -0.00000000000E+00 -0.00000000000E+00 -0.27500000000E+03  0.27500000000E+03  0.00000000000E+00 0.  1.
    9000005    2    1    2  501    0  0.83441428067E+01  0.43240093516E+02 -0.45052505555E+02  0.47139878564E+03  0.46716994385E+03 0.  0.
         13    1    3    3    0    0 -0.57192363896E+02  0.84281324423E+01  0.20373579000E+03  0.21177882810E+03  0.00000000000E+00 0.  1.
          3    1    3    3  501    0  0.65536506703E+02  0.34811961073E+02 -0.24878829556E+03  0.25961995754E+03  0.00000000000E+00 0.  1.
         21    1    1    2  502  501 -0.83441428067E+01 -0.43240093516E+02  0.12128850453E+02  0.45677559258E+02  0.00000000000E+00 0.  1.
<scales pt_clust_4="550.00000" pt_clust_5="550.00000" pt_clust_6="44.03783"></scales>
<mgrwt>
<rscale>  0 0.30000000E+03</rscale>
<asrwt>  1 0.44037829E+02</asrwt>
<pdfrwt beam="1">  1        1 0.88027762E+00 0.30000000E+03</pdfrwt>
<pdfrwt beam="2">0</pdfrwt>
<totfact> 0.18775526E-04</totfact>
</mgrwt>
<clustering>
<clus scale="   44.038">  1  6  2 -1</clus>
<clus scale="  467.170">  4  5 -1 -1</clus>
<clus scale="  300.000">  1  4  2 -1</clus>
</clustering>
</event>
<event>
 6    1  0.9678510E-012  0.3000000E+03  0.7818608E-02  0.1093470E+00
          1   -1    0    0  502    0  0.00000000000E+00  0.00000000000E+00  0.22940128631E+03  0.22940128631E+03  0.00000000000E+00 0.  1.
         13   -1    0    0    0    0 -0.00000000000E+00 -0.00000000000E+00 -0.27500000000E+03  0.27500000000E+03  0.00000000000E+00 0.  1.
    9000005    2    1    2  501    0 -0.24995182310E+02  0.19940506710E+02 -0.71711431505E+02  0.46311863889E+03  0.45641424313E+03 0.  0.
         13    1    3    3    0    0 -0.54999119900E+02 -0.20931978635E+03 -0.82588965863E+02  0.23164760614E+03  0.00000000000E+00 0.  1.
          1    1    3    3  501    0  0.30003937589E+02  0.22926029306E+03  0.10877534358E+02  0.23147103275E+03  0.00000000000E+00 0.  1.
         21    1    1    2  502  501  0.24995182310E+02 -0.19940506710E+02  0.26112717819E+02  0.41282647425E+02  0.00000000000E+00 0. -1.
<scales pt_clust_4="550.00000" pt_clust_5="550.00000" pt_clust_6="31.97472"></scales>
<mgrwt>
<rscale>  0 0.30000000E+03</rscale>
<asrwt>  1 0.31974724E+02</asrwt>
<pdfrwt beam="1">  1        1 0.83418650E+00 0.30000000E+03</pdfrwt>
<pdfrwt beam="2">0</pdfrwt>
<totfact> 0.55790533E-04</totfact>
</mgrwt>
<clustering>
<clus scale="   31.975">  1  6  2 -1</clus>
<clus scale="  456.414">  4  5 -1 -1</clus>
<clus scale="  300.000">  1  4  2 -1</clus>
</clustering>
</event>
<event>
 6    1  0.9678510E-012  0.3000000E+03  0.7818608E-02  0.1093470E+00
          1   -1    0    0  502    0  0.00000000000E+00  0.00000000000E+00  0.23758146730E+03  0.23758146730E+03  0.00000000000E+00 0.  1.
         13   -1    0    0    0    0 -0.00000000000E+00 -0.00000000000E+00 -0.27500000000E+03  0.27500000000E+03  0.00000000000E+00 0.  1.
    9000005    2    1    2  501    0 -0.64540710204E+01 -0.32461421158E+02 -0.32837750290E+02  0.47916915724E+03  0.47689554885E+03 0.  0.
         13    1    3    3    0    0  0.44317857738E+02 -0.20705308944E+03  0.11846220738E+03  0.24262800527E+03  0.00000000000E+00 0.  1.
          3    1    3    3  501    0 -0.50771928759E+02  0.17459166828E+03 -0.15129995767E+03  0.23654115197E+03  0.00000000000E+00 0.  1.
         21    1    1    2  502  501  0.64540710204E+01  0.32461421158E+02 -0.45807824072E+01  0.33412310064E+02  0.00000000000E+00 0.  1.
<scales pt_clust_4="550.00000" pt_clust_5="550.00000" pt_clust_6="33.09683"></scales>
<mgrwt>
<rscale>  0 0.30000000E+03</rscale>
<asrwt>  1 0.33096828E+02</asrwt>
<pdfrwt beam="1">  1        1 0.86393261E+00 0.30000000E+03</pdfrwt>
<pdfrwt beam="2">0</pdfrwt>
<totfact> 0.29647927E-04</totfact>
</mgrwt>
<clustering>
<clus scale="   33.097">  1  6  2 -1</clus>
<clus scale="  476.896">  4  5 -1 -1</clus>
<clus scale="  300.000">  1  4  2 -1</clus>
</clustering>
</event>
<event>
 6    1  0.9678510E-012  0.3000000E+03  0.7818608E-02  0.1093470E+00
          1   -1    0    0  502    0  0.00000000000E+00  0.00000000000E+00  0.22715462649E+03  0.22715462649E+03  0.00000000000E+00 0.  1.
         13   -1    0    0    0    0 -0.00000000000E+00 -0.00000000000E+00 -0.27500000000E+03  0.27500000000E+03  0.00000000000E+00 0.  1.
    9000005    2    1    2  501    0 -0.32409621914E+02  0.19245564085E+02 -0.29885879349E+02  0.46040155761E+03  0.45788170212E+03 0.  0.
         13    1    3    3    0    0 -0.12841186962E+02 -0.81395100606E+02  0.19584723964E+03  0.21247635106E+03  0.00000000000E+00 0.  1.
          1    1    3    3  501    0 -0.19568434952E+02  0.10064066469E+03 -0.22573311899E+03  0.24792520655E+03  0.00000000000E+00 0.  1.
         21    1    1    2  502  501  0.32409621914E+02 -0.19245564085E+02 -0.17959494166E+02  0.41753068872E+02  0.00000000000E+00 0.  1.
<scales pt_clust_4="550.00000" pt_clust_5="550.00000" pt_clust_6="37.69319"></scales>
<mgrwt>
<rscale>  0 0.30000000E+03</rscale>
<asrwt>  1 0.37693192E+02</asrwt>
<pdfrwt beam="1">  1        1 0.82601682E+00 0.30000000E+03</pdfrwt>
<pdfrwt beam="2">0</pdfrwt>
<totfact> 0.63094455E-04</totfact>
</mgrwt>
<clustering>
<clus scale="   37.693">  1  6  2 -1</clus>
<clus scale="  457.882">  4  5 -1 -1</clus>
<clus scale="  300.000">  1  4  2 -1</clus>
</clustering>
</event>
<event>
 6    1  0.9678510E-012  0.3000000E+03  0.7818608E-02  0.1093470E+00
          1   -1    0    0  502    0  0.00000000000E+00  0.00000000000E+00  0.23699563231E+03  0.23699563231E+03  0.00000000000E+00 0.  1.
         13   -1    0    0    0    0 -0.00000000000E+00 -0.00000000000E+00 -0.27500000000E+03  0.27500000000E+03  0.00000000000E+00 0.  1.
    9000005    2    1    2  501    0 -0.28802663270E+02 -0.19948050136E+02 -0.44540962181E+02  0.47635513311E+03  0.47297230090E+03 0.  0.
         13    1    3    3    0    0 -0.18371294637E+02  0.16343252468E+03  0.14000310154E+03  0.21598278411E+03  0.00000000000E+00 0.  1.
          1    1    3    3  501    0 -0.10431368633E+02 -0.18338057482E+03 -0.18454406372E+03  0.26037234901E+03  0.00000000000E+00 0.  1.
         21    1    1    2  502  501  0.28802663270E+02  0.19948050136E+02  0.65365944949E+01  0.35640499201E+02  0.00000000000E+00 0.  1.
<scales pt_clust_4="550.00000" pt_clust_5="550.00000" pt_clust_6="35.03595"></scales>
<mgrwt>
<rscale>  0 0.30000000E+03</rscale>
<asrwt>  1 0.35035955E+02</asrwt>
<pdfrwt beam="1">  1        1 0.86180230E+00 0.30000000E+03</pdfrwt>
<pdfrwt beam="2">0</pdfrwt>
<totfact> 0.30930536E-04</totfact>
</mgrwt>
<clustering>
<clus scale="   35.036">  1  6  2 -1</clus>
<clus scale="  472.972">  4  5 -1 -1</clus>
<clus scale="  300.000">  1  4  2 -1</clus>
</clustering>
</event>
<event>
 6    1  0.9678510E-012  0.3000000E+03  0.7818608E-02  0.1093470E+00
          1   -1    0    0  502    0  0.00000000000E+00  0.00000000000E+00  0.21950446507E+03  0.21950446507E+03  0.00000000000E+00 0.  1.
         13   -1    0    0    0    0 -0.00000000000E+00 -0.00000000000E+00 -0.27500000000E+03  0.27500000000E+03  0.00000000000E+00 0.  1.
    9000005    2    1    2  501    0  0.29376222470E+02  0.10817310805E+02 -0.53406697427E+02  0.46313027342E+03  0.45897428923E+03 0.  0.
         13    1    3    3    0    0  0.11845978889E+03  0.19002511164E+03  0.61688078059E+02  0.23226640655E+03  0.00000000000E+00 0.  1.
          1    1    3    3  501    0 -0.89083566420E+02 -0.17920780083E+03 -0.11509477549E+03  0.23086386688E+03  0.00000000000E+00 0.  1.
         21    1    1    2  502  501 -0.29376222470E+02 -0.10817310805E+02 -0.20888374986E+01  0.31374191651E+02  0.00000000000E+00 0.  1.
<scales pt_clust_4="550.00000" pt_clust_5="550.00000" pt_clust_6="31.30458"></scales>
<mgrwt>
<rscale>  0 0.30000000E+03</rscale>
<asrwt>  1 0.31304579E+02</asrwt>
<pdfrwt beam="1">  1        1 0.79819805E+00 0.30000000E+03</pdfrwt>
<pdfrwt beam="2">0</pdfrwt>
<totfact> 0.10914259E-03</totfact>
</mgrwt>
<clustering>
<clus scale="   31.305">  1  6  2 -1</clus>
<clus scale="  458.974">  4  5 -1 -1</clus>
<clus scale="  300.000">  1  4  2 -1</clus>
</clustering>
</event>
<event>
 6    1  0.9678510E-012  0.3000000E+03  0.7818608E-02  0.1093470E+00
          1   -1    0    0  502    0  0.00000000000E+00  0.00000000000E+00  0.24627016462E+03  0.24627016462E+03  0.00000000000E+00 0.  1.
         13   -1    0    0    0    0 -0.00000000000E+00 -0.00000000000E+00 -0.27500000000E+03  0.27500000000E+03  0.00000000000E+00 0.  1.
    9000005    2    1    2  501    0  0.25459520113E+02  0.17817634806E+02 -0.14408697710E+02  0.48705393662E+03  0.48584799201E+03 0.  0.
         13    1    3    3    0    0  0.25239493555E+03 -0.31432909967E+02  0.68615667405E+00  0.25434563517E+03  0.00000000000E+00 0.  1.
          3    1    3    3  501    0 -0.22693541543E+03  0.49250544773E+02 -0.15094854384E+02  0.23270830146E+03  0.00000000000E+00 0.  1.
         21    1    1    2  502  501 -0.25459520113E+02 -0.17817634806E+02 -0.14321137666E+02  0.34216227999E+02  0.00000000000E+00 0. -1.
<scales pt_clust_4="550.00000" pt_clust_5="550.00000" pt_clust_6="31.07501"></scales>
<mgrwt>
<rscale>  0 0.30000000E+03</rscale>
<asrwt>  1 0.31075010E+02</asrwt>
<pdfrwt beam="1">  1        1 0.89552787E+00 0.30000000E+03</pdfrwt>
<pdfrwt beam="2">0</pdfrwt>
<totfact> 0.12721952E-04</totfact>
</mgrwt>
<clustering>
<clus scale="   31.075">  1  6  2 -1</clus>
<clus scale="  485.848">  4  5 -1 -1</clus>
<clus scale="  300.000">  1  4  2 -1</clus>
</clustering>
</event>
<event>
 6    1  0.9678510E-012  0.3000000E+03  0.7818608E-02  0.1093470E+00
          1   -1    0    0  502    0  0.00000000000E+00  0.00000000000E+00  0.24803430923E+03  0.24803430923E+03  0.00000000000E+00 0.  1.
         13   -1    0    0    0    0 -0.00000000000E+00 -0.00000000000E+00 -0.27500000000E+03  0.27500000000E+03  0.00000000000E+00 0.  1.
    9000005    2    1    2  501    0  0.47705049585E+02 -0.52320333646E+01 -0.59035566534E+02  0.46531409734E+03  0.45905213771E+03 0.  0.
         13    1    3    3    0    0 -0.18036934145E+03 -0.84502930400E+02  0.42011973476E+02  0.20356534700E+03  0.00000000000E+00 0.  1.
          3    1    3    3  501    0  0.22807439104E+03  0.79270897036E+02 -0.10104754001E+03  0.26174875034E+03  0.00000000000E+00 0.  1.
         21    1    1    2  502  501 -0.47705049585E+02  0.52320333646E+01  0.32069875768E+02  0.57720211892E+02  0.00000000000E+00 0.  1.
<scales pt_clust_4="550.00000" pt_clust_5="550.00000" pt_clust_6="47.99110"></scales>
<mgrwt>
<rscale>  0 0.30000000E+03</rscale>
<asrwt>  1 0.47991103E+02</asrwt>
<pdfrwt beam="1">  1        1 0.90194294E+00 0.30000000E+03</pdfrwt>
<pdfrwt beam="2">0</pdfrwt>
<totfact> 0.98196776E-05</totfact>
</mgrwt>
<clustering>
<clus scale="   47.991">  1  6  2 -1</clus>
<clus scale="  459.052">  4  5 -1 -1</clus>
<clus scale="  300.000">  1  4  2 -1</clus>
</clustering>
</event>
<event>
 6    1  0.9678510E-012  0.3000000E+03  0.7818608E-02  0.1093470E+00
          1   -1    0    0  502    0  0.00000000000E+00  0.00000000000E+00  0.23398336406E+03  0.23398336406E+03  0.00000000000E+00 0.  1.
         13   -1    0    0    0    0 -0.00000000000E+00 -0.00000000000E+00 -0.27500000000E+03  0.27500000000E+03  0.00000000000E+00 0.  1.
    9000005    2    1    2  501    0 -0.19507942868E+02  0.23402515297E+02 -0.66406071645E+02  0.46932405239E+03  0.46360226729E+03 0.  0.
         13    1    3    3    0    0  0.15014306911E+03  0.17704226118E+03 -0.62530384218E+02  0.24040996734E+03  0.00000000000E+00 0.  1.
          3    1    3    3  501    0 -0.16965101198E+03 -0.15363974588E+03 -0.38756874269E+01  0.22891408505E+03  0.00000000000E+00 0.  1.
         21    1    1    2  502  501  0.19507942868E+02 -0.23402515297E+02  0.25389435706E+02  0.39659311677E+02  0.00000000000E+00 0.  1.
<scales pt_clust_4="550.00000" pt_clust_5="550.00000" pt_clust_6="30.46699"></scales>
<mgrwt>
<rscale>  0 0.30000000E+03</rscale>
<asrwt>  1 0.30466991E+02</asrwt>
<pdfrwt beam="1">  1        1 0.85084860E+00 0.30000000E+03</pdfrwt>
<pdfrwt beam="2">0</pdfrwt>
<totfact> 0.41019972E-04</totfact>
</mgrwt>
<clustering>
<clus scale="   30.467">  1  6  2 -1</clus>
<clus scale="  463.602">  4  5 -1 -1</clus>
<clus scale="  300.000">  1  4  2 -1</clus>
</clustering>
</event>
<event>
 6    1  0.9678510E-012  0.3000000E+03  0.7818608E-02  0.1093470E+00
          1   -1    0    0  502    0  0.00000000000E+00  0.00000000000E+00  0.24577222044E+03  0.24577222044E+03  0.00000000000E+00 0.  1.
         13   -1    0    0    0    0 -0.00000000000E+00 -0.00000000000E+00 -0.27500000000E+03  0.27500000000E+03  0.00000000000E+00 0.  1.
    9000005    2    1    2  501    0 -0.66030165426E+01  0.30122842935E+02 -0.40548225203E+02  0.48792198477E+03  0.48525531338E+03 0.  0.
         13    1    3    3    0    0  0.74921783624E+02  0.20841079317E+03 -0.14605298898E+03  0.26529192970E+03  0.00000000000E+00 0.  1.
          1    1    3    3  501    0 -0.81524800167E+02 -0.17828795024E+03  0.10550476378E+03  0.22263005507E+03  0.00000000000E+00 0.  1.
         21    1    1    2  502  501  0.66030165426E+01 -0.30122842935E+02  0.11320445640E+02  0.32850235668E+02  0.00000000000E+00 0.  1.
<scales pt_clust_4="550.00000" pt_clust_5="550.00000" pt_clust_6="30.83805"></scales>
<mgrwt>
<rscale>  0 0.30000000E+03</rscale>
<asrwt>  1 0.30838053E+02</asrwt>
<pdfrwt beam="1">  1        1 0.89371717E+00 0.30000000E+03</pdfrwt>
<pdfrwt beam="2">0</pdfrwt>
<totfact> 0.13355464E-04</totfact>
</mgrwt>
<clustering>
<clus scale="   30.838">  1  6  2 -1</clus>
<clus scale="  485.255">  4  5 -1 -1</clus>
<clus scale="  300.000">  1  4  2 -1</clus>
</clustering>
</event>
<event>
 6    1  0.9678510E-012  0.3000000E+03  0.7818608E-02  0.1093470E+00
          1   -1    0    0  502    0  0.00000000000E+00  0.00000000000E+00  0.23425495919E+03  0.23425495919E+03  0.00000000000E+00 0.  1.
         13   -1    0    0    0    0 -0.00000000000E+00 -0.00000000000E+00 -0.27500000000E+03  0.27500000000E+03  0.00000000000E+00 0.  1.
    9000005    2    1    2  501    0 -0.19855563027E+02 -0.24712051424E+02 -0.46244089491E+02  0.47708092610E+03  0.47377501556E+03 0.  0.
         13    1    3    3    0    0  0.15452747698E+03 -0.45125869922E+02  0.14557443735E+03  0.21704147550E+03  0.00000000000E+00 0.  1.
          1    1    3    3  501    0 -0.17438304001E+03  0.20413818498E+02 -0.19181852685E+03  0.26003945060E+03  0.00000000000E+00 0.  1.
         21    1    1    2  502  501  0.19855563027E+02  0.24712051424E+02  0.54990486827E+01  0.32174033088E+02  0.00000000000E+00 0. -1.
<scales pt_clust_4="550.00000" pt_clust_5="550.00000" pt_clust_6="31.70061"></scales>
<mgrwt>
<rscale>  0 0.30000000E+03</rscale>
<asrwt>  1 0.31700613E+02</asrwt>
<pdfrwt beam="1">  1        1 0.85183622E+00 0.30000000E+03</pdfrwt>
<pdfrwt beam="2">0</pdfrwt>
<totfact> 0.39838169E-04</totfact>
</mgrwt>
<clustering>
<clus scale="   31.701">  1  6  2 -1</clus>
<clus scale="  473.775">  4  5 -1 -1</clus>
<clus scale="  300.000">  1  4  2 -1</clus>
</clustering>
</event>
<event>
 6    1  0.9678510E-012  0.3000000E+03  0.7818608E-02  0.1093470E+00
          1   -1    0    0  502    0  0.00000000000E+00  0.00000000000E+00  0.23615008273E+03  0.23615008273E+03  0.00000000000E+00 0.  1.
         13   -1    0    0    0    0 -0.00000000000E+00 -0.00000000000E+00 -0.27500000000E+03  0.27500000000E+03  0.00000000000E+00 0.  1.
    9000005    2    1    2  501    0  0.36184246136E+02 -0.31492866191E+01 -0.33692490812E+02  0.47446470796E+03  0.47187112381E+03 0.  0.
         13    1    3    3    0    0  0.31361932396E+02 -0.23510177298E+03  0.14052243029E+02  0.23760025252E+03  0.00000000000E+00 0.  1.
          1    1    3    3  501    0  0.48223137402E+01  0.23195248637E+03 -0.47744733841E+02  0.23686445544E+03  0.00000000000E+00 0.  1.
         21    1    1    2  502  501 -0.36184246136E+02  0.31492866191E+01 -0.51574264547E+01  0.36685374774E+02  0.00000000000E+00 0. -1.
<scales pt_clust_4="550.00000" pt_clust_5="550.00000" pt_clust_6="36.32105"></scales>
<mgrwt>
<rscale>  0 0.30000000E+03</rscale>
<asrwt>  1 0.36321054E+02</asrwt>
<pdfrwt beam="1">  1        1 0.85872757E+00 0.30000000E+03</pdfrwt>
<pdfrwt beam="2">0</pdfrwt>
<totfact> 0.33137224E-04</totfact>
</mgrwt>
<clustering>
<clus scale="   36.321">  1  6  2 -1</clus>
<clus scale="  471.871">  4  5 -1 -1</clus>
<clus scale="  300.000">  1  4  2 -1</clus>
</clustering>
</event>
<event>
 6    1  0.9678510E-012  0.3000000E+03  0.7818608E-02  0.1093470E+00
          1   -1    0    0  502    0  0.00000000000E+00  0.00000000000E+00  0.23227110045E+03  0.23227110045E+03  0.00000000000E+00 0.  1.
         13   -1    0    0    0    0 -0.00000000000E+00 -0.00000000000E+00 -0.27500000000E+03  0.27500000000E+03  0.00000000000E+00 0.  1.
    9000005    2    1    2  501    0 -0.18113905322E+02  0.35652652801E+02 -0.61711613003E+02  0.46300408533E+03  0.45712715368E+03 0.  0.
         13    1    3    3    0    0  0.27433745672E+02 -0.19573004406E+03 -0.10413006148E+03  0.22339635238E+03  0.00000000000E+00 0.  1.
          1    1    3    3  501    0 -0.45547650994E+02  0.23138269687E+03  0.42418448476E+02  0.23960773295E+03  0.00000000000E+00 0.  1.
         21    1    1    2  502  501  0.18113905322E+02 -0.35652652801E+02  0.18982713455E+02  0.44267015123E+02  0.00000000000E+00 0.  1.
<scales pt_clust_4="550.00000" pt_clust_5="550.00000" pt_clust_6="39.99031"></scales>
<mgrwt>
<rscale>  0 0.30000000E+03</rscale>
<asrwt>  1 0.39990314E+02</asrwt>
<pdfrwt beam="1">  1        1 0.84462218E+00 0.30000000E+03</pdfrwt>
<pdfrwt beam="2">0</pdfrwt>
<totfact> 0.44418621E-04</totfact>
</mgrwt>
<clustering>
<clus scale="   39.990">  1  6  2 -1</clus>
<clus scale="  457.127">  4  5 -1 -1</clus>
<clus scale="  300.000">  1  4  2 -1</clus>
</clustering>
</event>
<event>
 6    1  0.9678510E-012  0.3000000E+03  0.7818608E-02  0.1093470E+00
          1   -1    0    0  502    0  0.00000000000E+00  0.00000000000E+00  0.24561237698E+03  0.24561237698E+03  0.00000000000E+00 0.  1.
         13   -1    0    0    0    0 -0.00000000000E+00 -0.00000000000E+00 -0.27500000000E+03  0.27500000000E+03  0.00000000000E+00 0.  1.
    9000005    2    1    2  501    0 -0.18266520376E+02 -0.24932782102E+02 -0.53796722596E+02  0.48122819828E+03  0.47721188383E+03 0.  0.
         13    1    3    3    0    0 -0.71494515818E+02  0.14683015474E+03  0.14126174573E+03  0.21592924985E+03  0.00000000000E+00 0.  1.
          3    1    3    3  501    0  0.53227995442E+02 -0.17176293684E+03 -0.19505846833E+03  0.26529894843E+03  0.00000000000E+00 0.  1.
         21    1    1    2  502  501  0.18266520376E+02  0.24932782102E+02  0.24409099576E+02  0.39384178703E+02  0.00000000000E+00 0. -1.
<scales pt_clust_4="550.00000" pt_clust_5="550.00000" pt_clust_6="30.90808"></scales>
<mgrwt>
<rscale>  0 0.30000000E+03</rscale>
<asrwt>  1 0.30908080E+02</asrwt>
<pdfrwt beam="1">  1        1 0.89313592E+00 0.30000000E+03</pdfrwt>
<pdfrwt beam="2">0</pdfrwt>
<totfact> 0.13558996E-04</totfact>
</mgrwt>
<clustering>
<clus scale="   30.908">  1  6  2 -1</clus>
<clus scale="  477.212">  4  5 -1 -1</clus>
<clus scale="  300.000">  1  4  2 -1</clus>
</clustering>
</event>
<event>
 6    1  0.9678510E-012  0.3000000E+03  0.7818608E-02  0.1093470E+00
          1   -1    0    0  502    0  0.00000000000E+00  0.00000000000E+00  0.24143890391E+03  0.24143890391E+03  0.00000000000E+00 0.  1.
         13   -1    0    0    0    0 -0.00000000000E+00 -0.00000000000E+00 -0.27500000000E+03  0.27500000000E+03  0.00000000000E+00 0.  1.
    9000005    2    1    2  501    0  0.89399625274E+01  0.29985216706E+02 -0.70984439744E+02  0.46765834629E+03  0.46117946834E+03 0.  0.
         13    1    3    3    0    0 -0.15300876404E+03  0.18224049502E+03 -0.58415780275E+02  0.24502180165E+03  0.00000000000E+00 0.  1.
          3    1    3    3  501    0  0.16194872657E+03 -0.15225527831E+03 -0.12568659470E+02  0.22263654465E+03  0.00000000000E+00 0.  1.
         21    1    1    2  502  501 -0.89399625274E+01 -0.29985216706E+02  0.37423343650E+02  0.48780557612E+02  0.00000000000E+00 0. -1.
<scales pt_clust_4="550.00000" pt_clust_5="550.00000" pt_clust_6="31.28955"></scales>
<mgrwt>
<rscale>  0 0.30000000E+03</rscale>
<asrwt>  1 0.31289553E+02</asrwt>
<pdfrwt beam="1">  1        1 0.87795965E+00 0.30000000E+03</pdfrwt>
<pdfrwt beam="2">0</pdfrwt>
<totfact> 0.21319130E-04</totfact>
</mgrwt>
<clustering>
<clus scale="   31.290">  1  6  2 -1</clus>
<clus scale="  461.179">  4  5 -1 -1</clus>
<clus scale="  300.000">  1  4  2 -1</clus>
</clustering>
</event>
<event>
 6    1  0.9678510E-012  0.3000000E+03  0.7818608E-02  0.1093470E+00
          1   -1    0    0  502    0  0.00000000000E+00  0.00000000000E+00  0.24148798273E+03  0.24148798273E+03  0.00000000000E+00 0.  1.
         13   -1    0    0    0    0 -0.00000000000E+00 -0.00000000000E+00 -0.27500000000E+03  0.27500000000E+03  0.00000000000E+00 0.  1.
    9000005    2    1    2  501    0 -0.28888972328E+02 -0.86869688970E+01 -0.76682245751E+02  0.46382200910E+03  0.45644348299E+03 0.  0.
         13    1    3    3    0    0 -0.58928906504E+02  0.17850207534E+03 -0.16916052057E+03  0.25288512935E+03  0.00000000000E+00 0.  1.
          1    1    3    3  501    0  0.30039934175E+02 -0.18718904424E+03  0.92478274822E+02  0.21093687976E+03  0.00000000000E+00 0.  1.
         21    1    1    2  502  501  0.28888972328E+02  0.86869688970E+01  0.43170228482E+02  0.52665973626E+02  0.00000000000E+00 0.  1.
<scales pt_clust_4="550.00000" pt_clust_5="550.00000" pt_clust_6="30.16681"></scales>
<mgrwt>
<rscale>  0 0.30000000E+03</rscale>
<asrwt>  1 0.30166805E+02</asrwt>
<pdfrwt beam="1">  1        1 0.87813812E+00 0.30000000E+03</pdfrwt>
<pdfrwt beam="2">0</pdfrwt>
<totfact> 0.21367856E-04</totfact>
</mgrwt>
<clustering>
<clus scale="   30.167">  1  6  2 -1</clus>
<clus scale="  456.443">  4  5 -1 -1</clus>
<clus scale="  300.000">  1  4  2 -1</clus>
</clustering>
</event>
<event>
 6    1  0.9678510E-012  0.3000000E+03  0.7818608E-02  0.1093470E+00
          1   -1    0    0  502    0  0.00000000000E+00  0.00000000000E+00  0.23754410157E+03  0.23754410157E+03  0.00000000000E+00 0.  1.
         13   -1    0    0    0    0 -0.00000000000E+00 -0.00000000000E+00 -0.27500000000E+03  0.27500000000E+03  0.00000000000E+00 0.  1.
    9000005    2    1    2  501    0 -0.35728908274E+02 -0.16393862859E+01 -0.70975348611E+02  0.46352577832E+03  0.45666114854E+03 0.  0.
         13    1    3    3    0    0 -0.13450153081E+03  0.66660429334E+02 -0.22360345143E+03  0.26931910092E+03  0.00000000000E+00 0.  1.
          3    1    3    3  501    0  0.98772622540E+02 -0.68299815620E+02  0.15262810282E+03  0.19420667740E+03  0.00000000000E+00 0.  1.
         21    1    1    2  502  501  0.35728908274E+02  0.16393862859E+01  0.33519450181E+02  0.49018323251E+02  0.00000000000E+00 0.  1.
<scales pt_clust_4="550.00000" pt_clust_5="550.00000" pt_clust_6="35.76650"></scales>
<mgrwt>
<rscale>  0 0.30000000E+03</rscale>
<asrwt>  1 0.35766499E+02</asrwt>
<pdfrwt beam="1">  1        1 0.86379673E+00 0.30000000E+03</pdfrwt>
<pdfrwt beam="2">0</pdfrwt>
<totfact> 0.29318580E-04</totfact>
</mgrwt>
<clustering>
<clus scale="   35.766">  1  6  2 -1</clus>
<clus scale="  456.661">  4  5 -1 -1</clus>
<clus scale="  300.000">  1  4  2 -1</clus>
</clustering>
</event>
<event>
 6    1  0.9678510E-012  0.3000000E+03  0.7818608E-02  0.1093470E+00
          1   -1    0    0  502    0  0.00000000000E+00  0.00000000000E+00  0.24687333894E+03  0.24687333894E+03  0.00000000000E+00 0.  1.
         13   -1    0    0    0    0 -0.00000000000E+00 -0.00000000000E+00 -0.27500000000E+03  0.27500000000E+03  0.00000000000E+00 0.  1.
    9000005    2    1    2  501    0  0.29196909760E+02 -0.18971735107E+02 -0.46641217463E+02  0.48243763087E+03  0.47891364382E+03 0.  0.
         13    1    3    3    0    0 -0.21765995239E+03 -0.68596295072E+02 -0.28568821783E+02  0.22999453069E+03  0.00000000000E+00 0.  1.
          1    1    3    3  501    0  0.24685686215E+03  0.49624559966E+02 -0.18072395680E+02  0.25244310017E+03  0.00000000000E+00 0.  1.
         21    1    1    2  502  501 -0.29196909760E+02  0.18971735107E+02  0.18514556404E+02  0.39435708074E+02  0.00000000000E+00 0.  1.
<scales pt_clust_4="550.00000" pt_clust_5="550.00000" pt_clust_6="34.81934"></scales>
<mgrwt>
<rscale>  0 0.30000000E+03</rscale>
<asrwt>  1 0.34819338E+02</asrwt>
<pdfrwt beam="1">  1        1 0.89772123E+00 0.30000000E+03</pdfrwt>
<pdfrwt beam="2">0</pdfrwt>
<totfact> 0.11766037E-04</totfact>
</mgrwt>
<clustering>
<clus scale="   34.819">  1  6  2 -1</clus>
<clus scale="  478.914">  4  5 -1 -1</clus>
<clus scale="  300.000">  1  4  2 -1</clus>
</clustering>
</event>
<event>
 6    1  0.9678510E-012  0.3000000E+03  0.7818608E-02  0.1093470E+00
          1   -1    0    0  502    0  0.00000000000E+00  0.00000000000E+00  0.22639420164E+03  0.22639420164E+03  0.00000000000E+00 0.  1.
         13   -1    0    0    0    0 -0.00000000000E+00 -0.00000000000E+00 -0.27500000000E+03  0.27500000000E+03  0.00000000000E+00 0.  1.
    9000005    2    1    2  501    0  0.32489504645E+02 -0.10865780924E+02 -0.56878644591E+02  0.46615114428E+03  0.46139795838E+03 0.  0.
         13    1    3    3    0    0  0.95625757205E+02 -0.79686776145E+02 -0.23449063345E+03  0.26548093135E+03  0.00000000000E+00 0.  1.
          1    1    3    3  501    0 -0.63136252560E+02  0.68820995221E+02  0.17761198886E+03  0.20067021293E+03  0.00000000000E+00 0.  1.
         21    1    1    2  502  501 -0.32489504645E+02  0.10865780924E+02  0.82728462326E+01  0.35243057358E+02  0.00000000000E+00 0.  1.
<scales pt_clust_4="550.00000" pt_clust_5="550.00000" pt_clust_6="34.25833"></scales>
<mgrwt>
<rscale>  0 0.30000000E+03</rscale>
<asrwt>  1 0.34258329E+02</asrwt>
<pdfrwt beam="1">  1        1 0.82325164E+00 0.30000000E+03</pdfrwt>
<pdfrwt beam="2">0</pdfrwt>
<totfact> 0.67981251E-04</totfact>
</mgrwt>
<clustering>
<clus scale="   34.258">  1  6  2 -1</clus>
<clus scale="  461.398">  4  5 -1 -1</clus>
<clus scale="  300.000">  1  4  2 -1</clus>
</clustering>
</event>
<event>
 6    1  0.9678510E-012  0.3000000E+03  0.7818608E-02  0.1093470E+00
          1   -1    0    0  502    0  0.00000000000E+00  0.00000000000E+00  0.22405548428E+03  0.22405548428E+03  0.00000000000E+00 0.  1.
         13   -1    0    0    0    0 -0.00000000000E+00 -0.00000000000E+00 -0.27500000000E+03  0.27500000000E+03  0.00000000000E+00 0.  1.
    9000005    2    1    2  501    0  0.15637672164E+02 -0.27904665186E+02 -0.47977330011E+02  0.46693055127E+03  0.46335635140E+03 0.  0.
         13    1    3    3    0    0  0.21609290199E+03 -0.30396732077E+02 -0.12579993501E+03  0.25188435295E+03  0.00000000000E+00 0.  1.
          3    1    3    3  501    0 -0.20045522983E+03  0.24920668910E+01  0.77822604996E+02  0.21504619832E+03  0.00000000000E+00 0.  1.
         21    1    1    2  502  501 -0.15637672164E+02  0.27904665186E+02 -0.29671857109E+01  0.32124933010E+02  0.00000000000E+00 0. -1.
<scales pt_clust_4="550.00000" pt_clust_5="550.00000" pt_clust_6="31.98761"></scales>
<mgrwt>
<rscale>  0 0.30000000E+03</rscale>
<asrwt>  1 0.31987609E+02</asrwt>
<pdfrwt beam="1">  1        1 0.81474722E+00 0.30000000E+03</pdfrwt>
<pdfrwt beam="2">0</pdfrwt>
<totfact> 0.81348318E-04</totfact>
</mgrwt>
<clustering>
<clus scale="   31.988">  1  6  2 -1</clus>
<clus scale="  463.356">  4  5 -1 -1</clus>
<clus scale="  300.000">  1  4  2 -1</clus>
</clustering>
</event>
<event>
 6    1  0.9678510E-012  0.3000000E+03  0.7818608E-02  0.1093470E+00
          1   -1    0    0  502    0  0.00000000000E+00  0.00000000000E+00  0.24544221719E+03  0.24544221719E+03  0.00000000000E+00 0.  1.
         13   -1    0    0    0    0 -0.00000000000E+00 -0.00000000000E+00 -0.27500000000E+03  0.27500000000E+03  0.00000000000E+00 0.  1.
    9000005    2    1    2  501    0  0.83620228476E+01  0.43084643815E+02 -0.53124122515E+02  0.47062673440E+03  0.46555465928E+03 0.  0.
         13    1    3    3    0    0 -0.12177170534E+03  0.11033443934E+03 -0.20292164694E+03  0.26111153081E+03  0.00000000000E+00 0.  1.
          1    1    3    3  501    0  0.13013372819E+03 -0.67249795522E+02  0.14979752442E+03  0.20951520359E+03  0.00000000000E+00 0.  1.
         21    1    1    2  502  501 -0.83620228476E+01 -0.43084643815E+02  0.23566339701E+02  0.49815482791E+02  0.00000000000E+00 0.  1.
<scales pt_clust_4="550.00000" pt_clust_5="550.00000" pt_clust_6="43.88861"></scales>
<mgrwt>
<rscale>  0 0.30000000E+03</rscale>
<asrwt>  1 0.43888609E+02</asrwt>
<pdfrwt beam="1">  1        1 0.89251715E+00 0.30000000E+03</pdfrwt>
<pdfrwt beam="2">0</pdfrwt>
<totfact> 0.12922471E-04</totfact>
</mgrwt>
<clustering>
<clus scale="   43.889">  1  6  2 -1</clus>
<clus scale="  465.555">  4  5 -1 -1</clus>
<clus scale="  300.000">  1  4  2 -1</clus>
</clustering>
</event>
<event>
 6    1  0.9678510E-012  0.3000000E+03  0.7818608E-02  0.1093470E+00
          1   -1    0    0  502    0  0.00000000000E+00  0.00000000000E+00  0.22306398567E+03  0.22306398567E+03  0.00000000000E+00 0.  1.
         13   -1    0    0    0    0 -0.00000000000E+00 -0.00000000000E+00 -0.27500000000E+03  0.27500000000E+03  0.00000000000E+00 0.  1.
    9000005    2    1    2  501    0  0.30730967688E+02  0.25121782178E+01 -0.54613078361E+02  0.46711450933E+03  0.46288516187E+03 0.  0.
         13    1    3    3    0    0 -0.39385643522E+02 -0.22330122664E+03 -0.13784927639E+02  0.22716665901E+03  0.00000000000E+00 0.  1.
          3    1    3    3  501    0  0.70116611210E+02  0.22581340486E+03 -0.40828150722E+02  0.23994785032E+03  0.00000000000E+00 0.  1.
         21    1    1    2  502  501 -0.30730967688E+02 -0.25121782178E+01  0.26770640356E+01  0.30949476349E+02  0.00000000000E+00 0. -1.
<scales pt_clust_4="550.00000" pt_clust_5="550.00000" pt_clust_6="30.83348"></scales>
<mgrwt>
<rscale>  0 0.30000000E+03</rscale>
<asrwt>  1 0.30833479E+02</asrwt>
<pdfrwt beam="1">  1        1 0.81114177E+00 0.30000000E+03</pdfrwt>
<pdfrwt beam="2">0</pdfrwt>
<totfact> 0.87513212E-04</totfact>
</mgrwt>
<clustering>
<clus scale="   30.833">  1  6  2 -1</clus>
<clus scale="  462.885">  4  5 -1 -1</clus>
<clus scale="  300.000">  1  4  2 -1</clus>
</clustering>
</event>
<event>
 6    1  0.9678510E-012  0.3000000E+03  0.7818608E-02  0.1093470E+00
          1   -1    0    0  502    0  0.00000000000E+00  0.00000000000E+00  0.26153543109E+03  0.26153543109E+03  0.00000000000E+00 0.  1.
         13   -1    0    0    0    0 -0.00000000000E+00 -0.00000000000E+00 -0.27500000000E+03  0.27500000000E+03  0.00000000000E+00 0.  1.
    9000005    2    1    2  501    0 -0.49118795626E+02  0.11311339588E+02 -0.54494193833E+02  0.47154287299E+03  0.46566346369E+03 0.  0.
         13    1    3    3    0    0 -0.12783596222E+03 -0.17815752242E+03 -0.12764389547E+03  0.25372248635E+03  0.00000000000E+00 0.  1.
          3    1    3    3  501    0  0.78717166591E+02  0.18946886201E+03  0.73149701632E+02  0.21782038664E+03  0.00000000000E+00 0.  1.
         21    1    1    2  502  501  0.49118795626E+02 -0.11311339588E+02  0.41029624921E+02  0.64992558099E+02  0.00000000000E+00 0. -1.
<scales pt_clust_4="550.00000" pt_clust_5="550.00000" pt_clust_6="50.40439"></scales>
<mgrwt>
<rscale>  0 0.30000000E+03</rscale>
<asrwt>  1 0.50404390E+02</asrwt>
<pdfrwt beam="1">  1        1 0.95103793E+00 0.30000000E+03</pdfrwt>
<pdfrwt beam="2">0</pdfrwt>
<totfact> 0.10993336E-05</totfact>
</mgrwt>
<clustering>
<clus scale="   50.404">  1  6  2 -1</clus>
<clus scale="  465.663">  4  5 -1 -1</clus>
<clus scale="  300.000">  1  4  2 -1</clus>
</clustering>
</event>
<event>
 6    1  0.9678510E-012  0.3000000E+03  0.7818608E-02  0.1093470E+00
          1   -1    0    0  502    0  0.00000000000E+00  0.00000000000E+00  0.21918988178E+03  0.21918988178E+03  0.00000000000E+00 0.  1.
         13   -1    0    0    0    0 -0.00000000000E+00 -0.00000000000E+00 -0.27500000000E+03  0.27500000000E+03  0.00000000000E+00 0.  1.
    9000005    2    1    2  501    0 -0.17903118628E+01  0.30202096941E+02 -0.55521763149E+02  0.46393339446E+03  0.45960434772E+03 0.  0.
         13    1    3    3    0    0  0.16065435957E+03  0.17884497219E+03 -0.29941352692E+02  0.24226397159E+03  0.00000000000E+00 0.  1.
          1    1    3    3  501    0 -0.16244467143E+03 -0.14864287525E+03 -0.25580410457E+02  0.22166942288E+03  0.00000000000E+00 0.  1.
         21    1    1    2  502  501  0.17903118628E+01 -0.30202096941E+02 -0.28835506838E+00  0.30256487318E+02  0.00000000000E+00 0.  1.
<scales pt_clust_4="550.00000" pt_clust_5="550.00000" pt_clust_6="30.25511"></scales>
<mgrwt>
<rscale>  0 0.30000000E+03</rscale>
<asrwt>  1 0.30255113E+02</asrwt>
<pdfrwt beam="1">  1        1 0.79705412E+00 0.30000000E+03</pdfrwt>
<pdfrwt beam="2">0</pdfrwt>
<totfact> 0.11198698E-03</totfact>
</mgrwt>
<clustering>
<clus scale="   30.255">  1  6  2 -1</clus>
<clus scale="  459.604">  4  5 -1 -1</clus>
<clus scale="  300.000">  1  4  2 -1</clus>
</clustering>
</event>
<event>
 6    1  0.9678510E-012  0.3000000E+03  0.7818608E-02  0.1093470E+00
          1   -1    0    0  502    0  0.00000000000E+00  0.00000000000E+00  0.25981889028E+03  0.25981889028E+03  0.00000000000E+00 0.  1.
         13   -1    0    0    0    0 -0.00000000000E+00 -0.00000000000E+00 -0.27500000000E+03  0.27500000000E+03  0.00000000000E+00 0.  1.
    9000005    2    1    2  501    0  0.48108854521E+02 -0.10221373002E+02 -0.31792742311E+02  0.48290661151E+03  0.47934233970E+03 0.  0.
         13    1    3    3    0    0 -0.27785672181E+02 -0.34767158831E+02  0.21706358736E+03  0.22157933088E+03  0.00000000000E+00 0.  1.
          1    1    3    3  501    0  0.75894526702E+02  0.24545785829E+02 -0.24885632968E+03  0.26132728064E+03  0.00000000000E+00 0.  1.
         21    1    1    2  502  501 -0.48108854521E+02  0.10221373002E+02  0.16611632588E+02  0.51912278766E+02  0.00000000000E+00 0. -1.
<scales pt_clust_4="550.00000" pt_clust_5="550.00000" pt_clust_6="49.18270"></scales>
<mgrwt>
<rscale>  0 0.30000000E+03</rscale>
<asrwt>  1 0.49182704E+02</asrwt>
<pdfrwt beam="1">  1        1 0.94479596E+00 0.30000000E+03</pdfrwt>
<pdfrwt beam="2">0</pdfrwt>
<totfact> 0.14750532E-05</totfact>
</mgrwt>
<clustering>
<clus scale="   49.183">  1  6  2 -1</clus>
<clus scale="  479.342">  4  5 -1 -1</clus>
<clus scale="  300.000">  1  4  2 -1</clus>
</clustering>
</event>
<event>
 6    1  0.9678510E-012  0.3000000E+03  0.7818608E-02  0.1093470E+00
          1   -1    0    0  502    0  0.00000000000E+00  0.00000000000E+00  0.22280388619E+03  0.22280388619E+03  0.00000000000E+00 0.  1.
         13   -1    0    0    0    0 -0.00000000000E+00 -0.00000000000E+00 -0.27500000000E+03  0.27500000000E+03  0.00000000000E+00 0.  1.
    9000005    2    1    2  501    0  0.19084758746E+01  0.30035553336E+02 -0.55244839031E+02  0.46755373793E+03  0.46330198453E+03 0.  0.
         13    1    3    3    0    0  0.93677776240E+02  0.22697338611E+03 -0.10785857418E+02  0.24578197347E+03  0.00000000000E+00 0.  1.
          3    1    3    3  501    0 -0.91769300366E+02 -0.19693783277E+03 -0.44458981614E+02  0.22177176446E+03  0.00000000000E+00 0.  1.
         21    1    1    2  502  501 -0.19084758746E+01 -0.30035553336E+02  0.30487252199E+01  0.30250148261E+02  0.00000000000E+00 0. -1.
<scales pt_clust_4="550.00000" pt_clust_5="550.00000" pt_clust_6="30.09613"></scales>
<mgrwt>
<rscale>  0 0.30000000E+03</rscale>
<asrwt>  1 0.30096125E+02</asrwt>
<pdfrwt beam="1">  1        1 0.81019595E+00 0.30000000E+03</pdfrwt>
<pdfrwt beam="2">0</pdfrwt>
<totfact> 0.89433097E-04</totfact>
</mgrwt>
<clustering>
<clus scale="   30.096">  1  6  2 -1</clus>
<clus scale="  463.302">  4  5 -1 -1</clus>
<clus scale="  300.000">  1  4  2 -1</clus>
</clustering>
</event>
<event>
 6    1  0.9678510E-012  0.3000000E+03  0.7818608E-02  0.1093470E+00
          1   -1    0    0  502    0  0.00000000000E+00  0.00000000000E+00  0.24721514904E+03  0.24721514904E+03  0.00000000000E+00 0.  1.
         13   -1    0    0    0    0 -0.00000000000E+00 -0.00000000000E+00 -0.27500000000E+03  0.27500000000E+03  0.00000000000E+00 0.  1.
    9000005    2    1    2  501    0 -0.28636038031E+02 -0.10233981958E+02 -0.61512389960E+02  0.47680255224E+03  0.47183910674E+03 0.  0.
         13    1    3    3    0    0 -0.17087015533E+03 -0.18211021275E+03 -0.32783352630E+02  0.25186402637E+03  0.00000000000E+00 0.  1.
          1    1    3    3  501    0  0.14223411730E+03  0.17187623079E+03 -0.28729037330E+02  0.22493852587E+03  0.00000000000E+00 0.  1.
         21    1    1    2  502  501  0.28636038031E+02  0.10233981958E+02  0.33727539005E+02  0.45412596801E+02  0.00000000000E+00 0.  1.
<scales pt_clust_4="550.00000" pt_clust_5="550.00000" pt_clust_6="30.40982"></scales>
<mgrwt>
<rscale>  0 0.30000000E+03</rscale>
<asrwt>  1 0.30409818E+02</asrwt>
<pdfrwt beam="1">  1        1 0.89896418E+00 0.30000000E+03</pdfrwt>
<pdfrwt beam="2">0</pdfrwt>
<totfact> 0.11677450E-04</totfact>
</mgrwt>
<clustering>
<clus scale="   30.410">  1  6  2 -1</clus>
<clus scale="  471.839">  4  5 -1 -1</clus>
<clus scale="  300.000">  1  4  2 -1</clus>
</clustering>
</event>
<event>
 6    1  0.9678510E-012  0.3000000E+03  0.7818608E-02  0.1093470E+00
          1   -1    0    0  502    0  0.00000000000E+00  0.00000000000E+00  0.23970514503E+03  0.23970514503E+03  0.00000000000E+00 0.  1.
         13   -1    0    0    0    0 -0.00000000000E+00 -0.00000000000E+00 -0.27500000000E+03  0.27500000000E+03  0.00000000000E+00 0.  1.
    9000005    2    1    2  501    0 -0.23545052548E+02 -0.28244693075E+02 -0.65097654054E+02  0.46737292535E+03  0.46135410977E+03 0.  0.
         13    1    3    3    0    0  0.99705864473E+02 -0.14122733663E+03  0.12565224031E+03  0.21371688168E+03  0.00000000000E+00 0.  1.
          3    1    3    3  501    0 -0.12325091702E+03  0.11298264355E+03 -0.19074989436E+03  0.25365604367E+03  0.00000000000E+00 0.  1.
         21    1    1    2  502  501  0.23545052548E+02  0.28244693075E+02  0.29802799085E+02  0.47332219679E+02  0.00000000000E+00 0.  1.
<scales pt_clust_4="550.00000" pt_clust_5="550.00000" pt_clust_6="36.77135"></scales>
<mgrwt>
<rscale>  0 0.30000000E+03</rscale>
<asrwt>  1 0.36771350E+02</asrwt>
<pdfrwt beam="1">  1        1 0.87165507E+00 0.30000000E+03</pdfrwt>
<pdfrwt beam="2">0</pdfrwt>
<totfact> 0.24135721E-04</totfact>
</mgrwt>
<clustering>
<clus scale="   36.771">  1  6  2 -1</clus>
<clus scale="  461.354">  4  5 -1 -1</clus>
<clus scale="  300.000">  1  4  2 -1</clus>
</clustering>
</event>
<event>
 6    1  0.9678510E-012  0.3000000E+03  0.7818608E-02  0.1093470E+00
          1   -1    0    0  502    0  0.00000000000E+00  0.00000000000E+00  0.23166435508E+03  0.23166435508E+03  0.00000000000E+00 0.  1.
         13   -1    0    0    0    0 -0.00000000000E+00 -0.00000000000E+00 -0.27500000000E+03  0.27500000000E+03  0.00000000000E+00 0.  1.
    9000005    2    1    2  501    0 -0.26212032483E+02 -0.17650612891E+02 -0.66307775941E+02  0.46759603561E+03  0.46179077144E+03 0.  0.
         13    1    3    3    0    0  0.77837691095E+02 -0.17532582208E+01 -0.24672577238E+03  0.25871874077E+03  0.00000000000E+00 0.  1.
          3    1    3    3  501    0 -0.10404972358E+03 -0.15897354670E+02  0.18041799644E+03  0.20887729484E+03  0.00000000000E+00 0.  1.
         21    1    1    2  502  501  0.26212032483E+02  0.17650612891E+02  0.22972131023E+02  0.39068319468E+02  0.00000000000E+00 0.  1.
<scales pt_clust_4="550.00000" pt_clust_5="550.00000" pt_clust_6="31.60087"></scales>
<mgrwt>
<rscale>  0 0.30000000E+03</rscale>
<asrwt>  1 0.31600867E+02</asrwt>
<pdfrwt beam="1">  1        1 0.84241584E+00 0.30000000E+03</pdfrwt>
<pdfrwt beam="2">0</pdfrwt>
<totfact> 0.48463241E-04</totfact>
</mgrwt>
<clustering>
<clus scale="   31.601">  1  6  2 -1</clus>
<clus scale="  461.791">  4  5 -1 -1</clus>
<clus scale="  300.000">  1  4  2 -1</clus>
</clustering>
</event>
<event>
 6    1  0.9678510E-012  0.3000000E+03  0.7818608E-02  0.1093470E+00
          1   -1    0    0  502    0  0.00000000000E+00  0.00000000000E+00  0.22492923840E+03  0.22492923840E+03  0.00000000000E+00 0.  1.
         13   -1    0    0    0    0 -0.00000000000E+00 -0.00000000000E+00 -0.27500000000E+03  0.27500000000E+03  0.00000000000E+00 0.  1.
    9000005    2    1    2  501    0 -0.38966003199E+00 -0.30987729765E+02 -0.54443599931E+02  0.46863206687E+03  0.46442600842E+03 0.  0.
         13    1    3    3    0    0 -0.16209784835E+03  0.14751113022E+03 -0.61628795221E+02  0.22766939711E+03  0.00000000000E+00 0.  1.
          1    1    3    3  501    0  0.16170818832E+03 -0.17849885999E+03  0.71851952890E+01  0.24096266976E+03  0.00000000000E+00 0.  1.
         21    1    1    2  502  501  0.38966003199E+00  0.30987729765E+02  0.43728383338E+01  0.31297171534E+02  0.00000000000E+00 0. -1.
<scales pt_clust_4="550.00000" pt_clust_5="550.00000" pt_clust_6="30.99018"></scales>
<mgrwt>
<rscale>  0 0.30000000E+03</rscale>
<asrwt>  1 0.30990180E+02</asrwt>
<pdfrwt beam="1">  1        1 0.81792450E+00 0.30000000E+03</pdfrwt>
<pdfrwt beam="2">0</pdfrwt>
<totfact> 0.77085132E-04</totfact>
</mgrwt>
<clustering>
<clus scale="   30.990">  1  6  2 -1</clus>
<clus scale="  464.426">  4  5 -1 -1</clus>
<clus scale="  300.000">  1  4  2 -1</clus>
</clustering>
</event>
<event>
 6    1  0.9678510E-012  0.3000000E+03  0.7818608E-02  0.1093470E+00
          1   -1    0    0  502    0  0.00000000000E+00  0.00000000000E+00  0.23662886029E+03  0.23662886029E+03  0.00000000000E+00 0.  1.
         13   -1    0    0    0    0 -0.00000000000E+00 -0.00000000000E+00 -0.27500000000E+03  0.27500000000E+03  0.00000000000E+00 0.  1.
    9000005    2    1    2  501    0  0.28873003274E+02  0.14057709589E+02 -0.26859936629E+02  0.47751467976E+03  0.47567588090E+03 0.  0.
         13    1    3    3    0    0  0.23401329741E+03 -0.77908739090E+02  0.21444358046E+02  0.24757191982E+03  0.00000000000E+00 0.  1.
          3    1    3    3  501    0 -0.20514029414E+03  0.91966448679E+02 -0.48304294675E+02  0.22994275994E+03  0.00000000000E+00 0.  1.
         21    1    1    2  502  501 -0.28873003274E+02 -0.14057709589E+02 -0.11511203080E+02  0.34114180531E+02  0.00000000000E+00 0.  1.
<scales pt_clust_4="550.00000" pt_clust_5="550.00000" pt_clust_6="32.11340"></scales>
<mgrwt>
<rscale>  0 0.30000000E+03</rscale>
<asrwt>  1 0.32113401E+02</asrwt>
<pdfrwt beam="1">  1        1 0.86046858E+00 0.30000000E+03</pdfrwt>
<pdfrwt beam="2">0</pdfrwt>
<totfact> 0.32498528E-04</totfact>
</mgrwt>
<clustering>
<clus scale="   32.113">  1  6  2 -1</clus>
<clus scale="  475.676">  4  5 -1 -1</clus>
<clus scale="  300.000">  1  4  2 -1</clus>
</clustering>
</event>
<event>
 6    1  0.9678510E-012  0.3000000E+03  0.7818608E-02  0.1093470E+00
          1   -1    0    0  502    0  0.00000000000E+00  0.00000000000E+00  0.22191405028E+03  0.22191405028E+03  0.00000000000E+00 0.  1.
         13   -1    0    0    0    0 -0.00000000000E+00 -0.00000000000E+00 -0.27500000000E+03  0.27500000000E+03  0.00000000000E+00 0.  1.
    9000005    2    1    2  501    0 -0.15908876715E+02  0.27829719339E+02 -0.51402082896E+02  0.46481387825E+03  0.46084941321E+03 0.  0.
         13    1    3    3    0    0 -0.20076185871E+03 -0.54965572304E+02  0.80421959481E+02  0.22314620682E+03  0.00000000000E+00 0.  1.
          3    1    3    3  501    0  0.18485298199E+03  0.82795291643E+02 -0.13182404238E+03  0.24166767144E+03  0.00000000000E+00 0.  1.
         21    1    1    2  502  501  0.15908876715E+02 -0.27829719339E+02 -0.16838668209E+01  0.32100172029E+02  0.00000000000E+00 0. -1.
<scales pt_clust_4="550.00000" pt_clust_5="550.00000" pt_clust_6="32.05598"></scales>
<mgrwt>
<rscale>  0 0.30000000E+03</rscale>
<asrwt>  1 0.32055977E+02</asrwt>
<pdfrwt beam="1">  1        1 0.80696018E+00 0.30000000E+03</pdfrwt>
<pdfrwt beam="2">0</pdfrwt>
<totfact> 0.93603545E-04</totfact>
</mgrwt>
<clustering>
<clus scale="   32.056">  1  6  2 -1</clus>
<clus scale="  460.849">  4  5 -1 -1</clus>
<clus scale="  300.000">  1  4  2 -1</clus>
</clustering>
</event>
<event>
 6    1  0.9678510E-012  0.3000000E+03  0.7818608E-02  0.1093470E+00
          1   -1    0    0  502    0  0.00000000000E+00  0.00000000000E+00  0.23912445369E+03  0.23912445369E+03  0.00000000000E+00 0.  1.
         13   -1    0    0    0    0 -0.00000000000E+00 -0.00000000000E+00 -0.27500000000E+03  0.27500000000E+03  0.00000000000E+00 0.  1.
    9000005    2    1    2  501    0  0.83730935793E+01  0.36259748234E+02 -0.42126842642E+02  0.47638910231E+03  0.47306133629E+03 0.  0.
         13    1    3    3    0    0  0.14022848714E+03 -0.17575789266E+03 -0.20972715054E+02  0.22582010587E+03  0.00000000000E+00 0.  1.
          3    1    3    3  501    0 -0.13185539356E+03  0.21201764090E+03 -0.21154127588E+02  0.25056899644E+03  0.00000000000E+00 0.  1.
         21    1    1    2  502  501 -0.83730935793E+01 -0.36259748234E+02  0.62512963320E+01  0.37735351382E+02  0.00000000000E+00 0.  1.
<scales pt_clust_4="550.00000" pt_clust_5="550.00000" pt_clust_6="37.21395"></scales>
<mgrwt>
<rscale>  0 0.30000000E+03</rscale>
<asrwt>  1 0.37213950E+02</asrwt>
<pdfrwt beam="1">  1        1 0.86954347E+00 0.30000000E+03</pdfrwt>
<pdfrwt beam="2">0</pdfrwt>
<totfact> 0.25308739E-04</totfact>
</mgrwt>
<clustering>
<clus scale="   37.214">  1  6  2 -1</clus>
<clus scale="  473.061">  4  5 -1 -1</clus>
<clus scale="  300.000">  1  4  2 -1</clus>
</clustering>
</event>
<event>
 6    1  0.9678510E-012  0.3000000E+03  0.7818608E-02  0.1093470E+00
          1   -1    0    0  502    0  0.00000000000E+00  0.00000000000E+00  0.22092414958E+03  0.22092414958E+03  0.00000000000E+00 0.  1.
         13   -1    0    0    0    0 -0.00000000000E+00 -0.00000000000E+00 -0.27500000000E+03  0.27500000000E+03  0.00000000000E+00 0.  1.
    9000005    2    1    2  501    0  0.20058437537E+02 -0.23631404976E+02 -0.59032762926E+02  0.46453378164E+03  0.45972381162E+03 0.  0.
         13    1    3    3    0    0 -0.13183971632E+03  0.10483840344E+03 -0.16783471174E+03  0.23778412920E+03  0.00000000000E+00 0.  1.
          3    1    3    3  501    0  0.15189815386E+03 -0.12846980841E+03  0.10880194881E+03  0.22674965245E+03  0.00000000000E+00 0.  1.
         21    1    1    2  502  501 -0.20058437537E+02  0.23631404976E+02  0.49569125072E+01  0.31390367936E+02  0.00000000000E+00 0. -1.
<scales pt_clust_4="550.00000" pt_clust_5="550.00000" pt_clust_6="30.99652"></scales>
<mgrwt>
<rscale>  0 0.30000000E+03</rscale>
<asrwt>  1 0.30996519E+02</asrwt>
<pdfrwt beam="1">  1        1 0.80336054E+00 0.30000000E+03</pdfrwt>
<pdfrwt beam="2">0</pdfrwt>
<totfact> 0.10029808E-03</totfact>
</mgrwt>
<clustering>
<clus scale="   30.997">  1  6  2 -1</clus>
<clus scale="  459.724">  4  5 -1 -1</clus>
<clus scale="  300.000">  1  4  2 -1</clus>
</clustering>
</event>
<event>
 6    1  0.9678510E-012  0.3000000E+03  0.7818608E-02  0.1093470E+00
          1   -1    0    0  502    0  0.00000000000E+00  0.00000000000E+00  0.23203496187E+03  0.23203496187E+03  0.00000000000E+00 0.  1.
         13   -1    0    0    0    0 -0.00000000000E+00 -0.00000000000E+00 -0.27500000000E+03  0.27500000000E+03  0.00000000000E+00 0.  1.
    9000005    2    1    2  501    0 -0.26440869867E+02 -0.19962513807E+02 -0.53155543870E+02  0.47237276396E+03  0.46820176712E+03 0.  0.
         13    1    3    3    0    0 -0.14099247919E+03 -0.20658420664E+03 -0.20108339896E+02  0.25091882942E+03  0.00000000000E+00 0.  1.
          3    1    3    3  501    0  0.11455160932E+03  0.18662169284E+03 -0.33047203974E+02  0.22145393454E+03  0.00000000000E+00 0.  1.
         21    1    1    2  502  501  0.26440869867E+02  0.19962513807E+02  0.10190505741E+02  0.34662197912E+02  0.00000000000E+00 0. -1.
<scales pt_clust_4="550.00000" pt_clust_5="550.00000" pt_clust_6="33.13037"></scales>
<mgrwt>
<rscale>  0 0.30000000E+03</rscale>
<asrwt>  1 0.33130372E+02</asrwt>
<pdfrwt beam="1">  1        1 0.84376350E+00 0.30000000E+03</pdfrwt>
<pdfrwt beam="2">0</pdfrwt>
<totfact> 0.46788598E-04</totfact>
</mgrwt>
<clustering>
<clus scale="   33.130">  1  6  2 -1</clus>
<clus scale="  468.202">  4  5 -1 -1</clus>
<clus scale="  300.000">  1  4  2 -1</clus>
</clustering>
</event>
<event>
 6    1  0.9678510E-012  0.3000000E+03  0.7818608E-02  0.1093470E+00
          1   -1    0    0  502    0  0.00000000000E+00  0.00000000000E+00  0.24226555588E+03  0.24226555588E+03  0.00000000000E+00 0.  1.
         13   -1    0    0    0    0 -0.00000000000E+00 -0.00000000000E+00 -0.27500000000E+03  0.27500000000E+03  0.00000000000E+00 0.  1.
    9000005    2    1    2  501    0  0.20538527722E+02 -0.31746374763E+02 -0.68868816400E+02  0.46496492212E+03  0.45827917419E+03 0.  0.
         13    1    3    3    0    0  0.19081826061E+03 -0.15716597767E+03 -0.53434651476E+02  0.25291898919E+03  0.00000000000E+00 0.  1.
          3    1    3    3  501    0 -0.17027973288E+03  0.12541960290E+03 -0.15434164924E+02  0.21204593293E+03  0.00000000000E+00 0.  1.
         21    1    1    2  502  501 -0.20538527722E+02  0.31746374763E+02  0.36134372276E+02  0.52300633757E+02  0.00000000000E+00 0.  1.
<scales pt_clust_4="550.00000" pt_clust_5="550.00000" pt_clust_6="37.81089"></scales>
<mgrwt>
<rscale>  0 0.30000000E+03</rscale>
<asrwt>  1 0.37810890E+02</asrwt>
<pdfrwt beam="1">  1        1 0.88096566E+00 0.30000000E+03</pdfrwt>
<pdfrwt beam="2">0</pdfrwt>
<totfact> 0.18922946E-04</totfact>
</mgrwt>
<clustering>
<clus scale="   37.811">  1  6  2 -1</clus>
<clus scale="  458.279">  4  5 -1 -1</clus>
<clus scale="  300.000">  1  4  2 -1</clus>
</clustering>
</event>
<event>
 6    1  0.9678510E-012  0.3000000E+03  0.7818608E-02  0.1093470E+00
          1   -1    0    0  502    0  0.00000000000E+00  0.00000000000E+00  0.23170216005E+03  0.23170216005E+03  0.00000000000E+00 0.  1.
         13   -1    0    0    0    0 -0.00000000000E+00 -0.00000000000E+00 -0.27500000000E+03  0.27500000000E+03  0.00000000000E+00 0.  1.
    9000005    2    1    2  501    0 -0.14588754309E+02 -0.36617692438E+02 -0.36392177404E+02  0.46668497215E+03  0.46359118359E+03 0.  0.
         13    1    3    3    0    0  0.18179006218E+02 -0.24929615548E+03 -0.24792031410E+02  0.25118458199E+03  0.00000000000E+00 0.  1.
          3    1    3    3  501    0 -0.32767760527E+02  0.21267846305E+03 -0.11600145994E+02  0.21550039016E+03  0.00000000000E+00 0.  1.
         21    1    1    2  502  501  0.14588754309E+02  0.36617692438E+02 -0.69056625500E+01  0.40017187896E+02  0.00000000000E+00 0.  1.
<scales pt_clust_4="550.00000" pt_clust_5="550.00000" pt_clust_6="39.41686"></scales>
<mgrwt>
<rscale>  0 0.30000000E+03</rscale>
<asrwt>  1 0.39416858E+02</asrwt>
<pdfrwt beam="1">  1        1 0.84255331E+00 0.30000000E+03</pdfrwt>
<pdfrwt beam="2">0</pdfrwt>
<totfact> 0.46380837E-04</totfact>
</mgrwt>
<clustering>
<clus scale="   39.417">  1  6  2 -1</clus>
<clus scale="  463.591">  4  5 -1 -1</clus>
<clus scale="  300.000">  1  4  2 -1</clus>
</clustering>
</event>
<event>
 6    1  0.9678510E-012  0.3000000E+03  0.7818608E-02  0.1093470E+00
          1   -1    0    0  502    0  0.00000000000E+00  0.00000000000E+00  0.22784719763E+03  0.22784719763E+03  0.00000000000E+00 0.  1.
         13   -1    0    0    0    0 -0.00000000000E+00 -0.00000000000E+00 -0.27500000000E+03  0.27500000000E+03  0.00000000000E+00 0.  1.
    9000005    2    1    2  501    0  0.33495769019E+02  0.10576426524E+02 -0.37175991349E+02  0.46633193920E+03  0.46351871143E+03 0.  0.
         13    1    3    3    0    0 -0.27269782388E+02 -0.19529434025E+03  0.90083986059E+02  0.21679170858E+03  0.00000000000E+00 0.  1.
          1    1    3    3  501    0  0.60765551408E+02  0.20587076677E+03 -0.12725997741E+03  0.24954023062E+03  0.00000000000E+00 0.  1.
         21    1    1    2  502  501 -0.33495769019E+02 -0.10576426524E+02 -0.99768110165E+01  0.36515258431E+02  0.00000000000E+00 0. -1.
<scales pt_clust_4="550.00000" pt_clust_5="550.00000" pt_clust_6="35.12590"></scales>
<mgrwt>
<rscale>  0 0.30000000E+03</rscale>
<asrwt>  1 0.35125896E+02</asrwt>
<pdfrwt beam="1">  1        1 0.82853526E+00 0.30000000E+03</pdfrwt>
<pdfrwt beam="2">0</pdfrwt>
<totfact> 0.60764378E-04</totfact>
</mgrwt>
<clustering>
<clus scale="   35.126">  1  6  2 -1</clus>
<clus scale="  463.519">  4  5 -1 -1</clus>
<clus scale="  300.000">  1  4  2 -1</clus>
</clustering>
</event>
<event>
 6    1  0.9678510E-012  0.3000000E+03  0.7818608E-02  0.1093470E+00
          1   -1    0    0  502    0  0.00000000000E+00  0.00000000000E+00  0.24347670617E+03  0.24347670617E+03  0.00000000000E+00 0.  1.
         13   -1    0    0    0    0 -0.00000000000E+00 -0.00000000000E+00 -0.27500000000E+03  0.27500000000E+03  0.00000000000E+00 0.  1.
    9000005    2    1    2  501    0  0.28907646716E+02  0.14538402942E+02 -0.57709276341E+02  0.47685071815E+03  0.47223853043E+03 0.  0.
         13    1    3    3    0    0  0.17560739006E+03  0.16329186492E+03 -0.10638135515E+03  0.26233410247E+03  0.00000000000E+00 0.  1.
          3    1    3    3  501    0 -0.14669974335E+03 -0.14875346198E+03  0.48672078809E+02  0.21451661568E+03  0.00000000000E+00 0.  1.
         21    1    1    2  502  501 -0.28907646716E+02 -0.14538402942E+02  0.26185982512E+02  0.41625988023E+02  0.00000000000E+00 0. -1.
<scales pt_clust_4="550.00000" pt_clust_5="550.00000" pt_clust_6="32.35765"></scales>
<mgrwt>
<rscale>  0 0.30000000E+03</rscale>
<asrwt>  1 0.32357645E+02</asrwt>
<pdfrwt beam="1">  1        1 0.88536984E+00 0.30000000E+03</pdfrwt>
<pdfrwt beam="2">0</pdfrwt>
<totfact> 0.17023535E-04</totfact>
</mgrwt>
<clustering>
<clus scale="   32.358">  1  6  2 -1</clus>
<clus scale="  472.239">  4  5 -1 -1</clus>
<clus scale="  300.000">  1  4  2 -1</clus>
</clustering>
</event>
<event>
 6    1  0.9678510E-012  0.3000000E+03  0.7818608E-02  0.1093470E+00
          1   -1    0    0  502    0  0.00000000000E+00  0.00000000000E+00  0.24113262821E+03  0.24113262821E+03  0.00000000000E+00 0.  1.
         13   -1    0    0    0    0 -0.00000000000E+00 -0.00000000000E+00 -0.27500000000E+03  0.27500000000E+03  0.00000000000E+00 0.  1.
    9000005    2    1    2  501    0  0.64666597685E+01  0.38574963760E+02 -0.64061057011E+02  0.46672104915E+03  0.46064614747E+03 0.  0.
         13    1    3    3    0    0 -0.71250409810E+02  0.16369066844E+03 -0.19873384056E+03  0.26714489554E+03  0.00000000000E+00 0.  1.
          1    1    3    3  501    0  0.77717069579E+02 -0.12511570468E+03  0.13467278355E+03  0.19957615361E+03  0.00000000000E+00 0.  1.
         21    1    1    2  502  501 -0.64666597685E+01 -0.38574963760E+02  0.30193685222E+02  0.49411579057E+02  0.00000000000E+00 0.  1.
<scales pt_clust_4="550.00000" pt_clust_5="550.00000" pt_clust_6="39.11324"></scales>
<mgrwt>
<rscale>  0 0.30000000E+03</rscale>
<asrwt>  1 0.39113240E+02</asrwt>
<pdfrwt beam="1">  1        1 0.87684592E+00 0.30000000E+03</pdfrwt>
<pdfrwt beam="2">0</pdfrwt>
<totfact> 0.21045984E-04</totfact>
</mgrwt>
<clustering>
<clus scale="   39.113">  1  6  2 -1</clus>
<clus scale="  460.646">  4  5 -1 -1</clus>
<clus scale="  300.000">  1  4  2 -1</clus>
</clustering>
</event>
<event>
 6    1  0.9678510E-012  0.3000000E+03  0.7818608E-02  0.1093470E+00
          1   -1    0    0  502    0  0.00000000000E+00  0.00000000000E+00  0.22463282421E+03  0.22463282421E+03  0.00000000000E+00 0.  1.
         13   -1    0    0    0    0 -0.00000000000E+00 -0.00000000000E+00 -0.27500000000E+03  0.27500000000E+03  0.00000000000E+00 0.  1.
    9000005    2    1    2  501    0 -0.31192811410E+02 -0.17547330844E+02 -0.62006325479E+02  0.46199813132E+03  0.45641712133E+03 0.  0.
         13    1    3    3    0    0 -0.13540787825E+02  0.18348185298E+03 -0.15427365090E+03  0.24010269192E+03  0.00000000000E+00 0.  1.
          3    1    3    3  501    0 -0.17652023586E+02 -0.20102918382E+03  0.92267325416E+02  0.22189543940E+03  0.00000000000E+00 0.  1.
         21    1    1    2  502  501  0.31192811410E+02  0.17547330844E+02  0.11639149688E+02  0.37634692890E+02  0.00000000000E+00 0. -1.
<scales pt_clust_4="550.00000" pt_clust_5="550.00000" pt_clust_6="35.78967"></scales>
<mgrwt>
<rscale>  0 0.30000000E+03</rscale>
<asrwt>  1 0.35789668E+02</asrwt>
<pdfrwt beam="1">  1        1 0.81684663E+00 0.30000000E+03</pdfrwt>
<pdfrwt beam="2">0</pdfrwt>
<totfact> 0.76573503E-04</totfact>
</mgrwt>
<clustering>
<clus scale="   35.790">  1  6  2 -1</clus>
<clus scale="  456.417">  4  5 -1 -1</clus>
<clus scale="  300.000">  1  4  2 -1</clus>
</clustering>
</event>
<event>
 6    1  0.9678510E-012  0.3000000E+03  0.7818608E-02  0.1093470E+00
          1   -1    0    0  502    0  0.00000000000E+00  0.00000000000E+00  0.22596330681E+03  0.22596330681E+03  0.00000000000E+00 0.  1.
         13   -1    0    0    0    0 -0.00000000000E+00 -0.00000000000E+00 -0.27500000000E+03  0.27500000000E+03  0.00000000000E+00 0.  1.
    9000005    2    1    2  501    0  0.32051868742E+02 -0.38308312685E+01 -0.52665072103E+02  0.46848003894E+03  0.46438985724E+03 0.  0.
         13    1    3    3    0    0 -0.14211990984E+02  0.10972774434E+02  0.20524839153E+03  0.20603224188E+03  0.00000000000E+00 0.  1.
          3    1    3    3  501    0  0.46263859726E+02 -0.14803605703E+02 -0.25791346363E+03  0.26244779706E+03  0.00000000000E+00 0.  1.
         21    1    1    2  502  501 -0.32051868742E+02  0.38308312685E+01  0.36283789099E+01  0.32483267871E+02  0.00000000000E+00 0.  1.
<scales pt_clust_4="550.00000" pt_clust_5="550.00000" pt_clust_6="32.27999"></scales>
<mgrwt>
<rscale>  0 0.30000000E+03</rscale>
<asrwt>  1 0.32279987E+02</asrwt>
<pdfrwt beam="1">  1        1 0.82168475E+00 0.30000000E+03</pdfrwt>
<pdfrwt beam="2">0</pdfrwt>
<totfact> 0.70988366E-04</totfact>
</mgrwt>
<clustering>
<clus scale="   32.280">  1  6  2 -1</clus>
<clus scale="  464.390">  4  5 -1 -1</clus>
<clus scale="  300.000">  1  4  2 -1</clus>
</clustering>
</event>
<event>
 6    1  0.9678510E-012  0.3000000E+03  0.7818608E-02  0.1093470E+00
          1   -1    0    0  502    0  0.00000000000E+00  0.00000000000E+00  0.22799768726E+03  0.22799768726E+03  0.00000000000E+00 0.  1.
         13   -1    0    0    0    0 -0.00000000000E+00 -0.00000000000E+00 -0.27500000000E+03  0.27500000000E+03  0.00000000000E+00 0.  1.
    9000005    2    1    2  501    0  0.13432907114E+01 -0.33150751321E+02 -0.43121499192E+02  0.46959353397E+03  0.46643096671E+03 0.  0.
         13    1    3    3    0    0 -0.18695302168E+03 -0.14801818560E+03  0.22386812310E+02  0.23950362199E+03  0.00000000000E+00 0.  1.
          1    1    3    3  501    0  0.18829631239E+03  0.11486743428E+03 -0.65508311502E+02  0.23008991197E+03  0.00000000000E+00 0.  1.
         21    1    1    2  502  501 -0.13432907114E+01  0.33150751321E+02 -0.38808135529E+01  0.33404153289E+02  0.00000000000E+00 0. -1.
<scales pt_clust_4="550.00000" pt_clust_5="550.00000" pt_clust_6="33.17797"></scales>
<mgrwt>
<rscale>  0 0.30000000E+03</rscale>
<asrwt>  1 0.33177972E+02</asrwt>
<pdfrwt beam="1">  1        1 0.82908250E+00 0.30000000E+03</pdfrwt>
<pdfrwt beam="2">0</pdfrwt>
<totfact> 0.60762997E-04</totfact>
</mgrwt>
<clustering>
<clus scale="   33.178">  1  6  2 -1</clus>
<clus scale="  466.431">  4  5 -1 -1</clus>
<clus scale="  300.000">  1  4  2 -1</clus>
</clustering>
</event>
<event>
 6    1  0.9678510E-012  0.3000000E+03  0.7818608E-02  0.1093470E+00
          1   -1    0    0  502    0  0.00000000000E+00  0.00000000000E+00  0.22732633113E+03  0.22732633113E+03  0.00000000000E+00 0.  1.
         13   -1    0    0    0    0 -0.00000000000E+00 -0.00000000000E+00 -0.27500000000E+03  0.27500000000E+03  0.00000000000E+00 0.  1.
    9000005    2    1    2  501    0  0.71700772223E+01 -0.29595090101E+02 -0.50978853570E+02  0.47169622157E+03  0.46794358909E+03 0.  0.
         13    1    3    3    0    0 -0.52776393880E+02  0.19619710038E+03  0.61691422950E+02  0.21233106606E+03  0.00000000000E+00 0.  1.
          1    1    3    3  501    0  0.59946471102E+02 -0.22579219048E+03 -0.11267027652E+03  0.25936515551E+03  0.00000000000E+00 0.  1.
         21    1    1    2  502  501 -0.71700772223E+01  0.29595090101E+02  0.33051846988E+01  0.30630109555E+02  0.00000000000E+00 0.  1.
<scales pt_clust_4="550.00000" pt_clust_5="550.00000" pt_clust_6="30.45126"></scales>
<mgrwt>
<rscale>  0 0.30000000E+03</rscale>
<asrwt>  1 0.30451262E+02</asrwt>
<pdfrwt beam="1">  1        1 0.82664120E+00 0.30000000E+03</pdfrwt>
<pdfrwt beam="2">0</pdfrwt>
<totfact> 0.64848927E-04</totfact>
</mgrwt>
<clustering>
<clus scale="   30.451">  1  6  2 -1</clus>
<clus scale="  467.944">  4  5 -1 -1</clus>
<clus scale="  300.000">  1  4  2 -1</clus>
</clustering>
</event>
<event>
 6    1  0.9678510E-012  0.3000000E+03  0.7818608E-02  0.1093470E+00
          1   -1    0    0  502    0  0.00000000000E+00  0.00000000000E+00  0.24694368035E+03  0.24694368035E+03  0.00000000000E+00 0.  1.
         13   -1    0    0    0    0 -0.00000000000E+00 -0.00000000000E+00 -0.27500000000E+03  0.27500000000E+03  0.00000000000E+00 0.  1.
    9000005    2    1    2  501    0 -0.35395485374E+02 -0.18721715495E+02  0.16004025260E+02  0.46240665818E+03  0.46039162209E+03 0.  0.
         13    1    3    3    0    0  0.28809775349E+02  0.64101473020E+02 -0.20559669850E+03  0.21727633197E+03  0.00000000000E+00 0.  1.
          1    1    3    3  501    0 -0.64205260723E+02 -0.82823188515E+02  0.22160072376E+03  0.24513032622E+03  0.00000000000E+00 0.  1.
         21    1    1    2  502  501  0.35395485374E+02  0.18721715495E+02 -0.44060344906E+02  0.59537022172E+02  0.00000000000E+00 0.  1.
<scales pt_clust_4="550.00000" pt_clust_5="550.00000" pt_clust_6="40.04179"></scales>
<mgrwt>
<rscale>  0 0.30000000E+03</rscale>
<asrwt>  1 0.40041786E+02</asrwt>
<pdfrwt beam="1">  1        1 0.89797702E+00 0.30000000E+03</pdfrwt>
<pdfrwt beam="2">0</pdfrwt>
<totfact> 0.11389133E-04</totfact>
</mgrwt>
<clustering>
<clus scale="   40.042">  1  6  2 -1</clus>
<clus scale="  460.392">  4  5 -1 -1</clus>
<clus scale="  300.000">  1  4  2 -1</clus>
</clustering>
</event>
<event>
 6    1  0.9678510E-012  0.3000000E+03  0.7818608E-02  0.1093470E+00
          1   -1    0    0  502    0  0.00000000000E+00  0.00000000000E+00  0.24350403704E+03  0.24350403704E+03  0.00000000000E+00 0.  1.
         13   -1    0    0    0    0 -0.00000000000E+00 -0.00000000000E+00 -0.27500000000E+03  0.27500000000E+03  0.00000000000E+00 0.  1.
    9000005    2    1    2  501    0 -0.24625404551E+02  0.28946046737E+02 -0.27079426950E+02  0.48024452893E+03  0.47797199503E+03 0.  0.
         13    1    3    3    0    0 -0.13269763023E+03  0.38991551758E+02  0.19148688497E+03  0.23621225475E+03  0.00000000000E+00 0.  1.
          1    1    3    3  501    0  0.10807222568E+03 -0.10045505021E+02 -0.21856631192E+03  0.24403227418E+03  0.00000000000E+00 0.  1.
         21    1    1    2  502  501  0.24625404551E+02 -0.28946046737E+02 -0.44165360075E+01  0.38259508116E+02  0.00000000000E+00 0.  1.
<scales pt_clust_4="550.00000" pt_clust_5="550.00000" pt_clust_6="38.00376"></scales>
<mgrwt>
<rscale>  0 0.30000000E+03</rscale>
<asrwt>  1 0.38003758E+02</asrwt>
<pdfrwt beam="1">  1        1 0.88546923E+00 0.30000000E+03</pdfrwt>
<pdfrwt beam="2">0</pdfrwt>
<totfact> 0.16467294E-04</totfact>
</mgrwt>
<clustering>
<clus scale="   38.004">  1  6  2 -1</clus>
<clus scale="  477.972">  4  5 -1 -1</clus>
<clus scale="  300.000">  1  4  2 -1</clus>
</clustering>
</event>
<event>
 6    1  0.9678510E-012  0.3000000E+03  0.7818608E-02  0.1093470E+00
          1   -1    0    0  502    0  0.00000000000E+00  0.00000000000E+00  0.23896662160E+03  0.23896662160E+03  0.00000000000E+00 0.  1.
         13   -1    0    0    0    0 -0.00000000000E+00 -0.00000000000E+00 -0.27500000000E+03  0.27500000000E+03  0.00000000000E+00 0.  1.
    9000005    2    1    2  501    0  0.32492557870E+02 -0.33075984100E+01 -0.46737760993E+02  0.47959671716E+03  0.47619521867E+03 0.  0.
         13    1    3    3    0    0  0.14830197560E+02  0.13353270933E+02 -0.26210575332E+03  0.26286435766E+03  0.00000000000E+00 0.  1.
          3    1    3    3  501    0  0.17662360311E+02 -0.16660869343E+02  0.21536799232E+03  0.21673235951E+03  0.00000000000E+00 0.  1.
         21    1    1    2  502  501 -0.32492557870E+02  0.33075984100E+01  0.10704382591E+02  0.34369904435E+02  0.00000000000E+00 0.  1.
<scales pt_clust_4="550.00000" pt_clust_5="550.00000" pt_clust_6="32.66047"></scales>
<mgrwt>
<rscale>  0 0.30000000E+03</rscale>
<asrwt>  1 0.32660473E+02</asrwt>
<pdfrwt beam="1">  1        1 0.86896953E+00 0.30000000E+03</pdfrwt>
<pdfrwt beam="2">0</pdfrwt>
<totfact> 0.26289105E-04</totfact>
</mgrwt>
<clustering>
<clus scale="   32.660">  1  6  2 -1</clus>
<clus scale="  476.195">  4  5 -1 -1</clus>
<clus scale="  300.000">  1  4  2 -1</clus>
</clustering>
</event>
<event>
 6    1  0.9678510E-012  0.3000000E+03  0.7818608E-02  0.1093470E+00
          1   -1    0    0  502    0  0.00000000000E+00  0.00000000000E+00  0.24974560914E+03  0.24974560914E+03  0.00000000000E+00 0.  1.
         13   -1    0    0    0    0 -0.00000000000E+00 -0.00000000000E+00 -0.27500000000E+03  0.27500000000E+03  0.00000000000E+00 0.  1.
    9000005    2    1    2  501    0 -0.55702115019E+01 -0.32055659461E+02 -0.50754266873E+02  0.48340753666E+03  0.47963346248E+03 0.  0.
         13    1    3    3    0    0  0.42037408943E+02 -0.16824767763E+03  0.15467595068E+03  0.23237700939E+03  0.00000000000E+00 0.  1.
          3    1    3    3  501    0 -0.47607620445E+02  0.13619201817E+03 -0.20543021755E+03  0.25103052727E+03  0.00000000000E+00 0.  1.
         21    1    1    2  502  501  0.55702115019E+01  0.32055659461E+02  0.25499876010E+02  0.41338072478E+02  0.00000000000E+00 0.  1.
<scales pt_clust_4="550.00000" pt_clust_5="550.00000" pt_clust_6="32.53602"></scales>
<mgrwt>
<rscale>  0 0.30000000E+03</rscale>
<asrwt>  1 0.32536019E+02</asrwt>
<pdfrwt beam="1">  1        1 0.90816585E+00 0.30000000E+03</pdfrwt>
<pdfrwt beam="2">0</pdfrwt>
<totfact> 0.80483761E-05</totfact>
</mgrwt>
<clustering>
<clus scale="   32.536">  1  6  2 -1</clus>
<clus scale="  479.633">  4  5 -1 -1</clus>
<clus scale="  300.000">  1  4  2 -1</clus>
</clustering>
</event>
<event>
 6    1  0.9678510E-012  0.3000000E+03  0.7818608E-02  0.1093470E+00
          1   -1    0    0  502    0  0.00000000000E+00  0.00000000000E+00  0.23198774655E+03  0.23198774655E+03  0.00000000000E+00 0.  1.
         13   -1    0    0    0    0 -0.00000000000E+00 -0.00000000000E+00 -0.27500000000E+03  0.27500000000E+03  0.00000000000E+00 0.  1.
    9000005    2    1    2  501    0  0.19514479222E+02 -0.23830656862E+02 -0.67399455893E+02  0.46770097080E+03  0.46179302326E+03 0.  0.
         13    1    3    3    0    0  0.12764551445E+03  0.17347656316E+03  0.38895519254E+02  0.21886150128E+03  0.00000000000E+00 0.  1.
          3    1    3    3  501    0 -0.10813103523E+03 -0.19730722002E+03 -0.10629497515E+03  0.24883946952E+03  0.00000000000E+00 0.  1.
         21    1    1    2  502  501 -0.19514479222E+02  0.23830656862E+02  0.24387202444E+02  0.39286775750E+02  0.00000000000E+00 0. -1.
<scales pt_clust_4="550.00000" pt_clust_5="550.00000" pt_clust_6="30.80122"></scales>
<mgrwt>
<rscale>  0 0.30000000E+03</rscale>
<asrwt>  1 0.30801219E+02</asrwt>
<pdfrwt beam="1">  1        1 0.84359181E+00 0.30000000E+03</pdfrwt>
<pdfrwt beam="2">0</pdfrwt>
<totfact> 0.47602451E-04</totfact>
</mgrwt>
<clustering>
<clus scale="   30.801">  1  6  2 -1</clus>
<clus scale="  461.793">  4  5 -1 -1</clus>
<clus scale="  300.000">  1  4  2 -1</clus>
</clustering>
</event>
<event>
 6    1  0.9678510E-012  0.3000000E+03  0.7818608E-02  0.1093470E+00
          1   -1    0    0  502    0  0.00000000000E+00  0.00000000000E+00  0.23887398335E+03  0.23887398335E+03  0.00000000000E+00 0.  1.
         13   -1    0    0    0    0 -0.00000000000E+00 -0.00000000000E+00 -0.27500000000E+03  0.27500000000E+03  0.00000000000E+00 0.  1.
    9000005    2    1    2  501    0  0.30813625078E+02 -0.11258472674E+02 -0.43931572189E+02  0.48015218929E+03  0.47701143503E+03 0.  0.
         13    1    3    3    0    0  0.18238982192E+03  0.13581749633E+03  0.72882031872E+02  0.23879746653E+03  0.00000000000E+00 0.  1.
          1    1    3    3  501    0 -0.15157619684E+03 -0.14707596901E+03 -0.11681360406E+03  0.24135472277E+03  0.00000000000E+00 0.  1.
         21    1    1    2  502  501 -0.30813625078E+02  0.11258472674E+02  0.78055555441E+01  0.33721794062E+02  0.00000000000E+00 0. -1.
<scales pt_clust_4="550.00000" pt_clust_5="550.00000" pt_clust_6="32.80599"></scales>
<mgrwt>
<rscale>  0 0.30000000E+03</rscale>
<asrwt>  1 0.32805986E+02</asrwt>
<pdfrwt beam="1">  1        1 0.86863267E+00 0.30000000E+03</pdfrwt>
<pdfrwt beam="2">0</pdfrwt>
<totfact> 0.26477831E-04</totfact>
</mgrwt>
<clustering>
<clus scale="   32.806">  1  6  2 -1</clus>
<clus scale="  477.011">  4  5 -1 -1</clus>
<clus scale="  300.000">  1  4  2 -1</clus>
</clustering>
</event>
<event>
 6    1  0.9678510E-012  0.3000000E+03  0.7818608E-02  0.1093470E+00
          1   -1    0    0  502    0  0.00000000000E+00  0.00000000000E+00  0.22420291885E+03  0.22420291885E+03  0.00000000000E+00 0.  1.
         13   -1    0    0    0    0 -0.00000000000E+00 -0.00000000000E+00 -0.27500000000E+03  0.27500000000E+03  0.00000000000E+00 0.  1.
    9000005    2    1    2  501    0 -0.27234432806E+02  0.21654034512E+02 -0.61877642848E+02  0.46268730043E+03  0.45720901539E+03 0.  0.
         13    1    3    3    0    0 -0.76636159765E+02  0.78172153216E+02  0.17931129977E+03  0.21008695520E+03  0.00000000000E+00 0.  1.
          1    1    3    3  501    0  0.49401726959E+02 -0.56518118704E+02 -0.24118894262E+03  0.25260034523E+03  0.00000000000E+00 0.  1.
         21    1    1    2  502  501  0.27234432806E+02 -0.21654034512E+02  0.11080561698E+02  0.36515618419E+02  0.00000000000E+00 0.  1.
<scales pt_clust_4="550.00000" pt_clust_5="550.00000" pt_clust_6="34.79384"></scales>
<mgrwt>
<rscale>  0 0.30000000E+03</rscale>
<asrwt>  1 0.34793843E+02</asrwt>
<pdfrwt beam="1">  1        1 0.81528334E+00 0.30000000E+03</pdfrwt>
<pdfrwt beam="2">0</pdfrwt>
<totfact> 0.79272684E-04</totfact>
</mgrwt>
<clustering>
<clus scale="   34.794">  1  6  2 -1</clus>
<clus scale="  457.209">  4  5 -1 -1</clus>
<clus scale="  300.000">  1  4  2 -1</clus>
</clustering>
</event>
<event>
 6    1  0.9678510E-012  0.3000000E+03  0.7818608E-02  0.1093470E+00
          1   -1    0    0  502    0  0.00000000000E+00  0.00000000000E+00  0.24135147371E+03  0.24135147371E+03  0.00000000000E+00 0.  1.
         13   -1    0    0    0    0 -0.00000000000E+00 -0.00000000000E+00 -0.27500000000E+03  0.27500000000E+03  0.00000000000E+00 0.  1.
    9000005    2    1    2  501    0 -0.12469544772E+02 -0.28551945209E+02 -0.33153053866E+02  0.48519142533E+03  0.48305371452E+03 0.  0.
         13    1    3    3    0    0  0.17539104152E+02  0.12686192134E+03 -0.21117691064E+03  0.24697622324E+03  0.00000000000E+00 0.  1.
          3    1    3    3  501    0 -0.30008648924E+02 -0.15541386655E+03  0.17802385677E+03  0.23821520209E+03  0.00000000000E+00 0.  1.
         21    1    1    2  502  501  0.12469544772E+02  0.28551945209E+02 -0.49547242069E+00  0.31160048378E+02  0.00000000000E+00 0. -1.
<scales pt_clust_4="550.00000" pt_clust_5="550.00000" pt_clust_6="31.15611"></scales>
<mgrwt>
<rscale>  0 0.30000000E+03</rscale>
<asrwt>  1 0.31156109E+02</asrwt>
<pdfrwt beam="1">  1        1 0.87764172E+00 0.30000000E+03</pdfrwt>
<pdfrwt beam="2">0</pdfrwt>
<totfact> 0.21515340E-04</totfact>
</mgrwt>
<clustering>
<clus scale="   31.156">  1  6  2 -1</clus>
<clus scale="  483.054">  4  5 -1 -1</clus>
<clus scale="  300.000">  1  4  2 -1</clus>
</clustering>
</event>
<event>
 6    1  0.9678510E-012  0.3000000E+03  0.7818608E-02  0.1093470E+00
          1   -1    0    0  502    0  0.00000000000E+00  0.00000000000E+00  0.21684887252E+03  0.21684887252E+03  0.00000000000E+00 0.  1.
         13   -1    0    0    0    0 -0.00000000000E+00 -0.00000000000E+00 -0.27500000000E+03  0.27500000000E+03  0.00000000000E+00 0.  1.
    9000005    2    1    2  501    0  0.29080949118E+02 -0.10320290694E+02 -0.52082439874E+02  0.46039988254E+03  0.45640252114E+03 0.  0.
         13    1    3    3    0    0 -0.19987172375E+03  0.61097008600E+02  0.20033701930E+02  0.20995928088E+03  0.00000000000E+00 0.  1.
          1    1    3    3  501    0  0.22895267287E+03 -0.71417299294E+02 -0.72116141804E+02  0.25044060166E+03  0.00000000000E+00 0.  1.
         21    1    1    2  502  501 -0.29080949118E+02  0.10320290694E+02 -0.60686876017E+01  0.31448989981E+02  0.00000000000E+00 0. -1.
<scales pt_clust_4="550.00000" pt_clust_5="550.00000" pt_clust_6="30.85792"></scales>
<mgrwt>
<rscale>  0 0.30000000E+03</rscale>
<asrwt>  1 0.30857916E+02</asrwt>
<pdfrwt beam="1">  1        1 0.78854135E+00 0.30000000E+03</pdfrwt>
<pdfrwt beam="2">0</pdfrwt>
<totfact> 0.12971151E-03</totfact>
</mgrwt>
<clustering>
<clus scale="   30.858">  1  6  2 -1</clus>
<clus scale="  456.403">  4  5 -1 -1</clus>
<clus scale="  300.000">  1  4  2 -1</clus>
</clustering>
</event>
<event>
 6    1  0.9678510E-012  0.3000000E+03  0.7818608E-02  0.1093470E+00
          1   -1    0    0  502    0  0.00000000000E+00  0.00000000000E+00  0.23602590741E+03  0.23602590741E+03  0.00000000000E+00 0.  1.
         13   -1    0    0    0    0 -0.00000000000E+00 -0.00000000000E+00 -0.27500000000E+03  0.27500000000E+03  0.00000000000E+00 0.  1.
    9000005    2    1    2  501    0 -0.37759603557E+01  0.33634299615E+02 -0.59268135654E+02  0.47156235244E+03  0.46659705994E+03 0.  0.
         13    1    3    3    0    0 -0.60313588142E+02 -0.18823296186E+03 -0.12436617083E+03  0.23353012930E+03  0.00000000000E+00 0.  1.
          1    1    3    3  501    0  0.56537627787E+02  0.22186726147E+03  0.65098035174E+02  0.23803222314E+03  0.00000000000E+00 0.  1.
         21    1    1    2  502  501  0.37759603557E+01 -0.33634299615E+02  0.20294043066E+02  0.39463554973E+02  0.00000000000E+00 0. -1.
<scales pt_clust_4="550.00000" pt_clust_5="550.00000" pt_clust_6="33.84559"></scales>
<mgrwt>
<rscale>  0 0.30000000E+03</rscale>
<asrwt>  1 0.33845590E+02</asrwt>
<pdfrwt beam="1">  1        1 0.85827603E+00 0.30000000E+03</pdfrwt>
<pdfrwt beam="2">0</pdfrwt>
<totfact> 0.33946041E-04</totfact>
</mgrwt>
<clustering>
<clus scale="   33.846">  1  6  2 -1</clus>
<clus scale="  466.597">  4  5 -1 -1</clus>
<clus scale="  300.000">  1  4  2 -1</clus>
</clustering>
</event>
<event>
 6    1  0.9678510E-012  0.3000000E+03  0.7818608E-02  0.1093470E+00
          1   -1    0    0  502    0  0.00000000000E+00  0.00000000000E+00  0.24329795046E+03  0.24329795046E+03  0.00000000000E+00 0.  1.
         13   -1    0    0    0    0 -0.00000000000E+00 -0.00000000000E+00 -0.27500000000E+03  0.27500000000E+03  0.00000000000E+00 0.  1.
    9000005    2    1    2  501    0  0.27656639627E+02  0.16107275414E+02  0.14019040591E+02  0.46248798611E+03  0.46116620622E+03 0.  0.
         13    1    3    3    0    0  0.14971038143E+03 -0.10924815437E+03  0.15197871321E+03  0.23967871581E+03  0.00000000000E+00 0.  1.
          3    1    3    3  501    0 -0.12205374180E+03  0.12535542979E+03 -0.13795967262E+03  0.22280927031E+03  0.00000000000E+00 0.  1.
         21    1    1    2  502  501 -0.27656639627E+02 -0.16107275414E+02 -0.45721090136E+02  0.55809964343E+02  0.00000000000E+00 0. -1.
<scales pt_clust_4="550.00000" pt_clust_5="550.00000" pt_clust_6="32.00523"></scales>
<mgrwt>
<rscale>  0 0.30000000E+03</rscale>
<asrwt>  1 0.32005235E+02</asrwt>
<pdfrwt beam="1">  1        1 0.88471982E+00 0.30000000E+03</pdfrwt>
<pdfrwt beam="2">0</pdfrwt>
<totfact> 0.17412496E-04</totfact>
</mgrwt>
<clustering>
<clus scale="   32.005">  1  6  2 -1</clus>
<clus scale="  461.166">  4  5 -1 -1</clus>
<clus scale="  300.000">  1  4  2 -1</clus>
</clustering>
</event>
<event>
 6    1  0.9678510E-012  0.3000000E+03  0.7818608E-02  0.1093470E+00
          1   -1    0    0  502    0  0.00000000000E+00  0.00000000000E+00  0.22907457324E+03  0.22907457324E+03  0.00000000000E+00 0.  1.
         13   -1    0    0    0    0 -0.00000000000E+00 -0.00000000000E+00 -0.27500000000E+03  0.27500000000E+03  0.00000000000E+00 0.  1.
    9000005    2    1    2  501    0 -0.24689687577E+02  0.21127170658E+02 -0.32939870164E+02  0.46908082105E+03  0.46679314864E+03 0.  0.
         13    1    3    3    0    0  0.20811931488E+03  0.47064686179E+02 -0.84030198135E+02  0.22932467837E+03  0.00000000000E+00 0.  1.
          3    1    3    3  501    0 -0.23280900246E+03 -0.25937515521E+02  0.51090327971E+02  0.23975614267E+03  0.00000000000E+00 0.  1.
         21    1    1    2  502  501  0.24689687577E+02 -0.21127170658E+02 -0.12985556594E+02  0.34993752196E+02  0.00000000000E+00 0. -1.
<scales pt_clust_4="550.00000" pt_clust_5="550.00000" pt_clust_6="32.49522"></scales>
<mgrwt>
<rscale>  0 0.30000000E+03</rscale>
<asrwt>  1 0.32495216E+02</asrwt>
<pdfrwt beam="1">  1        1 0.83299845E+00 0.30000000E+03</pdfrwt>
<pdfrwt beam="2">0</pdfrwt>
<totfact> 0.56765364E-04</totfact>
</mgrwt>
<clustering>
<clus scale="   32.495">  1  6  2 -1</clus>
<clus scale="  466.793">  4  5 -1 -1</clus>
<clus scale="  300.000">  1  4  2 -1</clus>
</clustering>
</event>
<event>
 6    1  0.9678510E-012  0.3000000E+03  0.7818608E-02  0.1093470E+00
          1   -1    0    0  502    0  0.00000000000E+00  0.00000000000E+00  0.23233728389E+03  0.23233728389E+03  0.00000000000E+00 0.  1.
         13   -1    0    0    0    0 -0.00000000000E+00 -0.00000000000E+00 -0.27500000000E+03  0.27500000000E+03  0.00000000000E+00 0.  1.
    9000005    2    1    2  501    0 -0.23896904044E+02 -0.26449337204E+02 -0.49661786190E+02  0.47101075854E+03  0.46702699301E+03 0.  0.
         13    1    3    3    0    0 -0.52013402202E+01  0.14985550394E+03 -0.19202526524E+03  0.24363379998E+03  0.00000000000E+00 0.  1.
          1    1    3    3  501    0 -0.18695563823E+02 -0.17630484114E+03  0.14236347905E+03  0.22737695856E+03  0.00000000000E+00 0.  1.
         21    1    1    2  502  501  0.23896904044E+02  0.26449337204E+02  0.69990700760E+01  0.36326525341E+02  0.00000000000E+00 0.  1.
<scales pt_clust_4="550.00000" pt_clust_5="550.00000" pt_clust_6="35.64589"></scales>
<mgrwt>
<rscale>  0 0.30000000E+03</rscale>
<asrwt>  1 0.35645890E+02</asrwt>
<pdfrwt beam="1">  1        1 0.84486285E+00 0.30000000E+03</pdfrwt>
<pdfrwt beam="2">0</pdfrwt>
<totfact> 0.45152739E-04</totfact>
</mgrwt>
<clustering>
<clus scale="   35.646">  1  6  2 -1</clus>
<clus scale="  467.027">  4  5 -1 -1</clus>
<clus scale="  300.000">  1  4  2 -1</clus>
</clustering>
</event>
<event>
 6    1  0.9678510E-012  0.3000000E+03  0.7818608E-02  0.1093470E+00
          1   -1    0    0  502    0  0.00000000000E+00  0.00000000000E+00  0.25485454387E+03  0.25485454387E+03  0.00000000000E+00 0.  1.
         13   -1    0    0    0    0 -0.00000000000E+00 -0.00000000000E+00 -0.27500000000E+03  0.27500000000E+03  0.00000000000E+00 0.  1.
    9000005    2    1    2  501    0  0.56841729148E+01 -0.37264597678E+02 -0.43579231601E+02  0.48546871398E+03  0.48203709688E+03 0.  0.
         13    1    3    3    0    0 -0.36905456264E+02 -0.16678355911E+03  0.16420715448E+03  0.23694463039E+03  0.00000000000E+00 0.  1.
          3    1    3    3  501    0  0.42589629179E+02  0.12951896143E+03 -0.20778638608E+03  0.24852408359E+03  0.00000000000E+00 0.  1.
         21    1    1    2  502  501 -0.56841729148E+01  0.37264597678E+02  0.23433775468E+02  0.44385829884E+02  0.00000000000E+00 0.  1.
<scales pt_clust_4="550.00000" pt_clust_5="550.00000" pt_clust_6="37.69562"></scales>
<mgrwt>
<rscale>  0 0.30000000E+03</rscale>
<asrwt>  1 0.37695624E+02</asrwt>
<pdfrwt beam="1">  1        1 0.92674380E+00 0.30000000E+03</pdfrwt>
<pdfrwt beam="2">0</pdfrwt>
<totfact> 0.29776038E-05</totfact>
</mgrwt>
<clustering>
<clus scale="   37.696">  1  6  2 -1</clus>
<clus scale="  482.037">  4  5 -1 -1</clus>
<clus scale="  300.000">  1  4  2 -1</clus>
</clustering>
</event>
<event>
 6    1  0.9678510E-012  0.3000000E+03  0.7818608E-02  0.1093470E+00
          1   -1    0    0  502    0  0.00000000000E+00  0.00000000000E+00  0.26619686467E+03  0.26619686467E+03  0.00000000000E+00 0.  1.
         13   -1    0    0    0    0 -0.00000000000E+00 -0.00000000000E+00 -0.27500000000E+03  0.27500000000E+03  0.00000000000E+00 0.  1.
    9000005    2    1    2  501    0 -0.31546296005E+02  0.82711945942E+01 -0.22755507409E+02  0.50572504292E+03  0.50415912614E+03 0.  0.
         13    1    3    3    0    0 -0.19017723367E+03  0.13442859045E+03 -0.13984619853E+03  0.27165306069E+03  0.00000000000E+00 0.  1.
          3    1    3    3  501    0  0.15863093767E+03 -0.12615739586E+03  0.11709069112E+03  0.23407198223E+03  0.00000000000E+00 0.  1.
         21    1    1    2  502  501  0.31546296005E+02 -0.82711945942E+01  0.13952372081E+02  0.35471821751E+02  0.00000000000E+00 0.  1.
<scales pt_clust_4="550.00000" pt_clust_5="550.00000" pt_clust_6="32.61260"></scales>
<mgrwt>
<rscale>  0 0.30000000E+03</rscale>
<asrwt>  1 0.32612597E+02</asrwt>
<pdfrwt beam="1">  1        1 0.96798860E+00 0.30000000E+03</pdfrwt>
<pdfrwt beam="2">0</pdfrwt>
<totfact> 0.53739602E-06</totfact>
</mgrwt>
<clustering>
<clus scale="   32.613">  1  6  2 -1</clus>
<clus scale="  504.159">  4  5 -1 -1</clus>
<clus scale="  300.000">  1  4  2 -1</clus>
</clustering>
</event>
<event>
 6    1  0.9678510E-012  0.3000000E+03  0.7818608E-02  0.1093470E+00
          1   -1    0    0  502    0  0.00000000000E+00  0.00000000000E+00  0.23944992759E+03  0.23944992759E+03  0.00000000000E+00 0.  1.
         13   -1    0    0    0    0 -0.00000000000E+00 -0.00000000000E+00 -0.27500000000E+03  0.27500000000E+03  0.00000000000E+00 0.  1.
    9000005    2    1    2  501    0 -0.13847704632E+02  0.28637722747E+02 -0.55649832797E+02  0.47682176719E+03  0.47249361444E+03 0.  0.
         13    1    3    3    0    0  0.49826575127E+02 -0.13807892926E+03  0.14634698205E+03  0.20728221691E+03  0.00000000000E+00 0.  1.
          1    1    3    3  501    0 -0.63674279759E+02  0.16671665200E+03 -0.20199681484E+03  0.26953955028E+03  0.00000000000E+00 0.  1.
         21    1    1    2  502  501  0.13847704632E+02 -0.28637722747E+02  0.20099760390E+02  0.37628160405E+02  0.00000000000E+00 0.  1.
<scales pt_clust_4="550.00000" pt_clust_5="550.00000" pt_clust_6="31.81003"></scales>
<mgrwt>
<rscale>  0 0.30000000E+03</rscale>
<asrwt>  1 0.31810031E+02</asrwt>
<pdfrwt beam="1">  1        1 0.87072701E+00 0.30000000E+03</pdfrwt>
<pdfrwt beam="2">0</pdfrwt>
<totfact> 0.25348742E-04</totfact>
</mgrwt>
<clustering>
<clus scale="   31.810">  1  6  2 -1</clus>
<clus scale="  472.494">  4  5 -1 -1</clus>
<clus scale="  300.000">  1  4  2 -1</clus>
</clustering>
</event>
<event>
 6    1  0.9678510E-012  0.3000000E+03  0.7818608E-02  0.1093470E+00
          1   -1    0    0  502    0  0.00000000000E+00  0.00000000000E+00  0.23043052302E+03  0.23043052302E+03  0.00000000000E+00 0.  1.
         13   -1    0    0    0    0 -0.00000000000E+00 -0.00000000000E+00 -0.27500000000E+03  0.27500000000E+03  0.00000000000E+00 0.  1.
    9000005    2    1    2  501    0 -0.30421992634E+02 -0.50093727124E+01 -0.68191941724E+02  0.46658966449E+03  0.46054878422E+03 0.  0.
         13    1    3    3    0    0  0.14809986581E+02 -0.62016750709E+01  0.19695563923E+03  0.19760900865E+03  0.00000000000E+00 0.  1.
          1    1    3    3  501    0 -0.45231979214E+02  0.11923023585E+01 -0.26514758096E+03  0.26898065584E+03  0.00000000000E+00 0.  1.
         21    1    1    2  502  501  0.30421992634E+02  0.50093727124E+01  0.23622464748E+02  0.38840858533E+02  0.00000000000E+00 0.  1.
<scales pt_clust_4="550.00000" pt_clust_5="550.00000" pt_clust_6="30.83166"></scales>
<mgrwt>
<rscale>  0 0.30000000E+03</rscale>
<asrwt>  1 0.30831663E+02</asrwt>
<pdfrwt beam="1">  1        1 0.83792917E+00 0.30000000E+03</pdfrwt>
<pdfrwt beam="2">0</pdfrwt>
<totfact> 0.52759859E-04</totfact>
</mgrwt>
<clustering>
<clus scale="   30.832">  1  6  2 -1</clus>
<clus scale="  460.549">  4  5 -1 -1</clus>
<clus scale="  300.000">  1  4  2 -1</clus>
</clustering>
</event>
<event>
 6    1  0.9678510E-012  0.3000000E+03  0.7818608E-02  0.1093470E+00
          1   -1    0    0  502    0  0.00000000000E+00  0.00000000000E+00  0.22145786578E+03  0.22145786578E+03  0.00000000000E+00 0.  1.
         13   -1    0    0    0    0 -0.00000000000E+00 -0.00000000000E+00 -0.27500000000E+03  0.27500000000E+03  0.00000000000E+00 0.  1.
    9000005    2    1    2  501    0  0.25344911200E+02  0.16752103646E+02 -0.57877200393E+02  0.46576926367E+03  0.46115966775E+03 0.  0.
         13    1    3    3    0    0  0.17666127374E+03 -0.13758949482E+03  0.41735889104E+02  0.22777611632E+03  0.00000000000E+00 0.  1.
          1    1    3    3  501    0 -0.15131636254E+03  0.15434159847E+03 -0.99613089496E+02  0.23799314736E+03  0.00000000000E+00 0.  1.
         21    1    1    2  502  501 -0.25344911200E+02 -0.16752103646E+02  0.43350661681E+01  0.30688602102E+02  0.00000000000E+00 0.  1.
<scales pt_clust_4="550.00000" pt_clust_5="550.00000" pt_clust_6="30.38087"></scales>
<mgrwt>
<rscale>  0 0.30000000E+03</rscale>
<asrwt>  1 0.30380874E+02</asrwt>
<pdfrwt beam="1">  1        1 0.80530133E+00 0.30000000E+03</pdfrwt>
<pdfrwt beam="2">0</pdfrwt>
<totfact> 0.97371824E-04</totfact>
</mgrwt>
<clustering>
<clus scale="   30.381">  1  6  2 -1</clus>
<clus scale="  461.160">  4  5 -1 -1</clus>
<clus scale="  300.000">  1  4  2 -1</clus>
</clustering>
</event>
<event>
 6    1  0.9678510E-012  0.3000000E+03  0.7818608E-02  0.1093470E+00
          1   -1    0    0  502    0  0.00000000000E+00  0.00000000000E+00  0.22592458070E+03  0.22592458070E+03  0.00000000000E+00 0.  1.
         13   -1    0    0    0    0 -0.00000000000E+00 -0.00000000000E+00 -0.27500000000E+03  0.27500000000E+03  0.00000000000E+00 0.  1.
    9000005    2    1    2  501    0  0.64716412007E+01  0.30033281560E+02 -0.48613203672E+02  0.47019847154E+03  0.46666848932E+03 0.  0.
         13    1    3    3    0    0  0.28933475654E+02  0.79669539556E+02  0.19919138684E+03  0.21647537998E+03  0.00000000000E+00 0.  1.
          3    1    3    3  501    0 -0.22461834453E+02 -0.49636257996E+02 -0.24780459051E+03  0.25372309156E+03  0.00000000000E+00 0.  1.
         21    1    1    2  502  501 -0.64716412007E+01 -0.30033281560E+02 -0.46221562400E+00  0.30726109165E+02  0.00000000000E+00 0.  1.
<scales pt_clust_4="550.00000" pt_clust_5="550.00000" pt_clust_6="30.72263"></scales>
<mgrwt>
<rscale>  0 0.30000000E+03</rscale>
<asrwt>  1 0.30722632E+02</asrwt>
<pdfrwt beam="1">  1        1 0.82154393E+00 0.30000000E+03</pdfrwt>
<pdfrwt beam="2">0</pdfrwt>
<totfact> 0.71866757E-04</totfact>
</mgrwt>
<clustering>
<clus scale="   30.723">  1  6  2 -1</clus>
<clus scale="  466.668">  4  5 -1 -1</clus>
<clus scale="  300.000">  1  4  2 -1</clus>
</clustering>
</event>
<event>
 6    1  0.9678510E-012  0.3000000E+03  0.7818608E-02  0.1093470E+00
          1   -1    0    0  502    0  0.00000000000E+00  0.00000000000E+00  0.22685289122E+03  0.22685289122E+03  0.00000000000E+00 0.  1.
         13   -1    0    0    0    0 -0.00000000000E+00 -0.00000000000E+00 -0.27500000000E+03  0.27500000000E+03  0.00000000000E+00 0.  1.
    9000005    2    1    2  501    0 -0.18097223308E+02 -0.34890715644E+02 -0.56623110977E+02  0.46164450723E+03  0.45646971732E+03 0.  0.
         13    1    3    3    0    0 -0.13413617135E+03 -0.19962496865E+03  0.29893793245E+02  0.24235568788E+03  0.00000000000E+00 0.  1.
          3    1    3    3  501    0  0.11603894805E+03  0.16473425300E+03 -0.86516904222E+02  0.21928881935E+03  0.00000000000E+00 0.  1.
         21    1    1    2  502  501  0.18097223308E+02  0.34890715644E+02  0.84760021962E+01  0.40208383987E+02  0.00000000000E+00 0. -1.
<scales pt_clust_4="550.00000" pt_clust_5="550.00000" pt_clust_6="39.30485"></scales>
<mgrwt>
<rscale>  0 0.30000000E+03</rscale>
<asrwt>  1 0.39304854E+02</asrwt>
<pdfrwt beam="1">  1        1 0.82491960E+00 0.30000000E+03</pdfrwt>
<pdfrwt beam="2">0</pdfrwt>
<totfact> 0.64035699E-04</totfact>
</mgrwt>
<clustering>
<clus scale="   39.305">  1  6  2 -1</clus>
<clus scale="  456.470">  4  5 -1 -1</clus>
<clus scale="  300.000">  1  4  2 -1</clus>
</clustering>
</event>
<event>
 6    1  0.9678510E-012  0.3000000E+03  0.7818608E-02  0.1093470E+00
          1   -1    0    0  502    0  0.00000000000E+00  0.00000000000E+00  0.21912876257E+03  0.21912876257E+03  0.00000000000E+00 0.  1.
         13   -1    0    0    0    0 -0.00000000000E+00 -0.00000000000E+00 -0.27500000000E+03  0.27500000000E+03  0.00000000000E+00 0.  1.
    9000005    2    1    2  501    0  0.24180989923E+01  0.31147696997E+02 -0.54771032849E+02  0.46286797753E+03  0.45855302022E+03 0.  0.
         13    1    3    3    0    0  0.10305497199E+03  0.16411476261E+03  0.11463606973E+03  0.22515641461E+03  0.00000000000E+00 0.  1.
          3    1    3    3  501    0 -0.10063687300E+03 -0.13296706561E+03 -0.16940710258E+03  0.23771156292E+03  0.00000000000E+00 0.  1.
         21    1    1    2  502  501 -0.24180989923E+01 -0.31147696997E+02 -0.11002045829E+01  0.31260785036E+02  0.00000000000E+00 0. -1.
<scales pt_clust_4="550.00000" pt_clust_5="550.00000" pt_clust_6="31.24142"></scales>
<mgrwt>
<rscale>  0 0.30000000E+03</rscale>
<asrwt>  1 0.31241419E+02</asrwt>
<pdfrwt beam="1">  1        1 0.79683186E+00 0.30000000E+03</pdfrwt>
<pdfrwt beam="2">0</pdfrwt>
<totfact> 0.11171806E-03</totfact>
</mgrwt>
<clustering>
<clus scale="   31.241">  1  6  2 -1</clus>
<clus scale="  458.553">  4  5 -1 -1</clus>
<clus scale="  300.000">  1  4  2 -1</clus>
</clustering>
</event>
<event>
 6    1  0.9678510E-012  0.3000000E+03  0.7818608E-02  0.1093470E+00
          1   -1    0    0  502    0  0.00000000000E+00  0.00000000000E+00  0.23747487578E+03  0.23747487578E+03  0.00000000000E+00 0.  1.
         13   -1    0    0    0    0 -0.00000000000E+00 -0.00000000000E+00 -0.27500000000E+03  0.27500000000E+03  0.00000000000E+00 0.  1.
    9000005    2    1    2  501    0 -0.18135967931E+02  0.32305229315E+02 -0.20724989387E+02  0.47179581847E+03  0.46988214263E+03 0.  0.
         13    1    3    3    0    0  0.20733923134E+03  0.36955242093E+02  0.79358657024E+02  0.22506230963E+03  0.00000000000E+00 0.  1.
          1    1    3    3  501    0 -0.22547519927E+03 -0.46500127775E+01 -0.10008364641E+03  0.24673350884E+03  0.00000000000E+00 0.  1.
         21    1    1    2  502  501  0.18135967931E+02 -0.32305229315E+02 -0.16800134828E+02  0.40679057316E+02  0.00000000000E+00 0.  1.
<scales pt_clust_4="550.00000" pt_clust_5="550.00000" pt_clust_6="37.04784"></scales>
<mgrwt>
<rscale>  0 0.30000000E+03</rscale>
<asrwt>  1 0.37047841E+02</asrwt>
<pdfrwt beam="1">  1        1 0.86354500E+00 0.30000000E+03</pdfrwt>
<pdfrwt beam="2">0</pdfrwt>
<totfact> 0.29310729E-04</totfact>
</mgrwt>
<clustering>
<clus scale="   37.048">  1  6  2 -1</clus>
<clus scale="  469.882">  4  5 -1 -1</clus>
<clus scale="  300.000">  1  4  2 -1</clus>
</clustering>
</event>
<event>
 6    1  0.9678510E-012  0.3000000E+03  0.7818608E-02  0.1093470E+00
          1   -1    0    0  502    0  0.00000000000E+00  0.00000000000E+00  0.23840269512E+03  0.23840269512E+03  0.00000000000E+00 0.  1.
         13   -1    0    0    0    0 -0.00000000000E+00 -0.00000000000E+00 -0.27500000000E+03  0.27500000000E+03  0.00000000000E+00 0.  1.
    9000005    2    1    2  501    0  0.45811815989E+01 -0.36075212667E+02 -0.55078133291E+02  0.47261116153E+03  0.46798002206E+03 0.  0.
         13    1    3    3    0    0 -0.10818772659E+03 -0.70856247629E+02  0.17289073743E+03  0.21590831179E+03  0.00000000000E+00 0.  1.
          3    1    3    3  501    0  0.11276890819E+03  0.34781034962E+02 -0.22796887072E+03  0.25670284974E+03  0.00000000000E+00 0.  1.
         21    1    1    2  502  501 -0.45811815989E+01  0.36075212667E+02  0.18480828416E+02  0.40791533592E+02  0.00000000000E+00 0.  1.
<scales pt_clust_4="550.00000" pt_clust_5="550.00000" pt_clust_6="36.36493"></scales>
<mgrwt>
<rscale>  0 0.30000000E+03</rscale>
<asrwt>  1 0.36364931E+02</asrwt>
<pdfrwt beam="1">  1        1 0.86691889E+00 0.30000000E+03</pdfrwt>
<pdfrwt beam="2">0</pdfrwt>
<totfact> 0.27061582E-04</totfact>
</mgrwt>
<clustering>
<clus scale="   36.365">  1  6  2 -1</clus>
<clus scale="  467.980">  4  5 -1 -1</clus>
<clus scale="  300.000">  1  4  2 -1</clus>
</clustering>
</event>
<event>
 6    1  0.9678510E-012  0.3000000E+03  0.7818608E-02  0.1093470E+00
          1   -1    0    0  502    0  0.00000000000E+00  0.00000000000E+00  0.22950942891E+03  0.22950942891E+03  0.00000000000E+00 0.  1.
         13   -1    0    0    0    0 -0.00000000000E+00 -0.00000000000E+00 -0.27500000000E+03  0.27500000000E+03  0.00000000000E+00 0.  1.
    9000005    2    1    2  501    0 -0.11091688368E+02 -0.31039329738E+02 -0.36316266898E+02  0.47029490862E+03  0.46773065357E+03 0.  0.
         13    1    3    3    0    0  0.14806461371E+03  0.86071689901E+02 -0.16229924270E+03  0.23595022742E+03  0.00000000000E+00 0.  1.
          3    1    3    3  501    0 -0.15915630208E+03 -0.11711101964E+03  0.12598297580E+03  0.23434468120E+03  0.00000000000E+00 0.  1.
         21    1    1    2  502  501  0.11091688368E+02  0.31039329738E+02 -0.91743041932E+01  0.34214520293E+02  0.00000000000E+00 0.  1.
<scales pt_clust_4="550.00000" pt_clust_5="550.00000" pt_clust_6="32.96159"></scales>
<mgrwt>
<rscale>  0 0.30000000E+03</rscale>
<asrwt>  1 0.32961593E+02</asrwt>
<pdfrwt beam="1">  1        1 0.83457974E+00 0.30000000E+03</pdfrwt>
<pdfrwt beam="2">0</pdfrwt>
<totfact> 0.55101688E-04</totfact>
</mgrwt>
<clustering>
<clus scale="   32.962">  1  6  2 -1</clus>
<clus scale="  467.731">  4  5 -1 -1</clus>
<clus scale="  300.000">  1  4  2 -1</clus>
</clustering>
</event>
<event>
 6    1  0.9678510E-012  0.3000000E+03  0.7818608E-02  0.1093470E+00
          1   -1    0    0  502    0  0.00000000000E+00  0.00000000000E+00  0.22911633355E+03  0.22911633355E+03  0.00000000000E+00 0.  1.
         13   -1    0    0    0    0 -0.00000000000E+00 -0.00000000000E+00 -0.27500000000E+03  0.27500000000E+03  0.00000000000E+00 0.  1.
    9000005    2    1    2  501    0  0.27351467239E+02 -0.17325116948E+02 -0.49371386564E+02  0.47155214111E+03  0.46784145342E+03 0.  0.
         13    1    3    3    0    0  0.11573996193E+03 -0.21297671911E+03 -0.78739385578E+02  0.25486214413E+03  0.00000000000E+00 0.  1.
          1    1    3    3  501    0 -0.88388494690E+02  0.19565160217E+03  0.29367999014E+02  0.21668999698E+03  0.00000000000E+00 0.  1.
         21    1    1    2  502  501 -0.27351467239E+02  0.17325116948E+02  0.34877201106E+01  0.32564192435E+02  0.00000000000E+00 0. -1.
<scales pt_clust_4="550.00000" pt_clust_5="550.00000" pt_clust_6="32.37688"></scales>
<mgrwt>
<rscale>  0 0.30000000E+03</rscale>
<asrwt>  1 0.32376881E+02</asrwt>
<pdfrwt beam="1">  1        1 0.83315030E+00 0.30000000E+03</pdfrwt>
<pdfrwt beam="2">0</pdfrwt>
<totfact> 0.56655284E-04</totfact>
</mgrwt>
<clustering>
<clus scale="   32.377">  1  6  2 -1</clus>
<clus scale="  467.841">  4  5 -1 -1</clus>
<clus scale="  300.000">  1  4  2 -1</clus>
</clustering>
</event>
<event>
 6    1  0.9678510E-012  0.3000000E+03  0.7818608E-02  0.1093470E+00
          1   -1    0    0  502    0  0.00000000000E+00  0.00000000000E+00  0.22924655775E+03  0.22924655775E+03  0.00000000000E+00 0.  1.
         13   -1    0    0    0    0 -0.00000000000E+00 -0.00000000000E+00 -0.27500000000E+03  0.27500000000E+03  0.00000000000E+00 0.  1.
    9000005    2    1    2  501    0  0.29816777461E+02 -0.54245892616E+01 -0.60125953931E+02  0.47070500921E+03  0.46586436757E+03 0.  0.
         13    1    3    3    0    0  0.17894197310E+03  0.26422676374E+02  0.13308682731E+03  0.22456734216E+03  0.00000000000E+00 0.  1.
          1    1    3    3  501    0 -0.14912519564E+03 -0.31847265636E+02 -0.19321278124E+03  0.24613766704E+03  0.00000000000E+00 0.  1.
         21    1    1    2  502  501 -0.29816777461E+02  0.54245892616E+01  0.14372511686E+02  0.33541548548E+02  0.00000000000E+00 0.  1.
<scales pt_clust_4="550.00000" pt_clust_5="550.00000" pt_clust_6="30.30621"></scales>
<mgrwt>
<rscale>  0 0.30000000E+03</rscale>
<asrwt>  1 0.30306210E+02</asrwt>
<pdfrwt beam="1">  1        1 0.83362385E+00 0.30000000E+03</pdfrwt>
<pdfrwt beam="2">0</pdfrwt>
<totfact> 0.56908975E-04</totfact>
</mgrwt>
<clustering>
<clus scale="   30.306">  1  6  2 -1</clus>
<clus scale="  465.864">  4  5 -1 -1</clus>
<clus scale="  300.000">  1  4  2 -1</clus>
</clustering>
</event>
<event>
 6    1  0.9678510E-012  0.3000000E+03  0.7818608E-02  0.1093470E+00
          1   -1    0    0  502    0  0.00000000000E+00  0.00000000000E+00  0.24007652337E+03  0.24007652337E+03  0.00000000000E+00 0.  1.
         13   -1    0    0    0    0 -0.00000000000E+00 -0.00000000000E+00 -0.27500000000E+03  0.27500000000E+03  0.00000000000E+00 0.  1.
    9000005    2    1    2  501    0 -0.73470577761E+01  0.50929480324E+02 -0.38092983432E+02  0.46352230922E+03  0.45907958409E+03 0.  0.
         13    1    3    3    0    0  0.83697594085E+02  0.39348267518E+02 -0.23158369941E+03  0.24936836857E+03  0.00000000000E+00 0.  1.
          3    1    3    3  501    0 -0.91044651862E+02  0.11581212806E+02  0.19349071598E+03  0.21415394064E+03  0.00000000000E+00 0.  1.
         21    1    1    2  502  501  0.73470577761E+01 -0.50929480324E+02  0.31695068061E+01  0.51554214158E+02  0.00000000000E+00 0. -1.
<scales pt_clust_4="550.00000" pt_clust_5="550.00000" pt_clust_6="51.45669"></scales>
<mgrwt>
<rscale>  0 0.30000000E+03</rscale>
<asrwt>  1 0.51456693E+02</asrwt>
<pdfrwt beam="1">  1        1 0.87300554E+00 0.30000000E+03</pdfrwt>
<pdfrwt beam="2">0</pdfrwt>
<totfact> 0.22008495E-04</totfact>
</mgrwt>
<clustering>
<clus scale="   51.457">  1  6  2 -1</clus>
<clus scale="  459.080">  4  5 -1 -1</clus>
<clus scale="  300.000">  1  4  2 -1</clus>
</clustering>
</event>
<event>
 6    1  0.9678510E-012  0.3000000E+03  0.7818608E-02  0.1093470E+00
          1   -1    0    0  502    0  0.00000000000E+00  0.00000000000E+00  0.24017118286E+03  0.24017118286E+03  0.00000000000E+00 0.  1.
         13   -1    0    0    0    0 -0.00000000000E+00 -0.00000000000E+00 -0.27500000000E+03  0.27500000000E+03  0.00000000000E+00 0.  1.
    9000005    2    1    2  501    0  0.34788981474E+02 -0.25078228082E+02 -0.54487616696E+02  0.46799429068E+03  0.46282887224E+03 0.  0.
         13    1    3    3    0    0 -0.20621786732E+03  0.20075855917E+02 -0.78623627910E+02  0.22160894309E+03  0.00000000000E+00 0.  1.
          3    1    3    3  501    0  0.24100684879E+03 -0.45154083999E+02  0.24136011214E+02  0.24638534759E+03  0.00000000000E+00 0.  1.
         21    1    1    2  502  501 -0.34788981474E+02  0.25078228082E+02  0.19658799553E+02  0.47176892178E+02  0.00000000000E+00 0.  1.
<scales pt_clust_4="550.00000" pt_clust_5="550.00000" pt_clust_6="42.88579"></scales>
<mgrwt>
<rscale>  0 0.30000000E+03</rscale>
<asrwt>  1 0.42885787E+02</asrwt>
<pdfrwt beam="1">  1        1 0.87334976E+00 0.30000000E+03</pdfrwt>
<pdfrwt beam="2">0</pdfrwt>
<totfact> 0.22546113E-04</totfact>
</mgrwt>
<clustering>
<clus scale="   42.886">  1  6  2 -1</clus>
<clus scale="  462.829">  4  5 -1 -1</clus>
<clus scale="  300.000">  1  4  2 -1</clus>
</clustering>
</event>
<event>
 6    1  0.9678510E-012  0.3000000E+03  0.7818608E-02  0.1093470E+00
          1   -1    0    0  502    0  0.00000000000E+00  0.00000000000E+00  0.22879792259E+03  0.22879792259E+03  0.00000000000E+00 0.  1.
         13   -1    0    0    0    0 -0.00000000000E+00 -0.00000000000E+00 -0.27500000000E+03  0.27500000000E+03  0.00000000000E+00 0.  1.
    9000005    2    1    2  501    0  0.10979046138E+02  0.38719233393E+02 -0.53395247693E+02  0.46291442730E+03  0.45806003540E+03 0.  0.
         13    1    3    3    0    0  0.84577838496E+02  0.21362438047E+03 -0.12322240597E+03  0.26071545414E+03  0.00000000000E+00 0.  1.
          3    1    3    3  501    0 -0.73598792358E+02 -0.17490514708E+03  0.69827158276E+02  0.20219897315E+03  0.00000000000E+00 0.  1.
         21    1    1    2  502  501 -0.10979046138E+02 -0.38719233393E+02  0.71931702833E+01  0.40883495293E+02  0.00000000000E+00 0. -1.
<scales pt_clust_4="550.00000" pt_clust_5="550.00000" pt_clust_6="40.24573"></scales>
<mgrwt>
<rscale>  0 0.30000000E+03</rscale>
<asrwt>  1 0.40245726E+02</asrwt>
<pdfrwt beam="1">  1        1 0.83199245E+00 0.30000000E+03</pdfrwt>
<pdfrwt beam="2">0</pdfrwt>
<totfact> 0.55525691E-04</totfact>
</mgrwt>
<clustering>
<clus scale="   40.246">  1  6  2 -1</clus>
<clus scale="  458.060">  4  5 -1 -1</clus>
<clus scale="  300.000">  1  4  2 -1</clus>
</clustering>
</event>
<event>
 6    1  0.9678510E-012  0.3000000E+03  0.7818608E-02  0.1093470E+00
          1   -1    0    0  502    0  0.00000000000E+00  0.00000000000E+00  0.24164196651E+03  0.24164196651E+03  0.00000000000E+00 0.  1.
         13   -1    0    0    0    0 -0.00000000000E+00 -0.00000000000E+00 -0.27500000000E+03  0.27500000000E+03  0.00000000000E+00 0.  1.
    9000005    2    1    2  501    0  0.35152144918E+02 -0.71952586383E+01 -0.66300782195E+02  0.46793190870E+03  0.46181926381E+03 0.  0.
         13    1    3    3    0    0 -0.59445881992E+02  0.20776362718E+03 -0.85265885345E+02  0.23231403072E+03  0.00000000000E+00 0.  1.
          1    1    3    3  501    0  0.94598026910E+02 -0.21495888582E+03  0.18965103150E+02  0.23561787798E+03  0.00000000000E+00 0.  1.
         21    1    1    2  502  501 -0.35152144918E+02  0.71952586383E+01  0.32942748705E+02  0.48710057806E+02  0.00000000000E+00 0.  1.
<scales pt_clust_4="550.00000" pt_clust_5="550.00000" pt_clust_6="35.88098"></scales>
<mgrwt>
<rscale>  0 0.30000000E+03</rscale>
<asrwt>  1 0.35880984E+02</asrwt>
<pdfrwt beam="1">  1        1 0.87869806E+00 0.30000000E+03</pdfrwt>
<pdfrwt beam="2">0</pdfrwt>
<totfact> 0.20369407E-04</totfact>
</mgrwt>
<clustering>
<clus scale="   35.881">  1  6  2 -1</clus>
<clus scale="  461.819">  4  5 -1 -1</clus>
<clus scale="  300.000">  1  4  2 -1</clus>
</clustering>
</event>
<event>
 6    1  0.9678510E-012  0.3000000E+03  0.7818608E-02  0.1093470E+00
          1   -1    0    0  502    0  0.00000000000E+00  0.00000000000E+00  0.23243507574E+03  0.23243507574E+03  0.00000000000E+00 0.  1.
         13   -1    0    0    0    0 -0.00000000000E+00 -0.00000000000E+00 -0.27500000000E+03  0.27500000000E+03  0.00000000000E+00 0.  1.
    9000005    2    1    2  501    0  0.38761341361E+02  0.21316354141E+02 -0.28867954383E+02  0.46112702545E+03  0.45809163523E+03 0.  0.
         13    1    3    3    0    0 -0.78199674475E+02  0.20443476414E+03 -0.88051016797E+02  0.23592741137E+03  0.00000000000E+00 0.  1.
          3    1    3    3  501    0  0.11696101584E+03 -0.18311841000E+03  0.59183062414E+02  0.22519961408E+03  0.00000000000E+00 0.  1.
         21    1    1    2  502  501 -0.38761341361E+02 -0.21316354141E+02 -0.13696969879E+02  0.46308050292E+02  0.00000000000E+00 0. -1.
<scales pt_clust_4="550.00000" pt_clust_5="550.00000" pt_clust_6="44.23608"></scales>
<mgrwt>
<rscale>  0 0.30000000E+03</rscale>
<asrwt>  1 0.44236077E+02</asrwt>
<pdfrwt beam="1">  1        1 0.84521846E+00 0.30000000E+03</pdfrwt>
<pdfrwt beam="2">0</pdfrwt>
<totfact> 0.43096168E-04</totfact>
</mgrwt>
<clustering>
<clus scale="   44.236">  1  6  2 -1</clus>
<clus scale="  458.092">  4  5 -1 -1</clus>
<clus scale="  300.000">  1  4  2 -1</clus>
</clustering>
</event>
<event>
 6    1  0.9678510E-012  0.3000000E+03  0.7818608E-02  0.1093470E+00
          1   -1    0    0  502    0  0.00000000000E+00  0.00000000000E+00  0.22985691880E+03  0.22985691880E+03  0.00000000000E+00 0.  1.
         13   -1    0    0    0    0 -0.00000000000E+00 -0.00000000000E+00 -0.27500000000E+03  0.27500000000E+03  0.00000000000E+00 0.  1.
    9000005    2    1    2  501    0  0.29340367829E+02 -0.30397351453E+02 -0.55326967498E+02  0.46139926470E+03  0.45611769531E+03 0.  0.
         13    1    3    3    0    0  0.23200650427E+03 -0.14450924192E+02  0.41654657735E+02  0.23615875539E+03  0.00000000000E+00 0.  1.
          3    1    3    3  501    0 -0.20266613644E+03 -0.15946427261E+02 -0.96981625233E+02  0.22524050931E+03  0.00000000000E+00 0.  1.
         21    1    1    2  502  501 -0.29340367829E+02  0.30397351453E+02  0.10183886296E+02  0.43457654098E+02  0.00000000000E+00 0. -1.
<scales pt_clust_4="550.00000" pt_clust_5="550.00000" pt_clust_6="42.24756"></scales>
<mgrwt>
<rscale>  0 0.30000000E+03</rscale>
<asrwt>  1 0.42247558E+02</asrwt>
<pdfrwt beam="1">  1        1 0.83584334E+00 0.30000000E+03</pdfrwt>
<pdfrwt beam="2">0</pdfrwt>
<totfact> 0.51526295E-04</totfact>
</mgrwt>
<clustering>
<clus scale="   42.248">  1  6  2 -1</clus>
<clus scale="  456.118">  4  5 -1 -1</clus>
<clus scale="  300.000">  1  4  2 -1</clus>
</clustering>
</event>
<event>
 6    1  0.9678510E-012  0.3000000E+03  0.7818608E-02  0.1093470E+00
          1   -1    0    0  502    0  0.00000000000E+00  0.00000000000E+00  0.22558025614E+03  0.22558025614E+03  0.00000000000E+00 0.  1.
         13   -1    0    0    0    0 -0.00000000000E+00 -0.00000000000E+00 -0.27500000000E+03  0.27500000000E+03  0.00000000000E+00 0.  1.
    9000005    2    1    2  501    0  0.20170257687E+02  0.23803652858E+02 -0.44261042004E+02  0.46895644565E+03  0.46581933719E+03 0.  0.
         13    1    3    3    0    0 -0.71181623358E+02  0.21870868837E+03  0.47681519887E+02  0.23489112630E+03  0.00000000000E+00 0.  1.
          1    1    3    3  501    0  0.91351881045E+02 -0.19490503551E+03 -0.91942561891E+02  0.23406531936E+03  0.00000000000E+00 0.  1.
         21    1    1    2  502  501 -0.20170257687E+02 -0.23803652858E+02 -0.51587018600E+01  0.31623810482E+02  0.00000000000E+00 0. -1.
<scales pt_clust_4="550.00000" pt_clust_5="550.00000" pt_clust_6="31.20023"></scales>
<mgrwt>
<rscale>  0 0.30000000E+03</rscale>
<asrwt>  1 0.31200227E+02</asrwt>
<pdfrwt beam="1">  1        1 0.82029184E+00 0.30000000E+03</pdfrwt>
<pdfrwt beam="2">0</pdfrwt>
<totfact> 0.73487957E-04</totfact>
</mgrwt>
<clustering>
<clus scale="   31.200">  1  6  2 -1</clus>
<clus scale="  465.819">  4  5 -1 -1</clus>
<clus scale="  300.000">  1  4  2 -1</clus>
</clustering>
</event>
<event>
 6    1  0.9678510E-012  0.3000000E+03  0.7818608E-02  0.1093470E+00
          1   -1    0    0  502    0  0.00000000000E+00  0.00000000000E+00  0.22898060417E+03  0.22898060417E+03  0.00000000000E+00 0.  1.
         13   -1    0    0    0    0 -0.00000000000E+00 -0.00000000000E+00 -0.27500000000E+03  0.27500000000E+03  0.00000000000E+00 0.  1.
    9000005    2    1    2  501    0  0.21327334903E+02  0.21232741803E+02 -0.50554454742E+02  0.47354622726E+03  0.46987720941E+03 0.  0.
         13    1    3    3    0    0 -0.46974863317E+02  0.23416327644E+03 -0.70566237903E+02  0.24903548291E+03  0.00000000000E+00 0.  1.
          1    1    3    3  501    0  0.68302198221E+02 -0.21293053464E+03  0.20011783161E+02  0.22451074435E+03  0.00000000000E+00 0.  1.
         21    1    1    2  502  501 -0.21327334903E+02 -0.21232741803E+02  0.45350589159E+01  0.30434376910E+02  0.00000000000E+00 0.  1.
<scales pt_clust_4="550.00000" pt_clust_5="550.00000" pt_clust_6="30.09459"></scales>
<mgrwt>
<rscale>  0 0.30000000E+03</rscale>
<asrwt>  1 0.30094593E+02</asrwt>
<pdfrwt beam="1">  1        1 0.83265674E+00 0.30000000E+03</pdfrwt>
<pdfrwt beam="2">0</pdfrwt>
<totfact> 0.57948270E-04</totfact>
</mgrwt>
<clustering>
<clus scale="   30.095">  1  6  2 -1</clus>
<clus scale="  469.877">  4  5 -1 -1</clus>
<clus scale="  300.000">  1  4  2 -1</clus>
</clustering>
</event>
<event>
 6    1  0.9678510E-012  0.3000000E+03  0.7818608E-02  0.1093470E+00
          1   -1    0    0  502    0  0.00000000000E+00  0.00000000000E+00  0.22408803290E+03  0.22408803290E+03  0.00000000000E+00 0.  1.
         13   -1    0    0    0    0 -0.00000000000E+00 -0.00000000000E+00 -0.27500000000E+03  0.27500000000E+03  0.00000000000E+00 0.  1.
    9000005    2    1    2  501    0 -0.73011734017E+01  0.30800266191E+02 -0.55972648746E+02  0.46703223734E+03  0.46258427316E+03 0.  0.
         13    1    3    3    0    0 -0.49995474255E+02  0.23910294129E+03  0.97658279177E+01  0.24446908879E+03  0.00000000000E+00 0.  1.
          1    1    3    3  501    0  0.42694300853E+02 -0.20830267510E+03 -0.65738476664E+02  0.22256314855E+03  0.00000000000E+00 0.  1.
         21    1    1    2  502  501  0.73011734017E+01 -0.30800266191E+02  0.50606816474E+01  0.32055795563E+02  0.00000000000E+00 0.  1.
<scales pt_clust_4="550.00000" pt_clust_5="550.00000" pt_clust_6="31.65381"></scales>
<mgrwt>
<rscale>  0 0.30000000E+03</rscale>
<asrwt>  1 0.31653808E+02</asrwt>
<pdfrwt beam="1">  1        1 0.81486557E+00 0.30000000E+03</pdfrwt>
<pdfrwt beam="2">0</pdfrwt>
<totfact> 0.81331907E-04</totfact>
</mgrwt>
<clustering>
<clus scale="   31.654">  1  6  2 -1</clus>
<clus scale="  462.584">  4  5 -1 -1</clus>
<clus scale="  300.000">  1  4  2 -1</clus>
</clustering>
</event>
<event>
 6    1  0.9678510E-012  0.3000000E+03  0.7818608E-02  0.1093470E+00
          1   -1    0    0  502    0  0.00000000000E+00  0.00000000000E+00  0.22695764301E+03  0.22695764301E+03  0.00000000000E+00 0.  1.
         13   -1    0    0    0    0 -0.00000000000E+00 -0.00000000000E+00 -0.27500000000E+03  0.27500000000E+03  0.00000000000E+00 0.  1.
    9000005    2    1    2  501    0 -0.31080925172E+02 -0.21416587576E+02 -0.54107419984E+02  0.46372834636E+03  0.45901162533E+03 0.  0.
         13    1    3    3    0    0  0.15151230821E+03  0.13937768630E+03  0.26170692415E+02  0.20752596011E+03  0.00000000000E+00 0.  1.
          3    1    3    3  501    0 -0.18259323338E+03 -0.16079427388E+03 -0.80278112399E+02  0.25620238625E+03  0.00000000000E+00 0.  1.
         21    1    1    2  502  501  0.31080925172E+02  0.21416587576E+02  0.60650629902E+01  0.38229296646E+02  0.00000000000E+00 0.  1.
<scales pt_clust_4="550.00000" pt_clust_5="550.00000" pt_clust_6="37.74512"></scales>
<mgrwt>
<rscale>  0 0.30000000E+03</rscale>
<asrwt>  1 0.37745121E+02</asrwt>
<pdfrwt beam="1">  1        1 0.82530052E+00 0.30000000E+03</pdfrwt>
<pdfrwt beam="2">0</pdfrwt>
<totfact> 0.64010997E-04</totfact>
</mgrwt>
<clustering>
<clus scale="   37.745">  1  6  2 -1</clus>
<clus scale="  459.012">  4  5 -1 -1</clus>
<clus scale="  300.000">  1  4  2 -1</clus>
</clustering>
</event>
<event>
 6    1  0.9678510E-012  0.3000000E+03  0.7818608E-02  0.1093470E+00
          1   -1    0    0  502    0  0.00000000000E+00  0.00000000000E+00  0.23663383184E+03  0.23663383184E+03  0.00000000000E+00 0.  1.
         13   -1    0    0    0    0 -0.00000000000E+00 -0.00000000000E+00 -0.27500000000E+03  0.27500000000E+03  0.00000000000E+00 0.  1.
    9000005    2    1    2  501    0  0.10383291719E+02 -0.37383933551E+02 -0.49323990733E+02  0.47131702257E+03  0.46712044321E+03 0.  0.
         13    1    3    3    0    0  0.14244307690E+03 -0.26306765623E+02 -0.21494765425E+03  0.25919986525E+03  0.00000000000E+00 0.  1.
          3    1    3    3  501    0 -0.13205978518E+03 -0.11077167928E+02  0.16562366352E+03  0.21211715732E+03  0.00000000000E+00 0.  1.
         21    1    1    2  502  501 -0.10383291719E+02  0.37383933551E+02  0.10957822578E+02  0.40316809278E+02  0.00000000000E+00 0.  1.
<scales pt_clust_4="550.00000" pt_clust_5="550.00000" pt_clust_6="38.79911"></scales>
<mgrwt>
<rscale>  0 0.30000000E+03</rscale>
<asrwt>  1 0.38799114E+02</asrwt>
<pdfrwt beam="1">  1        1 0.86048666E+00 0.30000000E+03</pdfrwt>
<pdfrwt beam="2">0</pdfrwt>
<totfact> 0.31356689E-04</totfact>
</mgrwt>
<clustering>
<clus scale="   38.799">  1  6  2 -1</clus>
<clus scale="  467.120">  4  5 -1 -1</clus>
<clus scale="  300.000">  1  4  2 -1</clus>
</clustering>
</event>
<event>
 6    1  0.9678510E-012  0.3000000E+03  0.7818608E-02  0.1093470E+00
          1   -1    0    0  502    0  0.00000000000E+00  0.00000000000E+00  0.22386431281E+03  0.22386431281E+03  0.00000000000E+00 0.  1.
         13   -1    0    0    0    0 -0.00000000000E+00 -0.00000000000E+00 -0.27500000000E+03  0.27500000000E+03  0.00000000000E+00 0.  1.
    9000005    2    1    2  501    0 -0.26553637694E+02  0.14940869790E+02 -0.56624259262E+02  0.46790547419E+03  0.46346618084E+03 0.  0.
         13    1    3    3    0    0 -0.20946673353E+03 -0.82330180005E+02  0.56242337563E+02  0.23198657619E+03  0.00000000000E+00 0.  1.
          3    1    3    3  501    0  0.18291309584E+03  0.97271049796E+02 -0.11286659683E+03  0.23591889801E+03  0.00000000000E+00 0.  1.
         21    1    1    2  502  501  0.26553637694E+02 -0.14940869790E+02  0.54885720692E+01  0.30958838612E+02  0.00000000000E+00 0.  1.
<scales pt_clust_4="550.00000" pt_clust_5="550.00000" pt_clust_6="30.46843"></scales>
<mgrwt>
<rscale>  0 0.30000000E+03</rscale>
<asrwt>  1 0.30468431E+02</asrwt>
<pdfrwt beam="1">  1        1 0.81405205E+00 0.30000000E+03</pdfrwt>
<pdfrwt beam="2">0</pdfrwt>
<totfact> 0.83172296E-04</totfact>
</mgrwt>
<clustering>
<clus scale="   30.468">  1  6  2 -1</clus>
<clus scale="  463.466">  4  5 -1 -1</clus>
<clus scale="  300.000">  1  4  2 -1</clus>
</clustering>
</event>
<event>
 6    1  0.9678510E-012  0.3000000E+03  0.7818608E-02  0.1093470E+00
          1   -1    0    0  502    0  0.00000000000E+00  0.00000000000E+00  0.22768960015E+03  0.22768960015E+03  0.00000000000E+00 0.  1.
         13   -1    0    0    0    0 -0.00000000000E+00 -0.00000000000E+00 -0.27500000000E+03  0.27500000000E+03  0.00000000000E+00 0.  1.
    9000005    2    1    2  501    0  0.11804239692E+02  0.28404654413E+02 -0.60596349274E+02  0.46918316914E+03  0.46423567742E+03 0.  0.
         13    1    3    3    0    0  0.22730948272E+03 -0.39617259862E+02  0.14116319934E+02  0.23116746895E+03  0.00000000000E+00 0.  1.
          1    1    3    3  501    0 -0.21550524303E+03  0.68021914275E+02 -0.74712669208E+02  0.23801570019E+03  0.00000000000E+00 0.  1.
         21    1    1    2  502  501 -0.11804239692E+02 -0.28404654413E+02  0.13285949427E+02  0.33506431013E+02  0.00000000000E+00 0. -1.
<scales pt_clust_4="550.00000" pt_clust_5="550.00000" pt_clust_6="30.75979"></scales>
<mgrwt>
<rscale>  0 0.30000000E+03</rscale>
<asrwt>  1 0.30759787E+02</asrwt>
<pdfrwt beam="1">  1        1 0.82796218E+00 0.30000000E+03</pdfrwt>
<pdfrwt beam="2">0</pdfrwt>
<totfact> 0.63023017E-04</totfact>
</mgrwt>
<clustering>
<clus scale="   30.760">  1  6  2 -1</clus>
<clus scale="  464.236">  4  5 -1 -1</clus>
<clus scale="  300.000">  1  4  2 -1</clus>
</clustering>
</event>
<event>
 6    1  0.9678510E-012  0.3000000E+03  0.7818608E-02  0.1093470E+00
          1   -1    0    0  502    0  0.00000000000E+00  0.00000000000E+00  0.23210543647E+03  0.23210543647E+03  0.00000000000E+00 0.  1.
         13   -1    0    0    0    0 -0.00000000000E+00 -0.00000000000E+00 -0.27500000000E+03  0.27500000000E+03  0.00000000000E+00 0.  1.
    9000005    2    1    2  501    0  0.44044572393E+02 -0.96388515177E+01 -0.42437014243E+02  0.46201617869E+03  0.45784846552E+03 0.  0.
         13    1    3    3    0    0  0.78088735296E+02  0.11998394857E+03 -0.20581245459E+03  0.25070453717E+03  0.00000000000E+00 0.  1.
          1    1    3    3  501    0 -0.34044162903E+02 -0.12962280008E+03  0.16337544035E+03  0.21131164151E+03  0.00000000000E+00 0.  1.
         21    1    1    2  502  501 -0.44044572393E+02  0.96388515177E+01 -0.45754928868E+00  0.45089257780E+02  0.00000000000E+00 0.  1.
<scales pt_clust_4="550.00000" pt_clust_5="550.00000" pt_clust_6="45.08694"></scales>
<mgrwt>
<rscale>  0 0.30000000E+03</rscale>
<asrwt>  1 0.45086936E+02</asrwt>
<pdfrwt beam="1">  1        1 0.84401977E+00 0.30000000E+03</pdfrwt>
<pdfrwt beam="2">0</pdfrwt>
<totfact> 0.43990901E-04</totfact>
</mgrwt>
<clustering>
<clus scale="   45.087">  1  6  2 -1</clus>
<clus scale="  457.848">  4  5 -1 -1</clus>
<clus scale="  300.000">  1  4  2 -1</clus>
</clustering>
</event>
<event>
 6    1  0.9678510E-012  0.3000000E+03  0.7818608E-02  0.1093470E+00
          1   -1    0    0  502    0  0.00000000000E+00  0.00000000000E+00  0.23183979680E+03  0.23183979680E+03  0.00000000000E+00 0.  1.
         13   -1    0    0    0    0 -0.00000000000E+00 -0.00000000000E+00 -0.27500000000E+03  0.27500000000E+03  0.00000000000E+00 0.  1.
    9000005    2    1    2  501    0  0.29199317994E+02  0.82210325237E+01 -0.32930789565E+02  0.47482688612E+03  0.47271127481E+03 0.  0.
         13    1    3    3    0    0  0.13261948312E+03  0.12669501034E+03  0.14758441434E+03  0.23541604088E+03  0.00000000000E+00 0.  1.
          1    1    3    3  501    0 -0.10342016513E+03 -0.11847397782E+03 -0.18051520391E+03  0.23941084523E+03  0.00000000000E+00 0.  1.
         21    1    1    2  502  501 -0.29199317994E+02 -0.82210325237E+01 -0.10229413636E+02  0.32012910683E+02  0.00000000000E+00 0. -1.
<scales pt_clust_4="550.00000" pt_clust_5="550.00000" pt_clust_6="30.33458"></scales>
<mgrwt>
<rscale>  0 0.30000000E+03</rscale>
<asrwt>  1 0.30334575E+02</asrwt>
<pdfrwt beam="1">  1        1 0.84305381E+00 0.30000000E+03</pdfrwt>
<pdfrwt beam="2">0</pdfrwt>
<totfact> 0.48246299E-04</totfact>
</mgrwt>
<clustering>
<clus scale="   30.335">  1  6  2 -1</clus>
<clus scale="  472.711">  4  5 -1 -1</clus>
<clus scale="  300.000">  1  4  2 -1</clus>
</clustering>
</event>
<event>
 6    1  0.9678510E-012  0.3000000E+03  0.7818608E-02  0.1093470E+00
          1   -1    0    0  502    0  0.00000000000E+00  0.00000000000E+00  0.25009496147E+03  0.25009496147E+03  0.00000000000E+00 0.  1.
         13   -1    0    0    0    0 -0.00000000000E+00 -0.00000000000E+00 -0.27500000000E+03  0.27500000000E+03  0.00000000000E+00 0.  1.
    9000005    2    1    2  501    0  0.29118415432E+02 -0.11774318082E+02 -0.61627597245E+02  0.47677247186E+03  0.47172821889E+03 0.  0.
         13    1    3    3    0    0  0.11667039414E+03 -0.33268532747E+02  0.18102207756E+03  0.21791688485E+03  0.00000000000E+00 0.  1.
          1    1    3    3  501    0 -0.87551978709E+02  0.21494214666E+02 -0.24264967481E+03  0.25885558700E+03  0.00000000000E+00 0.  1.
         21    1    1    2  502  501 -0.29118415432E+02  0.11774318082E+02  0.36722558711E+02  0.48322489607E+02  0.00000000000E+00 0. -1.
<scales pt_clust_4="550.00000" pt_clust_5="550.00000" pt_clust_6="31.40886"></scales>
<mgrwt>
<rscale>  0 0.30000000E+03</rscale>
<asrwt>  1 0.31408863E+02</asrwt>
<pdfrwt beam="1">  1        1 0.90943622E+00 0.30000000E+03</pdfrwt>
<pdfrwt beam="2">0</pdfrwt>
<totfact> 0.75675246E-05</totfact>
</mgrwt>
<clustering>
<clus scale="   31.409">  1  6  2 -1</clus>
<clus scale="  471.728">  4  5 -1 -1</clus>
<clus scale="  300.000">  1  4  2 -1</clus>
</clustering>
</event>
<event>
 6    1  0.9678510E-012  0.3000000E+03  0.7818608E-02  0.1093470E+00
          1   -1    0    0  502    0  0.00000000000E+00  0.00000000000E+00  0.21732190387E+03  0.21732190387E+03  0.00000000000E+00 0.  1.
         13   -1    0    0    0    0 -0.00000000000E+00 -0.00000000000E+00 -0.27500000000E+03  0.27500000000E+03  0.00000000000E+00 0.  1.
    9000005    2    1    2  501    0  0.17025206443E+02 -0.25422462990E+02 -0.54038441286E+02  0.46150946537E+03  0.45731244704E+03 0.  0.
         13    1    3    3    0    0  0.20312548065E+02  0.18779555887E+03 -0.13631809968E+03  0.23294290254E+03  0.00000000000E+00 0.  1.
          3    1    3    3  501    0 -0.32873416220E+01 -0.21321802186E+03  0.82279658397E+02  0.22856656284E+03  0.00000000000E+00 0.  1.
         21    1    1    2  502  501 -0.17025206443E+02  0.25422462990E+02 -0.36396548416E+01  0.30812438499E+02  0.00000000000E+00 0.  1.
<scales pt_clust_4="550.00000" pt_clust_5="550.00000" pt_clust_6="30.59674"></scales>
<mgrwt>
<rscale>  0 0.30000000E+03</rscale>
<asrwt>  1 0.30596735E+02</asrwt>
<pdfrwt beam="1">  1        1 0.79026147E+00 0.30000000E+03</pdfrwt>
<pdfrwt beam="2">0</pdfrwt>
<totfact> 0.12589645E-03</totfact>
</mgrwt>
<clustering>
<clus scale="   30.597">  1  6  2 -1</clus>
<clus scale="  457.312">  4  5 -1 -1</clus>
<clus scale="  300.000">  1  4  2 -1</clus>
</clustering>
</event>
<event>
 6    1  0.9678510E-012  0.3000000E+03  0.7818608E-02  0.1093470E+00
          1   -1    0    0  502    0  0.00000000000E+00  0.00000000000E+00  0.22651204977E+03  0.22651204977E+03  0.00000000000E+00 0.  1.
         13   -1    0    0    0    0 -0.00000000000E+00 -0.00000000000E+00 -0.27500000000E+03  0.27500000000E+03  0.00000000000E+00 0.  1.
    9000005    2    1    2  501    0  0.19266854382E+02 -0.29249825872E+02 -0.49352612688E+02  0.46647618768E+03  0.46253387909E+03 0.  0.
         13    1    3    3    0    0 -0.16417985102E+03 -0.56329031210E+01  0.12950254277E+03  0.20918332071E+03  0.00000000000E+00 0.  1.
          1    1    3    3  501    0  0.18344670540E+03 -0.23616922751E+02 -0.17885515545E+03  0.25729286697E+03  0.00000000000E+00 0.  1.
         21    1    1    2  502  501 -0.19266854382E+02  0.29249825872E+02  0.86466245799E+00  0.35035862091E+02  0.00000000000E+00 0. -1.
<scales pt_clust_4="550.00000" pt_clust_5="550.00000" pt_clust_6="35.02519"></scales>
<mgrwt>
<rscale>  0 0.30000000E+03</rscale>
<asrwt>  1 0.35025191E+02</asrwt>
<pdfrwt beam="1">  1        1 0.82368018E+00 0.30000000E+03</pdfrwt>
<pdfrwt beam="2">0</pdfrwt>
<totfact> 0.67106039E-04</totfact>
</mgrwt>
<clustering>
<clus scale="   35.025">  1  6  2 -1</clus>
<clus scale="  462.534">  4  5 -1 -1</clus>
<clus scale="  300.000">  1  4  2 -1</clus>
</clustering>
</event>
<event>
 6    1  0.9678510E-012  0.3000000E+03  0.7818608E-02  0.1093470E+00
          1   -1    0    0  502    0  0.00000000000E+00  0.00000000000E+00  0.25641808752E+03  0.25641808752E+03  0.00000000000E+00 0.  1.
         13   -1    0    0    0    0 -0.00000000000E+00 -0.00000000000E+00 -0.27500000000E+03  0.27500000000E+03  0.00000000000E+00 0.  1.
    9000005    2    1    2  501    0 -0.13172459162E+02  0.59926112900E+02 -0.40434706274E+02  0.46628593506E+03  0.46045950427E+03 0.  0.
         13    1    3    3    0    0 -0.11503791992E+03 -0.12387757730E+03 -0.15289775661E+03  0.22794100367E+03  0.00000000000E+00 0.  1.
          1    1    3    3  501    0  0.10186546076E+03  0.18380369020E+03  0.11246305034E+03  0.23834493139E+03  0.00000000000E+00 0.  1.
         21    1    1    2  502  501  0.13172459162E+02 -0.59926112900E+02  0.21852793793E+02  0.65132152462E+02  0.00000000000E+00 0.  1.
<scales pt_clust_4="550.00000" pt_clust_5="550.00000" pt_clust_6="61.35677"></scales>
<mgrwt>
<rscale>  0 0.30000000E+03</rscale>
<asrwt>  1 0.61356766E+02</asrwt>
<pdfrwt beam="1">  1        1 0.93242941E+00 0.30000000E+03</pdfrwt>
<pdfrwt beam="2">0</pdfrwt>
<totfact> 0.21947856E-05</totfact>
</mgrwt>
<clustering>
<clus scale="   61.357">  1  6  2 -1</clus>
<clus scale="  460.460">  4  5 -1 -1</clus>
<clus scale="  300.000">  1  4  2 -1</clus>
</clustering>
</event>
<event>
 6    1  0.9678510E-012  0.3000000E+03  0.7818608E-02  0.1093470E+00
          1   -1    0    0  502    0  0.00000000000E+00  0.00000000000E+00  0.23621552356E+03  0.23621552356E+03  0.00000000000E+00 0.  1.
         13   -1    0    0    0    0 -0.00000000000E+00 -0.00000000000E+00 -0.27500000000E+03  0.27500000000E+03  0.00000000000E+00 0.  1.
    9000005    2    1    2  501    0  0.28047724780E+02 -0.35379920952E+02 -0.39484988948E+02  0.46606129464E+03  0.46218573359E+03 0.  0.
         13    1    3    3    0    0  0.74796437723E+02 -0.34305217311E+02  0.20303381887E+03  0.21907552724E+03  0.00000000000E+00 0.  1.
          1    1    3    3  501    0 -0.46748712943E+02 -0.10747036411E+01 -0.24251880782E+03  0.24698576740E+03  0.00000000000E+00 0.  1.
         21    1    1    2  502  501 -0.28047724780E+02  0.35379920952E+02  0.70051251020E+00  0.45154228924E+02  0.00000000000E+00 0. -1.
<scales pt_clust_4="550.00000" pt_clust_5="550.00000" pt_clust_6="45.14879"></scales>
<mgrwt>
<rscale>  0 0.30000000E+03</rscale>
<asrwt>  1 0.45148795E+02</asrwt>
<pdfrwt beam="1">  1        1 0.85896554E+00 0.30000000E+03</pdfrwt>
<pdfrwt beam="2">0</pdfrwt>
<totfact> 0.31666546E-04</totfact>
</mgrwt>
<clustering>
<clus scale="   45.149">  1  6  2 -1</clus>
<clus scale="  462.186">  4  5 -1 -1</clus>
<clus scale="  300.000">  1  4  2 -1</clus>
</clustering>
</event>
<event>
 6    1  0.9678510E-012  0.3000000E+03  0.7818608E-02  0.1093470E+00
          1   -1    0    0  502    0  0.00000000000E+00  0.00000000000E+00  0.26067739089E+03  0.26067739089E+03  0.00000000000E+00 0.  1.
         13   -1    0    0    0    0 -0.00000000000E+00 -0.00000000000E+00 -0.27500000000E+03  0.27500000000E+03  0.00000000000E+00 0.  1.
    9000005    2    1    2  501    0 -0.26801792063E+02 -0.18062581905E+02 -0.41944661406E+01  0.50180746023E+03  0.50074798119E+03 0.  0.
         13    1    3    3    0    0 -0.12466222127E+02  0.57091972111E+02 -0.24358045195E+03  0.25049218859E+03  0.00000000000E+00 0.  1.
          1    1    3    3  501    0 -0.14335569936E+02 -0.75154554016E+02  0.23938598581E+03  0.25131527163E+03  0.00000000000E+00 0.  1.
         21    1    1    2  502  501  0.26801792063E+02  0.18062581905E+02 -0.10128142973E+02  0.33869930660E+02  0.00000000000E+00 0.  1.
<scales pt_clust_4="550.00000" pt_clust_5="550.00000" pt_clust_6="32.32018"></scales>
<mgrwt>
<rscale>  0 0.30000000E+03</rscale>
<asrwt>  1 0.32320179E+02</asrwt>
<pdfrwt beam="1">  1        1 0.94791779E+00 0.30000000E+03</pdfrwt>
<pdfrwt beam="2">0</pdfrwt>
<totfact> 0.13814336E-05</totfact>
</mgrwt>
<clustering>
<clus scale="   32.320">  1  6  2 -1</clus>
<clus scale="  500.748">  4  5 -1 -1</clus>
<clus scale="  300.000">  1  4  2 -1</clus>
</clustering>
</event>
<event>
 6    1  0.9678510E-012  0.3000000E+03  0.7818608E-02  0.1093470E+00
          1   -1    0    0  502    0  0.00000000000E+00  0.00000000000E+00  0.22678189415E+03  0.22678189415E+03  0.00000000000E+00 0.  1.
         13   -1    0    0    0    0 -0.00000000000E+00 -0.00000000000E+00 -0.27500000000E+03  0.27500000000E+03  0.00000000000E+00 0.  1.
    9000005    2    1    2  501    0  0.10131433330E+02  0.28295190438E+02 -0.58701900707E+02  0.46995150462E+03  0.46530123555E+03 0.  0.
         13    1    3    3    0    0  0.56154815153E+02 -0.11352893959E+03  0.16074072045E+03  0.20464545585E+03  0.00000000000E+00 0.  1.
          1    1    3    3  501    0 -0.46023381823E+02  0.14182413003E+03 -0.21944262115E+03  0.26530604877E+03  0.00000000000E+00 0.  1.
         21    1    1    2  502  501 -0.10131433330E+02 -0.28295190438E+02  0.10483794854E+02  0.31830389532E+02  0.00000000000E+00 0.  1.
<scales pt_clust_4="550.00000" pt_clust_5="550.00000" pt_clust_6="30.05435"></scales>
<mgrwt>
<rscale>  0 0.30000000E+03</rscale>
<asrwt>  1 0.30054346E+02</asrwt>
<pdfrwt beam="1">  1        1 0.82466143E+00 0.30000000E+03</pdfrwt>
<pdfrwt beam="2">0</pdfrwt>
<totfact> 0.67702556E-04</totfact>
</mgrwt>
<clustering>
<clus scale="   30.054">  1  6  2 -1</clus>
<clus scale="  465.301">  4  5 -1 -1</clus>
<clus scale="  300.000">  1  4  2 -1</clus>
</clustering>
</event>
<event>
 6    1  0.9678510E-012  0.3000000E+03  0.7818608E-02  0.1093470E+00
          1   -1    0    0  502    0  0.00000000000E+00  0.00000000000E+00  0.24936255299E+03  0.24936255299E+03  0.00000000000E+00 0.  1.
         13   -1    0    0    0    0 -0.00000000000E+00 -0.00000000000E+00 -0.27500000000E+03  0.27500000000E+03  0.00000000000E+00 0.  1.
    9000005    2    1    2  501    0 -0.21227589707E+02  0.26116091262E+02 -0.68216274121E+02  0.47008901150E+03  0.46389390801E+03 0.  0.
         13    1    3    3    0    0  0.21722840941E+02 -0.15970345992E+03  0.12091797741E+03  0.20149003496E+03  0.00000000000E+00 0.  1.
          1    1    3    3  501    0 -0.42950430648E+02  0.18581955118E+03 -0.18913425153E+03  0.26859897654E+03  0.00000000000E+00 0.  1.
         21    1    1    2  502  501  0.21227589707E+02 -0.26116091262E+02  0.42578827109E+02  0.54273541487E+02  0.00000000000E+00 0.  1.
<scales pt_clust_4="550.00000" pt_clust_5="550.00000" pt_clust_6="33.65503"></scales>
<mgrwt>
<rscale>  0 0.30000000E+03</rscale>
<asrwt>  1 0.33655026E+02</asrwt>
<pdfrwt beam="1">  1        1 0.90677292E+00 0.30000000E+03</pdfrwt>
<pdfrwt beam="2">0</pdfrwt>
<totfact> 0.85817563E-05</totfact>
</mgrwt>
<clustering>
<clus scale="   33.655">  1  6  2 -1</clus>
<clus scale="  463.894">  4  5 -1 -1</clus>
<clus scale="  300.000">  1  4  2 -1</clus>
</clustering>
</event>
<event>
 6    1  0.9678510E-012  0.3000000E+03  0.7818608E-02  0.1093470E+00
          1   -1    0    0  502    0  0.00000000000E+00  0.00000000000E+00  0.24502471690E+03  0.24502471690E+03  0.00000000000E+00 0.  1.
         13   -1    0    0    0    0 -0.00000000000E+00 -0.00000000000E+00 -0.27500000000E+03  0.27500000000E+03  0.00000000000E+00 0.  1.
    9000005    2    1    2  501    0 -0.19460513296E+02 -0.32753731101E+02 -0.44105892163E+02  0.47938984774E+03  0.47583377131E+03 0.  0.
         13    1    3    3    0    0 -0.24333568024E+03  0.26659594656E+02 -0.76301510999E+01  0.24491060914E+03  0.00000000000E+00 0.  1.
          1    1    3    3  501    0  0.22387516694E+03 -0.59413325757E+02 -0.36475741063E+02  0.23447923860E+03  0.00000000000E+00 0.  1.
         21    1    1    2  502  501  0.19460513296E+02  0.32753731101E+02  0.14130609062E+02  0.40634869155E+02  0.00000000000E+00 0.  1.
<scales pt_clust_4="550.00000" pt_clust_5="550.00000" pt_clust_6="38.09880"></scales>
<mgrwt>
<rscale>  0 0.30000000E+03</rscale>
<asrwt>  1 0.38098799E+02</asrwt>
<pdfrwt beam="1">  1        1 0.89099897E+00 0.30000000E+03</pdfrwt>
<pdfrwt beam="2">0</pdfrwt>
<totfact> 0.13845823E-04</totfact>
</mgrwt>
<clustering>
<clus scale="   38.099">  1  6  2 -1</clus>
<clus scale="  475.834">  4  5 -1 -1</clus>
<clus scale="  300.000">  1  4  2 -1</clus>
</clustering>
</event>
<event>
 6    1  0.9678510E-012  0.3000000E+03  0.7818608E-02  0.1093470E+00
          1   -1    0    0  502    0  0.00000000000E+00  0.00000000000E+00  0.21686864571E+03  0.21686864571E+03  0.00000000000E+00 0.  1.
         13   -1    0    0    0    0 -0.00000000000E+00 -0.00000000000E+00 -0.27500000000E+03  0.27500000000E+03  0.00000000000E+00 0.  1.
    9000005    2    1    2  501    0  0.12504546041E+02 -0.27847691360E+02 -0.60694880412E+02  0.46123485306E+03  0.45620375227E+03 0.  0.
         13    1    3    3    0    0 -0.11219056456E+03  0.16458355363E+03 -0.10877146871E+03  0.22694867550E+03  0.00000000000E+00 0.  1.
          3    1    3    3  501    0  0.12469511060E+03 -0.19243124499E+03  0.48076588301E+02  0.23428617757E+03  0.00000000000E+00 0.  1.
         21    1    1    2  502  501 -0.12504546041E+02  0.27847691360E+02  0.25635261238E+01  0.30633792647E+02  0.00000000000E+00 0. -1.
<scales pt_clust_4="550.00000" pt_clust_5="550.00000" pt_clust_6="30.52634"></scales>
<mgrwt>
<rscale>  0 0.30000000E+03</rscale>
<asrwt>  1 0.30526342E+02</asrwt>
<pdfrwt beam="1">  1        1 0.78861326E+00 0.30000000E+03</pdfrwt>
<pdfrwt beam="2">0</pdfrwt>
<totfact> 0.12980936E-03</totfact>
</mgrwt>
<clustering>
<clus scale="   30.526">  1  6  2 -1</clus>
<clus scale="  456.204">  4  5 -1 -1</clus>
<clus scale="  300.000">  1  4  2 -1</clus>
</clustering>
</event>
<event>
 6    1  0.9678510E-012  0.3000000E+03  0.7818608E-02  0.1093470E+00
          1   -1    0    0  502    0  0.00000000000E+00  0.00000000000E+00  0.24119419311E+03  0.24119419311E+03  0.00000000000E+00 0.  1.
         13   -1    0    0    0    0 -0.00000000000E+00 -0.00000000000E+00 -0.27500000000E+03  0.27500000000E+03  0.00000000000E+00 0.  1.
    9000005    2    1    2  501    0 -0.22708547475E+02 -0.39628611847E+02 -0.17125084667E+02  0.46756959544E+03  0.46501822872E+03 0.  0.
         13    1    3    3    0    0  0.14540985804E+03 -0.53307662640E+02 -0.17698354042E+03  0.23517845839E+03  0.00000000000E+00 0.  1.
          1    1    3    3  501    0 -0.16811840551E+03  0.13679050793E+02  0.15985845575E+03  0.23239113705E+03  0.00000000000E+00 0.  1.
         21    1    1    2  502  501  0.22708547475E+02  0.39628611847E+02 -0.16680722220E+02  0.48624597676E+02  0.00000000000E+00 0. -1.
<scales pt_clust_4="550.00000" pt_clust_5="550.00000" pt_clust_6="45.67392"></scales>
<mgrwt>
<rscale>  0 0.30000000E+03</rscale>
<asrwt>  1 0.45673921E+02</asrwt>
<pdfrwt beam="1">  1        1 0.87706979E+00 0.30000000E+03</pdfrwt>
<pdfrwt beam="2">0</pdfrwt>
<totfact> 0.20347817E-04</totfact>
</mgrwt>
<clustering>
<clus scale="   45.674">  1  6  2 -1</clus>
<clus scale="  465.018">  4  5 -1 -1</clus>
<clus scale="  300.000">  1  4  2 -1</clus>
</clustering>
</event>
<event>
 6    1  0.9678510E-012  0.3000000E+03  0.7818608E-02  0.1093470E+00
          1   -1    0    0  502    0  0.00000000000E+00  0.00000000000E+00  0.25586958246E+03  0.25586958246E+03  0.00000000000E+00 0.  1.
         13   -1    0    0    0    0 -0.00000000000E+00 -0.00000000000E+00 -0.27500000000E+03  0.27500000000E+03  0.00000000000E+00 0.  1.
    9000005    2    1    2  501    0 -0.25058888055E+02  0.48008222382E+02  0.98273947259E+01  0.46945873506E+03  0.46622118029E+03 0.  0.
         13    1    3    3    0    0 -0.19278666738E+02 -0.20439688186E+03  0.55990074030E+02  0.21280188133E+03  0.00000000000E+00 0.  1.
          3    1    3    3  501    0 -0.57802213174E+01  0.25240510424E+03 -0.46162679304E+02  0.25665685373E+03  0.00000000000E+00 0.  1.
         21    1    1    2  502  501  0.25058888055E+02 -0.48008222382E+02 -0.28957812268E+02  0.61410847399E+02  0.00000000000E+00 0. -1.
<scales pt_clust_4="550.00000" pt_clust_5="550.00000" pt_clust_6="54.15478"></scales>
<mgrwt>
<rscale>  0 0.30000000E+03</rscale>
<asrwt>  1 0.54154780E+02</asrwt>
<pdfrwt beam="1">  1        1 0.93043485E+00 0.30000000E+03</pdfrwt>
<pdfrwt beam="2">0</pdfrwt>
<totfact> 0.23930388E-05</totfact>
</mgrwt>
<clustering>
<clus scale="   54.155">  1  6  2 -1</clus>
<clus scale="  466.221">  4  5 -1 -1</clus>
<clus scale="  300.000">  1  4  2 -1</clus>
</clustering>
</event>
<event>
 6    1  0.9678510E-012  0.3000000E+03  0.7818608E-02  0.1093470E+00
          1   -1    0    0  502    0  0.00000000000E+00  0.00000000000E+00  0.25111596680E+03  0.25111596680E+03  0.00000000000E+00 0.  1.
         13   -1    0    0    0    0 -0.00000000000E+00 -0.00000000000E+00 -0.27500000000E+03  0.27500000000E+03  0.00000000000E+00 0.  1.
    9000005    2    1    2  501    0 -0.21807061514E+02 -0.36144681444E+02 -0.45153367419E+02  0.47884683832E+03  0.47484048064E+03 0.  0.
         13    1    3    3    0    0 -0.32630508931E+02  0.10066679581E+03 -0.22733458667E+03  0.25075798728E+03  0.00000000000E+00 0.  1.
          1    1    3    3  501    0  0.10823447417E+02 -0.13681147725E+03  0.18218121925E+03  0.22808885104E+03  0.00000000000E+00 0.  1.
         21    1    1    2  502  501  0.21807061514E+02  0.36144681444E+02  0.21269334217E+02  0.47269128474E+02  0.00000000000E+00 0. -1.
<scales pt_clust_4="550.00000" pt_clust_5="550.00000" pt_clust_6="42.21358"></scales>
<mgrwt>
<rscale>  0 0.30000000E+03</rscale>
<asrwt>  1 0.42213575E+02</asrwt>
<pdfrwt beam="1">  1        1 0.91314897E+00 0.30000000E+03</pdfrwt>
<pdfrwt beam="2">0</pdfrwt>
<totfact> 0.57975902E-05</totfact>
</mgrwt>
<clustering>
<clus scale="   42.214">  1  6  2 -1</clus>
<clus scale="  474.840">  4  5 -1 -1</clus>
<clus scale="  300.000">  1  4  2 -1</clus>
</clustering>
</event>
<event>
 6    1  0.9678510E-012  0.3000000E+03  0.7818608E-02  0.1093470E+00
          1   -1    0    0  502    0  0.00000000000E+00  0.00000000000E+00  0.23792062696E+03  0.23792062696E+03  0.00000000000E+00 0.  1.
         13   -1    0    0    0    0 -0.00000000000E+00 -0.00000000000E+00 -0.27500000000E+03  0.27500000000E+03  0.00000000000E+00 0.  1.
    9000005    2    1    2  501    0 -0.34010349884E+02  0.27786412269E+01 -0.67095714826E+02  0.46747389418E+03  0.46137358187E+03 0.  0.
         13    1    3    3    0    0 -0.19295131937E+03  0.15101245954E+03 -0.27494084551E+02  0.24655810526E+03  0.00000000000E+00 0.  1.
          1    1    3    3  501    0  0.15894096948E+03 -0.14823381832E+03 -0.39601630276E+02  0.22091578892E+03  0.00000000000E+00 0.  1.
         21    1    1    2  502  501  0.34010349884E+02 -0.27786412269E+01  0.30016341786E+02  0.45446732782E+02  0.00000000000E+00 0. -1.
<scales pt_clust_4="550.00000" pt_clust_5="550.00000" pt_clust_6="34.12367"></scales>
<mgrwt>
<rscale>  0 0.30000000E+03</rscale>
<asrwt>  1 0.34123668E+02</asrwt>
<pdfrwt beam="1">  1        1 0.86516592E+00 0.30000000E+03</pdfrwt>
<pdfrwt beam="2">0</pdfrwt>
<totfact> 0.28588604E-04</totfact>
</mgrwt>
<clustering>
<clus scale="   34.124">  1  6  2 -1</clus>
<clus scale="  461.374">  4  5 -1 -1</clus>
<clus scale="  300.000">  1  4  2 -1</clus>
</clustering>
</event>
<event>
 6    1  0.9678510E-012  0.3000000E+03  0.7818608E-02  0.1093470E+00
          1   -1    0    0  502    0  0.00000000000E+00  0.00000000000E+00  0.24123535438E+03  0.24123535438E+03  0.00000000000E+00 0.  1.
         13   -1    0    0    0    0 -0.00000000000E+00 -0.00000000000E+00 -0.27500000000E+03  0.27500000000E+03  0.00000000000E+00 0.  1.
    9000005    2    1    2  501    0  0.32990129402E+02 -0.33462102631E+01 -0.22070158334E+02  0.48107419976E+03  0.47942230656E+03 0.  0.
         13    1    3    3    0    0  0.25573706447E+03 -0.23273000621E+02 -0.17533138212E+02  0.25739170468E+03  0.00000000000E+00 0.  1.
          3    1    3    3  501    0 -0.22274693507E+03  0.19926790358E+02 -0.45370201225E+01  0.22368249508E+03  0.00000000000E+00 0.  1.
         21    1    1    2  502  501 -0.32990129402E+02  0.33462102631E+01 -0.11694487289E+02  0.35161154618E+02  0.00000000000E+00 0. -1.
<scales pt_clust_4="550.00000" pt_clust_5="550.00000" pt_clust_6="33.15942"></scales>
<mgrwt>
<rscale>  0 0.30000000E+03</rscale>
<asrwt>  1 0.33159416E+02</asrwt>
<pdfrwt beam="1">  1        1 0.87721947E+00 0.30000000E+03</pdfrwt>
<pdfrwt beam="2">0</pdfrwt>
<totfact> 0.21496086E-04</totfact>
</mgrwt>
<clustering>
<clus scale="   33.159">  1  6  2 -1</clus>
<clus scale="  479.422">  4  5 -1 -1</clus>
<clus scale="  300.000">  1  4  2 -1</clus>
</clustering>
</event>
<event>
 6    1  0.9678510E-012  0.3000000E+03  0.7818608E-02  0.1093470E+00
          1   -1    0    0  502    0  0.00000000000E+00  0.00000000000E+00  0.24596436505E+03  0.24596436505E+03  0.00000000000E+00 0.  1.
         13   -1    0    0    0    0 -0.00000000000E+00 -0.00000000000E+00 -0.27500000000E+03  0.27500000000E+03  0.00000000000E+00 0.  1.
    9000005    2    1    2  501    0 -0.36039113732E+02  0.10616797339E+01 -0.30540284889E+02  0.48487823401E+03  0.48257045903E+03 0.  0.
         13    1    3    3    0    0  0.15775611251E+03  0.16235132211E+03  0.21630355044E+02  0.22740451861E+03  0.00000000000E+00 0.  1.
          3    1    3    3  501    0 -0.19379522624E+03 -0.16128964238E+03 -0.52170639933E+02  0.25747371540E+03  0.00000000000E+00 0.  1.
         21    1    1    2  502  501  0.36039113732E+02 -0.10616797339E+01  0.15046499418E+01  0.36086131047E+02  0.00000000000E+00 0. -1.
<scales pt_clust_4="550.00000" pt_clust_5="550.00000" pt_clust_6="36.05475"></scales>
<mgrwt>
<rscale>  0 0.30000000E+03</rscale>
<asrwt>  1 0.36054748E+02</asrwt>
<pdfrwt beam="1">  1        1 0.89441587E+00 0.30000000E+03</pdfrwt>
<pdfrwt beam="2">0</pdfrwt>
<totfact> 0.12731134E-04</totfact>
</mgrwt>
<clustering>
<clus scale="   36.055">  1  6  2 -1</clus>
<clus scale="  482.570">  4  5 -1 -1</clus>
<clus scale="  300.000">  1  4  2 -1</clus>
</clustering>
</event>
<event>
 6    1  0.9678510E-012  0.3000000E+03  0.7818608E-02  0.1093470E+00
          1   -1    0    0  502    0  0.00000000000E+00  0.00000000000E+00  0.24165231414E+03  0.24165231414E+03  0.00000000000E+00 0.  1.
         13   -1    0    0    0    0 -0.00000000000E+00 -0.00000000000E+00 -0.27500000000E+03  0.27500000000E+03  0.00000000000E+00 0.  1.
    9000005    2    1    2  501    0 -0.31911223743E+02  0.81285988334E+01 -0.29881062416E+02  0.48354011401E+03  0.48149118750E+03 0.  0.
         13    1    3    3    0    0  0.19938142269E+02  0.18257493175E+03 -0.17277556022E+03  0.25215576422E+03  0.00000000000E+00 0.  1.
          3    1    3    3  501    0 -0.51849366012E+02 -0.17444633292E+03  0.14289449780E+03  0.23138434979E+03  0.00000000000E+00 0.  1.
         21    1    1    2  502  501  0.31911223743E+02 -0.81285988334E+01 -0.34666234416E+01  0.33112200136E+02  0.00000000000E+00 0.  1.
<scales pt_clust_4="550.00000" pt_clust_5="550.00000" pt_clust_6="32.93025"></scales>
<mgrwt>
<rscale>  0 0.30000000E+03</rscale>
<asrwt>  1 0.32930251E+02</asrwt>
<pdfrwt beam="1">  1        1 0.87873569E+00 0.30000000E+03</pdfrwt>
<pdfrwt beam="2">0</pdfrwt>
<totfact> 0.20678946E-04</totfact>
</mgrwt>
<clustering>
<clus scale="   32.930">  1  6  2 -1</clus>
<clus scale="  481.491">  4  5 -1 -1</clus>
<clus scale="  300.000">  1  4  2 -1</clus>
</clustering>
</event>
<event>
 6    1  0.9678510E-012  0.3000000E+03  0.7818608E-02  0.1093470E+00
          1   -1    0    0  502    0  0.00000000000E+00  0.00000000000E+00  0.24412124864E+03  0.24412124864E+03  0.00000000000E+00 0.  1.
         13   -1    0    0    0    0 -0.00000000000E+00 -0.00000000000E+00 -0.27500000000E+03  0.27500000000E+03  0.00000000000E+00 0.  1.
    9000005    2    1    2  501    0  0.30799437566E+02 -0.21941609161E+02 -0.59426452572E+02  0.47173970359E+03  0.46645128911E+03 0.  0.
         13    1    3    3    0    0  0.20181396205E+03 -0.18391654202E+02  0.11034086663E+03  0.23074278985E+03  0.00000000000E+00 0.  1.
          3    1    3    3  501    0 -0.17101452448E+03 -0.35499549589E+01 -0.16976731920E+03  0.24099691374E+03  0.00000000000E+00 0.  1.
         21    1    1    2  502  501 -0.30799437566E+02  0.21941609161E+02  0.28547701216E+02  0.47381545054E+02  0.00000000000E+00 0. -1.
<scales pt_clust_4="550.00000" pt_clust_5="550.00000" pt_clust_6="37.81586"></scales>
<mgrwt>
<rscale>  0 0.30000000E+03</rscale>
<asrwt>  1 0.37815864E+02</asrwt>
<pdfrwt beam="1">  1        1 0.88771363E+00 0.30000000E+03</pdfrwt>
<pdfrwt beam="2">0</pdfrwt>
<totfact> 0.15347966E-04</totfact>
</mgrwt>
<clustering>
<clus scale="   37.816">  1  6  2 -1</clus>
<clus scale="  466.451">  4  5 -1 -1</clus>
<clus scale="  300.000">  1  4  2 -1</clus>
</clustering>
</event>
<event>
 6    1  0.9678510E-012  0.3000000E+03  0.7818608E-02  0.1093470E+00
          1   -1    0    0  502    0  0.00000000000E+00  0.00000000000E+00  0.23307964286E+03  0.23307964286E+03  0.00000000000E+00 0.  1.
         13   -1    0    0    0    0 -0.00000000000E+00 -0.00000000000E+00 -0.27500000000E+03  0.27500000000E+03  0.00000000000E+00 0.  1.
    9000005    2    1    2  501    0  0.14057527218E+02 -0.34480662424E+02 -0.47961396137E+02  0.47035664848E+03  0.46642100199E+03 0.  0.
         13    1    3    3    0    0  0.15832205160E+03 -0.35493749643E+02  0.15297335863E+03  0.22299445450E+03  0.00000000000E+00 0.  1.
          3    1    3    3  501    0 -0.14426452438E+03  0.10130872192E+01 -0.20093475477E+03  0.24736219398E+03  0.00000000000E+00 0.  1.
         21    1    1    2  502  501 -0.14057527218E+02  0.34480662424E+02  0.60410389957E+01  0.37722994378E+02  0.00000000000E+00 0.  1.
<scales pt_clust_4="550.00000" pt_clust_5="550.00000" pt_clust_6="37.23614"></scales>
<mgrwt>
<rscale>  0 0.30000000E+03</rscale>
<asrwt>  1 0.37236140E+02</asrwt>
<pdfrwt beam="1">  1        1 0.84756234E+00 0.30000000E+03</pdfrwt>
<pdfrwt beam="2">0</pdfrwt>
<totfact> 0.42374983E-04</totfact>
</mgrwt>
<clustering>
<clus scale="   37.236">  1  6  2 -1</clus>
<clus scale="  466.421">  4  5 -1 -1</clus>
<clus scale="  300.000">  1  4  2 -1</clus>
</clustering>
</event>
<event>
 6    1  0.9678510E-012  0.3000000E+03  0.7818608E-02  0.1093470E+00
          1   -1    0    0  502    0  0.00000000000E+00  0.00000000000E+00  0.22970869236E+03  0.22970869236E+03  0.00000000000E+00 0.  1.
         13   -1    0    0    0    0 -0.00000000000E+00 -0.00000000000E+00 -0.27500000000E+03  0.27500000000E+03  0.00000000000E+00 0.  1.
    9000005    2    1    2  501    0  0.18178635743E+02 -0.26581912420E+02 -0.30762857004E+02  0.46937971356E+03  0.46726213335E+03 0.  0.
         13    1    3    3    0    0  0.17546511795E+03 -0.13096552542E+02 -0.18030505363E+03  0.25193141858E+03  0.00000000000E+00 0.  1.
          1    1    3    3  501    0 -0.15728648220E+03 -0.13485359878E+02  0.14954219663E+03  0.21744829497E+03  0.00000000000E+00 0.  1.
         21    1    1    2  502  501 -0.18178635743E+02  0.26581912420E+02 -0.14528450636E+02  0.35328978803E+02  0.00000000000E+00 0.  1.
<scales pt_clust_4="550.00000" pt_clust_5="550.00000" pt_clust_6="32.20345"></scales>
<mgrwt>
<rscale>  0 0.30000000E+03</rscale>
<asrwt>  1 0.32203446E+02</asrwt>
<pdfrwt beam="1">  1        1 0.83530434E+00 0.30000000E+03</pdfrwt>
<pdfrwt beam="2">0</pdfrwt>
<totfact> 0.54674788E-04</totfact>
</mgrwt>
<clustering>
<clus scale="   32.203">  1  6  2 -1</clus>
<clus scale="  467.262">  4  5 -1 -1</clus>
<clus scale="  300.000">  1  4  2 -1</clus>
</clustering>
</event>
<event>
 6    1  0.9678510E-012  0.3000000E+03  0.7818608E-02  0.1093470E+00
          1   -1    0    0  502    0  0.00000000000E+00  0.00000000000E+00  0.22745057705E+03  0.22745057705E+03  0.00000000000E+00 0.  1.
         13   -1    0    0    0    0 -0.00000000000E+00 -0.00000000000E+00 -0.27500000000E+03  0.27500000000E+03  0.00000000000E+00 0.  1.
    9000005    2    1    2  501    0  0.37088530520E+01  0.30102946963E+02 -0.44367157634E+02  0.47195353098E+03  0.46888351189E+03 0.  0.
         13    1    3    3    0    0  0.18853099638E+03 -0.12691880458E+03 -0.17282108329E+02  0.22792759995E+03  0.00000000000E+00 0.  1.
          3    1    3    3  501    0 -0.18482214333E+03  0.15702175154E+03 -0.27085049305E+02  0.24402593103E+03  0.00000000000E+00 0.  1.
         21    1    1    2  502  501 -0.37088530520E+01 -0.30102946963E+02 -0.31822653107E+01  0.30497046075E+02  0.00000000000E+00 0.  1.
<scales pt_clust_4="550.00000" pt_clust_5="550.00000" pt_clust_6="30.33058"></scales>
<mgrwt>
<rscale>  0 0.30000000E+03</rscale>
<asrwt>  1 0.30330577E+02</asrwt>
<pdfrwt beam="1">  1        1 0.82709301E+00 0.30000000E+03</pdfrwt>
<pdfrwt beam="2">0</pdfrwt>
<totfact> 0.64306706E-04</totfact>
</mgrwt>
<clustering>
<clus scale="   30.331">  1  6  2 -1</clus>
<clus scale="  468.884">  4  5 -1 -1</clus>
<clus scale="  300.000">  1  4  2 -1</clus>
</clustering>
</event>
<event>
 6    1  0.9678510E-012  0.3000000E+03  0.7818608E-02  0.1093470E+00
          1   -1    0    0  502    0  0.00000000000E+00  0.00000000000E+00  0.23326585759E+03  0.23326585759E+03  0.00000000000E+00 0.  1.
         13   -1    0    0    0    0 -0.00000000000E+00 -0.00000000000E+00 -0.27500000000E+03  0.27500000000E+03  0.00000000000E+00 0.  1.
    9000005    2    1    2  501    0 -0.20000554917E+02  0.30435557738E+02 -0.61522081221E+02  0.46681820513E+03  0.46131109329E+03 0.  0.
         13    1    3    3    0    0  0.21112169370E+03 -0.26463963989E+02 -0.81747595541E+02  0.22793722890E+03  0.00000000000E+00 0.  1.
          3    1    3    3  501    0 -0.23112224862E+03  0.56899521727E+02  0.20225514320E+02  0.23888097624E+03  0.00000000000E+00 0.  1.
         21    1    1    2  502  501  0.20000554917E+02 -0.30435557738E+02  0.19787938811E+02  0.41447652457E+02  0.00000000000E+00 0.  1.
<scales pt_clust_4="550.00000" pt_clust_5="550.00000" pt_clust_6="36.41902"></scales>
<mgrwt>
<rscale>  0 0.30000000E+03</rscale>
<asrwt>  1 0.36419025E+02</asrwt>
<pdfrwt beam="1">  1        1 0.84823948E+00 0.30000000E+03</pdfrwt>
<pdfrwt beam="2">0</pdfrwt>
<totfact> 0.41947708E-04</totfact>
</mgrwt>
<clustering>
<clus scale="   36.419">  1  6  2 -1</clus>
<clus scale="  461.311">  4  5 -1 -1</clus>
<clus scale="  300.000">  1  4  2 -1</clus>
</clustering>
</event>
<event>
 6    1  0.9678510E-012  0.3000000E+03  0.7818608E-02  0.1093470E+00
          1   -1    0    0  502    0  0.00000000000E+00  0.00000000000E+00  0.23347721888E+03  0.23347721888E+03  0.00000000000E+00 0.  1.
         13   -1    0    0    0    0 -0.00000000000E+00 -0.00000000000E+00 -0.27500000000E+03  0.27500000000E+03  0.00000000000E+00 0.  1.
    9000005    2    1    2  501    0  0.25436451092E+02 -0.17609125470E+02 -0.66375901935E+02  0.46879382237E+03  0.46303865194E+03 0.  0.
         13    1    3    3    0    0 -0.11230518552E+03 -0.18455539746E+03  0.51849543838E+02  0.22217453639E+03  0.00000000000E+00 0.  1.
          3    1    3    3  501    0  0.13774163661E+03  0.16694627199E+03 -0.11822544577E+03  0.24661928598E+03  0.00000000000E+00 0.  1.
         21    1    1    2  502  501 -0.25436451092E+02  0.17609125470E+02  0.24853120811E+02  0.39683396503E+02  0.00000000000E+00 0.  1.
<scales pt_clust_4="550.00000" pt_clust_5="550.00000" pt_clust_6="30.93694"></scales>
<mgrwt>
<rscale>  0 0.30000000E+03</rscale>
<asrwt>  1 0.30936941E+02</asrwt>
<pdfrwt beam="1">  1        1 0.84900807E+00 0.30000000E+03</pdfrwt>
<pdfrwt beam="2">0</pdfrwt>
<totfact> 0.42557199E-04</totfact>
</mgrwt>
<clustering>
<clus scale="   30.937">  1  6  2 -1</clus>
<clus scale="  463.039">  4  5 -1 -1</clus>
<clus scale="  300.000">  1  4  2 -1</clus>
</clustering>
</event>
<event>
 6    1  0.9678510E-012  0.3000000E+03  0.7818608E-02  0.1093470E+00
          1   -1    0    0  502    0  0.00000000000E+00  0.00000000000E+00  0.22633930268E+03  0.22633930268E+03  0.00000000000E+00 0.  1.
         13   -1    0    0    0    0 -0.00000000000E+00 -0.00000000000E+00 -0.27500000000E+03  0.27500000000E+03  0.00000000000E+00 0.  1.
    9000005    2    1    2  501    0 -0.12717326430E+02 -0.29090593393E+02 -0.61529362284E+02  0.46708152176E+03  0.46192130556E+03 0.  0.
         13    1    3    3    0    0  0.18581820069E+03 -0.35257962392E+02 -0.15783002466E+03  0.24633685129E+03  0.00000000000E+00 0.  1.
          3    1    3    3  501    0 -0.19853552712E+03  0.61673689995E+01  0.96300662375E+02  0.22074467047E+03  0.00000000000E+00 0.  1.
         21    1    1    2  502  501  0.12717326430E+02  0.29090593393E+02  0.12868664965E+02  0.34257780918E+02  0.00000000000E+00 0.  1.
<scales pt_clust_4="550.00000" pt_clust_5="550.00000" pt_clust_6="31.74891"></scales>
<mgrwt>
<rscale>  0 0.30000000E+03</rscale>
<asrwt>  1 0.31748906E+02</asrwt>
<pdfrwt beam="1">  1        1 0.82305201E+00 0.30000000E+03</pdfrwt>
<pdfrwt beam="2">0</pdfrwt>
<totfact> 0.69249553E-04</totfact>
</mgrwt>
<clustering>
<clus scale="   31.749">  1  6  2 -1</clus>
<clus scale="  461.921">  4  5 -1 -1</clus>
<clus scale="  300.000">  1  4  2 -1</clus>
</clustering>
</event>
<event>
 6    1  0.9678510E-012  0.3000000E+03  0.7818608E-02  0.1093470E+00
          1   -1    0    0  502    0  0.00000000000E+00  0.00000000000E+00  0.23180491548E+03  0.23180491548E+03  0.00000000000E+00 0.  1.
         13   -1    0    0    0    0 -0.00000000000E+00 -0.00000000000E+00 -0.27500000000E+03  0.27500000000E+03  0.00000000000E+00 0.  1.
    9000005    2    1    2  501    0 -0.15595463318E+02  0.28649200016E+02 -0.20420659779E+02  0.46702213580E+03  0.46543385872E+03 0.  0.
         13    1    3    3    0    0  0.97650868561E+02  0.21919679528E+03 -0.44508541456E+02  0.24405724217E+03  0.00000000000E+00 0.  1.
          1    1    3    3  501    0 -0.11324633188E+03 -0.19054759527E+03  0.24087881676E+02  0.22296489363E+03  0.00000000000E+00 0.  1.
         21    1    1    2  502  501  0.15595463318E+02 -0.28649200016E+02 -0.22774424736E+02  0.39782779688E+02  0.00000000000E+00 0.  1.
<scales pt_clust_4="550.00000" pt_clust_5="550.00000" pt_clust_6="32.61895"></scales>
<mgrwt>
<rscale>  0 0.30000000E+03</rscale>
<asrwt>  1 0.32618955E+02</asrwt>
<pdfrwt beam="1">  1        1 0.84292697E+00 0.30000000E+03</pdfrwt>
<pdfrwt beam="2">0</pdfrwt>
<totfact> 0.47699577E-04</totfact>
</mgrwt>
<clustering>
<clus scale="   32.619">  1  6  2 -1</clus>
<clus scale="  465.434">  4  5 -1 -1</clus>
<clus scale="  300.000">  1  4  2 -1</clus>
</clustering>
</event>
<event>
 6    1  0.9678510E-012  0.3000000E+03  0.7818608E-02  0.1093470E+00
          1   -1    0    0  502    0  0.00000000000E+00  0.00000000000E+00  0.24054384168E+03  0.24054384168E+03  0.00000000000E+00 0.  1.
         13   -1    0    0    0    0 -0.00000000000E+00 -0.00000000000E+00 -0.27500000000E+03  0.27500000000E+03  0.00000000000E+00 0.  1.
    9000005    2    1    2  501    0  0.30847212417E+02  0.39423431985E+01 -0.62589992707E+02  0.47360811442E+03  0.46842293525E+03 0.  0.
         13    1    3    3    0    0 -0.12589374161E+03 -0.10078920497E+02 -0.21831563448E+03  0.25221525543E+03  0.00000000000E+00 0.  1.
          1    1    3    3  501    0  0.15674095403E+03  0.14021263695E+02  0.15572564177E+03  0.22139285899E+03  0.00000000000E+00 0.  1.
         21    1    1    2  502  501 -0.30847212417E+02 -0.39423431985E+01  0.28133834392E+02  0.41935727267E+02  0.00000000000E+00 0. -1.
<scales pt_clust_4="550.00000" pt_clust_5="550.00000" pt_clust_6="31.09811"></scales>
<mgrwt>
<rscale>  0 0.30000000E+03</rscale>
<asrwt>  1 0.31098112E+02</asrwt>
<pdfrwt beam="1">  1        1 0.87470488E+00 0.30000000E+03</pdfrwt>
<pdfrwt beam="2">0</pdfrwt>
<totfact> 0.23166672E-04</totfact>
</mgrwt>
<clustering>
<clus scale="   31.098">  1  6  2 -1</clus>
<clus scale="  468.423">  4  5 -1 -1</clus>
<clus scale="  300.000">  1  4  2 -1</clus>
</clustering>
</event>
<event>
 6    1  0.9678510E-012  0.3000000E+03  0.7818608E-02  0.1093470E+00
          1   -1    0    0  502    0  0.00000000000E+00  0.00000000000E+00  0.25264254791E+03  0.25264254791E+03  0.00000000000E+00 0.  1.
         13   -1    0    0    0    0 -0.00000000000E+00 -0.00000000000E+00 -0.27500000000E+03  0.27500000000E+03  0.00000000000E+00 0.  1.
    9000005    2    1    2  501    0  0.29944935679E+02  0.21157782044E+02 -0.12867047408E+02  0.48976882754E+03  0.48822494058E+03 0.  0.
         13    1    3    3    0    0  0.26990230098E+02  0.22999015207E+03 -0.11355441544E+03  0.25791189937E+03  0.00000000000E+00 0.  1.
          1    1    3    3  501    0  0.29547055808E+01 -0.20883237003E+03  0.10068736804E+03  0.23185692816E+03  0.00000000000E+00 0.  1.
         21    1    1    2  502  501 -0.29944935679E+02 -0.21157782044E+02 -0.94904046832E+01  0.37873720373E+02  0.00000000000E+00 0.  1.
<scales pt_clust_4="550.00000" pt_clust_5="550.00000" pt_clust_6="36.66541"></scales>
<mgrwt>
<rscale>  0 0.30000000E+03</rscale>
<asrwt>  1 0.36665410E+02</asrwt>
<pdfrwt beam="1">  1        1 0.91870017E+00 0.30000000E+03</pdfrwt>
<pdfrwt beam="2">0</pdfrwt>
<totfact> 0.44247729E-05</totfact>
</mgrwt>
<clustering>
<clus scale="   36.665">  1  6  2 -1</clus>
<clus scale="  488.225">  4  5 -1 -1</clus>
<clus scale="  300.000">  1  4  2 -1</clus>
</clustering>
</event>
<event>
 6    1  0.9678510E-012  0.3000000E+03  0.7818608E-02  0.1093470E+00
          1   -1    0    0  502    0  0.00000000000E+00  0.00000000000E+00  0.22960268618E+03  0.22960268618E+03  0.00000000000E+00 0.  1.
         13   -1    0    0    0    0 -0.00000000000E+00 -0.00000000000E+00 -0.27500000000E+03  0.27500000000E+03  0.00000000000E+00 0.  1.
    9000005    2    1    2  501    0  0.22924491775E+02 -0.28773245462E+02 -0.49241213990E+02  0.46761339657E+03  0.46355599394E+03 0.  0.
         13    1    3    3    0    0  0.50345057772E+01 -0.12564507486E+03  0.17915403468E+03  0.21887941710E+03  0.00000000000E+00 0.  1.
          1    1    3    3  501    0  0.17889985998E+02  0.96871829401E+02 -0.22839524867E+03  0.24873397948E+03  0.00000000000E+00 0.  1.
         21    1    1    2  502  501 -0.22924491775E+02  0.28773245462E+02  0.38439001746E+01  0.36989289613E+02  0.00000000000E+00 0.  1.
<scales pt_clust_4="550.00000" pt_clust_5="550.00000" pt_clust_6="36.78902"></scales>
<mgrwt>
<rscale>  0 0.30000000E+03</rscale>
<asrwt>  1 0.36789020E+02</asrwt>
<pdfrwt beam="1">  1        1 0.83491886E+00 0.30000000E+03</pdfrwt>
<pdfrwt beam="2">0</pdfrwt>
<totfact> 0.53672330E-04</totfact>
</mgrwt>
<clustering>
<clus scale="   36.789">  1  6  2 -1</clus>
<clus scale="  463.556">  4  5 -1 -1</clus>
<clus scale="  300.000">  1  4  2 -1</clus>
</clustering>
</event>
<event>
 6    1  0.9678510E-012  0.3000000E+03  0.7818608E-02  0.1093470E+00
          1   -1    0    0  502    0  0.00000000000E+00  0.00000000000E+00  0.25113726906E+03  0.25113726906E+03  0.00000000000E+00 0.  1.
         13   -1    0    0    0    0 -0.00000000000E+00 -0.00000000000E+00 -0.27500000000E+03  0.27500000000E+03  0.00000000000E+00 0.  1.
    9000005    2    1    2  501    0  0.22628099020E+02 -0.24796911896E+02 -0.18211971548E+02  0.49209540092E+03  0.49061113929E+03 0.  0.
         13    1    3    3    0    0 -0.18495330961E+03  0.50327420123E+02 -0.14241766131E+03  0.23879565785E+03  0.00000000000E+00 0.  1.
          3    1    3    3  501    0  0.20758140863E+03 -0.75124332019E+02  0.12420568976E+03  0.25329974307E+03  0.00000000000E+00 0.  1.
         21    1    1    2  502  501 -0.22628099020E+02  0.24796911896E+02 -0.56507593933E+01  0.34041868141E+02  0.00000000000E+00 0.  1.
<scales pt_clust_4="550.00000" pt_clust_5="550.00000" pt_clust_6="33.56961"></scales>
<mgrwt>
<rscale>  0 0.30000000E+03</rscale>
<asrwt>  1 0.33569612E+02</asrwt>
<pdfrwt beam="1">  1        1 0.91322643E+00 0.30000000E+03</pdfrwt>
<pdfrwt beam="2">0</pdfrwt>
<totfact> 0.60212869E-05</totfact>
</mgrwt>
<clustering>
<clus scale="   33.570">  1  6  2 -1</clus>
<clus scale="  490.611">  4  5 -1 -1</clus>
<clus scale="  300.000">  1  4  2 -1</clus>
</clustering>
</event>
<event>
 6    1  0.9678510E-012  0.3000000E+03  0.7818608E-02  0.1093470E+00
          1   -1    0    0  502    0  0.00000000000E+00  0.00000000000E+00  0.22139790338E+03  0.22139790338E+03  0.00000000000E+00 0.  1.
         13   -1    0    0    0    0 -0.00000000000E+00 -0.00000000000E+00 -0.27500000000E+03  0.27500000000E+03  0.00000000000E+00 0.  1.
    9000005    2    1    2  501    0  0.22682052069E+02  0.26293993804E+02 -0.40832445937E+02  0.45939907131E+03  0.45626129409E+03 0.  0.
         13    1    3    3    0    0 -0.10599513446E+02 -0.22554549617E+02 -0.24529821332E+03  0.24656088670E+03  0.00000000000E+00 0.  1.
          1    1    3    3  501    0  0.33281565515E+02  0.48848543422E+02  0.20446576738E+03  0.21283818461E+03  0.00000000000E+00 0.  1.
         21    1    1    2  502  501 -0.22682052069E+02 -0.26293993804E+02 -0.12769650682E+02  0.36998832073E+02  0.00000000000E+00 0.  1.
<scales pt_clust_4="550.00000" pt_clust_5="550.00000" pt_clust_6="34.72536"></scales>
<mgrwt>
<rscale>  0 0.30000000E+03</rscale>
<asrwt>  1 0.34725363E+02</asrwt>
<pdfrwt beam="1">  1        1 0.80508329E+00 0.30000000E+03</pdfrwt>
<pdfrwt beam="2">0</pdfrwt>
<totfact> 0.95296909E-04</totfact>
</mgrwt>
<clustering>
<clus scale="   34.725">  1  6  2 -1</clus>
<clus scale="  456.261">  4  5 -1 -1</clus>
<clus scale="  300.000">  1  4  2 -1</clus>
</clustering>
</event>
<event>
 6    1  0.9678510E-012  0.3000000E+03  0.7818608E-02  0.1093470E+00
          1   -1    0    0  502    0  0.00000000000E+00  0.00000000000E+00  0.25391850005E+03  0.25391850005E+03  0.00000000000E+00 0.  1.
         13   -1    0    0    0    0 -0.00000000000E+00 -0.00000000000E+00 -0.27500000000E+03  0.27500000000E+03  0.00000000000E+00 0.  1.
    9000005    2    1    2  501    0 -0.36089318041E+02  0.15326199792E+02 -0.40101429471E+02  0.48533996181E+03  0.48208860451E+03 0.  0.
         13    1    3    3    0    0 -0.10743544108E+03 -0.21371158625E+03 -0.53377885928E+02  0.24508001715E+03  0.00000000000E+00 0.  1.
          1    1    3    3  501    0  0.71346123044E+02  0.22903778605E+03  0.13276456457E+02  0.24025994466E+03  0.00000000000E+00 0.  1.
         21    1    1    2  502  501  0.36089318041E+02 -0.15326199792E+02  0.19019929524E+02  0.43578538248E+02  0.00000000000E+00 0.  1.
<scales pt_clust_4="550.00000" pt_clust_5="550.00000" pt_clust_6="39.20882"></scales>
<mgrwt>
<rscale>  0 0.30000000E+03</rscale>
<asrwt>  1 0.39208816E+02</asrwt>
<pdfrwt beam="1">  1        1 0.92334000E+00 0.30000000E+03</pdfrwt>
<pdfrwt beam="2">0</pdfrwt>
<totfact> 0.34759775E-05</totfact>
</mgrwt>
<clustering>
<clus scale="   39.209">  1  6  2 -1</clus>
<clus scale="  482.089">  4  5 -1 -1</clus>
<clus scale="  300.000">  1  4  2 -1</clus>
</clustering>
</event>
<event>
 6    1  0.9678510E-012  0.3000000E+03  0.7818608E-02  0.1093470E+00
          1   -1    0    0  502    0  0.00000000000E+00  0.00000000000E+00  0.24643962063E+03  0.24643962063E+03  0.00000000000E+00 0.  1.
         13   -1    0    0    0    0 -0.00000000000E+00 -0.00000000000E+00 -0.27500000000E+03  0.27500000000E+03  0.00000000000E+00 0.  1.
    9000005    2    1    2  501    0 -0.18977408538E+02 -0.32768257985E+02 -0.41983613038E+02  0.48126395675E+03  0.47793145067E+03 0.  0.
         13    1    3    3    0    0 -0.11899835900E+03 -0.89053713860E+02 -0.22236560544E+03  0.26746520499E+03  0.00000000000E+00 0.  1.
          3    1    3    3  501    0  0.10002095046E+03  0.56285455875E+02  0.18038199240E+03  0.21379875176E+03  0.00000000000E+00 0.  1.
         21    1    1    2  502  501  0.18977408538E+02  0.32768257985E+02  0.13423233670E+02  0.40175663882E+02  0.00000000000E+00 0. -1.
<scales pt_clust_4="550.00000" pt_clust_5="550.00000" pt_clust_6="37.86688"></scales>
<mgrwt>
<rscale>  0 0.30000000E+03</rscale>
<asrwt>  1 0.37866882E+02</asrwt>
<pdfrwt beam="1">  1        1 0.89614408E+00 0.30000000E+03</pdfrwt>
<pdfrwt beam="2">0</pdfrwt>
<totfact> 0.12066083E-04</totfact>
</mgrwt>
<clustering>
<clus scale="   37.867">  1  6  2 -1</clus>
<clus scale="  477.931">  4  5 -1 -1</clus>
<clus scale="  300.000">  1  4  2 -1</clus>
</clustering>
</event>
<event>
 6    1  0.9678510E-012  0.3000000E+03  0.7818608E-02  0.1093470E+00
          1   -1    0    0  502    0  0.00000000000E+00  0.00000000000E+00  0.26000092827E+03  0.26000092827E+03  0.00000000000E+00 0.  1.
         13   -1    0    0    0    0 -0.00000000000E+00 -0.00000000000E+00 -0.27500000000E+03  0.27500000000E+03  0.00000000000E+00 0.  1.
    9000005    2    1    2  501    0  0.15316836961E+01  0.30580933421E+02 -0.27224193485E+02  0.50203134918E+03  0.50035665210E+03 0.  0.
         13    1    3    3    0    0  0.18605595820E+03  0.12064508191E+03 -0.14535711795E+03  0.26514288055E+03  0.00000000000E+00 0.  1.
          1    1    3    3  501    0 -0.18452427450E+03 -0.90064148491E+02  0.11813292447E+03  0.23688846862E+03  0.00000000000E+00 0.  1.
         21    1    1    2  502  501 -0.15316836961E+01 -0.30580933421E+02  0.12225121759E+02  0.32969579097E+02  0.00000000000E+00 0. -1.
<scales pt_clust_4="550.00000" pt_clust_5="550.00000" pt_clust_6="30.61927"></scales>
<mgrwt>
<rscale>  0 0.30000000E+03</rscale>
<asrwt>  1 0.30619268E+02</asrwt>
<pdfrwt beam="1">  1        1 0.94545792E+00 0.30000000E+03</pdfrwt>
<pdfrwt beam="2">0</pdfrwt>
<totfact> 0.15623885E-05</totfact>
</mgrwt>
<clustering>
<clus scale="   30.619">  1  6  2 -1</clus>
<clus scale="  500.357">  4  5 -1 -1</clus>
<clus scale="  300.000">  1  4  2 -1</clus>
</clustering>
</event>
<event>
 6    1  0.9678510E-012  0.3000000E+03  0.7818608E-02  0.1093470E+00
          1   -1    0    0  502    0  0.00000000000E+00  0.00000000000E+00  0.23129280696E+03  0.23129280696E+03  0.00000000000E+00 0.  1.
         13   -1    0    0    0    0 -0.00000000000E+00 -0.00000000000E+00 -0.27500000000E+03  0.27500000000E+03  0.00000000000E+00 0.  1.
    9000005    2    1    2  501    0  0.30545566034E+02 -0.17175120656E+02 -0.44630012294E+02  0.47123759380E+03  0.46780873810E+03 0.  0.
         13    1    3    3    0    0  0.10275995173E+03 -0.22523914724E+03 -0.41156766485E+02  0.25097043761E+03  0.00000000000E+00 0.  1.
          1    1    3    3  501    0 -0.72214385698E+02  0.20806402658E+03 -0.34732458088E+01  0.22026715619E+03  0.00000000000E+00 0.  1.
         21    1    1    2  502  501 -0.30545566034E+02  0.17175120656E+02  0.92281925139E+00  0.35055213154E+02  0.00000000000E+00 0. -1.
<scales pt_clust_4="550.00000" pt_clust_5="550.00000" pt_clust_6="35.04306"></scales>
<mgrwt>
<rscale>  0 0.30000000E+03</rscale>
<asrwt>  1 0.35043065E+02</asrwt>
<pdfrwt beam="1">  1        1 0.84106475E+00 0.30000000E+03</pdfrwt>
<pdfrwt beam="2">0</pdfrwt>
<totfact> 0.48750366E-04</totfact>
</mgrwt>
<clustering>
<clus scale="   35.043">  1  6  2 -1</clus>
<clus scale="  467.809">  4  5 -1 -1</clus>
<clus scale="  300.000">  1  4  2 -1</clus>
</clustering>
</event>
<event>
 6    1  0.9678510E-012  0.3000000E+03  0.7818608E-02  0.1093470E+00
          1   -1    0    0  502    0  0.00000000000E+00  0.00000000000E+00  0.23853640169E+03  0.23853640169E+03  0.00000000000E+00 0.  1.
         13   -1    0    0    0    0 -0.00000000000E+00 -0.00000000000E+00 -0.27500000000E+03  0.27500000000E+03  0.00000000000E+00 0.  1.
    9000005    2    1    2  501    0 -0.31577486905E+02  0.40546110913E+01 -0.73646872877E+02  0.46458567690E+03  0.45760508273E+03 0.  0.
         13    1    3    3    0    0 -0.10661003723E+03  0.16110895867E+03 -0.17712045620E+03  0.26209435821E+03  0.00000000000E+00 0.  1.
          1    1    3    3  501    0  0.75032550323E+02 -0.15705434758E+03  0.10347358332E+03  0.20249131869E+03  0.00000000000E+00 0.  1.
         21    1    1    2  502  501  0.31577486905E+02 -0.40546110913E+01  0.37183274566E+02  0.48950724793E+02  0.00000000000E+00 0.  1.
<scales pt_clust_4="550.00000" pt_clust_5="550.00000" pt_clust_6="31.83673"></scales>
<mgrwt>
<rscale>  0 0.30000000E+03</rscale>
<asrwt>  1 0.31836733E+02</asrwt>
<pdfrwt beam="1">  1        1 0.86740510E+00 0.30000000E+03</pdfrwt>
<pdfrwt beam="2">0</pdfrwt>
<totfact> 0.27422567E-04</totfact>
</mgrwt>
<clustering>
<clus scale="   31.837">  1  6  2 -1</clus>
<clus scale="  457.605">  4  5 -1 -1</clus>
<clus scale="  300.000">  1  4  2 -1</clus>
</clustering>
</event>
<event>
 6    1  0.9678510E-012  0.3000000E+03  0.7818608E-02  0.1093470E+00
          1   -1    0    0  502    0  0.00000000000E+00  0.00000000000E+00  0.24889831755E+03  0.24889831755E+03  0.00000000000E+00 0.  1.
         13   -1    0    0    0    0 -0.00000000000E+00 -0.00000000000E+00 -0.27500000000E+03  0.27500000000E+03  0.00000000000E+00 0.  1.
    9000005    2    1    2  501    0 -0.47883609416E+02  0.29268974193E+02 -0.40916030486E+02  0.46585542127E+03  0.46064914965E+03 0.  0.
         13    1    3    3    0    0  0.64865970869E+02  0.54089644383E+02 -0.22960686721E+03  0.24464790470E+03  0.00000000000E+00 0.  1.
          1    1    3    3  501    0 -0.11274958029E+03 -0.24820670190E+02  0.18869083672E+03  0.22120751657E+03  0.00000000000E+00 0.  1.
         21    1    1    2  502  501  0.47883609416E+02 -0.29268974193E+02  0.14814348039E+02  0.58042896282E+02  0.00000000000E+00 0.  1.
<scales pt_clust_4="550.00000" pt_clust_5="550.00000" pt_clust_6="56.12052"></scales>
<mgrwt>
<rscale>  0 0.30000000E+03</rscale>
<asrwt>  1 0.56120521E+02</asrwt>
<pdfrwt beam="1">  1        1 0.90508479E+00 0.30000000E+03</pdfrwt>
<pdfrwt beam="2">0</pdfrwt>
<totfact> 0.84647669E-05</totfact>
</mgrwt>
<clustering>
<clus scale="   56.121">  1  6  2 -1</clus>
<clus scale="  460.649">  4  5 -1 -1</clus>
<clus scale="  300.000">  1  4  2 -1</clus>
</clustering>
</event>
<event>
 6    1  0.9678510E-012  0.3000000E+03  0.7818608E-02  0.1093470E+00
          1   -1    0    0  502    0  0.00000000000E+00  0.00000000000E+00  0.22694388132E+03  0.22694388132E+03  0.00000000000E+00 0.  1.
         13   -1    0    0    0    0 -0.00000000000E+00 -0.00000000000E+00 -0.27500000000E+03  0.27500000000E+03  0.00000000000E+00 0.  1.
    9000005    2    1    2  501    0  0.18119191265E+02 -0.24185945085E+02 -0.66577030866E+02  0.46649971085E+03  0.46073442910E+03 0.  0.
         13    1    3    3    0    0 -0.46859065898E+02  0.12454355344E+03  0.14697914240E+03  0.19826683298E+03  0.00000000000E+00 0.  1.
          3    1    3    3  501    0  0.64978257163E+02 -0.14872949852E+03 -0.21355617326E+03  0.26823287788E+03  0.00000000000E+00 0.  1.
         21    1    1    2  502  501 -0.18119191265E+02  0.24185945085E+02  0.18520912183E+02  0.35444170463E+02  0.00000000000E+00 0.  1.
<scales pt_clust_4="550.00000" pt_clust_5="550.00000" pt_clust_6="30.22028"></scales>
<mgrwt>
<rscale>  0 0.30000000E+03</rscale>
<asrwt>  1 0.30220275E+02</asrwt>
<pdfrwt beam="1">  1        1 0.82525048E+00 0.30000000E+03</pdfrwt>
<pdfrwt beam="2">0</pdfrwt>
<totfact> 0.66816921E-04</totfact>
</mgrwt>
<clustering>
<clus scale="   30.220">  1  6  2 -1</clus>
<clus scale="  460.734">  4  5 -1 -1</clus>
<clus scale="  300.000">  1  4  2 -1</clus>
</clustering>
</event>
<event>
 6    1  0.9678510E-012  0.3000000E+03  0.7818608E-02  0.1093470E+00
          1   -1    0    0  502    0  0.00000000000E+00  0.00000000000E+00  0.24202528697E+03  0.24202528697E+03  0.00000000000E+00 0.  1.
         13   -1    0    0    0    0 -0.00000000000E+00 -0.00000000000E+00 -0.27500000000E+03  0.27500000000E+03  0.00000000000E+00 0.  1.
    9000005    2    1    2  501    0  0.32863520050E+02 -0.32715497206E+01 -0.40472538669E+02  0.48315891166E+03  0.48032675705E+03 0.  0.
         13    1    3    3    0    0  0.22978992819E+03 -0.11275827828E+03 -0.14929244698E+02  0.25639953738E+03  0.00000000000E+00 0.  1.
          1    1    3    3  501    0 -0.19692640814E+03  0.10948672856E+03 -0.25543293971E+02  0.22675937428E+03  0.00000000000E+00 0.  1.
         21    1    1    2  502  501 -0.32863520050E+02  0.32715497206E+01  0.74978256419E+01  0.33866375315E+02  0.00000000000E+00 0. -1.
<scales pt_clust_4="550.00000" pt_clust_5="550.00000" pt_clust_6="33.02596"></scales>
<mgrwt>
<rscale>  0 0.30000000E+03</rscale>
<asrwt>  1 0.33025959E+02</asrwt>
<pdfrwt beam="1">  1        1 0.88009195E+00 0.30000000E+03</pdfrwt>
<pdfrwt beam="2">0</pdfrwt>
<totfact> 0.19902279E-04</totfact>
</mgrwt>
<clustering>
<clus scale="   33.026">  1  6  2 -1</clus>
<clus scale="  480.327">  4  5 -1 -1</clus>
<clus scale="  300.000">  1  4  2 -1</clus>
</clustering>
</event>
<event>
 6    1  0.9678510E-012  0.3000000E+03  0.7818608E-02  0.1093470E+00
          1   -1    0    0  502    0  0.00000000000E+00  0.00000000000E+00  0.23431145799E+03  0.23431145799E+03  0.00000000000E+00 0.  1.
         13   -1    0    0    0    0 -0.00000000000E+00 -0.00000000000E+00 -0.27500000000E+03  0.27500000000E+03  0.00000000000E+00 0.  1.
    9000005    2    1    2  501    0 -0.48914810623E+00 -0.46730013788E+02 -0.41835568562E+02  0.46256480972E+03  0.45829254297E+03 0.  0.
         13    1    3    3    0    0  0.31380641229E+02 -0.24773343070E+03 -0.64176720317E+02  0.25782794410E+03  0.00000000000E+00 0.  1.
          1    1    3    3  501    0 -0.31869789336E+02  0.20100341691E+03  0.22341151755E+02  0.20473686562E+03  0.00000000000E+00 0.  1.
         21    1    1    2  502  501  0.48914810623E+00  0.46730013788E+02  0.11470265517E+01  0.46746648269E+02  0.00000000000E+00 0.  1.
<scales pt_clust_4="550.00000" pt_clust_5="550.00000" pt_clust_6="46.73257"></scales>
<mgrwt>
<rscale>  0 0.30000000E+03</rscale>
<asrwt>  1 0.46732574E+02</asrwt>
<pdfrwt beam="1">  1        1 0.85204167E+00 0.30000000E+03</pdfrwt>
<pdfrwt beam="2">0</pdfrwt>
<totfact> 0.36927095E-04</totfact>
</mgrwt>
<clustering>
<clus scale="   46.733">  1  6  2 -1</clus>
<clus scale="  458.293">  4  5 -1 -1</clus>
<clus scale="  300.000">  1  4  2 -1</clus>
</clustering>
</event>
<event>
 6    1  0.9678510E-012  0.3000000E+03  0.7818608E-02  0.1093470E+00
          1   -1    0    0  502    0  0.00000000000E+00  0.00000000000E+00  0.26056418464E+03  0.26056418464E+03  0.00000000000E+00 0.  1.
         13   -1    0    0    0    0 -0.00000000000E+00 -0.00000000000E+00 -0.27500000000E+03  0.27500000000E+03  0.00000000000E+00 0.  1.
    9000005    2    1    2  501    0 -0.26053490547E+02 -0.17909107307E+02 -0.50743083155E+02  0.48742129120E+03  0.48374077162E+03 0.  0.
         13    1    3    3    0    0 -0.14565942313E+03 -0.17869862284E+03 -0.13817807076E+03  0.26878066261E+03  0.00000000000E+00 0.  1.
          1    1    3    3  501    0  0.11960593258E+03  0.16078951553E+03  0.87434987609E+02  0.21864062859E+03  0.00000000000E+00 0.  1.
         21    1    1    2  502  501  0.26053490547E+02  0.17909107307E+02  0.36307267796E+02  0.48142893442E+02  0.00000000000E+00 0.  1.
<scales pt_clust_4="550.00000" pt_clust_5="550.00000" pt_clust_6="31.61519"></scales>
<mgrwt>
<rscale>  0 0.30000000E+03</rscale>
<asrwt>  1 0.31615194E+02</asrwt>
<pdfrwt beam="1">  1        1 0.94750613E+00 0.30000000E+03</pdfrwt>
<pdfrwt beam="2">0</pdfrwt>
<totfact> 0.14140949E-05</totfact>
</mgrwt>
<clustering>
<clus scale="   31.615">  1  6  2 -1</clus>
<clus scale="  483.741">  4  5 -1 -1</clus>
<clus scale="  300.000">  1  4  2 -1</clus>
</clustering>
</event>
<event>
 6    1  0.9678510E-012  0.3000000E+03  0.7818608E-02  0.1093470E+00
          1   -1    0    0  502    0  0.00000000000E+00  0.00000000000E+00  0.24769598949E+03  0.24769598949E+03  0.00000000000E+00 0.  1.
         13   -1    0    0    0    0 -0.00000000000E+00 -0.00000000000E+00 -0.27500000000E+03  0.27500000000E+03  0.00000000000E+00 0.  1.
    9000005    2    1    2  501    0 -0.32596098249E+02 -0.25836342754E+02 -0.50484518421E+02  0.47507920490E+03  0.47055450492E+03 0.  0.
         13    1    3    3    0    0  0.64287665611E+02  0.66756767869E+02  0.18341897898E+03  0.20550399474E+03  0.00000000000E+00 0.  1.
          3    1    3    3  501    0 -0.96883763860E+02 -0.92593110623E+02 -0.23390349740E+03  0.26957521016E+03  0.00000000000E+00 0.  1.
         21    1    1    2  502  501  0.32596098249E+02  0.25836342754E+02  0.23180507915E+02  0.47616784595E+02  0.00000000000E+00 0.  1.
<scales pt_clust_4="550.00000" pt_clust_5="550.00000" pt_clust_6="41.59354"></scales>
<mgrwt>
<rscale>  0 0.30000000E+03</rscale>
<asrwt>  1 0.41593536E+02</asrwt>
<pdfrwt beam="1">  1        1 0.90071269E+00 0.30000000E+03</pdfrwt>
<pdfrwt beam="2">0</pdfrwt>
<totfact> 0.10475660E-04</totfact>
</mgrwt>
<clustering>
<clus scale="   41.594">  1  6  2 -1</clus>
<clus scale="  470.555">  4  5 -1 -1</clus>
<clus scale="  300.000">  1  4  2 -1</clus>
</clustering>
</event>
<event>
 6    1  0.9678510E-012  0.3000000E+03  0.7818608E-02  0.1093470E+00
          1   -1    0    0  502    0  0.00000000000E+00  0.00000000000E+00  0.23962287792E+03  0.23962287792E+03  0.00000000000E+00 0.  1.
         13   -1    0    0    0    0 -0.00000000000E+00 -0.00000000000E+00 -0.27500000000E+03  0.27500000000E+03  0.00000000000E+00 0.  1.
    9000005    2    1    2  501    0  0.10353479104E+02 -0.29166033632E+02 -0.48453764763E+02  0.48102450547E+03  0.47757612534E+03 0.  0.
         13    1    3    3    0    0  0.23546336569E+03  0.51063320974E+01 -0.85037377498E+02  0.25040053271E+03  0.00000000000E+00 0.  1.
          1    1    3    3  501    0 -0.22510988659E+03 -0.34272365729E+02  0.36583612735E+02  0.23062397276E+03  0.00000000000E+00 0.  1.
         21    1    1    2  502  501 -0.10353479104E+02  0.29166033632E+02  0.13076642682E+02  0.33598372449E+02  0.00000000000E+00 0.  1.
<scales pt_clust_4="550.00000" pt_clust_5="550.00000" pt_clust_6="30.94918"></scales>
<mgrwt>
<rscale>  0 0.30000000E+03</rscale>
<asrwt>  1 0.30949185E+02</asrwt>
<pdfrwt beam="1">  1        1 0.87135592E+00 0.30000000E+03</pdfrwt>
<pdfrwt beam="2">0</pdfrwt>
<totfact> 0.25108090E-04</totfact>
</mgrwt>
<clustering>
<clus scale="   30.949">  1  6  2 -1</clus>
<clus scale="  477.576">  4  5 -1 -1</clus>
<clus scale="  300.000">  1  4  2 -1</clus>
</clustering>
</event>
<event>
 6    1  0.9678510E-012  0.3000000E+03  0.7818608E-02  0.1093470E+00
          1   -1    0    0  502    0  0.00000000000E+00  0.00000000000E+00  0.23100012595E+03  0.23100012595E+03  0.00000000000E+00 0.  1.
         13   -1    0    0    0    0 -0.00000000000E+00 -0.00000000000E+00 -0.27500000000E+03  0.27500000000E+03  0.00000000000E+00 0.  1.
    9000005    2    1    2  501    0 -0.39532032100E+02 -0.85048739203E+01 -0.52272963838E+02  0.46472593963E+03  0.46000284974E+03 0.  0.
         13    1    3    3    0    0 -0.21400914238E+02 -0.50885149953E+02 -0.25290867761E+03  0.25886308510E+03  0.00000000000E+00 0.  1.
          1    1    3    3  501    0 -0.18131117862E+02  0.42380276033E+02  0.20063571377E+03  0.20586285452E+03  0.00000000000E+00 0.  1.
         21    1    1    2  502  501  0.39532032100E+02  0.85048739203E+01  0.82730897921E+01  0.41274186329E+02  0.00000000000E+00 0.  1.
<scales pt_clust_4="550.00000" pt_clust_5="550.00000" pt_clust_6="40.43655"></scales>
<mgrwt>
<rscale>  0 0.30000000E+03</rscale>
<asrwt>  1 0.40436548E+02</asrwt>
<pdfrwt beam="1">  1        1 0.84000046E+00 0.30000000E+03</pdfrwt>
<pdfrwt beam="2">0</pdfrwt>
<totfact> 0.48396786E-04</totfact>
</mgrwt>
<clustering>
<clus scale="   40.437">  1  6  2 -1</clus>
<clus scale="  460.003">  4  5 -1 -1</clus>
<clus scale="  300.000">  1  4  2 -1</clus>
</clustering>
</event>
<event>
 6    1  0.9678510E-012  0.3000000E+03  0.7818608E-02  0.1093470E+00
          1   -1    0    0  502    0  0.00000000000E+00  0.00000000000E+00  0.23499686787E+03  0.23499686787E+03  0.00000000000E+00 0.  1.
         13   -1    0    0    0    0 -0.00000000000E+00 -0.00000000000E+00 -0.27500000000E+03  0.27500000000E+03  0.00000000000E+00 0.  1.
    9000005    2    1    2  501    0  0.18820430566E+02 -0.31416805764E+02 -0.65645804408E+02  0.46528925182E+03  0.45917697235E+03 0.  0.
         13    1    3    3    0    0 -0.14889909877E+03  0.54915211597E+02 -0.18369915133E+03  0.24275914046E+03  0.00000000000E+00 0.  1.
          1    1    3    3  501    0  0.16771952933E+03 -0.86332017361E+02  0.11805334693E+03  0.22253011136E+03  0.00000000000E+00 0.  1.
         21    1    1    2  502  501 -0.18820430566E+02  0.31416805764E+02  0.25642672277E+02  0.44707616047E+02  0.00000000000E+00 0. -1.
<scales pt_clust_4="550.00000" pt_clust_5="550.00000" pt_clust_6="36.62273"></scales>
<mgrwt>
<rscale>  0 0.30000000E+03</rscale>
<asrwt>  1 0.36622729E+02</asrwt>
<pdfrwt beam="1">  1        1 0.85453406E+00 0.30000000E+03</pdfrwt>
<pdfrwt beam="2">0</pdfrwt>
<totfact> 0.36511899E-04</totfact>
</mgrwt>
<clustering>
<clus scale="   36.623">  1  6  2 -1</clus>
<clus scale="  459.177">  4  5 -1 -1</clus>
<clus scale="  300.000">  1  4  2 -1</clus>
</clustering>
</event>
<event>
 6    1  0.9678510E-012  0.3000000E+03  0.7818608E-02  0.1093470E+00
          1   -1    0    0  502    0  0.00000000000E+00  0.00000000000E+00  0.23524964574E+03  0.23524964574E+03  0.00000000000E+00 0.  1.
         13   -1    0    0    0    0 -0.00000000000E+00 -0.00000000000E+00 -0.27500000000E+03  0.27500000000E+03  0.00000000000E+00 0.  1.
    9000005    2    1    2  501    0 -0.15944916654E+02  0.30180341609E+02 -0.24561237619E+02  0.47288920342E+03  0.47101576505E+03 0.  0.
         13    1    3    3    0    0  0.62621069398E+02 -0.35348476570E+02  0.20732274542E+03  0.21943936269E+03  0.00000000000E+00 0.  1.
          3    1    3    3  501    0 -0.78565986052E+02  0.65528818179E+02 -0.23188398304E+03  0.25344984073E+03  0.00000000000E+00 0.  1.
         21    1    1    2  502  501  0.15944916654E+02 -0.30180341609E+02 -0.15189116636E+02  0.37360442328E+02  0.00000000000E+00 0. -1.
<scales pt_clust_4="550.00000" pt_clust_5="550.00000" pt_clust_6="34.13348"></scales>
<mgrwt>
<rscale>  0 0.30000000E+03</rscale>
<asrwt>  1 0.34133481E+02</asrwt>
<pdfrwt beam="1">  1        1 0.85545326E+00 0.30000000E+03</pdfrwt>
<pdfrwt beam="2">0</pdfrwt>
<totfact> 0.36226775E-04</totfact>
</mgrwt>
<clustering>
<clus scale="   34.133">  1  6  2 -1</clus>
<clus scale="  471.016">  4  5 -1 -1</clus>
<clus scale="  300.000">  1  4  2 -1</clus>
</clustering>
</event>
<event>
 6    1  0.9678510E-012  0.3000000E+03  0.7818608E-02  0.1093470E+00
          1   -1    0    0  502    0  0.00000000000E+00  0.00000000000E+00  0.23432207973E+03  0.23432207973E+03  0.00000000000E+00 0.  1.
         13   -1    0    0    0    0 -0.00000000000E+00 -0.00000000000E+00 -0.27500000000E+03  0.27500000000E+03  0.00000000000E+00 0.  1.
    9000005    2    1    2  501    0 -0.12257540013E+02  0.31959028042E+02 -0.30931680851E+02  0.47373253149E+03  0.47148076923E+03 0.  0.
         13    1    3    3    0    0 -0.34589673082E+02  0.19112340426E+03  0.13975646932E+03  0.23928324608E+03  0.00000000000E+00 0.  1.
          3    1    3    3  501    0  0.22332133070E+02 -0.15916437621E+03 -0.17068815017E+03  0.23444928541E+03  0.00000000000E+00 0.  1.
         21    1    1    2  502  501  0.12257540013E+02 -0.31959028042E+02 -0.97462394238E+01  0.35589548234E+02  0.00000000000E+00 0. -1.
<scales pt_clust_4="550.00000" pt_clust_5="550.00000" pt_clust_6="34.22905"></scales>
<mgrwt>
<rscale>  0 0.30000000E+03</rscale>
<asrwt>  1 0.34229051E+02</asrwt>
<pdfrwt beam="1">  1        1 0.85208029E+00 0.30000000E+03</pdfrwt>
<pdfrwt beam="2">0</pdfrwt>
<totfact> 0.39053494E-04</totfact>
</mgrwt>
<clustering>
<clus scale="   34.229">  1  6  2 -1</clus>
<clus scale="  471.481">  4  5 -1 -1</clus>
<clus scale="  300.000">  1  4  2 -1</clus>
</clustering>
</event>
<event>
 6    1  0.9678510E-012  0.3000000E+03  0.7818608E-02  0.1093470E+00
          1   -1    0    0  502    0  0.00000000000E+00  0.00000000000E+00  0.22670102718E+03  0.22670102718E+03  0.00000000000E+00 0.  1.
         13   -1    0    0    0    0 -0.00000000000E+00 -0.00000000000E+00 -0.27500000000E+03  0.27500000000E+03  0.00000000000E+00 0.  1.
    9000005    2    1    2  501    0 -0.26025215138E+02 -0.18505751974E+02 -0.30467215929E+02  0.46512581381E+03  0.46302699354E+03 0.  0.
         13    1    3    3    0    0  0.40385712628E+02 -0.15241925049E+03 -0.18973406255E+03  0.24670153667E+03  0.00000000000E+00 0.  1.
          3    1    3    3  501    0 -0.66410927766E+02  0.13391349852E+03  0.15926684662E+03  0.21842427714E+03  0.00000000000E+00 0.  1.
         21    1    1    2  502  501  0.26025215138E+02  0.18505751974E+02 -0.17831756893E+02  0.36575213369E+02  0.00000000000E+00 0. -1.
<scales pt_clust_4="550.00000" pt_clust_5="550.00000" pt_clust_6="31.93393"></scales>
<mgrwt>
<rscale>  0 0.30000000E+03</rscale>
<asrwt>  1 0.31933927E+02</asrwt>
<pdfrwt beam="1">  1        1 0.82436737E+00 0.30000000E+03</pdfrwt>
<pdfrwt beam="2">0</pdfrwt>
<totfact> 0.67326951E-04</totfact>
</mgrwt>
<clustering>
<clus scale="   31.934">  1  6  2 -1</clus>
<clus scale="  463.027">  4  5 -1 -1</clus>
<clus scale="  300.000">  1  4  2 -1</clus>
</clustering>
</event>
<event>
 6    1  0.9678510E-012  0.3000000E+03  0.7818608E-02  0.1093470E+00
          1   -1    0    0  502    0  0.00000000000E+00  0.00000000000E+00  0.22344505185E+03  0.22344505185E+03  0.00000000000E+00 0.  1.
         13   -1    0    0    0    0 -0.00000000000E+00 -0.00000000000E+00 -0.27500000000E+03  0.27500000000E+03  0.00000000000E+00 0.  1.
    9000005    2    1    2  501    0  0.30053980818E+02  0.13886769689E+02 -0.59098337977E+02  0.46448939157E+03  0.45952333694E+03 0.  0.
         13    1    3    3    0    0  0.14433286997E+03 -0.14727048885E+03 -0.14186189632E+03  0.25029057487E+03  0.00000000000E+00 0.  1.
          3    1    3    3  501    0 -0.11427888915E+03  0.16115725854E+03  0.82763558341E+02  0.21419881670E+03  0.00000000000E+00 0.  1.
         21    1    1    2  502  501 -0.30053980818E+02 -0.13886769689E+02  0.75433898300E+01  0.33955660287E+02  0.00000000000E+00 0.  1.
<scales pt_clust_4="550.00000" pt_clust_5="550.00000" pt_clust_6="33.10716"></scales>
<mgrwt>
<rscale>  0 0.30000000E+03</rscale>
<asrwt>  1 0.33107161E+02</asrwt>
<pdfrwt beam="1">  1        1 0.81252746E+00 0.30000000E+03</pdfrwt>
<pdfrwt beam="2">0</pdfrwt>
<totfact> 0.84190311E-04</totfact>
</mgrwt>
<clustering>
<clus scale="   33.107">  1  6  2 -1</clus>
<clus scale="  459.523">  4  5 -1 -1</clus>
<clus scale="  300.000">  1  4  2 -1</clus>
</clustering>
</event>
<event>
 6    1  0.9678510E-012  0.3000000E+03  0.7818608E-02  0.1093470E+00
          1   -1    0    0  502    0  0.00000000000E+00  0.00000000000E+00  0.23545607441E+03  0.23545607441E+03  0.00000000000E+00 0.  1.
         13   -1    0    0    0    0 -0.00000000000E+00 -0.00000000000E+00 -0.27500000000E+03  0.27500000000E+03  0.00000000000E+00 0.  1.
    9000005    2    1    2  501    0  0.22259170498E+02  0.20125687535E+02 -0.53619568147E+02  0.47731037056E+03  0.47333879810E+03 0.  0.
         13    1    3    3    0    0 -0.16851247346E+03  0.10469594948E+03  0.96141116623E+02  0.22045591363E+03  0.00000000000E+00 0.  1.
          1    1    3    3  501    0  0.19077164396E+03 -0.84570261942E+02 -0.14976068477E+03  0.25685445693E+03  0.00000000000E+00 0.  1.
         21    1    1    2  502  501 -0.22259170498E+02 -0.20125687535E+02  0.14075642554E+02  0.33145703844E+02  0.00000000000E+00 0.  1.
<scales pt_clust_4="550.00000" pt_clust_5="550.00000" pt_clust_6="30.00856"></scales>
<mgrwt>
<rscale>  0 0.30000000E+03</rscale>
<asrwt>  1 0.30008565E+02</asrwt>
<pdfrwt beam="1">  1        1 0.85620391E+00 0.30000000E+03</pdfrwt>
<pdfrwt beam="2">0</pdfrwt>
<totfact> 0.36484463E-04</totfact>
</mgrwt>
<clustering>
<clus scale="   30.009">  1  6  2 -1</clus>
<clus scale="  473.339">  4  5 -1 -1</clus>
<clus scale="  300.000">  1  4  2 -1</clus>
</clustering>
</event>
<event>
 6    1  0.9678510E-012  0.3000000E+03  0.7818608E-02  0.1093470E+00
          1   -1    0    0  502    0  0.00000000000E+00  0.00000000000E+00  0.23675730241E+03  0.23675730241E+03  0.00000000000E+00 0.  1.
         13   -1    0    0    0    0 -0.00000000000E+00 -0.00000000000E+00 -0.27500000000E+03  0.27500000000E+03  0.00000000000E+00 0.  1.
    9000005    2    1    2  501    0  0.23817624831E+02  0.35301288127E+02 -0.48168774121E+02  0.46803102666E+03  0.46359395047E+03 0.  0.
         13    1    3    3    0    0  0.16617086212E+01  0.23125665392E+03 -0.11698141458E+03  0.25916607150E+03  0.00000000000E+00 0.  1.
          1    1    3    3  501    0  0.22155916210E+02 -0.19595536579E+03  0.68812640458E+02  0.20886495516E+03  0.00000000000E+00 0.  1.
         21    1    1    2  502  501 -0.23817624831E+02 -0.35301288127E+02  0.99260765297E+01  0.43726275754E+02  0.00000000000E+00 0. -1.
<scales pt_clust_4="550.00000" pt_clust_5="550.00000" pt_clust_6="42.58474"></scales>
<mgrwt>
<rscale>  0 0.30000000E+03</rscale>
<asrwt>  1 0.42584741E+02</asrwt>
<pdfrwt beam="1">  1        1 0.86093565E+00 0.30000000E+03</pdfrwt>
<pdfrwt beam="2">0</pdfrwt>
<totfact> 0.30490056E-04</totfact>
</mgrwt>
<clustering>
<clus scale="   42.585">  1  6  2 -1</clus>
<clus scale="  463.594">  4  5 -1 -1</clus>
<clus scale="  300.000">  1  4  2 -1</clus>
</clustering>
</event>
<event>
 6    1  0.9678510E-012  0.3000000E+03  0.7818608E-02  0.1093470E+00
          1   -1    0    0  502    0  0.00000000000E+00  0.00000000000E+00  0.23859223597E+03  0.23859223597E+03  0.00000000000E+00 0.  1.
         13   -1    0    0    0    0 -0.00000000000E+00 -0.00000000000E+00 -0.27500000000E+03  0.27500000000E+03  0.00000000000E+00 0.  1.
    9000005    2    1    2  501    0 -0.26572655764E+01  0.32938825759E+02 -0.52643375339E+02  0.47677345846E+03  0.47270453607E+03 0.  0.
         13    1    3    3    0    0  0.60350732214E+02  0.18792341719E+03  0.12430331392E+03  0.23325680153E+03  0.00000000000E+00 0.  1.
          1    1    3    3  501    0 -0.63007997790E+02 -0.15498459143E+03 -0.17694668925E+03  0.24351665694E+03  0.00000000000E+00 0.  1.
         21    1    1    2  502  501  0.26572655764E+01 -0.32938825759E+02  0.16235611310E+02  0.36818777510E+02  0.00000000000E+00 0. -1.
<scales pt_clust_4="550.00000" pt_clust_5="550.00000" pt_clust_6="33.04584"></scales>
<mgrwt>
<rscale>  0 0.30000000E+03</rscale>
<asrwt>  1 0.33045836E+02</asrwt>
<pdfrwt beam="1">  1        1 0.86760813E+00 0.30000000E+03</pdfrwt>
<pdfrwt beam="2">0</pdfrwt>
<totfact> 0.27096643E-04</totfact>
</mgrwt>
<clustering>
<clus scale="   33.046">  1  6  2 -1</clus>
<clus scale="  472.705">  4  5 -1 -1</clus>
<clus scale="  300.000">  1  4  2 -1</clus>
</clustering>
</event>
<event>
 6    1  0.9678510E-012  0.3000000E+03  0.7818608E-02  0.1093470E+00
          1   -1    0    0  502    0  0.00000000000E+00  0.00000000000E+00  0.21946560361E+03  0.21946560361E+03  0.00000000000E+00 0.  1.
         13   -1    0    0    0    0 -0.00000000000E+00 -0.00000000000E+00 -0.27500000000E+03  0.27500000000E+03  0.00000000000E+00 0.  1.
    9000005    2    1    2  501    0 -0.16701950149E+02  0.25656484459E+02 -0.41083031242E+02  0.46061220957E+03  0.45775384413E+03 0.  0.
         13    1    3    3    0    0 -0.20487484743E+03 -0.40480886595E+02 -0.12592133984E+03  0.24386182381E+03  0.00000000000E+00 0.  1.
          1    1    3    3  501    0  0.18817289728E+03  0.66137371055E+02  0.84838308596E+02  0.21675038575E+03  0.00000000000E+00 0.  1.
         21    1    1    2  502  501  0.16701950149E+02 -0.25656484459E+02 -0.14451365148E+02  0.33853394043E+02  0.00000000000E+00 0.  1.
<scales pt_clust_4="550.00000" pt_clust_5="550.00000" pt_clust_6="30.61391"></scales>
<mgrwt>
<rscale>  0 0.30000000E+03</rscale>
<asrwt>  1 0.30613906E+02</asrwt>
<pdfrwt beam="1">  1        1 0.79805674E+00 0.30000000E+03</pdfrwt>
<pdfrwt beam="2">0</pdfrwt>
<totfact> 0.10986917E-03</totfact>
</mgrwt>
<clustering>
<clus scale="   30.614">  1  6  2 -1</clus>
<clus scale="  457.754">  4  5 -1 -1</clus>
<clus scale="  300.000">  1  4  2 -1</clus>
</clustering>
</event>
<event>
 6    1  0.9678510E-012  0.3000000E+03  0.7818608E-02  0.1093470E+00
          1   -1    0    0  502    0  0.00000000000E+00  0.00000000000E+00  0.21971498163E+03  0.21971498163E+03  0.00000000000E+00 0.  1.
         13   -1    0    0    0    0 -0.00000000000E+00 -0.00000000000E+00 -0.27500000000E+03  0.27500000000E+03  0.00000000000E+00 0.  1.
    9000005    2    1    2  501    0  0.16344402004E+02  0.26197537575E+02 -0.62262219239E+02  0.46305851651E+03  0.45781345034E+03 0.  0.
         13    1    3    3    0    0 -0.32513364575E+02  0.23692368634E+03 -0.45973158884E+01  0.23918839299E+03  0.00000000000E+00 0.  1.
          1    1    3    3  501    0  0.48857766579E+02 -0.21072614877E+03 -0.57664903351E+02  0.22387012353E+03  0.00000000000E+00 0.  1.
         21    1    1    2  502  501 -0.16344402004E+02 -0.26197537575E+02  0.69772008683E+01  0.31656465119E+02  0.00000000000E+00 0. -1.
<scales pt_clust_4="550.00000" pt_clust_5="550.00000" pt_clust_6="30.87799"></scales>
<mgrwt>
<rscale>  0 0.30000000E+03</rscale>
<asrwt>  1 0.30877993E+02</asrwt>
<pdfrwt beam="1">  1        1 0.79896357E+00 0.30000000E+03</pdfrwt>
<pdfrwt beam="2">0</pdfrwt>
<totfact> 0.10804006E-03</totfact>
</mgrwt>
<clustering>
<clus scale="   30.878">  1  6  2 -1</clus>
<clus scale="  457.813">  4  5 -1 -1</clus>
<clus scale="  300.000">  1  4  2 -1</clus>
</clustering>
</event>
<event>
 6    1  0.9678510E-012  0.3000000E+03  0.7818608E-02  0.1093470E+00
          1   -1    0    0  502    0  0.00000000000E+00  0.00000000000E+00  0.23467989582E+03  0.23467989582E+03  0.00000000000E+00 0.  1.
         13   -1    0    0    0    0 -0.00000000000E+00 -0.00000000000E+00 -0.27500000000E+03  0.27500000000E+03  0.00000000000E+00 0.  1.
    9000005    2    1    2  501    0 -0.29216742848E+02  0.11186504214E+02 -0.62205208488E+02  0.47149987841E+03  0.46633023860E+03 0.  0.
         13    1    3    3    0    0  0.20680533284E+03  0.73423712386E+02  0.62347717913E+00  0.21945358497E+03  0.00000000000E+00 0.  1.
          3    1    3    3  501    0 -0.23602207569E+03 -0.62237208172E+02 -0.62828685667E+02  0.25204629344E+03  0.00000000000E+00 0.  1.
         21    1    1    2  502  501  0.29216742848E+02 -0.11186504214E+02  0.21885104309E+02  0.38180017415E+02  0.00000000000E+00 0. -1.
<scales pt_clust_4="550.00000" pt_clust_5="550.00000" pt_clust_6="31.28508"></scales>
<mgrwt>
<rscale>  0 0.30000000E+03</rscale>
<asrwt>  1 0.31285075E+02</asrwt>
<pdfrwt beam="1">  1        1 0.85338144E+00 0.30000000E+03</pdfrwt>
<pdfrwt beam="2">0</pdfrwt>
<totfact> 0.38594460E-04</totfact>
</mgrwt>
<clustering>
<clus scale="   31.285">  1  6  2 -1</clus>
<clus scale="  466.330">  4  5 -1 -1</clus>
<clus scale="  300.000">  1  4  2 -1</clus>
</clustering>
</event>
<event>
 6    1  0.9678510E-012  0.3000000E+03  0.7818608E-02  0.1093470E+00
          1   -1    0    0  502    0  0.00000000000E+00  0.00000000000E+00  0.24552614110E+03  0.24552614110E+03  0.00000000000E+00 0.  1.
         13   -1    0    0    0    0 -0.00000000000E+00 -0.00000000000E+00 -0.27500000000E+03  0.27500000000E+03  0.00000000000E+00 0.  1.
    9000005    2    1    2  501    0 -0.35547118618E+02 -0.90504943298E+01 -0.44140442724E+02  0.48102148605E+03  0.47758536647E+03 0.  0.
         13    1    3    3    0    0  0.88081267143E+02  0.78668578922E+02 -0.21948262469E+03  0.24923819425E+03  0.00000000000E+00 0.  1.
          3    1    3    3  501    0 -0.12362838576E+03 -0.87719073252E+02  0.17534218197E+03  0.23178329180E+03  0.00000000000E+00 0.  1.
         21    1    1    2  502  501  0.35547118618E+02  0.90504943298E+01  0.14666583821E+02  0.39504655050E+02  0.00000000000E+00 0.  1.
<scales pt_clust_4="550.00000" pt_clust_5="550.00000" pt_clust_6="36.68118"></scales>
<mgrwt>
<rscale>  0 0.30000000E+03</rscale>
<asrwt>  1 0.36681182E+02</asrwt>
<pdfrwt beam="1">  1        1 0.89282233E+00 0.30000000E+03</pdfrwt>
<pdfrwt beam="2">0</pdfrwt>
<totfact> 0.13240807E-04</totfact>
</mgrwt>
<clustering>
<clus scale="   36.681">  1  6  2 -1</clus>
<clus scale="  477.585">  4  5 -1 -1</clus>
<clus scale="  300.000">  1  4  2 -1</clus>
</clustering>
</event>
<event>
 6    1  0.9678510E-012  0.3000000E+03  0.7818608E-02  0.1093470E+00
          1   -1    0    0  502    0  0.00000000000E+00  0.00000000000E+00  0.24447589302E+03  0.24447589302E+03  0.00000000000E+00 0.  1.
         13   -1    0    0    0    0 -0.00000000000E+00 -0.00000000000E+00 -0.27500000000E+03  0.27500000000E+03  0.00000000000E+00 0.  1.
    9000005    2    1    2  501    0 -0.29898841705E+02 -0.14057973705E+02  0.19904518591E+01  0.47312113171E+03  0.47196194339E+03 0.  0.
         13    1    3    3    0    0  0.10517017853E+03 -0.19370971487E+03 -0.79093947848E+02  0.23417957356E+03  0.00000000000E+00 0.  1.
          1    1    3    3  501    0 -0.13506902023E+03  0.17965174117E+03  0.81084399707E+02  0.23894155814E+03  0.00000000000E+00 0.  1.
         21    1    1    2  502  501  0.29898841705E+02  0.14057973705E+02 -0.32514558839E+02  0.46354761314E+02  0.00000000000E+00 0.  1.
<scales pt_clust_4="550.00000" pt_clust_5="550.00000" pt_clust_6="33.03889"></scales>
<mgrwt>
<rscale>  0 0.30000000E+03</rscale>
<asrwt>  1 0.33038893E+02</asrwt>
<pdfrwt beam="1">  1        1 0.88900325E+00 0.30000000E+03</pdfrwt>
<pdfrwt beam="2">0</pdfrwt>
<totfact> 0.15112947E-04</totfact>
</mgrwt>
<clustering>
<clus scale="   33.039">  1  6  2 -1</clus>
<clus scale="  471.962">  4  5 -1 -1</clus>
<clus scale="  300.000">  1  4  2 -1</clus>
</clustering>
</event>
<event>
 6    1  0.9678510E-012  0.3000000E+03  0.7818608E-02  0.1093470E+00
          1   -1    0    0  502    0  0.00000000000E+00  0.00000000000E+00  0.24421019589E+03  0.24421019589E+03  0.00000000000E+00 0.  1.
         13   -1    0    0    0    0 -0.00000000000E+00 -0.00000000000E+00 -0.27500000000E+03  0.27500000000E+03  0.00000000000E+00 0.  1.
    9000005    2    1    2  501    0 -0.40041302050E+02 -0.21251664791E+02 -0.40439828302E+02  0.47286300511E+03  0.46894466919E+03 0.  0.
         13    1    3    3    0    0  0.14301003913E+03 -0.62103938223E+01  0.15065343690E+03  0.20781457681E+03  0.00000000000E+00 0.  1.
          1    1    3    3  501    0 -0.18305134118E+03 -0.15041270969E+02 -0.19109326520E+03  0.26504842830E+03  0.00000000000E+00 0.  1.
         21    1    1    2  502  501  0.40041302050E+02  0.21251664791E+02  0.96500241872E+01  0.46347190778E+02  0.00000000000E+00 0.  1.
<scales pt_clust_4="550.00000" pt_clust_5="550.00000" pt_clust_6="45.33144"></scales>
<mgrwt>
<rscale>  0 0.30000000E+03</rscale>
<asrwt>  1 0.45331436E+02</asrwt>
<pdfrwt beam="1">  1        1 0.88803708E+00 0.30000000E+03</pdfrwt>
<pdfrwt beam="2">0</pdfrwt>
<totfact> 0.14700241E-04</totfact>
</mgrwt>
<clustering>
<clus scale="   45.331">  1  6  2 -1</clus>
<clus scale="  468.945">  4  5 -1 -1</clus>
<clus scale="  300.000">  1  4  2 -1</clus>
</clustering>
</event>
<event>
 6    1  0.9678510E-012  0.3000000E+03  0.7818608E-02  0.1093470E+00
          1   -1    0    0  502    0  0.00000000000E+00  0.00000000000E+00  0.22018871066E+03  0.22018871066E+03  0.00000000000E+00 0.  1.
         13   -1    0    0    0    0 -0.00000000000E+00 -0.00000000000E+00 -0.27500000000E+03  0.27500000000E+03  0.00000000000E+00 0.  1.
    9000005    2    1    2  501    0  0.29631577862E+02  0.52528864484E+01 -0.67418599860E+02  0.46256100003E+03  0.45663090995E+03 0.  0.
         13    1    3    3    0    0 -0.16903622127E+03 -0.88049820249E+01  0.10495302465E+03  0.19916302165E+03  0.00000000000E+00 0.  1.
          3    1    3    3  501    0  0.19866779913E+03  0.14057868473E+02 -0.17237162451E+03  0.26339797838E+03  0.00000000000E+00 0.  1.
         21    1    1    2  502  501 -0.29631577862E+02 -0.52528864484E+01  0.12607310523E+02  0.32627710635E+02  0.00000000000E+00 0. -1.
<scales pt_clust_4="550.00000" pt_clust_5="550.00000" pt_clust_6="30.09357"></scales>
<mgrwt>
<rscale>  0 0.30000000E+03</rscale>
<asrwt>  1 0.30093574E+02</asrwt>
<pdfrwt beam="1">  1        1 0.80068622E+00 0.30000000E+03</pdfrwt>
<pdfrwt beam="2">0</pdfrwt>
<totfact> 0.10550419E-03</totfact>
</mgrwt>
<clustering>
<clus scale="   30.094">  1  6  2 -1</clus>
<clus scale="  456.631">  4  5 -1 -1</clus>
<clus scale="  300.000">  1  4  2 -1</clus>
</clustering>
</event>
<event>
 6    1  0.9678510E-012  0.3000000E+03  0.7818608E-02  0.1093470E+00
          1   -1    0    0  502    0  0.00000000000E+00  0.00000000000E+00  0.22086682058E+03  0.22086682058E+03  0.00000000000E+00 0.  1.
         13   -1    0    0    0    0 -0.00000000000E+00 -0.00000000000E+00 -0.27500000000E+03  0.27500000000E+03  0.00000000000E+00 0.  1.
    9000005    2    1    2  501    0 -0.11258955005E+02 -0.29494385775E+02 -0.55712953853E+02  0.46425703495E+03  0.45981950635E+03 0.  0.
         13    1    3    3    0    0 -0.23062722607E+03 -0.68964960930E-01  0.17085852415E+02  0.23125926687E+03  0.00000000000E+00 0.  1.
          3    1    3    3  501    0  0.21936827106E+03 -0.29425420814E+02 -0.72798806268E+02  0.23299776809E+03  0.00000000000E+00 0.  1.
         21    1    1    2  502  501  0.11258955005E+02  0.29494385775E+02  0.15797744319E+01  0.31609785626E+02  0.00000000000E+00 0.  1.
<scales pt_clust_4="550.00000" pt_clust_5="550.00000" pt_clust_6="31.57028"></scales>
<mgrwt>
<rscale>  0 0.30000000E+03</rscale>
<asrwt>  1 0.31570284E+02</asrwt>
<pdfrwt beam="1">  1        1 0.80315207E+00 0.30000000E+03</pdfrwt>
<pdfrwt beam="2">0</pdfrwt>
<totfact> 0.10030161E-03</totfact>
</mgrwt>
<clustering>
<clus scale="   31.570">  1  6  2 -1</clus>
<clus scale="  459.820">  4  5 -1 -1</clus>
<clus scale="  300.000">  1  4  2 -1</clus>
</clustering>
</event>
<event>
 6    1  0.9678510E-012  0.3000000E+03  0.7818608E-02  0.1093470E+00
          1   -1    0    0  502    0  0.00000000000E+00  0.00000000000E+00  0.24527758921E+03  0.24527758921E+03  0.00000000000E+00 0.  1.
         13   -1    0    0    0    0 -0.00000000000E+00 -0.00000000000E+00 -0.27500000000E+03  0.27500000000E+03  0.00000000000E+00 0.  1.
    9000005    2    1    2  501    0 -0.19208032837E+02  0.29880827233E+02 -0.42040765522E+02  0.48268032568E+03  0.47953212455E+03 0.  0.
         13    1    3    3    0    0  0.48707594391E+02  0.17051344395E+03  0.15202526248E+03  0.23357856227E+03  0.00000000000E+00 0.  1.
          1    1    3    3  501    0 -0.67915627228E+02 -0.14063261672E+03 -0.19406602800E+03  0.24910176341E+03  0.00000000000E+00 0.  1.
         21    1    1    2  502  501  0.19208032837E+02 -0.29880827233E+02  0.12318354731E+02  0.37597263529E+02  0.00000000000E+00 0.  1.
<scales pt_clust_4="550.00000" pt_clust_5="550.00000" pt_clust_6="35.52200"></scales>
<mgrwt>
<rscale>  0 0.30000000E+03</rscale>
<asrwt>  1 0.35521998E+02</asrwt>
<pdfrwt beam="1">  1        1 0.89191851E+00 0.30000000E+03</pdfrwt>
<pdfrwt beam="2">0</pdfrwt>
<totfact> 0.13658981E-04</totfact>
</mgrwt>
<clustering>
<clus scale="   35.522">  1  6  2 -1</clus>
<clus scale="  479.532">  4  5 -1 -1</clus>
<clus scale="  300.000">  1  4  2 -1</clus>
</clustering>
</event>
<event>
 6    1  0.9678510E-012  0.3000000E+03  0.7818608E-02  0.1093470E+00
          1   -1    0    0  502    0  0.00000000000E+00  0.00000000000E+00  0.24165813125E+03  0.24165813125E+03  0.00000000000E+00 0.  1.
         13   -1    0    0    0    0 -0.00000000000E+00 -0.00000000000E+00 -0.27500000000E+03  0.27500000000E+03  0.00000000000E+00 0.  1.
    9000005    2    1    2  501    0  0.10890714181E+01  0.30636080117E+02 -0.58673276168E+02  0.47689086225E+03  0.47227384607E+03 0.  0.
         13    1    3    3    0    0  0.84582214096E+02 -0.26325276691E+02  0.18935933276E+03  0.20905532291E+03  0.00000000000E+00 0.  1.
          3    1    3    3  501    0 -0.83493142678E+02  0.56961356808E+02 -0.24803260893E+03  0.26783553934E+03  0.00000000000E+00 0.  1.
         21    1    1    2  502  501 -0.10890714181E+01 -0.30636080117E+02  0.25331407417E+02  0.39767268993E+02  0.00000000000E+00 0.  1.
<scales pt_clust_4="550.00000" pt_clust_5="550.00000" pt_clust_6="30.65543"></scales>
<mgrwt>
<rscale>  0 0.30000000E+03</rscale>
<asrwt>  1 0.30655432E+02</asrwt>
<pdfrwt beam="1">  1        1 0.87875684E+00 0.30000000E+03</pdfrwt>
<pdfrwt beam="2">0</pdfrwt>
<totfact> 0.20950785E-04</totfact>
</mgrwt>
<clustering>
<clus scale="   30.655">  1  6  2 -1</clus>
<clus scale="  472.274">  4  5 -1 -1</clus>
<clus scale="  300.000">  1  4  2 -1</clus>
</clustering>
</event>
<event>
 6    1  0.9678510E-012  0.3000000E+03  0.7818608E-02  0.1093470E+00
          1   -1    0    0  502    0  0.00000000000E+00  0.00000000000E+00  0.22888971351E+03  0.22888971351E+03  0.00000000000E+00 0.  1.
         13   -1    0    0    0    0 -0.00000000000E+00 -0.00000000000E+00 -0.27500000000E+03  0.27500000000E+03  0.00000000000E+00 0.  1.
    9000005    2    1    2  501    0  0.26721230326E+02  0.23108226063E+02 -0.65424234967E+02  0.46362753687E+03  0.45762664713E+03 0.  0.
         13    1    3    3    0    0  0.40572797138E+02  0.19832177556E+03  0.96855355786E+02  0.22440730486E+03  0.00000000000E+00 0.  1.
          1    1    3    3  501    0 -0.13851566812E+02 -0.17521354949E+03 -0.16227959075E+03  0.23922023201E+03  0.00000000000E+00 0.  1.
         21    1    1    2  502  501 -0.26721230326E+02 -0.23108226063E+02  0.19313948472E+02  0.40262176636E+02  0.00000000000E+00 0. -1.
<scales pt_clust_4="550.00000" pt_clust_5="550.00000" pt_clust_6="35.32725"></scales>
<mgrwt>
<rscale>  0 0.30000000E+03</rscale>
<asrwt>  1 0.35327245E+02</asrwt>
<pdfrwt beam="1">  1        1 0.83232623E+00 0.30000000E+03</pdfrwt>
<pdfrwt beam="2">0</pdfrwt>
<totfact> 0.56541494E-04</totfact>
</mgrwt>
<clustering>
<clus scale="   35.327">  1  6  2 -1</clus>
<clus scale="  457.627">  4  5 -1 -1</clus>
<clus scale="  300.000">  1  4  2 -1</clus>
</clustering>
</event>
<event>
 6    1  0.9678510E-012  0.3000000E+03  0.7818608E-02  0.1093470E+00
          1   -1    0    0  502    0  0.00000000000E+00  0.00000000000E+00  0.23194068537E+03  0.23194068537E+03  0.00000000000E+00 0.  1.
         13   -1    0    0    0    0 -0.00000000000E+00 -0.00000000000E+00 -0.27500000000E+03  0.27500000000E+03  0.00000000000E+00 0.  1.
    9000005    2    1    2  501    0  0.11338115890E+02  0.33098572432E+02 -0.48011075349E+02  0.47160531636E+03  0.46784873911E+03 0.  0.
         13    1    3    3    0    0  0.12590736466E+03  0.18353897463E+03  0.87298364362E+02  0.23908204472E+03  0.00000000000E+00 0.  1.
          3    1    3    3  501    0 -0.11456924877E+03 -0.15044040220E+03 -0.13530943971E+03  0.23252327164E+03  0.00000000000E+00 0.  1.
         21    1    1    2  502  501 -0.11338115890E+02 -0.33098572432E+02  0.49517607141E+01  0.35335369010E+02  0.00000000000E+00 0.  1.
<scales pt_clust_4="550.00000" pt_clust_5="550.00000" pt_clust_6="34.98669"></scales>
<mgrwt>
<rscale>  0 0.30000000E+03</rscale>
<asrwt>  1 0.34986688E+02</asrwt>
<pdfrwt beam="1">  1        1 0.84342067E+00 0.30000000E+03</pdfrwt>
<pdfrwt beam="2">0</pdfrwt>
<totfact> 0.46624179E-04</totfact>
</mgrwt>
<clustering>
<clus scale="   34.987">  1  6  2 -1</clus>
<clus scale="  467.849">  4  5 -1 -1</clus>
<clus scale="  300.000">  1  4  2 -1</clus>
</clustering>
</event>
<event>
 6    1  0.9678510E-012  0.3000000E+03  0.7818608E-02  0.1093470E+00
          1   -1    0    0  502    0  0.00000000000E+00  0.00000000000E+00  0.24317465439E+03  0.24317465439E+03  0.00000000000E+00 0.  1.
         13   -1    0    0    0    0 -0.00000000000E+00 -0.00000000000E+00 -0.27500000000E+03  0.27500000000E+03  0.00000000000E+00 0.  1.
    9000005    2    1    2  501    0 -0.13599809974E+02 -0.41347136855E+02 -0.56618518194E+02  0.46808232001E+03  0.46260227101E+03 0.  0.
         13    1    3    3    0    0 -0.12110280930E+03 -0.14625922036E+03 -0.18896071897E+03  0.26788766914E+03  0.00000000000E+00 0.  1.
          3    1    3    3  501    0  0.10750299933E+03  0.10491208351E+03  0.13234220077E+03  0.20019465087E+03  0.00000000000E+00 0.  1.
         21    1    1    2  502  501  0.13599809974E+02  0.41347136855E+02  0.24793172587E+02  0.50092334387E+02  0.00000000000E+00 0.  1.
<scales pt_clust_4="550.00000" pt_clust_5="550.00000" pt_clust_6="43.52632"></scales>
<mgrwt>
<rscale>  0 0.30000000E+03</rscale>
<asrwt>  1 0.43526320E+02</asrwt>
<pdfrwt beam="1">  1        1 0.88427147E+00 0.30000000E+03</pdfrwt>
<pdfrwt beam="2">0</pdfrwt>
<totfact> 0.16683433E-04</totfact>
</mgrwt>
<clustering>
<clus scale="   43.526">  1  6  2 -1</clus>
<clus scale="  462.602">  4  5 -1 -1</clus>
<clus scale="  300.000">  1  4  2 -1</clus>
</clustering>
</event>
<event>
 6    1  0.9678510E-012  0.3000000E+03  0.7818608E-02  0.1093470E+00
          1   -1    0    0  502    0  0.00000000000E+00  0.00000000000E+00  0.25573186763E+03  0.25573186763E+03  0.00000000000E+00 0.  1.
         13   -1    0    0    0    0 -0.00000000000E+00 -0.00000000000E+00 -0.27500000000E+03  0.27500000000E+03  0.00000000000E+00 0.  1.
    9000005    2    1    2  501    0  0.30608168332E+02 -0.17287724712E+01 -0.39034517052E+02  0.49425504504E+03  0.49175655298E+03 0.  0.
         13    1    3    3    0    0 -0.22116081000E+03  0.22828110189E+02 -0.83337099836E+02  0.23744114787E+03  0.00000000000E+00 0.  1.
          3    1    3    3  501    0  0.25176897833E+03 -0.24556882661E+02  0.44302582784E+02  0.25681389717E+03  0.00000000000E+00 0.  1.
         21    1    1    2  502  501 -0.30608168332E+02  0.17287724712E+01  0.19766384683E+02  0.36476822591E+02  0.00000000000E+00 0. -1.
<scales pt_clust_4="550.00000" pt_clust_5="550.00000" pt_clust_6="30.65695"></scales>
<mgrwt>
<rscale>  0 0.30000000E+03</rscale>
<asrwt>  1 0.30656951E+02</asrwt>
<pdfrwt beam="1">  1        1 0.92993406E+00 0.30000000E+03</pdfrwt>
<pdfrwt beam="2">0</pdfrwt>
<totfact> 0.27025880E-05</totfact>
</mgrwt>
<clustering>
<clus scale="   30.657">  1  6  2 -1</clus>
<clus scale="  491.757">  4  5 -1 -1</clus>
<clus scale="  300.000">  1  4  2 -1</clus>
</clustering>
</event>
<event>
 6    1  0.9678510E-012  0.3000000E+03  0.7818608E-02  0.1093470E+00
          1   -1    0    0  502    0  0.00000000000E+00  0.00000000000E+00  0.23800416129E+03  0.23800416129E+03  0.00000000000E+00 0.  1.
         13   -1    0    0    0    0 -0.00000000000E+00 -0.00000000000E+00 -0.27500000000E+03  0.27500000000E+03  0.00000000000E+00 0.  1.
    9000005    2    1    2  501    0 -0.10013494589E+02 -0.39208860066E+02 -0.56728535146E+02  0.46798212124E+03  0.46276509627E+03 0.  0.
         13    1    3    3    0    0 -0.20601815392E+03 -0.55243643293E+01 -0.14336492934E+03  0.25105278590E+03  0.00000000000E+00 0.  1.
          3    1    3    3  501    0  0.19600465933E+03 -0.33684495736E+02  0.86636394196E+02  0.21692933534E+03  0.00000000000E+00 0.  1.
         21    1    1    2  502  501  0.10013494589E+02  0.39208860066E+02  0.19732696441E+02  0.45022040051E+02  0.00000000000E+00 0.  1.
<scales pt_clust_4="550.00000" pt_clust_5="550.00000" pt_clust_6="40.46733"></scales>
<mgrwt>
<rscale>  0 0.30000000E+03</rscale>
<asrwt>  1 0.40467330E+02</asrwt>
<pdfrwt beam="1">  1        1 0.86546968E+00 0.30000000E+03</pdfrwt>
<pdfrwt beam="2">0</pdfrwt>
<totfact> 0.27493719E-04</totfact>
</mgrwt>
<clustering>
<clus scale="   40.467">  1  6  2 -1</clus>
<clus scale="  462.765">  4  5 -1 -1</clus>
<clus scale="  300.000">  1  4  2 -1</clus>
</clustering>
</event>
<event>
 6    1  0.9678510E-012  0.3000000E+03  0.7818608E-02  0.1093470E+00
          1   -1    0    0  502    0  0.00000000000E+00  0.00000000000E+00  0.25398946153E+03  0.25398946153E+03  0.00000000000E+00 0.  1.
         13   -1    0    0    0    0 -0.00000000000E+00 -0.00000000000E+00 -0.27500000000E+03  0.27500000000E+03  0.00000000000E+00 0.  1.
    9000005    2    1    2  501    0  0.28521350340E+02 -0.15815918264E+02  0.58682171627E+01  0.48672744312E+03  0.48559814375E+03 0.  0.
         13    1    3    3    0    0  0.74000600690E+02 -0.17157224773E+03  0.17238767381E+03  0.25422555964E+03  0.00000000000E+00 0.  1.
          1    1    3    3  501    0 -0.45479250350E+02  0.15575632946E+03 -0.16651945665E+03  0.23250188348E+03  0.00000000000E+00 0.  1.
         21    1    1    2  502  501 -0.28521350340E+02  0.15815918264E+02 -0.26878755632E+02  0.42262018410E+02  0.00000000000E+00 0.  1.
<scales pt_clust_4="550.00000" pt_clust_5="550.00000" pt_clust_6="32.61306"></scales>
<mgrwt>
<rscale>  0 0.30000000E+03</rscale>
<asrwt>  1 0.32613061E+02</asrwt>
<pdfrwt beam="1">  1        1 0.92359804E+00 0.30000000E+03</pdfrwt>
<pdfrwt beam="2">0</pdfrwt>
<totfact> 0.35530814E-05</totfact>
</mgrwt>
<clustering>
<clus scale="   32.613">  1  6  2 -1</clus>
<clus scale="  485.598">  4  5 -1 -1</clus>
<clus scale="  300.000">  1  4  2 -1</clus>
</clustering>
</event>
<event>
 6    1  0.9678510E-012  0.3000000E+03  0.7818608E-02  0.1093470E+00
          1   -1    0    0  502    0  0.00000000000E+00  0.00000000000E+00  0.22800019186E+03  0.22800019186E+03  0.00000000000E+00 0.  1.
         13   -1    0    0    0    0 -0.00000000000E+00 -0.00000000000E+00 -0.27500000000E+03  0.27500000000E+03  0.00000000000E+00 0.  1.
    9000005    2    1    2  501    0  0.32860748846E+02  0.20978595391E+02 -0.41807548757E+02  0.46366967144E+03  0.46013233183E+03 0.  0.
         13    1    3    3    0    0 -0.16338874071E+03  0.14916271598E+03 -0.57984540575E+02  0.22870855553E+03  0.00000000000E+00 0.  1.
          1    1    3    3  501    0  0.19624948956E+03 -0.12818412059E+03  0.16176991817E+02  0.23496111590E+03  0.00000000000E+00 0.  1.
         21    1    1    2  502  501 -0.32860748846E+02 -0.20978595391E+02 -0.51922593812E+01  0.39330520423E+02  0.00000000000E+00 0.  1.
<scales pt_clust_4="550.00000" pt_clust_5="550.00000" pt_clust_6="38.98630"></scales>
<mgrwt>
<rscale>  0 0.30000000E+03</rscale>
<asrwt>  1 0.38986303E+02</asrwt>
<pdfrwt beam="1">  1        1 0.82909161E+00 0.30000000E+03</pdfrwt>
<pdfrwt beam="2">0</pdfrwt>
<totfact> 0.58955227E-04</totfact>
</mgrwt>
<clustering>
<clus scale="   38.986">  1  6  2 -1</clus>
<clus scale="  460.132">  4  5 -1 -1</clus>
<clus scale="  300.000">  1  4  2 -1</clus>
</clustering>
</event>
<event>
 6    1  0.9678510E-012  0.3000000E+03  0.7818608E-02  0.1093470E+00
          1   -1    0    0  502    0  0.00000000000E+00  0.00000000000E+00  0.24206173522E+03  0.24206173522E+03  0.00000000000E+00 0.  1.
         13   -1    0    0    0    0 -0.00000000000E+00 -0.00000000000E+00 -0.27500000000E+03  0.27500000000E+03  0.00000000000E+00 0.  1.
    9000005    2    1    2  501    0 -0.26222140196E+02 -0.18505038816E+02 -0.28260516622E+02  0.48462844328E+03  0.48273805955E+03 0.  0.
         13    1    3    3    0    0  0.13550649444E+03 -0.83032998290E+02  0.16184725849E+03  0.22682818150E+03  0.00000000000E+00 0.  1.
          1    1    3    3  501    0 -0.16172863464E+03  0.64527959474E+02 -0.19010777511E+03  0.25780026178E+03  0.00000000000E+00 0.  1.
         21    1    1    2  502  501  0.26222140196E+02  0.18505038816E+02 -0.46777481612E+01  0.32433291938E+02  0.00000000000E+00 0. -1.
<scales pt_clust_4="550.00000" pt_clust_5="550.00000" pt_clust_6="32.09421"></scales>
<mgrwt>
<rscale>  0 0.30000000E+03</rscale>
<asrwt>  1 0.32094207E+02</asrwt>
<pdfrwt beam="1">  1        1 0.88022449E+00 0.30000000E+03</pdfrwt>
<pdfrwt beam="2">0</pdfrwt>
<totfact> 0.19935054E-04</totfact>
</mgrwt>
<clustering>
<clus scale="   32.094">  1  6  2 -1</clus>
<clus scale="  482.738">  4  5 -1 -1</clus>
<clus scale="  300.000">  1  4  2 -1</clus>
</clustering>
</event>
<event>
 6    1  0.9678510E-012  0.3000000E+03  0.7818608E-02  0.1093470E+00
          1   -1    0    0  502    0  0.00000000000E+00  0.00000000000E+00  0.22325809106E+03  0.22325809106E+03  0.00000000000E+00 0.  1.
         13   -1    0    0    0    0 -0.00000000000E+00 -0.00000000000E+00 -0.27500000000E+03  0.27500000000E+03  0.00000000000E+00 0.  1.
    9000005    2    1    2  501    0  0.17728354197E+02  0.30966414318E+02 -0.60715680247E+02  0.46146485894E+03  0.45605943566E+03 0.  0.
         13    1    3    3    0    0 -0.62121165073E+02 -0.12449890329E+03  0.13859043098E+03  0.19638310424E+03  0.00000000000E+00 0.  1.
          1    1    3    3  501    0  0.79849519270E+02  0.15546531761E+03 -0.19930611123E+03  0.26508175471E+03  0.00000000000E+00 0.  1.
         21    1    1    2  502  501 -0.17728354197E+02 -0.30966414318E+02  0.89737713110E+01  0.36793232119E+02  0.00000000000E+00 0.  1.
<scales pt_clust_4="550.00000" pt_clust_5="550.00000" pt_clust_6="35.68212"></scales>
<mgrwt>
<rscale>  0 0.30000000E+03</rscale>
<asrwt>  1 0.35682115E+02</asrwt>
<pdfrwt beam="1">  1        1 0.81184760E+00 0.30000000E+03</pdfrwt>
<pdfrwt beam="2">0</pdfrwt>
<totfact> 0.84049432E-04</totfact>
</mgrwt>
<clustering>
<clus scale="   35.682">  1  6  2 -1</clus>
<clus scale="  456.059">  4  5 -1 -1</clus>
<clus scale="  300.000">  1  4  2 -1</clus>
</clustering>
</event>
<event>
 6    1  0.9678510E-012  0.3000000E+03  0.7818608E-02  0.1093470E+00
          1   -1    0    0  502    0  0.00000000000E+00  0.00000000000E+00  0.24540011988E+03  0.24540011988E+03  0.00000000000E+00 0.  1.
         13   -1    0    0    0    0 -0.00000000000E+00 -0.00000000000E+00 -0.27500000000E+03  0.27500000000E+03  0.00000000000E+00 0.  1.
    9000005    2    1    2  501    0  0.32136102947E+02 -0.33624573205E+01 -0.26589079515E+02  0.48794861526E+03  0.48615104314E+03 0.  0.
         13    1    3    3    0    0  0.43080266171E+01  0.22458715438E+03  0.75029319944E+02  0.23682767544E+03  0.00000000000E+00 0.  1.
          1    1    3    3  501    0  0.27828076329E+02 -0.22794961170E+03 -0.10161839946E+03  0.25112093981E+03  0.00000000000E+00 0.  1.
         21    1    1    2  502  501 -0.32136102947E+02  0.33624573205E+01 -0.30108006093E+01  0.32451504620E+02  0.00000000000E+00 0.  1.
<scales pt_clust_4="550.00000" pt_clust_5="550.00000" pt_clust_6="32.31155"></scales>
<mgrwt>
<rscale>  0 0.30000000E+03</rscale>
<asrwt>  1 0.32311550E+02</asrwt>
<pdfrwt beam="1">  1        1 0.89236407E+00 0.30000000E+03</pdfrwt>
<pdfrwt beam="2">0</pdfrwt>
<totfact> 0.13731938E-04</totfact>
</mgrwt>
<clustering>
<clus scale="   32.312">  1  6  2 -1</clus>
<clus scale="  486.151">  4  5 -1 -1</clus>
<clus scale="  300.000">  1  4  2 -1</clus>
</clustering>
</event>
<event>
 6    1  0.9678510E-012  0.3000000E+03  0.7818608E-02  0.1093470E+00
          1   -1    0    0  502    0  0.00000000000E+00  0.00000000000E+00  0.23335301904E+03  0.23335301904E+03  0.00000000000E+00 0.  1.
         13   -1    0    0    0    0 -0.00000000000E+00 -0.00000000000E+00 -0.27500000000E+03  0.27500000000E+03  0.00000000000E+00 0.  1.
    9000005    2    1    2  501    0  0.18528951155E+01 -0.38772439418E+02 -0.36912053287E+02  0.46924860984E+03  0.46618131974E+03 0.  0.
         13    1    3    3    0    0  0.19840227697E+03 -0.76625024098E+02  0.91398797649E+02  0.23149211226E+03  0.00000000000E+00 0.  1.
          3    1    3    3  501    0 -0.19654938185E+03  0.37852584680E+02 -0.12831085094E+03  0.23775649758E+03  0.00000000000E+00 0.  1.
         21    1    1    2  502  501 -0.18528951155E+01  0.38772439418E+02 -0.47349276760E+01  0.39104409199E+02  0.00000000000E+00 0.  1.
<scales pt_clust_4="550.00000" pt_clust_5="550.00000" pt_clust_6="38.81671"></scales>
<mgrwt>
<rscale>  0 0.30000000E+03</rscale>
<asrwt>  1 0.38816708E+02</asrwt>
<pdfrwt beam="1">  1        1 0.84855643E+00 0.30000000E+03</pdfrwt>
<pdfrwt beam="2">0</pdfrwt>
<totfact> 0.41179446E-04</totfact>
</mgrwt>
<clustering>
<clus scale="   38.817">  1  6  2 -1</clus>
<clus scale="  466.181">  4  5 -1 -1</clus>
<clus scale="  300.000">  1  4  2 -1</clus>
</clustering>
</event>
<event>
 6    1  0.9678510E-012  0.3000000E+03  0.7818608E-02  0.1093470E+00
          1   -1    0    0  502    0  0.00000000000E+00  0.00000000000E+00  0.22297739802E+03  0.22297739802E+03  0.00000000000E+00 0.  1.
         13   -1    0    0    0    0 -0.00000000000E+00 -0.00000000000E+00 -0.27500000000E+03  0.27500000000E+03  0.00000000000E+00 0.  1.
    9000005    2    1    2  501    0  0.21592950719E+02  0.22048259365E+02 -0.49395907690E+02  0.46700513971E+03  0.46335889282E+03 0.  0.
         13    1    3    3    0    0 -0.30265994942E+02 -0.15502343107E+03 -0.18110691449E+03  0.24030815448E+03  0.00000000000E+00 0.  1.
          3    1    3    3  501    0  0.51858945662E+02  0.17707169044E+03  0.13171100680E+03  0.22669698523E+03  0.00000000000E+00 0.  1.
         21    1    1    2  502  501 -0.21592950719E+02 -0.22048259365E+02 -0.26266942925E+01  0.30972258308E+02  0.00000000000E+00 0.  1.
<scales pt_clust_4="550.00000" pt_clust_5="550.00000" pt_clust_6="30.86068"></scales>
<mgrwt>
<rscale>  0 0.30000000E+03</rscale>
<asrwt>  1 0.30860675E+02</asrwt>
<pdfrwt beam="1">  1        1 0.81082690E+00 0.30000000E+03</pdfrwt>
<pdfrwt beam="2">0</pdfrwt>
<totfact> 0.87997500E-04</totfact>
</mgrwt>
<clustering>
<clus scale="   30.861">  1  6  2 -1</clus>
<clus scale="  463.359">  4  5 -1 -1</clus>
<clus scale="  300.000">  1  4  2 -1</clus>
</clustering>
</event>
<event>
 6    1  0.9678510E-012  0.3000000E+03  0.7818608E-02  0.1093470E+00
          1   -1    0    0  502    0  0.00000000000E+00  0.00000000000E+00  0.22439917771E+03  0.22439917771E+03  0.00000000000E+00 0.  1.
         13   -1    0    0    0    0 -0.00000000000E+00 -0.00000000000E+00 -0.27500000000E+03  0.27500000000E+03  0.00000000000E+00 0.  1.
    9000005    2    1    2  501    0  0.21067928787E+02 -0.24516470917E+02 -0.61967139947E+02  0.46513391619E+03  0.45985293148E+03 0.  0.
         13    1    3    3    0    0 -0.18173009953E+01 -0.24025290615E+03 -0.28500333990E+01  0.24027668257E+03  0.00000000000E+00 0.  1.
          3    1    3    3  501    0  0.22885229783E+02  0.21573643523E+03 -0.59117106548E+02  0.22485723363E+03  0.00000000000E+00 0.  1.
         21    1    1    2  502  501 -0.21067928787E+02  0.24516470917E+02  0.11366317653E+02  0.34265261514E+02  0.00000000000E+00 0. -1.
<scales pt_clust_4="550.00000" pt_clust_5="550.00000" pt_clust_6="32.32514"></scales>
<mgrwt>
<rscale>  0 0.30000000E+03</rscale>
<asrwt>  1 0.32325145E+02</asrwt>
<pdfrwt beam="1">  1        1 0.81599701E+00 0.30000000E+03</pdfrwt>
<pdfrwt beam="2">0</pdfrwt>
<totfact> 0.79313575E-04</totfact>
</mgrwt>
<clustering>
<clus scale="   32.325">  1  6  2 -1</clus>
<clus scale="  459.853">  4  5 -1 -1</clus>
<clus scale="  300.000">  1  4  2 -1</clus>
</clustering>
</event>
<event>
 6    1  0.9678510E-012  0.3000000E+03  0.7818608E-02  0.1093470E+00
          1   -1    0    0  502    0  0.00000000000E+00  0.00000000000E+00  0.22604025646E+03  0.22604025646E+03  0.00000000000E+00 0.  1.
         13   -1    0    0    0    0 -0.00000000000E+00 -0.00000000000E+00 -0.27500000000E+03  0.27500000000E+03  0.00000000000E+00 0.  1.
    9000005    2    1    2  501    0  0.14195311231E+02 -0.26966424094E+02 -0.48136958445E+02  0.47055465552E+03  0.46709294811E+03 0.  0.
         13    1    3    3    0    0 -0.22784817304E+02  0.20413743532E+03 -0.10356507972E+03  0.23003687994E+03  0.00000000000E+00 0.  1.
          1    1    3    3  501    0  0.36980128535E+02 -0.23110385941E+03  0.55428121272E+02  0.24051777558E+03  0.00000000000E+00 0.  1.
         21    1    1    2  502  501 -0.14195311231E+02  0.26966424094E+02 -0.82278509624E+00  0.30485600940E+02  0.00000000000E+00 0. -1.
<scales pt_clust_4="550.00000" pt_clust_5="550.00000" pt_clust_6="30.47450"></scales>
<mgrwt>
<rscale>  0 0.30000000E+03</rscale>
<asrwt>  1 0.30474496E+02</asrwt>
<pdfrwt beam="1">  1        1 0.82196457E+00 0.30000000E+03</pdfrwt>
<pdfrwt beam="2">0</pdfrwt>
<totfact> 0.71365109E-04</totfact>
</mgrwt>
<clustering>
<clus scale="   30.474">  1  6  2 -1</clus>
<clus scale="  467.093">  4  5 -1 -1</clus>
<clus scale="  300.000">  1  4  2 -1</clus>
</clustering>
</event>
<event>
 6    1  0.9678510E-012  0.3000000E+03  0.7818608E-02  0.1093470E+00
          1   -1    0    0  502    0  0.00000000000E+00  0.00000000000E+00  0.23388339423E+03  0.23388339423E+03  0.00000000000E+00 0.  1.
         13   -1    0    0    0    0 -0.00000000000E+00 -0.00000000000E+00 -0.27500000000E+03  0.27500000000E+03  0.00000000000E+00 0.  1.
    9000005    2    1    2  501    0  0.28029766700E+02  0.23385468174E+02 -0.45444451896E+02  0.47212365817E+03  0.46851147527E+03 0.  0.
         13    1    3    3    0    0 -0.64914223760E+02  0.83855239062E+02  0.18678014713E+03  0.21478449880E+03  0.00000000000E+00 0.  1.
          1    1    3    3  501    0  0.92943990461E+02 -0.60469770888E+02 -0.23222459902E+03  0.25733915937E+03  0.00000000000E+00 0.  1.
         21    1    1    2  502  501 -0.28029766700E+02 -0.23385468174E+02  0.43278461289E+01  0.36759736059E+02  0.00000000000E+00 0.  1.
<scales pt_clust_4="550.00000" pt_clust_5="550.00000" pt_clust_6="36.50408"></scales>
<mgrwt>
<rscale>  0 0.30000000E+03</rscale>
<asrwt>  1 0.36504081E+02</asrwt>
<pdfrwt beam="1">  1        1 0.85048507E+00 0.30000000E+03</pdfrwt>
<pdfrwt beam="2">0</pdfrwt>
<totfact> 0.39958734E-04</totfact>
</mgrwt>
<clustering>
<clus scale="   36.504">  1  6  2 -1</clus>
<clus scale="  468.511">  4  5 -1 -1</clus>
<clus scale="  300.000">  1  4  2 -1</clus>
</clustering>
</event>
<event>
 6    1  0.9678510E-012  0.3000000E+03  0.7818608E-02  0.1093470E+00
          1   -1    0    0  502    0  0.00000000000E+00  0.00000000000E+00  0.22555955486E+03  0.22555955486E+03  0.00000000000E+00 0.  1.
         13   -1    0    0    0    0 -0.00000000000E+00 -0.00000000000E+00 -0.27500000000E+03  0.27500000000E+03  0.00000000000E+00 0.  1.
    9000005    2    1    2  501    0 -0.28772870947E+02  0.91414461796E+01 -0.68773536474E+02  0.46470969347E+03  0.45859988634E+03 0.  0.
         13    1    3    3    0    0  0.21292254732E+02  0.22996722878E+03 -0.57490094591E+02  0.23799873403E+03  0.00000000000E+00 0.  1.
          1    1    3    3  501    0 -0.50065125678E+02 -0.22082578260E+03 -0.11283441883E+02  0.22671095944E+03  0.00000000000E+00 0.  1.
         21    1    1    2  502  501  0.28772870947E+02 -0.91414461796E+01  0.19333091333E+02  0.35849861384E+02  0.00000000000E+00 0. -1.
<scales pt_clust_4="550.00000" pt_clust_5="550.00000" pt_clust_6="30.19013"></scales>
<mgrwt>
<rscale>  0 0.30000000E+03</rscale>
<asrwt>  1 0.30190133E+02</asrwt>
<pdfrwt beam="1">  1        1 0.82021656E+00 0.30000000E+03</pdfrwt>
<pdfrwt beam="2">0</pdfrwt>
<totfact> 0.74064805E-04</totfact>
</mgrwt>
<clustering>
<clus scale="   30.190">  1  6  2 -1</clus>
<clus scale="  458.600">  4  5 -1 -1</clus>
<clus scale="  300.000">  1  4  2 -1</clus>
</clustering>
</event>
<event>
 6    1  0.9678510E-012  0.3000000E+03  0.7818608E-02  0.1093470E+00
          1   -1    0    0  502    0  0.00000000000E+00  0.00000000000E+00  0.25330512612E+03  0.25330512612E+03  0.00000000000E+00 0.  1.
         13   -1    0    0    0    0 -0.00000000000E+00 -0.00000000000E+00 -0.27500000000E+03  0.27500000000E+03  0.00000000000E+00 0.  1.
    9000005    2    1    2  501    0  0.50156637518E+01  0.40615182533E+02 -0.34581580107E+02  0.48540038125E+03  0.48243434216E+03 0.  0.
         13    1    3    3    0    0  0.68808137318E+02  0.87434363949E+02  0.20491359136E+03  0.23317141267E+03  0.00000000000E+00 0.  1.
          1    1    3    3  501    0 -0.63792473566E+02 -0.46819181417E+02 -0.23949517147E+03  0.25222896858E+03  0.00000000000E+00 0.  1.
         21    1    1    2  502  501 -0.50156637518E+01 -0.40615182533E+02  0.12886706228E+02  0.42904744871E+02  0.00000000000E+00 0.  1.
<scales pt_clust_4="550.00000" pt_clust_5="550.00000" pt_clust_6="40.92371"></scales>
<mgrwt>
<rscale>  0 0.30000000E+03</rscale>
<asrwt>  1 0.40923709E+02</asrwt>
<pdfrwt beam="1">  1        1 0.92110955E+00 0.30000000E+03</pdfrwt>
<pdfrwt beam="2">0</pdfrwt>
<totfact> 0.38437504E-05</totfact>
</mgrwt>
<clustering>
<clus scale="   40.924">  1  6  2 -1</clus>
<clus scale="  482.434">  4  5 -1 -1</clus>
<clus scale="  300.000">  1  4  2 -1</clus>
</clustering>
</event>
<event>
 6    1  0.9678510E-012  0.3000000E+03  0.7818608E-02  0.1093470E+00
          1   -1    0    0  502    0  0.00000000000E+00  0.00000000000E+00  0.22842785716E+03  0.22842785716E+03  0.00000000000E+00 0.  1.
         13   -1    0    0    0    0 -0.00000000000E+00 -0.00000000000E+00 -0.27500000000E+03  0.27500000000E+03  0.00000000000E+00 0.  1.
    9000005    2    1    2  501    0 -0.15918262464E+02  0.30178449508E+02 -0.37058698802E+02  0.46800702272E+03  0.46528818625E+03 0.  0.
         13    1    3    3    0    0  0.86357079678E+02  0.16111394371E+02  0.19507997881E+03  0.21394700365E+03  0.00000000000E+00 0.  1.
          3    1    3    3  501    0 -0.10227534214E+03  0.14067055137E+02 -0.23213867761E+03  0.25406001908E+03  0.00000000000E+00 0.  1.
         21    1    1    2  502  501  0.15918262464E+02 -0.30178449508E+02 -0.95134440391E+01  0.35420834435E+02  0.00000000000E+00 0.  1.
<scales pt_clust_4="550.00000" pt_clust_5="550.00000" pt_clust_6="34.11936"></scales>
<mgrwt>
<rscale>  0 0.30000000E+03</rscale>
<asrwt>  1 0.34119365E+02</asrwt>
<pdfrwt beam="1">  1        1 0.83064675E+00 0.30000000E+03</pdfrwt>
<pdfrwt beam="2">0</pdfrwt>
<totfact> 0.58667048E-04</totfact>
</mgrwt>
<clustering>
<clus scale="   34.119">  1  6  2 -1</clus>
<clus scale="  465.288">  4  5 -1 -1</clus>
<clus scale="  300.000">  1  4  2 -1</clus>
</clustering>
</event>
<event>
 6    1  0.9678510E-012  0.3000000E+03  0.7818608E-02  0.1093470E+00
          1   -1    0    0  502    0  0.00000000000E+00  0.00000000000E+00  0.22314343366E+03  0.22314343366E+03  0.00000000000E+00 0.  1.
         13   -1    0    0    0    0 -0.00000000000E+00 -0.00000000000E+00 -0.27500000000E+03  0.27500000000E+03  0.00000000000E+00 0.  1.
    9000005    2    1    2  501    0  0.32234784024E+02  0.95840845797E+01 -0.61719904985E+02  0.46309744348E+03  0.45773241038E+03 0.  0.
         13    1    3    3    0    0  0.74432651619E+01  0.16696807347E+03  0.13149802257E+03  0.21266280751E+03  0.00000000000E+00 0.  1.
          3    1    3    3  501    0  0.24791518862E+02 -0.15738398889E+03 -0.19321792756E+03  0.25043463598E+03  0.00000000000E+00 0.  1.
         21    1    1    2  502  501 -0.32234784024E+02 -0.95840845797E+01  0.98633386463E+01  0.35045990178E+02  0.00000000000E+00 0. -1.
<scales pt_clust_4="550.00000" pt_clust_5="550.00000" pt_clust_6="33.62939"></scales>
<mgrwt>
<rscale>  0 0.30000000E+03</rscale>
<asrwt>  1 0.33629392E+02</asrwt>
<pdfrwt beam="1">  1        1 0.81143067E+00 0.30000000E+03</pdfrwt>
<pdfrwt beam="2">0</pdfrwt>
<totfact> 0.85633018E-04</totfact>
</mgrwt>
<clustering>
<clus scale="   33.629">  1  6  2 -1</clus>
<clus scale="  457.732">  4  5 -1 -1</clus>
<clus scale="  300.000">  1  4  2 -1</clus>
</clustering>
</event>
<event>
 6    1  0.9678510E-012  0.3000000E+03  0.7818608E-02  0.1093470E+00
          1   -1    0    0  502    0  0.00000000000E+00  0.00000000000E+00  0.25858177896E+03  0.25858177896E+03  0.00000000000E+00 0.  1.
         13   -1    0    0    0    0 -0.00000000000E+00 -0.00000000000E+00 -0.27500000000E+03  0.27500000000E+03  0.00000000000E+00 0.  1.
    9000005    2    1    2  501    0 -0.27315103699E+02  0.24790682592E+02 -0.63713427184E+02  0.47360237118E+03  0.46784517989E+03 0.  0.
         13    1    3    3    0    0  0.67209472920E+01 -0.14874170303E+03  0.13962892236E+03  0.20412129069E+03  0.00000000000E+00 0.  1.
          3    1    3    3  501    0 -0.34036050991E+02  0.17353238562E+03 -0.20334234954E+03  0.26948108049E+03  0.00000000000E+00 0.  1.
         21    1    1    2  502  501  0.27315103699E+02 -0.24790682592E+02  0.47295206143E+02  0.59979407779E+02  0.00000000000E+00 0.  1.
<scales pt_clust_4="550.00000" pt_clust_5="550.00000" pt_clust_6="36.88757"></scales>
<mgrwt>
<rscale>  0 0.30000000E+03</rscale>
<asrwt>  1 0.36887570E+02</asrwt>
<pdfrwt beam="1">  1        1 0.94029738E+00 0.30000000E+03</pdfrwt>
<pdfrwt beam="2">0</pdfrwt>
<totfact> 0.18752287E-05</totfact>
</mgrwt>
<clustering>
<clus scale="   36.888">  1  6  2 -1</clus>
<clus scale="  467.845">  4  5 -1 -1</clus>
<clus scale="  300.000">  1  4  2 -1</clus>
</clustering>
</event>
<event>
 6    1  0.9678510E-012  0.3000000E+03  0.7818608E-02  0.1093470E+00
          1   -1    0    0  502    0  0.00000000000E+00  0.00000000000E+00  0.24100766476E+03  0.24100766476E+03  0.00000000000E+00 0.  1.
         13   -1    0    0    0    0 -0.00000000000E+00 -0.00000000000E+00 -0.27500000000E+03  0.27500000000E+03  0.00000000000E+00 0.  1.
    9000005    2    1    2  501    0  0.33791370464E+02 -0.12856297394E+01 -0.64852126252E+02  0.47022736045E+03  0.46450453461E+03 0.  0.
         13    1    3    3    0    0 -0.57117103668E+01 -0.18081357755E+03  0.11393987273E+03  0.21379538830E+03  0.00000000000E+00 0.  1.
          1    1    3    3  501    0  0.39503080831E+02  0.17952794781E+03 -0.17879199898E+03  0.25643197215E+03  0.00000000000E+00 0.  1.
         21    1    1    2  502  501 -0.33791370464E+02  0.12856297394E+01  0.30859791015E+02  0.45780304315E+02  0.00000000000E+00 0. -1.
<scales pt_clust_4="550.00000" pt_clust_5="550.00000" pt_clust_6="33.81582"></scales>
<mgrwt>
<rscale>  0 0.30000000E+03</rscale>
<asrwt>  1 0.33815818E+02</asrwt>
<pdfrwt beam="1">  1        1 0.87639151E+00 0.30000000E+03</pdfrwt>
<pdfrwt beam="2">0</pdfrwt>
<totfact> 0.21872675E-04</totfact>
</mgrwt>
<clustering>
<clus scale="   33.816">  1  6  2 -1</clus>
<clus scale="  464.505">  4  5 -1 -1</clus>
<clus scale="  300.000">  1  4  2 -1</clus>
</clustering>
</event>
<event>
 6    1  0.9678510E-012  0.3000000E+03  0.7818608E-02  0.1093470E+00
          1   -1    0    0  502    0  0.00000000000E+00  0.00000000000E+00  0.22111177665E+03  0.22111177665E+03  0.00000000000E+00 0.  1.
         13   -1    0    0    0    0 -0.00000000000E+00 -0.00000000000E+00 -0.27500000000E+03  0.27500000000E+03  0.00000000000E+00 0.  1.
    9000005    2    1    2  501    0 -0.27115166867E+02  0.15059946930E+02 -0.33490793863E+02  0.45898915006E+03  0.45671366558E+03 0.  0.
         13    1    3    3    0    0 -0.45129285840E+02  0.79399299822E+02  0.19800069006E+03  0.21804856000E+03  0.00000000000E+00 0.  1.
          1    1    3    3  501    0  0.18014118973E+02 -0.64339352893E+02 -0.23149148392E+03  0.24094059007E+03  0.00000000000E+00 0.  1.
         21    1    1    2  502  501  0.27115166867E+02 -0.15059946930E+02 -0.20397429482E+02  0.37122626594E+02  0.00000000000E+00 0.  1.
<scales pt_clust_4="550.00000" pt_clust_5="550.00000" pt_clust_6="31.01669"></scales>
<mgrwt>
<rscale>  0 0.30000000E+03</rscale>
<asrwt>  1 0.31016693E+02</asrwt>
<pdfrwt beam="1">  1        1 0.80404282E+00 0.30000000E+03</pdfrwt>
<pdfrwt beam="2">0</pdfrwt>
<totfact> 0.99124073E-04</totfact>
</mgrwt>
<clustering>
<clus scale="   31.017">  1  6  2 -1</clus>
<clus scale="  456.714">  4  5 -1 -1</clus>
<clus scale="  300.000">  1  4  2 -1</clus>
</clustering>
</event>
<event>
 6    1  0.9678510E-012  0.3000000E+03  0.7818608E-02  0.1093470E+00
          1   -1    0    0  502    0  0.00000000000E+00  0.00000000000E+00  0.24191805017E+03  0.24191805017E+03  0.00000000000E+00 0.  1.
         13   -1    0    0    0    0 -0.00000000000E+00 -0.00000000000E+00 -0.27500000000E+03  0.27500000000E+03  0.00000000000E+00 0.  1.
    9000005    2    1    2  501    0 -0.27820482221E+02 -0.33106576985E+02 -0.64576248709E+02  0.46342117613E+03  0.45685782243E+03 0.  0.
         13    1    3    3    0    0 -0.44126785943E+02  0.82527503334E+02 -0.23720805570E+03  0.25500122301E+03  0.00000000000E+00 0.  1.
          3    1    3    3  501    0  0.16306303722E+02 -0.11563408032E+03  0.17263180699E+03  0.20841995312E+03  0.00000000000E+00 0.  1.
         21    1    1    2  502  501  0.27820482221E+02  0.33106576985E+02  0.31494298883E+02  0.53496874047E+02  0.00000000000E+00 0.  1.
<scales pt_clust_4="550.00000" pt_clust_5="550.00000" pt_clust_6="43.24378"></scales>
<mgrwt>
<rscale>  0 0.30000000E+03</rscale>
<asrwt>  1 0.43243782E+02</asrwt>
<pdfrwt beam="1">  1        1 0.87970200E+00 0.30000000E+03</pdfrwt>
<pdfrwt beam="2">0</pdfrwt>
<totfact> 0.19147064E-04</totfact>
</mgrwt>
<clustering>
<clus scale="   43.244">  1  6  2 -1</clus>
<clus scale="  456.858">  4  5 -1 -1</clus>
<clus scale="  300.000">  1  4  2 -1</clus>
</clustering>
</event>
<event>
 6    1  0.9678510E-012  0.3000000E+03  0.7818608E-02  0.1093470E+00
          1   -1    0    0  502    0  0.00000000000E+00  0.00000000000E+00  0.26092826348E+03  0.26092826348E+03  0.00000000000E+00 0.  1.
         13   -1    0    0    0    0 -0.00000000000E+00 -0.00000000000E+00 -0.27500000000E+03  0.27500000000E+03  0.00000000000E+00 0.  1.
    9000005    2    1    2  501    0  0.16197493586E+02  0.32168440269E+02 -0.11889384471E+02  0.49984599626E+03  0.49840495098E+03 0.  0.
         13    1    3    3    0    0  0.24688016837E+03  0.19937538054E+01 -0.76365684015E+02  0.25842892695E+03  0.00000000000E+00 0.  1.
          3    1    3    3  501    0 -0.23068267479E+03  0.30174686464E+02  0.64476299543E+02  0.24141706931E+03  0.00000000000E+00 0.  1.
         21    1    1    2  502  501 -0.16197493586E+02 -0.32168440269E+02 -0.21823520458E+01  0.36082267227E+02  0.00000000000E+00 0. -1.
<scales pt_clust_4="550.00000" pt_clust_5="550.00000" pt_clust_6="36.01623"></scales>
<mgrwt>
<rscale>  0 0.30000000E+03</rscale>
<asrwt>  1 0.36016228E+02</asrwt>
<pdfrwt beam="1">  1        1 0.94883005E+00 0.30000000E+03</pdfrwt>
<pdfrwt beam="2">0</pdfrwt>
<totfact> 0.12968865E-05</totfact>
</mgrwt>
<clustering>
<clus scale="   36.016">  1  6  2 -1</clus>
<clus scale="  498.405">  4  5 -1 -1</clus>
<clus scale="  300.000">  1  4  2 -1</clus>
</clustering>
</event>
<event>
 6    1  0.9678510E-012  0.3000000E+03  0.7818608E-02  0.1093470E+00
          1   -1    0    0  502    0  0.00000000000E+00  0.00000000000E+00  0.23862323969E+03  0.23862323969E+03  0.00000000000E+00 0.  1.
         13   -1    0    0    0    0 -0.00000000000E+00 -0.00000000000E+00 -0.27500000000E+03  0.27500000000E+03  0.00000000000E+00 0.  1.
    9000005    2    1    2  501    0  0.30344047677E+02  0.53400373238E+01 -0.57384337744E+02  0.47633255000E+03  0.47185851560E+03 0.  0.
         13    1    3    3    0    0 -0.20233140980E+03  0.65021521472E+02 -0.95721890136E+02  0.23308470112E+03  0.00000000000E+00 0.  1.
          3    1    3    3  501    0  0.23267545747E+03 -0.59681484148E+02  0.38337552392E+02  0.24324784888E+03  0.00000000000E+00 0.  1.
         21    1    1    2  502  501 -0.30344047677E+02 -0.53400373238E+01  0.21007577431E+02  0.37290689690E+02  0.00000000000E+00 0.  1.
<scales pt_clust_4="550.00000" pt_clust_5="550.00000" pt_clust_6="30.81034"></scales>
<mgrwt>
<rscale>  0 0.30000000E+03</rscale>
<asrwt>  1 0.30810343E+02</asrwt>
<pdfrwt beam="1">  1        1 0.86772087E+00 0.30000000E+03</pdfrwt>
<pdfrwt beam="2">0</pdfrwt>
<totfact> 0.27386030E-04</totfact>
</mgrwt>
<clustering>
<clus scale="   30.810">  1  6  2 -1</clus>
<clus scale="  471.859">  4  5 -1 -1</clus>
<clus scale="  300.000">  1  4  2 -1</clus>
</clustering>
</event>
<event>
 6    1  0.9678510E-012  0.3000000E+03  0.7818608E-02  0.1093470E+00
          1   -1    0    0  502    0  0.00000000000E+00  0.00000000000E+00  0.25352837292E+03  0.25352837292E+03  0.00000000000E+00 0.  1.
         13   -1    0    0    0    0 -0.00000000000E+00 -0.00000000000E+00 -0.27500000000E+03  0.27500000000E+03  0.00000000000E+00 0.  1.
    9000005    2    1    2  501    0 -0.26591317363E+02 -0.37300709559E+02  0.67179596394E+01  0.47474088467E+03  0.47247786774E+03 0.  0.
         13    1    3    3    0    0 -0.47177326503E+02 -0.25320206240E+03 -0.40754539200E+01  0.25759191343E+03  0.00000000000E+00 0.  1.
          1    1    3    3  501    0  0.20586009139E+02  0.21590135284E+03  0.10793413559E+02  0.21714897124E+03  0.00000000000E+00 0.  1.
         21    1    1    2  502  501  0.26591317363E+02  0.37300709559E+02 -0.28189586721E+02  0.53787488250E+02  0.00000000000E+00 0.  1.
<scales pt_clust_4="550.00000" pt_clust_5="550.00000" pt_clust_6="45.80877"></scales>
<mgrwt>
<rscale>  0 0.30000000E+03</rscale>
<asrwt>  1 0.45808768E+02</asrwt>
<pdfrwt beam="1">  1        1 0.92192136E+00 0.30000000E+03</pdfrwt>
<pdfrwt beam="2">0</pdfrwt>
<totfact> 0.36197054E-05</totfact>
</mgrwt>
<clustering>
<clus scale="   45.809">  1  6  2 -1</clus>
<clus scale="  472.478">  4  5 -1 -1</clus>
<clus scale="  300.000">  1  4  2 -1</clus>
</clustering>
</event>
<event>
 6    1  0.9678510E-012  0.3000000E+03  0.7818608E-02  0.1093470E+00
          1   -1    0    0  502    0  0.00000000000E+00  0.00000000000E+00  0.25220122004E+03  0.25220122004E+03  0.00000000000E+00 0.  1.
         13   -1    0    0    0    0 -0.00000000000E+00 -0.00000000000E+00 -0.27500000000E+03  0.27500000000E+03  0.00000000000E+00 0.  1.
    9000005    2    1    2  501    0 -0.25210220912E+02 -0.22385312773E+02 -0.27052726001E+02  0.49321955553E+03  0.49132170978E+03 0.  0.
         13    1    3    3    0    0 -0.11648150054E+03  0.20788606293E+03 -0.53143541165E+02  0.24414911652E+03  0.00000000000E+00 0.  1.
          1    1    3    3  501    0  0.91271279632E+02 -0.23027137570E+03  0.26090815163E+02  0.24907043901E+03  0.00000000000E+00 0.  1.
         21    1    1    2  502  501  0.25210220912E+02  0.22385312773E+02  0.42539460460E+01  0.33981664517E+02  0.00000000000E+00 0.  1.
<scales pt_clust_4="550.00000" pt_clust_5="550.00000" pt_clust_6="33.71435"></scales>
<mgrwt>
<rscale>  0 0.30000000E+03</rscale>
<asrwt>  1 0.33714351E+02</asrwt>
<pdfrwt beam="1">  1        1 0.91709535E+00 0.30000000E+03</pdfrwt>
<pdfrwt beam="2">0</pdfrwt>
<totfact> 0.48818361E-05</totfact>
</mgrwt>
<clustering>
<clus scale="   33.714">  1  6  2 -1</clus>
<clus scale="  491.322">  4  5 -1 -1</clus>
<clus scale="  300.000">  1  4  2 -1</clus>
</clustering>
</event>
<event>
 6    1  0.9678510E-012  0.3000000E+03  0.7818608E-02  0.1093470E+00
          1   -1    0    0  502    0  0.00000000000E+00  0.00000000000E+00  0.24510478569E+03  0.24510478569E+03  0.00000000000E+00 0.  1.
         13   -1    0    0    0    0 -0.00000000000E+00 -0.00000000000E+00 -0.27500000000E+03  0.27500000000E+03  0.00000000000E+00 0.  1.
    9000005    2    1    2  501    0 -0.25883534578E+02 -0.29761766751E+02 -0.16027387868E+02  0.47829525648E+03  0.47639663631E+03 0.  0.
         13    1    3    3    0    0 -0.54035881565E+02 -0.47671483390E+02 -0.24065059353E+03  0.25120739438E+03  0.00000000000E+00 0.  1.
          1    1    3    3  501    0  0.28152346987E+02  0.17909716638E+02  0.22462320566E+03  0.22708786210E+03  0.00000000000E+00 0.  1.
         21    1    1    2  502  501  0.25883534578E+02  0.29761766751E+02 -0.13867826445E+02  0.41809529210E+02  0.00000000000E+00 0. -1.
<scales pt_clust_4="550.00000" pt_clust_5="550.00000" pt_clust_6="39.44264"></scales>
<mgrwt>
<rscale>  0 0.30000000E+03</rscale>
<asrwt>  1 0.39442638E+02</asrwt>
<pdfrwt beam="1">  1        1 0.89129013E+00 0.30000000E+03</pdfrwt>
<pdfrwt beam="2">0</pdfrwt>
<totfact> 0.13641121E-04</totfact>
</mgrwt>
<clustering>
<clus scale="   39.443">  1  6  2 -1</clus>
<clus scale="  476.397">  4  5 -1 -1</clus>
<clus scale="  300.000">  1  4  2 -1</clus>
</clustering>
</event>
<event>
 6    1  0.9678510E-012  0.3000000E+03  0.7818608E-02  0.1093470E+00
          1   -1    0    0  502    0  0.00000000000E+00  0.00000000000E+00  0.23745957677E+03  0.23745957677E+03  0.00000000000E+00 0.  1.
         13   -1    0    0    0    0 -0.00000000000E+00 -0.00000000000E+00 -0.27500000000E+03  0.27500000000E+03  0.00000000000E+00 0.  1.
    9000005    2    1    2  501    0  0.20687121087E+02 -0.34634130852E+02 -0.54309267930E+02  0.46877120130E+03  0.46386362499E+03 0.  0.
         13    1    3    3    0    0  0.20207657943E+03 -0.14673453325E+03 -0.54160788262E+02  0.25553739098E+03  0.00000000000E+00 0.  1.
          1    1    3    3  501    0 -0.18138945835E+03  0.11210040240E+03 -0.14847966757E+00  0.21323381032E+03  0.00000000000E+00 0.  1.
         21    1    1    2  502  501 -0.20687121087E+02  0.34634130852E+02  0.16768844702E+02  0.43688375472E+02  0.00000000000E+00 0.  1.
<scales pt_clust_4="550.00000" pt_clust_5="550.00000" pt_clust_6="40.34204"></scales>
<mgrwt>
<rscale>  0 0.30000000E+03</rscale>
<asrwt>  1 0.40342038E+02</asrwt>
<pdfrwt beam="1">  1        1 0.86348937E+00 0.30000000E+03</pdfrwt>
<pdfrwt beam="2">0</pdfrwt>
<totfact> 0.28895863E-04</totfact>
</mgrwt>
<clustering>
<clus scale="   40.342">  1  6  2 -1</clus>
<clus scale="  463.864">  4  5 -1 -1</clus>
<clus scale="  300.000">  1  4  2 -1</clus>
</clustering>
</event>
<event>
 6    1  0.9678510E-012  0.3000000E+03  0.7818608E-02  0.1093470E+00
          1   -1    0    0  502    0  0.00000000000E+00  0.00000000000E+00  0.22642342206E+03  0.22642342206E+03  0.00000000000E+00 0.  1.
         13   -1    0    0    0    0 -0.00000000000E+00 -0.00000000000E+00 -0.27500000000E+03  0.27500000000E+03  0.00000000000E+00 0.  1.
    9000005    2    1    2  501    0 -0.81518916025E+01 -0.29599328009E+02 -0.31509918028E+02  0.46629730022E+03  0.46421732378E+03 0.  0.
         13    1    3    3    0    0  0.64662241425E+02  0.15894463604E+03  0.12364066372E+03  0.21149850240E+03  0.00000000000E+00 0.  1.
          1    1    3    3  501    0 -0.72814133028E+02 -0.18854396405E+03 -0.15515058175E+03  0.25479879781E+03  0.00000000000E+00 0.  1.
         21    1    1    2  502  501  0.81518916025E+01  0.29599328009E+02 -0.17066659912E+02  0.35126121845E+02  0.00000000000E+00 0. -1.
<scales pt_clust_4="550.00000" pt_clust_5="550.00000" pt_clust_6="30.70138"></scales>
<mgrwt>
<rscale>  0 0.30000000E+03</rscale>
<asrwt>  1 0.30701376E+02</asrwt>
<pdfrwt beam="1">  1        1 0.82335790E+00 0.30000000E+03</pdfrwt>
<pdfrwt beam="2">0</pdfrwt>
<totfact> 0.69258543E-04</totfact>
</mgrwt>
<clustering>
<clus scale="   30.701">  1  6  2 -1</clus>
<clus scale="  464.217">  4  5 -1 -1</clus>
<clus scale="  300.000">  1  4  2 -1</clus>
</clustering>
</event>
<event>
 6    1  0.9678510E-012  0.3000000E+03  0.7818608E-02  0.1093470E+00
          1   -1    0    0  502    0  0.00000000000E+00  0.00000000000E+00  0.25483838851E+03  0.25483838851E+03  0.00000000000E+00 0.  1.
         13   -1    0    0    0    0 -0.00000000000E+00 -0.00000000000E+00 -0.27500000000E+03  0.27500000000E+03  0.00000000000E+00 0.  1.
    9000005    2    1    2  501    0 -0.10840826730E+02 -0.35455232916E+02 -0.53045902565E+02  0.48028060744E+03  0.47590019651E+03 0.  0.
         13    1    3    3    0    0 -0.16977201391E+03  0.91704812410E+02 -0.15971567649E+03  0.25048234797E+03  0.00000000000E+00 0.  1.
          1    1    3    3  501    0  0.15893118718E+03 -0.12716004533E+03  0.10666977393E+03  0.22979825947E+03  0.00000000000E+00 0.  1.
         21    1    1    2  502  501  0.10840826730E+02  0.35455232916E+02  0.32884291070E+02  0.49557781069E+02  0.00000000000E+00 0.  1.
<scales pt_clust_4="550.00000" pt_clust_5="550.00000" pt_clust_6="37.07556"></scales>
<mgrwt>
<rscale>  0 0.30000000E+03</rscale>
<asrwt>  1 0.37075559E+02</asrwt>
<pdfrwt beam="1">  1        1 0.92668505E+00 0.30000000E+03</pdfrwt>
<pdfrwt beam="2">0</pdfrwt>
<totfact> 0.29950955E-05</totfact>
</mgrwt>
<clustering>
<clus scale="   37.076">  1  6  2 -1</clus>
<clus scale="  475.900">  4  5 -1 -1</clus>
<clus scale="  300.000">  1  4  2 -1</clus>
</clustering>
</event>
<event>
 6    1  0.9678510E-012  0.3000000E+03  0.7818608E-02  0.1093470E+00
          1   -1    0    0  502    0  0.00000000000E+00  0.00000000000E+00  0.24121386908E+03  0.24121386908E+03  0.00000000000E+00 0.  1.
         13   -1    0    0    0    0 -0.00000000000E+00 -0.00000000000E+00 -0.27500000000E+03  0.27500000000E+03  0.00000000000E+00 0.  1.
    9000005    2    1    2  501    0  0.38744486771E+02  0.27468644858E+02 -0.41759306639E+02  0.46805545095E+03  0.46376330576E+03 0.  0.
         13    1    3    3    0    0  0.15872544325E+03 -0.69361123864E+02 -0.18794231326E+03  0.25559155884E+03  0.00000000000E+00 0.  1.
          1    1    3    3  501    0 -0.11998095648E+03  0.96829768722E+02  0.14618300662E+03  0.21246389211E+03  0.00000000000E+00 0.  1.
         21    1    1    2  502  501 -0.38744486771E+02 -0.27468644858E+02  0.79731757197E+01  0.48158418128E+02  0.00000000000E+00 0. -1.
<scales pt_clust_4="550.00000" pt_clust_5="550.00000" pt_clust_6="47.49381"></scales>
<mgrwt>
<rscale>  0 0.30000000E+03</rscale>
<asrwt>  1 0.47493807E+02</asrwt>
<pdfrwt beam="1">  1        1 0.87714134E+00 0.30000000E+03</pdfrwt>
<pdfrwt beam="2">0</pdfrwt>
<totfact> 0.20170068E-04</totfact>
</mgrwt>
<clustering>
<clus scale="   47.494">  1  6  2 -1</clus>
<clus scale="  463.763">  4  5 -1 -1</clus>
<clus scale="  300.000">  1  4  2 -1</clus>
</clustering>
</event>
<event>
 6    1  0.9678510E-012  0.3000000E+03  0.7818608E-02  0.1093470E+00
          1   -1    0    0  502    0  0.00000000000E+00  0.00000000000E+00  0.22879669865E+03  0.22879669865E+03  0.00000000000E+00 0.  1.
         13   -1    0    0    0    0 -0.00000000000E+00 -0.00000000000E+00 -0.27500000000E+03  0.27500000000E+03  0.00000000000E+00 0.  1.
    9000005    2    1    2  501    0 -0.13911268788E+02  0.29833263017E+02 -0.63124874325E+02  0.46678471933E+03  0.46132383144E+03 0.  0.
         13    1    3    3    0    0  0.15075822382E+03 -0.23384941887E+02  0.13500519231E+03  0.20371867736E+03  0.00000000000E+00 0.  1.
          3    1    3    3  501    0 -0.16466949261E+03  0.53218204904E+02 -0.19813006663E+03  0.26306604196E+03  0.00000000000E+00 0.  1.
         21    1    1    2  502  501  0.13911268788E+02 -0.29833263017E+02  0.16921572974E+02  0.37011979324E+02  0.00000000000E+00 0. -1.
<scales pt_clust_4="550.00000" pt_clust_5="550.00000" pt_clust_6="32.91727"></scales>
<mgrwt>
<rscale>  0 0.30000000E+03</rscale>
<asrwt>  1 0.32917275E+02</asrwt>
<pdfrwt beam="1">  1        1 0.83198800E+00 0.30000000E+03</pdfrwt>
<pdfrwt beam="2">0</pdfrwt>
<totfact> 0.57642023E-04</totfact>
</mgrwt>
<clustering>
<clus scale="   32.917">  1  6  2 -1</clus>
<clus scale="  461.324">  4  5 -1 -1</clus>
<clus scale="  300.000">  1  4  2 -1</clus>
</clustering>
</event>
<event>
 6    1  0.9678510E-012  0.3000000E+03  0.7818608E-02  0.1093470E+00
          1   -1    0    0  502    0  0.00000000000E+00  0.00000000000E+00  0.25865221687E+03  0.25865221687E+03  0.00000000000E+00 0.  1.
         13   -1    0    0    0    0 -0.00000000000E+00 -0.00000000000E+00 -0.27500000000E+03  0.27500000000E+03  0.00000000000E+00 0.  1.
    9000005    2    1    2  501    0 -0.19533420309E+02 -0.24631935593E+02 -0.25084239601E+02  0.50102381771E+03  0.49940700844E+03 0.  0.
         13    1    3    3    0    0 -0.51233931957E+02 -0.23850757596E+03 -0.11144895192E+03  0.26820076148E+03  0.00000000000E+00 0.  1.
          1    1    3    3  501    0  0.31700511648E+02  0.21387564036E+03  0.86364712321E+02  0.23282305623E+03  0.00000000000E+00 0.  1.
         21    1    1    2  502  501  0.19533420309E+02  0.24631935593E+02  0.87364564693E+01  0.32628399159E+02  0.00000000000E+00 0.  1.
<scales pt_clust_4="550.00000" pt_clust_5="550.00000" pt_clust_6="31.43703"></scales>
<mgrwt>
<rscale>  0 0.30000000E+03</rscale>
<asrwt>  1 0.31437028E+02</asrwt>
<pdfrwt beam="1">  1        1 0.94055352E+00 0.30000000E+03</pdfrwt>
<pdfrwt beam="2">0</pdfrwt>
<totfact> 0.19130704E-05</totfact>
</mgrwt>
<clustering>
<clus scale="   31.437">  1  6  2 -1</clus>
<clus scale="  499.407">  4  5 -1 -1</clus>
<clus scale="  300.000">  1  4  2 -1</clus>
</clustering>
</event>
<event>
 6    1  0.9678510E-012  0.3000000E+03  0.7818608E-02  0.1093470E+00
          1   -1    0    0  502    0  0.00000000000E+00  0.00000000000E+00  0.22993381090E+03  0.22993381090E+03  0.00000000000E+00 0.  1.
         13   -1    0    0    0    0 -0.00000000000E+00 -0.00000000000E+00 -0.27500000000E+03  0.27500000000E+03  0.00000000000E+00 0.  1.
    9000005    2    1    2  501    0  0.38265601595E+02 -0.92334405363E+01 -0.45922974445E+02  0.46556063767E+03  0.46161485578E+03 0.  0.
         13    1    3    3    0    0  0.56269669084E+02  0.18310877558E+03 -0.15257170620E+03  0.24489431371E+03  0.00000000000E+00 0.  1.
          1    1    3    3  501    0 -0.18004067488E+02 -0.19234221612E+03  0.10664873175E+03  0.22066632396E+03  0.00000000000E+00 0.  1.
         21    1    1    2  502  501 -0.38265601595E+02  0.92334405363E+01  0.85678534913E+00  0.39373173237E+02  0.00000000000E+00 0. -1.
<scales pt_clust_4="550.00000" pt_clust_5="550.00000" pt_clust_6="39.36385"></scales>
<mgrwt>
<rscale>  0 0.30000000E+03</rscale>
<asrwt>  1 0.39363850E+02</asrwt>
<pdfrwt beam="1">  1        1 0.83612295E+00 0.30000000E+03</pdfrwt>
<pdfrwt beam="2">0</pdfrwt>
<totfact> 0.51949552E-04</totfact>
</mgrwt>
<clustering>
<clus scale="   39.364">  1  6  2 -1</clus>
<clus scale="  461.615">  4  5 -1 -1</clus>
<clus scale="  300.000">  1  4  2 -1</clus>
</clustering>
</event>
<event>
 6    1  0.9678510E-012  0.3000000E+03  0.7818608E-02  0.1093470E+00
          1   -1    0    0  502    0  0.00000000000E+00  0.00000000000E+00  0.24182787243E+03  0.24182787243E+03  0.00000000000E+00 0.  1.
         13   -1    0    0    0    0 -0.00000000000E+00 -0.00000000000E+00 -0.27500000000E+03  0.27500000000E+03  0.00000000000E+00 0.  1.
    9000005    2    1    2  501    0 -0.22476056026E+02 -0.24962434904E+02 -0.66844088444E+02  0.46926636278E+03  0.46326503303E+03 0.  0.
         13    1    3    3    0    0 -0.45967649813E+01  0.71470662230E+02  0.18533256205E+03  0.19868906453E+03  0.00000000000E+00 0.  1.
          1    1    3    3  501    0 -0.17879291045E+02 -0.96433097134E+02 -0.25217665050E+03  0.27057729825E+03  0.00000000000E+00 0.  1.
         21    1    1    2  502  501  0.22476056026E+02  0.24962434904E+02  0.33671960876E+02  0.47561509648E+02  0.00000000000E+00 0.  1.
<scales pt_clust_4="550.00000" pt_clust_5="550.00000" pt_clust_6="33.59012"></scales>
<mgrwt>
<rscale>  0 0.30000000E+03</rscale>
<asrwt>  1 0.33590121E+02</asrwt>
<pdfrwt beam="1">  1        1 0.87937408E+00 0.30000000E+03</pdfrwt>
<pdfrwt beam="2">0</pdfrwt>
<totfact> 0.20243399E-04</totfact>
</mgrwt>
<clustering>
<clus scale="   33.590">  1  6  2 -1</clus>
<clus scale="  463.265">  4  5 -1 -1</clus>
<clus scale="  300.000">  1  4  2 -1</clus>
</clustering>
</event>
<event>
 6    1  0.9678510E-012  0.3000000E+03  0.7818608E-02  0.1093470E+00
          1   -1    0    0  502    0  0.00000000000E+00  0.00000000000E+00  0.23883896537E+03  0.23883896537E+03  0.00000000000E+00 0.  1.
         13   -1    0    0    0    0 -0.00000000000E+00 -0.00000000000E+00 -0.27500000000E+03  0.27500000000E+03  0.00000000000E+00 0.  1.
    9000005    2    1    2  501    0  0.36658287176E+02  0.14409895241E+02 -0.52865595444E+02  0.47105441849E+03  0.46641828749E+03 0.  0.
         13    1    3    3    0    0  0.22974347409E+03  0.10431567327E+03 -0.31402416334E+01  0.25233645138E+03  0.00000000000E+00 0.  1.
          3    1    3    3  501    0 -0.19308518691E+03 -0.89905778032E+02 -0.49725353811E+02  0.21871796712E+03  0.00000000000E+00 0.  1.
         21    1    1    2  502  501 -0.36658287176E+02 -0.14409895241E+02  0.16704560818E+02  0.42784546879E+02  0.00000000000E+00 0.  1.
<scales pt_clust_4="550.00000" pt_clust_5="550.00000" pt_clust_6="39.38877"></scales>
<mgrwt>
<rscale>  0 0.30000000E+03</rscale>
<asrwt>  1 0.39388769E+02</asrwt>
<pdfrwt beam="1">  1        1 0.86850533E+00 0.30000000E+03</pdfrwt>
<pdfrwt beam="2">0</pdfrwt>
<totfact> 0.25669372E-04</totfact>
</mgrwt>
<clustering>
<clus scale="   39.389">  1  6  2 -1</clus>
<clus scale="  466.418">  4  5 -1 -1</clus>
<clus scale="  300.000">  1  4  2 -1</clus>
</clustering>
</event>
<event>
 6    1  0.9678510E-012  0.3000000E+03  0.7818608E-02  0.1093470E+00
          1   -1    0    0  502    0  0.00000000000E+00  0.00000000000E+00  0.22514601513E+03  0.22514601513E+03  0.00000000000E+00 0.  1.
         13   -1    0    0    0    0 -0.00000000000E+00 -0.00000000000E+00 -0.27500000000E+03  0.27500000000E+03  0.00000000000E+00 0.  1.
    9000005    2    1    2  501    0 -0.28887282846E+02  0.20001573170E+02 -0.59530646102E+02  0.46370186866E+03  0.45852043262E+03 0.  0.
         13    1    3    3    0    0  0.14187293097E+03  0.17483683981E+03 -0.60688657314E+02  0.23319297207E+03  0.00000000000E+00 0.  1.
          3    1    3    3  501    0 -0.17076021381E+03 -0.15483526664E+03  0.11580112119E+01  0.23050889659E+03  0.00000000000E+00 0.  1.
         21    1    1    2  502  501  0.28887282846E+02 -0.20001573170E+02  0.96766612349E+01  0.36444146473E+02  0.00000000000E+00 0.  1.
<scales pt_clust_4="550.00000" pt_clust_5="550.00000" pt_clust_6="35.13599"></scales>
<mgrwt>
<rscale>  0 0.30000000E+03</rscale>
<asrwt>  1 0.35135994E+02</asrwt>
<pdfrwt beam="1">  1        1 0.81871278E+00 0.30000000E+03</pdfrwt>
<pdfrwt beam="2">0</pdfrwt>
<totfact> 0.74136164E-04</totfact>
</mgrwt>
<clustering>
<clus scale="   35.136">  1  6  2 -1</clus>
<clus scale="  458.520">  4  5 -1 -1</clus>
<clus scale="  300.000">  1  4  2 -1</clus>
</clustering>
</event>
<event>
 6    1  0.9678510E-012  0.3000000E+03  0.7818608E-02  0.1093470E+00
          1   -1    0    0  502    0  0.00000000000E+00  0.00000000000E+00  0.24449806814E+03  0.24449806814E+03  0.00000000000E+00 0.  1.
         13   -1    0    0    0    0 -0.00000000000E+00 -0.00000000000E+00 -0.27500000000E+03  0.27500000000E+03  0.00000000000E+00 0.  1.
    9000005    2    1    2  501    0  0.53552028851E+01 -0.37858992786E+02 -0.64243175615E+02  0.46850343055E+03  0.46250005113E+03 0.  0.
         13    1    3    3    0    0  0.76885490986E+02  0.11743103891E+03 -0.20403787430E+03  0.24765476327E+03  0.00000000000E+00 0.  1.
          1    1    3    3  501    0 -0.71530288101E+02 -0.15529003169E+03  0.13979469868E+03  0.22084866728E+03  0.00000000000E+00 0.  1.
         21    1    1    2  502  501 -0.53552028851E+01  0.37858992786E+02  0.33741243754E+02  0.50994637588E+02  0.00000000000E+00 0. -1.
<scales pt_clust_4="550.00000" pt_clust_5="550.00000" pt_clust_6="38.23587"></scales>
<mgrwt>
<rscale>  0 0.30000000E+03</rscale>
<asrwt>  1 0.38235867E+02</asrwt>
<pdfrwt beam="1">  1        1 0.88908388E+00 0.30000000E+03</pdfrwt>
<pdfrwt beam="2">0</pdfrwt>
<totfact> 0.14669692E-04</totfact>
</mgrwt>
<clustering>
<clus scale="   38.236">  1  6  2 -1</clus>
<clus scale="  462.500">  4  5 -1 -1</clus>
<clus scale="  300.000">  1  4  2 -1</clus>
</clustering>
</event>
<event>
 6    1  0.9678510E-012  0.3000000E+03  0.7818608E-02  0.1093470E+00
          1   -1    0    0  502    0  0.00000000000E+00  0.00000000000E+00  0.24256147536E+03  0.24256147536E+03  0.00000000000E+00 0.  1.
         13   -1    0    0    0    0 -0.00000000000E+00 -0.00000000000E+00 -0.27500000000E+03  0.27500000000E+03  0.00000000000E+00 0.  1.
    9000005    2    1    2  501    0 -0.20722222961E+02  0.30768779990E+02 -0.39523356343E+02  0.47979478121E+03  0.47672298878E+03 0.  0.
         13    1    3    3    0    0  0.18357301991E+02  0.96105320112E+02  0.20313666493E+03  0.22547223272E+03  0.00000000000E+00 0.  1.
          1    1    3    3  501    0 -0.39079524952E+02 -0.65336540122E+02 -0.24266002127E+03  0.25432254849E+03  0.00000000000E+00 0.  1.
         21    1    1    2  502  501  0.20722222961E+02 -0.30768779990E+02  0.70848316981E+01  0.37766694146E+02  0.00000000000E+00 0.  1.
<scales pt_clust_4="550.00000" pt_clust_5="550.00000" pt_clust_6="37.09620"></scales>
<mgrwt>
<rscale>  0 0.30000000E+03</rscale>
<asrwt>  1 0.37096204E+02</asrwt>
<pdfrwt beam="1">  1        1 0.88204173E+00 0.30000000E+03</pdfrwt>
<pdfrwt beam="2">0</pdfrwt>
<totfact> 0.18393988E-04</totfact>
</mgrwt>
<clustering>
<clus scale="   37.096">  1  6  2 -1</clus>
<clus scale="  476.723">  4  5 -1 -1</clus>
<clus scale="  300.000">  1  4  2 -1</clus>
</clustering>
</event>
<event>
 6    1  0.9678510E-012  0.3000000E+03  0.7818608E-02  0.1093470E+00
          1   -1    0    0  502    0  0.00000000000E+00  0.00000000000E+00  0.23818460297E+03  0.23818460297E+03  0.00000000000E+00 0.  1.
         13   -1    0    0    0    0 -0.00000000000E+00 -0.00000000000E+00 -0.27500000000E+03  0.27500000000E+03  0.00000000000E+00 0.  1.
    9000005    2    1    2  501    0  0.10655480999E+02 -0.45879624856E+02 -0.54300950178E+02  0.46294294873E+03  0.45732822058E+03 0.  0.
         13    1    3    3    0    0  0.10703186563E+03  0.12906670264E+03  0.11316761853E+03  0.20228925793E+03  0.00000000000E+00 0.  1.
          3    1    3    3  501    0 -0.96376384628E+02 -0.17494632750E+03 -0.16746856871E+03  0.26065369080E+03  0.00000000000E+00 0.  1.
         21    1    1    2  502  501 -0.10655480999E+02  0.45879624856E+02  0.17485553153E+02  0.50241654246E+02  0.00000000000E+00 0.  1.
<scales pt_clust_4="550.00000" pt_clust_5="550.00000" pt_clust_6="47.10074"></scales>
<mgrwt>
<rscale>  0 0.30000000E+03</rscale>
<asrwt>  1 0.47100735E+02</asrwt>
<pdfrwt beam="1">  1        1 0.86612583E+00 0.30000000E+03</pdfrwt>
<pdfrwt beam="2">0</pdfrwt>
<totfact> 0.26325486E-04</totfact>
</mgrwt>
<clustering>
<clus scale="   47.101">  1  6  2 -1</clus>
<clus scale="  457.328">  4  5 -1 -1</clus>
<clus scale="  300.000">  1  4  2 -1</clus>
</clustering>
</event>
<event>
 6    1  0.9678510E-012  0.3000000E+03  0.7818608E-02  0.1093470E+00
          1   -1    0    0  502    0  0.00000000000E+00  0.00000000000E+00  0.24915343704E+03  0.24915343704E+03  0.00000000000E+00 0.  1.
         13   -1    0    0    0    0 -0.00000000000E+00 -0.00000000000E+00 -0.27500000000E+03  0.27500000000E+03  0.00000000000E+00 0.  1.
    9000005    2    1    2  501    0  0.27115251986E+01 -0.32473435510E+02 -0.44458900086E+02  0.48662617394E+03  0.48349411887E+03 0.  0.
         13    1    3    3    0    0 -0.89169891805E+02  0.42332876612E+02  0.19550224349E+03  0.21900792054E+03  0.00000000000E+00 0.  1.
          1    1    3    3  501    0  0.91881417004E+02 -0.74806312122E+02 -0.23996114358E+03  0.26761825340E+03  0.00000000000E+00 0.  1.
         21    1    1    2  502  501 -0.27115251986E+01  0.32473435510E+02  0.18612337128E+02  0.37527263104E+02  0.00000000000E+00 0.  1.
<scales pt_clust_4="550.00000" pt_clust_5="550.00000" pt_clust_6="32.58644"></scales>
<mgrwt>
<rscale>  0 0.30000000E+03</rscale>
<asrwt>  1 0.32586445E+02</asrwt>
<pdfrwt beam="1">  1        1 0.90601250E+00 0.30000000E+03</pdfrwt>
<pdfrwt beam="2">0</pdfrwt>
<totfact> 0.89534120E-05</totfact>
</mgrwt>
<clustering>
<clus scale="   32.586">  1  6  2 -1</clus>
<clus scale="  483.494">  4  5 -1 -1</clus>
<clus scale="  300.000">  1  4  2 -1</clus>
</clustering>
</event>
<event>
 6    1  0.9678510E-012  0.3000000E+03  0.7818608E-02  0.1093470E+00
          1   -1    0    0  502    0  0.00000000000E+00  0.00000000000E+00  0.23067548364E+03  0.23067548364E+03  0.00000000000E+00 0.  1.
         13   -1    0    0    0    0 -0.00000000000E+00 -0.00000000000E+00 -0.27500000000E+03  0.27500000000E+03  0.00000000000E+00 0.  1.
    9000005    2    1    2  501    0 -0.32401469105E+02 -0.66551336876E+01 -0.66230244629E+02  0.46600172738E+03  0.46008370827E+03 0.  0.
         13    1    3    3    0    0  0.45224712198E+02 -0.17241091028E+03  0.11201399356E+03  0.21051824465E+03  0.00000000000E+00 0.  1.
          1    1    3    3  501    0 -0.77626181303E+02  0.16575577659E+03 -0.17824423819E+03  0.25548348273E+03  0.00000000000E+00 0.  1.
         21    1    1    2  502  501  0.32401469105E+02  0.66551336876E+01  0.21905728266E+02  0.39673756256E+02  0.00000000000E+00 0.  1.
<scales pt_clust_4="550.00000" pt_clust_5="550.00000" pt_clust_6="33.07788"></scales>
<mgrwt>
<rscale>  0 0.30000000E+03</rscale>
<asrwt>  1 0.33077878E+02</asrwt>
<pdfrwt beam="1">  1        1 0.83881994E+00 0.30000000E+03</pdfrwt>
<pdfrwt beam="2">0</pdfrwt>
<totfact> 0.51276112E-04</totfact>
</mgrwt>
<clustering>
<clus scale="   33.078">  1  6  2 -1</clus>
<clus scale="  460.084">  4  5 -1 -1</clus>
<clus scale="  300.000">  1  4  2 -1</clus>
</clustering>
</event>
<event>
 6    1  0.9678510E-012  0.3000000E+03  0.7818608E-02  0.1093470E+00
          1   -1    0    0  502    0  0.00000000000E+00  0.00000000000E+00  0.23082910903E+03  0.23082910903E+03  0.00000000000E+00 0.  1.
         13   -1    0    0    0    0 -0.00000000000E+00 -0.00000000000E+00 -0.27500000000E+03  0.27500000000E+03  0.00000000000E+00 0.  1.
    9000005    2    1    2  501    0 -0.96399553494E+01  0.34326721389E+02 -0.57520348556E+02  0.46775732738E+03  0.46283590426E+03 0.  0.
         13    1    3    3    0    0 -0.52986213730E+02 -0.25334803577E+02  0.19554047531E+03  0.20417019519E+03  0.00000000000E+00 0.  1.
          3    1    3    3  501    0  0.43346258381E+02  0.59661524965E+02 -0.25306082387E+03  0.26358713219E+03  0.00000000000E+00 0.  1.
         21    1    1    2  502  501  0.96399553494E+01 -0.34326721389E+02  0.13349457586E+02  0.38071781654E+02  0.00000000000E+00 0. -1.
<scales pt_clust_4="550.00000" pt_clust_5="550.00000" pt_clust_6="35.65463"></scales>
<mgrwt>
<rscale>  0 0.30000000E+03</rscale>
<asrwt>  1 0.35654629E+02</asrwt>
<pdfrwt beam="1">  1        1 0.83937858E+00 0.30000000E+03</pdfrwt>
<pdfrwt beam="2">0</pdfrwt>
<totfact> 0.50074491E-04</totfact>
</mgrwt>
<clustering>
<clus scale="   35.655">  1  6  2 -1</clus>
<clus scale="  462.836">  4  5 -1 -1</clus>
<clus scale="  300.000">  1  4  2 -1</clus>
</clustering>
</event>
<event>
 6    1  0.9678510E-012  0.3000000E+03  0.7818608E-02  0.1093470E+00
          1   -1    0    0  502    0  0.00000000000E+00  0.00000000000E+00  0.25023468307E+03  0.25023468307E+03  0.00000000000E+00 0.  1.
         13   -1    0    0    0    0 -0.00000000000E+00 -0.00000000000E+00 -0.27500000000E+03  0.27500000000E+03  0.00000000000E+00 0.  1.
    9000005    2    1    2  501    0 -0.29745671211E+02 -0.10963585196E+02 -0.56400054039E+02  0.48044895155E+03  0.47607270851E+03 0.  0.
         13    1    3    3    0    0 -0.18865726771E+01 -0.15161456328E+03 -0.21727477827E+03  0.26495068263E+03  0.00000000000E+00 0.  1.
          3    1    3    3  501    0 -0.27859098534E+02  0.14065097809E+03  0.16087472423E+03  0.21549826891E+03  0.00000000000E+00 0.  1.
         21    1    1    2  502  501  0.29745671211E+02  0.10963585196E+02  0.31634737113E+02  0.44785731526E+02  0.00000000000E+00 0. -1.
<scales pt_clust_4="550.00000" pt_clust_5="550.00000" pt_clust_6="31.70182"></scales>
<mgrwt>
<rscale>  0 0.30000000E+03</rscale>
<asrwt>  1 0.31701816E+02</asrwt>
<pdfrwt beam="1">  1        1 0.90994430E+00 0.30000000E+03</pdfrwt>
<pdfrwt beam="2">0</pdfrwt>
<totfact> 0.73441882E-05</totfact>
</mgrwt>
<clustering>
<clus scale="   31.702">  1  6  2 -1</clus>
<clus scale="  476.073">  4  5 -1 -1</clus>
<clus scale="  300.000">  1  4  2 -1</clus>
</clustering>
</event>
<event>
 6    1  0.9678510E-012  0.3000000E+03  0.7818608E-02  0.1093470E+00
          1   -1    0    0  502    0  0.00000000000E+00  0.00000000000E+00  0.22792243835E+03  0.22792243835E+03  0.00000000000E+00 0.  1.
         13   -1    0    0    0    0 -0.00000000000E+00 -0.00000000000E+00 -0.27500000000E+03  0.27500000000E+03  0.00000000000E+00 0.  1.
    9000005    2    1    2  501    0  0.36555632190E+02 -0.66040543487E+01 -0.62432365049E+02  0.46272669521E+03  0.45698825639E+03 0.  0.
         13    1    3    3    0    0  0.10012279364E+03 -0.34080095593E+00  0.18328140769E+03  0.20884626967E+03  0.00000000000E+00 0.  1.
          1    1    3    3  501    0 -0.63567161445E+02 -0.62632533927E+01 -0.24571377274E+03  0.25388042554E+03  0.00000000000E+00 0.  1.
         21    1    1    2  502  501 -0.36555632190E+02  0.66040543487E+01  0.15354803396E+02  0.40195743133E+02  0.00000000000E+00 0.  1.
<scales pt_clust_4="550.00000" pt_clust_5="550.00000" pt_clust_6="37.14738"></scales>
<mgrwt>
<rscale>  0 0.30000000E+03</rscale>
<asrwt>  1 0.37147379E+02</asrwt>
<pdfrwt beam="1">  1        1 0.82880887E+00 0.30000000E+03</pdfrwt>
<pdfrwt beam="2">0</pdfrwt>
<totfact> 0.59812184E-04</totfact>
</mgrwt>
<clustering>
<clus scale="   37.147">  1  6  2 -1</clus>
<clus scale="  456.988">  4  5 -1 -1</clus>
<clus scale="  300.000">  1  4  2 -1</clus>
</clustering>
</event>
<event>
 6    1  0.9678510E-012  0.3000000E+03  0.7818608E-02  0.1093470E+00
          1   -1    0    0  502    0  0.00000000000E+00  0.00000000000E+00  0.23379755539E+03  0.23379755539E+03  0.00000000000E+00 0.  1.
         13   -1    0    0    0    0 -0.00000000000E+00 -0.00000000000E+00 -0.27500000000E+03  0.27500000000E+03  0.00000000000E+00 0.  1.
    9000005    2    1    2  501    0  0.31347479116E+02  0.87043410806E+01 -0.55008374156E+02  0.47345588464E+03  0.46912271686E+03 0.  0.
         13    1    3    3    0    0  0.11124373675E+03 -0.20679782674E+03 -0.64193268506E+02  0.24343641024E+03  0.00000000000E+00 0.  1.
          1    1    3    3  501    0 -0.79896257634E+02  0.21550216782E+03  0.91848943496E+01  0.23001947440E+03  0.00000000000E+00 0.  1.
         21    1    1    2  502  501 -0.31347479116E+02 -0.87043410806E+01  0.13805929549E+02  0.35341670748E+02  0.00000000000E+00 0.  1.
<scales pt_clust_4="550.00000" pt_clust_5="550.00000" pt_clust_6="32.53352"></scales>
<mgrwt>
<rscale>  0 0.30000000E+03</rscale>
<asrwt>  1 0.32533521E+02</asrwt>
<pdfrwt beam="1">  1        1 0.85017293E+00 0.30000000E+03</pdfrwt>
<pdfrwt beam="2">0</pdfrwt>
<totfact> 0.41108531E-04</totfact>
</mgrwt>
<clustering>
<clus scale="   32.534">  1  6  2 -1</clus>
<clus scale="  469.123">  4  5 -1 -1</clus>
<clus scale="  300.000">  1  4  2 -1</clus>
</clustering>
</event>
<event>
 6    1  0.9678510E-012  0.3000000E+03  0.7818608E-02  0.1093470E+00
          1   -1    0    0  502    0  0.00000000000E+00  0.00000000000E+00  0.22994859597E+03  0.22994859597E+03  0.00000000000E+00 0.  1.
         13   -1    0    0    0    0 -0.00000000000E+00 -0.00000000000E+00 -0.27500000000E+03  0.27500000000E+03  0.00000000000E+00 0.  1.
    9000005    2    1    2  501    0  0.13365486590E+02 -0.35645297683E+02 -0.45431398186E+02  0.46687803156E+03  0.46310027093E+03 0.  0.
         13    1    3    3    0    0 -0.22081689367E+03  0.69969634019E+00 -0.61872425717E+02  0.22932245238E+03  0.00000000000E+00 0.  1.
          1    1    3    3  501    0  0.23418238026E+03 -0.36344994023E+02  0.16441027531E+02  0.23755557918E+03  0.00000000000E+00 0.  1.
         21    1    1    2  502  501 -0.13365486590E+02  0.35645297683E+02  0.37999415614E+00  0.38070564407E+02  0.00000000000E+00 0.  1.
<scales pt_clust_4="550.00000" pt_clust_5="550.00000" pt_clust_6="38.06867"></scales>
<mgrwt>
<rscale>  0 0.30000000E+03</rscale>
<asrwt>  1 0.38068668E+02</asrwt>
<pdfrwt beam="1">  1        1 0.83617671E+00 0.30000000E+03</pdfrwt>
<pdfrwt beam="2">0</pdfrwt>
<totfact> 0.52222652E-04</totfact>
</mgrwt>
<clustering>
<clus scale="   38.069">  1  6  2 -1</clus>
<clus scale="  463.100">  4  5 -1 -1</clus>
<clus scale="  300.000">  1  4  2 -1</clus>
</clustering>
</event>
<event>
 6    1  0.9678510E-012  0.3000000E+03  0.7818608E-02  0.1093470E+00
          1   -1    0    0  502    0  0.00000000000E+00  0.00000000000E+00  0.24488207176E+03  0.24488207176E+03  0.00000000000E+00 0.  1.
         13   -1    0    0    0    0 -0.00000000000E+00 -0.00000000000E+00 -0.27500000000E+03  0.27500000000E+03  0.00000000000E+00 0.  1.
    9000005    2    1    2  501    0 -0.29123451391E+02 -0.48941460093E+02 -0.35282116053E+02  0.46269718938E+03  0.45782138374E+03 0.  0.
         13    1    3    3    0    0 -0.98963276517E+02  0.17457841206E+02  0.19151347489E+03  0.21627740840E+03  0.00000000000E+00 0.  1.
          1    1    3    3  501    0  0.69839825126E+02 -0.66399301299E+02 -0.22679559095E+03  0.24641978098E+03  0.00000000000E+00 0.  1.
         21    1    1    2  502  501  0.29123451391E+02  0.48941460093E+02  0.51641878144E+01  0.57184882379E+02  0.00000000000E+00 0.  1.
<scales pt_clust_4="550.00000" pt_clust_5="550.00000" pt_clust_6="56.95122"></scales>
<mgrwt>
<rscale>  0 0.30000000E+03</rscale>
<asrwt>  1 0.56951224E+02</asrwt>
<pdfrwt beam="1">  1        1 0.89048026E+00 0.30000000E+03</pdfrwt>
<pdfrwt beam="2">0</pdfrwt>
<totfact> 0.13092992E-04</totfact>
</mgrwt>
<clustering>
<clus scale="   56.951">  1  6  2 -1</clus>
<clus scale="  457.821">  4  5 -1 -1</clus>
<clus scale="  300.000">  1  4  2 -1</clus>
</clustering>
</event>
<event>
 6    1  0.9678510E-012  0.3000000E+03  0.7818608E-02  0.1093470E+00
          1   -1    0    0  502    0  0.00000000000E+00  0.00000000000E+00  0.24568714705E+03  0.24568714705E+03  0.00000000000E+00 0.  1.
         13   -1    0    0    0    0 -0.00000000000E+00 -0.00000000000E+00 -0.27500000000E+03  0.27500000000E+03  0.00000000000E+00 0.  1.
    9000005    2    1    2  501    0  0.47142613563E-01  0.37443344694E+02 -0.22534897816E+02  0.48263524880E+03  0.48065263495E+03 0.  0.
         13    1    3    3    0    0 -0.11741035442E+03 -0.86256207030E+02  0.17100548805E+03  0.22465128871E+03  0.00000000000E+00 0.  1.
          3    1    3    3  501    0  0.11745749703E+03  0.12369955172E+03 -0.19354038586E+03  0.25798396010E+03  0.00000000000E+00 0.  1.
         21    1    1    2  502  501 -0.47142613563E-01 -0.37443344694E+02 -0.67779551342E+01  0.38051898246E+02  0.00000000000E+00 0.  1.
<scales pt_clust_4="550.00000" pt_clust_5="550.00000" pt_clust_6="37.44339"></scales>
<mgrwt>
<rscale>  0 0.30000000E+03</rscale>
<asrwt>  1 0.37443393E+02</asrwt>
<pdfrwt beam="1">  1        1 0.89340781E+00 0.30000000E+03</pdfrwt>
<pdfrwt beam="2">0</pdfrwt>
<totfact> 0.12983320E-04</totfact>
</mgrwt>
<clustering>
<clus scale="   37.443">  1  6  2 -1</clus>
<clus scale="  480.653">  4  5 -1 -1</clus>
<clus scale="  300.000">  1  4  2 -1</clus>
</clustering>
</event>
<event>
 6    1  0.9678510E-012  0.3000000E+03  0.7818608E-02  0.1093470E+00
          1   -1    0    0  502    0  0.00000000000E+00  0.00000000000E+00  0.25125046909E+03  0.25125046909E+03  0.00000000000E+00 0.  1.
         13   -1    0    0    0    0 -0.00000000000E+00 -0.00000000000E+00 -0.27500000000E+03  0.27500000000E+03  0.00000000000E+00 0.  1.
    9000005    2    1    2  501    0  0.89097714527E+01 -0.31301975842E+02 -0.48449191673E+02  0.48539375653E+03  0.48187195082E+03 0.  0.
         13    1    3    3    0    0 -0.10574124240E+03 -0.19316528374E+03 -0.14613395792E+03  0.26428993708E+03  0.00000000000E+00 0.  1.
          3    1    3    3  501    0  0.11465101385E+03  0.16186330790E+03  0.97684766245E+02  0.22110381945E+03  0.00000000000E+00 0.  1.
         21    1    1    2  502  501 -0.89097714527E+01  0.31301975842E+02  0.24699660760E+02  0.40856712553E+02  0.00000000000E+00 0.  1.
<scales pt_clust_4="550.00000" pt_clust_5="550.00000" pt_clust_6="32.54532"></scales>
<mgrwt>
<rscale>  0 0.30000000E+03</rscale>
<asrwt>  1 0.32545318E+02</asrwt>
<pdfrwt beam="1">  1        1 0.91363807E+00 0.30000000E+03</pdfrwt>
<pdfrwt beam="2">0</pdfrwt>
<totfact> 0.59166548E-05</totfact>
</mgrwt>
<clustering>
<clus scale="   32.545">  1  6  2 -1</clus>
<clus scale="  481.872">  4  5 -1 -1</clus>
<clus scale="  300.000">  1  4  2 -1</clus>
</clustering>
</event>
<event>
 6    1  0.9678510E-012  0.3000000E+03  0.7818608E-02  0.1093470E+00
          1   -1    0    0  502    0  0.00000000000E+00  0.00000000000E+00  0.22996978761E+03  0.22996978761E+03  0.00000000000E+00 0.  1.
         13   -1    0    0    0    0 -0.00000000000E+00 -0.00000000000E+00 -0.27500000000E+03  0.27500000000E+03  0.00000000000E+00 0.  1.
    9000005    2    1    2  501    0 -0.27314331579E+02 -0.14081040460E+02 -0.66251427816E+02  0.46762426051E+03  0.46188618611E+03 0.  0.
         13    1    3    3    0    0  0.92582394302E+01 -0.19114181682E+03  0.10527061161E+03  0.21840973147E+03  0.00000000000E+00 0.  1.
          3    1    3    3  501    0 -0.36572571010E+02  0.17706077636E+03 -0.17152203943E+03  0.24921452904E+03  0.00000000000E+00 0.  1.
         21    1    1    2  502  501  0.27314331579E+02  0.14081040460E+02  0.21221215422E+02  0.37345527096E+02  0.00000000000E+00 0. -1.
<scales pt_clust_4="550.00000" pt_clust_5="550.00000" pt_clust_6="30.73025"></scales>
<mgrwt>
<rscale>  0 0.30000000E+03</rscale>
<asrwt>  1 0.30730252E+02</asrwt>
<pdfrwt beam="1">  1        1 0.83625377E+00 0.30000000E+03</pdfrwt>
<pdfrwt beam="2">0</pdfrwt>
<totfact> 0.54296613E-04</totfact>
</mgrwt>
<clustering>
<clus scale="   30.730">  1  6  2 -1</clus>
<clus scale="  461.886">  4  5 -1 -1</clus>
<clus scale="  300.000">  1  4  2 -1</clus>
</clustering>
</event>
<event>
 6    1  0.9678510E-012  0.3000000E+03  0.7818608E-02  0.1093470E+00
          1   -1    0    0  502    0  0.00000000000E+00  0.00000000000E+00  0.24296507862E+03  0.24296507862E+03  0.00000000000E+00 0.  1.
         13   -1    0    0    0    0 -0.00000000000E+00 -0.00000000000E+00 -0.27500000000E+03  0.27500000000E+03  0.00000000000E+00 0.  1.
    9000005    2    1    2  501    0  0.53086052641E+01 -0.40673604455E+02 -0.56860644102E+02  0.47001885981E+03  0.46476023102E+03 0.  0.
         13    1    3    3    0    0  0.20698868695E+03  0.18677737169E+02 -0.13263670503E+03  0.24654750032E+03  0.00000000000E+00 0.  1.
          1    1    3    3  501    0 -0.20168008169E+03 -0.59351341624E+02  0.75776060928E+02  0.22347135949E+03  0.00000000000E+00 0.  1.
         21    1    1    2  502  501 -0.53086052641E+01  0.40673604455E+02  0.24825722719E+02  0.47946218805E+02  0.00000000000E+00 0.  1.
<scales pt_clust_4="550.00000" pt_clust_5="550.00000" pt_clust_6="41.01857"></scales>
<mgrwt>
<rscale>  0 0.30000000E+03</rscale>
<asrwt>  1 0.41018574E+02</asrwt>
<pdfrwt beam="1">  1        1 0.88350938E+00 0.30000000E+03</pdfrwt>
<pdfrwt beam="2">0</pdfrwt>
<totfact> 0.17267811E-04</totfact>
</mgrwt>
<clustering>
<clus scale="   41.019">  1  6  2 -1</clus>
<clus scale="  464.760">  4  5 -1 -1</clus>
<clus scale="  300.000">  1  4  2 -1</clus>
</clustering>
</event>
<event>
 6    1  0.9678510E-012  0.3000000E+03  0.7818608E-02  0.1093470E+00
          1   -1    0    0  502    0  0.00000000000E+00  0.00000000000E+00  0.24286128344E+03  0.24286128344E+03  0.00000000000E+00 0.  1.
         13   -1    0    0    0    0 -0.00000000000E+00 -0.00000000000E+00 -0.27500000000E+03  0.27500000000E+03  0.00000000000E+00 0.  1.
    9000005    2    1    2  501    0 -0.20779976617E+02  0.22214095351E+02 -0.33270943422E+02  0.48742191095E+03  0.48533276227E+03 0.  0.
         13    1    3    3    0    0 -0.18445399454E+03  0.17353438888E+03 -0.67029898228E+02  0.26197417331E+03  0.00000000000E+00 0.  1.
          1    1    3    3  501    0  0.16367401792E+03 -0.15132029353E+03  0.33758954806E+02  0.22544773764E+03  0.00000000000E+00 0.  1.
         21    1    1    2  502  501  0.20779976617E+02 -0.22214095351E+02  0.11322268662E+01  0.30439372499E+02  0.00000000000E+00 0.  1.
<scales pt_clust_4="550.00000" pt_clust_5="550.00000" pt_clust_6="30.41831"></scales>
<mgrwt>
<rscale>  0 0.30000000E+03</rscale>
<asrwt>  1 0.30418308E+02</asrwt>
<pdfrwt beam="1">  1        1 0.88313194E+00 0.30000000E+03</pdfrwt>
<pdfrwt beam="2">0</pdfrwt>
<totfact> 0.18473097E-04</totfact>
</mgrwt>
<clustering>
<clus scale="   30.418">  1  6  2 -1</clus>
<clus scale="  485.333">  4  5 -1 -1</clus>
<clus scale="  300.000">  1  4  2 -1</clus>
</clustering>
</event>
<event>
 6    1  0.9678510E-012  0.3000000E+03  0.7818608E-02  0.1093470E+00
          1   -1    0    0  502    0  0.00000000000E+00  0.00000000000E+00  0.22045546902E+03  0.22045546902E+03  0.00000000000E+00 0.  1.
         13   -1    0    0    0    0 -0.00000000000E+00 -0.00000000000E+00 -0.27500000000E+03  0.27500000000E+03  0.00000000000E+00 0.  1.
    9000005    2    1    2  501    0 -0.22970819318E+02  0.21191402258E+02 -0.59822299950E+02  0.46376021835E+03  0.45882251305E+03 0.  0.
         13    1    3    3    0    0 -0.52615719213E+02  0.23242771606E+03  0.12205598323E+02  0.23862110915E+03  0.00000000000E+00 0.  1.
          3    1    3    3  501    0  0.29644899895E+02 -0.21123631380E+03 -0.72027898274E+02  0.22513910919E+03  0.00000000000E+00 0.  1.
         21    1    1    2  502  501  0.22970819318E+02 -0.21191402258E+02  0.52777689661E+01  0.31695250670E+02  0.00000000000E+00 0. -1.
<scales pt_clust_4="550.00000" pt_clust_5="550.00000" pt_clust_6="31.25274"></scales>
<mgrwt>
<rscale>  0 0.30000000E+03</rscale>
<asrwt>  1 0.31252745E+02</asrwt>
<pdfrwt beam="1">  1        1 0.80165625E+00 0.30000000E+03</pdfrwt>
<pdfrwt beam="2">0</pdfrwt>
<totfact> 0.10305875E-03</totfact>
</mgrwt>
<clustering>
<clus scale="   31.253">  1  6  2 -1</clus>
<clus scale="  458.823">  4  5 -1 -1</clus>
<clus scale="  300.000">  1  4  2 -1</clus>
</clustering>
</event>
<event>
 6    1  0.9678510E-012  0.3000000E+03  0.7818608E-02  0.1093470E+00
          1   -1    0    0  502    0  0.00000000000E+00  0.00000000000E+00  0.22245389205E+03  0.22245389205E+03  0.00000000000E+00 0.  1.
         13   -1    0    0    0    0 -0.00000000000E+00 -0.00000000000E+00 -0.27500000000E+03  0.27500000000E+03  0.00000000000E+00 0.  1.
    9000005    2    1    2  501    0 -0.33491363648E+01 -0.33354007348E+02 -0.63833485587E+02  0.46208283871E+03  0.45642319116E+03 0.  0.
         13    1    3    3    0    0 -0.12900166458E+03 -0.19481424938E+03  0.32575127591E+02  0.23591345905E+03  0.00000000000E+00 0.  1.
          3    1    3    3  501    0  0.12565252821E+03  0.16146024203E+03 -0.96408613179E+02  0.22616937966E+03  0.00000000000E+00 0.  1.
         21    1    1    2  502  501  0.33491363648E+01  0.33354007348E+02  0.11287377641E+02  0.35371053343E+02  0.00000000000E+00 0. -1.
<scales pt_clust_4="550.00000" pt_clust_5="550.00000" pt_clust_6="33.52173"></scales>
<mgrwt>
<rscale>  0 0.30000000E+03</rscale>
<asrwt>  1 0.33521732E+02</asrwt>
<pdfrwt beam="1">  1        1 0.80892324E+00 0.30000000E+03</pdfrwt>
<pdfrwt beam="2">0</pdfrwt>
<totfact> 0.89635206E-04</totfact>
</mgrwt>
<clustering>
<clus scale="   33.522">  1  6  2 -1</clus>
<clus scale="  456.423">  4  5 -1 -1</clus>
<clus scale="  300.000">  1  4  2 -1</clus>
</clustering>
</event>
<event>
 6    1  0.9678510E-012  0.3000000E+03  0.7818608E-02  0.1093470E+00
          1   -1    0    0  502    0  0.00000000000E+00  0.00000000000E+00  0.23792923721E+03  0.23792923721E+03  0.00000000000E+00 0.  1.
         13   -1    0    0    0    0 -0.00000000000E+00 -0.00000000000E+00 -0.27500000000E+03  0.27500000000E+03  0.00000000000E+00 0.  1.
    9000005    2    1    2  501    0  0.36221343390E+02  0.12561711214E+02 -0.50158651636E+02  0.47241905158E+03  0.46818168231E+03 0.  0.
         13    1    3    3    0    0  0.55967592673E+02  0.16762985460E+03 -0.19227415286E+03  0.26115414881E+03  0.00000000000E+00 0.  1.
          1    1    3    3  501    0 -0.19746249282E+02 -0.15506814339E+03  0.14211550122E+03  0.21126490277E+03  0.00000000000E+00 0.  1.
         21    1    1    2  502  501 -0.36221343390E+02 -0.12561711214E+02  0.13087888849E+02  0.40510185634E+02  0.00000000000E+00 0. -1.
<scales pt_clust_4="550.00000" pt_clust_5="550.00000" pt_clust_6="38.33774"></scales>
<mgrwt>
<rscale>  0 0.30000000E+03</rscale>
<asrwt>  1 0.38337740E+02</asrwt>
<pdfrwt beam="1">  1        1 0.86519723E+00 0.30000000E+03</pdfrwt>
<pdfrwt beam="2">0</pdfrwt>
<totfact> 0.27954624E-04</totfact>
</mgrwt>
<clustering>
<clus scale="   38.338">  1  6  2 -1</clus>
<clus scale="  468.182">  4  5 -1 -1</clus>
<clus scale="  300.000">  1  4  2 -1</clus>
</clustering>
</event>
<event>
 6    1  0.9678510E-012  0.3000000E+03  0.7818608E-02  0.1093470E+00
          1   -1    0    0  502    0  0.00000000000E+00  0.00000000000E+00  0.23391901900E+03  0.23391901900E+03  0.00000000000E+00 0.  1.
         13   -1    0    0    0    0 -0.00000000000E+00 -0.00000000000E+00 -0.27500000000E+03  0.27500000000E+03  0.00000000000E+00 0.  1.
    9000005    2    1    2  501    0  0.21795018029E+02 -0.23159443157E+02 -0.54887541839E+02  0.47424909341E+03  0.46998742295E+03 0.  0.
         13    1    3    3    0    0  0.89602347357E+02  0.43423342725E+02  0.18838149677E+03  0.21307687737E+03  0.00000000000E+00 0.  1.
          1    1    3    3  501    0 -0.67807329328E+02 -0.66582785882E+02 -0.24326903861E+03  0.26117221604E+03  0.00000000000E+00 0.  1.
         21    1    1    2  502  501 -0.21795018029E+02  0.23159443157E+02  0.13806560842E+02  0.34669925591E+02  0.00000000000E+00 0. -1.
<scales pt_clust_4="550.00000" pt_clust_5="550.00000" pt_clust_6="31.80224"></scales>
<mgrwt>
<rscale>  0 0.30000000E+03</rscale>
<asrwt>  1 0.31802242E+02</asrwt>
<pdfrwt beam="1">  1        1 0.85061461E+00 0.30000000E+03</pdfrwt>
<pdfrwt beam="2">0</pdfrwt>
<totfact> 0.40892675E-04</totfact>
</mgrwt>
<clustering>
<clus scale="   31.802">  1  6  2 -1</clus>
<clus scale="  469.987">  4  5 -1 -1</clus>
<clus scale="  300.000">  1  4  2 -1</clus>
</clustering>
</event>
<event>
 6    1  0.9678510E-012  0.3000000E+03  0.7818608E-02  0.1093470E+00
          1   -1    0    0  502    0  0.00000000000E+00  0.00000000000E+00  0.24882541125E+03  0.24882541125E+03  0.00000000000E+00 0.  1.
         13   -1    0    0    0    0 -0.00000000000E+00 -0.00000000000E+00 -0.27500000000E+03  0.27500000000E+03  0.00000000000E+00 0.  1.
    9000005    2    1    2  501    0  0.26806514447E+02  0.14154459378E+02 -0.37927617248E+02  0.49131277346E+03  0.48890776152E+03 0.  0.
         13    1    3    3    0    0  0.55111102079E+02  0.13265964260E+03 -0.22566319839E+03  0.26750643629E+03  0.00000000000E+00 0.  1.
          1    1    3    3  501    0 -0.28304587632E+02 -0.11850518322E+03  0.18773558114E+03  0.22380633717E+03  0.00000000000E+00 0.  1.
         21    1    1    2  502  501 -0.26806514447E+02 -0.14154459378E+02  0.11753028497E+02  0.32512637787E+02  0.00000000000E+00 0.  1.
<scales pt_clust_4="550.00000" pt_clust_5="550.00000" pt_clust_6="30.31399"></scales>
<mgrwt>
<rscale>  0 0.30000000E+03</rscale>
<asrwt>  1 0.30313989E+02</asrwt>
<pdfrwt beam="1">  1        1 0.90481968E+00 0.30000000E+03</pdfrwt>
<pdfrwt beam="2">0</pdfrwt>
<totfact> 0.95763042E-05</totfact>
</mgrwt>
<clustering>
<clus scale="   30.314">  1  6  2 -1</clus>
<clus scale="  488.908">  4  5 -1 -1</clus>
<clus scale="  300.000">  1  4  2 -1</clus>
</clustering>
</event>
<event>
 6    1  0.9678510E-012  0.3000000E+03  0.7818608E-02  0.1093470E+00
          1   -1    0    0  502    0  0.00000000000E+00  0.00000000000E+00  0.23582810467E+03  0.23582810467E+03  0.00000000000E+00 0.  1.
         13   -1    0    0    0    0 -0.00000000000E+00 -0.00000000000E+00 -0.27500000000E+03  0.27500000000E+03  0.00000000000E+00 0.  1.
    9000005    2    1    2  501    0  0.24120455013E+02 -0.19762818563E+02 -0.41732039726E+02  0.47954041242E+03  0.47670229562E+03 0.  0.
         13    1    3    3    0    0 -0.13814096569E+03  0.14133921993E+03 -0.12765266852E+03  0.23527623185E+03  0.00000000000E+00 0.  1.
          3    1    3    3  501    0  0.16226142070E+03 -0.16110203849E+03  0.85920628798E+02  0.24426418057E+03  0.00000000000E+00 0.  1.
         21    1    1    2  502  501 -0.24120455013E+02  0.19762818563E+02  0.25601444005E+01  0.31287692259E+02  0.00000000000E+00 0. -1.
<scales pt_clust_4="550.00000" pt_clust_5="550.00000" pt_clust_6="31.18277"></scales>
<mgrwt>
<rscale>  0 0.30000000E+03</rscale>
<asrwt>  1 0.31182773E+02</asrwt>
<pdfrwt beam="1">  1        1 0.85755674E+00 0.30000000E+03</pdfrwt>
<pdfrwt beam="2">0</pdfrwt>
<totfact> 0.35077777E-04</totfact>
</mgrwt>
<clustering>
<clus scale="   31.183">  1  6  2 -1</clus>
<clus scale="  476.702">  4  5 -1 -1</clus>
<clus scale="  300.000">  1  4  2 -1</clus>
</clustering>
</event>
<event>
 6    1  0.9678510E-012  0.3000000E+03  0.7818608E-02  0.1093470E+00
          1   -1    0    0  502    0  0.00000000000E+00  0.00000000000E+00  0.23388384083E+03  0.23388384083E+03  0.00000000000E+00 0.  1.
         13   -1    0    0    0    0 -0.00000000000E+00 -0.00000000000E+00 -0.27500000000E+03  0.27500000000E+03  0.00000000000E+00 0.  1.
    9000005    2    1    2  501    0 -0.41115624682E+02  0.37395053224E+01 -0.46654509054E+02  0.46722868734E+03  0.46305671852E+03 0.  0.
         13    1    3    3    0    0  0.95291398443E+02 -0.17766765739E+03  0.68227111762E+02  0.21284075240E+03  0.00000000000E+00 0.  1.
          3    1    3    3  501    0 -0.13640702312E+03  0.18140716272E+03 -0.11488162082E+03  0.25438793494E+03  0.00000000000E+00 0.  1.
         21    1    1    2  502  501  0.41115624682E+02 -0.37395053224E+01  0.55383498867E+01  0.41655153493E+02  0.00000000000E+00 0. -1.
<scales pt_clust_4="550.00000" pt_clust_5="550.00000" pt_clust_6="41.28533"></scales>
<mgrwt>
<rscale>  0 0.30000000E+03</rscale>
<asrwt>  1 0.41285330E+02</asrwt>
<pdfrwt beam="1">  1        1 0.85048669E+00 0.30000000E+03</pdfrwt>
<pdfrwt beam="2">0</pdfrwt>
<totfact> 0.39065041E-04</totfact>
</mgrwt>
<clustering>
<clus scale="   41.285">  1  6  2 -1</clus>
<clus scale="  463.057">  4  5 -1 -1</clus>
<clus scale="  300.000">  1  4  2 -1</clus>
</clustering>
</event>
<event>
 6    1  0.9678510E-012  0.3000000E+03  0.7818608E-02  0.1093470E+00
          1   -1    0    0  502    0  0.00000000000E+00  0.00000000000E+00  0.23519940986E+03  0.23519940986E+03  0.00000000000E+00 0.  1.
         13   -1    0    0    0    0 -0.00000000000E+00 -0.00000000000E+00 -0.27500000000E+03  0.27500000000E+03  0.00000000000E+00 0.  1.
    9000005    2    1    2  501    0  0.40291701688E+02 -0.99053241968E+01 -0.45511160045E+02  0.46831686838E+03  0.46424981082E+03 0.  0.
         13    1    3    3    0    0  0.18262788096E+03  0.11265872296E+03  0.94073965741E+02  0.23429648267E+03  0.00000000000E+00 0.  1.
          3    1    3    3  501    0 -0.14233617927E+03 -0.12256404716E+03 -0.13958512579E+03  0.23402038571E+03  0.00000000000E+00 0.  1.
         21    1    1    2  502  501 -0.40291701688E+02  0.99053241968E+01  0.57105699068E+01  0.41882541482E+02  0.00000000000E+00 0.  1.
<scales pt_clust_4="550.00000" pt_clust_5="550.00000" pt_clust_6="41.49140"></scales>
<mgrwt>
<rscale>  0 0.30000000E+03</rscale>
<asrwt>  1 0.41491405E+02</asrwt>
<pdfrwt beam="1">  1        1 0.85527058E+00 0.30000000E+03</pdfrwt>
<pdfrwt beam="2">0</pdfrwt>
<totfact> 0.35091969E-04</totfact>
</mgrwt>
<clustering>
<clus scale="   41.491">  1  6  2 -1</clus>
<clus scale="  464.250">  4  5 -1 -1</clus>
<clus scale="  300.000">  1  4  2 -1</clus>
</clustering>
</event>
<event>
 6    1  0.9678510E-012  0.3000000E+03  0.7818608E-02  0.1093470E+00
          1   -1    0    0  502    0  0.00000000000E+00  0.00000000000E+00  0.24146496843E+03  0.24146496843E+03  0.00000000000E+00 0.  1.
         13   -1    0    0    0    0 -0.00000000000E+00 -0.00000000000E+00 -0.27500000000E+03  0.27500000000E+03  0.00000000000E+00 0.  1.
    9000005    2    1    2  501    0  0.34483707887E+02 -0.42140798868E+01 -0.53421465656E+02  0.47643554376E+03  0.47215473077E+03 0.  0.
         13    1    3    3    0    0  0.11628361393E+03  0.20326312305E+03  0.34515388514E+02  0.23670464319E+03  0.00000000000E+00 0.  1.
          1    1    3    3  501    0 -0.81799906040E+02 -0.20747720294E+03 -0.87936854171E+02  0.23973090057E+03  0.00000000000E+00 0.  1.
         21    1    1    2  502  501 -0.34483707887E+02  0.42140798868E+01  0.19886434090E+02  0.40029424675E+02  0.00000000000E+00 0. -1.
<scales pt_clust_4="550.00000" pt_clust_5="550.00000" pt_clust_6="34.74024"></scales>
<mgrwt>
<rscale>  0 0.30000000E+03</rscale>
<asrwt>  1 0.34740244E+02</asrwt>
<pdfrwt beam="1">  1        1 0.87805443E+00 0.30000000E+03</pdfrwt>
<pdfrwt beam="2">0</pdfrwt>
<totfact> 0.20849180E-04</totfact>
</mgrwt>
<clustering>
<clus scale="   34.740">  1  6  2 -1</clus>
<clus scale="  472.155">  4  5 -1 -1</clus>
<clus scale="  300.000">  1  4  2 -1</clus>
</clustering>
</event>
<event>
 6    1  0.9678510E-012  0.3000000E+03  0.7818608E-02  0.1093470E+00
          1   -1    0    0  502    0  0.00000000000E+00  0.00000000000E+00  0.23484576967E+03  0.23484576967E+03  0.00000000000E+00 0.  1.
         13   -1    0    0    0    0 -0.00000000000E+00 -0.00000000000E+00 -0.27500000000E+03  0.27500000000E+03  0.00000000000E+00 0.  1.
    9000005    2    1    2  501    0  0.25238664951E+02  0.18654230259E+02 -0.60798706573E+02  0.47228029464E+03  0.46729778885E+03 0.  0.
         13    1    3    3    0    0  0.15776720574E+03  0.12576177480E+02  0.15334506586E+03  0.22037096150E+03  0.00000000000E+00 0.  1.
          3    1    3    3  501    0 -0.13252854079E+03  0.60780527784E+01 -0.21414377244E+03  0.25190933314E+03  0.00000000000E+00 0.  1.
         21    1    1    2  502  501 -0.25238664951E+02 -0.18654230259E+02  0.20644476240E+02  0.37565475030E+02  0.00000000000E+00 0.  1.
<scales pt_clust_4="550.00000" pt_clust_5="550.00000" pt_clust_6="31.38424"></scales>
<mgrwt>
<rscale>  0 0.30000000E+03</rscale>
<asrwt>  1 0.31384240E+02</asrwt>
<pdfrwt beam="1">  1        1 0.85398462E+00 0.30000000E+03</pdfrwt>
<pdfrwt beam="2">0</pdfrwt>
<totfact> 0.38055126E-04</totfact>
</mgrwt>
<clustering>
<clus scale="   31.384">  1  6  2 -1</clus>
<clus scale="  467.298">  4  5 -1 -1</clus>
<clus scale="  300.000">  1  4  2 -1</clus>
</clustering>
</event>
<event>
 6    1  0.9678510E-012  0.3000000E+03  0.7818608E-02  0.1093470E+00
          1   -1    0    0  502    0  0.00000000000E+00  0.00000000000E+00  0.23014814437E+03  0.23014814437E+03  0.00000000000E+00 0.  1.
         13   -1    0    0    0    0 -0.00000000000E+00 -0.00000000000E+00 -0.27500000000E+03  0.27500000000E+03  0.00000000000E+00 0.  1.
    9000005    2    1    2  501    0  0.42478890810E+01 -0.29800103836E+02 -0.64168023632E+02  0.46938216757E+03  0.46399999270E+03 0.  0.
         13    1    3    3    0    0 -0.62046453637E+02 -0.22669403722E+03 -0.10538656092E+03  0.25757770894E+03  0.00000000000E+00 0.  1.
          1    1    3    3  501    0  0.66294342718E+02  0.19689393338E+03  0.41218537292E+02  0.21180445863E+03  0.00000000000E+00 0.  1.
         21    1    1    2  502  501 -0.42478890810E+01  0.29800103836E+02  0.19316168000E+02  0.35765976800E+02  0.00000000000E+00 0. -1.
<scales pt_clust_4="550.00000" pt_clust_5="550.00000" pt_clust_6="30.10134"></scales>
<mgrwt>
<rscale>  0 0.30000000E+03</rscale>
<asrwt>  1 0.30101341E+02</asrwt>
<pdfrwt beam="1">  1        1 0.83690234E+00 0.30000000E+03</pdfrwt>
<pdfrwt beam="2">0</pdfrwt>
<totfact> 0.53925233E-04</totfact>
</mgrwt>
<clustering>
<clus scale="   30.101">  1  6  2 -1</clus>
<clus scale="  464.000">  4  5 -1 -1</clus>
<clus scale="  300.000">  1  4  2 -1</clus>
</clustering>
</event>
<event>
 6    1  0.9678510E-012  0.3000000E+03  0.7818608E-02  0.1093470E+00
          1   -1    0    0  502    0  0.00000000000E+00  0.00000000000E+00  0.23137539264E+03  0.23137539264E+03  0.00000000000E+00 0.  1.
         13   -1    0    0    0    0 -0.00000000000E+00 -0.00000000000E+00 -0.27500000000E+03  0.27500000000E+03  0.00000000000E+00 0.  1.
    9000005    2    1    2  501    0  0.84434750209E+01 -0.29015252434E+02 -0.39836265650E+02  0.47592003716E+03  0.47328614660E+03 0.  0.
         13    1    3    3    0    0 -0.15809716144E+03 -0.15914464977E+03  0.73549535453E+02  0.23607470464E+03  0.00000000000E+00 0.  1.
          3    1    3    3  501    0  0.16654063646E+03  0.13012939733E+03 -0.11338580110E+03  0.23984533252E+03  0.00000000000E+00 0.  1.
         21    1    1    2  502  501 -0.84434750209E+01  0.29015252434E+02 -0.37883417136E+01  0.30455355476E+02  0.00000000000E+00 0. -1.
<scales pt_clust_4="550.00000" pt_clust_5="550.00000" pt_clust_6="30.21884"></scales>
<mgrwt>
<rscale>  0 0.30000000E+03</rscale>
<asrwt>  1 0.30218836E+02</asrwt>
<pdfrwt beam="1">  1        1 0.84136506E+00 0.30000000E+03</pdfrwt>
<pdfrwt beam="2">0</pdfrwt>
<totfact> 0.49861976E-04</totfact>
</mgrwt>
<clustering>
<clus scale="   30.219">  1  6  2 -1</clus>
<clus scale="  473.286">  4  5 -1 -1</clus>
<clus scale="  300.000">  1  4  2 -1</clus>
</clustering>
</event>
<event>
 6    1  0.9678510E-012  0.3000000E+03  0.7818608E-02  0.1093470E+00
          1   -1    0    0  502    0  0.00000000000E+00  0.00000000000E+00  0.24849921356E+03  0.24849921356E+03  0.00000000000E+00 0.  1.
         13   -1    0    0    0    0 -0.00000000000E+00 -0.00000000000E+00 -0.27500000000E+03  0.27500000000E+03  0.00000000000E+00 0.  1.
    9000005    2    1    2  501    0 -0.15759212658E+02  0.32552601593E+02 -0.61556419802E+02  0.47313134598E+03  0.46771364431E+03 0.  0.
         13    1    3    3    0    0 -0.74076080570E+02  0.20152198450E+03 -0.16120014268E+03  0.26848437934E+03  0.00000000000E+00 0.  1.
          1    1    3    3  501    0  0.58316867911E+02 -0.16896938291E+03  0.99643722883E+02  0.20464696664E+03  0.00000000000E+00 0.  1.
         21    1    1    2  502  501  0.15759212658E+02 -0.32552601593E+02  0.35055633361E+02  0.50367867579E+02  0.00000000000E+00 0. -1.
<scales pt_clust_4="550.00000" pt_clust_5="550.00000" pt_clust_6="36.16662"></scales>
<mgrwt>
<rscale>  0 0.30000000E+03</rscale>
<asrwt>  1 0.36166623E+02</asrwt>
<pdfrwt beam="1">  1        1 0.90363350E+00 0.30000000E+03</pdfrwt>
<pdfrwt beam="2">0</pdfrwt>
<totfact> 0.97237277E-05</totfact>
</mgrwt>
<clustering>
<clus scale="   36.167">  1  6  2 -1</clus>
<clus scale="  467.714">  4  5 -1 -1</clus>
<clus scale="  300.000">  1  4  2 -1</clus>
</clustering>
</event>
<event>
 6    1  0.9678510E-012  0.3000000E+03  0.7818608E-02  0.1093470E+00
          1   -1    0    0  502    0  0.00000000000E+00  0.00000000000E+00  0.24040149868E+03  0.24040149868E+03  0.00000000000E+00 0.  1.
         13   -1    0    0    0    0 -0.00000000000E+00 -0.00000000000E+00 -0.27500000000E+03  0.27500000000E+03  0.00000000000E+00 0.  1.
    9000005    2    1    2  501    0 -0.35618613411E+02  0.20298747520E+01 -0.58088626225E+02  0.47268625572E+03  0.46774480418E+03 0.  0.
         13    1    3    3    0    0  0.18279879963E+03  0.11745371107E+03  0.63750509087E+01  0.21737390980E+03  0.00000000000E+00 0.  1.
          3    1    3    3  501    0 -0.21841741304E+03 -0.11542383631E+03 -0.64463677133E+02  0.25531234592E+03  0.00000000000E+00 0.  1.
         21    1    1    2  502  501  0.35618613411E+02 -0.20298747520E+01  0.23490124908E+02  0.42715242959E+02  0.00000000000E+00 0. -1.
<scales pt_clust_4="550.00000" pt_clust_5="550.00000" pt_clust_6="35.67641"></scales>
<mgrwt>
<rscale>  0 0.30000000E+03</rscale>
<asrwt>  1 0.35676407E+02</asrwt>
<pdfrwt beam="1">  1        1 0.87418727E+00 0.30000000E+03</pdfrwt>
<pdfrwt beam="2">0</pdfrwt>
<totfact> 0.22857446E-04</totfact>
</mgrwt>
<clustering>
<clus scale="   35.676">  1  6  2 -1</clus>
<clus scale="  467.745">  4  5 -1 -1</clus>
<clus scale="  300.000">  1  4  2 -1</clus>
</clustering>
</event>
<event>
 6    1  0.9678510E-012  0.3000000E+03  0.7818608E-02  0.1093470E+00
          1   -1    0    0  502    0  0.00000000000E+00  0.00000000000E+00  0.22997065561E+03  0.22997065561E+03  0.00000000000E+00 0.  1.
         13   -1    0    0    0    0 -0.00000000000E+00 -0.00000000000E+00 -0.27500000000E+03  0.27500000000E+03  0.00000000000E+00 0.  1.
    9000005    2    1    2  501    0 -0.20753649882E+02  0.24540555988E+02 -0.66919947404E+02  0.46608426504E+03  0.46013401296E+03 0.  0.
         13    1    3    3    0    0  0.49316618934E+01  0.10867448428E+03 -0.24466632361E+03  0.26776122708E+03  0.00000000000E+00 0.  1.
          3    1    3    3  501    0 -0.25685311775E+02 -0.84133928288E+02  0.17774637620E+03  0.19832303795E+03  0.00000000000E+00 0.  1.
         21    1    1    2  502  501  0.20753649882E+02 -0.24540555988E+02  0.21890603017E+02  0.38886390577E+02  0.00000000000E+00 0.  1.
<scales pt_clust_4="550.00000" pt_clust_5="550.00000" pt_clust_6="32.13958"></scales>
<mgrwt>
<rscale>  0 0.30000000E+03</rscale>
<asrwt>  1 0.32139584E+02</asrwt>
<pdfrwt beam="1">  1        1 0.83625693E+00 0.30000000E+03</pdfrwt>
<pdfrwt beam="2">0</pdfrwt>
<totfact> 0.53830997E-04</totfact>
</mgrwt>
<clustering>
<clus scale="   32.140">  1  6  2 -1</clus>
<clus scale="  460.134">  4  5 -1 -1</clus>
<clus scale="  300.000">  1  4  2 -1</clus>
</clustering>
</event>
<event>
 6    1  0.9678510E-012  0.3000000E+03  0.7818608E-02  0.1093470E+00
          1   -1    0    0  502    0  0.00000000000E+00  0.00000000000E+00  0.23045222199E+03  0.23045222199E+03  0.00000000000E+00 0.  1.
         13   -1    0    0    0    0 -0.00000000000E+00 -0.00000000000E+00 -0.27500000000E+03  0.27500000000E+03  0.00000000000E+00 0.  1.
    9000005    2    1    2  501    0 -0.25493121794E+02 -0.20974388042E+02 -0.69782132025E+02  0.46389988349E+03  0.45743166893E+03 0.  0.
         13    1    3    3    0    0 -0.39000546884E+02  0.55949015366E+02  0.18512948267E+03  0.19729232202E+03  0.00000000000E+00 0.  1.
          1    1    3    3  501    0  0.13507425090E+02 -0.76923403408E+02 -0.25491161469E+03  0.26660756146E+03  0.00000000000E+00 0.  1.
         21    1    1    2  502  501  0.25493121794E+02  0.20974388042E+02  0.25234354016E+02  0.41552338504E+02  0.00000000000E+00 0.  1.
<scales pt_clust_4="550.00000" pt_clust_5="550.00000" pt_clust_6="33.01249"></scales>
<mgrwt>
<rscale>  0 0.30000000E+03</rscale>
<asrwt>  1 0.33012486E+02</asrwt>
<pdfrwt beam="1">  1        1 0.83800808E+00 0.30000000E+03</pdfrwt>
<pdfrwt beam="2">0</pdfrwt>
<totfact> 0.52008676E-04</totfact>
</mgrwt>
<clustering>
<clus scale="   33.012">  1  6  2 -1</clus>
<clus scale="  457.432">  4  5 -1 -1</clus>
<clus scale="  300.000">  1  4  2 -1</clus>
</clustering>
</event>
<event>
 6    1  0.9678510E-012  0.3000000E+03  0.7818608E-02  0.1093470E+00
          1   -1    0    0  502    0  0.00000000000E+00  0.00000000000E+00  0.24434817380E+03  0.24434817380E+03  0.00000000000E+00 0.  1.
         13   -1    0    0    0    0 -0.00000000000E+00 -0.00000000000E+00 -0.27500000000E+03  0.27500000000E+03  0.00000000000E+00 0.  1.
    9000005    2    1    2  501    0  0.33198626419E+02 -0.13361115353E+02 -0.34974583501E+02  0.48330161460E+03  0.48070423441E+03 0.  0.
         13    1    3    3    0    0 -0.38572206363E+02  0.18728246463E+03  0.11462533459E+03  0.22293834123E+03  0.00000000000E+00 0.  1.
          1    1    3    3  501    0  0.71770832782E+02 -0.20064357998E+03 -0.14959991809E+03  0.26036327337E+03  0.00000000000E+00 0.  1.
         21    1    1    2  502  501 -0.33198626419E+02  0.13361115353E+02  0.43227572979E+01  0.36046559202E+02  0.00000000000E+00 0.  1.
<scales pt_clust_4="550.00000" pt_clust_5="550.00000" pt_clust_6="35.78642"></scales>
<mgrwt>
<rscale>  0 0.30000000E+03</rscale>
<asrwt>  1 0.35786425E+02</asrwt>
<pdfrwt beam="1">  1        1 0.88853881E+00 0.30000000E+03</pdfrwt>
<pdfrwt beam="2">0</pdfrwt>
<totfact> 0.15106587E-04</totfact>
</mgrwt>
<clustering>
<clus scale="   35.786">  1  6  2 -1</clus>
<clus scale="  480.704">  4  5 -1 -1</clus>
<clus scale="  300.000">  1  4  2 -1</clus>
</clustering>
</event>
<event>
 6    1  0.9678510E-012  0.3000000E+03  0.7818608E-02  0.1093470E+00
          1   -1    0    0  502    0  0.00000000000E+00  0.00000000000E+00  0.25104595260E+03  0.25104595260E+03  0.00000000000E+00 0.  1.
         13   -1    0    0    0    0 -0.00000000000E+00 -0.00000000000E+00 -0.27500000000E+03  0.27500000000E+03  0.00000000000E+00 0.  1.
    9000005    2    1    2  501    0  0.19875197865E+02 -0.35062929044E+02 -0.34132891549E+02  0.48447623584E+03  0.48158876267E+03 0.  0.
         13    1    3    3    0    0 -0.17364987334E+03 -0.24782141694E+02 -0.17276070511E+03  0.24620051642E+03  0.00000000000E+00 0.  1.
          3    1    3    3  501    0  0.19352507120E+03 -0.10280787350E+02  0.13862781356E+03  0.23827571942E+03  0.00000000000E+00 0.  1.
         21    1    1    2  502  501 -0.19875197865E+02  0.35062929044E+02  0.10178844151E+02  0.41569716761E+02  0.00000000000E+00 0.  1.
<scales pt_clust_4="550.00000" pt_clust_5="550.00000" pt_clust_6="40.30425"></scales>
<mgrwt>
<rscale>  0 0.30000000E+03</rscale>
<asrwt>  1 0.40304249E+02</asrwt>
<pdfrwt beam="1">  1        1 0.91289437E+00 0.30000000E+03</pdfrwt>
<pdfrwt beam="2">0</pdfrwt>
<totfact> 0.59323643E-05</totfact>
</mgrwt>
<clustering>
<clus scale="   40.304">  1  6  2 -1</clus>
<clus scale="  481.589">  4  5 -1 -1</clus>
<clus scale="  300.000">  1  4  2 -1</clus>
</clustering>
</event>
<event>
 6    1  0.9678510E-012  0.3000000E+03  0.7818608E-02  0.1093470E+00
          1   -1    0    0  502    0  0.00000000000E+00  0.00000000000E+00  0.24300662474E+03  0.24300662474E+03  0.00000000000E+00 0.  1.
         13   -1    0    0    0    0 -0.00000000000E+00 -0.00000000000E+00 -0.27500000000E+03  0.27500000000E+03  0.00000000000E+00 0.  1.
    9000005    2    1    2  501    0 -0.44926131260E+01 -0.39456579342E+02 -0.37399822455E+02  0.47792876430E+03  0.47480538308E+03 0.  0.
         13    1    3    3    0    0 -0.36473419048E+00 -0.20209611774E+03  0.13331438968E+03  0.24210679531E+03  0.00000000000E+00 0.  1.
          1    1    3    3  501    0 -0.41278789355E+01  0.16263953840E+03 -0.17071421214E+03  0.23582196900E+03  0.00000000000E+00 0.  1.
         21    1    1    2  502  501  0.44926131260E+01  0.39456579342E+02  0.54064471957E+01  0.40077860438E+02  0.00000000000E+00 0. -1.
<scales pt_clust_4="550.00000" pt_clust_5="550.00000" pt_clust_6="39.71153"></scales>
<mgrwt>
<rscale>  0 0.30000000E+03</rscale>
<asrwt>  1 0.39711525E+02</asrwt>
<pdfrwt beam="1">  1        1 0.88366045E+00 0.30000000E+03</pdfrwt>
<pdfrwt beam="2">0</pdfrwt>
<totfact> 0.17288896E-04</totfact>
</mgrwt>
<clustering>
<clus scale="   39.712">  1  6  2 -1</clus>
<clus scale="  474.805">  4  5 -1 -1</clus>
<clus scale="  300.000">  1  4  2 -1</clus>
</clustering>
</event>
<event>
 6    1  0.9678510E-012  0.3000000E+03  0.7818608E-02  0.1093470E+00
          1   -1    0    0  502    0  0.00000000000E+00  0.00000000000E+00  0.24154155004E+03  0.24154155004E+03  0.00000000000E+00 0.  1.
         13   -1    0    0    0    0 -0.00000000000E+00 -0.00000000000E+00 -0.27500000000E+03  0.27500000000E+03  0.00000000000E+00 0.  1.
    9000005    2    1    2  501    0  0.13584466369E+02  0.34463560399E+02 -0.50940019179E+02  0.47557961668E+03  0.47139029639E+03 0.  0.
         13    1    3    3    0    0 -0.93027782008E+01 -0.21857137141E+03 -0.22329669724E+02  0.21990588949E+03  0.00000000000E+00 0.  1.
          3    1    3    3  501    0  0.22887244570E+02  0.25303493181E+03 -0.28610349456E+02  0.25567372719E+03  0.00000000000E+00 0.  1.
         21    1    1    2  502  501 -0.13584466369E+02 -0.34463560399E+02  0.17481569219E+02  0.40961933356E+02  0.00000000000E+00 0.  1.
<scales pt_clust_4="550.00000" pt_clust_5="550.00000" pt_clust_6="37.04423"></scales>
<mgrwt>
<rscale>  0 0.30000000E+03</rscale>
<asrwt>  1 0.37044227E+02</asrwt>
<pdfrwt beam="1">  1        1 0.87833291E+00 0.30000000E+03</pdfrwt>
<pdfrwt beam="2">0</pdfrwt>
<totfact> 0.20449223E-04</totfact>
</mgrwt>
<clustering>
<clus scale="   37.044">  1  6  2 -1</clus>
<clus scale="  471.390">  4  5 -1 -1</clus>
<clus scale="  300.000">  1  4  2 -1</clus>
</clustering>
</event>
<event>
 6    1  0.9678510E-012  0.3000000E+03  0.7818608E-02  0.1093470E+00
          1   -1    0    0  502    0  0.00000000000E+00  0.00000000000E+00  0.22159334019E+03  0.22159334019E+03  0.00000000000E+00 0.  1.
         13   -1    0    0    0    0 -0.00000000000E+00 -0.00000000000E+00 -0.27500000000E+03  0.27500000000E+03  0.00000000000E+00 0.  1.
    9000005    2    1    2  501    0 -0.21716354579E+02 -0.22582082378E+02 -0.57056199826E+02  0.46505178597E+03  0.46047388980E+03 0.  0.
         13    1    3    3    0    0  0.53327758556E+02 -0.22406638613E+03 -0.90487478697E+02  0.24746227799E+03  0.00000000000E+00 0.  1.
          3    1    3    3  501    0 -0.75044113135E+02  0.20148430375E+03  0.33431278871E+02  0.21758950798E+03  0.00000000000E+00 0.  1.
         21    1    1    2  502  501  0.21716354579E+02  0.22582082378E+02  0.36495400195E+01  0.31541554228E+02  0.00000000000E+00 0. -1.
<scales pt_clust_4="550.00000" pt_clust_5="550.00000" pt_clust_6="31.32971"></scales>
<mgrwt>
<rscale>  0 0.30000000E+03</rscale>
<asrwt>  1 0.31329706E+02</asrwt>
<pdfrwt beam="1">  1        1 0.80579396E+00 0.30000000E+03</pdfrwt>
<pdfrwt beam="2">0</pdfrwt>
<totfact> 0.95965823E-04</totfact>
</mgrwt>
<clustering>
<clus scale="   31.330">  1  6  2 -1</clus>
<clus scale="  460.474">  4  5 -1 -1</clus>
<clus scale="  300.000">  1  4  2 -1</clus>
</clustering>
</event>
<event>
 6    1  0.9678510E-012  0.3000000E+03  0.7818608E-02  0.1093470E+00
          1   -1    0    0  502    0  0.00000000000E+00  0.00000000000E+00  0.25009849174E+03  0.25009849174E+03  0.00000000000E+00 0.  1.
         13   -1    0    0    0    0 -0.00000000000E+00 -0.00000000000E+00 -0.27500000000E+03  0.27500000000E+03  0.00000000000E+00 0.  1.
    9000005    2    1    2  501    0 -0.32114460503E+02 -0.23008169146E+02 -0.51743506177E+02  0.47733650609E+03  0.47287634239E+03 0.  0.
         13    1    3    3    0    0 -0.63768160393E+02  0.52576827157E+02 -0.24973575771E+03  0.26305636224E+03  0.00000000000E+00 0.  1.
          3    1    3    3  501    0  0.31653699890E+02 -0.75584996302E+02  0.19799225153E+03  0.21428014386E+03  0.00000000000E+00 0.  1.
         21    1    1    2  502  501  0.32114460503E+02  0.23008169146E+02  0.26841997919E+02  0.47761985649E+02  0.00000000000E+00 0.  1.
<scales pt_clust_4="550.00000" pt_clust_5="550.00000" pt_clust_6="39.50588"></scales>
<mgrwt>
<rscale>  0 0.30000000E+03</rscale>
<asrwt>  1 0.39505878E+02</asrwt>
<pdfrwt beam="1">  1        1 0.90944906E+00 0.30000000E+03</pdfrwt>
<pdfrwt beam="2">0</pdfrwt>
<totfact> 0.72449590E-05</totfact>
</mgrwt>
<clustering>
<clus scale="   39.506">  1  6  2 -1</clus>
<clus scale="  472.876">  4  5 -1 -1</clus>
<clus scale="  300.000">  1  4  2 -1</clus>
</clustering>
</event>
<event>
 6    1  0.9678510E-012  0.3000000E+03  0.7818608E-02  0.1093470E+00
          1   -1    0    0  502    0  0.00000000000E+00  0.00000000000E+00  0.23494430288E+03  0.23494430288E+03  0.00000000000E+00 0.  1.
         13   -1    0    0    0    0 -0.00000000000E+00 -0.00000000000E+00 -0.27500000000E+03  0.27500000000E+03  0.00000000000E+00 0.  1.
    9000005    2    1    2  501    0  0.45314717841E+02  0.95082021136E+01 -0.50198985714E+02  0.46254476846E+03  0.45747556776E+03 0.  0.
         13    1    3    3    0    0  0.20813522500E+03 -0.11621880174E+03 -0.86617698916E+02  0.25363301742E+03  0.00000000000E+00 0.  1.
          3    1    3    3  501    0 -0.16282050715E+03  0.12572700385E+03  0.36418713201E+02  0.20891175103E+03  0.00000000000E+00 0.  1.
         21    1    1    2  502  501 -0.45314717841E+02 -0.95082021136E+01  0.10143288599E+02  0.47399534429E+02  0.00000000000E+00 0.  1.
<scales pt_clust_4="550.00000" pt_clust_5="550.00000" pt_clust_6="46.30151"></scales>
<mgrwt>
<rscale>  0 0.30000000E+03</rscale>
<asrwt>  1 0.46301507E+02</asrwt>
<pdfrwt beam="1">  1        1 0.85434292E+00 0.30000000E+03</pdfrwt>
<pdfrwt beam="2">0</pdfrwt>
<totfact> 0.35141268E-04</totfact>
</mgrwt>
<clustering>
<clus scale="   46.302">  1  6  2 -1</clus>
<clus scale="  457.476">  4  5 -1 -1</clus>
<clus scale="  300.000">  1  4  2 -1</clus>
</clustering>
</event>
<event>
 6    1  0.9678510E-012  0.3000000E+03  0.7818608E-02  0.1093470E+00
          1   -1    0    0  502    0  0.00000000000E+00  0.00000000000E+00  0.22992376402E+03  0.22992376402E+03  0.00000000000E+00 0.  1.
         13   -1    0    0    0    0 -0.00000000000E+00 -0.00000000000E+00 -0.27500000000E+03  0.27500000000E+03  0.00000000000E+00 0.  1.
    9000005    2    1    2  501    0  0.39089164121E+01  0.30111656937E+02 -0.54597907356E+02  0.47310154322E+03  0.46895857727E+03 0.  0.
         13    1    3    3    0    0  0.43745098669E+02  0.24504748961E+03 -0.51122238721E+01  0.24897397586E+03  0.00000000000E+00 0.  1.
          1    1    3    3  501    0 -0.39836182257E+02 -0.21493583267E+03 -0.49485683484E+02  0.22412756736E+03  0.00000000000E+00 0.  1.
         21    1    1    2  502  501 -0.39089164121E+01 -0.30111656937E+02  0.95216713803E+01  0.31822220804E+02  0.00000000000E+00 0.  1.
<scales pt_clust_4="550.00000" pt_clust_5="550.00000" pt_clust_6="30.36431"></scales>
<mgrwt>
<rscale>  0 0.30000000E+03</rscale>
<asrwt>  1 0.30364313E+02</asrwt>
<pdfrwt beam="1">  1        1 0.83608641E+00 0.30000000E+03</pdfrwt>
<pdfrwt beam="2">0</pdfrwt>
<totfact> 0.54573981E-04</totfact>
</mgrwt>
<clustering>
<clus scale="   30.364">  1  6  2 -1</clus>
<clus scale="  468.959">  4  5 -1 -1</clus>
<clus scale="  300.000">  1  4  2 -1</clus>
</clustering>
</event>
<event>
 6    1  0.9678510E-012  0.3000000E+03  0.7818608E-02  0.1093470E+00
          1   -1    0    0  502    0  0.00000000000E+00  0.00000000000E+00  0.22369534895E+03  0.22369534895E+03  0.00000000000E+00 0.  1.
         13   -1    0    0    0    0 -0.00000000000E+00 -0.00000000000E+00 -0.27500000000E+03  0.27500000000E+03  0.00000000000E+00 0.  1.
    9000005    2    1    2  501    0  0.30845827593E+02 -0.58793241914E+01 -0.50524993795E+02  0.46728453237E+03  0.46348249985E+03 0.  0.
         13    1    3    3    0    0 -0.16323193844E+03 -0.41900503818E+02  0.11963710190E+03  0.20667209318E+03  0.00000000000E+00 0.  1.
          3    1    3    3  501    0  0.19407776603E+03  0.36021179627E+02 -0.17016209570E+03  0.26061243919E+03  0.00000000000E+00 0.  1.
         21    1    1    2  502  501 -0.30845827593E+02  0.58793241914E+01 -0.77965725271E+00  0.31410816581E+02  0.00000000000E+00 0.  1.
<scales pt_clust_4="550.00000" pt_clust_5="550.00000" pt_clust_6="31.40114"></scales>
<mgrwt>
<rscale>  0 0.30000000E+03</rscale>
<asrwt>  1 0.31401139E+02</asrwt>
<pdfrwt beam="1">  1        1 0.81343763E+00 0.30000000E+03</pdfrwt>
<pdfrwt beam="2">0</pdfrwt>
<totfact> 0.83634669E-04</totfact>
</mgrwt>
<clustering>
<clus scale="   31.401">  1  6  2 -1</clus>
<clus scale="  463.482">  4  5 -1 -1</clus>
<clus scale="  300.000">  1  4  2 -1</clus>
</clustering>
</event>
<event>
 6    1  0.9678510E-012  0.3000000E+03  0.7818608E-02  0.1093470E+00
          1   -1    0    0  502    0  0.00000000000E+00  0.00000000000E+00  0.23956959193E+03  0.23956959193E+03  0.00000000000E+00 0.  1.
         13   -1    0    0    0    0 -0.00000000000E+00 -0.00000000000E+00 -0.27500000000E+03  0.27500000000E+03  0.00000000000E+00 0.  1.
    9000005    2    1    2  501    0  0.82042481462E+01 -0.43084196279E+02 -0.48558222190E+02  0.46878862252E+03  0.46419964886E+03 0.  0.
         13    1    3    3    0    0 -0.19176050218E+03 -0.36844352905E+02 -0.14834067616E+03  0.24522347510E+03  0.00000000000E+00 0.  1.
          3    1    3    3  501    0  0.19996475033E+03 -0.62398433743E+01  0.99782453972E+02  0.22356514742E+03  0.00000000000E+00 0.  1.
         21    1    1    2  502  501 -0.82042481462E+01  0.43084196279E+02  0.13127814120E+02  0.45780969411E+02  0.00000000000E+00 0.  1.
<scales pt_clust_4="550.00000" pt_clust_5="550.00000" pt_clust_6="43.85838"></scales>
<mgrwt>
<rscale>  0 0.30000000E+03</rscale>
<asrwt>  1 0.43858382E+02</asrwt>
<pdfrwt beam="1">  1        1 0.87116215E+00 0.30000000E+03</pdfrwt>
<pdfrwt beam="2">0</pdfrwt>
<totfact> 0.23644699E-04</totfact>
</mgrwt>
<clustering>
<clus scale="   43.858">  1  6  2 -1</clus>
<clus scale="  464.200">  4  5 -1 -1</clus>
<clus scale="  300.000">  1  4  2 -1</clus>
</clustering>
</event>
<event>
 6    1  0.9678510E-012  0.3000000E+03  0.7818608E-02  0.1093470E+00
          1   -1    0    0  502    0  0.00000000000E+00  0.00000000000E+00  0.22999515041E+03  0.22999515041E+03  0.00000000000E+00 0.  1.
         13   -1    0    0    0    0 -0.00000000000E+00 -0.00000000000E+00 -0.27500000000E+03  0.27500000000E+03  0.00000000000E+00 0.  1.
    9000005    2    1    2  501    0 -0.14210834431E+02  0.26708640128E+02 -0.64693781270E+02  0.46889870594E+03  0.46342789280E+03 0.  0.
         13    1    3    3    0    0 -0.75827818143E+02  0.54048717913E+02  0.18669475380E+03  0.20862898411E+03  0.00000000000E+00 0.  1.
          3    1    3    3  501    0  0.61616983712E+02 -0.27340077785E+02 -0.25138853507E+03  0.26026972183E+03  0.00000000000E+00 0.  1.
         21    1    1    2  502  501  0.14210834431E+02 -0.26708640128E+02  0.19688931681E+02  0.36096444471E+02  0.00000000000E+00 0.  1.
<scales pt_clust_4="550.00000" pt_clust_5="550.00000" pt_clust_6="30.25391"></scales>
<mgrwt>
<rscale>  0 0.30000000E+03</rscale>
<asrwt>  1 0.30253913E+02</asrwt>
<pdfrwt beam="1">  1        1 0.83634600E+00 0.30000000E+03</pdfrwt>
<pdfrwt beam="2">0</pdfrwt>
<totfact> 0.54375955E-04</totfact>
</mgrwt>
<clustering>
<clus scale="   30.254">  1  6  2 -1</clus>
<clus scale="  463.428">  4  5 -1 -1</clus>
<clus scale="  300.000">  1  4  2 -1</clus>
</clustering>
</event>
<event>
 6    1  0.9678510E-012  0.3000000E+03  0.7818608E-02  0.1093470E+00
          1   -1    0    0  502    0  0.00000000000E+00  0.00000000000E+00  0.22636480291E+03  0.22636480291E+03  0.00000000000E+00 0.  1.
         13   -1    0    0    0    0 -0.00000000000E+00 -0.00000000000E+00 -0.27500000000E+03  0.27500000000E+03  0.00000000000E+00 0.  1.
    9000005    2    1    2  501    0  0.32328134250E+02  0.12566840685E+01 -0.45761224011E+02  0.46888485155E+03  0.46552360506E+03 0.  0.
         13    1    3    3    0    0 -0.12922583753E+03  0.49944221396E+02 -0.19797936110E+03  0.24163933818E+03  0.00000000000E+00 0.  1.
          3    1    3    3  501    0  0.16155397178E+03 -0.48687537328E+02  0.15221813709E+03  0.22724551337E+03  0.00000000000E+00 0.  1.
         21    1    1    2  502  501 -0.32328134250E+02 -0.12566840685E+01 -0.28739730806E+01  0.32479951358E+02  0.00000000000E+00 0. -1.
<scales pt_clust_4="550.00000" pt_clust_5="550.00000" pt_clust_6="32.35255"></scales>
<mgrwt>
<rscale>  0 0.30000000E+03</rscale>
<asrwt>  1 0.32352550E+02</asrwt>
<pdfrwt beam="1">  1        1 0.82314474E+00 0.30000000E+03</pdfrwt>
<pdfrwt beam="2">0</pdfrwt>
<totfact> 0.68870748E-04</totfact>
</mgrwt>
<clustering>
<clus scale="   32.353">  1  6  2 -1</clus>
<clus scale="  465.524">  4  5 -1 -1</clus>
<clus scale="  300.000">  1  4  2 -1</clus>
</clustering>
</event>
<event>
 6    1  0.9678510E-012  0.3000000E+03  0.7818608E-02  0.1093470E+00
          1   -1    0    0  502    0  0.00000000000E+00  0.00000000000E+00  0.23476149003E+03  0.23476149003E+03  0.00000000000E+00 0.  1.
         13   -1    0    0    0    0 -0.00000000000E+00 -0.00000000000E+00 -0.27500000000E+03  0.27500000000E+03  0.00000000000E+00 0.  1.
    9000005    2    1    2  501    0  0.35249384293E+02  0.23844745466E+02 -0.49035370740E+02  0.46630489400E+03  0.46176259658E+03 0.  0.
         13    1    3    3    0    0  0.23289868404E+03 -0.46457987482E+02 -0.87374147446E+02  0.25305015959E+03  0.00000000000E+00 0.  1.
          1    1    3    3  501    0 -0.19764929974E+03  0.70302732948E+02  0.38338776706E+02  0.21325473441E+03  0.00000000000E+00 0.  1.
         21    1    1    2  502  501 -0.35249384293E+02 -0.23844745466E+02  0.87968607715E+01  0.43456596033E+02  0.00000000000E+00 0.  1.
<scales pt_clust_4="550.00000" pt_clust_5="550.00000" pt_clust_6="42.55691"></scales>
<mgrwt>
<rscale>  0 0.30000000E+03</rscale>
<asrwt>  1 0.42556915E+02</asrwt>
<pdfrwt beam="1">  1        1 0.85367815E+00 0.30000000E+03</pdfrwt>
<pdfrwt beam="2">0</pdfrwt>
<totfact> 0.36211312E-04</totfact>
</mgrwt>
<clustering>
<clus scale="   42.557">  1  6  2 -1</clus>
<clus scale="  461.763">  4  5 -1 -1</clus>
<clus scale="  300.000">  1  4  2 -1</clus>
</clustering>
</event>
<event>
 6    1  0.9678510E-012  0.3000000E+03  0.7818608E-02  0.1093470E+00
          1   -1    0    0  502    0  0.00000000000E+00  0.00000000000E+00  0.22333302351E+03  0.22333302351E+03  0.00000000000E+00 0.  1.
         13   -1    0    0    0    0 -0.00000000000E+00 -0.00000000000E+00 -0.27500000000E+03  0.27500000000E+03  0.00000000000E+00 0.  1.
    9000005    2    1    2  501    0 -0.27113504304E+02  0.21970811913E+02 -0.54322779187E+02  0.46333428096E+03  0.45881350556E+03 0.  0.
         13    1    3    3    0    0  0.12542015282E+03 -0.14353208879E+03  0.73744406791E+02  0.20437688906E+03  0.00000000000E+00 0.  1.
          3    1    3    3  501    0 -0.15253365713E+03  0.16550290071E+03 -0.12806718598E+03  0.25895739191E+03  0.00000000000E+00 0.  1.
         21    1    1    2  502  501  0.27113504304E+02 -0.21970811913E+02  0.26558026953E+01  0.34998742545E+02  0.00000000000E+00 0.  1.
<scales pt_clust_4="550.00000" pt_clust_5="550.00000" pt_clust_6="34.89783"></scales>
<mgrwt>
<rscale>  0 0.30000000E+03</rscale>
<asrwt>  1 0.34897832E+02</asrwt>
<pdfrwt beam="1">  1        1 0.81212009E+00 0.30000000E+03</pdfrwt>
<pdfrwt beam="2">0</pdfrwt>
<totfact> 0.83981876E-04</totfact>
</mgrwt>
<clustering>
<clus scale="   34.898">  1  6  2 -1</clus>
<clus scale="  458.814">  4  5 -1 -1</clus>
<clus scale="  300.000">  1  4  2 -1</clus>
</clustering>
</event>
<event>
 6    1  0.9678510E-012  0.3000000E+03  0.7818608E-02  0.1093470E+00
          1   -1    0    0  502    0  0.00000000000E+00  0.00000000000E+00  0.22701104547E+03  0.22701104547E+03  0.00000000000E+00 0.  1.
         13   -1    0    0    0    0 -0.00000000000E+00 -0.00000000000E+00 -0.27500000000E+03  0.27500000000E+03  0.00000000000E+00 0.  1.
    9000005    2    1    2  501    0 -0.18125699458E+02 -0.27144744449E+02 -0.61543217993E+02  0.46666849053E+03  0.46143963228E+03 0.  0.
         13    1    3    3    0    0  0.17911645860E+03  0.97096919534E+02  0.47668542437E+02  0.20924341677E+03  0.00000000000E+00 0.  1.
          3    1    3    3  501    0 -0.19724215805E+03 -0.12424166398E+03 -0.10921176043E+03  0.25742507376E+03  0.00000000000E+00 0.  1.
         21    1    1    2  502  501  0.18125699458E+02  0.27144744449E+02  0.13554263466E+02  0.35342554946E+02  0.00000000000E+00 0.  1.
<scales pt_clust_4="550.00000" pt_clust_5="550.00000" pt_clust_6="32.64013"></scales>
<mgrwt>
<rscale>  0 0.30000000E+03</rscale>
<asrwt>  1 0.32640131E+02</asrwt>
<pdfrwt beam="1">  1        1 0.82549471E+00 0.30000000E+03</pdfrwt>
<pdfrwt beam="2">0</pdfrwt>
<totfact> 0.65512275E-04</totfact>
</mgrwt>
<clustering>
<clus scale="   32.640">  1  6  2 -1</clus>
<clus scale="  461.440">  4  5 -1 -1</clus>
<clus scale="  300.000">  1  4  2 -1</clus>
</clustering>
</event>
<event>
 6    1  0.9678510E-012  0.3000000E+03  0.7818608E-02  0.1093470E+00
          1   -1    0    0  502    0  0.00000000000E+00  0.00000000000E+00  0.24858740945E+03  0.24858740945E+03  0.00000000000E+00 0.  1.
         13   -1    0    0    0    0 -0.00000000000E+00 -0.00000000000E+00 -0.27500000000E+03  0.27500000000E+03  0.00000000000E+00 0.  1.
    9000005    2    1    2  501    0  0.19613350982E+02 -0.57227615636E+02 -0.19774073368E+02  0.46272893890E+03  0.45833107399E+03 0.  0.
         13    1    3    3    0    0 -0.99510492261E+02 -0.22900936941E+03  0.17824477854E+02  0.25033046430E+03  0.00000000000E+00 0.  1.
          3    1    3    3  501    0  0.11912384324E+03  0.17178175377E+03 -0.37598551223E+02  0.21239847460E+03  0.00000000000E+00 0.  1.
         21    1    1    2  502  501 -0.19613350982E+02  0.57227615636E+02 -0.66385171790E+01  0.60858470556E+02  0.00000000000E+00 0.  1.
<scales pt_clust_4="550.00000" pt_clust_5="550.00000" pt_clust_6="60.49535"></scales>
<mgrwt>
<rscale>  0 0.30000000E+03</rscale>
<asrwt>  1 0.60495348E+02</asrwt>
<pdfrwt beam="1">  1        1 0.90395422E+00 0.30000000E+03</pdfrwt>
<pdfrwt beam="2">0</pdfrwt>
<totfact> 0.87630639E-05</totfact>
</mgrwt>
<clustering>
<clus scale="   60.495">  1  6  2 -1</clus>
<clus scale="  458.331">  4  5 -1 -1</clus>
<clus scale="  300.000">  1  4  2 -1</clus>
</clustering>
</event>
<event>
 6    1  0.9678510E-012  0.3000000E+03  0.7818608E-02  0.1093470E+00
          1   -1    0    0  502    0  0.00000000000E+00  0.00000000000E+00  0.23964761022E+03  0.23964761022E+03  0.00000000000E+00 0.  1.
         13   -1    0    0    0    0 -0.00000000000E+00 -0.00000000000E+00 -0.27500000000E+03  0.27500000000E+03  0.00000000000E+00 0.  1.
    9000005    2    1    2  501    0  0.22018700424E+02 -0.22261285584E+02 -0.74046205942E+02  0.46487212013E+03  0.45786773140E+03 0.  0.
         13    1    3    3    0    0 -0.12736490802E+03  0.99948747351E+02 -0.18211244318E+03  0.24367296496E+03  0.00000000000E+00 0.  1.
          1    1    3    3  501    0  0.14938360844E+03 -0.12221003294E+03  0.10806623723E+03  0.22119915518E+03  0.00000000000E+00 0.  1.
         21    1    1    2  502  501 -0.22018700424E+02  0.22261285584E+02  0.38693816164E+02  0.49775490088E+02  0.00000000000E+00 0. -1.
<scales pt_clust_4="550.00000" pt_clust_5="550.00000" pt_clust_6="31.31115"></scales>
<mgrwt>
<rscale>  0 0.30000000E+03</rscale>
<asrwt>  1 0.31311148E+02</asrwt>
<pdfrwt beam="1">  1        1 0.87144586E+00 0.30000000E+03</pdfrwt>
<pdfrwt beam="2">0</pdfrwt>
<totfact> 0.24999421E-04</totfact>
</mgrwt>
<clustering>
<clus scale="   31.311">  1  6  2 -1</clus>
<clus scale="  457.868">  4  5 -1 -1</clus>
<clus scale="  300.000">  1  4  2 -1</clus>
</clustering>
</event>
<event>
 6    1  0.9678510E-012  0.3000000E+03  0.7818608E-02  0.1093470E+00
          1   -1    0    0  502    0  0.00000000000E+00  0.00000000000E+00  0.23339949320E+03  0.23339949320E+03  0.00000000000E+00 0.  1.
         13   -1    0    0    0    0 -0.00000000000E+00 -0.00000000000E+00 -0.27500000000E+03  0.27500000000E+03  0.00000000000E+00 0.  1.
    9000005    2    1    2  501    0  0.19043405690E+02  0.27970845265E+02 -0.59522268176E+02  0.47010838436E+03  0.46509566022E+03 0.  0.
         13    1    3    3    0    0  0.12604913528E+03  0.10304115516E+03  0.15116717554E+03  0.22216520682E+03  0.00000000000E+00 0.  1.
          1    1    3    3  501    0 -0.10700572959E+03 -0.75070309898E+02 -0.21068944372E+03  0.24794317754E+03  0.00000000000E+00 0.  1.
         21    1    1    2  502  501 -0.19043405690E+02 -0.27970845265E+02  0.17921761374E+02  0.38291108836E+02  0.00000000000E+00 0. -1.
<scales pt_clust_4="550.00000" pt_clust_5="550.00000" pt_clust_6="33.83814"></scales>
<mgrwt>
<rscale>  0 0.30000000E+03</rscale>
<asrwt>  1 0.33838137E+02</asrwt>
<pdfrwt beam="1">  1        1 0.84872543E+00 0.30000000E+03</pdfrwt>
<pdfrwt beam="2">0</pdfrwt>
<totfact> 0.42092066E-04</totfact>
</mgrwt>
<clustering>
<clus scale="   33.838">  1  6  2 -1</clus>
<clus scale="  465.096">  4  5 -1 -1</clus>
<clus scale="  300.000">  1  4  2 -1</clus>
</clustering>
</event>
<event>
 6    1  0.9678510E-012  0.3000000E+03  0.7818608E-02  0.1093470E+00
          1   -1    0    0  502    0  0.00000000000E+00  0.00000000000E+00  0.23115779785E+03  0.23115779785E+03  0.00000000000E+00 0.  1.
         13   -1    0    0    0    0 -0.00000000000E+00 -0.00000000000E+00 -0.27500000000E+03  0.27500000000E+03  0.00000000000E+00 0.  1.
    9000005    2    1    2  501    0 -0.16929170856E+02  0.26863520219E+02 -0.71404038595E+02  0.46411139048E+03  0.45748508227E+03 0.  0.
         13    1    3    3    0    0  0.20530104787E+03  0.93997402662E+02 -0.22952619250E+02  0.22696002885E+03  0.00000000000E+00 0.  1.
          3    1    3    3  501    0 -0.22223021873E+03 -0.67133882443E+02 -0.48451419345E+02  0.23715136163E+03  0.00000000000E+00 0.  1.
         21    1    1    2  502  501  0.16929170856E+02 -0.26863520219E+02  0.27561836442E+02  0.42046407367E+02  0.00000000000E+00 0. -1.
<scales pt_clust_4="550.00000" pt_clust_5="550.00000" pt_clust_6="31.75288"></scales>
<mgrwt>
<rscale>  0 0.30000000E+03</rscale>
<asrwt>  1 0.31752882E+02</asrwt>
<pdfrwt beam="1">  1        1 0.84057381E+00 0.30000000E+03</pdfrwt>
<pdfrwt beam="2">0</pdfrwt>
<totfact> 0.50110721E-04</totfact>
</mgrwt>
<clustering>
<clus scale="   31.753">  1  6  2 -1</clus>
<clus scale="  457.485">  4  5 -1 -1</clus>
<clus scale="  300.000">  1  4  2 -1</clus>
</clustering>
</event>
<event>
 6    1  0.9678510E-012  0.3000000E+03  0.7818608E-02  0.1093470E+00
          1   -1    0    0  502    0  0.00000000000E+00  0.00000000000E+00  0.22602754136E+03  0.22602754136E+03  0.00000000000E+00 0.  1.
         13   -1    0    0    0    0 -0.00000000000E+00 -0.00000000000E+00 -0.27500000000E+03  0.27500000000E+03  0.00000000000E+00 0.  1.
    9000005    2    1    2  501    0 -0.30031924584E+02  0.10730267529E+02 -0.65806691697E+02  0.46496583677E+03  0.45917932614E+03 0.  0.
         13    1    3    3    0    0  0.21124025109E+03  0.15938987201E+02  0.98109397729E+01  0.21206779466E+03  0.00000000000E+00 0.  1.
          3    1    3    3  501    0 -0.24127217567E+03 -0.52087196727E+01 -0.75617631470E+02  0.25289804211E+03  0.00000000000E+00 0.  1.
         21    1    1    2  502  501  0.30031924584E+02 -0.10730267529E+02  0.16834233062E+02  0.36061704594E+02  0.00000000000E+00 0.  1.
<scales pt_clust_4="550.00000" pt_clust_5="550.00000" pt_clust_6="31.89130"></scales>
<mgrwt>
<rscale>  0 0.30000000E+03</rscale>
<asrwt>  1 0.31891302E+02</asrwt>
<pdfrwt beam="1">  1        1 0.82191833E+00 0.30000000E+03</pdfrwt>
<pdfrwt beam="2">0</pdfrwt>
<totfact> 0.70814432E-04</totfact>
</mgrwt>
<clustering>
<clus scale="   31.891">  1  6  2 -1</clus>
<clus scale="  459.179">  4  5 -1 -1</clus>
<clus scale="  300.000">  1  4  2 -1</clus>
</clustering>
</event>
<event>
 6    1  0.9678510E-012  0.3000000E+03  0.7818608E-02  0.1093470E+00
          1   -1    0    0  502    0  0.00000000000E+00  0.00000000000E+00  0.24847309138E+03  0.24847309138E+03  0.00000000000E+00 0.  1.
         13   -1    0    0    0    0 -0.00000000000E+00 -0.00000000000E+00 -0.27500000000E+03  0.27500000000E+03  0.00000000000E+00 0.  1.
    9000005    2    1    2  501    0 -0.22695737308E+02 -0.37522198327E+02 -0.61976538988E+02  0.46708436775E+03  0.46087276265E+03 0.  0.
         13    1    3    3    0    0  0.95889685356E+02 -0.17445815293E+03 -0.16511188271E+03  0.25863567561E+03  0.00000000000E+00 0.  1.
          3    1    3    3  501    0 -0.11858542266E+03  0.13693595461E+03  0.10313534372E+03  0.20844869215E+03  0.00000000000E+00 0.  1.
         21    1    1    2  502  501  0.22695737308E+02  0.37522198327E+02  0.35449630369E+02  0.56388723629E+02  0.00000000000E+00 0. -1.
<scales pt_clust_4="550.00000" pt_clust_5="550.00000" pt_clust_6="43.85216"></scales>
<mgrwt>
<rscale>  0 0.30000000E+03</rscale>
<asrwt>  1 0.43852159E+02</asrwt>
<pdfrwt beam="1">  1        1 0.90353851E+00 0.30000000E+03</pdfrwt>
<pdfrwt beam="2">0</pdfrwt>
<totfact> 0.94221893E-05</totfact>
</mgrwt>
<clustering>
<clus scale="   43.852">  1  6  2 -1</clus>
<clus scale="  460.873">  4  5 -1 -1</clus>
<clus scale="  300.000">  1  4  2 -1</clus>
</clustering>
</event>
<event>
 6    1  0.9678510E-012  0.3000000E+03  0.7818608E-02  0.1093470E+00
          1   -1    0    0  502    0  0.00000000000E+00  0.00000000000E+00  0.24941506913E+03  0.24941506913E+03  0.00000000000E+00 0.  1.
         13   -1    0    0    0    0 -0.00000000000E+00 -0.00000000000E+00 -0.27500000000E+03  0.27500000000E+03  0.00000000000E+00 0.  1.
    9000005    2    1    2  501    0  0.34374790032E+02 -0.33321386217E+02 -0.54958210126E+02  0.46824808146E+03  0.46254072249E+03 0.  0.
         13    1    3    3    0    0 -0.96482242194E+02  0.11169018120E+03  0.13189637671E+03  0.19793982375E+03  0.00000000000E+00 0.  1.
          1    1    3    3  501    0  0.13085703223E+03 -0.14501156742E+03 -0.18685458684E+03  0.27030825772E+03  0.00000000000E+00 0.  1.
         21    1    1    2  502  501 -0.34374790032E+02  0.33321386217E+02  0.29373279255E+02  0.56166987665E+02  0.00000000000E+00 0.  1.
<scales pt_clust_4="550.00000" pt_clust_5="550.00000" pt_clust_6="47.87422"></scales>
<mgrwt>
<rscale>  0 0.30000000E+03</rscale>
<asrwt>  1 0.47874220E+02</asrwt>
<pdfrwt beam="1">  1        1 0.90696389E+00 0.30000000E+03</pdfrwt>
<pdfrwt beam="2">0</pdfrwt>
<totfact> 0.79723033E-05</totfact>
</mgrwt>
<clustering>
<clus scale="   47.874">  1  6  2 -1</clus>
<clus scale="  462.541">  4  5 -1 -1</clus>
<clus scale="  300.000">  1  4  2 -1</clus>
</clustering>
</event>
<event>
 6    1  0.9678510E-012  0.3000000E+03  0.7818608E-02  0.1093470E+00
          1   -1    0    0  502    0  0.00000000000E+00  0.00000000000E+00  0.26862090076E+03  0.26862090076E+03  0.00000000000E+00 0.  1.
         13   -1    0    0    0    0 -0.00000000000E+00 -0.00000000000E+00 -0.27500000000E+03  0.27500000000E+03  0.00000000000E+00 0.  1.
    9000005    2    1    2  501    0  0.36150029671E+02  0.33565426677E+01 -0.51494971938E+02  0.48571120388E+03  0.48160725743E+03 0.  0.
         13    1    3    3    0    0  0.51617545818E+02  0.17649710083E+03  0.13698920694E+03  0.22930686962E+03  0.00000000000E+00 0.  1.
          1    1    3    3  501    0 -0.15467516147E+02 -0.17314055817E+03 -0.18848417888E+03  0.25640433425E+03  0.00000000000E+00 0.  1.
         21    1    1    2  502  501 -0.36150029671E+02 -0.33565426677E+01  0.45115872701E+02  0.57909696886E+02  0.00000000000E+00 0. -1.
<scales pt_clust_4="550.00000" pt_clust_5="550.00000" pt_clust_6="36.30552"></scales>
<mgrwt>
<rscale>  0 0.30000000E+03</rscale>
<asrwt>  1 0.36305523E+02</asrwt>
<pdfrwt beam="1">  1        1 0.97680328E+00 0.30000000E+03</pdfrwt>
<pdfrwt beam="2">0</pdfrwt>
<totfact> 0.36538294E-06</totfact>
</mgrwt>
<clustering>
<clus scale="   36.306">  1  6  2 -1</clus>
<clus scale="  481.607">  4  5 -1 -1</clus>
<clus scale="  300.000">  1  4  2 -1</clus>
</clustering>
</event>
<event>
 6    1  0.9678510E-012  0.3000000E+03  0.7818608E-02  0.1093470E+00
          1   -1    0    0  502    0  0.00000000000E+00  0.00000000000E+00  0.23666502623E+03  0.23666502623E+03  0.00000000000E+00 0.  1.
         13   -1    0    0    0    0 -0.00000000000E+00 -0.00000000000E+00 -0.27500000000E+03  0.27500000000E+03  0.00000000000E+00 0.  1.
    9000005    2    1    2  501    0  0.41405486325E+01 -0.32562660881E+02 -0.63223228281E+02  0.47047162580E+03  0.46504720520E+03 0.  0.
         13    1    3    3    0    0  0.15170255444E+02 -0.19161164179E+03  0.12077801908E+03  0.22700768228E+03  0.00000000000E+00 0.  1.
          1    1    3    3  501    0 -0.11029706811E+02  0.15904898091E+03 -0.18400124736E+03  0.24346394352E+03  0.00000000000E+00 0.  1.
         21    1    1    2  502  501 -0.41405486325E+01  0.32562660881E+02  0.24888254513E+02  0.41193400434E+02  0.00000000000E+00 0.  1.
<scales pt_clust_4="550.00000" pt_clust_5="550.00000" pt_clust_6="32.82485"></scales>
<mgrwt>
<rscale>  0 0.30000000E+03</rscale>
<asrwt>  1 0.32824854E+02</asrwt>
<pdfrwt beam="1">  1        1 0.86060010E+00 0.30000000E+03</pdfrwt>
<pdfrwt beam="2">0</pdfrwt>
<totfact> 0.32258903E-04</totfact>
</mgrwt>
<clustering>
<clus scale="   32.825">  1  6  2 -1</clus>
<clus scale="  465.047">  4  5 -1 -1</clus>
<clus scale="  300.000">  1  4  2 -1</clus>
</clustering>
</event>
<event>
 6    1  0.9678510E-012  0.3000000E+03  0.7818608E-02  0.1093470E+00
          1   -1    0    0  502    0  0.00000000000E+00  0.00000000000E+00  0.23923891075E+03  0.23923891075E+03  0.00000000000E+00 0.  1.
         13   -1    0    0    0    0 -0.00000000000E+00 -0.00000000000E+00 -0.27500000000E+03  0.27500000000E+03  0.00000000000E+00 0.  1.
    9000005    2    1    2  501    0 -0.41925286394E+02  0.19015374343E+02 -0.56489674995E+02  0.46375140370E+03  0.45799013849E+03 0.  0.
         13    1    3    3    0    0  0.13381970566E+03  0.15994689664E+03  0.50184796809E+02  0.21449763915E+03  0.00000000000E+00 0.  1.
          3    1    3    3  501    0 -0.17574499206E+03 -0.14093152230E+03 -0.10667447180E+03  0.24925376456E+03  0.00000000000E+00 0.  1.
         21    1    1    2  502  501  0.41925286394E+02 -0.19015374343E+02  0.20728585745E+02  0.50487507045E+02  0.00000000000E+00 0. -1.
<scales pt_clust_4="550.00000" pt_clust_5="550.00000" pt_clust_6="46.03601"></scales>
<mgrwt>
<rscale>  0 0.30000000E+03</rscale>
<asrwt>  1 0.46036009E+02</asrwt>
<pdfrwt beam="1">  1        1 0.86995968E+00 0.30000000E+03</pdfrwt>
<pdfrwt beam="2">0</pdfrwt>
<totfact> 0.24112990E-04</totfact>
</mgrwt>
<clustering>
<clus scale="   46.036">  1  6  2 -1</clus>
<clus scale="  457.990">  4  5 -1 -1</clus>
<clus scale="  300.000">  1  4  2 -1</clus>
</clustering>
</event>
<event>
 6    1  0.9678510E-012  0.3000000E+03  0.7818608E-02  0.1093470E+00
          1   -1    0    0  502    0  0.00000000000E+00  0.00000000000E+00  0.22500382345E+03  0.22500382345E+03  0.00000000000E+00 0.  1.
         13   -1    0    0    0    0 -0.00000000000E+00 -0.00000000000E+00 -0.27500000000E+03  0.27500000000E+03  0.00000000000E+00 0.  1.
    9000005    2    1    2  501    0  0.29465670271E+02 -0.22623389985E+02 -0.56453273380E+02  0.46229788760E+03  0.45733174098E+03 0.  0.
         13    1    3    3    0    0  0.60346859222E+02  0.20285242785E+03  0.39540204403E+02  0.21530043815E+03  0.00000000000E+00 0.  1.
          3    1    3    3  501    0 -0.30881188951E+02 -0.22547581784E+03 -0.95993477782E+02  0.24699744945E+03  0.00000000000E+00 0.  1.
         21    1    1    2  502  501 -0.29465670271E+02  0.22623389985E+02  0.64570968334E+01  0.37705935852E+02  0.00000000000E+00 0. -1.
<scales pt_clust_4="550.00000" pt_clust_5="550.00000" pt_clust_6="37.14894"></scales>
<mgrwt>
<rscale>  0 0.30000000E+03</rscale>
<asrwt>  1 0.37148937E+02</asrwt>
<pdfrwt beam="1">  1        1 0.81819572E+00 0.30000000E+03</pdfrwt>
<pdfrwt beam="2">0</pdfrwt>
<totfact> 0.74112300E-04</totfact>
</mgrwt>
<clustering>
<clus scale="   37.149">  1  6  2 -1</clus>
<clus scale="  457.332">  4  5 -1 -1</clus>
<clus scale="  300.000">  1  4  2 -1</clus>
</clustering>
</event>
<event>
 6    1  0.9678510E-012  0.3000000E+03  0.7818608E-02  0.1093470E+00
          1   -1    0    0  502    0  0.00000000000E+00  0.00000000000E+00  0.23100641235E+03  0.23100641235E+03  0.00000000000E+00 0.  1.
         13   -1    0    0    0    0 -0.00000000000E+00 -0.00000000000E+00 -0.27500000000E+03  0.27500000000E+03  0.00000000000E+00 0.  1.
    9000005    2    1    2  501    0 -0.30018311262E+01  0.36042137393E+02 -0.62861797425E+02  0.46521356987E+03  0.45952585711E+03 0.  0.
         13    1    3    3    0    0  0.98674797100E+02 -0.17701665842E+03  0.41881524081E+02  0.20694365175E+03  0.00000000000E+00 0.  1.
          1    1    3    3  501    0 -0.10167662823E+03  0.21305879582E+03 -0.10474332151E+03  0.25826991811E+03  0.00000000000E+00 0.  1.
         21    1    1    2  502  501  0.30018311262E+01 -0.36042137393E+02  0.18868209780E+02  0.40792842488E+02  0.00000000000E+00 0.  1.
<scales pt_clust_4="550.00000" pt_clust_5="550.00000" pt_clust_6="36.16693"></scales>
<mgrwt>
<rscale>  0 0.30000000E+03</rscale>
<asrwt>  1 0.36166928E+02</asrwt>
<pdfrwt beam="1">  1        1 0.84002332E+00 0.30000000E+03</pdfrwt>
<pdfrwt beam="2">0</pdfrwt>
<totfact> 0.49380854E-04</totfact>
</mgrwt>
<clustering>
<clus scale="   36.167">  1  6  2 -1</clus>
<clus scale="  459.526">  4  5 -1 -1</clus>
<clus scale="  300.000">  1  4  2 -1</clus>
</clustering>
</event>
<event>
 6    1  0.9678510E-012  0.3000000E+03  0.7818608E-02  0.1093470E+00
          1   -1    0    0  502    0  0.00000000000E+00  0.00000000000E+00  0.23980331850E+03  0.23980331850E+03  0.00000000000E+00 0.  1.
         13   -1    0    0    0    0 -0.00000000000E+00 -0.00000000000E+00 -0.27500000000E+03  0.27500000000E+03  0.00000000000E+00 0.  1.
    9000005    2    1    2  501    0 -0.14753574600E+02  0.37187357776E+02 -0.65630731145E+02  0.46453604366E+03  0.45813292334E+03 0.  0.
         13    1    3    3    0    0  0.13091527720E+03 -0.16502970043E+03 -0.28994553658E+02  0.21263653489E+03  0.00000000000E+00 0.  1.
          1    1    3    3  501    0 -0.14566885180E+03  0.20221705821E+03 -0.36636177487E+02  0.25189950877E+03  0.00000000000E+00 0.  1.
         21    1    1    2  502  501  0.14753574600E+02 -0.37187357776E+02  0.30434049642E+02  0.50267274836E+02  0.00000000000E+00 0.  1.
<scales pt_clust_4="550.00000" pt_clust_5="550.00000" pt_clust_6="40.00709"></scales>
<mgrwt>
<rscale>  0 0.30000000E+03</rscale>
<asrwt>  1 0.40007094E+02</asrwt>
<pdfrwt beam="1">  1        1 0.87201207E+00 0.30000000E+03</pdfrwt>
<pdfrwt beam="2">0</pdfrwt>
<totfact> 0.23565514E-04</totfact>
</mgrwt>
<clustering>
<clus scale="   40.007">  1  6  2 -1</clus>
<clus scale="  458.133">  4  5 -1 -1</clus>
<clus scale="  300.000">  1  4  2 -1</clus>
</clustering>
</event>
<event>
 6    1  0.9678510E-012  0.3000000E+03  0.7818608E-02  0.1093470E+00
          1   -1    0    0  502    0  0.00000000000E+00  0.00000000000E+00  0.26325771274E+03  0.26325771274E+03  0.00000000000E+00 0.  1.
         13   -1    0    0    0    0 -0.00000000000E+00 -0.00000000000E+00 -0.27500000000E+03  0.27500000000E+03  0.00000000000E+00 0.  1.
    9000005    2    1    2  501    0  0.17076049788E+02  0.26952577749E+02 -0.46817692087E+02  0.49084129209E+03  0.48756050373E+03 0.  0.
         13    1    3    3    0    0 -0.20504500182E+03  0.15139045624E+02  0.95576818887E+02  0.22673237921E+03  0.00000000000E+00 0.  1.
          3    1    3    3  501    0  0.22212105160E+03  0.11813532126E+02 -0.14239451097E+03  0.26410891288E+03  0.00000000000E+00 0.  1.
         21    1    1    2  502  501 -0.17076049788E+02 -0.26952577749E+02  0.35075404823E+02  0.47416420650E+02  0.00000000000E+00 0.  1.
<scales pt_clust_4="550.00000" pt_clust_5="550.00000" pt_clust_6="31.90663"></scales>
<mgrwt>
<rscale>  0 0.30000000E+03</rscale>
<asrwt>  1 0.31906628E+02</asrwt>
<pdfrwt beam="1">  1        1 0.95730077E+00 0.30000000E+03</pdfrwt>
<pdfrwt beam="2">0</pdfrwt>
<totfact> 0.88230154E-06</totfact>
</mgrwt>
<clustering>
<clus scale="   31.907">  1  6  2 -1</clus>
<clus scale="  487.561">  4  5 -1 -1</clus>
<clus scale="  300.000">  1  4  2 -1</clus>
</clustering>
</event>
<event>
 6    1  0.9678510E-012  0.3000000E+03  0.7818608E-02  0.1093470E+00
          1   -1    0    0  502    0  0.00000000000E+00  0.00000000000E+00  0.23734512514E+03  0.23734512514E+03  0.00000000000E+00 0.  1.
         13   -1    0    0    0    0 -0.00000000000E+00 -0.00000000000E+00 -0.27500000000E+03  0.27500000000E+03  0.00000000000E+00 0.  1.
    9000005    2    1    2  501    0  0.26870665441E+02 -0.15155617622E+02 -0.53804915283E+02  0.47752344781E+03  0.47347856223E+03 0.  0.
         13    1    3    3    0    0  0.15397790250E+03 -0.16716797573E+03 -0.13391080639E+03  0.26379240064E+03  0.00000000000E+00 0.  1.
          1    1    3    3  501    0 -0.12710723706E+03  0.15201235810E+03  0.80105891112E+02  0.21373104716E+03  0.00000000000E+00 0.  1.
         21    1    1    2  502  501 -0.26870665441E+02  0.15155617622E+02  0.16150040424E+02  0.34821677335E+02  0.00000000000E+00 0.  1.
<scales pt_clust_4="550.00000" pt_clust_5="550.00000" pt_clust_6="30.85005"></scales>
<mgrwt>
<rscale>  0 0.30000000E+03</rscale>
<asrwt>  1 0.30850047E+02</asrwt>
<pdfrwt beam="1">  1        1 0.86307318E+00 0.30000000E+03</pdfrwt>
<pdfrwt beam="2">0</pdfrwt>
<totfact> 0.30697432E-04</totfact>
</mgrwt>
<clustering>
<clus scale="   30.850">  1  6  2 -1</clus>
<clus scale="  473.479">  4  5 -1 -1</clus>
<clus scale="  300.000">  1  4  2 -1</clus>
</clustering>
</event>
<event>
 6    1  0.9678510E-012  0.3000000E+03  0.7818608E-02  0.1093470E+00
          1   -1    0    0  502    0  0.00000000000E+00  0.00000000000E+00  0.22571326204E+03  0.22571326204E+03  0.00000000000E+00 0.  1.
         13   -1    0    0    0    0 -0.00000000000E+00 -0.00000000000E+00 -0.27500000000E+03  0.27500000000E+03  0.00000000000E+00 0.  1.
    9000005    2    1    2  501    0 -0.20185836560E+02  0.28295482701E+02 -0.65355505088E+02  0.46242086572E+03  0.45645767895E+03 0.  0.
         13    1    3    3    0    0  0.25230146934E+02  0.23262467717E+03 -0.91981067602E+02  0.25141861017E+03  0.00000000000E+00 0.  1.
          3    1    3    3  501    0 -0.45415983494E+02 -0.20432919447E+03  0.26625562514E+02  0.21100225555E+03  0.00000000000E+00 0.  1.
         21    1    1    2  502  501  0.20185836560E+02 -0.28295482701E+02  0.16068767126E+02  0.38292396319E+02  0.00000000000E+00 0.  1.
<scales pt_clust_4="550.00000" pt_clust_5="550.00000" pt_clust_6="34.75777"></scales>
<mgrwt>
<rscale>  0 0.30000000E+03</rscale>
<asrwt>  1 0.34757767E+02</asrwt>
<pdfrwt beam="1">  1        1 0.82077550E+00 0.30000000E+03</pdfrwt>
<pdfrwt beam="2">0</pdfrwt>
<totfact> 0.71306135E-04</totfact>
</mgrwt>
<clustering>
<clus scale="   34.758">  1  6  2 -1</clus>
<clus scale="  456.458">  4  5 -1 -1</clus>
<clus scale="  300.000">  1  4  2 -1</clus>
</clustering>
</event>
<event>
 6    1  0.9678510E-012  0.3000000E+03  0.7818608E-02  0.1093470E+00
          1   -1    0    0  502    0  0.00000000000E+00  0.00000000000E+00  0.24708153426E+03  0.24708153426E+03  0.00000000000E+00 0.  1.
         13   -1    0    0    0    0 -0.00000000000E+00 -0.00000000000E+00 -0.27500000000E+03  0.27500000000E+03  0.00000000000E+00 0.  1.
    9000005    2    1    2  501    0  0.35750822203E+01  0.39573227544E+02 -0.43477354710E+01  0.47588195768E+03  0.47420028816E+03 0.  0.
         13    1    3    3    0    0  0.23339914811E+02  0.24952785116E+03  0.55464031581E+02  0.25668104513E+03  0.00000000000E+00 0.  1.
          1    1    3    3  501    0 -0.19764832591E+02 -0.20995462362E+03 -0.59811767052E+02  0.21920091255E+03  0.00000000000E+00 0.  1.
         21    1    1    2  502  501 -0.35750822203E+01 -0.39573227544E+02 -0.23570730265E+02  0.46199576582E+02  0.00000000000E+00 0.  1.
<scales pt_clust_4="550.00000" pt_clust_5="550.00000" pt_clust_6="39.73441"></scales>
<mgrwt>
<rscale>  0 0.30000000E+03</rscale>
<asrwt>  1 0.39734407E+02</asrwt>
<pdfrwt beam="1">  1        1 0.89847831E+00 0.30000000E+03</pdfrwt>
<pdfrwt beam="2">0</pdfrwt>
<totfact> 0.11254049E-04</totfact>
</mgrwt>
<clustering>
<clus scale="   39.734">  1  6  2 -1</clus>
<clus scale="  474.200">  4  5 -1 -1</clus>
<clus scale="  300.000">  1  4  2 -1</clus>
</clustering>
</event>
<event>
 6    1  0.9678510E-012  0.3000000E+03  0.7818608E-02  0.1093470E+00
          1   -1    0    0  502    0  0.00000000000E+00  0.00000000000E+00  0.23589422862E+03  0.23589422862E+03  0.00000000000E+00 0.  1.
         13   -1    0    0    0    0 -0.00000000000E+00 -0.00000000000E+00 -0.27500000000E+03  0.27500000000E+03  0.00000000000E+00 0.  1.
    9000005    2    1    2  501    0 -0.30430168323E+02  0.25839768868E+02 -0.38823659877E+02  0.47097219978E+03  0.46766852321E+03 0.  0.
         13    1    3    3    0    0  0.10470260678E+03  0.20908377692E+03 -0.62552413073E+02  0.24205674132E+03  0.00000000000E+00 0.  1.
          3    1    3    3  501    0 -0.13513277510E+03 -0.18324400805E+03  0.23728753196E+02  0.22891545846E+03  0.00000000000E+00 0.  1.
         21    1    1    2  502  501  0.30430168323E+02 -0.25839768868E+02 -0.28211150747E+00  0.39922028834E+02  0.00000000000E+00 0.  1.
<scales pt_clust_4="550.00000" pt_clust_5="550.00000" pt_clust_6="39.92103"></scales>
<mgrwt>
<rscale>  0 0.30000000E+03</rscale>
<asrwt>  1 0.39921032E+02</asrwt>
<pdfrwt beam="1">  1        1 0.85779719E+00 0.30000000E+03</pdfrwt>
<pdfrwt beam="2">0</pdfrwt>
<totfact> 0.33303934E-04</totfact>
</mgrwt>
<clustering>
<clus scale="   39.921">  1  6  2 -1</clus>
<clus scale="  467.669">  4  5 -1 -1</clus>
<clus scale="  300.000">  1  4  2 -1</clus>
</clustering>
</event>
<event>
 6    1  0.9678510E-012  0.3000000E+03  0.7818608E-02  0.1093470E+00
          1   -1    0    0  502    0  0.00000000000E+00  0.00000000000E+00  0.22808621869E+03  0.22808621869E+03  0.00000000000E+00 0.  1.
         13   -1    0    0    0    0 -0.00000000000E+00 -0.00000000000E+00 -0.27500000000E+03  0.27500000000E+03  0.00000000000E+00 0.  1.
    9000005    2    1    2  501    0  0.37388307330E+02 -0.13002903140E+02 -0.39938355047E+02  0.46289147294E+03  0.45946325479E+03 0.  0.
         13    1    3    3    0    0  0.44931976498E+02  0.20871378609E+03  0.56723458032E+02  0.22090241671E+03  0.00000000000E+00 0.  1.
          1    1    3    3  501    0 -0.75436691672E+01 -0.22171668923E+03 -0.96661813079E+02  0.24198905623E+03  0.00000000000E+00 0.  1.
         21    1    1    2  502  501 -0.37388307330E+02  0.13002903140E+02 -0.69754262586E+01  0.40194745759E+02  0.00000000000E+00 0. -1.
<scales pt_clust_4="550.00000" pt_clust_5="550.00000" pt_clust_6="39.58488"></scales>
<mgrwt>
<rscale>  0 0.30000000E+03</rscale>
<asrwt>  1 0.39584878E+02</asrwt>
<pdfrwt beam="1">  1        1 0.82940443E+00 0.30000000E+03</pdfrwt>
<pdfrwt beam="2">0</pdfrwt>
<totfact> 0.58434784E-04</totfact>
</mgrwt>
<clustering>
<clus scale="   39.585">  1  6  2 -1</clus>
<clus scale="  459.463">  4  5 -1 -1</clus>
<clus scale="  300.000">  1  4  2 -1</clus>
</clustering>
</event>
<event>
 6    1  0.9678510E-012  0.3000000E+03  0.7818608E-02  0.1093470E+00
          1   -1    0    0  502    0  0.00000000000E+00  0.00000000000E+00  0.22386400263E+03  0.22386400263E+03  0.00000000000E+00 0.  1.
         13   -1    0    0    0    0 -0.00000000000E+00 -0.00000000000E+00 -0.27500000000E+03  0.27500000000E+03  0.00000000000E+00 0.  1.
    9000005    2    1    2  501    0  0.33840590691E+02  0.51204199200E+01 -0.61944685572E+02  0.46297205340E+03  0.45753095402E+03 0.  0.
         13    1    3    3    0    0 -0.59630838009E+02 -0.20624708386E+03  0.24787652692E+02  0.21612062412E+03  0.00000000000E+00 0.  1.
          1    1    3    3  501    0  0.93471428700E+02  0.21136750378E+03 -0.86732338264E+02  0.24685142928E+03  0.00000000000E+00 0.  1.
         21    1    1    2  502  501 -0.33840590691E+02 -0.51204199200E+01  0.10808688199E+02  0.35891949223E+02  0.00000000000E+00 0. -1.
<scales pt_clust_4="550.00000" pt_clust_5="550.00000" pt_clust_6="34.22578"></scales>
<mgrwt>
<rscale>  0 0.30000000E+03</rscale>
<asrwt>  1 0.34225784E+02</asrwt>
<pdfrwt beam="1">  1        1 0.81405092E+00 0.30000000E+03</pdfrwt>
<pdfrwt beam="2">0</pdfrwt>
<totfact> 0.81357554E-04</totfact>
</mgrwt>
<clustering>
<clus scale="   34.226">  1  6  2 -1</clus>
<clus scale="  457.531">  4  5 -1 -1</clus>
<clus scale="  300.000">  1  4  2 -1</clus>
</clustering>
</event>
<event>
 6    1  0.9678510E-012  0.3000000E+03  0.7818608E-02  0.1093470E+00
          1   -1    0    0  502    0  0.00000000000E+00  0.00000000000E+00  0.23806401227E+03  0.23806401227E+03  0.00000000000E+00 0.  1.
         13   -1    0    0    0    0 -0.00000000000E+00 -0.00000000000E+00 -0.27500000000E+03  0.27500000000E+03  0.00000000000E+00 0.  1.
    9000005    2    1    2  501    0  0.20337102785E+02  0.22862301421E+02 -0.69462054627E+02  0.46840723671E+03  0.46221648585E+03 0.  0.
         13    1    3    3    0    0 -0.17118434955E+01 -0.16333805539E+03 -0.18607530856E+03  0.24760103231E+03  0.00000000000E+00 0.  1.
          3    1    3    3  501    0  0.22048946281E+02  0.18620035681E+03  0.11661325393E+03  0.22080620440E+03  0.00000000000E+00 0.  1.
         21    1    1    2  502  501 -0.20337102785E+02 -0.22862301421E+02  0.32526066900E+02  0.44656775566E+02  0.00000000000E+00 0.  1.
<scales pt_clust_4="550.00000" pt_clust_5="550.00000" pt_clust_6="30.59873"></scales>
<mgrwt>
<rscale>  0 0.30000000E+03</rscale>
<asrwt>  1 0.30598735E+02</asrwt>
<pdfrwt beam="1">  1        1 0.86568732E+00 0.30000000E+03</pdfrwt>
<pdfrwt beam="2">0</pdfrwt>
<totfact> 0.28813131E-04</totfact>
</mgrwt>
<clustering>
<clus scale="   30.599">  1  6  2 -1</clus>
<clus scale="  462.216">  4  5 -1 -1</clus>
<clus scale="  300.000">  1  4  2 -1</clus>
</clustering>
</event>
<event>
 6    1  0.9678510E-012  0.3000000E+03  0.7818608E-02  0.1093470E+00
          1   -1    0    0  502    0  0.00000000000E+00  0.00000000000E+00  0.23135838383E+03  0.23135838383E+03  0.00000000000E+00 0.  1.
         13   -1    0    0    0    0 -0.00000000000E+00 -0.00000000000E+00 -0.27500000000E+03  0.27500000000E+03  0.00000000000E+00 0.  1.
    9000005    2    1    2  501    0  0.29921276834E+02  0.10157219795E+02 -0.30974170072E+02  0.47231552684E+03  0.47023834995E+03 0.  0.
         13    1    3    3    0    0  0.15013052265E+03  0.11430519185E+03  0.14287945094E+03  0.23668415286E+03  0.00000000000E+00 0.  1.
          3    1    3    3  501    0 -0.12020924582E+03 -0.10414797206E+03 -0.17385362102E+03  0.23563137398E+03  0.00000000000E+00 0.  1.
         21    1    1    2  502  501 -0.29921276834E+02 -0.10157219795E+02 -0.12667446096E+02  0.34042856988E+02  0.00000000000E+00 0.  1.
<scales pt_clust_4="550.00000" pt_clust_5="550.00000" pt_clust_6="31.59831"></scales>
<mgrwt>
<rscale>  0 0.30000000E+03</rscale>
<asrwt>  1 0.31598306E+02</asrwt>
<pdfrwt beam="1">  1        1 0.84130321E+00 0.30000000E+03</pdfrwt>
<pdfrwt beam="2">0</pdfrwt>
<totfact> 0.49494160E-04</totfact>
</mgrwt>
<clustering>
<clus scale="   31.598">  1  6  2 -1</clus>
<clus scale="  470.238">  4  5 -1 -1</clus>
<clus scale="  300.000">  1  4  2 -1</clus>
</clustering>
</event>
<event>
 6    1  0.9678510E-012  0.3000000E+03  0.7818608E-02  0.1093470E+00
          1   -1    0    0  502    0  0.00000000000E+00  0.00000000000E+00  0.24648803472E+03  0.24648803472E+03  0.00000000000E+00 0.  1.
         13   -1    0    0    0    0 -0.00000000000E+00 -0.00000000000E+00 -0.27500000000E+03  0.27500000000E+03  0.00000000000E+00 0.  1.
    9000005    2    1    2  501    0  0.31018686169E+02 -0.16410937672E+01 -0.47853834479E+02  0.48489623257E+03  0.48152831153E+03 0.  0.
         13    1    3    3    0    0  0.24932086809E+03 -0.44611113700E+02 -0.65783249034E+02  0.26168393643E+03  0.00000000000E+00 0.  1.
          1    1    3    3  501    0 -0.21830218192E+03  0.42970019933E+02  0.17929414555E+02  0.22321229614E+03  0.00000000000E+00 0.  1.
         21    1    1    2  502  501 -0.31018686169E+02  0.16410937672E+01  0.19341869196E+02  0.36591802148E+02  0.00000000000E+00 0. -1.
<scales pt_clust_4="550.00000" pt_clust_5="550.00000" pt_clust_6="31.06207"></scales>
<mgrwt>
<rscale>  0 0.30000000E+03</rscale>
<asrwt>  1 0.31062068E+02</asrwt>
<pdfrwt beam="1">  1        1 0.89632013E+00 0.30000000E+03</pdfrwt>
<pdfrwt beam="2">0</pdfrwt>
<totfact> 0.12466894E-04</totfact>
</mgrwt>
<clustering>
<clus scale="   31.062">  1  6  2 -1</clus>
<clus scale="  481.528">  4  5 -1 -1</clus>
<clus scale="  300.000">  1  4  2 -1</clus>
</clustering>
</event>
<event>
 6    1  0.9678510E-012  0.3000000E+03  0.7818608E-02  0.1093470E+00
          1   -1    0    0  502    0  0.00000000000E+00  0.00000000000E+00  0.25496433526E+03  0.25496433526E+03  0.00000000000E+00 0.  1.
         13   -1    0    0    0    0 -0.00000000000E+00 -0.00000000000E+00 -0.27500000000E+03  0.27500000000E+03  0.00000000000E+00 0.  1.
    9000005    2    1    2  501    0 -0.32997247275E+02  0.90077733756E+01 -0.36214654008E+02  0.49212628559E+03  0.48959863306E+03 0.  0.
         13    1    3    3    0    0 -0.25090404034E+03 -0.61624926574E+02  0.95218479546E+01  0.25853652473E+03  0.00000000000E+00 0.  1.
          1    1    3    3  501    0  0.21790679306E+03  0.70632699950E+02 -0.45736501963E+02  0.23358976086E+03  0.00000000000E+00 0.  1.
         21    1    1    2  502  501  0.32997247275E+02 -0.90077733756E+01  0.16178989265E+02  0.37838049666E+02  0.00000000000E+00 0.  1.
<scales pt_clust_4="550.00000" pt_clust_5="550.00000" pt_clust_6="34.20465"></scales>
<mgrwt>
<rscale>  0 0.30000000E+03</rscale>
<asrwt>  1 0.34204653E+02</asrwt>
<pdfrwt beam="1">  1        1 0.92714304E+00 0.30000000E+03</pdfrwt>
<pdfrwt beam="2">0</pdfrwt>
<totfact> 0.29750025E-05</totfact>
</mgrwt>
<clustering>
<clus scale="   34.205">  1  6  2 -1</clus>
<clus scale="  489.599">  4  5 -1 -1</clus>
<clus scale="  300.000">  1  4  2 -1</clus>
</clustering>
</event>
<event>
 6    1  0.9678510E-012  0.3000000E+03  0.7818608E-02  0.1093470E+00
          1   -1    0    0  502    0  0.00000000000E+00  0.00000000000E+00  0.23330962657E+03  0.23330962657E+03  0.00000000000E+00 0.  1.
         13   -1    0    0    0    0 -0.00000000000E+00 -0.00000000000E+00 -0.27500000000E+03  0.27500000000E+03  0.00000000000E+00 0.  1.
    9000005    2    1    2  501    0 -0.94414495946E+01 -0.32817784064E+02 -0.39648815612E+02  0.47409974672E+03  0.47120313383E+03 0.  0.
         13    1    3    3    0    0 -0.14664968030E+03 -0.17631551182E+03  0.79299587350E+02  0.24265554391E+03  0.00000000000E+00 0.  1.
          3    1    3    3  501    0  0.13720823070E+03  0.14349772775E+03 -0.11894840296E+03  0.23144420280E+03  0.00000000000E+00 0.  1.
         21    1    1    2  502  501  0.94414495946E+01  0.32817784064E+02 -0.20415578178E+01  0.34209879854E+02  0.00000000000E+00 0.  1.
<scales pt_clust_4="550.00000" pt_clust_5="550.00000" pt_clust_6="34.14891"></scales>
<mgrwt>
<rscale>  0 0.30000000E+03</rscale>
<asrwt>  1 0.34148908E+02</asrwt>
<pdfrwt beam="1">  1        1 0.84839864E+00 0.30000000E+03</pdfrwt>
<pdfrwt beam="2">0</pdfrwt>
<totfact> 0.42312293E-04</totfact>
</mgrwt>
<clustering>
<clus scale="   34.149">  1  6  2 -1</clus>
<clus scale="  471.203">  4  5 -1 -1</clus>
<clus scale="  300.000">  1  4  2 -1</clus>
</clustering>
</event>
<event>
 6    1  0.9678510E-012  0.3000000E+03  0.7818608E-02  0.1093470E+00
          1   -1    0    0  502    0  0.00000000000E+00  0.00000000000E+00  0.24534192050E+03  0.24534192050E+03  0.00000000000E+00 0.  1.
         13   -1    0    0    0    0 -0.00000000000E+00 -0.00000000000E+00 -0.27500000000E+03  0.27500000000E+03  0.00000000000E+00 0.  1.
    9000005    2    1    2  501    0  0.34309479742E+02 -0.26435438380E+02 -0.34382732701E+02  0.47677249142E+03  0.47355449894E+03 0.  0.
         13    1    3    3    0    0  0.16948614216E+03  0.88761927423E+02 -0.16792452177E+03  0.25456409243E+03  0.00000000000E+00 0.  1.
          3    1    3    3  501    0 -0.13517666242E+03 -0.11519736580E+03  0.13354178907E+03  0.22220839898E+03  0.00000000000E+00 0.  1.
         21    1    1    2  502  501 -0.34309479742E+02  0.26435438380E+02  0.47246532005E+01  0.43569429080E+02  0.00000000000E+00 0. -1.
<scales pt_clust_4="550.00000" pt_clust_5="550.00000" pt_clust_6="43.31250"></scales>
<mgrwt>
<rscale>  0 0.30000000E+03</rscale>
<asrwt>  1 0.43312502E+02</asrwt>
<pdfrwt beam="1">  1        1 0.89215244E+00 0.30000000E+03</pdfrwt>
<pdfrwt beam="2">0</pdfrwt>
<totfact> 0.13085312E-04</totfact>
</mgrwt>
<clustering>
<clus scale="   43.313">  1  6  2 -1</clus>
<clus scale="  473.554">  4  5 -1 -1</clus>
<clus scale="  300.000">  1  4  2 -1</clus>
</clustering>
</event>
<event>
 6    1  0.9678510E-012  0.3000000E+03  0.7818608E-02  0.1093470E+00
          1   -1    0    0  502    0  0.00000000000E+00  0.00000000000E+00  0.22658548342E+03  0.22658548342E+03  0.00000000000E+00 0.  1.
         13   -1    0    0    0    0 -0.00000000000E+00 -0.00000000000E+00 -0.27500000000E+03  0.27500000000E+03  0.00000000000E+00 0.  1.
    9000005    2    1    2  501    0 -0.14837638574E+02 -0.36650024844E+02 -0.51856155847E+02  0.46189638265E+03  0.45726997230E+03 0.  0.
         13    1    3    3    0    0  0.18674070590E+03  0.61069386782E+02 -0.11691136114E+03  0.22862595567E+03  0.00000000000E+00 0.  1.
          1    1    3    3  501    0 -0.20157834447E+03 -0.97719411626E+02  0.65055205297E+02  0.23327042698E+03  0.00000000000E+00 0.  1.
         21    1    1    2  502  501  0.14837638574E+02  0.36650024844E+02  0.34416392713E+01  0.39689100776E+02  0.00000000000E+00 0.  1.
<scales pt_clust_4="550.00000" pt_clust_5="550.00000" pt_clust_6="39.53960"></scales>
<mgrwt>
<rscale>  0 0.30000000E+03</rscale>
<asrwt>  1 0.39539598E+02</asrwt>
<pdfrwt beam="1">  1        1 0.82394721E+00 0.30000000E+03</pdfrwt>
<pdfrwt beam="2">0</pdfrwt>
<totfact> 0.65258572E-04</totfact>
</mgrwt>
<clustering>
<clus scale="   39.540">  1  6  2 -1</clus>
<clus scale="  457.270">  4  5 -1 -1</clus>
<clus scale="  300.000">  1  4  2 -1</clus>
</clustering>
</event>
<event>
 6    1  0.9678510E-012  0.3000000E+03  0.7818608E-02  0.1093470E+00
          1   -1    0    0  502    0  0.00000000000E+00  0.00000000000E+00  0.24457373760E+03  0.24457373760E+03  0.00000000000E+00 0.  1.
         13   -1    0    0    0    0 -0.00000000000E+00 -0.00000000000E+00 -0.27500000000E+03  0.27500000000E+03  0.00000000000E+00 0.  1.
    9000005    2    1    2  501    0 -0.31136460895E+02  0.13233623662E+02 -0.32526250323E+02  0.48567657044E+03  0.48340372994E+03 0.  0.
         13    1    3    3    0    0  0.83337712735E+02  0.22561375800E+03  0.98567942264E+01  0.24071538912E+03  0.00000000000E+00 0.  1.
          3    1    3    3  501    0 -0.11447417363E+03 -0.21238013434E+03 -0.42383044549E+02  0.24496118133E+03  0.00000000000E+00 0.  1.
         21    1    1    2  502  501  0.31136460895E+02 -0.13233623662E+02  0.20999879269E+01  0.33897167161E+02  0.00000000000E+00 0.  1.
<scales pt_clust_4="550.00000" pt_clust_5="550.00000" pt_clust_6="33.83206"></scales>
<mgrwt>
<rscale>  0 0.30000000E+03</rscale>
<asrwt>  1 0.33832056E+02</asrwt>
<pdfrwt beam="1">  1        1 0.88935905E+00 0.30000000E+03</pdfrwt>
<pdfrwt beam="2">0</pdfrwt>
<totfact> 0.14879578E-04</totfact>
</mgrwt>
<clustering>
<clus scale="   33.832">  1  6  2 -1</clus>
<clus scale="  483.404">  4  5 -1 -1</clus>
<clus scale="  300.000">  1  4  2 -1</clus>
</clustering>
</event>
<event>
 6    1  0.9678510E-012  0.3000000E+03  0.7818608E-02  0.1093470E+00
          1   -1    0    0  502    0  0.00000000000E+00  0.00000000000E+00  0.24971183205E+03  0.24971183205E+03  0.00000000000E+00 0.  1.
         13   -1    0    0    0    0 -0.00000000000E+00 -0.00000000000E+00 -0.27500000000E+03  0.27500000000E+03  0.00000000000E+00 0.  1.
    9000005    2    1    2  501    0  0.34868322135E+01 -0.37951835833E+02 -0.54476654712E+02  0.47670696145E+03  0.47204800746E+03 0.  0.
         13    1    3    3    0    0 -0.12729443700E+03  0.11533218661E+03  0.12051607943E+03  0.20983210517E+03  0.00000000000E+00 0.  1.
          1    1    3    3  501    0  0.13078126921E+03 -0.15328402244E+03 -0.17499273414E+03  0.26687485628E+03  0.00000000000E+00 0.  1.
         21    1    1    2  502  501 -0.34868322135E+01  0.37951835833E+02  0.29188486763E+02  0.48004870601E+02  0.00000000000E+00 0.  1.
<scales pt_clust_4="550.00000" pt_clust_5="550.00000" pt_clust_6="38.11168"></scales>
<mgrwt>
<rscale>  0 0.30000000E+03</rscale>
<asrwt>  1 0.38111676E+02</asrwt>
<pdfrwt beam="1">  1        1 0.90804303E+00 0.30000000E+03</pdfrwt>
<pdfrwt beam="2">0</pdfrwt>
<totfact> 0.78643027E-05</totfact>
</mgrwt>
<clustering>
<clus scale="   38.112">  1  6  2 -1</clus>
<clus scale="  472.048">  4  5 -1 -1</clus>
<clus scale="  300.000">  1  4  2 -1</clus>
</clustering>
</event>
<event>
 6    1  0.9678510E-012  0.3000000E+03  0.7818608E-02  0.1093470E+00
          1   -1    0    0  502    0  0.00000000000E+00  0.00000000000E+00  0.22776638800E+03  0.22776638800E+03  0.00000000000E+00 0.  1.
         13   -1    0    0    0    0 -0.00000000000E+00 -0.00000000000E+00 -0.27500000000E+03  0.27500000000E+03  0.00000000000E+00 0.  1.
    9000005    2    1    2  501    0  0.19239281922E+02  0.23189523631E+02 -0.51894629702E+02  0.47227656902E+03  0.46844871766E+03 0.  0.
         13    1    3    3    0    0  0.14145077665E+03 -0.38758445714E+02 -0.21437030911E+03  0.25974057972E+03  0.00000000000E+00 0.  1.
          1    1    3    3  501    0 -0.12221149472E+03  0.61947969345E+02  0.16247567941E+03  0.21253598930E+03  0.00000000000E+00 0.  1.
         21    1    1    2  502  501 -0.19239281922E+02 -0.23189523631E+02  0.46610176970E+01  0.30489818975E+02  0.00000000000E+00 0. -1.
<scales pt_clust_4="550.00000" pt_clust_5="550.00000" pt_clust_6="30.13144"></scales>
<mgrwt>
<rscale>  0 0.30000000E+03</rscale>
<asrwt>  1 0.30131445E+02</asrwt>
<pdfrwt beam="1">  1        1 0.82824141E+00 0.30000000E+03</pdfrwt>
<pdfrwt beam="2">0</pdfrwt>
<totfact> 0.62922658E-04</totfact>
</mgrwt>
<clustering>
<clus scale="   30.131">  1  6  2 -1</clus>
<clus scale="  468.449">  4  5 -1 -1</clus>
<clus scale="  300.000">  1  4  2 -1</clus>
</clustering>
</event>
<event>
 6    1  0.9678510E-012  0.3000000E+03  0.7818608E-02  0.1093470E+00
          1   -1    0    0  502    0  0.00000000000E+00  0.00000000000E+00  0.22908342614E+03  0.22908342614E+03  0.00000000000E+00 0.  1.
         13   -1    0    0    0    0 -0.00000000000E+00 -0.00000000000E+00 -0.27500000000E+03  0.27500000000E+03  0.00000000000E+00 0.  1.
    9000005    2    1    2  501    0 -0.19900572726E+01 -0.37134355617E+02 -0.62661200126E+02  0.46329981174E+03  0.45753400842E+03 0.  0.
         13    1    3    3    0    0  0.14080369931E+03 -0.19518374042E+03  0.20698149649E+01  0.24067957620E+03  0.00000000000E+00 0.  1.
          3    1    3    3  501    0 -0.14279375658E+03  0.15804938481E+03 -0.64731015091E+02  0.22262023554E+03  0.00000000000E+00 0.  1.
         21    1    1    2  502  501  0.19900572726E+01  0.37134355617E+02  0.16744626267E+02  0.40783614404E+02  0.00000000000E+00 0.  1.
<scales pt_clust_4="550.00000" pt_clust_5="550.00000" pt_clust_6="37.18764"></scales>
<mgrwt>
<rscale>  0 0.30000000E+03</rscale>
<asrwt>  1 0.37187642E+02</asrwt>
<pdfrwt beam="1">  1        1 0.83303064E+00 0.30000000E+03</pdfrwt>
<pdfrwt beam="2">0</pdfrwt>
<totfact> 0.55318392E-04</totfact>
</mgrwt>
<clustering>
<clus scale="   37.188">  1  6  2 -1</clus>
<clus scale="  457.534">  4  5 -1 -1</clus>
<clus scale="  300.000">  1  4  2 -1</clus>
</clustering>
</event>
<event>
 6    1  0.9678510E-012  0.3000000E+03  0.7818608E-02  0.1093470E+00
          1   -1    0    0  502    0  0.00000000000E+00  0.00000000000E+00  0.24553495314E+03  0.24553495314E+03  0.00000000000E+00 0.  1.
         13   -1    0    0    0    0 -0.00000000000E+00 -0.00000000000E+00 -0.27500000000E+03  0.27500000000E+03  0.00000000000E+00 0.  1.
    9000005    2    1    2  501    0  0.29932158234E+02 -0.35338744204E+01 -0.59197887123E+02  0.47819745020E+03  0.47356096669E+03 0.  0.
         13    1    3    3    0    0  0.25136142869E+03 -0.15288033111E+02 -0.46580789327E+02  0.25609775813E+03  0.00000000000E+00 0.  1.
          3    1    3    3  501    0 -0.22142927045E+03  0.11754158691E+02 -0.12617097796E+02  0.22209969207E+03  0.00000000000E+00 0.  1.
         21    1    1    2  502  501 -0.29932158234E+02  0.35338744204E+01  0.29732840261E+02  0.42337502937E+02  0.00000000000E+00 0.  1.
<scales pt_clust_4="550.00000" pt_clust_5="550.00000" pt_clust_6="30.14005"></scales>
<mgrwt>
<rscale>  0 0.30000000E+03</rscale>
<asrwt>  1 0.30140046E+02</asrwt>
<pdfrwt beam="1">  1        1 0.89285438E+00 0.30000000E+03</pdfrwt>
<pdfrwt beam="2">0</pdfrwt>
<totfact> 0.13729204E-04</totfact>
</mgrwt>
<clustering>
<clus scale="   30.140">  1  6  2 -1</clus>
<clus scale="  473.561">  4  5 -1 -1</clus>
<clus scale="  300.000">  1  4  2 -1</clus>
</clustering>
</event>
<event>
 6    1  0.9678510E-012  0.3000000E+03  0.7818608E-02  0.1093470E+00
          1   -1    0    0  502    0  0.00000000000E+00  0.00000000000E+00  0.24079495975E+03  0.24079495975E+03  0.00000000000E+00 0.  1.
         13   -1    0    0    0    0 -0.00000000000E+00 -0.00000000000E+00 -0.27500000000E+03  0.27500000000E+03  0.00000000000E+00 0.  1.
    9000005    2    1    2  501    0  0.30659256432E+02  0.15128791095E+02 -0.49656344059E+02  0.47827678930E+03  0.47446186817E+03 0.  0.
         13    1    3    3    0    0 -0.60936751983E+02  0.23070904640E+03  0.10307837877E+01  0.23862316390E+03  0.00000000000E+00 0.  1.
          1    1    3    3  501    0  0.91596008414E+02 -0.21558025531E+03 -0.50687127846E+02  0.23965362540E+03  0.00000000000E+00 0.  1.
         21    1    1    2  502  501 -0.30659256432E+02 -0.15128791095E+02  0.15451303810E+02  0.37518170456E+02  0.00000000000E+00 0.  1.
<scales pt_clust_4="550.00000" pt_clust_5="550.00000" pt_clust_6="34.18875"></scales>
<mgrwt>
<rscale>  0 0.30000000E+03</rscale>
<asrwt>  1 0.34188746E+02</asrwt>
<pdfrwt beam="1">  1        1 0.87561804E+00 0.30000000E+03</pdfrwt>
<pdfrwt beam="2">0</pdfrwt>
<totfact> 0.22252129E-04</totfact>
</mgrwt>
<clustering>
<clus scale="   34.189">  1  6  2 -1</clus>
<clus scale="  474.462">  4  5 -1 -1</clus>
<clus scale="  300.000">  1  4  2 -1</clus>
</clustering>
</event>
<event>
 6    1  0.9678510E-012  0.3000000E+03  0.7818608E-02  0.1093470E+00
          1   -1    0    0  502    0  0.00000000000E+00  0.00000000000E+00  0.22373645812E+03  0.22373645812E+03  0.00000000000E+00 0.  1.
         13   -1    0    0    0    0 -0.00000000000E+00 -0.00000000000E+00 -0.27500000000E+03  0.27500000000E+03  0.00000000000E+00 0.  1.
    9000005    2    1    2  501    0 -0.26827651165E+02 -0.17705019895E+02 -0.66942091854E+02  0.46297324342E+03  0.45697898186E+03 0.  0.
         13    1    3    3    0    0  0.24749400248E+02  0.19969869711E+03 -0.11868822333E+03  0.23362148188E+03  0.00000000000E+00 0.  1.
          3    1    3    3  501    0 -0.51577051413E+02 -0.21740371700E+03  0.51746131478E+02  0.22935176154E+03  0.00000000000E+00 0.  1.
         21    1    1    2  502  501  0.26827651165E+02  0.17705019895E+02  0.15678549975E+02  0.35763214702E+02  0.00000000000E+00 0.  1.
<scales pt_clust_4="550.00000" pt_clust_5="550.00000" pt_clust_6="32.14328"></scales>
<mgrwt>
<rscale>  0 0.30000000E+03</rscale>
<asrwt>  1 0.32143282E+02</asrwt>
<pdfrwt beam="1">  1        1 0.81358712E+00 0.30000000E+03</pdfrwt>
<pdfrwt beam="2">0</pdfrwt>
<totfact> 0.83034822E-04</totfact>
</mgrwt>
<clustering>
<clus scale="   32.143">  1  6  2 -1</clus>
<clus scale="  456.979">  4  5 -1 -1</clus>
<clus scale="  300.000">  1  4  2 -1</clus>
</clustering>
</event>
<event>
 6    1  0.9678510E-012  0.3000000E+03  0.7818608E-02  0.1093470E+00
          1   -1    0    0  502    0  0.00000000000E+00  0.00000000000E+00  0.22934637595E+03  0.22934637595E+03  0.00000000000E+00 0.  1.
         13   -1    0    0    0    0 -0.00000000000E+00 -0.00000000000E+00 -0.27500000000E+03  0.27500000000E+03  0.00000000000E+00 0.  1.
    9000005    2    1    2  501    0  0.12035810400E+02 -0.41050460216E+02 -0.39813557821E+02  0.46117106599E+03  0.45745342026E+03 0.  0.
         13    1    3    3    0    0 -0.13421054862E+03  0.10842351584E+03  0.10938274876E+03  0.20428586802E+03  0.00000000000E+00 0.  1.
          1    1    3    3  501    0  0.14624635902E+03 -0.14947397605E+03 -0.14919630658E+03  0.25688519798E+03  0.00000000000E+00 0.  1.
         21    1    1    2  502  501 -0.12035810400E+02  0.41050460216E+02 -0.58400662330E+01  0.43175309953E+02  0.00000000000E+00 0.  1.
<scales pt_clust_4="550.00000" pt_clust_5="550.00000" pt_clust_6="42.77853"></scales>
<mgrwt>
<rscale>  0 0.30000000E+03</rscale>
<asrwt>  1 0.42778533E+02</asrwt>
<pdfrwt beam="1">  1        1 0.83398682E+00 0.30000000E+03</pdfrwt>
<pdfrwt beam="2">0</pdfrwt>
<totfact> 0.53042941E-04</totfact>
</mgrwt>
<clustering>
<clus scale="   42.779">  1  6  2 -1</clus>
<clus scale="  457.453">  4  5 -1 -1</clus>
<clus scale="  300.000">  1  4  2 -1</clus>
</clustering>
</event>
<event>
 6    1  0.9678510E-012  0.3000000E+03  0.7818608E-02  0.1093470E+00
          1   -1    0    0  502    0  0.00000000000E+00  0.00000000000E+00  0.23206000828E+03  0.23206000828E+03  0.00000000000E+00 0.  1.
         13   -1    0    0    0    0 -0.00000000000E+00 -0.00000000000E+00 -0.27500000000E+03  0.27500000000E+03  0.00000000000E+00 0.  1.
    9000005    2    1    2  501    0  0.29427745178E+02 -0.30515466579E+02 -0.29398349863E+02  0.46255650336E+03  0.45967061026E+03 0.  0.
         13    1    3    3    0    0  0.19972687397E+02 -0.90417702782E+01  0.21546201344E+03  0.21657456242E+03  0.00000000000E+00 0.  1.
          3    1    3    3  501    0  0.94550577808E+01 -0.21473696300E+02 -0.24486036330E+03  0.24598194094E+03  0.00000000000E+00 0.  1.
         21    1    1    2  502  501 -0.29427745178E+02  0.30515466579E+02 -0.13541641853E+02  0.44503504928E+02  0.00000000000E+00 0.  1.
<scales pt_clust_4="550.00000" pt_clust_5="550.00000" pt_clust_6="42.39325"></scales>
<mgrwt>
<rscale>  0 0.30000000E+03</rscale>
<asrwt>  1 0.42393250E+02</asrwt>
<pdfrwt beam="1">  1        1 0.84385458E+00 0.30000000E+03</pdfrwt>
<pdfrwt beam="2">0</pdfrwt>
<totfact> 0.44625687E-04</totfact>
</mgrwt>
<clustering>
<clus scale="   42.393">  1  6  2 -1</clus>
<clus scale="  459.671">  4  5 -1 -1</clus>
<clus scale="  300.000">  1  4  2 -1</clus>
</clustering>
</event>
<event>
 6    1  0.9678510E-012  0.3000000E+03  0.7818608E-02  0.1093470E+00
          1   -1    0    0  502    0  0.00000000000E+00  0.00000000000E+00  0.24388671069E+03  0.24388671069E+03  0.00000000000E+00 0.  1.
         13   -1    0    0    0    0 -0.00000000000E+00 -0.00000000000E+00 -0.27500000000E+03  0.27500000000E+03  0.00000000000E+00 0.  1.
    9000005    2    1    2  501    0  0.24212183008E+02 -0.32355283612E+02 -0.39970964447E+02  0.47751579588E+03  0.47412083178E+03 0.  0.
         13    1    3    3    0    0  0.15842208370E+03  0.16665526396E+03  0.17797189776E+02  0.23062583024E+03  0.00000000000E+00 0.  1.
          3    1    3    3  501    0 -0.13420990070E+03 -0.19901054757E+03 -0.57768154223E+02  0.24688996564E+03  0.00000000000E+00 0.  1.
         21    1    1    2  502  501 -0.24212183008E+02  0.32355283612E+02  0.88576751387E+01  0.41370914813E+02  0.00000000000E+00 0.  1.
<scales pt_clust_4="550.00000" pt_clust_5="550.00000" pt_clust_6="40.41156"></scales>
<mgrwt>
<rscale>  0 0.30000000E+03</rscale>
<asrwt>  1 0.40411560E+02</asrwt>
<pdfrwt beam="1">  1        1 0.88686077E+00 0.30000000E+03</pdfrwt>
<pdfrwt beam="2">0</pdfrwt>
<totfact> 0.15578914E-04</totfact>
</mgrwt>
<clustering>
<clus scale="   40.412">  1  6  2 -1</clus>
<clus scale="  474.121">  4  5 -1 -1</clus>
<clus scale="  300.000">  1  4  2 -1</clus>
</clustering>
</event>
<event>
 6    1  0.9678510E-012  0.3000000E+03  0.7818608E-02  0.1093470E+00
          1   -1    0    0  502    0  0.00000000000E+00  0.00000000000E+00  0.23277292269E+03  0.23277292269E+03  0.00000000000E+00 0.  1.
         13   -1    0    0    0    0 -0.00000000000E+00 -0.00000000000E+00 -0.27500000000E+03  0.27500000000E+03  0.00000000000E+00 0.  1.
    9000005    2    1    2  501    0  0.30322591943E+02  0.10147468578E+02 -0.66965700612E+02  0.46734483612E+03  0.46141560451E+03 0.  0.
         13    1    3    3    0    0 -0.77289968012E+02 -0.15442446610E+03 -0.17258280362E+03  0.24414233347E+03  0.00000000000E+00 0.  1.
          1    1    3    3  501    0  0.10761255996E+03  0.16457193467E+03  0.10561710301E+03  0.22320250265E+03  0.00000000000E+00 0.  1.
         21    1    1    2  502  501 -0.30322591943E+02 -0.10147468578E+02  0.24738623299E+02  0.40428086566E+02  0.00000000000E+00 0.  1.
<scales pt_clust_4="550.00000" pt_clust_5="550.00000" pt_clust_6="31.97547"></scales>
<mgrwt>
<rscale>  0 0.30000000E+03</rscale>
<asrwt>  1 0.31975470E+02</asrwt>
<pdfrwt beam="1">  1        1 0.84644699E+00 0.30000000E+03</pdfrwt>
<pdfrwt beam="2">0</pdfrwt>
<totfact> 0.44624850E-04</totfact>
</mgrwt>
<clustering>
<clus scale="   31.975">  1  6  2 -1</clus>
<clus scale="  461.416">  4  5 -1 -1</clus>
<clus scale="  300.000">  1  4  2 -1</clus>
</clustering>
</event>
<event>
 6    1  0.9678510E-012  0.3000000E+03  0.7818608E-02  0.1093470E+00
          1   -1    0    0  502    0  0.00000000000E+00  0.00000000000E+00  0.24777253517E+03  0.24777253517E+03  0.00000000000E+00 0.  1.
         13   -1    0    0    0    0 -0.00000000000E+00 -0.00000000000E+00 -0.27500000000E+03  0.27500000000E+03  0.00000000000E+00 0.  1.
    9000005    2    1    2  501    0  0.34328026361E+02  0.13744474482E+02 -0.62367051798E+02  0.47176160943E+03  0.46615667217E+03 0.  0.
         13    1    3    3    0    0 -0.77897339074E+02  0.20660819922E+03 -0.10514110885E+03  0.24456000529E+03  0.00000000000E+00 0.  1.
          1    1    3    3  501    0  0.11222536544E+03 -0.19286372473E+03  0.42774057055E+02  0.22720160414E+03  0.00000000000E+00 0.  1.
         21    1    1    2  502  501 -0.34328026361E+02 -0.13744474482E+02  0.35139586972E+02  0.51010925744E+02  0.00000000000E+00 0.  1.
<scales pt_clust_4="550.00000" pt_clust_5="550.00000" pt_clust_6="36.97734"></scales>
<mgrwt>
<rscale>  0 0.30000000E+03</rscale>
<asrwt>  1 0.36977344E+02</asrwt>
<pdfrwt beam="1">  1        1 0.90099104E+00 0.30000000E+03</pdfrwt>
<pdfrwt beam="2">0</pdfrwt>
<totfact> 0.10613012E-04</totfact>
</mgrwt>
<clustering>
<clus scale="   36.977">  1  6  2 -1</clus>
<clus scale="  466.157">  4  5 -1 -1</clus>
<clus scale="  300.000">  1  4  2 -1</clus>
</clustering>
</event>
<event>
 6    1  0.9678510E-012  0.3000000E+03  0.7818608E-02  0.1093470E+00
          1   -1    0    0  502    0  0.00000000000E+00  0.00000000000E+00  0.24180304029E+03  0.24180304029E+03  0.00000000000E+00 0.  1.
         13   -1    0    0    0    0 -0.00000000000E+00 -0.00000000000E+00 -0.27500000000E+03  0.27500000000E+03  0.00000000000E+00 0.  1.
    9000005    2    1    2  501    0 -0.35291146820E+02  0.29075937108E+02 -0.42547078151E+02  0.47013078004E+03  0.46596332615E+03 0.  0.
         13    1    3    3    0    0  0.10441125833E+03  0.20355612646E+02 -0.21985049035E+03  0.24423410888E+03  0.00000000000E+00 0.  1.
          3    1    3    3  501    0 -0.13970240515E+03  0.87203244617E+01  0.17730341220E+03  0.22589667116E+03  0.00000000000E+00 0.  1.
         21    1    1    2  502  501  0.35291146820E+02 -0.29075937108E+02  0.93501184445E+01  0.46672260257E+02  0.00000000000E+00 0.  1.
<scales pt_clust_4="550.00000" pt_clust_5="550.00000" pt_clust_6="45.72609"></scales>
<mgrwt>
<rscale>  0 0.30000000E+03</rscale>
<asrwt>  1 0.45726088E+02</asrwt>
<pdfrwt beam="1">  1        1 0.87928378E+00 0.30000000E+03</pdfrwt>
<pdfrwt beam="2">0</pdfrwt>
<totfact> 0.19179128E-04</totfact>
</mgrwt>
<clustering>
<clus scale="   45.726">  1  6  2 -1</clus>
<clus scale="  465.963">  4  5 -1 -1</clus>
<clus scale="  300.000">  1  4  2 -1</clus>
</clustering>
</event>
<event>
 6    1  0.9678510E-012  0.3000000E+03  0.7818608E-02  0.1093470E+00
          1   -1    0    0  502    0  0.00000000000E+00  0.00000000000E+00  0.23013527052E+03  0.23013527052E+03  0.00000000000E+00 0.  1.
         13   -1    0    0    0    0 -0.00000000000E+00 -0.00000000000E+00 -0.27500000000E+03  0.27500000000E+03  0.00000000000E+00 0.  1.
    9000005    2    1    2  501    0  0.14758929273E+02  0.34353692505E+02 -0.45088718358E+02  0.46774473223E+03  0.46406264645E+03 0.  0.
         13    1    3    3    0    0  0.13209097608E+03 -0.41165216561E+02  0.16513048631E+03  0.21543137776E+03  0.00000000000E+00 0.  1.
          3    1    3    3  501    0 -0.11733204681E+03  0.75518909066E+02 -0.21021920467E+03  0.25231335447E+03  0.00000000000E+00 0.  1.
         21    1    1    2  502  501 -0.14758929273E+02 -0.34353692505E+02  0.22398887380E+00  0.37390538282E+02  0.00000000000E+00 0.  1.
<scales pt_clust_4="550.00000" pt_clust_5="550.00000" pt_clust_6="37.38987"></scales>
<mgrwt>
<rscale>  0 0.30000000E+03</rscale>
<asrwt>  1 0.37389867E+02</asrwt>
<pdfrwt beam="1">  1        1 0.83685553E+00 0.30000000E+03</pdfrwt>
<pdfrwt beam="2">0</pdfrwt>
<totfact> 0.51805395E-04</totfact>
</mgrwt>
<clustering>
<clus scale="   37.390">  1  6  2 -1</clus>
<clus scale="  464.063">  4  5 -1 -1</clus>
<clus scale="  300.000">  1  4  2 -1</clus>
</clustering>
</event>
<event>
 6    1  0.9678510E-012  0.3000000E+03  0.7818608E-02  0.1093470E+00
          1   -1    0    0  502    0  0.00000000000E+00  0.00000000000E+00  0.23125082578E+03  0.23125082578E+03  0.00000000000E+00 0.  1.
         13   -1    0    0    0    0 -0.00000000000E+00 -0.00000000000E+00 -0.27500000000E+03  0.27500000000E+03  0.00000000000E+00 0.  1.
    9000005    2    1    2  501    0 -0.25911578158E+02  0.27428946257E+02 -0.33622427400E+02  0.46718283407E+03  0.46444114358E+03 0.  0.
         13    1    3    3    0    0 -0.23567531116E+02  0.24112770993E+03 -0.65822652747E+02  0.25105900229E+03  0.00000000000E+00 0.  1.
          3    1    3    3  501    0 -0.23440470424E+01 -0.21369876367E+03  0.32200225348E+02  0.21612383178E+03  0.00000000000E+00 0.  1.
         21    1    1    2  502  501  0.25911578158E+02 -0.27428946257E+02 -0.10126746818E+02  0.39067991713E+02  0.00000000000E+00 0. -1.
<scales pt_clust_4="550.00000" pt_clust_5="550.00000" pt_clust_6="37.73272"></scales>
<mgrwt>
<rscale>  0 0.30000000E+03</rscale>
<asrwt>  1 0.37732723E+02</asrwt>
<pdfrwt beam="1">  1        1 0.84091209E+00 0.30000000E+03</pdfrwt>
<pdfrwt beam="2">0</pdfrwt>
<totfact> 0.48219597E-04</totfact>
</mgrwt>
<clustering>
<clus scale="   37.733">  1  6  2 -1</clus>
<clus scale="  464.441">  4  5 -1 -1</clus>
<clus scale="  300.000">  1  4  2 -1</clus>
</clustering>
</event>
<event>
 6    1  0.9678510E-012  0.3000000E+03  0.7818608E-02  0.1093470E+00
          1   -1    0    0  502    0  0.00000000000E+00  0.00000000000E+00  0.23216710957E+03  0.23216710957E+03  0.00000000000E+00 0.  1.
         13   -1    0    0    0    0 -0.00000000000E+00 -0.00000000000E+00 -0.27500000000E+03  0.27500000000E+03  0.00000000000E+00 0.  1.
    9000005    2    1    2  501    0  0.17160054028E+02 -0.25306448503E+02 -0.65115443514E+02  0.46933331566E+03  0.46378751213E+03 0.  0.
         13    1    3    3    0    0 -0.11173381880E+03  0.11650158177E+03  0.12135365801E+03  0.20194993224E+03  0.00000000000E+00 0.  1.
          3    1    3    3  501    0  0.12889387283E+03 -0.14180803027E+03 -0.18646910153E+03  0.26738338342E+03  0.00000000000E+00 0.  1.
         21    1    1    2  502  501 -0.17160054028E+02  0.25306448503E+02  0.22282553088E+02  0.37833793918E+02  0.00000000000E+00 0. -1.
<scales pt_clust_4="550.00000" pt_clust_5="550.00000" pt_clust_6="30.57587"></scales>
<mgrwt>
<rscale>  0 0.30000000E+03</rscale>
<asrwt>  1 0.30575869E+02</asrwt>
<pdfrwt beam="1">  1        1 0.84424403E+00 0.30000000E+03</pdfrwt>
<pdfrwt beam="2">0</pdfrwt>
<totfact> 0.47059728E-04</totfact>
</mgrwt>
<clustering>
<clus scale="   30.576">  1  6  2 -1</clus>
<clus scale="  463.788">  4  5 -1 -1</clus>
<clus scale="  300.000">  1  4  2 -1</clus>
</clustering>
</event>
<event>
 6    1  0.9678510E-012  0.3000000E+03  0.7818608E-02  0.1093470E+00
          1   -1    0    0  502    0  0.00000000000E+00  0.00000000000E+00  0.23810841502E+03  0.23810841502E+03  0.00000000000E+00 0.  1.
         13   -1    0    0    0    0 -0.00000000000E+00 -0.00000000000E+00 -0.27500000000E+03  0.27500000000E+03  0.00000000000E+00 0.  1.
    9000005    2    1    2  501    0 -0.30109911743E+02 -0.34677434583E+01 -0.46235892669E+02  0.48139172988E+03  0.47820665805E+03 0.  0.
         13    1    3    3    0    0 -0.22203623706E+03 -0.91252998546E+02  0.56573488895E+02  0.24663284444E+03  0.00000000000E+00 0.  1.
          1    1    3    3  501    0  0.19192632531E+03  0.87785255087E+02 -0.10280938156E+03  0.23475888545E+03  0.00000000000E+00 0.  1.
         21    1    1    2  502  501  0.30109911743E+02  0.34677434583E+01  0.93443076889E+01  0.31716685137E+02  0.00000000000E+00 0. -1.
<scales pt_clust_4="550.00000" pt_clust_5="550.00000" pt_clust_6="30.30894"></scales>
<mgrwt>
<rscale>  0 0.30000000E+03</rscale>
<asrwt>  1 0.30308943E+02</asrwt>
<pdfrwt beam="1">  1        1 0.86584878E+00 0.30000000E+03</pdfrwt>
<pdfrwt beam="2">0</pdfrwt>
<totfact> 0.28751309E-04</totfact>
</mgrwt>
<clustering>
<clus scale="   30.309">  1  6  2 -1</clus>
<clus scale="  478.207">  4  5 -1 -1</clus>
<clus scale="  300.000">  1  4  2 -1</clus>
</clustering>
</event>
<event>
 6    1  0.9678510E-012  0.3000000E+03  0.7818608E-02  0.1093470E+00
          1   -1    0    0  502    0  0.00000000000E+00  0.00000000000E+00  0.22543430106E+03  0.22543430106E+03  0.00000000000E+00 0.  1.
         13   -1    0    0    0    0 -0.00000000000E+00 -0.00000000000E+00 -0.27500000000E+03  0.27500000000E+03  0.00000000000E+00 0.  1.
    9000005    2    1    2  501    0 -0.22555574520E+02  0.29378278514E+02 -0.38445837459E+02  0.46176275454E+03  0.45866646038E+03 0.  0.
         13    1    3    3    0    0 -0.19445544579E+03  0.12928373948E+03  0.58259619838E+02  0.24066862902E+03  0.00000000000E+00 0.  1.
          3    1    3    3  501    0  0.17189987127E+03 -0.99905460963E+02 -0.96705457297E+02  0.22109412553E+03  0.00000000000E+00 0.  1.
         21    1    1    2  502  501  0.22555574520E+02 -0.29378278514E+02 -0.11119861483E+02  0.38671546514E+02  0.00000000000E+00 0. -1.
<scales pt_clust_4="550.00000" pt_clust_5="550.00000" pt_clust_6="37.03834"></scales>
<mgrwt>
<rscale>  0 0.30000000E+03</rscale>
<asrwt>  1 0.37038339E+02</asrwt>
<pdfrwt beam="1">  1        1 0.81976109E+00 0.30000000E+03</pdfrwt>
<pdfrwt beam="2">0</pdfrwt>
<totfact> 0.71912269E-04</totfact>
</mgrwt>
<clustering>
<clus scale="   37.038">  1  6  2 -1</clus>
<clus scale="  458.666">  4  5 -1 -1</clus>
<clus scale="  300.000">  1  4  2 -1</clus>
</clustering>
</event>
<event>
 6    1  0.9678510E-012  0.3000000E+03  0.7818608E-02  0.1093470E+00
          1   -1    0    0  502    0  0.00000000000E+00  0.00000000000E+00  0.23650126382E+03  0.23650126382E+03  0.00000000000E+00 0.  1.
         13   -1    0    0    0    0 -0.00000000000E+00 -0.00000000000E+00 -0.27500000000E+03  0.27500000000E+03  0.00000000000E+00 0.  1.
    9000005    2    1    2  501    0  0.27476434400E+02 -0.35256200070E+02 -0.55520700434E+02  0.46367134266E+03  0.45816002853E+03 0.  0.
         13    1    3    3    0    0  0.81553667675E+02 -0.16042159950E+03  0.13811185922E+03  0.22685011782E+03  0.00000000000E+00 0.  1.
          3    1    3    3  501    0 -0.54077233275E+02  0.12516539943E+03 -0.19363255966E+03  0.23682122484E+03  0.00000000000E+00 0.  1.
         21    1    1    2  502  501 -0.27476434400E+02  0.35256200070E+02  0.17021964250E+02  0.47829921155E+02  0.00000000000E+00 0. -1.
<scales pt_clust_4="550.00000" pt_clust_5="550.00000" pt_clust_6="44.69848"></scales>
<mgrwt>
<rscale>  0 0.30000000E+03</rscale>
<asrwt>  1 0.44698480E+02</asrwt>
<pdfrwt beam="1">  1        1 0.86000460E+00 0.30000000E+03</pdfrwt>
<pdfrwt beam="2">0</pdfrwt>
<totfact> 0.30927789E-04</totfact>
</mgrwt>
<clustering>
<clus scale="   44.698">  1  6  2 -1</clus>
<clus scale="  458.160">  4  5 -1 -1</clus>
<clus scale="  300.000">  1  4  2 -1</clus>
</clustering>
</event>
<event>
 6    1  0.9678510E-012  0.3000000E+03  0.7818608E-02  0.1093470E+00
          1   -1    0    0  502    0  0.00000000000E+00  0.00000000000E+00  0.26650791614E+03  0.26650791614E+03  0.00000000000E+00 0.  1.
         13   -1    0    0    0    0 -0.00000000000E+00 -0.00000000000E+00 -0.27500000000E+03  0.27500000000E+03  0.00000000000E+00 0.  1.
    9000005    2    1    2  501    0  0.55334176235E+02 -0.29834684138E+02  0.24165455994E+01  0.47770370285E+03  0.47354303773E+03 0.  0.
         13    1    3    3    0    0  0.11103317835E+03 -0.14568918143E+03 -0.17850172402E+03  0.25576663144E+03  0.00000000000E+00 0.  1.
          1    1    3    3  501    0 -0.55699002115E+02  0.11585449730E+03  0.18091826962E+03  0.22193707140E+03  0.00000000000E+00 0.  1.
         21    1    1    2  502  501 -0.55334176235E+02  0.29834684138E+02 -0.10908629461E+02  0.63804213292E+02  0.00000000000E+00 0. -1.
<scales pt_clust_4="550.00000" pt_clust_5="550.00000" pt_clust_6="62.86480"></scales>
<mgrwt>
<rscale>  0 0.30000000E+03</rscale>
<asrwt>  1 0.62864802E+02</asrwt>
<pdfrwt beam="1">  1        1 0.96911970E+00 0.30000000E+03</pdfrwt>
<pdfrwt beam="2">0</pdfrwt>
<totfact> 0.45973014E-06</totfact>
</mgrwt>
<clustering>
<clus scale="   62.865">  1  6  2 -1</clus>
<clus scale="  473.543">  4  5 -1 -1</clus>
<clus scale="  300.000">  1  4  2 -1</clus>
</clustering>
</event>
<event>
 6    1  0.9678510E-012  0.3000000E+03  0.7818608E-02  0.1093470E+00
          1   -1    0    0  502    0  0.00000000000E+00  0.00000000000E+00  0.23669254545E+03  0.23669254545E+03  0.00000000000E+00 0.  1.
         13   -1    0    0    0    0 -0.00000000000E+00 -0.00000000000E+00 -0.27500000000E+03  0.27500000000E+03  0.00000000000E+00 0.  1.
    9000005    2    1    2  501    0 -0.28932162859E+02 -0.18024571457E+02 -0.64344542662E+02  0.46879866265E+03  0.46310906999E+03 0.  0.
         13    1    3    3    0    0 -0.24073982675E+03 -0.51157530133E+02 -0.64453940139E+02  0.25441514789E+03  0.00000000000E+00 0.  1.
          3    1    3    3  501    0  0.21180766390E+03  0.33132958676E+02  0.10939747687E+00  0.21438351477E+03  0.00000000000E+00 0.  1.
         21    1    1    2  502  501  0.28932162859E+02  0.18024571457E+02  0.26037088110E+02  0.42893882795E+02  0.00000000000E+00 0.  1.
<scales pt_clust_4="550.00000" pt_clust_5="550.00000" pt_clust_6="34.08746"></scales>
<mgrwt>
<rscale>  0 0.30000000E+03</rscale>
<asrwt>  1 0.34087464E+02</asrwt>
<pdfrwt beam="1">  1        1 0.86070017E+00 0.30000000E+03</pdfrwt>
<pdfrwt beam="2">0</pdfrwt>
<totfact> 0.31951054E-04</totfact>
</mgrwt>
<clustering>
<clus scale="   34.087">  1  6  2 -1</clus>
<clus scale="  463.109">  4  5 -1 -1</clus>
<clus scale="  300.000">  1  4  2 -1</clus>
</clustering>
</event>
<event>
 6    1  0.9678510E-012  0.3000000E+03  0.7818608E-02  0.1093470E+00
          1   -1    0    0  502    0  0.00000000000E+00  0.00000000000E+00  0.22808080042E+03  0.22808080042E+03  0.00000000000E+00 0.  1.
         13   -1    0    0    0    0 -0.00000000000E+00 -0.00000000000E+00 -0.27500000000E+03  0.27500000000E+03  0.00000000000E+00 0.  1.
    9000005    2    1    2  501    0  0.29803655921E+02  0.46018958467E+01 -0.35296626075E+02  0.47076177248E+03  0.46846703114E+03 0.  0.
         13    1    3    3    0    0  0.11220300262E+03  0.14584984809E+03  0.13986221599E+03  0.23113444453E+03  0.00000000000E+00 0.  1.
          3    1    3    3  501    0 -0.82399346702E+02 -0.14124795224E+03 -0.17515884206E+03  0.23962732795E+03  0.00000000000E+00 0.  1.
         21    1    1    2  502  501 -0.29803655921E+02 -0.46018958467E+01 -0.11622573509E+02  0.32319027934E+02  0.00000000000E+00 0. -1.
<scales pt_clust_4="550.00000" pt_clust_5="550.00000" pt_clust_6="30.15686"></scales>
<mgrwt>
<rscale>  0 0.30000000E+03</rscale>
<asrwt>  1 0.30156861E+02</asrwt>
<pdfrwt beam="1">  1        1 0.82938473E+00 0.30000000E+03</pdfrwt>
<pdfrwt beam="2">0</pdfrwt>
<totfact> 0.61516747E-04</totfact>
</mgrwt>
<clustering>
<clus scale="   30.157">  1  6  2 -1</clus>
<clus scale="  468.467">  4  5 -1 -1</clus>
<clus scale="  300.000">  1  4  2 -1</clus>
</clustering>
</event>
<event>
 6    1  0.9678510E-012  0.3000000E+03  0.7818608E-02  0.1093470E+00
          1   -1    0    0  502    0  0.00000000000E+00  0.00000000000E+00  0.24495109690E+03  0.24495109690E+03  0.00000000000E+00 0.  1.
         13   -1    0    0    0    0 -0.00000000000E+00 -0.00000000000E+00 -0.27500000000E+03  0.27500000000E+03  0.00000000000E+00 0.  1.
    9000005    2    1    2  501    0  0.40466850585E+02  0.18642281197E+01 -0.43540998707E+02  0.47725357957E+03  0.47353365171E+03 0.  0.
         13    1    3    3    0    0 -0.62834266628E+02  0.21963304325E+03 -0.58326448944E+02  0.23577275797E+03  0.00000000000E+00 0.  1.
          3    1    3    3  501    0  0.10330111721E+03 -0.21776881514E+03  0.14785450237E+02  0.24148082160E+03  0.00000000000E+00 0.  1.
         21    1    1    2  502  501 -0.40466850585E+02 -0.18642281197E+01  0.13492095610E+02  0.42697517336E+02  0.00000000000E+00 0. -1.
<scales pt_clust_4="550.00000" pt_clust_5="550.00000" pt_clust_6="40.50977"></scales>
<mgrwt>
<rscale>  0 0.30000000E+03</rscale>
<asrwt>  1 0.40509768E+02</asrwt>
<pdfrwt beam="1">  1        1 0.89073126E+00 0.30000000E+03</pdfrwt>
<pdfrwt beam="2">0</pdfrwt>
<totfact> 0.13800468E-04</totfact>
</mgrwt>
<clustering>
<clus scale="   40.510">  1  6  2 -1</clus>
<clus scale="  473.534">  4  5 -1 -1</clus>
<clus scale="  300.000">  1  4  2 -1</clus>
</clustering>
</event>
<event>
 6    1  0.9678510E-012  0.3000000E+03  0.7818608E-02  0.1093470E+00
          1   -1    0    0  502    0  0.00000000000E+00  0.00000000000E+00  0.22139008289E+03  0.22139008289E+03  0.00000000000E+00 0.  1.
         13   -1    0    0    0    0 -0.00000000000E+00 -0.00000000000E+00 -0.27500000000E+03  0.27500000000E+03  0.00000000000E+00 0.  1.
    9000005    2    1    2  501    0  0.32608457533E+02 -0.27140881891E+01 -0.63396860628E+02  0.46223657588E+03  0.45669772538E+03 0.  0.
         13    1    3    3    0    0  0.99223969980E+02  0.15551519002E+03  0.11280186948E+03  0.21622819498E+03  0.00000000000E+00 0.  1.
          1    1    3    3  501    0 -0.66615512447E+02 -0.15822927821E+03 -0.17619873011E+03  0.24600838090E+03  0.00000000000E+00 0.  1.
         21    1    1    2  502  501 -0.32608457533E+02  0.27140881891E+01  0.97869435171E+01  0.34153507005E+02  0.00000000000E+00 0. -1.
<scales pt_clust_4="550.00000" pt_clust_5="550.00000" pt_clust_6="32.72121"></scales>
<mgrwt>
<rscale>  0 0.30000000E+03</rscale>
<asrwt>  1 0.32721213E+02</asrwt>
<pdfrwt beam="1">  1        1 0.80505485E+00 0.30000000E+03</pdfrwt>
<pdfrwt beam="2">0</pdfrwt>
<totfact> 0.96417548E-04</totfact>
</mgrwt>
<clustering>
<clus scale="   32.721">  1  6  2 -1</clus>
<clus scale="  456.698">  4  5 -1 -1</clus>
<clus scale="  300.000">  1  4  2 -1</clus>
</clustering>
</event>
<event>
 6    1  0.9678510E-012  0.3000000E+03  0.7818608E-02  0.1093470E+00
          1   -1    0    0  502    0  0.00000000000E+00  0.00000000000E+00  0.22869863682E+03  0.22869863682E+03  0.00000000000E+00 0.  1.
         13   -1    0    0    0    0 -0.00000000000E+00 -0.00000000000E+00 -0.27500000000E+03  0.27500000000E+03  0.00000000000E+00 0.  1.
    9000005    2    1    2  501    0 -0.38599566075E+02  0.60944128034E+01 -0.57213613607E+02  0.46312591719E+03  0.45791391028E+03 0.  0.
         13    1    3    3    0    0 -0.67294984173E+01  0.20237021702E+03 -0.14163358900E+03  0.24710132420E+03  0.00000000000E+00 0.  1.
          1    1    3    3  501    0 -0.31870067658E+02 -0.19627580422E+03  0.84419975397E+02  0.21602459300E+03  0.00000000000E+00 0.  1.
         21    1    1    2  502  501  0.38599566075E+02 -0.60944128034E+01  0.10912250428E+02  0.40572719628E+02  0.00000000000E+00 0.  1.
<scales pt_clust_4="550.00000" pt_clust_5="550.00000" pt_clust_6="39.07772"></scales>
<mgrwt>
<rscale>  0 0.30000000E+03</rscale>
<asrwt>  1 0.39077722E+02</asrwt>
<pdfrwt beam="1">  1        1 0.83163141E+00 0.30000000E+03</pdfrwt>
<pdfrwt beam="2">0</pdfrwt>
<totfact> 0.56187442E-04</totfact>
</mgrwt>
<clustering>
<clus scale="   39.078">  1  6  2 -1</clus>
<clus scale="  457.914">  4  5 -1 -1</clus>
<clus scale="  300.000">  1  4  2 -1</clus>
</clustering>
</event>
<event>
 6    1  0.9678510E-012  0.3000000E+03  0.7818608E-02  0.1093470E+00
          1   -1    0    0  502    0  0.00000000000E+00  0.00000000000E+00  0.24972613169E+03  0.24972613169E+03  0.00000000000E+00 0.  1.
         13   -1    0    0    0    0 -0.00000000000E+00 -0.00000000000E+00 -0.27500000000E+03  0.27500000000E+03  0.00000000000E+00 0.  1.
    9000005    2    1    2  501    0  0.20908524349E+02  0.43855579956E+02 -0.12646896840E+02  0.47452733995E+03  0.47186414791E+03 0.  0.
         13    1    3    3    0    0  0.18056585522E+03  0.72218569528E+02 -0.16272964970E+03  0.25357541038E+03  0.00000000000E+00 0.  1.
          3    1    3    3  501    0 -0.15965733087E+03 -0.28362989572E+02  0.15008275286E+03  0.22095192958E+03  0.00000000000E+00 0.  1.
         21    1    1    2  502  501 -0.20908524349E+02 -0.43855579956E+02 -0.12626971468E+02  0.50198791740E+02  0.00000000000E+00 0. -1.
<scales pt_clust_4="550.00000" pt_clust_5="550.00000" pt_clust_6="48.58478"></scales>
<mgrwt>
<rscale>  0 0.30000000E+03</rscale>
<asrwt>  1 0.48584778E+02</asrwt>
<pdfrwt beam="1">  1        1 0.90809502E+00 0.30000000E+03</pdfrwt>
<pdfrwt beam="2">0</pdfrwt>
<totfact> 0.75074327E-05</totfact>
</mgrwt>
<clustering>
<clus scale="   48.585">  1  6  2 -1</clus>
<clus scale="  471.864">  4  5 -1 -1</clus>
<clus scale="  300.000">  1  4  2 -1</clus>
</clustering>
</event>
<event>
 6    1  0.9678510E-012  0.3000000E+03  0.7818608E-02  0.1093470E+00
          1   -1    0    0  502    0  0.00000000000E+00  0.00000000000E+00  0.23349389697E+03  0.23349389697E+03  0.00000000000E+00 0.  1.
         13   -1    0    0    0    0 -0.00000000000E+00 -0.00000000000E+00 -0.27500000000E+03  0.27500000000E+03  0.00000000000E+00 0.  1.
    9000005    2    1    2  501    0  0.26751437081E+01 -0.42061220983E+02 -0.19884496393E+02  0.46112516700E+03  0.45876434446E+03 0.  0.
         13    1    3    3    0    0 -0.15910082313E+03 -0.18541800013E+03 -0.34266479159E+01  0.24434534702E+03  0.00000000000E+00 0.  1.
          3    1    3    3  501    0  0.16177596684E+03  0.14335677915E+03 -0.16457848477E+02  0.21677981998E+03  0.00000000000E+00 0.  1.
         21    1    1    2  502  501 -0.26751437081E+01  0.42061220983E+02 -0.21621606641E+02  0.47368729961E+02  0.00000000000E+00 0.  1.
<scales pt_clust_4="550.00000" pt_clust_5="550.00000" pt_clust_6="42.14623"></scales>
<mgrwt>
<rscale>  0 0.30000000E+03</rscale>
<asrwt>  1 0.42146227E+02</asrwt>
<pdfrwt beam="1">  1        1 0.84906872E+00 0.30000000E+03</pdfrwt>
<pdfrwt beam="2">0</pdfrwt>
<totfact> 0.40126856E-04</totfact>
</mgrwt>
<clustering>
<clus scale="   42.146">  1  6  2 -1</clus>
<clus scale="  458.764">  4  5 -1 -1</clus>
<clus scale="  300.000">  1  4  2 -1</clus>
</clustering>
</event>
<event>
 6    1  0.9678510E-012  0.3000000E+03  0.7818608E-02  0.1093470E+00
          1   -1    0    0  502    0  0.00000000000E+00  0.00000000000E+00  0.22169533572E+03  0.22169533572E+03  0.00000000000E+00 0.  1.
         13   -1    0    0    0    0 -0.00000000000E+00 -0.00000000000E+00 -0.27500000000E+03  0.27500000000E+03  0.00000000000E+00 0.  1.
    9000005    2    1    2  501    0  0.29115729113E+02  0.82990503282E+01 -0.58223240962E+02  0.46602299778E+03  0.46137933282E+03 0.  0.
         13    1    3    3    0    0  0.20249631709E+03 -0.12158886802E+02 -0.16489961954E+03  0.26142777490E+03  0.00000000000E+00 0.  1.
          1    1    3    3  501    0 -0.17338058798E+03  0.20457937130E+02  0.10667637858E+03  0.20459522288E+03  0.00000000000E+00 0.  1.
         21    1    1    2  502  501 -0.29115729113E+02 -0.82990503282E+01  0.49185766803E+01  0.30672337940E+02  0.00000000000E+00 0.  1.
<scales pt_clust_4="550.00000" pt_clust_5="550.00000" pt_clust_6="30.27540"></scales>
<mgrwt>
<rscale>  0 0.30000000E+03</rscale>
<asrwt>  1 0.30275401E+02</asrwt>
<pdfrwt beam="1">  1        1 0.80616486E+00 0.30000000E+03</pdfrwt>
<pdfrwt beam="2">0</pdfrwt>
<totfact> 0.95969163E-04</totfact>
</mgrwt>
<clustering>
<clus scale="   30.275">  1  6  2 -1</clus>
<clus scale="  461.379">  4  5 -1 -1</clus>
<clus scale="  300.000">  1  4  2 -1</clus>
</clustering>
</event>
<event>
 6    1  0.9678510E-012  0.3000000E+03  0.7818608E-02  0.1093470E+00
          1   -1    0    0  502    0  0.00000000000E+00  0.00000000000E+00  0.23245815050E+03  0.23245815050E+03  0.00000000000E+00 0.  1.
         13   -1    0    0    0    0 -0.00000000000E+00 -0.00000000000E+00 -0.27500000000E+03  0.27500000000E+03  0.00000000000E+00 0.  1.
    9000005    2    1    2  501    0  0.35487777440E+02 -0.16307369507E+01 -0.44361830782E+02  0.47188633606E+03  0.46845138540E+03 0.  0.
         13    1    3    3    0    0  0.11799184879E+03  0.20732396905E+03 -0.62206255693E+02  0.24652570408E+03  0.00000000000E+00 0.  1.
          1    1    3    3  501    0 -0.82504071351E+02 -0.20895470600E+03  0.17844424911E+02  0.22536063199E+03  0.00000000000E+00 0.  1.
         21    1    1    2  502  501 -0.35487777440E+02  0.16307369507E+01  0.18199812824E+01  0.35571814439E+02  0.00000000000E+00 0.  1.
<scales pt_clust_4="550.00000" pt_clust_5="550.00000" pt_clust_6="35.52523"></scales>
<mgrwt>
<rscale>  0 0.30000000E+03</rscale>
<asrwt>  1 0.35525226E+02</asrwt>
<pdfrwt beam="1">  1        1 0.84530237E+00 0.30000000E+03</pdfrwt>
<pdfrwt beam="2">0</pdfrwt>
<totfact> 0.44782974E-04</totfact>
</mgrwt>
<clustering>
<clus scale="   35.525">  1  6  2 -1</clus>
<clus scale="  468.451">  4  5 -1 -1</clus>
<clus scale="  300.000">  1  4  2 -1</clus>
</clustering>
</event>
<event>
 6    1  0.9678510E-012  0.3000000E+03  0.7818608E-02  0.1093470E+00
          1   -1    0    0  502    0  0.00000000000E+00  0.00000000000E+00  0.26434029525E+03  0.26434029525E+03  0.00000000000E+00 0.  1.
         13   -1    0    0    0    0 -0.00000000000E+00 -0.00000000000E+00 -0.27500000000E+03  0.27500000000E+03  0.00000000000E+00 0.  1.
    9000005    2    1    2  501    0  0.35123599376E+02  0.25675791724E+01 -0.39386612825E+02  0.49389257866E+03  0.49105836139E+03 0.  0.
         13    1    3    3    0    0  0.59087173458E+02  0.19452532138E+03 -0.16619438583E+03  0.26258706862E+03  0.00000000000E+00 0.  1.
          1    1    3    3  501    0 -0.23963574083E+02 -0.19195774221E+03  0.12680777301E+03  0.23130551003E+03  0.00000000000E+00 0.  1.
         21    1    1    2  502  501 -0.35123599376E+02 -0.25675791724E+01  0.28726908075E+02  0.45447716592E+02  0.00000000000E+00 0. -1.
<scales pt_clust_4="550.00000" pt_clust_5="550.00000" pt_clust_6="35.21732"></scales>
<mgrwt>
<rscale>  0 0.30000000E+03</rscale>
<asrwt>  1 0.35217321E+02</asrwt>
<pdfrwt beam="1">  1        1 0.96123744E+00 0.30000000E+03</pdfrwt>
<pdfrwt beam="2">0</pdfrwt>
<totfact> 0.71248388E-06</totfact>
</mgrwt>
<clustering>
<clus scale="   35.217">  1  6  2 -1</clus>
<clus scale="  491.058">  4  5 -1 -1</clus>
<clus scale="  300.000">  1  4  2 -1</clus>
</clustering>
</event>
<event>
 6    1  0.9678510E-012  0.3000000E+03  0.7818608E-02  0.1093470E+00
          1   -1    0    0  502    0  0.00000000000E+00  0.00000000000E+00  0.23187867125E+03  0.23187867125E+03  0.00000000000E+00 0.  1.
         13   -1    0    0    0    0 -0.00000000000E+00 -0.00000000000E+00 -0.27500000000E+03  0.27500000000E+03  0.00000000000E+00 0.  1.
    9000005    2    1    2  501    0  0.32957075155E+02  0.42324104925E+01 -0.50006324256E+02  0.47294512937E+03  0.46911872786E+03 0.  0.
         13    1    3    3    0    0 -0.17546087497E+03  0.12336683775E+03  0.36886758122E+02  0.21763852652E+03  0.00000000000E+00 0.  1.
          3    1    3    3  501    0  0.20841795012E+03 -0.11913442726E+03 -0.86893082378E+02  0.25530660285E+03  0.00000000000E+00 0.  1.
         21    1    1    2  502  501 -0.32957075155E+02 -0.42324104925E+01  0.68849955055E+01  0.33933541879E+02  0.00000000000E+00 0.  1.
<scales pt_clust_4="550.00000" pt_clust_5="550.00000" pt_clust_6="33.22773"></scales>
<mgrwt>
<rscale>  0 0.30000000E+03</rscale>
<asrwt>  1 0.33227731E+02</asrwt>
<pdfrwt beam="1">  1        1 0.84319517E+00 0.30000000E+03</pdfrwt>
<pdfrwt beam="2">0</pdfrwt>
<totfact> 0.47285998E-04</totfact>
</mgrwt>
<clustering>
<clus scale="   33.228">  1  6  2 -1</clus>
<clus scale="  469.119">  4  5 -1 -1</clus>
<clus scale="  300.000">  1  4  2 -1</clus>
</clustering>
</event>
<event>
 6    1  0.9678510E-012  0.3000000E+03  0.7818608E-02  0.1093470E+00
          1   -1    0    0  502    0  0.00000000000E+00  0.00000000000E+00  0.23313409850E+03  0.23313409850E+03  0.00000000000E+00 0.  1.
         13   -1    0    0    0    0 -0.00000000000E+00 -0.00000000000E+00 -0.27500000000E+03  0.27500000000E+03  0.00000000000E+00 0.  1.
    9000005    2    1    2  501    0 -0.37482211097E+02 -0.20254602748E+01 -0.55739500513E+02  0.46811541052E+03  0.46326679896E+03 0.  0.
         13    1    3    3    0    0  0.63485186134E+02 -0.20015919701E+03  0.58677561801E+02  0.21803011091E+03  0.00000000000E+00 0.  1.
          3    1    3    3  501    0 -0.10096739723E+03  0.19813373673E+03 -0.11441706231E+03  0.25008529961E+03  0.00000000000E+00 0.  1.
         21    1    1    2  502  501  0.37482211097E+02  0.20254602748E+01  0.13873599018E+02  0.40018687981E+02  0.00000000000E+00 0.  1.
<scales pt_clust_4="550.00000" pt_clust_5="550.00000" pt_clust_6="37.53690"></scales>
<mgrwt>
<rscale>  0 0.30000000E+03</rscale>
<asrwt>  1 0.37536897E+02</asrwt>
<pdfrwt beam="1">  1        1 0.84776036E+00 0.30000000E+03</pdfrwt>
<pdfrwt beam="2">0</pdfrwt>
<totfact> 0.42136689E-04</totfact>
</mgrwt>
<clustering>
<clus scale="   37.537">  1  6  2 -1</clus>
<clus scale="  463.267">  4  5 -1 -1</clus>
<clus scale="  300.000">  1  4  2 -1</clus>
</clustering>
</event>
<event>
 6    1  0.9678510E-012  0.3000000E+03  0.7818608E-02  0.1093470E+00
          1   -1    0    0  502    0  0.00000000000E+00  0.00000000000E+00  0.23791697759E+03  0.23791697759E+03  0.00000000000E+00 0.  1.
         13   -1    0    0    0    0 -0.00000000000E+00 -0.00000000000E+00 -0.27500000000E+03  0.27500000000E+03  0.00000000000E+00 0.  1.
    9000005    2    1    2  501    0  0.12744838419E+02  0.37986013223E+02 -0.44898645405E+02  0.47209477689E+03  0.46824376333E+03 0.  0.
         13    1    3    3    0    0  0.15409018400E+03 -0.70813793948E+02 -0.18077478545E+03  0.24786670061E+03  0.00000000000E+00 0.  1.
          1    1    3    3  501    0 -0.14134534558E+03  0.10879980717E+03  0.13587614004E+03  0.22422807628E+03  0.00000000000E+00 0.  1.
         21    1    1    2  502  501 -0.12744838419E+02 -0.37986013223E+02  0.78156229912E+01  0.40822200696E+02  0.00000000000E+00 0. -1.
<scales pt_clust_4="550.00000" pt_clust_5="550.00000" pt_clust_6="40.06705"></scales>
<mgrwt>
<rscale>  0 0.30000000E+03</rscale>
<asrwt>  1 0.40067045E+02</asrwt>
<pdfrwt beam="1">  1        1 0.86515265E+00 0.30000000E+03</pdfrwt>
<pdfrwt beam="2">0</pdfrwt>
<totfact> 0.27760282E-04</totfact>
</mgrwt>
<clustering>
<clus scale="   40.067">  1  6  2 -1</clus>
<clus scale="  468.244">  4  5 -1 -1</clus>
<clus scale="  300.000">  1  4  2 -1</clus>
</clustering>
</event>
<event>
 6    1  0.9678510E-012  0.3000000E+03  0.7818608E-02  0.1093470E+00
          1   -1    0    0  502    0  0.00000000000E+00  0.00000000000E+00  0.24953125290E+03  0.24953125290E+03  0.00000000000E+00 0.  1.
         13   -1    0    0    0    0 -0.00000000000E+00 -0.00000000000E+00 -0.27500000000E+03  0.27500000000E+03  0.00000000000E+00 0.  1.
    9000005    2    1    2  501    0 -0.30364275572E+02 -0.13877961003E+02 -0.49309758367E+02  0.48350710330E+03  0.47982609312E+03 0.  0.
         13    1    3    3    0    0  0.16949368620E+03  0.14688902617E+03 -0.15956261955E+02  0.22485350334E+03  0.00000000000E+00 0.  1.
          1    1    3    3  501    0 -0.19985796177E+03 -0.16076698717E+03 -0.33353496412E+02  0.25865359995E+03  0.00000000000E+00 0.  1.
         21    1    1    2  502  501  0.30364275572E+02  0.13877961003E+02  0.23841011270E+02  0.41024149607E+02  0.00000000000E+00 0.  1.
<scales pt_clust_4="550.00000" pt_clust_5="550.00000" pt_clust_6="33.38543"></scales>
<mgrwt>
<rscale>  0 0.30000000E+03</rscale>
<asrwt>  1 0.33385431E+02</asrwt>
<pdfrwt beam="1">  1        1 0.90738637E+00 0.30000000E+03</pdfrwt>
<pdfrwt beam="2">0</pdfrwt>
<totfact> 0.83369481E-05</totfact>
</mgrwt>
<clustering>
<clus scale="   33.385">  1  6  2 -1</clus>
<clus scale="  479.826">  4  5 -1 -1</clus>
<clus scale="  300.000">  1  4  2 -1</clus>
</clustering>
</event>
<event>
 6    1  0.9678510E-012  0.3000000E+03  0.7818608E-02  0.1093470E+00
          1   -1    0    0  502    0  0.00000000000E+00  0.00000000000E+00  0.23963653897E+03  0.23963653897E+03  0.00000000000E+00 0.  1.
         13   -1    0    0    0    0 -0.00000000000E+00 -0.00000000000E+00 -0.27500000000E+03  0.27500000000E+03  0.00000000000E+00 0.  1.
    9000005    2    1    2  501    0 -0.36707581988E+02 -0.15710617567E+02 -0.31304956179E+02  0.47450249431E+03  0.47178209667E+03 0.  0.
         13    1    3    3    0    0 -0.21963198183E+03 -0.25509404026E+02  0.10635456452E+03  0.24535735272E+03  0.00000000000E+00 0.  1.
          1    1    3    3  501    0  0.18292439984E+03  0.97987864594E+01 -0.13765952070E+03  0.22914514159E+03  0.00000000000E+00 0.  1.
         21    1    1    2  502  501  0.36707581988E+02  0.15710617567E+02 -0.40585048484E+01  0.40134044667E+02  0.00000000000E+00 0. -1.
<scales pt_clust_4="550.00000" pt_clust_5="550.00000" pt_clust_6="39.92833"></scales>
<mgrwt>
<rscale>  0 0.30000000E+03</rscale>
<asrwt>  1 0.39928332E+02</asrwt>
<pdfrwt beam="1">  1        1 0.87140560E+00 0.30000000E+03</pdfrwt>
<pdfrwt beam="2">0</pdfrwt>
<totfact> 0.23912646E-04</totfact>
</mgrwt>
<clustering>
<clus scale="   39.928">  1  6  2 -1</clus>
<clus scale="  471.782">  4  5 -1 -1</clus>
<clus scale="  300.000">  1  4  2 -1</clus>
</clustering>
</event>
<event>
 6    1  0.9678510E-012  0.3000000E+03  0.7818608E-02  0.1093470E+00
          1   -1    0    0  502    0  0.00000000000E+00  0.00000000000E+00  0.25557319230E+03  0.25557319230E+03  0.00000000000E+00 0.  1.
         13   -1    0    0    0    0 -0.00000000000E+00 -0.00000000000E+00 -0.27500000000E+03  0.27500000000E+03  0.00000000000E+00 0.  1.
    9000005    2    1    2  501    0  0.21147272935E+02  0.28174642575E+02 -0.24073826169E+02  0.49503993439E+03  0.49319769860E+03 0.  0.
         13    1    3    3    0    0 -0.16364679728E+03 -0.50919134818E+02  0.15104640958E+03  0.22844704068E+03  0.00000000000E+00 0.  1.
          1    1    3    3  501    0  0.18479407022E+03  0.79093777393E+02 -0.17512023574E+03  0.26659289371E+03  0.00000000000E+00 0.  1.
         21    1    1    2  502  501 -0.21147272935E+02 -0.28174642575E+02  0.46470184708E+01  0.35533257907E+02  0.00000000000E+00 0.  1.
<scales pt_clust_4="550.00000" pt_clust_5="550.00000" pt_clust_6="35.22808"></scales>
<mgrwt>
<rscale>  0 0.30000000E+03</rscale>
<asrwt>  1 0.35228080E+02</asrwt>
<pdfrwt beam="1">  1        1 0.92935706E+00 0.30000000E+03</pdfrwt>
<pdfrwt beam="2">0</pdfrwt>
<totfact> 0.26905499E-05</totfact>
</mgrwt>
<clustering>
<clus scale="   35.228">  1  6  2 -1</clus>
<clus scale="  493.198">  4  5 -1 -1</clus>
<clus scale="  300.000">  1  4  2 -1</clus>
</clustering>
</event>
<event>
 6    1  0.9678510E-012  0.3000000E+03  0.7818608E-02  0.1093470E+00
          1   -1    0    0  502    0  0.00000000000E+00  0.00000000000E+00  0.24403207799E+03  0.24403207799E+03  0.00000000000E+00 0.  1.
         13   -1    0    0    0    0 -0.00000000000E+00 -0.00000000000E+00 -0.27500000000E+03  0.27500000000E+03  0.00000000000E+00 0.  1.
    9000005    2    1    2  501    0 -0.52847946207E+01  0.42304030271E+02 -0.41672788959E+02  0.47507580190E+03  0.47132031165E+03 0.  0.
         13    1    3    3    0    0 -0.16394024603E+02  0.13848023739E+03 -0.22675454281E+03  0.26620135776E+03  0.00000000000E+00 0.  1.
          3    1    3    3  501    0  0.11109229983E+02 -0.96176207116E+02  0.18508175385E+03  0.20887444414E+03  0.00000000000E+00 0.  1.
         21    1    1    2  502  501  0.52847946207E+01 -0.42304030271E+02  0.10704866947E+02  0.43956276090E+02  0.00000000000E+00 0. -1.
<scales pt_clust_4="550.00000" pt_clust_5="550.00000" pt_clust_6="42.63285"></scales>
<mgrwt>
<rscale>  0 0.30000000E+03</rscale>
<asrwt>  1 0.42632852E+02</asrwt>
<pdfrwt beam="1">  1        1 0.88738937E+00 0.30000000E+03</pdfrwt>
<pdfrwt beam="2">0</pdfrwt>
<totfact> 0.15171446E-04</totfact>
</mgrwt>
<clustering>
<clus scale="   42.633">  1  6  2 -1</clus>
<clus scale="  471.320">  4  5 -1 -1</clus>
<clus scale="  300.000">  1  4  2 -1</clus>
</clustering>
</event>
<event>
 6    1  0.9678510E-012  0.3000000E+03  0.7818608E-02  0.1093470E+00
          1   -1    0    0  502    0  0.00000000000E+00  0.00000000000E+00  0.24117616640E+03  0.24117616640E+03  0.00000000000E+00 0.  1.
         13   -1    0    0    0    0 -0.00000000000E+00 -0.00000000000E+00 -0.27500000000E+03  0.27500000000E+03  0.00000000000E+00 0.  1.
    9000005    2    1    2  501    0 -0.28234444588E+02 -0.10850071329E+02 -0.65260586847E+02  0.47255074533E+03  0.46704427500E+03 0.  0.
         13    1    3    3    0    0 -0.85244577211E+01  0.13093299552E+03  0.15921698815E+03  0.20631569259E+03  0.00000000000E+00 0.  1.
          1    1    3    3  501    0 -0.19709986867E+02 -0.14178306684E+03 -0.22447757500E+03  0.26623505273E+03  0.00000000000E+00 0.  1.
         21    1    1    2  502  501  0.28234444588E+02  0.10850071329E+02  0.31436753249E+02  0.43625421074E+02  0.00000000000E+00 0.  1.
<scales pt_clust_4="550.00000" pt_clust_5="550.00000" pt_clust_6="30.24744"></scales>
<mgrwt>
<rscale>  0 0.30000000E+03</rscale>
<asrwt>  1 0.30247445E+02</asrwt>
<pdfrwt beam="1">  1        1 0.87700424E+00 0.30000000E+03</pdfrwt>
<pdfrwt beam="2">0</pdfrwt>
<totfact> 0.21997195E-04</totfact>
</mgrwt>
<clustering>
<clus scale="   30.247">  1  6  2 -1</clus>
<clus scale="  467.044">  4  5 -1 -1</clus>
<clus scale="  300.000">  1  4  2 -1</clus>
</clustering>
</event>
<event>
 6    1  0.9678510E-012  0.3000000E+03  0.7818608E-02  0.1093470E+00
          1   -1    0    0  502    0  0.00000000000E+00  0.00000000000E+00  0.24137452034E+03  0.24137452034E+03  0.00000000000E+00 0.  1.
         13   -1    0    0    0    0 -0.00000000000E+00 -0.00000000000E+00 -0.27500000000E+03  0.27500000000E+03  0.00000000000E+00 0.  1.
    9000005    2    1    2  501    0 -0.17322679033E+02 -0.35954292920E+02 -0.64557149295E+02  0.46588140621E+03  0.45965756029E+03 0.  0.
         13    1    3    3    0    0 -0.39873425493E+02 -0.18419759293E+03 -0.19203761707E+03  0.26906707281E+03  0.00000000000E+00 0.  1.
          3    1    3    3  501    0  0.22550746460E+02  0.14824330001E+03  0.12748046778E+03  0.19681433339E+03  0.00000000000E+00 0.  1.
         21    1    1    2  502  501  0.17322679033E+02  0.35954292920E+02  0.30931669630E+02  0.50493114129E+02  0.00000000000E+00 0. -1.
<scales pt_clust_4="550.00000" pt_clust_5="550.00000" pt_clust_6="39.90973"></scales>
<mgrwt>
<rscale>  0 0.30000000E+03</rscale>
<asrwt>  1 0.39909728E+02</asrwt>
<pdfrwt beam="1">  1        1 0.87772553E+00 0.30000000E+03</pdfrwt>
<pdfrwt beam="2">0</pdfrwt>
<totfact> 0.20497855E-04</totfact>
</mgrwt>
<clustering>
<clus scale="   39.910">  1  6  2 -1</clus>
<clus scale="  459.658">  4  5 -1 -1</clus>
<clus scale="  300.000">  1  4  2 -1</clus>
</clustering>
</event>
<event>
 6    1  0.9678510E-012  0.3000000E+03  0.7818608E-02  0.1093470E+00
          1   -1    0    0  502    0  0.00000000000E+00  0.00000000000E+00  0.24735720617E+03  0.24735720617E+03  0.00000000000E+00 0.  1.
         13   -1    0    0    0    0 -0.00000000000E+00 -0.00000000000E+00 -0.27500000000E+03  0.27500000000E+03  0.00000000000E+00 0.  1.
    9000005    2    1    2  501    0  0.32279884354E+02  0.98498538927E+01 -0.26131826431E+02  0.48857416933E+03  0.48670610847E+03 0.  0.
         13    1    3    3    0    0  0.93169583532E+02 -0.21824225353E+03  0.46011628816E+02  0.24171744353E+03  0.00000000000E+00 0.  1.
          1    1    3    3  501    0 -0.60889699177E+02  0.22809210742E+03 -0.72143455247E+02  0.24685672579E+03  0.00000000000E+00 0.  1.
         21    1    1    2  502  501 -0.32279884354E+02 -0.98498538927E+01 -0.15109674029E+01  0.33783036840E+02  0.00000000000E+00 0. -1.
<scales pt_clust_4="550.00000" pt_clust_5="550.00000" pt_clust_6="33.74923"></scales>
<mgrwt>
<rscale>  0 0.30000000E+03</rscale>
<asrwt>  1 0.33749230E+02</asrwt>
<pdfrwt beam="1">  1        1 0.89948075E+00 0.30000000E+03</pdfrwt>
<pdfrwt beam="2">0</pdfrwt>
<totfact> 0.11285589E-04</totfact>
</mgrwt>
<clustering>
<clus scale="   33.749">  1  6  2 -1</clus>
<clus scale="  486.706">  4  5 -1 -1</clus>
<clus scale="  300.000">  1  4  2 -1</clus>
</clustering>
</event>
<event>
 6    1  0.9678510E-012  0.3000000E+03  0.7818608E-02  0.1093470E+00
          1   -1    0    0  502    0  0.00000000000E+00  0.00000000000E+00  0.23672326372E+03  0.23672326372E+03  0.00000000000E+00 0.  1.
         13   -1    0    0    0    0 -0.00000000000E+00 -0.00000000000E+00 -0.27500000000E+03  0.27500000000E+03  0.00000000000E+00 0.  1.
    9000005    2    1    2  501    0 -0.12129816095E+01  0.34868292930E+02 -0.59413577449E+02  0.47093067578E+03  0.46586313336E+03 0.  0.
         13    1    3    3    0    0 -0.20296259267E+02  0.24841423878E+03 -0.30994147429E+01  0.24926126563E+03  0.00000000000E+00 0.  1.
          3    1    3    3  501    0  0.19083277658E+02 -0.21354594585E+03 -0.56314162706E+02  0.22166941015E+03  0.00000000000E+00 0.  1.
         21    1    1    2  502  501  0.12129816095E+01 -0.34868292930E+02  0.21136841166E+02  0.40792587938E+02  0.00000000000E+00 0.  1.
<scales pt_clust_4="550.00000" pt_clust_5="550.00000" pt_clust_6="34.88938"></scales>
<mgrwt>
<rscale>  0 0.30000000E+03</rscale>
<asrwt>  1 0.34889385E+02</asrwt>
<pdfrwt beam="1">  1        1 0.86081187E+00 0.30000000E+03</pdfrwt>
<pdfrwt beam="2">0</pdfrwt>
<totfact> 0.31724342E-04</totfact>
</mgrwt>
<clustering>
<clus scale="   34.889">  1  6  2 -1</clus>
<clus scale="  465.863">  4  5 -1 -1</clus>
<clus scale="  300.000">  1  4  2 -1</clus>
</clustering>
</event>
<event>
 6    1  0.9678510E-012  0.3000000E+03  0.7818608E-02  0.1093470E+00
          1   -1    0    0  502    0  0.00000000000E+00  0.00000000000E+00  0.22519130845E+03  0.22519130845E+03  0.00000000000E+00 0.  1.
         13   -1    0    0    0    0 -0.00000000000E+00 -0.00000000000E+00 -0.27500000000E+03  0.27500000000E+03  0.00000000000E+00 0.  1.
    9000005    2    1    2  501    0 -0.16883908907E+02  0.34272783756E+02 -0.53484801014E+02  0.46180897049E+03  0.45710743945E+03 0.  0.
         13    1    3    3    0    0 -0.16414282974E+03 -0.38607133678E+02  0.13190678446E+03  0.21408591526E+03  0.00000000000E+00 0.  1.
          3    1    3    3  501    0  0.14725892084E+03  0.72879917434E+02 -0.18539158547E+03  0.24772305523E+03  0.00000000000E+00 0.  1.
         21    1    1    2  502  501  0.16883908907E+02 -0.34272783756E+02  0.36761094658E+01  0.38382337959E+02  0.00000000000E+00 0.  1.
<scales pt_clust_4="550.00000" pt_clust_5="550.00000" pt_clust_6="38.20589"></scales>
<mgrwt>
<rscale>  0 0.30000000E+03</rscale>
<asrwt>  1 0.38205891E+02</asrwt>
<pdfrwt beam="1">  1        1 0.81887749E+00 0.30000000E+03</pdfrwt>
<pdfrwt beam="2">0</pdfrwt>
<totfact> 0.72758504E-04</totfact>
</mgrwt>
<clustering>
<clus scale="   38.206">  1  6  2 -1</clus>
<clus scale="  457.107">  4  5 -1 -1</clus>
<clus scale="  300.000">  1  4  2 -1</clus>
</clustering>
</event>
<event>
 6    1  0.9678510E-012  0.3000000E+03  0.7818608E-02  0.1093470E+00
          1   -1    0    0  502    0  0.00000000000E+00  0.00000000000E+00  0.23568149014E+03  0.23568149014E+03  0.00000000000E+00 0.  1.
         13   -1    0    0    0    0 -0.00000000000E+00 -0.00000000000E+00 -0.27500000000E+03  0.27500000000E+03  0.00000000000E+00 0.  1.
    9000005    2    1    2  501    0 -0.27824104136E+02  0.11802589571E+02 -0.54751501147E+02  0.47674538678E+03  0.47262559711E+03 0.  0.
         13    1    3    3    0    0 -0.66485180807E+02  0.20459113191E+03 -0.14598904342E+03  0.25998194422E+03  0.00000000000E+00 0.  1.
          3    1    3    3  501    0  0.38661076671E+02 -0.19278854234E+03  0.91237542278E+02  0.21676344255E+03  0.00000000000E+00 0.  1.
         21    1    1    2  502  501  0.27824104136E+02 -0.11802589571E+02  0.15432991291E+02  0.33936103367E+02  0.00000000000E+00 0. -1.
<scales pt_clust_4="550.00000" pt_clust_5="550.00000" pt_clust_6="30.22386"></scales>
<mgrwt>
<rscale>  0 0.30000000E+03</rscale>
<asrwt>  1 0.30223863E+02</asrwt>
<pdfrwt beam="1">  1        1 0.85702360E+00 0.30000000E+03</pdfrwt>
<pdfrwt beam="2">0</pdfrwt>
<totfact> 0.35738658E-04</totfact>
</mgrwt>
<clustering>
<clus scale="   30.224">  1  6  2 -1</clus>
<clus scale="  472.626">  4  5 -1 -1</clus>
<clus scale="  300.000">  1  4  2 -1</clus>
</clustering>
</event>
<event>
 6    1  0.9678510E-012  0.3000000E+03  0.7818608E-02  0.1093470E+00
          1   -1    0    0  502    0  0.00000000000E+00  0.00000000000E+00  0.22077549035E+03  0.22077549035E+03  0.00000000000E+00 0.  1.
         13   -1    0    0    0    0 -0.00000000000E+00 -0.00000000000E+00 -0.27500000000E+03  0.27500000000E+03  0.00000000000E+00 0.  1.
    9000005    2    1    2  501    0 -0.68944318741E+01 -0.32145276896E+02 -0.57943339854E+02  0.46268951575E+03  0.45786821830E+03 0.  0.
         13    1    3    3    0    0 -0.21972083678E+03 -0.51197232570E+02  0.37435032544E+02  0.22869146114E+03  0.00000000000E+00 0.  1.
          1    1    3    3  501    0  0.21282640490E+03  0.19051955674E+02 -0.95378372398E+02  0.23399805461E+03  0.00000000000E+00 0.  1.
         21    1    1    2  502  501  0.68944318741E+01  0.32145276896E+02  0.37188302081E+01  0.33085974607E+02  0.00000000000E+00 0.  1.
<scales pt_clust_4="550.00000" pt_clust_5="550.00000" pt_clust_6="32.87631"></scales>
<mgrwt>
<rscale>  0 0.30000000E+03</rscale>
<asrwt>  1 0.32876314E+02</asrwt>
<pdfrwt beam="1">  1        1 0.80281996E+00 0.30000000E+03</pdfrwt>
<pdfrwt beam="2">0</pdfrwt>
<totfact> 0.10009342E-03</totfact>
</mgrwt>
<clustering>
<clus scale="   32.876">  1  6  2 -1</clus>
<clus scale="  457.868">  4  5 -1 -1</clus>
<clus scale="  300.000">  1  4  2 -1</clus>
</clustering>
</event>
<event>
 6    1  0.9678510E-012  0.3000000E+03  0.7818608E-02  0.1093470E+00
          1   -1    0    0  502    0  0.00000000000E+00  0.00000000000E+00  0.22078334474E+03  0.22078334474E+03  0.00000000000E+00 0.  1.
         13   -1    0    0    0    0 -0.00000000000E+00 -0.00000000000E+00 -0.27500000000E+03  0.27500000000E+03  0.00000000000E+00 0.  1.
    9000005    2    1    2  501    0  0.16232376879E+01 -0.30109111934E+02 -0.43424231079E+02  0.46375726253E+03  0.46073413286E+03 0.  0.
         13    1    3    3    0    0  0.41623882965E+02 -0.23585564811E+03 -0.76810658105E+02  0.25151602648E+03  0.00000000000E+00 0.  1.
          1    1    3    3  501    0 -0.40000645277E+02  0.20574653618E+03  0.33386427026E+02  0.21224123605E+03  0.00000000000E+00 0.  1.
         21    1    1    2  502  501 -0.16232376879E+01  0.30109111934E+02 -0.10792424178E+02  0.32026082210E+02  0.00000000000E+00 0. -1.
<scales pt_clust_4="550.00000" pt_clust_5="550.00000" pt_clust_6="30.15285"></scales>
<mgrwt>
<rscale>  0 0.30000000E+03</rscale>
<asrwt>  1 0.30152851E+02</asrwt>
<pdfrwt beam="1">  1        1 0.80284853E+00 0.30000000E+03</pdfrwt>
<pdfrwt beam="2">0</pdfrwt>
<totfact> 0.10170972E-03</totfact>
</mgrwt>
<clustering>
<clus scale="   30.153">  1  6  2 -1</clus>
<clus scale="  460.734">  4  5 -1 -1</clus>
<clus scale="  300.000">  1  4  2 -1</clus>
</clustering>
</event>
<event>
 6    1  0.9678510E-012  0.3000000E+03  0.7818608E-02  0.1093470E+00
          1   -1    0    0  502    0  0.00000000000E+00  0.00000000000E+00  0.24277974596E+03  0.24277974596E+03  0.00000000000E+00 0.  1.
         13   -1    0    0    0    0 -0.00000000000E+00 -0.00000000000E+00 -0.27500000000E+03  0.27500000000E+03  0.00000000000E+00 0.  1.
    9000005    2    1    2  501    0 -0.27180735671E+00  0.31464783826E+02 -0.40626076770E+02  0.48521036838E+03  0.48248162345E+03 0.  0.
         13    1    3    3    0    0 -0.91030580478E+02 -0.61439810892E+02  0.19061621040E+03  0.21999081029E+03  0.00000000000E+00 0.  1.
          3    1    3    3  501    0  0.90758773121E+02  0.92904594718E+02 -0.23124228717E+03  0.26521955809E+03  0.00000000000E+00 0.  1.
         21    1    1    2  502  501  0.27180735671E+00 -0.31464783826E+02  0.84058227320E+01  0.32569377585E+02  0.00000000000E+00 0.  1.
<scales pt_clust_4="550.00000" pt_clust_5="550.00000" pt_clust_6="31.46596"></scales>
<mgrwt>
<rscale>  0 0.30000000E+03</rscale>
<asrwt>  1 0.31465958E+02</asrwt>
<pdfrwt beam="1">  1        1 0.88283544E+00 0.30000000E+03</pdfrwt>
<pdfrwt beam="2">0</pdfrwt>
<totfact> 0.18521143E-04</totfact>
</mgrwt>
<clustering>
<clus scale="   31.466">  1  6  2 -1</clus>
<clus scale="  482.482">  4  5 -1 -1</clus>
<clus scale="  300.000">  1  4  2 -1</clus>
</clustering>
</event>
<event>
 6    1  0.9678510E-012  0.3000000E+03  0.7818608E-02  0.1093470E+00
          1   -1    0    0  502    0  0.00000000000E+00  0.00000000000E+00  0.22473083469E+03  0.22473083469E+03  0.00000000000E+00 0.  1.
         13   -1    0    0    0    0 -0.00000000000E+00 -0.00000000000E+00 -0.27500000000E+03  0.27500000000E+03  0.00000000000E+00 0.  1.
    9000005    2    1    2  501    0 -0.34927074185E+02  0.91539967791E+01 -0.60574959356E+02  0.46218212554E+03  0.45677050616E+03 0.  0.
         13    1    3    3    0    0  0.22344658250E+02 -0.19928492585E+03 -0.12539167988E+03  0.23650970130E+03  0.00000000000E+00 0.  1.
          1    1    3    3  501    0 -0.57271732434E+02  0.20843892263E+03  0.64816720525E+02  0.22567242424E+03  0.00000000000E+00 0.  1.
         21    1    1    2  502  501  0.34927074185E+02 -0.91539967791E+01  0.10305794045E+02  0.37548709153E+02  0.00000000000E+00 0.  1.
<scales pt_clust_4="550.00000" pt_clust_5="550.00000" pt_clust_6="36.10673"></scales>
<mgrwt>
<rscale>  0 0.30000000E+03</rscale>
<asrwt>  1 0.36106733E+02</asrwt>
<pdfrwt beam="1">  1        1 0.81720304E+00 0.30000000E+03</pdfrwt>
<pdfrwt beam="2">0</pdfrwt>
<totfact> 0.75933064E-04</totfact>
</mgrwt>
<clustering>
<clus scale="   36.107">  1  6  2 -1</clus>
<clus scale="  456.771">  4  5 -1 -1</clus>
<clus scale="  300.000">  1  4  2 -1</clus>
</clustering>
</event>
<event>
 6    1  0.9678510E-012  0.3000000E+03  0.7818608E-02  0.1093470E+00
          1   -1    0    0  502    0  0.00000000000E+00  0.00000000000E+00  0.24573330791E+03  0.24573330791E+03  0.00000000000E+00 0.  1.
         13   -1    0    0    0    0 -0.00000000000E+00 -0.00000000000E+00 -0.27500000000E+03  0.27500000000E+03  0.00000000000E+00 0.  1.
    9000005    2    1    2  501    0 -0.11972174194E+02  0.27985251366E+02 -0.46451263326E+02  0.48577881267E+03  0.48259385380E+03 0.  0.
         13    1    3    3    0    0 -0.13954890489E+03 -0.16720904415E+03 -0.11013068229E+03  0.24405230685E+03  0.00000000000E+00 0.  1.
          1    1    3    3  501    0  0.12757673069E+03  0.19519429551E+03  0.63679418964E+02  0.24172650582E+03  0.00000000000E+00 0.  1.
         21    1    1    2  502  501  0.11972174194E+02 -0.27985251366E+02  0.17184571238E+02  0.34954495242E+02  0.00000000000E+00 0. -1.
<scales pt_clust_4="550.00000" pt_clust_5="550.00000" pt_clust_6="30.43858"></scales>
<mgrwt>
<rscale>  0 0.30000000E+03</rscale>
<asrwt>  1 0.30438582E+02</asrwt>
<pdfrwt beam="1">  1        1 0.89357567E+00 0.30000000E+03</pdfrwt>
<pdfrwt beam="2">0</pdfrwt>
<totfact> 0.13439390E-04</totfact>
</mgrwt>
<clustering>
<clus scale="   30.439">  1  6  2 -1</clus>
<clus scale="  482.594">  4  5 -1 -1</clus>
<clus scale="  300.000">  1  4  2 -1</clus>
</clustering>
</event>
<event>
 6    1  0.9678510E-012  0.3000000E+03  0.7818608E-02  0.1093470E+00
          1   -1    0    0  502    0  0.00000000000E+00  0.00000000000E+00  0.22863013393E+03  0.22863013393E+03  0.00000000000E+00 0.  1.
         13   -1    0    0    0    0 -0.00000000000E+00 -0.00000000000E+00 -0.27500000000E+03  0.27500000000E+03  0.00000000000E+00 0.  1.
    9000005    2    1    2  501    0 -0.32158486035E+02  0.66472876052E+01 -0.57129033655E+02  0.46907417433E+03  0.46442275987E+03 0.  0.
         13    1    3    3    0    0 -0.47098284753E+02  0.23269179603E+03 -0.48857196479E+02  0.24238553178E+03  0.00000000000E+00 0.  1.
          1    1    3    3  501    0  0.14939798718E+02 -0.22604450843E+03 -0.82718371759E+01  0.22668864256E+03  0.00000000000E+00 0.  1.
         21    1    1    2  502  501  0.32158486035E+02 -0.66472876052E+01  0.10759167588E+02  0.34555959598E+02  0.00000000000E+00 0.  1.
<scales pt_clust_4="550.00000" pt_clust_5="550.00000" pt_clust_6="32.83831"></scales>
<mgrwt>
<rscale>  0 0.30000000E+03</rscale>
<asrwt>  1 0.32838311E+02</asrwt>
<pdfrwt beam="1">  1        1 0.83138231E+00 0.30000000E+03</pdfrwt>
<pdfrwt beam="2">0</pdfrwt>
<totfact> 0.58299562E-04</totfact>
</mgrwt>
<clustering>
<clus scale="   32.838">  1  6  2 -1</clus>
<clus scale="  464.423">  4  5 -1 -1</clus>
<clus scale="  300.000">  1  4  2 -1</clus>
</clustering>
</event>
<event>
 6    1  0.9678510E-012  0.3000000E+03  0.7818608E-02  0.1093470E+00
          1   -1    0    0  502    0  0.00000000000E+00  0.00000000000E+00  0.25656395621E+03  0.25656395621E+03  0.00000000000E+00 0.  1.
         13   -1    0    0    0    0 -0.00000000000E+00 -0.00000000000E+00 -0.27500000000E+03  0.27500000000E+03  0.00000000000E+00 0.  1.
    9000005    2    1    2  501    0 -0.22648156119E+02  0.23792311124E+02 -0.22573179810E+02  0.49845611819E+03  0.49686008118E+03 0.  0.
         13    1    3    3    0    0 -0.14134394901E+03 -0.18702300258E+03 -0.83699168429E+02  0.24892020048E+03  0.00000000000E+00 0.  1.
          1    1    3    3  501    0  0.11869579289E+03  0.21081531370E+03  0.61125988620E+02  0.24953591770E+03  0.00000000000E+00 0.  1.
         21    1    1    2  502  501  0.22648156119E+02 -0.23792311124E+02  0.41371360223E+01  0.33107838025E+02  0.00000000000E+00 0. -1.
<scales pt_clust_4="550.00000" pt_clust_5="550.00000" pt_clust_6="32.84833"></scales>
<mgrwt>
<rscale>  0 0.30000000E+03</rscale>
<asrwt>  1 0.32848334E+02</asrwt>
<pdfrwt beam="1">  1        1 0.93295984E+00 0.30000000E+03</pdfrwt>
<pdfrwt beam="2">0</pdfrwt>
<totfact> 0.24157499E-05</totfact>
</mgrwt>
<clustering>
<clus scale="   32.848">  1  6  2 -1</clus>
<clus scale="  496.860">  4  5 -1 -1</clus>
<clus scale="  300.000">  1  4  2 -1</clus>
</clustering>
</event>
<event>
 6    1  0.9678510E-012  0.3000000E+03  0.7818608E-02  0.1093470E+00
          1   -1    0    0  502    0  0.00000000000E+00  0.00000000000E+00  0.23107581841E+03  0.23107581841E+03  0.00000000000E+00 0.  1.
         13   -1    0    0    0    0 -0.00000000000E+00 -0.00000000000E+00 -0.27500000000E+03  0.27500000000E+03  0.00000000000E+00 0.  1.
    9000005    2    1    2  501    0  0.21504748892E+02  0.27583759123E+02 -0.65166027327E+02  0.46515474801E+03  0.45923742278E+03 0.  0.
         13    1    3    3    0    0  0.22427193503E+03  0.15695958354E+02 -0.11989916825E+03  0.25479418066E+03  0.00000000000E+00 0.  1.
          1    1    3    3  501    0 -0.20276718614E+03  0.11887800769E+02  0.54733140924E+02  0.21036056735E+03  0.00000000000E+00 0.  1.
         21    1    1    2  502  501 -0.21504748892E+02 -0.27583759123E+02  0.21241845735E+02  0.40921070398E+02  0.00000000000E+00 0.  1.
<scales pt_clust_4="550.00000" pt_clust_5="550.00000" pt_clust_6="34.97596"></scales>
<mgrwt>
<rscale>  0 0.30000000E+03</rscale>
<asrwt>  1 0.34975963E+02</asrwt>
<pdfrwt beam="1">  1        1 0.84027570E+00 0.30000000E+03</pdfrwt>
<pdfrwt beam="2">0</pdfrwt>
<totfact> 0.49468106E-04</totfact>
</mgrwt>
<clustering>
<clus scale="   34.976">  1  6  2 -1</clus>
<clus scale="  459.237">  4  5 -1 -1</clus>
<clus scale="  300.000">  1  4  2 -1</clus>
</clustering>
</event>
<event>
 6    1  0.9678510E-012  0.3000000E+03  0.7818608E-02  0.1093470E+00
          1   -1    0    0  502    0  0.00000000000E+00  0.00000000000E+00  0.24831602516E+03  0.24831602516E+03  0.00000000000E+00 0.  1.
         13   -1    0    0    0    0 -0.00000000000E+00 -0.00000000000E+00 -0.27500000000E+03  0.27500000000E+03  0.00000000000E+00 0.  1.
    9000005    2    1    2  501    0  0.35099473614E+02  0.25281340505E+02 -0.22101909123E+02  0.47981758206E+03  0.47735238392E+03 0.  0.
         13    1    3    3    0    0 -0.92626595807E+01  0.70466907350E+02  0.21915362377E+03  0.23039030515E+03  0.00000000000E+00 0.  1.
          3    1    3    3  501    0  0.44362133195E+02 -0.45185566845E+02 -0.24125553290E+03  0.24942727691E+03  0.00000000000E+00 0.  1.
         21    1    1    2  502  501 -0.35099473614E+02 -0.25281340505E+02 -0.45820657220E+01  0.43498443099E+02  0.00000000000E+00 0.  1.
<scales pt_clust_4="550.00000" pt_clust_5="550.00000" pt_clust_6="43.25646"></scales>
<mgrwt>
<rscale>  0 0.30000000E+03</rscale>
<asrwt>  1 0.43256457E+02</asrwt>
<pdfrwt beam="1">  1        1 0.90296736E+00 0.30000000E+03</pdfrwt>
<pdfrwt beam="2">0</pdfrwt>
<totfact> 0.96510384E-05</totfact>
</mgrwt>
<clustering>
<clus scale="   43.256">  1  6  2 -1</clus>
<clus scale="  477.352">  4  5 -1 -1</clus>
<clus scale="  300.000">  1  4  2 -1</clus>
</clustering>
</event>
<event>
 6    1  0.9678510E-012  0.3000000E+03  0.7818608E-02  0.1093470E+00
          1   -1    0    0  502    0  0.00000000000E+00  0.00000000000E+00  0.22366359070E+03  0.22366359070E+03  0.00000000000E+00 0.  1.
         13   -1    0    0    0    0 -0.00000000000E+00 -0.00000000000E+00 -0.27500000000E+03  0.27500000000E+03  0.00000000000E+00 0.  1.
    9000005    2    1    2  501    0 -0.24838268715E+02 -0.19236822997E+02 -0.65323279061E+02  0.46427423947E+03  0.45858090202E+03 0.  0.
         13    1    3    3    0    0  0.12517729905E+03  0.60172983248E+02  0.14045205851E+03  0.19752702309E+03  0.00000000000E+00 0.  1.
          3    1    3    3  501    0 -0.15001556776E+03 -0.79409806245E+02 -0.20577533757E+03  0.26674721639E+03  0.00000000000E+00 0.  1.
         21    1    1    2  502  501  0.24838268715E+02  0.19236822997E+02  0.13986869757E+02  0.34389351221E+02  0.00000000000E+00 0. -1.
<scales pt_clust_4="550.00000" pt_clust_5="550.00000" pt_clust_6="31.41648"></scales>
<mgrwt>
<rscale>  0 0.30000000E+03</rscale>
<asrwt>  1 0.31416476E+02</asrwt>
<pdfrwt beam="1">  1        1 0.81332215E+00 0.30000000E+03</pdfrwt>
<pdfrwt beam="2">0</pdfrwt>
<totfact> 0.83804465E-04</totfact>
</mgrwt>
<clustering>
<clus scale="   31.416">  1  6  2 -1</clus>
<clus scale="  458.581">  4  5 -1 -1</clus>
<clus scale="  300.000">  1  4  2 -1</clus>
</clustering>
</event>
<event>
 6    1  0.9678510E-012  0.3000000E+03  0.7818608E-02  0.1093470E+00
          1   -1    0    0  502    0  0.00000000000E+00  0.00000000000E+00  0.24666398917E+03  0.24666398917E+03  0.00000000000E+00 0.  1.
         13   -1    0    0    0    0 -0.00000000000E+00 -0.00000000000E+00 -0.27500000000E+03  0.27500000000E+03  0.00000000000E+00 0.  1.
    9000005    2    1    2  501    0 -0.31025149746E+02 -0.94419319577E+01 -0.45693885213E+02  0.48488076203E+03  0.48163234136E+03 0.  0.
         13    1    3    3    0    0 -0.22946951497E+03  0.94827426326E+02 -0.73625276541E+02  0.25897718129E+03  0.00000000000E+00 0.  1.
          1    1    3    3  501    0  0.19844436523E+03 -0.10426935828E+03  0.27931391327E+02  0.22590358073E+03  0.00000000000E+00 0.  1.
         21    1    1    2  502  501  0.31025149746E+02  0.94419319577E+01  0.17357874380E+02  0.36783227141E+02  0.00000000000E+00 0. -1.
<scales pt_clust_4="550.00000" pt_clust_5="550.00000" pt_clust_6="32.43008"></scales>
<mgrwt>
<rscale>  0 0.30000000E+03</rscale>
<asrwt>  1 0.32430079E+02</asrwt>
<pdfrwt beam="1">  1        1 0.89695996E+00 0.30000000E+03</pdfrwt>
<pdfrwt beam="2">0</pdfrwt>
<totfact> 0.12163035E-04</totfact>
</mgrwt>
<clustering>
<clus scale="   32.430">  1  6  2 -1</clus>
<clus scale="  481.632">  4  5 -1 -1</clus>
<clus scale="  300.000">  1  4  2 -1</clus>
</clustering>
</event>
<event>
 6    1  0.9678510E-012  0.3000000E+03  0.7818608E-02  0.1093470E+00
          1   -1    0    0  502    0  0.00000000000E+00  0.00000000000E+00  0.23004647935E+03  0.23004647935E+03  0.00000000000E+00 0.  1.
         13   -1    0    0    0    0 -0.00000000000E+00 -0.00000000000E+00 -0.27500000000E+03  0.27500000000E+03  0.00000000000E+00 0.  1.
    9000005    2    1    2  501    0 -0.27707889987E+02 -0.13350491984E+02 -0.68261926667E+02  0.46645574737E+03  0.46040776581E+03 0.  0.
         13    1    3    3    0    0 -0.29642523793E+02  0.20355741481E+03  0.60227537798E+02  0.21434004910E+03  0.00000000000E+00 0.  1.
          1    1    3    3  501    0  0.19346338062E+01 -0.21690790679E+03 -0.12848946446E+03  0.25211569827E+03  0.00000000000E+00 0.  1.
         21    1    1    2  502  501  0.27707889987E+02  0.13350491984E+02  0.23308406021E+02  0.38590731983E+02  0.00000000000E+00 0. -1.
<scales pt_clust_4="550.00000" pt_clust_5="550.00000" pt_clust_6="30.75651"></scales>
<mgrwt>
<rscale>  0 0.30000000E+03</rscale>
<asrwt>  1 0.30756508E+02</asrwt>
<pdfrwt beam="1">  1        1 0.83653265E+00 0.30000000E+03</pdfrwt>
<pdfrwt beam="2">0</pdfrwt>
<totfact> 0.54035438E-04</totfact>
</mgrwt>
<clustering>
<clus scale="   30.757">  1  6  2 -1</clus>
<clus scale="  460.408">  4  5 -1 -1</clus>
<clus scale="  300.000">  1  4  2 -1</clus>
</clustering>
</event>
<event>
 6    1  0.9678510E-012  0.3000000E+03  0.7818608E-02  0.1093470E+00
          1   -1    0    0  502    0  0.00000000000E+00  0.00000000000E+00  0.25166979024E+03  0.25166979024E+03  0.00000000000E+00 0.  1.
         13   -1    0    0    0    0 -0.00000000000E+00 -0.00000000000E+00 -0.27500000000E+03  0.27500000000E+03  0.00000000000E+00 0.  1.
    9000005    2    1    2  501    0 -0.33570580534E+02  0.74399278400E+01 -0.29278116866E+02  0.49177403115E+03  0.48969598036E+03 0.  0.
         13    1    3    3    0    0  0.82627330239E+02  0.21869157945E+03  0.47871087190E+02  0.23863135505E+03  0.00000000000E+00 0.  1.
          3    1    3    3  501    0 -0.11619791077E+03 -0.21125165161E+03 -0.77149204056E+02  0.25314267610E+03  0.00000000000E+00 0.  1.
         21    1    1    2  502  501  0.33570580534E+02 -0.74399278400E+01  0.59479071023E+01  0.34895759091E+02  0.00000000000E+00 0.  1.
<scales pt_clust_4="550.00000" pt_clust_5="550.00000" pt_clust_6="34.38512"></scales>
<mgrwt>
<rscale>  0 0.30000000E+03</rscale>
<asrwt>  1 0.34385119E+02</asrwt>
<pdfrwt beam="1">  1        1 0.91516287E+00 0.30000000E+03</pdfrwt>
<pdfrwt beam="2">0</pdfrwt>
<totfact> 0.53855667E-05</totfact>
</mgrwt>
<clustering>
<clus scale="   34.385">  1  6  2 -1</clus>
<clus scale="  489.696">  4  5 -1 -1</clus>
<clus scale="  300.000">  1  4  2 -1</clus>
</clustering>
</event>
<event>
 6    1  0.9678510E-012  0.3000000E+03  0.7818608E-02  0.1093470E+00
          1   -1    0    0  502    0  0.00000000000E+00  0.00000000000E+00  0.25202320025E+03  0.25202320025E+03  0.00000000000E+00 0.  1.
         13   -1    0    0    0    0 -0.00000000000E+00 -0.00000000000E+00 -0.27500000000E+03  0.27500000000E+03  0.00000000000E+00 0.  1.
    9000005    2    1    2  501    0  0.31775258991E+02 -0.10111540345E+02 -0.98427602391E+01  0.49118448758E+03  0.48995245747E+03 0.  0.
         13    1    3    3    0    0  0.12943569463E+03 -0.12039307460E+03 -0.18930535603E+03  0.25900696762E+03  0.00000000000E+00 0.  1.
          1    1    3    3  501    0 -0.97660435637E+02  0.11028153426E+03  0.17946259579E+03  0.23217751996E+03  0.00000000000E+00 0.  1.
         21    1    1    2  502  501 -0.31775258991E+02  0.10111540345E+02 -0.13134039509E+02  0.35838712671E+02  0.00000000000E+00 0.  1.
<scales pt_clust_4="550.00000" pt_clust_5="550.00000" pt_clust_6="33.34534"></scales>
<mgrwt>
<rscale>  0 0.30000000E+03</rscale>
<asrwt>  1 0.33345336E+02</asrwt>
<pdfrwt beam="1">  1        1 0.91644800E+00 0.30000000E+03</pdfrwt>
<pdfrwt beam="2">0</pdfrwt>
<totfact> 0.50603944E-05</totfact>
</mgrwt>
<clustering>
<clus scale="   33.345">  1  6  2 -1</clus>
<clus scale="  489.952">  4  5 -1 -1</clus>
<clus scale="  300.000">  1  4  2 -1</clus>
</clustering>
</event>
<event>
 6    1  0.9678510E-012  0.3000000E+03  0.7818608E-02  0.1093470E+00
          1   -1    0    0  502    0  0.00000000000E+00  0.00000000000E+00  0.23189237330E+03  0.23189237330E+03  0.00000000000E+00 0.  1.
         13   -1    0    0    0    0 -0.00000000000E+00 -0.00000000000E+00 -0.27500000000E+03  0.27500000000E+03  0.00000000000E+00 0.  1.
    9000005    2    1    2  501    0 -0.11354775766E+02  0.39005165336E+02 -0.38611118800E+02  0.46601998116E+03  0.46263751522E+03 0.  0.
         13    1    3    3    0    0 -0.14123970200E+03 -0.16747063387E+03 -0.36385779768E+02  0.22207879593E+03  0.00000000000E+00 0.  1.
          1    1    3    3  501    0  0.12988492623E+03  0.20647579921E+03 -0.22253390319E+01  0.24394118524E+03  0.00000000000E+00 0.  1.
         21    1    1    2  502  501  0.11354775766E+02 -0.39005165336E+02 -0.44965079022E+01  0.40872392136E+02  0.00000000000E+00 0.  1.
<scales pt_clust_4="550.00000" pt_clust_5="550.00000" pt_clust_6="40.62432"></scales>
<mgrwt>
<rscale>  0 0.30000000E+03</rscale>
<asrwt>  1 0.40624322E+02</asrwt>
<pdfrwt beam="1">  1        1 0.84324499E+00 0.30000000E+03</pdfrwt>
<pdfrwt beam="2">0</pdfrwt>
<totfact> 0.45512449E-04</totfact>
</mgrwt>
<clustering>
<clus scale="   40.624">  1  6  2 -1</clus>
<clus scale="  462.638">  4  5 -1 -1</clus>
<clus scale="  300.000">  1  4  2 -1</clus>
</clustering>
</event>
<event>
 6    1  0.9678510E-012  0.3000000E+03  0.7818608E-02  0.1093470E+00
          1   -1    0    0  502    0  0.00000000000E+00  0.00000000000E+00  0.25482734439E+03  0.25482734439E+03  0.00000000000E+00 0.  1.
         13   -1    0    0    0    0 -0.00000000000E+00 -0.00000000000E+00 -0.27500000000E+03  0.27500000000E+03  0.00000000000E+00 0.  1.
    9000005    2    1    2  501    0 -0.18399683935E+02 -0.31382642261E+02 -0.73606387904E+02  0.46518538935E+03  0.45788222014E+03 0.  0.
         13    1    3    3    0    0  0.68387358656E+02  0.11844870978E+03 -0.20596369399E+03  0.24724071451E+03  0.00000000000E+00 0.  1.
          3    1    3    3  501    0 -0.86787042591E+02 -0.14983135204E+03  0.13235730608E+03  0.21794467484E+03  0.00000000000E+00 0.  1.
         21    1    1    2  502  501  0.18399683935E+02  0.31382642261E+02  0.53433732292E+02  0.64641955036E+02  0.00000000000E+00 0. -1.
<scales pt_clust_4="550.00000" pt_clust_5="550.00000" pt_clust_6="36.37882"></scales>
<mgrwt>
<rscale>  0 0.30000000E+03</rscale>
<asrwt>  1 0.36378821E+02</asrwt>
<pdfrwt beam="1">  1        1 0.92664489E+00 0.30000000E+03</pdfrwt>
<pdfrwt beam="2">0</pdfrwt>
<totfact> 0.30113933E-05</totfact>
</mgrwt>
<clustering>
<clus scale="   36.379">  1  6  2 -1</clus>
<clus scale="  457.882">  4  5 -1 -1</clus>
<clus scale="  300.000">  1  4  2 -1</clus>
</clustering>
</event>
<event>
 6    1  0.9678510E-012  0.3000000E+03  0.7818608E-02  0.1093470E+00
          1   -1    0    0  502    0  0.00000000000E+00  0.00000000000E+00  0.22991510616E+03  0.22991510616E+03  0.00000000000E+00 0.  1.
         13   -1    0    0    0    0 -0.00000000000E+00 -0.00000000000E+00 -0.27500000000E+03  0.27500000000E+03  0.00000000000E+00 0.  1.
    9000005    2    1    2  501    0 -0.36982365861E+02 -0.12849443287E+02 -0.29684587838E+02  0.46284405908E+03  0.46022890467E+03 0.  0.
         13    1    3    3    0    0  0.56382631690E+00 -0.21164153542E+03 -0.11775843682E+03  0.24219724783E+03  0.00000000000E+00 0.  1.
          3    1    3    3  501    0 -0.37546192177E+02  0.19879209213E+03  0.88073848978E+02  0.22064681125E+03  0.00000000000E+00 0.  1.
         21    1    1    2  502  501  0.36982365861E+02  0.12849443287E+02 -0.15400306001E+02  0.42071047079E+02  0.00000000000E+00 0. -1.
<scales pt_clust_4="550.00000" pt_clust_5="550.00000" pt_clust_6="39.15106"></scales>
<mgrwt>
<rscale>  0 0.30000000E+03</rscale>
<asrwt>  1 0.39151055E+02</asrwt>
<pdfrwt beam="1">  1        1 0.83605493E+00 0.30000000E+03</pdfrwt>
<pdfrwt beam="2">0</pdfrwt>
<totfact> 0.52060245E-04</totfact>
</mgrwt>
<clustering>
<clus scale="   39.151">  1  6  2 -1</clus>
<clus scale="  460.229">  4  5 -1 -1</clus>
<clus scale="  300.000">  1  4  2 -1</clus>
</clustering>
</event>
<event>
 6    1  0.9678510E-012  0.3000000E+03  0.7818608E-02  0.1093470E+00
          1   -1    0    0  502    0  0.00000000000E+00  0.00000000000E+00  0.22782640363E+03  0.22782640363E+03  0.00000000000E+00 0.  1.
         13   -1    0    0    0    0 -0.00000000000E+00 -0.00000000000E+00 -0.27500000000E+03  0.27500000000E+03  0.00000000000E+00 0.  1.
    9000005    2    1    2  501    0  0.28241439448E+02 -0.10937718305E+02 -0.67406570839E+02  0.46640407751E+03  0.46051265471E+03 0.  0.
         13    1    3    3    0    0 -0.19598021150E+03  0.62664248981E+02 -0.98951765651E+02  0.22831229341E+03  0.00000000000E+00 0.  1.
          1    1    3    3  501    0  0.22422165094E+03 -0.73601967286E+02  0.31545194813E+02  0.23809178410E+03  0.00000000000E+00 0.  1.
         21    1    1    2  502  501 -0.28241439448E+02  0.10937718305E+02  0.20232974465E+02  0.36422326114E+02  0.00000000000E+00 0. -1.
<scales pt_clust_4="550.00000" pt_clust_5="550.00000" pt_clust_6="30.28552"></scales>
<mgrwt>
<rscale>  0 0.30000000E+03</rscale>
<asrwt>  1 0.30285518E+02</asrwt>
<pdfrwt beam="1">  1        1 0.82845965E+00 0.30000000E+03</pdfrwt>
<pdfrwt beam="2">0</pdfrwt>
<totfact> 0.62589655E-04</totfact>
</mgrwt>
<clustering>
<clus scale="   30.286">  1  6  2 -1</clus>
<clus scale="  460.513">  4  5 -1 -1</clus>
<clus scale="  300.000">  1  4  2 -1</clus>
</clustering>
</event>
<event>
 6    1  0.9678510E-012  0.3000000E+03  0.7818608E-02  0.1093470E+00
          1   -1    0    0  502    0  0.00000000000E+00  0.00000000000E+00  0.22273004494E+03  0.22273004494E+03  0.00000000000E+00 0.  1.
         13   -1    0    0    0    0 -0.00000000000E+00 -0.00000000000E+00 -0.27500000000E+03  0.27500000000E+03  0.00000000000E+00 0.  1.
    9000005    2    1    2  501    0 -0.87918898423E+01  0.34817322192E+02 -0.53284629431E+02  0.46180550158E+03  0.45731337866E+03 0.  0.
         13    1    3    3    0    0 -0.17855956109E+01  0.15420389942E+03  0.15688755171E+03  0.21999030622E+03  0.00000000000E+00 0.  1.
          1    1    3    3  501    0 -0.70062942314E+01 -0.11938657723E+03 -0.21017218114E+03  0.24181519536E+03  0.00000000000E+00 0.  1.
         21    1    1    2  502  501  0.87918898423E+01 -0.34817322192E+02  0.10146743722E+01  0.35924543361E+02  0.00000000000E+00 0. -1.
<scales pt_clust_4="550.00000" pt_clust_5="550.00000" pt_clust_6="35.91021"></scales>
<mgrwt>
<rscale>  0 0.30000000E+03</rscale>
<asrwt>  1 0.35910211E+02</asrwt>
<pdfrwt beam="1">  1        1 0.80992744E+00 0.30000000E+03</pdfrwt>
<pdfrwt beam="2">0</pdfrwt>
<totfact> 0.86910986E-04</totfact>
</mgrwt>
<clustering>
<clus scale="   35.910">  1  6  2 -1</clus>
<clus scale="  457.313">  4  5 -1 -1</clus>
<clus scale="  300.000">  1  4  2 -1</clus>
</clustering>
</event>
<event>
 6    1  0.9678510E-012  0.3000000E+03  0.7818608E-02  0.1093470E+00
          1   -1    0    0  502    0  0.00000000000E+00  0.00000000000E+00  0.24428036491E+03  0.24428036491E+03  0.00000000000E+00 0.  1.
         13   -1    0    0    0    0 -0.00000000000E+00 -0.00000000000E+00 -0.27500000000E+03  0.27500000000E+03  0.00000000000E+00 0.  1.
    9000005    2    1    2  501    0 -0.32433368055E+02 -0.13567374014E+02 -0.35866120135E+02  0.48374892377E+03  0.48113474794E+03 0.  0.
         13    1    3    3    0    0 -0.13842743940E+03 -0.10327947567E+03 -0.20295140276E+03  0.26649217241E+03  0.00000000000E+00 0.  1.
          3    1    3    3  501    0  0.10599407134E+03  0.89712101658E+02  0.16708528262E+03  0.21725675136E+03  0.00000000000E+00 0.  1.
         21    1    1    2  502  501  0.32433368055E+02  0.13567374014E+02  0.51464850426E+01  0.35531441138E+02  0.00000000000E+00 0.  1.
<scales pt_clust_4="550.00000" pt_clust_5="550.00000" pt_clust_6="35.15675"></scales>
<mgrwt>
<rscale>  0 0.30000000E+03</rscale>
<asrwt>  1 0.35156749E+02</asrwt>
<pdfrwt beam="1">  1        1 0.88829224E+00 0.30000000E+03</pdfrwt>
<pdfrwt beam="2">0</pdfrwt>
<totfact> 0.15274941E-04</totfact>
</mgrwt>
<clustering>
<clus scale="   35.157">  1  6  2 -1</clus>
<clus scale="  481.135">  4  5 -1 -1</clus>
<clus scale="  300.000">  1  4  2 -1</clus>
</clustering>
</event>
<event>
 6    1  0.9678510E-012  0.3000000E+03  0.7818608E-02  0.1093470E+00
          1   -1    0    0  502    0  0.00000000000E+00  0.00000000000E+00  0.22952175225E+03  0.22952175225E+03  0.00000000000E+00 0.  1.
         13   -1    0    0    0    0 -0.00000000000E+00 -0.00000000000E+00 -0.27500000000E+03  0.27500000000E+03  0.00000000000E+00 0.  1.
    9000005    2    1    2  501    0  0.41300463565E+02  0.75865241223E+01 -0.45359575413E+02  0.46253011353E+03  0.45838120730E+03 0.  0.
         13    1    3    3    0    0  0.21430460558E+03  0.12650404202E+03 -0.43246495200E+02  0.25258661083E+03  0.00000000000E+00 0.  1.
          1    1    3    3  501    0 -0.17300414202E+03 -0.11891751790E+03 -0.21130802129E+01  0.20994350270E+03  0.00000000000E+00 0.  1.
         21    1    1    2  502  501 -0.41300463565E+02 -0.75865241223E+01 -0.11867233716E+00  0.41991638716E+02  0.00000000000E+00 0. -1.
<scales pt_clust_4="550.00000" pt_clust_5="550.00000" pt_clust_6="41.99147"></scales>
<mgrwt>
<rscale>  0 0.30000000E+03</rscale>
<asrwt>  1 0.41991471E+02</asrwt>
<pdfrwt beam="1">  1        1 0.83462455E+00 0.30000000E+03</pdfrwt>
<pdfrwt beam="2">0</pdfrwt>
<totfact> 0.52648805E-04</totfact>
</mgrwt>
<clustering>
<clus scale="   41.991">  1  6  2 -1</clus>
<clus scale="  458.381">  4  5 -1 -1</clus>
<clus scale="  300.000">  1  4  2 -1</clus>
</clustering>
</event>
<event>
 6    1  0.9678510E-012  0.3000000E+03  0.7818608E-02  0.1093470E+00
          1   -1    0    0  502    0  0.00000000000E+00  0.00000000000E+00  0.22819997041E+03  0.22819997041E+03  0.00000000000E+00 0.  1.
         13   -1    0    0    0    0 -0.00000000000E+00 -0.00000000000E+00 -0.27500000000E+03  0.27500000000E+03  0.00000000000E+00 0.  1.
    9000005    2    1    2  501    0 -0.46799992486E+01 -0.29741008931E+02 -0.54807162923E+02  0.47204641220E+03  0.46788626840E+03 0.  0.
         13    1    3    3    0    0 -0.13720587390E+03  0.12924780896E+03  0.10018682983E+03  0.21346627093E+03  0.00000000000E+00 0.  1.
          3    1    3    3  501    0  0.13252587466E+03 -0.15898881789E+03 -0.15499399275E+03  0.25858014126E+03  0.00000000000E+00 0.  1.
         21    1    1    2  502  501  0.46799992486E+01  0.29741008931E+02  0.80071333327E+01  0.31153558215E+02  0.00000000000E+00 0.  1.
<scales pt_clust_4="550.00000" pt_clust_5="550.00000" pt_clust_6="30.10698"></scales>
<mgrwt>
<rscale>  0 0.30000000E+03</rscale>
<asrwt>  1 0.30106976E+02</asrwt>
<pdfrwt beam="1">  1        1 0.82981807E+00 0.30000000E+03</pdfrwt>
<pdfrwt beam="2">0</pdfrwt>
<totfact> 0.61025145E-04</totfact>
</mgrwt>
<clustering>
<clus scale="   30.107">  1  6  2 -1</clus>
<clus scale="  467.886">  4  5 -1 -1</clus>
<clus scale="  300.000">  1  4  2 -1</clus>
</clustering>
</event>
<event>
 6    1  0.9678510E-012  0.3000000E+03  0.7818608E-02  0.1093470E+00
          1   -1    0    0  502    0  0.00000000000E+00  0.00000000000E+00  0.24628015940E+03  0.24628015940E+03  0.00000000000E+00 0.  1.
         13   -1    0    0    0    0 -0.00000000000E+00 -0.00000000000E+00 -0.27500000000E+03  0.27500000000E+03  0.00000000000E+00 0.  1.
    9000005    2    1    2  501    0  0.46136532489E+02  0.19188643474E+02 -0.56415328311E+02  0.46415027486E+03  0.45799127144E+03 0.  0.
         13    1    3    3    0    0  0.13204516863E+03  0.28019825874E+02 -0.23203652487E+03  0.26844363668E+03  0.00000000000E+00 0.  1.
          1    1    3    3  501    0 -0.85908636146E+02 -0.88311824002E+01  0.17562119656E+03  0.19570663818E+03  0.00000000000E+00 0.  1.
         21    1    1    2  502  501 -0.46136532489E+02 -0.19188643474E+02  0.27695487713E+02  0.57129884544E+02  0.00000000000E+00 0.  1.
<scales pt_clust_4="550.00000" pt_clust_5="550.00000" pt_clust_6="49.96783"></scales>
<mgrwt>
<rscale>  0 0.30000000E+03</rscale>
<asrwt>  1 0.49967826E+02</asrwt>
<pdfrwt beam="1">  1        1 0.89556422E+00 0.30000000E+03</pdfrwt>
<pdfrwt beam="2">0</pdfrwt>
<totfact> 0.11651454E-04</totfact>
</mgrwt>
<clustering>
<clus scale="   49.968">  1  6  2 -1</clus>
<clus scale="  457.991">  4  5 -1 -1</clus>
<clus scale="  300.000">  1  4  2 -1</clus>
</clustering>
</event>
<event>
 6    1  0.9678510E-012  0.3000000E+03  0.7818608E-02  0.1093470E+00
          1   -1    0    0  502    0  0.00000000000E+00  0.00000000000E+00  0.23767051086E+03  0.23767051086E+03  0.00000000000E+00 0.  1.
         13   -1    0    0    0    0 -0.00000000000E+00 -0.00000000000E+00 -0.27500000000E+03  0.27500000000E+03  0.00000000000E+00 0.  1.
    9000005    2    1    2  501    0 -0.27008799509E+02  0.24076165658E+02 -0.51824688150E+02  0.47369298146E+03  0.46945724553E+03 0.  0.
         13    1    3    3    0    0  0.54570180680E+02 -0.20747914772E+03  0.26099783993E+02  0.21611732943E+03  0.00000000000E+00 0.  1.
          3    1    3    3  501    0 -0.81578980189E+02  0.23155531337E+03 -0.77924472142E+02  0.25757565203E+03  0.00000000000E+00 0.  1.
         21    1    1    2  502  501  0.27008799509E+02 -0.24076165658E+02  0.14495199012E+02  0.38977529399E+02  0.00000000000E+00 0.  1.
<scales pt_clust_4="550.00000" pt_clust_5="550.00000" pt_clust_6="36.18200"></scales>
<mgrwt>
<rscale>  0 0.30000000E+03</rscale>
<asrwt>  1 0.36181998E+02</asrwt>
<pdfrwt beam="1">  1        1 0.86425640E+00 0.30000000E+03</pdfrwt>
<pdfrwt beam="2">0</pdfrwt>
<totfact> 0.28922823E-04</totfact>
</mgrwt>
<clustering>
<clus scale="   36.182">  1  6  2 -1</clus>
<clus scale="  469.457">  4  5 -1 -1</clus>
<clus scale="  300.000">  1  4  2 -1</clus>
</clustering>
</event>
<event>
 6    1  0.9678510E-012  0.3000000E+03  0.7818608E-02  0.1093470E+00
          1   -1    0    0  502    0  0.00000000000E+00  0.00000000000E+00  0.22454719893E+03  0.22454719893E+03  0.00000000000E+00 0.  1.
         13   -1    0    0    0    0 -0.00000000000E+00 -0.00000000000E+00 -0.27500000000E+03  0.27500000000E+03  0.00000000000E+00 0.  1.
    9000005    2    1    2  501    0  0.19981273114E+02 -0.22905276850E+02 -0.63351146462E+02  0.46652795762E+03  0.46120609764E+03 0.  0.
         13    1    3    3    0    0 -0.74261844850E+02 -0.17969514875E+03 -0.16696718049E+03  0.25628735327E+03  0.00000000000E+00 0.  1.
          1    1    3    3  501    0  0.94243117964E+02  0.15678987190E+03  0.10361603403E+03  0.21024060436E+03  0.00000000000E+00 0.  1.
         21    1    1    2  502  501 -0.19981273114E+02  0.22905276850E+02  0.12898345395E+02  0.33019241311E+02  0.00000000000E+00 0.  1.
<scales pt_clust_4="550.00000" pt_clust_5="550.00000" pt_clust_6="30.39577"></scales>
<mgrwt>
<rscale>  0 0.30000000E+03</rscale>
<asrwt>  1 0.30395772E+02</asrwt>
<pdfrwt beam="1">  1        1 0.81653527E+00 0.30000000E+03</pdfrwt>
<pdfrwt beam="2">0</pdfrwt>
<totfact> 0.79442383E-04</totfact>
</mgrwt>
<clustering>
<clus scale="   30.396">  1  6  2 -1</clus>
<clus scale="  461.206">  4  5 -1 -1</clus>
<clus scale="  300.000">  1  4  2 -1</clus>
</clustering>
</event>
<event>
 6    1  0.9678510E-012  0.3000000E+03  0.7818608E-02  0.1093470E+00
          1   -1    0    0  502    0  0.00000000000E+00  0.00000000000E+00  0.23288634881E+03  0.23288634881E+03  0.00000000000E+00 0.  1.
         13   -1    0    0    0    0 -0.00000000000E+00 -0.00000000000E+00 -0.27500000000E+03  0.27500000000E+03  0.00000000000E+00 0.  1.
    9000005    2    1    2  501    0 -0.36632638641E+02 -0.22820671820E+02 -0.29279198114E+02  0.46285906306E+03  0.45991141271E+03 0.  0.
         13    1    3    3    0    0 -0.17106678262E+03 -0.12247873561E+01 -0.18770313795E+03  0.25396419475E+03  0.00000000000E+00 0.  1.
          1    1    3    3  501    0  0.13443414398E+03 -0.21595884464E+02  0.15842393984E+03  0.20889486831E+03  0.00000000000E+00 0.  1.
         21    1    1    2  502  501  0.36632638641E+02  0.22820671820E+02 -0.12834453076E+02  0.45027285749E+02  0.00000000000E+00 0.  1.
<scales pt_clust_4="550.00000" pt_clust_5="550.00000" pt_clust_6="43.15942"></scales>
<mgrwt>
<rscale>  0 0.30000000E+03</rscale>
<asrwt>  1 0.43159415E+02</asrwt>
<pdfrwt beam="1">  1        1 0.84685945E+00 0.30000000E+03</pdfrwt>
<pdfrwt beam="2">0</pdfrwt>
<totfact> 0.41857783E-04</totfact>
</mgrwt>
<clustering>
<clus scale="   43.159">  1  6  2 -1</clus>
<clus scale="  459.911">  4  5 -1 -1</clus>
<clus scale="  300.000">  1  4  2 -1</clus>
</clustering>
</event>
<event>
 6    1  0.9678510E-012  0.3000000E+03  0.7818608E-02  0.1093470E+00
          1   -1    0    0  502    0  0.00000000000E+00  0.00000000000E+00  0.21815817357E+03  0.21815817357E+03  0.00000000000E+00 0.  1.
         13   -1    0    0    0    0 -0.00000000000E+00 -0.00000000000E+00 -0.27500000000E+03  0.27500000000E+03  0.00000000000E+00 0.  1.
    9000005    2    1    2  501    0  0.27194499388E+02  0.16279327914E+02 -0.53983780443E+02  0.46133482144E+03  0.45706784136E+03 0.  0.
         13    1    3    3    0    0  0.43981346612E+02 -0.10510078427E+03 -0.22426609313E+03  0.25154684302E+03  0.00000000000E+00 0.  1.
          3    1    3    3  501    0 -0.16786847224E+02  0.12138011218E+03  0.17028231269E+03  0.20978797842E+03  0.00000000000E+00 0.  1.
         21    1    1    2  502  501 -0.27194499388E+02 -0.16279327914E+02 -0.28580459864E+01  0.31823352136E+02  0.00000000000E+00 0.  1.
<scales pt_clust_4="550.00000" pt_clust_5="550.00000" pt_clust_6="31.69475"></scales>
<mgrwt>
<rscale>  0 0.30000000E+03</rscale>
<asrwt>  1 0.31694752E+02</asrwt>
<pdfrwt beam="1">  1        1 0.79330245E+00 0.30000000E+03</pdfrwt>
<pdfrwt beam="2">0</pdfrwt>
<totfact> 0.11839150E-03</totfact>
</mgrwt>
<clustering>
<clus scale="   31.695">  1  6  2 -1</clus>
<clus scale="  457.068">  4  5 -1 -1</clus>
<clus scale="  300.000">  1  4  2 -1</clus>
</clustering>
</event>
<event>
 6    1  0.9678510E-012  0.3000000E+03  0.7818608E-02  0.1093470E+00
          1   -1    0    0  502    0  0.00000000000E+00  0.00000000000E+00  0.23830498059E+03  0.23830498059E+03  0.00000000000E+00 0.  1.
         13   -1    0    0    0    0 -0.00000000000E+00 -0.00000000000E+00 -0.27500000000E+03  0.27500000000E+03  0.00000000000E+00 0.  1.
    9000005    2    1    2  501    0 -0.56061581589E+01 -0.35524465800E+02 -0.13224021718E+02  0.47035961516E+03  0.46879619894E+03 0.  0.
         13    1    3    3    0    0 -0.18730700079E+03  0.11560049650E+03 -0.62779358046E+02  0.22888563767E+03  0.00000000000E+00 0.  1.
          3    1    3    3  501    0  0.18170084263E+03 -0.15112496230E+03  0.49555336328E+02  0.24147397748E+03  0.00000000000E+00 0.  1.
         21    1    1    2  502  501  0.56061581589E+01  0.35524465800E+02 -0.23470997691E+02  0.42945365435E+02  0.00000000000E+00 0.  1.
<scales pt_clust_4="550.00000" pt_clust_5="550.00000" pt_clust_6="35.96412"></scales>
<mgrwt>
<rscale>  0 0.30000000E+03</rscale>
<asrwt>  1 0.35964121E+02</asrwt>
<pdfrwt beam="1">  1        1 0.86656357E+00 0.30000000E+03</pdfrwt>
<pdfrwt beam="2">0</pdfrwt>
<totfact> 0.27352724E-04</totfact>
</mgrwt>
<clustering>
<clus scale="   35.964">  1  6  2 -1</clus>
<clus scale="  468.796">  4  5 -1 -1</clus>
<clus scale="  300.000">  1  4  2 -1</clus>
</clustering>
</event>
<event>
 6    1  0.9678510E-012  0.3000000E+03  0.7818608E-02  0.1093470E+00
          1   -1    0    0  502    0  0.00000000000E+00  0.00000000000E+00  0.25353987363E+03  0.25353987363E+03  0.00000000000E+00 0.  1.
         13   -1    0    0    0    0 -0.00000000000E+00 -0.00000000000E+00 -0.27500000000E+03  0.27500000000E+03  0.00000000000E+00 0.  1.
    9000005    2    1    2  501    0  0.20031940559E+02 -0.30112782288E+02 -0.43262582154E+02  0.48630948910E+03  0.48302920188E+03 0.  0.
         13    1    3    3    0    0 -0.18000333019E+02 -0.30492052511E+02 -0.26195350557E+03  0.26433580222E+03  0.00000000000E+00 0.  1.
          3    1    3    3  501    0  0.38032273578E+02  0.37927022313E+00  0.21869092342E+03  0.22197368688E+03  0.00000000000E+00 0.  1.
         21    1    1    2  502  501 -0.20031940559E+02  0.30112782288E+02  0.21802455787E+02  0.42230384535E+02  0.00000000000E+00 0.  1.
<scales pt_clust_4="550.00000" pt_clust_5="550.00000" pt_clust_6="36.16709"></scales>
<mgrwt>
<rscale>  0 0.30000000E+03</rscale>
<asrwt>  1 0.36167089E+02</asrwt>
<pdfrwt beam="1">  1        1 0.92196318E+00 0.30000000E+03</pdfrwt>
<pdfrwt beam="2">0</pdfrwt>
<totfact> 0.37710459E-05</totfact>
</mgrwt>
<clustering>
<clus scale="   36.167">  1  6  2 -1</clus>
<clus scale="  483.029">  4  5 -1 -1</clus>
<clus scale="  300.000">  1  4  2 -1</clus>
</clustering>
</event>
<event>
 6    1  0.9678510E-012  0.3000000E+03  0.7818608E-02  0.1093470E+00
          1   -1    0    0  502    0  0.00000000000E+00  0.00000000000E+00  0.23683414426E+03  0.23683414426E+03  0.00000000000E+00 0.  1.
         13   -1    0    0    0    0 -0.00000000000E+00 -0.00000000000E+00 -0.27500000000E+03  0.27500000000E+03  0.00000000000E+00 0.  1.
    9000005    2    1    2  501    0 -0.12177961245E+02 -0.35419711314E+02 -0.41177297207E+02  0.47425852092E+03  0.47098059002E+03 0.  0.
         13    1    3    3    0    0  0.17939484782E+02  0.21513619311E+03 -0.50560844314E+02  0.22172461676E+03  0.00000000000E+00 0.  1.
          1    1    3    3  501    0 -0.30117446027E+02 -0.25055590442E+03  0.93835471063E+01  0.25253390416E+03  0.00000000000E+00 0.  1.
         21    1    1    2  502  501  0.12177961245E+02  0.35419711314E+02  0.30114414689E+01  0.37575623340E+02  0.00000000000E+00 0. -1.
<scales pt_clust_4="550.00000" pt_clust_5="550.00000" pt_clust_6="37.45476"></scales>
<mgrwt>
<rscale>  0 0.30000000E+03</rscale>
<asrwt>  1 0.37454755E+02</asrwt>
<pdfrwt beam="1">  1        1 0.86121507E+00 0.30000000E+03</pdfrwt>
<pdfrwt beam="2">0</pdfrwt>
<totfact> 0.30997569E-04</totfact>
</mgrwt>
<clustering>
<clus scale="   37.455">  1  6  2 -1</clus>
<clus scale="  470.981">  4  5 -1 -1</clus>
<clus scale="  300.000">  1  4  2 -1</clus>
</clustering>
</event>
<event>
 6    1  0.9678510E-012  0.3000000E+03  0.7818608E-02  0.1093470E+00
          1   -1    0    0  502    0  0.00000000000E+00  0.00000000000E+00  0.22771160355E+03  0.22771160355E+03  0.00000000000E+00 0.  1.
         13   -1    0    0    0    0 -0.00000000000E+00 -0.00000000000E+00 -0.27500000000E+03  0.27500000000E+03  0.00000000000E+00 0.  1.
    9000005    2    1    2  501    0  0.13213593172E+02 -0.28259029573E+02 -0.38010527121E+02  0.47016547235E+03  0.46758699663E+03 0.  0.
         13    1    3    3    0    0 -0.39327978729E+01 -0.11413536206E+03 -0.23130350393E+03  0.25796057587E+03  0.00000000000E+00 0.  1.
          3    1    3    3  501    0  0.17146391045E+02  0.85876332490E+02  0.19329297681E+03  0.21220489648E+03  0.00000000000E+00 0.  1.
         21    1    1    2  502  501 -0.13213593172E+02  0.28259029573E+02 -0.92778693309E+01  0.32546131203E+02  0.00000000000E+00 0.  1.
<scales pt_clust_4="550.00000" pt_clust_5="550.00000" pt_clust_6="31.19572"></scales>
<mgrwt>
<rscale>  0 0.30000000E+03</rscale>
<asrwt>  1 0.31195717E+02</asrwt>
<pdfrwt beam="1">  1        1 0.82804219E+00 0.30000000E+03</pdfrwt>
<pdfrwt beam="2">0</pdfrwt>
<totfact> 0.62753231E-04</totfact>
</mgrwt>
<clustering>
<clus scale="   31.196">  1  6  2 -1</clus>
<clus scale="  467.587">  4  5 -1 -1</clus>
<clus scale="  300.000">  1  4  2 -1</clus>
</clustering>
</event>
<event>
 6    1  0.9678510E-012  0.3000000E+03  0.7818608E-02  0.1093470E+00
          1   -1    0    0  502    0  0.00000000000E+00  0.00000000000E+00  0.24953862249E+03  0.24953862249E+03  0.00000000000E+00 0.  1.
         13   -1    0    0    0    0 -0.00000000000E+00 -0.00000000000E+00 -0.27500000000E+03  0.27500000000E+03  0.00000000000E+00 0.  1.
    9000005    2    1    2  501    0 -0.19473956709E+02 -0.32340894240E+02 -0.53926833129E+02  0.47725807053E+03  0.47269651376E+03 0.  0.
         13    1    3    3    0    0  0.94077356504E+02  0.19287269628E+03  0.16968320380E+02  0.21526344295E+03  0.00000000000E+00 0.  1.
          3    1    3    3  501    0 -0.11355131321E+03 -0.22521359052E+03 -0.70895153510E+02  0.26199462757E+03  0.00000000000E+00 0.  1.
         21    1    1    2  502  501  0.19473956709E+02  0.32340894240E+02  0.28465455618E+02  0.47280551961E+02  0.00000000000E+00 0.  1.
<scales pt_clust_4="550.00000" pt_clust_5="550.00000" pt_clust_6="37.75140"></scales>
<mgrwt>
<rscale>  0 0.30000000E+03</rscale>
<asrwt>  1 0.37751403E+02</asrwt>
<pdfrwt beam="1">  1        1 0.90741317E+00 0.30000000E+03</pdfrwt>
<pdfrwt beam="2">0</pdfrwt>
<totfact> 0.81369394E-05</totfact>
</mgrwt>
<clustering>
<clus scale="   37.751">  1  6  2 -1</clus>
<clus scale="  472.697">  4  5 -1 -1</clus>
<clus scale="  300.000">  1  4  2 -1</clus>
</clustering>
</event>
<event>
 6    1  0.9678510E-012  0.3000000E+03  0.7818608E-02  0.1093470E+00
          1   -1    0    0  502    0  0.00000000000E+00  0.00000000000E+00  0.23383203924E+03  0.23383203924E+03  0.00000000000E+00 0.  1.
         13   -1    0    0    0    0 -0.00000000000E+00 -0.00000000000E+00 -0.27500000000E+03  0.27500000000E+03  0.00000000000E+00 0.  1.
    9000005    2    1    2  501    0 -0.15420630726E+02  0.33570638625E+02 -0.41485240332E+02  0.47188769872E+03  0.46860664892E+03 0.  0.
         13    1    3    3    0    0  0.18253248723E+03 -0.10204790501E+03 -0.89003541298E+02  0.22727409482E+03  0.00000000000E+00 0.  1.
          1    1    3    3  501    0 -0.19795311796E+03  0.13561854364E+03  0.47518300966E+02  0.24461360390E+03  0.00000000000E+00 0.  1.
         21    1    1    2  502  501  0.15420630726E+02 -0.33570638625E+02  0.31727957003E+00  0.36944340514E+02  0.00000000000E+00 0.  1.
<scales pt_clust_4="550.00000" pt_clust_5="550.00000" pt_clust_6="36.94298"></scales>
<mgrwt>
<rscale>  0 0.30000000E+03</rscale>
<asrwt>  1 0.36942978E+02</asrwt>
<pdfrwt beam="1">  1        1 0.85029832E+00 0.30000000E+03</pdfrwt>
<pdfrwt beam="2">0</pdfrwt>
<totfact> 0.40032146E-04</totfact>
</mgrwt>
<clustering>
<clus scale="   36.943">  1  6  2 -1</clus>
<clus scale="  468.607">  4  5 -1 -1</clus>
<clus scale="  300.000">  1  4  2 -1</clus>
</clustering>
</event>
<event>
 6    1  0.9678510E-012  0.3000000E+03  0.7818608E-02  0.1093470E+00
          1   -1    0    0  502    0  0.00000000000E+00  0.00000000000E+00  0.21760917872E+03  0.21760917872E+03  0.00000000000E+00 0.  1.
         13   -1    0    0    0    0 -0.00000000000E+00 -0.00000000000E+00 -0.27500000000E+03  0.27500000000E+03  0.00000000000E+00 0.  1.
    9000005    2    1    2  501    0 -0.29385598378E+02 -0.11287056476E+02 -0.52425206288E+02  0.46074119528E+03  0.45666523377E+03 0.  0.
         13    1    3    3    0    0  0.18599863049E+03  0.81440574665E+02  0.43037061686E+02  0.20755781465E+03  0.00000000000E+00 0.  1.
          1    1    3    3  501    0 -0.21538422886E+03 -0.92727631141E+02 -0.95462267974E+02  0.25318338063E+03  0.00000000000E+00 0.  1.
         21    1    1    2  502  501  0.29385598378E+02  0.11287056476E+02 -0.49656149973E+01  0.31867983435E+02  0.00000000000E+00 0.  1.
<scales pt_clust_4="550.00000" pt_clust_5="550.00000" pt_clust_6="31.47876"></scales>
<mgrwt>
<rscale>  0 0.30000000E+03</rscale>
<asrwt>  1 0.31478755E+02</asrwt>
<pdfrwt beam="1">  1        1 0.79130610E+00 0.30000000E+03</pdfrwt>
<pdfrwt beam="2">0</pdfrwt>
<totfact> 0.12285789E-03</totfact>
</mgrwt>
<clustering>
<clus scale="   31.479">  1  6  2 -1</clus>
<clus scale="  456.665">  4  5 -1 -1</clus>
<clus scale="  300.000">  1  4  2 -1</clus>
</clustering>
</event>
<event>
 6    1  0.9678510E-012  0.3000000E+03  0.7818608E-02  0.1093470E+00
          1   -1    0    0  502    0  0.00000000000E+00  0.00000000000E+00  0.23431173240E+03  0.23431173240E+03  0.00000000000E+00 0.  1.
         13   -1    0    0    0    0 -0.00000000000E+00 -0.00000000000E+00 -0.27500000000E+03  0.27500000000E+03  0.00000000000E+00 0.  1.
    9000005    2    1    2  501    0  0.16450426964E+02 -0.28163041517E+02 -0.27882675588E+02  0.47427237393E+03  0.47232728867E+03 0.  0.
         13    1    3    3    0    0  0.17582259739E+03 -0.11778579745E+03 -0.14554002851E+03  0.25684427137E+03  0.00000000000E+00 0.  1.
          3    1    3    3  501    0 -0.15937217043E+03  0.89622755938E+02  0.11765735292E+03  0.21742810256E+03  0.00000000000E+00 0.  1.
         21    1    1    2  502  501 -0.16450426964E+02  0.28163041517E+02 -0.12805592017E+02  0.35039358465E+02  0.00000000000E+00 0. -1.
<scales pt_clust_4="550.00000" pt_clust_5="550.00000" pt_clust_6="32.61556"></scales>
<mgrwt>
<rscale>  0 0.30000000E+03</rscale>
<asrwt>  1 0.32615556E+02</asrwt>
<pdfrwt beam="1">  1        1 0.85204266E+00 0.30000000E+03</pdfrwt>
<pdfrwt beam="2">0</pdfrwt>
<totfact> 0.39443530E-04</totfact>
</mgrwt>
<clustering>
<clus scale="   32.616">  1  6  2 -1</clus>
<clus scale="  472.327">  4  5 -1 -1</clus>
<clus scale="  300.000">  1  4  2 -1</clus>
</clustering>
</event>
<event>
 6    1  0.9678510E-012  0.3000000E+03  0.7818608E-02  0.1093470E+00
          1   -1    0    0  502    0  0.00000000000E+00  0.00000000000E+00  0.25276514027E+03  0.25276514027E+03  0.00000000000E+00 0.  1.
         13   -1    0    0    0    0 -0.00000000000E+00 -0.00000000000E+00 -0.27500000000E+03  0.27500000000E+03  0.00000000000E+00 0.  1.
    9000005    2    1    2  501    0  0.28523177677E+02  0.14625593601E+02 -0.26912497784E+02  0.49537131446E+03  0.49360001722E+03 0.  0.
         13    1    3    3    0    0  0.21637707222E+03  0.14344535815E+03  0.27864267949E+02  0.26109773187E+03  0.00000000000E+00 0.  1.
          1    1    3    3  501    0 -0.18785389455E+03 -0.12881976455E+03 -0.54776765733E+02  0.23427358259E+03  0.00000000000E+00 0.  1.
         21    1    1    2  502  501 -0.28523177677E+02 -0.14625593601E+02  0.46776380591E+01  0.32393825812E+02  0.00000000000E+00 0.  1.
<scales pt_clust_4="550.00000" pt_clust_5="550.00000" pt_clust_6="32.05432"></scales>
<mgrwt>
<rscale>  0 0.30000000E+03</rscale>
<asrwt>  1 0.32054323E+02</asrwt>
<pdfrwt beam="1">  1        1 0.91914596E+00 0.30000000E+03</pdfrwt>
<pdfrwt beam="2">0</pdfrwt>
<totfact> 0.44363584E-05</totfact>
</mgrwt>
<clustering>
<clus scale="   32.054">  1  6  2 -1</clus>
<clus scale="  493.600">  4  5 -1 -1</clus>
<clus scale="  300.000">  1  4  2 -1</clus>
</clustering>
</event>
<event>
 6    1  0.9678510E-012  0.3000000E+03  0.7818608E-02  0.1093470E+00
          1   -1    0    0  502    0  0.00000000000E+00  0.00000000000E+00  0.22563810369E+03  0.22563810369E+03  0.00000000000E+00 0.  1.
         13   -1    0    0    0    0 -0.00000000000E+00 -0.00000000000E+00 -0.27500000000E+03  0.27500000000E+03  0.00000000000E+00 0.  1.
    9000005    2    1    2  501    0  0.96262997872E+01  0.32368402701E+02 -0.58713910796E+02  0.46559756551E+03  0.46064453817E+03 0.  0.
         13    1    3    3    0    0 -0.20592630385E+03  0.30681326612E+00 -0.12113112688E+03  0.23891104338E+03  0.00000000000E+00 0.  1.
          1    1    3    3  501    0  0.21555260363E+03  0.32061589435E+02  0.62417216081E+02  0.22668652213E+03  0.00000000000E+00 0.  1.
         21    1    1    2  502  501 -0.96262997872E+01 -0.32368402701E+02  0.93520144844E+01  0.35040538180E+02  0.00000000000E+00 0.  1.
<scales pt_clust_4="550.00000" pt_clust_5="550.00000" pt_clust_6="33.76950"></scales>
<mgrwt>
<rscale>  0 0.30000000E+03</rscale>
<asrwt>  1 0.33769500E+02</asrwt>
<pdfrwt beam="1">  1        1 0.82050220E+00 0.30000000E+03</pdfrwt>
<pdfrwt beam="2">0</pdfrwt>
<totfact> 0.72088491E-04</totfact>
</mgrwt>
<clustering>
<clus scale="   33.770">  1  6  2 -1</clus>
<clus scale="  460.645">  4  5 -1 -1</clus>
<clus scale="  300.000">  1  4  2 -1</clus>
</clustering>
</event>
<event>
 6    1  0.9678510E-012  0.3000000E+03  0.7818608E-02  0.1093470E+00
          1   -1    0    0  502    0  0.00000000000E+00  0.00000000000E+00  0.24660173349E+03  0.24660173349E+03  0.00000000000E+00 0.  1.
         13   -1    0    0    0    0 -0.00000000000E+00 -0.00000000000E+00 -0.27500000000E+03  0.27500000000E+03  0.00000000000E+00 0.  1.
    9000005    2    1    2  501    0 -0.27214975996E+02 -0.18452148069E+02 -0.50160841474E+02  0.48217146142E+03  0.47842666261E+03 0.  0.
         13    1    3    3    0    0 -0.58715113469E+02  0.13159933539E+03 -0.21386238069E+03  0.25788169283E+03  0.00000000000E+00 0.  1.
          1    1    3    3  501    0  0.31500137473E+02 -0.15005148346E+03  0.16370153922E+03  0.22428976858E+03  0.00000000000E+00 0.  1.
         21    1    1    2  502  501  0.27214975996E+02  0.18452148069E+02  0.21762574965E+02  0.39430272075E+02  0.00000000000E+00 0.  1.
<scales pt_clust_4="550.00000" pt_clust_5="550.00000" pt_clust_6="32.88064"></scales>
<mgrwt>
<rscale>  0 0.30000000E+03</rscale>
<asrwt>  1 0.32880643E+02</asrwt>
<pdfrwt beam="1">  1        1 0.89673358E+00 0.30000000E+03</pdfrwt>
<pdfrwt beam="2">0</pdfrwt>
<totfact> 0.12202299E-04</totfact>
</mgrwt>
<clustering>
<clus scale="   32.881">  1  6  2 -1</clus>
<clus scale="  478.427">  4  5 -1 -1</clus>
<clus scale="  300.000">  1  4  2 -1</clus>
</clustering>
</event>
<event>
 6    1  0.9678510E-012  0.3000000E+03  0.7818608E-02  0.1093470E+00
          1   -1    0    0  502    0  0.00000000000E+00  0.00000000000E+00  0.21940819669E+03  0.21940819669E+03  0.00000000000E+00 0.  1.
         13   -1    0    0    0    0 -0.00000000000E+00 -0.00000000000E+00 -0.27500000000E+03  0.27500000000E+03  0.00000000000E+00 0.  1.
    9000005    2    1    2  501    0 -0.10145441808E+02  0.30138988745E+02 -0.47932952702E+02  0.46169815810E+03  0.45810078870E+03 0.  0.
         13    1    3    3    0    0 -0.12510637242E+03  0.11911108409E+03 -0.19114549562E+03  0.25763473226E+03  0.00000000000E+00 0.  1.
          3    1    3    3  501    0  0.11496093061E+03 -0.88972095343E+02  0.14321254291E+03  0.20406342584E+03  0.00000000000E+00 0.  1.
         21    1    1    2  502  501  0.10145441808E+02 -0.30138988745E+02 -0.76588506075E+01  0.32710038591E+02  0.00000000000E+00 0.  1.
<scales pt_clust_4="550.00000" pt_clust_5="550.00000" pt_clust_6="31.80078"></scales>
<mgrwt>
<rscale>  0 0.30000000E+03</rscale>
<asrwt>  1 0.31800781E+02</asrwt>
<pdfrwt beam="1">  1        1 0.79784799E+00 0.30000000E+03</pdfrwt>
<pdfrwt beam="2">0</pdfrwt>
<totfact> 0.10945501E-03</totfact>
</mgrwt>
<clustering>
<clus scale="   31.801">  1  6  2 -1</clus>
<clus scale="  458.101">  4  5 -1 -1</clus>
<clus scale="  300.000">  1  4  2 -1</clus>
</clustering>
</event>
<event>
 6    1  0.9678510E-012  0.3000000E+03  0.7818608E-02  0.1093470E+00
          1   -1    0    0  502    0  0.00000000000E+00  0.00000000000E+00  0.23890117446E+03  0.23890117446E+03  0.00000000000E+00 0.  1.
         13   -1    0    0    0    0 -0.00000000000E+00 -0.00000000000E+00 -0.27500000000E+03  0.27500000000E+03  0.00000000000E+00 0.  1.
    9000005    2    1    2  501    0 -0.28128317695E+02 -0.25179315956E+02 -0.56407809224E+02  0.47103329573E+03  0.46611728625E+03 0.  0.
         13    1    3    3    0    0 -0.12717836089E+03  0.70527813087E+02  0.15892414159E+03  0.21541910472E+03  0.00000000000E+00 0.  1.
          1    1    3    3  501    0  0.99050043197E+02 -0.95707129043E+02 -0.21533195081E+03  0.25561419101E+03  0.00000000000E+00 0.  1.
         21    1    1    2  502  501  0.28128317695E+02  0.25179315956E+02  0.20308983684E+02  0.42867878728E+02  0.00000000000E+00 0. -1.
<scales pt_clust_4="550.00000" pt_clust_5="550.00000" pt_clust_6="37.75182"></scales>
<mgrwt>
<rscale>  0 0.30000000E+03</rscale>
<asrwt>  1 0.37751824E+02</asrwt>
<pdfrwt beam="1">  1        1 0.86873154E+00 0.30000000E+03</pdfrwt>
<pdfrwt beam="2">0</pdfrwt>
<totfact> 0.25731565E-04</totfact>
</mgrwt>
<clustering>
<clus scale="   37.752">  1  6  2 -1</clus>
<clus scale="  466.117">  4  5 -1 -1</clus>
<clus scale="  300.000">  1  4  2 -1</clus>
</clustering>
</event>
<event>
 6    1  0.9678510E-012  0.3000000E+03  0.7818608E-02  0.1093470E+00
          1   -1    0    0  502    0  0.00000000000E+00  0.00000000000E+00  0.22476594049E+03  0.22476594049E+03  0.00000000000E+00 0.  1.
         13   -1    0    0    0    0 -0.00000000000E+00 -0.00000000000E+00 -0.27500000000E+03  0.27500000000E+03  0.00000000000E+00 0.  1.
    9000005    2    1    2  501    0 -0.28141371291E+02 -0.15667739861E+02 -0.59552931668E+02  0.46623601014E+03  0.46129388749E+03 0.  0.
         13    1    3    3    0    0 -0.21471610062E+03 -0.26878353325E+02  0.82380653198E+02  0.23154269965E+03  0.00000000000E+00 0.  1.
          1    1    3    3  501    0  0.18657472932E+03  0.11210613465E+02 -0.14193358487E+03  0.23469331049E+03  0.00000000000E+00 0.  1.
         21    1    1    2  502  501  0.28141371291E+02  0.15667739861E+02  0.93188721550E+01  0.33529930342E+02  0.00000000000E+00 0.  1.
<scales pt_clust_4="550.00000" pt_clust_5="550.00000" pt_clust_6="32.20893"></scales>
<mgrwt>
<rscale>  0 0.30000000E+03</rscale>
<asrwt>  1 0.32208925E+02</asrwt>
<pdfrwt beam="1">  1        1 0.81733069E+00 0.30000000E+03</pdfrwt>
<pdfrwt beam="2">0</pdfrwt>
<totfact> 0.77392888E-04</totfact>
</mgrwt>
<clustering>
<clus scale="   32.209">  1  6  2 -1</clus>
<clus scale="  461.294">  4  5 -1 -1</clus>
<clus scale="  300.000">  1  4  2 -1</clus>
</clustering>
</event>
<event>
 6    1  0.9678510E-012  0.3000000E+03  0.7818608E-02  0.1093470E+00
          1   -1    0    0  502    0  0.00000000000E+00  0.00000000000E+00  0.22252314026E+03  0.22252314026E+03  0.00000000000E+00 0.  1.
         13   -1    0    0    0    0 -0.00000000000E+00 -0.00000000000E+00 -0.27500000000E+03  0.27500000000E+03  0.00000000000E+00 0.  1.
    9000005    2    1    2  501    0 -0.24119209864E+02 -0.19017228867E+02 -0.66576310635E+02  0.46372690092E+03  0.45789392027E+03 0.  0.
         13    1    3    3    0    0  0.53394321190E+02 -0.12976697011E+03 -0.21893445119E+03  0.26004367707E+03  0.00000000000E+00 0.  1.
          1    1    3    3  501    0 -0.77513531054E+02  0.11074974124E+03  0.15235814056E+03  0.20368322384E+03  0.00000000000E+00 0.  1.
         21    1    1    2  502  501  0.24119209864E+02  0.19017228867E+02  0.14099450894E+02  0.33796239344E+02  0.00000000000E+00 0.  1.
<scales pt_clust_4="550.00000" pt_clust_5="550.00000" pt_clust_6="30.71468"></scales>
<mgrwt>
<rscale>  0 0.30000000E+03</rscale>
<asrwt>  1 0.30714675E+02</asrwt>
<pdfrwt beam="1">  1        1 0.80917506E+00 0.30000000E+03</pdfrwt>
<pdfrwt beam="2">0</pdfrwt>
<totfact> 0.90729023E-04</totfact>
</mgrwt>
<clustering>
<clus scale="   30.715">  1  6  2 -1</clus>
<clus scale="  457.894">  4  5 -1 -1</clus>
<clus scale="  300.000">  1  4  2 -1</clus>
</clustering>
</event>
<event>
 6    1  0.9678510E-012  0.3000000E+03  0.7818608E-02  0.1093470E+00
          1   -1    0    0  502    0  0.00000000000E+00  0.00000000000E+00  0.23105628052E+03  0.23105628052E+03  0.00000000000E+00 0.  1.
         13   -1    0    0    0    0 -0.00000000000E+00 -0.00000000000E+00 -0.27500000000E+03  0.27500000000E+03  0.00000000000E+00 0.  1.
    9000005    2    1    2  501    0 -0.27420617105E+02  0.15879842757E+02 -0.52672688097E+02  0.47318905457E+03  0.46917950685E+03 0.  0.
         13    1    3    3    0    0 -0.13077640658E+03  0.18999369583E+03 -0.11975382390E+03  0.25988661241E+03  0.00000000000E+00 0.  1.
          3    1    3    3  501    0  0.10335578947E+03 -0.17411385308E+03  0.67081135802E+02  0.21330244216E+03  0.00000000000E+00 0.  1.
         21    1    1    2  502  501  0.27420617105E+02 -0.15879842757E+02  0.87289686156E+01  0.32867225948E+02  0.00000000000E+00 0.  1.
<scales pt_clust_4="550.00000" pt_clust_5="550.00000" pt_clust_6="31.68690"></scales>
<mgrwt>
<rscale>  0 0.30000000E+03</rscale>
<asrwt>  1 0.31686900E+02</asrwt>
<pdfrwt beam="1">  1        1 0.84020466E+00 0.30000000E+03</pdfrwt>
<pdfrwt beam="2">0</pdfrwt>
<totfact> 0.50462738E-04</totfact>
</mgrwt>
<clustering>
<clus scale="   31.687">  1  6  2 -1</clus>
<clus scale="  469.180">  4  5 -1 -1</clus>
<clus scale="  300.000">  1  4  2 -1</clus>
</clustering>
</event>
<event>
 6    1  0.9678510E-012  0.3000000E+03  0.7818608E-02  0.1093470E+00
          1   -1    0    0  502    0  0.00000000000E+00  0.00000000000E+00  0.22343289864E+03  0.22343289864E+03  0.00000000000E+00 0.  1.
         13   -1    0    0    0    0 -0.00000000000E+00 -0.00000000000E+00 -0.27500000000E+03  0.27500000000E+03  0.00000000000E+00 0.  1.
    9000005    2    1    2  501    0 -0.13298452257E+02  0.33986336204E+02 -0.53542680065E+02  0.46188398905E+03  0.45731617167E+03 0.  0.
         13    1    3    3    0    0  0.51692446509E+02  0.58437922006E+02 -0.24558142152E+03  0.25767680212E+03  0.00000000000E+00 0.  1.
          1    1    3    3  501    0 -0.64990898766E+02 -0.24451585803E+02  0.19203874146E+03  0.20420718693E+03  0.00000000000E+00 0.  1.
         21    1    1    2  502  501  0.13298452257E+02 -0.33986336204E+02  0.19755787031E+01  0.36548909590E+02  0.00000000000E+00 0. -1.
<scales pt_clust_4="550.00000" pt_clust_5="550.00000" pt_clust_6="36.49548"></scales>
<mgrwt>
<rscale>  0 0.30000000E+03</rscale>
<asrwt>  1 0.36495478E+02</asrwt>
<pdfrwt beam="1">  1        1 0.81248327E+00 0.30000000E+03</pdfrwt>
<pdfrwt beam="2">0</pdfrwt>
<totfact> 0.82734640E-04</totfact>
</mgrwt>
<clustering>
<clus scale="   36.495">  1  6  2 -1</clus>
<clus scale="  457.316">  4  5 -1 -1</clus>
<clus scale="  300.000">  1  4  2 -1</clus>
</clustering>
</event>
<event>
 6    1  0.9678510E-012  0.3000000E+03  0.7818608E-02  0.1093470E+00
          1   -1    0    0  502    0  0.00000000000E+00  0.00000000000E+00  0.23262937704E+03  0.23262937704E+03  0.00000000000E+00 0.  1.
         13   -1    0    0    0    0 -0.00000000000E+00 -0.00000000000E+00 -0.27500000000E+03  0.27500000000E+03  0.00000000000E+00 0.  1.
    9000005    2    1    2  501    0  0.27746117009E+02  0.14916195881E+02 -0.70897058671E+02  0.46513117186E+03  0.45861560615E+03 0.  0.
         13    1    3    3    0    0  0.11849148426E+03 -0.16167097078E+03 -0.15108833161E+03  0.25100880180E+03  0.00000000000E+00 0.  1.
          3    1    3    3  501    0 -0.90745367247E+02  0.17658716666E+03  0.80191272942E+02  0.21412237006E+03  0.00000000000E+00 0.  1.
         21    1    1    2  502  501 -0.27746117009E+02 -0.14916195881E+02  0.28526435708E+02  0.42498205172E+02  0.00000000000E+00 0.  1.
<scales pt_clust_4="550.00000" pt_clust_5="550.00000" pt_clust_6="31.50143"></scales>
<mgrwt>
<rscale>  0 0.30000000E+03</rscale>
<asrwt>  1 0.31501427E+02</asrwt>
<pdfrwt beam="1">  1        1 0.84592501E+00 0.30000000E+03</pdfrwt>
<pdfrwt beam="2">0</pdfrwt>
<totfact> 0.45233789E-04</totfact>
</mgrwt>
<clustering>
<clus scale="   31.501">  1  6  2 -1</clus>
<clus scale="  458.616">  4  5 -1 -1</clus>
<clus scale="  300.000">  1  4  2 -1</clus>
</clustering>
</event>
<event>
 6    1  0.9678510E-012  0.3000000E+03  0.7818608E-02  0.1093470E+00
          1   -1    0    0  502    0  0.00000000000E+00  0.00000000000E+00  0.23358033002E+03  0.23358033002E+03  0.00000000000E+00 0.  1.
         13   -1    0    0    0    0 -0.00000000000E+00 -0.00000000000E+00 -0.27500000000E+03  0.27500000000E+03  0.00000000000E+00 0.  1.
    9000005    2    1    2  501    0 -0.11733452254E+02 -0.30526933022E+02 -0.55363551252E+02  0.47302756126E+03  0.46863672857E+03 0.  0.
         13    1    3    3    0    0 -0.35806049842E+01  0.67238509991E+02  0.19384365527E+03  0.20520526467E+03  0.00000000000E+00 0.  1.
          3    1    3    3  501    0 -0.81528472701E+01 -0.97765443014E+02 -0.24920720653E+03  0.26782229659E+03  0.00000000000E+00 0.  1.
         21    1    1    2  502  501  0.11733452254E+02  0.30526933022E+02  0.13943881272E+02  0.35552768760E+02  0.00000000000E+00 0.  1.
<scales pt_clust_4="550.00000" pt_clust_5="550.00000" pt_clust_6="32.70424"></scales>
<mgrwt>
<rscale>  0 0.30000000E+03</rscale>
<asrwt>  1 0.32704243E+02</asrwt>
<pdfrwt beam="1">  1        1 0.84938302E+00 0.30000000E+03</pdfrwt>
<pdfrwt beam="2">0</pdfrwt>
<totfact> 0.41772821E-04</totfact>
</mgrwt>
<clustering>
<clus scale="   32.704">  1  6  2 -1</clus>
<clus scale="  468.637">  4  5 -1 -1</clus>
<clus scale="  300.000">  1  4  2 -1</clus>
</clustering>
</event>
<event>
 6    1  0.9678510E-012  0.3000000E+03  0.7818608E-02  0.1093470E+00
          1   -1    0    0  502    0  0.00000000000E+00  0.00000000000E+00  0.24937911905E+03  0.24937911905E+03  0.00000000000E+00 0.  1.
         13   -1    0    0    0    0 -0.00000000000E+00 -0.00000000000E+00 -0.27500000000E+03  0.27500000000E+03  0.00000000000E+00 0.  1.
    9000005    2    1    2  501    0  0.33371130154E+02 -0.21048805715E+01 -0.58547332317E+02  0.47745136554E+03  0.47266685253E+03 0.  0.
         13    1    3    3    0    0 -0.10856599569E+03 -0.20085428566E+03 -0.45968101530E+02  0.23289930409E+03  0.00000000000E+00 0.  1.
          1    1    3    3  501    0  0.14193712584E+03  0.19874940508E+03 -0.12579230786E+02  0.24455206145E+03  0.00000000000E+00 0.  1.
         21    1    1    2  502  501 -0.33371130154E+02  0.21048805715E+01  0.32926451371E+02  0.46927753514E+02  0.00000000000E+00 0.  1.
<scales pt_clust_4="550.00000" pt_clust_5="550.00000" pt_clust_6="33.43745"></scales>
<mgrwt>
<rscale>  0 0.30000000E+03</rscale>
<asrwt>  1 0.33437447E+02</asrwt>
<pdfrwt beam="1">  1        1 0.90683316E+00 0.30000000E+03</pdfrwt>
<pdfrwt beam="2">0</pdfrwt>
<totfact> 0.85669807E-05</totfact>
</mgrwt>
<clustering>
<clus scale="   33.437">  1  6  2 -1</clus>
<clus scale="  472.667">  4  5 -1 -1</clus>
<clus scale="  300.000">  1  4  2 -1</clus>
</clustering>
</event>
<event>
 6    1  0.9678510E-012  0.3000000E+03  0.7818608E-02  0.1093470E+00
          1   -1    0    0  502    0  0.00000000000E+00  0.00000000000E+00  0.21984952485E+03  0.21984952485E+03  0.00000000000E+00 0.  1.
         13   -1    0    0    0    0 -0.00000000000E+00 -0.00000000000E+00 -0.27500000000E+03  0.27500000000E+03  0.00000000000E+00 0.  1.
    9000005    2    1    2  501    0 -0.26858937062E+02 -0.13524584354E+02 -0.65843916658E+02  0.46293296844E+03  0.45723866309E+03 0.  0.
         13    1    3    3    0    0 -0.16824180333E+03 -0.97742561519E+02 -0.17805890859E+03  0.26374966852E+03  0.00000000000E+00 0.  1.
          3    1    3    3  501    0  0.14138286627E+03  0.84217977165E+02  0.11221499193E+03  0.19918329991E+03  0.00000000000E+00 0.  1.
         21    1    1    2  502  501  0.26858937062E+02  0.13524584354E+02  0.10693441509E+02  0.31916556414E+02  0.00000000000E+00 0. -1.
<scales pt_clust_4="550.00000" pt_clust_5="550.00000" pt_clust_6="30.07186"></scales>
<mgrwt>
<rscale>  0 0.30000000E+03</rscale>
<asrwt>  1 0.30071862E+02</asrwt>
<pdfrwt beam="1">  1        1 0.79945282E+00 0.30000000E+03</pdfrwt>
<pdfrwt beam="2">0</pdfrwt>
<totfact> 0.10770892E-03</totfact>
</mgrwt>
<clustering>
<clus scale="   30.072">  1  6  2 -1</clus>
<clus scale="  457.239">  4  5 -1 -1</clus>
<clus scale="  300.000">  1  4  2 -1</clus>
</clustering>
</event>
<event>
 6    1  0.9678510E-012  0.3000000E+03  0.7818608E-02  0.1093470E+00
          1   -1    0    0  502    0  0.00000000000E+00  0.00000000000E+00  0.22317919956E+03  0.22317919956E+03  0.00000000000E+00 0.  1.
         13   -1    0    0    0    0 -0.00000000000E+00 -0.00000000000E+00 -0.27500000000E+03  0.27500000000E+03  0.00000000000E+00 0.  1.
    9000005    2    1    2  501    0 -0.34961147240E+02 -0.10373466979E+02 -0.51258320836E+02  0.46170719637E+03  0.45740160591E+03 0.  0.
         13    1    3    3    0    0 -0.13668799023E+03 -0.11333215192E+03  0.13697997190E+03  0.22425720955E+03  0.00000000000E+00 0.  1.
          3    1    3    3  501    0  0.10172684299E+03  0.10295868494E+03 -0.18823829274E+03  0.23744998682E+03  0.00000000000E+00 0.  1.
         21    1    1    2  502  501  0.34961147240E+02  0.10373466979E+02 -0.56247960255E+00  0.36472003192E+02  0.00000000000E+00 0.  1.
<scales pt_clust_4="550.00000" pt_clust_5="550.00000" pt_clust_6="36.46767"></scales>
<mgrwt>
<rscale>  0 0.30000000E+03</rscale>
<asrwt>  1 0.36467666E+02</asrwt>
<pdfrwt beam="1">  1        1 0.81156073E+00 0.30000000E+03</pdfrwt>
<pdfrwt beam="2">0</pdfrwt>
<totfact> 0.84146567E-04</totfact>
</mgrwt>
<clustering>
<clus scale="   36.468">  1  6  2 -1</clus>
<clus scale="  457.402">  4  5 -1 -1</clus>
<clus scale="  300.000">  1  4  2 -1</clus>
</clustering>
</event>
<event>
 6    1  0.9678510E-012  0.3000000E+03  0.7818608E-02  0.1093470E+00
          1   -1    0    0  502    0  0.00000000000E+00  0.00000000000E+00  0.22753855731E+03  0.22753855731E+03  0.00000000000E+00 0.  1.
         13   -1    0    0    0    0 -0.00000000000E+00 -0.00000000000E+00 -0.27500000000E+03  0.27500000000E+03  0.00000000000E+00 0.  1.
    9000005    2    1    2  501    0 -0.38149763812E+02  0.35817113695E+01 -0.34447454274E+02  0.46207132329E+03  0.45918955515E+03 0.  0.
         13    1    3    3    0    0 -0.21069312578E+03 -0.14376969399E+02  0.10837445623E+03  0.23736746463E+03  0.00000000000E+00 0.  1.
          1    1    3    3  501    0  0.17254336197E+03  0.17958680769E+02 -0.14282191050E+03  0.22470385866E+03  0.00000000000E+00 0.  1.
         21    1    1    2  502  501  0.38149763812E+02 -0.35817113695E+01 -0.13013988415E+02  0.40467234026E+02  0.00000000000E+00 0. -1.
<scales pt_clust_4="550.00000" pt_clust_5="550.00000" pt_clust_6="38.31755"></scales>
<mgrwt>
<rscale>  0 0.30000000E+03</rscale>
<asrwt>  1 0.38317550E+02</asrwt>
<pdfrwt beam="1">  1        1 0.82741294E+00 0.30000000E+03</pdfrwt>
<pdfrwt beam="2">0</pdfrwt>
<totfact> 0.61145936E-04</totfact>
</mgrwt>
<clustering>
<clus scale="   38.318">  1  6  2 -1</clus>
<clus scale="  459.190">  4  5 -1 -1</clus>
<clus scale="  300.000">  1  4  2 -1</clus>
</clustering>
</event>
<event>
 6    1  0.9678510E-012  0.3000000E+03  0.7818608E-02  0.1093470E+00
          1   -1    0    0  502    0  0.00000000000E+00  0.00000000000E+00  0.23281385881E+03  0.23281385881E+03  0.00000000000E+00 0.  1.
         13   -1    0    0    0    0 -0.00000000000E+00 -0.00000000000E+00 -0.27500000000E+03  0.27500000000E+03  0.00000000000E+00 0.  1.
    9000005    2    1    2  501    0 -0.24769722218E+02  0.30896154103E+02 -0.41187960759E+02  0.46820189293E+03  0.46470254244E+03 0.  0.
         13    1    3    3    0    0 -0.16342394229E+03 -0.89412711848E+00  0.15541942216E+03  0.22552911378E+03  0.00000000000E+00 0.  1.
          1    1    3    3  501    0  0.13865422007E+03  0.31790281222E+02 -0.19660738292E+03  0.24267277915E+03  0.00000000000E+00 0.  1.
         21    1    1    2  502  501  0.24769722218E+02 -0.30896154103E+02 -0.99818042645E+00  0.39611965885E+02  0.00000000000E+00 0.  1.
<scales pt_clust_4="550.00000" pt_clust_5="550.00000" pt_clust_6="39.59939"></scales>
<mgrwt>
<rscale>  0 0.30000000E+03</rscale>
<asrwt>  1 0.39599387E+02</asrwt>
<pdfrwt beam="1">  1        1 0.84659585E+00 0.30000000E+03</pdfrwt>
<pdfrwt beam="2">0</pdfrwt>
<totfact> 0.42748870E-04</totfact>
</mgrwt>
<clustering>
<clus scale="   39.599">  1  6  2 -1</clus>
<clus scale="  464.703">  4  5 -1 -1</clus>
<clus scale="  300.000">  1  4  2 -1</clus>
</clustering>
</event>
<event>
 6    1  0.9678510E-012  0.3000000E+03  0.7818608E-02  0.1093470E+00
          1   -1    0    0  502    0  0.00000000000E+00  0.00000000000E+00  0.23360669450E+03  0.23360669450E+03  0.00000000000E+00 0.  1.
         13   -1    0    0    0    0 -0.00000000000E+00 -0.00000000000E+00 -0.27500000000E+03  0.27500000000E+03  0.00000000000E+00 0.  1.
    9000005    2    1    2  501    0 -0.18731390433E+02  0.40796832422E+02 -0.50466689080E+02  0.46280742799E+03  0.45785214008E+03 0.  0.
         13    1    3    3    0    0 -0.62878316960E+02  0.89402928699E+02 -0.23919412062E+03  0.26298363778E+03  0.00000000000E+00 0.  1.
          3    1    3    3  501    0  0.44146926526E+02 -0.48606096277E+02  0.18872743154E+03  0.19982379021E+03  0.00000000000E+00 0.  1.
         21    1    1    2  502  501  0.18731390433E+02 -0.40796832422E+02  0.90733835785E+01  0.45799266509E+02  0.00000000000E+00 0.  1.
<scales pt_clust_4="550.00000" pt_clust_5="550.00000" pt_clust_6="44.89150"></scales>
<mgrwt>
<rscale>  0 0.30000000E+03</rscale>
<asrwt>  1 0.44891497E+02</asrwt>
<pdfrwt beam="1">  1        1 0.84947889E+00 0.30000000E+03</pdfrwt>
<pdfrwt beam="2">0</pdfrwt>
<totfact> 0.39327181E-04</totfact>
</mgrwt>
<clustering>
<clus scale="   44.891">  1  6  2 -1</clus>
<clus scale="  457.852">  4  5 -1 -1</clus>
<clus scale="  300.000">  1  4  2 -1</clus>
</clustering>
</event>
<event>
 6    1  0.9678510E-012  0.3000000E+03  0.7818608E-02  0.1093470E+00
          1   -1    0    0  502    0  0.00000000000E+00  0.00000000000E+00  0.24769486334E+03  0.24769486334E+03  0.00000000000E+00 0.  1.
         13   -1    0    0    0    0 -0.00000000000E+00 -0.00000000000E+00 -0.27500000000E+03  0.27500000000E+03  0.00000000000E+00 0.  1.
    9000005    2    1    2  501    0 -0.15462800933E+02  0.40433837885E+02 -0.21701183880E+02  0.47904400142E+03  0.47659020181E+03 0.  0.
         13    1    3    3    0    0 -0.10544509626E+02  0.25928248464E+03 -0.57660313700E+01  0.25956086116E+03  0.00000000000E+00 0.  1.
          3    1    3    3  501    0 -0.49182913071E+01 -0.21884864676E+03 -0.15935152510E+02  0.21948314027E+03  0.00000000000E+00 0.  1.
         21    1    1    2  502  501  0.15462800933E+02 -0.40433837885E+02 -0.56039527833E+01  0.43650861911E+02  0.00000000000E+00 0.  1.
<scales pt_clust_4="550.00000" pt_clust_5="550.00000" pt_clust_6="43.28967"></scales>
<mgrwt>
<rscale>  0 0.30000000E+03</rscale>
<asrwt>  1 0.43289668E+02</asrwt>
<pdfrwt beam="1">  1        1 0.90070859E+00 0.30000000E+03</pdfrwt>
<pdfrwt beam="2">0</pdfrwt>
<totfact> 0.10401640E-04</totfact>
</mgrwt>
<clustering>
<clus scale="   43.290">  1  6  2 -1</clus>
<clus scale="  476.590">  4  5 -1 -1</clus>
<clus scale="  300.000">  1  4  2 -1</clus>
</clustering>
</event>
<event>
 6    1  0.9678510E-012  0.3000000E+03  0.7818608E-02  0.1093470E+00
          1   -1    0    0  502    0  0.00000000000E+00  0.00000000000E+00  0.24715452374E+03  0.24715452374E+03  0.00000000000E+00 0.  1.
         13   -1    0    0    0    0 -0.00000000000E+00 -0.00000000000E+00 -0.27500000000E+03  0.27500000000E+03  0.00000000000E+00 0.  1.
    9000005    2    1    2  501    0 -0.13783119688E+02  0.48144130450E+02 -0.55904730368E+02  0.46475109679E+03  0.45865064199E+03 0.  0.
         13    1    3    3    0    0  0.17905587792E+03 -0.60914000544E+02  0.79438733124E+02  0.20513906308E+03  0.00000000000E+00 0.  1.
          1    1    3    3  501    0 -0.19283899761E+03  0.10905813099E+03 -0.13534346349E+03  0.25961203371E+03  0.00000000000E+00 0.  1.
         21    1    1    2  502  501  0.13783119688E+02 -0.48144130450E+02  0.28059254110E+02  0.57403426957E+02  0.00000000000E+00 0. -1.
<scales pt_clust_4="550.00000" pt_clust_5="550.00000" pt_clust_6="50.07826"></scales>
<mgrwt>
<rscale>  0 0.30000000E+03</rscale>
<asrwt>  1 0.50078256E+02</asrwt>
<pdfrwt beam="1">  1        1 0.89874372E+00 0.30000000E+03</pdfrwt>
<pdfrwt beam="2">0</pdfrwt>
<totfact> 0.10720591E-04</totfact>
</mgrwt>
<clustering>
<clus scale="   50.078">  1  6  2 -1</clus>
<clus scale="  458.651">  4  5 -1 -1</clus>
<clus scale="  300.000">  1  4  2 -1</clus>
</clustering>
</event>
<event>
 6    1  0.9678510E-012  0.3000000E+03  0.7818608E-02  0.1093470E+00
          1   -1    0    0  502    0  0.00000000000E+00  0.00000000000E+00  0.24031463215E+03  0.24031463215E+03  0.00000000000E+00 0.  1.
         13   -1    0    0    0    0 -0.00000000000E+00 -0.00000000000E+00 -0.27500000000E+03  0.27500000000E+03  0.00000000000E+00 0.  1.
    9000005    2    1    2  501    0 -0.22137766756E+02 -0.33110384639E+02 -0.52510703570E+02  0.47167839857E+03  0.46705113146E+03 0.  0.
         13    1    3    3    0    0 -0.22656232144E+03 -0.62081988197E+02  0.51498973958E+02  0.24049283373E+03  0.00000000000E+00 0.  1.
          1    1    3    3  501    0  0.20442455468E+03  0.28971603558E+02 -0.10400967753E+03  0.23118556484E+03  0.00000000000E+00 0.  1.
         21    1    1    2  502  501  0.22137766756E+02  0.33110384639E+02  0.17825335718E+02  0.43636233583E+02  0.00000000000E+00 0.  1.
<scales pt_clust_4="550.00000" pt_clust_5="550.00000" pt_clust_6="39.82936"></scales>
<mgrwt>
<rscale>  0 0.30000000E+03</rscale>
<asrwt>  1 0.39829365E+02</asrwt>
<pdfrwt beam="1">  1        1 0.87387139E+00 0.30000000E+03</pdfrwt>
<pdfrwt beam="2">0</pdfrwt>
<totfact> 0.22567991E-04</totfact>
</mgrwt>
<clustering>
<clus scale="   39.829">  1  6  2 -1</clus>
<clus scale="  467.051">  4  5 -1 -1</clus>
<clus scale="  300.000">  1  4  2 -1</clus>
</clustering>
</event>
<event>
 6    1  0.9678510E-012  0.3000000E+03  0.7818608E-02  0.1093470E+00
          1   -1    0    0  502    0  0.00000000000E+00  0.00000000000E+00  0.23517593403E+03  0.23517593403E+03  0.00000000000E+00 0.  1.
         13   -1    0    0    0    0 -0.00000000000E+00 -0.00000000000E+00 -0.27500000000E+03  0.27500000000E+03  0.00000000000E+00 0.  1.
    9000005    2    1    2  501    0 -0.35466229569E+02 -0.13083089374E+02 -0.59123179770E+02  0.46773213047E+03  0.46243786049E+03 0.  0.
         13    1    3    3    0    0  0.12521505292E+03 -0.16359581546E+03  0.63682158261E+02  0.21563352614E+03  0.00000000000E+00 0.  1.
          3    1    3    3  501    0 -0.16068128249E+03  0.15051272609E+03 -0.12280533803E+03  0.25209860433E+03  0.00000000000E+00 0.  1.
         21    1    1    2  502  501  0.35466229569E+02  0.13083089374E+02  0.19299113801E+02  0.42443803563E+02  0.00000000000E+00 0. -1.
<scales pt_clust_4="550.00000" pt_clust_5="550.00000" pt_clust_6="37.80239"></scales>
<mgrwt>
<rscale>  0 0.30000000E+03</rscale>
<asrwt>  1 0.37802390E+02</asrwt>
<pdfrwt beam="1">  1        1 0.85518521E+00 0.30000000E+03</pdfrwt>
<pdfrwt beam="2">0</pdfrwt>
<totfact> 0.35764283E-04</totfact>
</mgrwt>
<clustering>
<clus scale="   37.802">  1  6  2 -1</clus>
<clus scale="  462.438">  4  5 -1 -1</clus>
<clus scale="  300.000">  1  4  2 -1</clus>
</clustering>
</event>
<event>
 6    1  0.9678510E-012  0.3000000E+03  0.7818608E-02  0.1093470E+00
          1   -1    0    0  502    0  0.00000000000E+00  0.00000000000E+00  0.22315873751E+03  0.22315873751E+03  0.00000000000E+00 0.  1.
         13   -1    0    0    0    0 -0.00000000000E+00 -0.00000000000E+00 -0.27500000000E+03  0.27500000000E+03  0.00000000000E+00 0.  1.
    9000005    2    1    2  501    0 -0.26329077703E+02 -0.19023148939E+02 -0.50145349361E+02  0.46563218452E+03  0.46178314680E+03 0.  0.
         13    1    3    3    0    0 -0.64140778017E+02 -0.20176784391E+03  0.92202433769E+02  0.23092334450E+03  0.00000000000E+00 0.  1.
          3    1    3    3  501    0  0.37811700314E+02  0.18274469497E+03 -0.14234778313E+03  0.23470884002E+03  0.00000000000E+00 0.  1.
         21    1    1    2  502  501  0.26329077703E+02  0.19023148939E+02 -0.16959131298E+01  0.32526552993E+02  0.00000000000E+00 0. -1.
<scales pt_clust_4="550.00000" pt_clust_5="550.00000" pt_clust_6="32.48231"></scales>
<mgrwt>
<rscale>  0 0.30000000E+03</rscale>
<asrwt>  1 0.32482311E+02</asrwt>
<pdfrwt beam="1">  1        1 0.81148632E+00 0.30000000E+03</pdfrwt>
<pdfrwt beam="2">0</pdfrwt>
<totfact> 0.86109707E-04</totfact>
</mgrwt>
<clustering>
<clus scale="   32.482">  1  6  2 -1</clus>
<clus scale="  461.783">  4  5 -1 -1</clus>
<clus scale="  300.000">  1  4  2 -1</clus>
</clustering>
</event>
<event>
 6    1  0.9678510E-012  0.3000000E+03  0.7818608E-02  0.1093470E+00
          1   -1    0    0  502    0  0.00000000000E+00  0.00000000000E+00  0.24177114410E+03  0.24177114410E+03  0.00000000000E+00 0.  1.
         13   -1    0    0    0    0 -0.00000000000E+00 -0.00000000000E+00 -0.27500000000E+03  0.27500000000E+03  0.00000000000E+00 0.  1.
    9000005    2    1    2  501    0 -0.24812838127E+02  0.19661421184E+02 -0.64205671452E+02  0.47247880254E+03  0.46702419872E+03 0.  0.
         13    1    3    3    0    0  0.83647371255E+02  0.22208997933E+03 -0.16283289056E+02  0.23787809302E+03  0.00000000000E+00 0.  1.
          1    1    3    3  501    0 -0.10846020938E+03 -0.20242855815E+03 -0.47922382397E+02  0.23460070952E+03  0.00000000000E+00 0.  1.
         21    1    1    2  502  501  0.24812838127E+02 -0.19661421184E+02  0.30976815553E+02  0.44292341558E+02  0.00000000000E+00 0. -1.
<scales pt_clust_4="550.00000" pt_clust_5="550.00000" pt_clust_6="31.65831"></scales>
<mgrwt>
<rscale>  0 0.30000000E+03</rscale>
<asrwt>  1 0.31658307E+02</asrwt>
<pdfrwt beam="1">  1        1 0.87916780E+00 0.30000000E+03</pdfrwt>
<pdfrwt beam="2">0</pdfrwt>
<totfact> 0.20589174E-04</totfact>
</mgrwt>
<clustering>
<clus scale="   31.658">  1  6  2 -1</clus>
<clus scale="  467.024">  4  5 -1 -1</clus>
<clus scale="  300.000">  1  4  2 -1</clus>
</clustering>
</event>
<event>
 6    1  0.9678510E-012  0.3000000E+03  0.7818608E-02  0.1093470E+00
          1   -1    0    0  502    0  0.00000000000E+00  0.00000000000E+00  0.22902880648E+03  0.22902880648E+03  0.00000000000E+00 0.  1.
         13   -1    0    0    0    0 -0.00000000000E+00 -0.00000000000E+00 -0.27500000000E+03  0.27500000000E+03  0.00000000000E+00 0.  1.
    9000005    2    1    2  501    0 -0.17711546390E+02 -0.35399568069E+02 -0.30393908866E+02  0.46149082237E+03  0.45878443864E+03 0.  0.
         13    1    3    3    0    0 -0.26321594470E+02 -0.15680021277E+03  0.16637173191E+03  0.23012754341E+03  0.00000000000E+00 0.  1.
          1    1    3    3  501    0  0.86100480798E+01  0.12140064470E+03 -0.19676564078E+03  0.23136327896E+03  0.00000000000E+00 0.  1.
         21    1    1    2  502  501  0.17711546390E+02  0.35399568069E+02 -0.15577284653E+02  0.42537984110E+02  0.00000000000E+00 0. -1.
<scales pt_clust_4="550.00000" pt_clust_5="550.00000" pt_clust_6="39.58320"></scales>
<mgrwt>
<rscale>  0 0.30000000E+03</rscale>
<asrwt>  1 0.39583202E+02</asrwt>
<pdfrwt beam="1">  1        1 0.83283202E+00 0.30000000E+03</pdfrwt>
<pdfrwt beam="2">0</pdfrwt>
<totfact> 0.54876277E-04</totfact>
</mgrwt>
<clustering>
<clus scale="   39.583">  1  6  2 -1</clus>
<clus scale="  458.784">  4  5 -1 -1</clus>
<clus scale="  300.000">  1  4  2 -1</clus>
</clustering>
</event>
<event>
 6    1  0.9678510E-012  0.3000000E+03  0.7818608E-02  0.1093470E+00
          1   -1    0    0  502    0  0.00000000000E+00  0.00000000000E+00  0.24613344697E+03  0.24613344697E+03  0.00000000000E+00 0.  1.
         13   -1    0    0    0    0 -0.00000000000E+00 -0.00000000000E+00 -0.27500000000E+03  0.27500000000E+03  0.00000000000E+00 0.  1.
    9000005    2    1    2  501    0  0.36006073642E+02 -0.33205152104E+01 -0.57743423937E+02  0.47485886611E+03  0.46994592940E+03 0.  0.
         13    1    3    3    0    0  0.15407024834E+03 -0.12173190567E+03  0.12056057147E+03  0.23041516806E+03  0.00000000000E+00 0.  1.
          3    1    3    3  501    0 -0.11806417470E+03  0.11841139046E+03 -0.17830399540E+03  0.24444369805E+03  0.00000000000E+00 0.  1.
         21    1    1    2  502  501 -0.36006073642E+02  0.33205152104E+01  0.28876870909E+02  0.46274580862E+02  0.00000000000E+00 0.  1.
<scales pt_clust_4="550.00000" pt_clust_5="550.00000" pt_clust_6="36.15886"></scales>
<mgrwt>
<rscale>  0 0.30000000E+03</rscale>
<asrwt>  1 0.36158860E+02</asrwt>
<pdfrwt beam="1">  1        1 0.89503072E+00 0.30000000E+03</pdfrwt>
<pdfrwt beam="2">0</pdfrwt>
<totfact> 0.12522936E-04</totfact>
</mgrwt>
<clustering>
<clus scale="   36.159">  1  6  2 -1</clus>
<clus scale="  469.946">  4  5 -1 -1</clus>
<clus scale="  300.000">  1  4  2 -1</clus>
</clustering>
</event>
<event>
 6    1  0.9678510E-012  0.3000000E+03  0.7818608E-02  0.1093470E+00
          1   -1    0    0  502    0  0.00000000000E+00  0.00000000000E+00  0.25467719569E+03  0.25467719569E+03  0.00000000000E+00 0.  1.
         13   -1    0    0    0    0 -0.00000000000E+00 -0.00000000000E+00 -0.27500000000E+03  0.27500000000E+03  0.00000000000E+00 0.  1.
    9000005    2    1    2  501    0 -0.24641994270E+02  0.22931361145E+02 -0.49710546995E+02  0.48499258284E+03  0.48126249773E+03 0.  0.
         13    1    3    3    0    0 -0.21819936601E+03  0.12396906659E+03  0.29592000814E+02  0.25269542796E+03  0.00000000000E+00 0.  1.
          3    1    3    3  501    0  0.19355737174E+03 -0.10103770544E+03 -0.79302547809E+02  0.23229715488E+03  0.00000000000E+00 0.  1.
         21    1    1    2  502  501  0.24641994270E+02 -0.22931361145E+02  0.29387742680E+02  0.44684612848E+02  0.00000000000E+00 0. -1.
<scales pt_clust_4="550.00000" pt_clust_5="550.00000" pt_clust_6="33.66118"></scales>
<mgrwt>
<rscale>  0 0.30000000E+03</rscale>
<asrwt>  1 0.33661182E+02</asrwt>
<pdfrwt beam="1">  1        1 0.92609889E+00 0.30000000E+03</pdfrwt>
<pdfrwt beam="2">0</pdfrwt>
<totfact> 0.31356725E-05</totfact>
</mgrwt>
<clustering>
<clus scale="   33.661">  1  6  2 -1</clus>
<clus scale="  481.262">  4  5 -1 -1</clus>
<clus scale="  300.000">  1  4  2 -1</clus>
</clustering>
</event>
<event>
 6    1  0.9678510E-012  0.3000000E+03  0.7818608E-02  0.1093470E+00
          1   -1    0    0  502    0  0.00000000000E+00  0.00000000000E+00  0.23496649527E+03  0.23496649527E+03  0.00000000000E+00 0.  1.
         13   -1    0    0    0    0 -0.00000000000E+00 -0.00000000000E+00 -0.27500000000E+03  0.27500000000E+03  0.00000000000E+00 0.  1.
    9000005    2    1    2  501    0 -0.16600756217E+02  0.35353661204E+02 -0.44053142589E+02  0.47070297587E+03  0.46700657988E+03 0.  0.
         13    1    3    3    0    0 -0.16512737240E+03  0.15303910405E+03 -0.13286815545E+03  0.26142295847E+03  0.00000000000E+00 0.  1.
          3    1    3    3  501    0  0.14852661618E+03 -0.11768544285E+03  0.88815012859E+02  0.20928001740E+03  0.00000000000E+00 0.  1.
         21    1    1    2  502  501  0.16600756217E+02 -0.35353661204E+02  0.40196378621E+01  0.39263519405E+02  0.00000000000E+00 0. -1.
<scales pt_clust_4="550.00000" pt_clust_5="550.00000" pt_clust_6="39.05722"></scales>
<mgrwt>
<rscale>  0 0.30000000E+03</rscale>
<asrwt>  1 0.39057220E+02</asrwt>
<pdfrwt beam="1">  1        1 0.85442362E+00 0.30000000E+03</pdfrwt>
<pdfrwt beam="2">0</pdfrwt>
<totfact> 0.36171273E-04</totfact>
</mgrwt>
<clustering>
<clus scale="   39.057">  1  6  2 -1</clus>
<clus scale="  467.007">  4  5 -1 -1</clus>
<clus scale="  300.000">  1  4  2 -1</clus>
</clustering>
</event>
<event>
 6    1  0.9678510E-012  0.3000000E+03  0.7818608E-02  0.1093470E+00
          1   -1    0    0  502    0  0.00000000000E+00  0.00000000000E+00  0.24220206729E+03  0.24220206729E+03  0.00000000000E+00 0.  1.
         13   -1    0    0    0    0 -0.00000000000E+00 -0.00000000000E+00 -0.27500000000E+03  0.27500000000E+03  0.00000000000E+00 0.  1.
    9000005    2    1    2  501    0 -0.28466383051E+02 -0.19744467058E+02 -0.28766883507E+02  0.48232473509E+03  0.48021811456E+03 0.  0.
         13    1    3    3    0    0 -0.12728338158E+03  0.18542624443E+03  0.67892484543E+02  0.23493263036E+03  0.00000000000E+00 0.  1.
          3    1    3    3  501    0  0.98816998527E+02 -0.20517071149E+03 -0.96659368050E+02  0.24739210473E+03  0.00000000000E+00 0.  1.
         21    1    1    2  502  501  0.28466383051E+02  0.19744467058E+02 -0.40310492057E+01  0.34877332196E+02  0.00000000000E+00 0. -1.
<scales pt_clust_4="550.00000" pt_clust_5="550.00000" pt_clust_6="34.64362"></scales>
<mgrwt>
<rscale>  0 0.30000000E+03</rscale>
<asrwt>  1 0.34643616E+02</asrwt>
<pdfrwt beam="1">  1        1 0.88073479E+00 0.30000000E+03</pdfrwt>
<pdfrwt beam="2">0</pdfrwt>
<totfact> 0.19362941E-04</totfact>
</mgrwt>
<clustering>
<clus scale="   34.644">  1  6  2 -1</clus>
<clus scale="  480.218">  4  5 -1 -1</clus>
<clus scale="  300.000">  1  4  2 -1</clus>
</clustering>
</event>
<event>
 6    1  0.9678510E-012  0.3000000E+03  0.7818608E-02  0.1093470E+00
          1   -1    0    0  502    0  0.00000000000E+00  0.00000000000E+00  0.22615851061E+03  0.22615851061E+03  0.00000000000E+00 0.  1.
         13   -1    0    0    0    0 -0.00000000000E+00 -0.00000000000E+00 -0.27500000000E+03  0.27500000000E+03  0.00000000000E+00 0.  1.
    9000005    2    1    2  501    0  0.24567927386E+02  0.18047326917E+02 -0.42774452780E+02  0.47007639360E+03  0.46713260745E+03 0.  0.
         13    1    3    3    0    0 -0.11852909095E+02  0.78416377034E+02  0.20112209040E+03  0.21619369762E+03  0.00000000000E+00 0.  1.
          3    1    3    3  501    0  0.36420836481E+02 -0.60369050118E+02 -0.24389654318E+03  0.25388269598E+03  0.00000000000E+00 0.  1.
         21    1    1    2  502  501 -0.24567927386E+02 -0.18047326917E+02 -0.60670366096E+01  0.31082117014E+02  0.00000000000E+00 0.  1.
<scales pt_clust_4="550.00000" pt_clust_5="550.00000" pt_clust_6="30.48426"></scales>
<mgrwt>
<rscale>  0 0.30000000E+03</rscale>
<asrwt>  1 0.30484258E+02</asrwt>
<pdfrwt beam="1">  1        1 0.82239458E+00 0.30000000E+03</pdfrwt>
<pdfrwt beam="2">0</pdfrwt>
<totfact> 0.70736751E-04</totfact>
</mgrwt>
<clustering>
<clus scale="   30.484">  1  6  2 -1</clus>
<clus scale="  467.133">  4  5 -1 -1</clus>
<clus scale="  300.000">  1  4  2 -1</clus>
</clustering>
</event>
<event>
 6    1  0.9678510E-012  0.3000000E+03  0.7818608E-02  0.1093470E+00
          1   -1    0    0  502    0  0.00000000000E+00  0.00000000000E+00  0.22621265825E+03  0.22621265825E+03  0.00000000000E+00 0.  1.
         13   -1    0    0    0    0 -0.00000000000E+00 -0.00000000000E+00 -0.27500000000E+03  0.27500000000E+03  0.00000000000E+00 0.  1.
    9000005    2    1    2  501    0  0.79501985489E-01  0.30215208617E+02 -0.64462843958E+02  0.46717317351E+03  0.46171674286E+03 0.  0.
         13    1    3    3    0    0  0.29804246818E+02  0.12246206353E+03  0.17106650359E+03  0.21248293763E+03  0.00000000000E+00 0.  1.
          3    1    3    3  501    0 -0.29724744832E+02 -0.92246854913E+02 -0.23552934755E+03  0.25469023588E+03  0.00000000000E+00 0.  1.
         21    1    1    2  502  501 -0.79501985489E-01 -0.30215208617E+02  0.15675502213E+02  0.34039484749E+02  0.00000000000E+00 0. -1.
<scales pt_clust_4="550.00000" pt_clust_5="550.00000" pt_clust_6="30.21531"></scales>
<mgrwt>
<rscale>  0 0.30000000E+03</rscale>
<asrwt>  1 0.30215313E+02</asrwt>
<pdfrwt beam="1">  1        1 0.82259148E+00 0.30000000E+03</pdfrwt>
<pdfrwt beam="2">0</pdfrwt>
<totfact> 0.70572383E-04</totfact>
</mgrwt>
<clustering>
<clus scale="   30.215">  1  6  2 -1</clus>
<clus scale="  461.717">  4  5 -1 -1</clus>
<clus scale="  300.000">  1  4  2 -1</clus>
</clustering>
</event>
<event>
 6    1  0.9678510E-012  0.3000000E+03  0.7818608E-02  0.1093470E+00
          1   -1    0    0  502    0  0.00000000000E+00  0.00000000000E+00  0.22620514139E+03  0.22620514139E+03  0.00000000000E+00 0.  1.
         13   -1    0    0    0    0 -0.00000000000E+00 -0.00000000000E+00 -0.27500000000E+03  0.27500000000E+03  0.00000000000E+00 0.  1.
    9000005    2    1    2  501    0 -0.34915210543E+01  0.30154201609E+02 -0.67848617305E+02  0.46536504772E+03  0.45939060305E+03 0.  0.
         13    1    3    3    0    0  0.22600130542E+02  0.12651300229E+03  0.16668105600E+03  0.21047299133E+03  0.00000000000E+00 0.  1.
          1    1    3    3  501    0 -0.26091651597E+02 -0.96358800684E+02 -0.23452967330E+03  0.25489205639E+03  0.00000000000E+00 0.  1.
         21    1    1    2  502  501  0.34915210543E+01 -0.30154201609E+02  0.19053758691E+02  0.35840093669E+02  0.00000000000E+00 0. -1.
<scales pt_clust_4="550.00000" pt_clust_5="550.00000" pt_clust_6="30.35567"></scales>
<mgrwt>
<rscale>  0 0.30000000E+03</rscale>
<asrwt>  1 0.30355668E+02</asrwt>
<pdfrwt beam="1">  1        1 0.82256415E+00 0.30000000E+03</pdfrwt>
<pdfrwt beam="2">0</pdfrwt>
<totfact> 0.70548982E-04</totfact>
</mgrwt>
<clustering>
<clus scale="   30.356">  1  6  2 -1</clus>
<clus scale="  459.391">  4  5 -1 -1</clus>
<clus scale="  300.000">  1  4  2 -1</clus>
</clustering>
</event>
<event>
 6    1  0.9678510E-012  0.3000000E+03  0.7818608E-02  0.1093470E+00
          1   -1    0    0  502    0  0.00000000000E+00  0.00000000000E+00  0.22576039709E+03  0.22576039709E+03  0.00000000000E+00 0.  1.
         13   -1    0    0    0    0 -0.00000000000E+00 -0.00000000000E+00 -0.27500000000E+03  0.27500000000E+03  0.00000000000E+00 0.  1.
    9000005    2    1    2  501    0 -0.28302860771E+02 -0.22651421569E+02 -0.56921364021E+02  0.46370438164E+03  0.45876744985E+03 0.  0.
         13    1    3    3    0    0  0.87741954535E+02 -0.19674494963E+03 -0.11816096819E+03  0.24570152664E+03  0.00000000000E+00 0.  1.
          3    1    3    3  501    0 -0.11604481531E+03  0.17409352806E+03  0.61239604172E+02  0.21800285500E+03  0.00000000000E+00 0.  1.
         21    1    1    2  502  501  0.28302860771E+02  0.22651421569E+02  0.76817611082E+01  0.37056015444E+02  0.00000000000E+00 0.  1.
<scales pt_clust_4="550.00000" pt_clust_5="550.00000" pt_clust_6="36.25105"></scales>
<mgrwt>
<rscale>  0 0.30000000E+03</rscale>
<asrwt>  1 0.36251053E+02</asrwt>
<pdfrwt beam="1">  1        1 0.82094690E+00 0.30000000E+03</pdfrwt>
<pdfrwt beam="2">0</pdfrwt>
<totfact> 0.70504586E-04</totfact>
</mgrwt>
<clustering>
<clus scale="   36.251">  1  6  2 -1</clus>
<clus scale="  458.767">  4  5 -1 -1</clus>
<clus scale="  300.000">  1  4  2 -1</clus>
</clustering>
</event>
<event>
 6    1  0.9678510E-012  0.3000000E+03  0.7818608E-02  0.1093470E+00
          1   -1    0    0  502    0  0.00000000000E+00  0.00000000000E+00  0.22499985599E+03  0.22499985599E+03  0.00000000000E+00 0.  1.
         13   -1    0    0    0    0 -0.00000000000E+00 -0.00000000000E+00 -0.27500000000E+03  0.27500000000E+03  0.00000000000E+00 0.  1.
    9000005    2    1    2  501    0 -0.28853658058E+02 -0.15513884312E+02 -0.66717114465E+02  0.46322117615E+03  0.45721928052E+03 0.  0.
         13    1    3    3    0    0  0.11841523061E+03 -0.29143103482E+02  0.15467865622E+03  0.19696947482E+03  0.00000000000E+00 0.  1.
          1    1    3    3  501    0 -0.14726888866E+03  0.13629219170E+02 -0.22139577068E+03  0.26625170133E+03  0.00000000000E+00 0.  1.
         21    1    1    2  502  501  0.28853658058E+02  0.15513884312E+02  0.16716970452E+02  0.36778679841E+02  0.00000000000E+00 0.  1.
<scales pt_clust_4="550.00000" pt_clust_5="550.00000" pt_clust_6="32.75995"></scales>
<mgrwt>
<rscale>  0 0.30000000E+03</rscale>
<asrwt>  1 0.32759948E+02</asrwt>
<pdfrwt beam="1">  1        1 0.81818129E+00 0.30000000E+03</pdfrwt>
<pdfrwt beam="2">0</pdfrwt>
<totfact> 0.75898132E-04</totfact>
</mgrwt>
<clustering>
<clus scale="   32.760">  1  6  2 -1</clus>
<clus scale="  457.219">  4  5 -1 -1</clus>
<clus scale="  300.000">  1  4  2 -1</clus>
</clustering>
</event>
<event>
 6    1  0.9678510E-012  0.3000000E+03  0.7818608E-02  0.1093470E+00
          1   -1    0    0  502    0  0.00000000000E+00  0.00000000000E+00  0.23025748539E+03  0.23025748539E+03  0.00000000000E+00 0.  1.
         13   -1    0    0    0    0 -0.00000000000E+00 -0.00000000000E+00 -0.27500000000E+03  0.27500000000E+03  0.00000000000E+00 0.  1.
    9000005    2    1    2  501    0  0.19922151658E+02 -0.27822932844E+02 -0.40176935766E+02  0.47073427249E+03  0.46776656723E+03 0.  0.
         13    1    3    3    0    0  0.11229926923E+03 -0.22220833253E+03 -0.55103905357E+02  0.25499825352E+03  0.00000000000E+00 0.  1.
          3    1    3    3  501    0 -0.92377117570E+02  0.19438539968E+03  0.14926969591E+02  0.21573601897E+03  0.00000000000E+00 0.  1.
         21    1    1    2  502  501 -0.19922151658E+02  0.27822932844E+02 -0.45655788408E+01  0.34523212899E+02  0.00000000000E+00 0. -1.
<scales pt_clust_4="550.00000" pt_clust_5="550.00000" pt_clust_6="34.22001"></scales>
<mgrwt>
<rscale>  0 0.30000000E+03</rscale>
<asrwt>  1 0.34220007E+02</asrwt>
<pdfrwt beam="1">  1        1 0.83729995E+00 0.30000000E+03</pdfrwt>
<pdfrwt beam="2">0</pdfrwt>
<totfact> 0.52277134E-04</totfact>
</mgrwt>
<clustering>
<clus scale="   34.220">  1  6  2 -1</clus>
<clus scale="  467.767">  4  5 -1 -1</clus>
<clus scale="  300.000">  1  4  2 -1</clus>
</clustering>
</event>
<event>
 6    1  0.9678510E-012  0.3000000E+03  0.7818608E-02  0.1093470E+00
          1   -1    0    0  502    0  0.00000000000E+00  0.00000000000E+00  0.25387988293E+03  0.25387988293E+03  0.00000000000E+00 0.  1.
         13   -1    0    0    0    0 -0.00000000000E+00 -0.00000000000E+00 -0.27500000000E+03  0.27500000000E+03  0.00000000000E+00 0.  1.
    9000005    2    1    2  501    0 -0.28455542782E+02 -0.20807954750E+02 -0.55919564042E+02  0.47934514355E+03  0.47476528949E+03 0.  0.
         13    1    3    3    0    0 -0.11443622358E+02  0.11904496994E+03  0.17313963698E+03  0.21042812372E+03  0.00000000000E+00 0.  1.
          3    1    3    3  501    0 -0.17011920425E+02 -0.13985292469E+03 -0.22905920102E+03  0.26891701983E+03  0.00000000000E+00 0.  1.
         21    1    1    2  502  501  0.28455542782E+02  0.20807954750E+02  0.34799446970E+02  0.49534739379E+02  0.00000000000E+00 0. -1.
<scales pt_clust_4="550.00000" pt_clust_5="550.00000" pt_clust_6="35.25179"></scales>
<mgrwt>
<rscale>  0 0.30000000E+03</rscale>
<asrwt>  1 0.35251793E+02</asrwt>
<pdfrwt beam="1">  1        1 0.92319957E+00 0.30000000E+03</pdfrwt>
<pdfrwt beam="2">0</pdfrwt>
<totfact> 0.35690654E-05</totfact>
</mgrwt>
<clustering>
<clus scale="   35.252">  1  6  2 -1</clus>
<clus scale="  474.765">  4  5 -1 -1</clus>
<clus scale="  300.000">  1  4  2 -1</clus>
</clustering>
</event>
<event>
 6    1  0.9678510E-012  0.3000000E+03  0.7818608E-02  0.1093470E+00
          1   -1    0    0  502    0  0.00000000000E+00  0.00000000000E+00  0.23368866718E+03  0.23368866718E+03  0.00000000000E+00 0.  1.
         13   -1    0    0    0    0 -0.00000000000E+00 -0.00000000000E+00 -0.27500000000E+03  0.27500000000E+03  0.00000000000E+00 0.  1.
    9000005    2    1    2  501    0 -0.31978875813E+02  0.19736271525E+02 -0.31279917103E+02  0.46979396043E+03  0.46724272400E+03 0.  0.
         13    1    3    3    0    0 -0.37113491749E+02 -0.22271699150E+03 -0.25431480343E+02  0.22721582200E+03  0.00000000000E+00 0.  1.
          3    1    3    3  501    0  0.51346159360E+01  0.24245326303E+03 -0.58484367596E+01  0.24257813843E+03  0.00000000000E+00 0.  1.
         21    1    1    2  502  501  0.31978875813E+02 -0.19736271525E+02 -0.10031415717E+02  0.38894706751E+02  0.00000000000E+00 0.  1.
<scales pt_clust_4="550.00000" pt_clust_5="550.00000" pt_clust_6="37.57885"></scales>
<mgrwt>
<rscale>  0 0.30000000E+03</rscale>
<asrwt>  1 0.37578855E+02</asrwt>
<pdfrwt beam="1">  1        1 0.84977697E+00 0.30000000E+03</pdfrwt>
<pdfrwt beam="2">0</pdfrwt>
<totfact> 0.40358220E-04</totfact>
</mgrwt>
<clustering>
<clus scale="   37.579">  1  6  2 -1</clus>
<clus scale="  467.243">  4  5 -1 -1</clus>
<clus scale="  300.000">  1  4  2 -1</clus>
</clustering>
</event>
<event>
 6    1  0.9678510E-012  0.3000000E+03  0.7818608E-02  0.1093470E+00
          1   -1    0    0  502    0  0.00000000000E+00  0.00000000000E+00  0.22711855627E+03  0.22711855627E+03  0.00000000000E+00 0.  1.
         13   -1    0    0    0    0 -0.00000000000E+00 -0.00000000000E+00 -0.27500000000E+03  0.27500000000E+03  0.00000000000E+00 0.  1.
    9000005    2    1    2  501    0  0.22483867183E+02 -0.25860862331E+02 -0.46348395505E+02  0.46781609687E+03  0.46425146014E+03 0.  0.
         13    1    3    3    0    0 -0.86603538342E+02  0.14406191370E+03 -0.16339646140E+03  0.23441930686E+03  0.00000000000E+00 0.  1.
          1    1    3    3  501    0  0.10908740552E+03 -0.16992277603E+03  0.11704806589E+03  0.23339679001E+03  0.00000000000E+00 0.  1.
         21    1    1    2  502  501 -0.22483867183E+02  0.25860862331E+02 -0.15330482273E+01  0.34302459399E+02  0.00000000000E+00 0.  1.
<scales pt_clust_4="550.00000" pt_clust_5="550.00000" pt_clust_6="34.26818"></scales>
<mgrwt>
<rscale>  0 0.30000000E+03</rscale>
<asrwt>  1 0.34268185E+02</asrwt>
<pdfrwt beam="1">  1        1 0.82588566E+00 0.30000000E+03</pdfrwt>
<pdfrwt beam="2">0</pdfrwt>
<totfact> 0.64395839E-04</totfact>
</mgrwt>
<clustering>
<clus scale="   34.268">  1  6  2 -1</clus>
<clus scale="  464.251">  4  5 -1 -1</clus>
<clus scale="  300.000">  1  4  2 -1</clus>
</clustering>
</event>
<event>
 6    1  0.9678510E-012  0.3000000E+03  0.7818608E-02  0.1093470E+00
          1   -1    0    0  502    0  0.00000000000E+00  0.00000000000E+00  0.24151320211E+03  0.24151320211E+03  0.00000000000E+00 0.  1.
         13   -1    0    0    0    0 -0.00000000000E+00 -0.00000000000E+00 -0.27500000000E+03  0.27500000000E+03  0.00000000000E+00 0.  1.
    9000005    2    1    2  501    0  0.18864217615E+02 -0.26395258083E+02 -0.61006699966E+02  0.47397012552E+03  0.46890648757E+03 0.  0.
         13    1    3    3    0    0 -0.22219153141E+03  0.18043640779E+02 -0.73264690985E+01  0.22304332931E+03  0.00000000000E+00 0.  1.
          3    1    3    3  501    0  0.24105574902E+03 -0.44438898861E+02 -0.53680230868E+02  0.25092679621E+03  0.00000000000E+00 0.  1.
         21    1    1    2  502  501 -0.18864217615E+02  0.26395258083E+02  0.27519902073E+02  0.42543076588E+02  0.00000000000E+00 0. -1.
<scales pt_clust_4="550.00000" pt_clust_5="550.00000" pt_clust_6="32.44331"></scales>
<mgrwt>
<rscale>  0 0.30000000E+03</rscale>
<asrwt>  1 0.32443310E+02</asrwt>
<pdfrwt beam="1">  1        1 0.87822983E+00 0.30000000E+03</pdfrwt>
<pdfrwt beam="2">0</pdfrwt>
<totfact> 0.21021529E-04</totfact>
</mgrwt>
<clustering>
<clus scale="   32.443">  1  6  2 -1</clus>
<clus scale="  468.906">  4  5 -1 -1</clus>
<clus scale="  300.000">  1  4  2 -1</clus>
</clustering>
</event>
<event>
 6    1  0.9678510E-012  0.3000000E+03  0.7818608E-02  0.1093470E+00
          1   -1    0    0  502    0  0.00000000000E+00  0.00000000000E+00  0.24315393916E+03  0.24315393916E+03  0.00000000000E+00 0.  1.
         13   -1    0    0    0    0 -0.00000000000E+00 -0.00000000000E+00 -0.27500000000E+03  0.27500000000E+03  0.00000000000E+00 0.  1.
    9000005    2    1    2  501    0 -0.29093638357E+02 -0.89755201566E+01 -0.64452255051E+02  0.47354268883E+03  0.46814696967E+03 0.  0.
         13    1    3    3    0    0 -0.14232784986E+03 -0.13079403413E+03 -0.18544580023E+03  0.26787019437E+03  0.00000000000E+00 0.  1.
          1    1    3    3  501    0  0.11323421150E+03  0.12181851398E+03  0.12099354518E+03  0.20567249446E+03  0.00000000000E+00 0.  1.
         21    1    1    2  502  501  0.29093638357E+02  0.89755201566E+01  0.32606194215E+02  0.44611250331E+02  0.00000000000E+00 0. -1.
<scales pt_clust_4="550.00000" pt_clust_5="550.00000" pt_clust_6="30.44667"></scales>
<mgrwt>
<rscale>  0 0.30000000E+03</rscale>
<asrwt>  1 0.30446671E+02</asrwt>
<pdfrwt beam="1">  1        1 0.88419614E+00 0.30000000E+03</pdfrwt>
<pdfrwt beam="2">0</pdfrwt>
<totfact> 0.17870483E-04</totfact>
</mgrwt>
<clustering>
<clus scale="   30.447">  1  6  2 -1</clus>
<clus scale="  468.147">  4  5 -1 -1</clus>
<clus scale="  300.000">  1  4  2 -1</clus>
</clustering>
</event>
<event>
 6    1  0.9678510E-012  0.3000000E+03  0.7818608E-02  0.1093470E+00
          1   -1    0    0  502    0  0.00000000000E+00  0.00000000000E+00  0.24313278179E+03  0.24313278179E+03  0.00000000000E+00 0.  1.
         13   -1    0    0    0    0 -0.00000000000E+00 -0.00000000000E+00 -0.27500000000E+03  0.27500000000E+03  0.00000000000E+00 0.  1.
    9000005    2    1    2  501    0 -0.16843567464E+02  0.33827282052E+02 -0.66519533381E+02  0.46686121342E+03  0.46055027250E+03 0.  0.
         13    1    3    3    0    0  0.11051826690E+03  0.17221406543E+03  0.88683328294E+02  0.22301727370E+03  0.00000000000E+00 0.  1.
          3    1    3    3  501    0 -0.12736183436E+03 -0.13838678338E+03 -0.15520286168E+03  0.24384393972E+03  0.00000000000E+00 0.  1.
         21    1    1    2  502  501  0.16843567464E+02 -0.33827282052E+02  0.34652315168E+02  0.51271568364E+02  0.00000000000E+00 0. -1.
<scales pt_clust_4="550.00000" pt_clust_5="550.00000" pt_clust_6="37.78877"></scales>
<mgrwt>
<rscale>  0 0.30000000E+03</rscale>
<asrwt>  1 0.37788765E+02</asrwt>
<pdfrwt beam="1">  1        1 0.88411921E+00 0.30000000E+03</pdfrwt>
<pdfrwt beam="2">0</pdfrwt>
<totfact> 0.17199859E-04</totfact>
</mgrwt>
<clustering>
<clus scale="   37.789">  1  6  2 -1</clus>
<clus scale="  460.550">  4  5 -1 -1</clus>
<clus scale="  300.000">  1  4  2 -1</clus>
</clustering>
</event>
<event>
 6    1  0.9678510E-012  0.3000000E+03  0.7818608E-02  0.1093470E+00
          1   -1    0    0  502    0  0.00000000000E+00  0.00000000000E+00  0.22697246455E+03  0.22697246455E+03  0.00000000000E+00 0.  1.
         13   -1    0    0    0    0 -0.00000000000E+00 -0.00000000000E+00 -0.27500000000E+03  0.27500000000E+03  0.00000000000E+00 0.  1.
    9000005    2    1    2  501    0 -0.25506192765E+02 -0.25835608658E+02 -0.51921663251E+02  0.46545933301E+03  0.46112740867E+03 0.  0.
         13    1    3    3    0    0 -0.32906776870E+02  0.80987170271E+02  0.18546808791E+03  0.20503704383E+03  0.00000000000E+00 0.  1.
          3    1    3    3  501    0  0.74005841050E+01 -0.10682277893E+03 -0.23738975116E+03  0.26042228917E+03  0.00000000000E+00 0.  1.
         21    1    1    2  502  501  0.25506192765E+02  0.25835608658E+02  0.38941278043E+01  0.36513131548E+02  0.00000000000E+00 0. -1.
<scales pt_clust_4="550.00000" pt_clust_5="550.00000" pt_clust_6="36.30488"></scales>
<mgrwt>
<rscale>  0 0.30000000E+03</rscale>
<asrwt>  1 0.36304883E+02</asrwt>
<pdfrwt beam="1">  1        1 0.82535442E+00 0.30000000E+03</pdfrwt>
<pdfrwt beam="2">0</pdfrwt>
<totfact> 0.64402509E-04</totfact>
</mgrwt>
<clustering>
<clus scale="   36.305">  1  6  2 -1</clus>
<clus scale="  461.127">  4  5 -1 -1</clus>
<clus scale="  300.000">  1  4  2 -1</clus>
</clustering>
</event>
<event>
 6    1  0.9678510E-012  0.3000000E+03  0.7818608E-02  0.1093470E+00
          1   -1    0    0  502    0  0.00000000000E+00  0.00000000000E+00  0.23023369025E+03  0.23023369025E+03  0.00000000000E+00 0.  1.
         13   -1    0    0    0    0 -0.00000000000E+00 -0.00000000000E+00 -0.27500000000E+03  0.27500000000E+03  0.00000000000E+00 0.  1.
    9000005    2    1    2  501    0  0.25969614230E+02 -0.19970508918E+02 -0.29452885482E+02  0.46907096009E+03  0.46699769918E+03 0.  0.
         13    1    3    3    0    0 -0.18494787941E+03  0.22967973411E+02  0.10633953558E+03  0.21457246499E+03  0.00000000000E+00 0.  1.
          3    1    3    3  501    0  0.21091749365E+03 -0.42938482329E+02 -0.13579242106E+03  0.25449849510E+03  0.00000000000E+00 0.  1.
         21    1    1    2  502  501 -0.25969614230E+02  0.19970508918E+02 -0.15313424272E+02  0.36162730160E+02  0.00000000000E+00 0.  1.
<scales pt_clust_4="550.00000" pt_clust_5="550.00000" pt_clust_6="32.76039"></scales>
<mgrwt>
<rscale>  0 0.30000000E+03</rscale>
<asrwt>  1 0.32760390E+02</asrwt>
<pdfrwt beam="1">  1        1 0.83721342E+00 0.30000000E+03</pdfrwt>
<pdfrwt beam="2">0</pdfrwt>
<totfact> 0.52785075E-04</totfact>
</mgrwt>
<clustering>
<clus scale="   32.760">  1  6  2 -1</clus>
<clus scale="  466.998">  4  5 -1 -1</clus>
<clus scale="  300.000">  1  4  2 -1</clus>
</clustering>
</event>
<event>
 6    1  0.9678510E-012  0.3000000E+03  0.7818608E-02  0.1093470E+00
          1   -1    0    0  502    0  0.00000000000E+00  0.00000000000E+00  0.22859172789E+03  0.22859172789E+03  0.00000000000E+00 0.  1.
         13   -1    0    0    0    0 -0.00000000000E+00 -0.00000000000E+00 -0.27500000000E+03  0.27500000000E+03  0.00000000000E+00 0.  1.
    9000005    2    1    2  501    0  0.13248920628E+02  0.37621683140E+02 -0.58532235273E+02  0.46190341510E+03  0.45644037659E+03 0.  0.
         13    1    3    3    0    0 -0.15752946978E+03  0.17518905436E+03 -0.27042091983E+01  0.23561420026E+03  0.00000000000E+00 0.  1.
          3    1    3    3  501    0  0.17077839041E+03 -0.13756737122E+03 -0.55828026075E+02  0.22628921484E+03  0.00000000000E+00 0.  1.
         21    1    1    2  502  501 -0.13248920628E+02 -0.37621683140E+02  0.12123963160E+02  0.41688312784E+02  0.00000000000E+00 0.  1.
<scales pt_clust_4="550.00000" pt_clust_5="550.00000" pt_clust_6="39.88640"></scales>
<mgrwt>
<rscale>  0 0.30000000E+03</rscale>
<asrwt>  1 0.39886400E+02</asrwt>
<pdfrwt beam="1">  1        1 0.83124265E+00 0.30000000E+03</pdfrwt>
<pdfrwt beam="2">0</pdfrwt>
<totfact> 0.56372861E-04</totfact>
</mgrwt>
<clustering>
<clus scale="   39.886">  1  6  2 -1</clus>
<clus scale="  456.440">  4  5 -1 -1</clus>
<clus scale="  300.000">  1  4  2 -1</clus>
</clustering>
</event>
<event>
 6    1  0.9678510E-012  0.3000000E+03  0.7818608E-02  0.1093470E+00
          1   -1    0    0  502    0  0.00000000000E+00  0.00000000000E+00  0.24806088975E+03  0.24806088975E+03  0.00000000000E+00 0.  1.
         13   -1    0    0    0    0 -0.00000000000E+00 -0.00000000000E+00 -0.27500000000E+03  0.27500000000E+03  0.00000000000E+00 0.  1.
    9000005    2    1    2  501    0  0.25212374962E+02 -0.17795590663E+02 -0.67371812686E+02  0.47219685211E+03  0.46634596503E+03 0.  0.
         13    1    3    3    0    0 -0.42225558756E+01 -0.24147215143E+03 -0.42576907274E+02  0.24523340500E+03  0.00000000000E+00 0.  1.
          1    1    3    3  501    0  0.29434930837E+02  0.22367656077E+03 -0.24794905412E+02  0.22696344711E+03  0.00000000000E+00 0.  1.
         21    1    1    2  502  501 -0.25212374962E+02  0.17795590663E+02  0.40432702433E+02  0.50864037632E+02  0.00000000000E+00 0.  1.
<scales pt_clust_4="550.00000" pt_clust_5="550.00000" pt_clust_6="30.86012"></scales>
<mgrwt>
<rscale>  0 0.30000000E+03</rscale>
<asrwt>  1 0.30860118E+02</asrwt>
<pdfrwt beam="1">  1        1 0.90203960E+00 0.30000000E+03</pdfrwt>
<pdfrwt beam="2">0</pdfrwt>
<totfact> 0.10615761E-04</totfact>
</mgrwt>
<clustering>
<clus scale="   30.860">  1  6  2 -1</clus>
<clus scale="  466.346">  4  5 -1 -1</clus>
<clus scale="  300.000">  1  4  2 -1</clus>
</clustering>
</event>
<event>
 6    1  0.9678510E-012  0.3000000E+03  0.7818608E-02  0.1093470E+00
          1   -1    0    0  502    0  0.00000000000E+00  0.00000000000E+00  0.22850051547E+03  0.22850051547E+03  0.00000000000E+00 0.  1.
         13   -1    0    0    0    0 -0.00000000000E+00 -0.00000000000E+00 -0.27500000000E+03  0.27500000000E+03  0.00000000000E+00 0.  1.
    9000005    2    1    2  501    0 -0.31101951212E+02  0.20962924174E+02 -0.29391435274E+02  0.46227599718E+03  0.45981351170E+03 0.  0.
         13    1    3    3    0    0 -0.34832359351E+02  0.16594163204E+03  0.15359871996E+03  0.22878480123E+03  0.00000000000E+00 0.  1.
          3    1    3    3  501    0  0.37304081393E+01 -0.14497870786E+03 -0.18299015523E+03  0.23349119596E+03  0.00000000000E+00 0.  1.
         21    1    1    2  502  501  0.31101951212E+02 -0.20962924174E+02 -0.17108049252E+02  0.41224518291E+02  0.00000000000E+00 0. -1.
<scales pt_clust_4="550.00000" pt_clust_5="550.00000" pt_clust_6="37.50703"></scales>
<mgrwt>
<rscale>  0 0.30000000E+03</rscale>
<asrwt>  1 0.37507026E+02</asrwt>
<pdfrwt beam="1">  1        1 0.83091097E+00 0.30000000E+03</pdfrwt>
<pdfrwt beam="2">0</pdfrwt>
<totfact> 0.57360442E-04</totfact>
</mgrwt>
<clustering>
<clus scale="   37.507">  1  6  2 -1</clus>
<clus scale="  459.814">  4  5 -1 -1</clus>
<clus scale="  300.000">  1  4  2 -1</clus>
</clustering>
</event>
<event>
 6    1  0.9678510E-012  0.3000000E+03  0.7818608E-02  0.1093470E+00
          1   -1    0    0  502    0  0.00000000000E+00  0.00000000000E+00  0.25201294867E+03  0.25201294867E+03  0.00000000000E+00 0.  1.
         13   -1    0    0    0    0 -0.00000000000E+00 -0.00000000000E+00 -0.27500000000E+03  0.27500000000E+03  0.00000000000E+00 0.  1.
    9000005    2    1    2  501    0  0.35637504527E+02  0.43071362091E+02 -0.20552476528E+02  0.47105670580E+03  0.46727598037E+03 0.  0.
         13    1    3    3    0    0  0.15603134937E+03 -0.16669282908E+03 -0.19976756461E+02  0.22919719032E+03  0.00000000000E+00 0.  1.
          3    1    3    3  501    0 -0.12039384484E+03  0.20976419117E+03 -0.57572006759E+00  0.24185951548E+03  0.00000000000E+00 0.  1.
         21    1    1    2  502  501 -0.35637504527E+02 -0.43071362091E+02 -0.24345748004E+01  0.55956242866E+02  0.00000000000E+00 0.  1.
<scales pt_clust_4="550.00000" pt_clust_5="550.00000" pt_clust_6="55.90326"></scales>
<mgrwt>
<rscale>  0 0.30000000E+03</rscale>
<asrwt>  1 0.55903255E+02</asrwt>
<pdfrwt beam="1">  1        1 0.91641072E+00 0.30000000E+03</pdfrwt>
<pdfrwt beam="2">0</pdfrwt>
<totfact> 0.46197565E-05</totfact>
</mgrwt>
<clustering>
<clus scale="   55.903">  1  6  2 -1</clus>
<clus scale="  467.276">  4  5 -1 -1</clus>
<clus scale="  300.000">  1  4  2 -1</clus>
</clustering>
</event>
<event>
 6    1  0.9678510E-012  0.3000000E+03  0.7818608E-02  0.1093470E+00
          1   -1    0    0  502    0  0.00000000000E+00  0.00000000000E+00  0.22625134675E+03  0.22625134675E+03  0.00000000000E+00 0.  1.
         13   -1    0    0    0    0 -0.00000000000E+00 -0.00000000000E+00 -0.27500000000E+03  0.27500000000E+03  0.00000000000E+00 0.  1.
    9000005    2    1    2  501    0  0.32420143098E+02 -0.13818920422E+01 -0.65928899485E+02  0.46453437295E+03  0.45868571873E+03 0.  0.
         13    1    3    3    0    0  0.12379972371E+03 -0.18183686871E+03 -0.12602659101E+03  0.25352262237E+03  0.00000000000E+00 0.  1.
          3    1    3    3  501    0 -0.91379580614E+02  0.18045497666E+03  0.60097691529E+02  0.21101175058E+03  0.00000000000E+00 0.  1.
         21    1    1    2  502  501 -0.32420143098E+02  0.13818920422E+01  0.17180246236E+02  0.36716973798E+02  0.00000000000E+00 0. -1.
<scales pt_clust_4="550.00000" pt_clust_5="550.00000" pt_clust_6="32.44958"></scales>
<mgrwt>
<rscale>  0 0.30000000E+03</rscale>
<asrwt>  1 0.32449581E+02</asrwt>
<pdfrwt beam="1">  1        1 0.82273217E+00 0.30000000E+03</pdfrwt>
<pdfrwt beam="2">0</pdfrwt>
<totfact> 0.69416747E-04</totfact>
</mgrwt>
<clustering>
<clus scale="   32.450">  1  6  2 -1</clus>
<clus scale="  458.686">  4  5 -1 -1</clus>
<clus scale="  300.000">  1  4  2 -1</clus>
</clustering>
</event>
<event>
 6    1  0.9678510E-012  0.3000000E+03  0.7818608E-02  0.1093470E+00
          1   -1    0    0  502    0  0.00000000000E+00  0.00000000000E+00  0.22927830070E+03  0.22927830070E+03  0.00000000000E+00 0.  1.
         13   -1    0    0    0    0 -0.00000000000E+00 -0.00000000000E+00 -0.27500000000E+03  0.27500000000E+03  0.00000000000E+00 0.  1.
    9000005    2    1    2  501    0  0.33907401720E+02  0.84752498346E+01 -0.61577888455E+02  0.46589913336E+03  0.46048737699E+03 0.  0.
         13    1    3    3    0    0 -0.43173454444E+02 -0.32393595138E+02 -0.25132495124E+03  0.25705548679E+03  0.00000000000E+00 0.  1.
          1    1    3    3  501    0  0.77080856163E+02  0.40868844973E+02  0.18974706279E+03  0.20884364657E+03  0.00000000000E+00 0.  1.
         21    1    1    2  502  501 -0.33907401720E+02 -0.84752498346E+01  0.15856189159E+02  0.38379167341E+02  0.00000000000E+00 0. -1.
<scales pt_clust_4="550.00000" pt_clust_5="550.00000" pt_clust_6="34.95056"></scales>
<mgrwt>
<rscale>  0 0.30000000E+03</rscale>
<asrwt>  1 0.34950562E+02</asrwt>
<pdfrwt beam="1">  1        1 0.83373928E+00 0.30000000E+03</pdfrwt>
<pdfrwt beam="2">0</pdfrwt>
<totfact> 0.55281653E-04</totfact>
</mgrwt>
<clustering>
<clus scale="   34.951">  1  6  2 -1</clus>
<clus scale="  460.487">  4  5 -1 -1</clus>
<clus scale="  300.000">  1  4  2 -1</clus>
</clustering>
</event>
<event>
 6    1  0.9678510E-012  0.3000000E+03  0.7818608E-02  0.1093470E+00
          1   -1    0    0  502    0  0.00000000000E+00  0.00000000000E+00  0.23940166641E+03  0.23940166641E+03  0.00000000000E+00 0.  1.
         13   -1    0    0    0    0 -0.00000000000E+00 -0.00000000000E+00 -0.27500000000E+03  0.27500000000E+03  0.00000000000E+00 0.  1.
    9000005    2    1    2  501    0 -0.10913070050E+02 -0.43296215472E+02 -0.52139828907E+02  0.46678571909E+03  0.46171061111E+03 0.  0.
         13    1    3    3    0    0 -0.18376274516E+03  0.87137678274E+02  0.73720078574E+02  0.21632468992E+03  0.00000000000E+00 0.  1.
          3    1    3    3  501    0  0.17284967510E+03 -0.13043389375E+03 -0.12585990748E+03  0.25046102917E+03  0.00000000000E+00 0.  1.
         21    1    1    2  502  501  0.10913070050E+02  0.43296215472E+02  0.16541495314E+02  0.47615947322E+02  0.00000000000E+00 0.  1.
<scales pt_clust_4="550.00000" pt_clust_5="550.00000" pt_clust_6="44.65039"></scales>
<mgrwt>
<rscale>  0 0.30000000E+03</rscale>
<asrwt>  1 0.44650391E+02</asrwt>
<pdfrwt beam="1">  1        1 0.87055151E+00 0.30000000E+03</pdfrwt>
<pdfrwt beam="2">0</pdfrwt>
<totfact> 0.23909606E-04</totfact>
</mgrwt>
<clustering>
<clus scale="   44.650">  1  6  2 -1</clus>
<clus scale="  461.711">  4  5 -1 -1</clus>
<clus scale="  300.000">  1  4  2 -1</clus>
</clustering>
</event>
<event>
 6    1  0.9678510E-012  0.3000000E+03  0.7818608E-02  0.1093470E+00
          1   -1    0    0  502    0  0.00000000000E+00  0.00000000000E+00  0.23139733592E+03  0.23139733592E+03  0.00000000000E+00 0.  1.
         13   -1    0    0    0    0 -0.00000000000E+00 -0.00000000000E+00 -0.27500000000E+03  0.27500000000E+03  0.00000000000E+00 0.  1.
    9000005    2    1    2  501    0 -0.51380446175E+01  0.43217157003E+02 -0.29937170472E+02  0.46078080518E+03  0.45774293450E+03 0.  0.
         13    1    3    3    0    0 -0.20872093420E+03  0.73319159141E+02  0.69956170831E+02  0.23202153630E+03  0.00000000000E+00 0.  1.
          3    1    3    3  501    0  0.20358288958E+03 -0.30102002137E+02 -0.99893341303E+02  0.22875926888E+03  0.00000000000E+00 0.  1.
         21    1    1    2  502  501  0.51380446175E+01 -0.43217157003E+02 -0.13665493604E+02  0.45616530747E+02  0.00000000000E+00 0.  1.
<scales pt_clust_4="550.00000" pt_clust_5="550.00000" pt_clust_6="43.52154"></scales>
<mgrwt>
<rscale>  0 0.30000000E+03</rscale>
<asrwt>  1 0.43521536E+02</asrwt>
<pdfrwt beam="1">  1        1 0.84144486E+00 0.30000000E+03</pdfrwt>
<pdfrwt beam="2">0</pdfrwt>
<totfact> 0.46524174E-04</totfact>
</mgrwt>
<clustering>
<clus scale="   43.522">  1  6  2 -1</clus>
<clus scale="  457.743">  4  5 -1 -1</clus>
<clus scale="  300.000">  1  4  2 -1</clus>
</clustering>
</event>
<event>
 6    1  0.9678510E-012  0.3000000E+03  0.7818608E-02  0.1093470E+00
          1   -1    0    0  502    0  0.00000000000E+00  0.00000000000E+00  0.23224330807E+03  0.23224330807E+03  0.00000000000E+00 0.  1.
         13   -1    0    0    0    0 -0.00000000000E+00 -0.00000000000E+00 -0.27500000000E+03  0.27500000000E+03  0.00000000000E+00 0.  1.
    9000005    2    1    2  501    0 -0.12595472538E+02  0.29097246965E+02 -0.49160297923E+02  0.47489671816E+03  0.47128002537E+03 0.  0.
         13    1    3    3    0    0  0.19177898114E+03  0.92567600500E+02 -0.12609655582E+03  0.24748389778E+03  0.00000000000E+00 0.  1.
          3    1    3    3  501    0 -0.20437445368E+03 -0.63470353535E+02  0.76936257900E+02  0.22741282038E+03  0.00000000000E+00 0.  1.
         21    1    1    2  502  501  0.12595472538E+02 -0.29097246965E+02  0.64036059963E+01  0.32346589915E+02  0.00000000000E+00 0.  1.
<scales pt_clust_4="550.00000" pt_clust_5="550.00000" pt_clust_6="31.70640"></scales>
<mgrwt>
<rscale>  0 0.30000000E+03</rscale>
<asrwt>  1 0.31706399E+02</asrwt>
<pdfrwt beam="1">  1        1 0.84452112E+00 0.30000000E+03</pdfrwt>
<pdfrwt beam="2">0</pdfrwt>
<totfact> 0.46477035E-04</totfact>
</mgrwt>
<clustering>
<clus scale="   31.706">  1  6  2 -1</clus>
<clus scale="  471.280">  4  5 -1 -1</clus>
<clus scale="  300.000">  1  4  2 -1</clus>
</clustering>
</event>
<event>
 6    1  0.9678510E-012  0.3000000E+03  0.7818608E-02  0.1093470E+00
          1   -1    0    0  502    0  0.00000000000E+00  0.00000000000E+00  0.24112282354E+03  0.24112282354E+03  0.00000000000E+00 0.  1.
         13   -1    0    0    0    0 -0.00000000000E+00 -0.00000000000E+00 -0.27500000000E+03  0.27500000000E+03  0.00000000000E+00 0.  1.
    9000005    2    1    2  501    0 -0.76576292670E+01 -0.34803192449E+02 -0.39126788658E+02  0.48010255259E+03  0.47717675334E+03 0.  0.
         13    1    3    3    0    0 -0.58833598122E+02 -0.19078781500E+02  0.21328692156E+03  0.22207364337E+03  0.00000000000E+00 0.  1.
          3    1    3    3  501    0  0.51175968855E+02 -0.15724410949E+02 -0.25241371022E+03  0.25802890922E+03  0.00000000000E+00 0.  1.
         21    1    1    2  502  501  0.76576292670E+01  0.34803192449E+02  0.52496121927E+01  0.36020270943E+02  0.00000000000E+00 0. -1.
<scales pt_clust_4="550.00000" pt_clust_5="550.00000" pt_clust_6="35.63568"></scales>
<mgrwt>
<rscale>  0 0.30000000E+03</rscale>
<asrwt>  1 0.35635677E+02</asrwt>
<pdfrwt beam="1">  1        1 0.87681027E+00 0.30000000E+03</pdfrwt>
<pdfrwt beam="2">0</pdfrwt>
<totfact> 0.21430807E-04</totfact>
</mgrwt>
<clustering>
<clus scale="   35.636">  1  6  2 -1</clus>
<clus scale="  477.177">  4  5 -1 -1</clus>
<clus scale="  300.000">  1  4  2 -1</clus>
</clustering>
</event>
<event>
 6    1  0.9678510E-012  0.3000000E+03  0.7818608E-02  0.1093470E+00
          1   -1    0    0  502    0  0.00000000000E+00  0.00000000000E+00  0.24384927456E+03  0.24384927456E+03  0.00000000000E+00 0.  1.
         13   -1    0    0    0    0 -0.00000000000E+00 -0.00000000000E+00 -0.27500000000E+03  0.27500000000E+03  0.00000000000E+00 0.  1.
    9000005    2    1    2  501    0  0.11015301465E+02  0.30539683599E+02 -0.21195836498E+02  0.48489181655E+03  0.48333921952E+03 0.  0.
         13    1    3    3    0    0 -0.74059715305E+02 -0.43972856906E+02  0.21029665913E+03  0.22725126714E+03  0.00000000000E+00 0.  1.
          1    1    3    3  501    0  0.85075016771E+02  0.74512540505E+02 -0.23149249562E+03  0.25764054941E+03  0.00000000000E+00 0.  1.
         21    1    1    2  502  501 -0.11015301465E+02 -0.30539683599E+02 -0.99548889435E+01  0.33957458011E+02  0.00000000000E+00 0.  1.
<scales pt_clust_4="550.00000" pt_clust_5="550.00000" pt_clust_6="32.46552"></scales>
<mgrwt>
<rscale>  0 0.30000000E+03</rscale>
<asrwt>  1 0.32465523E+02</asrwt>
<pdfrwt beam="1">  1        1 0.88672463E+00 0.30000000E+03</pdfrwt>
<pdfrwt beam="2">0</pdfrwt>
<totfact> 0.16296366E-04</totfact>
</mgrwt>
<clustering>
<clus scale="   32.466">  1  6  2 -1</clus>
<clus scale="  483.339">  4  5 -1 -1</clus>
<clus scale="  300.000">  1  4  2 -1</clus>
</clustering>
</event>
<event>
 6    1  0.9678510E-012  0.3000000E+03  0.7818608E-02  0.1093470E+00
          1   -1    0    0  502    0  0.00000000000E+00  0.00000000000E+00  0.23169592323E+03  0.23169592323E+03  0.00000000000E+00 0.  1.
         13   -1    0    0    0    0 -0.00000000000E+00 -0.00000000000E+00 -0.27500000000E+03  0.27500000000E+03  0.00000000000E+00 0.  1.
    9000005    2    1    2  501    0  0.23734940906E+02 -0.23365850549E+02 -0.54035670286E+02  0.47170338844E+03  0.46741301074E+03 0.  0.
         13    1    3    3    0    0  0.10402205590E+03 -0.95871985096E+02 -0.22713113008E+03  0.26758283930E+03  0.00000000000E+00 0.  1.
          1    1    3    3  501    0 -0.80287114992E+02  0.72506134548E+02  0.17309545979E+03  0.20412054914E+03  0.00000000000E+00 0.  1.
         21    1    1    2  502  501 -0.23734940906E+02  0.23365850549E+02  0.10731593519E+02  0.34992534791E+02  0.00000000000E+00 0.  1.
<scales pt_clust_4="550.00000" pt_clust_5="550.00000" pt_clust_6="33.30631"></scales>
<mgrwt>
<rscale>  0 0.30000000E+03</rscale>
<asrwt>  1 0.33306312E+02</asrwt>
<pdfrwt beam="1">  1        1 0.84253063E+00 0.30000000E+03</pdfrwt>
<pdfrwt beam="2">0</pdfrwt>
<totfact> 0.47876749E-04</totfact>
</mgrwt>
<clustering>
<clus scale="   33.306">  1  6  2 -1</clus>
<clus scale="  467.413">  4  5 -1 -1</clus>
<clus scale="  300.000">  1  4  2 -1</clus>
</clustering>
</event>
<event>
 6    1  0.9678510E-012  0.3000000E+03  0.7818608E-02  0.1093470E+00
          1   -1    0    0  502    0  0.00000000000E+00  0.00000000000E+00  0.22447470708E+03  0.22447470708E+03  0.00000000000E+00 0.  1.
         13   -1    0    0    0    0 -0.00000000000E+00 -0.00000000000E+00 -0.27500000000E+03  0.27500000000E+03  0.00000000000E+00 0.  1.
    9000005    2    1    2  501    0  0.24522888259E+02 -0.17404488604E+02 -0.61390035679E+02  0.46750079729E+03  0.46247591365E+03 0.  0.
         13    1    3    3    0    0  0.17469775546E+03  0.12080764933E+03 -0.13369657001E+03  0.25097523131E+03  0.00000000000E+00 0.  1.
          3    1    3    3  501    0 -0.15017486721E+03 -0.13821213793E+03  0.72306534329E+02  0.21652556597E+03  0.00000000000E+00 0.  1.
         21    1    1    2  502  501 -0.24522888259E+02  0.17404488604E+02  0.10864742754E+02  0.31973909790E+02  0.00000000000E+00 0. -1.
<scales pt_clust_4="550.00000" pt_clust_5="550.00000" pt_clust_6="30.07139"></scales>
<mgrwt>
<rscale>  0 0.30000000E+03</rscale>
<asrwt>  1 0.30071386E+02</asrwt>
<pdfrwt beam="1">  1        1 0.81627166E+00 0.30000000E+03</pdfrwt>
<pdfrwt beam="2">0</pdfrwt>
<totfact> 0.80003033E-04</totfact>
</mgrwt>
<clustering>
<clus scale="   30.071">  1  6  2 -1</clus>
<clus scale="  462.476">  4  5 -1 -1</clus>
<clus scale="  300.000">  1  4  2 -1</clus>
</clustering>
</event>
<event>
 6    1  0.9678510E-012  0.3000000E+03  0.7818608E-02  0.1093470E+00
          1   -1    0    0  502    0  0.00000000000E+00  0.00000000000E+00  0.24439384276E+03  0.24439384276E+03  0.00000000000E+00 0.  1.
         13   -1    0    0    0    0 -0.00000000000E+00 -0.00000000000E+00 -0.27500000000E+03  0.27500000000E+03  0.00000000000E+00 0.  1.
    9000005    2    1    2  501    0 -0.40306868972E+02  0.56098016517E+01 -0.28885105207E+02  0.47866209126E+03  0.47605349987E+03 0.  0.
         13    1    3    3    0    0  0.17509509882E+03  0.10558647041E+03 -0.10425937394E+03  0.22951429895E+03  0.00000000000E+00 0.  1.
          1    1    3    3  501    0 -0.21540196779E+03 -0.99976668758E+02  0.75374268737E+02  0.24914779231E+03  0.00000000000E+00 0.  1.
         21    1    1    2  502  501  0.40306868972E+02 -0.56098016517E+01 -0.17210520285E+01  0.40731751509E+02  0.00000000000E+00 0.  1.
<scales pt_clust_4="550.00000" pt_clust_5="550.00000" pt_clust_6="40.69538"></scales>
<mgrwt>
<rscale>  0 0.30000000E+03</rscale>
<asrwt>  1 0.40695375E+02</asrwt>
<pdfrwt beam="1">  1        1 0.88870488E+00 0.30000000E+03</pdfrwt>
<pdfrwt beam="2">0</pdfrwt>
<totfact> 0.14676502E-04</totfact>
</mgrwt>
<clustering>
<clus scale="   40.695">  1  6  2 -1</clus>
<clus scale="  476.053">  4  5 -1 -1</clus>
<clus scale="  300.000">  1  4  2 -1</clus>
</clustering>
</event>
<event>
 6    1  0.9678510E-012  0.3000000E+03  0.7818608E-02  0.1093470E+00
          1   -1    0    0  502    0  0.00000000000E+00  0.00000000000E+00  0.23896075554E+03  0.23896075554E+03  0.00000000000E+00 0.  1.
         13   -1    0    0    0    0 -0.00000000000E+00 -0.00000000000E+00 -0.27500000000E+03  0.27500000000E+03  0.00000000000E+00 0.  1.
    9000005    2    1    2  501    0  0.20209692913E+02 -0.25502008823E+02 -0.62390001421E+02  0.47209016283E+03  0.46681669360E+03 0.  0.
         13    1    3    3    0    0 -0.22270807477E+03 -0.72261496675E+01 -0.48804201356E+02  0.22810732973E+03  0.00000000000E+00 0.  1.
          3    1    3    3  501    0  0.24291776768E+03 -0.18275859156E+02 -0.13585800065E+02  0.24398283310E+03  0.00000000000E+00 0.  1.
         21    1    1    2  502  501 -0.20209692913E+02  0.25502008823E+02  0.26350756965E+02  0.41870592715E+02  0.00000000000E+00 0.  1.
<scales pt_clust_4="550.00000" pt_clust_5="550.00000" pt_clust_6="32.53896"></scales>
<mgrwt>
<rscale>  0 0.30000000E+03</rscale>
<asrwt>  1 0.32538963E+02</asrwt>
<pdfrwt beam="1">  1        1 0.86894820E+00 0.30000000E+03</pdfrwt>
<pdfrwt beam="2">0</pdfrwt>
<totfact> 0.26320986E-04</totfact>
</mgrwt>
<clustering>
<clus scale="   32.539">  1  6  2 -1</clus>
<clus scale="  466.817">  4  5 -1 -1</clus>
<clus scale="  300.000">  1  4  2 -1</clus>
</clustering>
</event>
<event>
 6    1  0.9678510E-012  0.3000000E+03  0.7818608E-02  0.1093470E+00
          1   -1    0    0  502    0  0.00000000000E+00  0.00000000000E+00  0.24571146818E+03  0.24571146818E+03  0.00000000000E+00 0.  1.
         13   -1    0    0    0    0 -0.00000000000E+00 -0.00000000000E+00 -0.27500000000E+03  0.27500000000E+03  0.00000000000E+00 0.  1.
    9000005    2    1    2  501    0  0.24232851477E+02  0.21989386971E+02 -0.70216340092E+02  0.46831061208E+03  0.46185899444E+03 0.  0.
         13    1    3    3    0    0  0.12621137138E+03 -0.19250252877E+02  0.16501015860E+03  0.20863421326E+03  0.00000000000E+00 0.  1.
          1    1    3    3  501    0 -0.10197851990E+03  0.41239639848E+02 -0.23522649870E+03  0.25967639882E+03  0.00000000000E+00 0.  1.
         21    1    1    2  502  501 -0.24232851477E+02 -0.21989386971E+02  0.40927808271E+02  0.52400856099E+02  0.00000000000E+00 0. -1.
<scales pt_clust_4="550.00000" pt_clust_5="550.00000" pt_clust_6="32.72253"></scales>
<mgrwt>
<rscale>  0 0.30000000E+03</rscale>
<asrwt>  1 0.32722534E+02</asrwt>
<pdfrwt beam="1">  1        1 0.89349625E+00 0.30000000E+03</pdfrwt>
<pdfrwt beam="2">0</pdfrwt>
<totfact> 0.13283309E-04</totfact>
</mgrwt>
<clustering>
<clus scale="   32.723">  1  6  2 -1</clus>
<clus scale="  461.859">  4  5 -1 -1</clus>
<clus scale="  300.000">  1  4  2 -1</clus>
</clustering>
</event>
<event>
 6    1  0.9678510E-012  0.3000000E+03  0.7818608E-02  0.1093470E+00
          1   -1    0    0  502    0  0.00000000000E+00  0.00000000000E+00  0.22445490365E+03  0.22445490365E+03  0.00000000000E+00 0.  1.
         13   -1    0    0    0    0 -0.00000000000E+00 -0.00000000000E+00 -0.27500000000E+03  0.27500000000E+03  0.00000000000E+00 0.  1.
    9000005    2    1    2  501    0  0.28809581813E+02 -0.92058841662E+01 -0.60201334881E+02  0.46770615170E+03  0.46282837349E+03 0.  0.
         13    1    3    3    0    0  0.61500667356E+02 -0.15698820537E+03  0.13830996818E+03  0.21807630777E+03  0.00000000000E+00 0.  1.
          3    1    3    3  501    0 -0.32691085543E+02  0.14778232121E+03 -0.19851130307E+03  0.24962984393E+03  0.00000000000E+00 0.  1.
         21    1    1    2  502  501 -0.28809581813E+02  0.92058841662E+01  0.96562385276E+01  0.31748751944E+02  0.00000000000E+00 0.  1.
<scales pt_clust_4="550.00000" pt_clust_5="550.00000" pt_clust_6="30.24467"></scales>
<mgrwt>
<rscale>  0 0.30000000E+03</rscale>
<asrwt>  1 0.30244674E+02</asrwt>
<pdfrwt beam="1">  1        1 0.81619965E+00 0.30000000E+03</pdfrwt>
<pdfrwt beam="2">0</pdfrwt>
<totfact> 0.80022949E-04</totfact>
</mgrwt>
<clustering>
<clus scale="   30.245">  1  6  2 -1</clus>
<clus scale="  462.828">  4  5 -1 -1</clus>
<clus scale="  300.000">  1  4  2 -1</clus>
</clustering>
</event>
<event>
 6    1  0.9678510E-012  0.3000000E+03  0.7818608E-02  0.1093470E+00
          1   -1    0    0  502    0  0.00000000000E+00  0.00000000000E+00  0.22210069158E+03  0.22210069158E+03  0.00000000000E+00 0.  1.
         13   -1    0    0    0    0 -0.00000000000E+00 -0.00000000000E+00 -0.27500000000E+03  0.27500000000E+03  0.00000000000E+00 0.  1.
    9000005    2    1    2  501    0 -0.29476315064E+02  0.14349601434E+02 -0.46125542393E+02  0.46362460881E+03  0.46015806852E+03 0.  0.
         13    1    3    3    0    0 -0.17429046870E+03 -0.12457514015E+03  0.77619809866E+02  0.22786172980E+03  0.00000000000E+00 0.  1.
          3    1    3    3  501    0  0.14481415363E+03  0.13892474159E+03 -0.12374535226E+03  0.23576287902E+03  0.00000000000E+00 0.  1.
         21    1    1    2  502  501  0.29476315064E+02 -0.14349601434E+02 -0.67737660279E+01  0.33476082765E+02  0.00000000000E+00 0.  1.
<scales pt_clust_4="550.00000" pt_clust_5="550.00000" pt_clust_6="32.78361"></scales>
<mgrwt>
<rscale>  0 0.30000000E+03</rscale>
<asrwt>  1 0.32783613E+02</asrwt>
<pdfrwt beam="1">  1        1 0.80763888E+00 0.30000000E+03</pdfrwt>
<pdfrwt beam="2">0</pdfrwt>
<totfact> 0.92092851E-04</totfact>
</mgrwt>
<clustering>
<clus scale="   32.784">  1  6  2 -1</clus>
<clus scale="  460.158">  4  5 -1 -1</clus>
<clus scale="  300.000">  1  4  2 -1</clus>
</clustering>
</event>
<event>
 6    1  0.9678510E-012  0.3000000E+03  0.7818608E-02  0.1093470E+00
          1   -1    0    0  502    0  0.00000000000E+00  0.00000000000E+00  0.23445453574E+03  0.23445453574E+03  0.00000000000E+00 0.  1.
         13   -1    0    0    0    0 -0.00000000000E+00 -0.00000000000E+00 -0.27500000000E+03  0.27500000000E+03  0.00000000000E+00 0.  1.
    9000005    2    1    2  501    0  0.31034089209E+02  0.69030344964E+01 -0.62499587300E+02  0.47081841149E+03  0.46556740823E+03 0.  0.
         13    1    3    3    0    0 -0.38559100008E+02  0.22741485292E+03 -0.64743048888E+02  0.23957458526E+03  0.00000000000E+00 0.  1.
          3    1    3    3  501    0  0.69593189216E+02 -0.22051181843E+03  0.22434615877E+01  0.23124382623E+03  0.00000000000E+00 0.  1.
         21    1    1    2  502  501 -0.31034089209E+02 -0.69030344964E+01  0.21954123036E+02  0.38636124243E+02  0.00000000000E+00 0. -1.
<scales pt_clust_4="550.00000" pt_clust_5="550.00000" pt_clust_6="31.79256"></scales>
<mgrwt>
<rscale>  0 0.30000000E+03</rscale>
<asrwt>  1 0.31792555E+02</asrwt>
<pdfrwt beam="1">  1        1 0.85256195E+00 0.30000000E+03</pdfrwt>
<pdfrwt beam="2">0</pdfrwt>
<totfact> 0.39183183E-04</totfact>
</mgrwt>
<clustering>
<clus scale="   31.793">  1  6  2 -1</clus>
<clus scale="  465.567">  4  5 -1 -1</clus>
<clus scale="  300.000">  1  4  2 -1</clus>
</clustering>
</event>
<event>
 6    1  0.9678510E-012  0.3000000E+03  0.7818608E-02  0.1093470E+00
          1   -1    0    0  502    0  0.00000000000E+00  0.00000000000E+00  0.22248785470E+03  0.22248785470E+03  0.00000000000E+00 0.  1.
         13   -1    0    0    0    0 -0.00000000000E+00 -0.00000000000E+00 -0.27500000000E+03  0.27500000000E+03  0.00000000000E+00 0.  1.
    9000005    2    1    2  501    0 -0.34059811567E+02 -0.43132122235E+01 -0.53634612466E+02  0.46313768008E+03  0.45873866688E+03 0.  0.
         13    1    3    3    0    0 -0.15151096799E+03 -0.11251003887E+03  0.12281005157E+03  0.22515859085E+03  0.00000000000E+00 0.  1.
          3    1    3    3  501    0  0.11745115642E+03  0.10819682665E+03 -0.17644466404E+03  0.23797908923E+03  0.00000000000E+00 0.  1.
         21    1    1    2  502  501  0.34059811567E+02  0.43132122235E+01  0.11224671657E+01  0.34350174617E+02  0.00000000000E+00 0. -1.
<scales pt_clust_4="550.00000" pt_clust_5="550.00000" pt_clust_6="34.33183"></scales>
<mgrwt>
<rscale>  0 0.30000000E+03</rscale>
<asrwt>  1 0.34331830E+02</asrwt>
<pdfrwt beam="1">  1        1 0.80904674E+00 0.30000000E+03</pdfrwt>
<pdfrwt beam="2">0</pdfrwt>
<totfact> 0.89037018E-04</totfact>
</mgrwt>
<clustering>
<clus scale="   34.332">  1  6  2 -1</clus>
<clus scale="  458.739">  4  5 -1 -1</clus>
<clus scale="  300.000">  1  4  2 -1</clus>
</clustering>
</event>
<event>
 6    1  0.9678510E-012  0.3000000E+03  0.7818608E-02  0.1093470E+00
          1   -1    0    0  502    0  0.00000000000E+00  0.00000000000E+00  0.21866483648E+03  0.21866483648E+03  0.00000000000E+00 0.  1.
         13   -1    0    0    0    0 -0.00000000000E+00 -0.00000000000E+00 -0.27500000000E+03  0.27500000000E+03  0.00000000000E+00 0.  1.
    9000005    2    1    2  501    0  0.42048289311E+01 -0.30853357664E+02 -0.56331083602E+02  0.46252627065E+03  0.45802592699E+03 0.  0.
         13    1    3    3    0    0  0.10247573427E+03 -0.13131512509E+03 -0.20085780410E+03  0.26093829857E+03  0.00000000000E+00 0.  1.
          3    1    3    3  501    0 -0.98270905343E+02  0.10046176742E+03  0.14452672050E+03  0.20158797208E+03  0.00000000000E+00 0.  1.
         21    1    1    2  502  501 -0.42048289311E+01  0.30853357664E+02 -0.40799183367E-02  0.31138565833E+02  0.00000000000E+00 0. -1.
<scales pt_clust_4="550.00000" pt_clust_5="550.00000" pt_clust_6="31.13857"></scales>
<mgrwt>
<rscale>  0 0.30000000E+03</rscale>
<asrwt>  1 0.31138566E+02</asrwt>
<pdfrwt beam="1">  1        1 0.79514486E+00 0.30000000E+03</pdfrwt>
<pdfrwt beam="2">0</pdfrwt>
<totfact> 0.11504427E-03</totfact>
</mgrwt>
<clustering>
<clus scale="   31.139">  1  6  2 -1</clus>
<clus scale="  458.026">  4  5 -1 -1</clus>
<clus scale="  300.000">  1  4  2 -1</clus>
</clustering>
</event>
<event>
 6    1  0.9678510E-012  0.3000000E+03  0.7818608E-02  0.1093470E+00
          1   -1    0    0  502    0  0.00000000000E+00  0.00000000000E+00  0.22986426432E+03  0.22986426432E+03  0.00000000000E+00 0.  1.
         13   -1    0    0    0    0 -0.00000000000E+00 -0.00000000000E+00 -0.27500000000E+03  0.27500000000E+03  0.00000000000E+00 0.  1.
    9000005    2    1    2  501    0  0.34985578514E+02 -0.27892737937E+01 -0.62350320199E+02  0.46577318257E+03  0.46024485268E+03 0.  0.
         13    1    3    3    0    0 -0.10300555482E+03  0.18395849457E+03  0.35495396316E+02  0.21380083070E+03  0.00000000000E+00 0.  1.
          3    1    3    3  501    0  0.13799113334E+03 -0.18674776836E+03 -0.97845716515E+02  0.25197235187E+03  0.00000000000E+00 0.  1.
         21    1    1    2  502  501 -0.34985578514E+02  0.27892737937E+01  0.17214584520E+02  0.39091081751E+02  0.00000000000E+00 0.  1.
<scales pt_clust_4="550.00000" pt_clust_5="550.00000" pt_clust_6="35.09659"></scales>
<mgrwt>
<rscale>  0 0.30000000E+03</rscale>
<asrwt>  1 0.35096592E+02</asrwt>
<pdfrwt beam="1">  1        1 0.83587005E+00 0.30000000E+03</pdfrwt>
<pdfrwt beam="2">0</pdfrwt>
<totfact> 0.53288775E-04</totfact>
</mgrwt>
<clustering>
<clus scale="   35.097">  1  6  2 -1</clus>
<clus scale="  460.245">  4  5 -1 -1</clus>
<clus scale="  300.000">  1  4  2 -1</clus>
</clustering>
</event>
<event>
 6    1  0.9678510E-012  0.3000000E+03  0.7818608E-02  0.1093470E+00
          1   -1    0    0  502    0  0.00000000000E+00  0.00000000000E+00  0.25555063758E+03  0.25555063758E+03  0.00000000000E+00 0.  1.
         13   -1    0    0    0    0 -0.00000000000E+00 -0.00000000000E+00 -0.27500000000E+03  0.27500000000E+03  0.00000000000E+00 0.  1.
    9000005    2    1    2  501    0 -0.10981479102E+02 -0.28153286556E+02 -0.24539879355E+02  0.49990567405E+03  0.49838767726E+03 0.  0.
         13    1    3    3    0    0  0.11230716456E+03  0.33509563995E+02  0.20268828518E+03  0.23413314810E+03  0.00000000000E+00 0.  1.
          3    1    3    3  501    0 -0.12328864366E+03 -0.61662850551E+02 -0.22722816453E+03  0.26577252595E+03  0.00000000000E+00 0.  1.
         21    1    1    2  502  501  0.10981479102E+02  0.28153286556E+02  0.50905169368E+01  0.30644963532E+02  0.00000000000E+00 0.  1.
<scales pt_clust_4="550.00000" pt_clust_5="550.00000" pt_clust_6="30.21921"></scales>
<mgrwt>
<rscale>  0 0.30000000E+03</rscale>
<asrwt>  1 0.30219206E+02</asrwt>
<pdfrwt beam="1">  1        1 0.92927505E+00 0.30000000E+03</pdfrwt>
<pdfrwt beam="2">0</pdfrwt>
<totfact> 0.27787706E-05</totfact>
</mgrwt>
<clustering>
<clus scale="   30.219">  1  6  2 -1</clus>
<clus scale="  498.388">  4  5 -1 -1</clus>
<clus scale="  300.000">  1  4  2 -1</clus>
</clustering>
</event>
<event>
 6    1  0.9678510E-012  0.3000000E+03  0.7818608E-02  0.1093470E+00
          1   -1    0    0  502    0  0.00000000000E+00  0.00000000000E+00  0.21892400547E+03  0.21892400547E+03  0.00000000000E+00 0.  1.
         13   -1    0    0    0    0 -0.00000000000E+00 -0.00000000000E+00 -0.27500000000E+03  0.27500000000E+03  0.00000000000E+00 0.  1.
    9000005    2    1    2  501    0  0.12207161221E+01 -0.30719733719E+02 -0.64780247787E+02  0.46197160004E+03  0.45637274958E+03 0.  0.
         13    1    3    3    0    0 -0.21968174909E+03 -0.23338548948E+02 -0.91935147479E+02  0.23928399464E+03  0.00000000000E+00 0.  1.
          3    1    3    3  501    0  0.22090246521E+03 -0.73811847704E+01  0.27154899692E+02  0.22268760540E+03  0.00000000000E+00 0.  1.
         21    1    1    2  502  501 -0.12207161221E+01  0.30719733719E+02  0.87042532542E+01  0.31952405423E+02  0.00000000000E+00 0. -1.
<scales pt_clust_4="550.00000" pt_clust_5="550.00000" pt_clust_6="30.74398"></scales>
<mgrwt>
<rscale>  0 0.30000000E+03</rscale>
<asrwt>  1 0.30743978E+02</asrwt>
<pdfrwt beam="1">  1        1 0.79608729E+00 0.30000000E+03</pdfrwt>
<pdfrwt beam="2">0</pdfrwt>
<totfact> 0.11348360E-03</totfact>
</mgrwt>
<clustering>
<clus scale="   30.744">  1  6  2 -1</clus>
<clus scale="  456.373">  4  5 -1 -1</clus>
<clus scale="  300.000">  1  4  2 -1</clus>
</clustering>
</event>
<event>
 6    1  0.9678510E-012  0.3000000E+03  0.7818608E-02  0.1093470E+00
          1   -1    0    0  502    0  0.00000000000E+00  0.00000000000E+00  0.23982411986E+03  0.23982411986E+03  0.00000000000E+00 0.  1.
         13   -1    0    0    0    0 -0.00000000000E+00 -0.00000000000E+00 -0.27500000000E+03  0.27500000000E+03  0.00000000000E+00 0.  1.
    9000005    2    1    2  501    0 -0.27853406378E+02  0.15240634504E+02 -0.17984956247E+02  0.47871848248E+03  0.47732571440E+03 0.  0.
         13    1    3    3    0    0  0.22472007558E+02 -0.18392807948E+03 -0.14666444217E+03  0.23631544203E+03  0.00000000000E+00 0.  1.
          1    1    3    3  501    0 -0.50325413936E+02  0.19916871398E+03  0.12867948593E+03  0.24240304044E+03  0.00000000000E+00 0.  1.
         21    1    1    2  502  501  0.27853406378E+02 -0.15240634504E+02 -0.17190923889E+02  0.36105637387E+02  0.00000000000E+00 0. -1.
<scales pt_clust_4="550.00000" pt_clust_5="550.00000" pt_clust_6="31.75044"></scales>
<mgrwt>
<rscale>  0 0.30000000E+03</rscale>
<asrwt>  1 0.31750436E+02</asrwt>
<pdfrwt beam="1">  1        1 0.87208771E+00 0.30000000E+03</pdfrwt>
<pdfrwt beam="2">0</pdfrwt>
<totfact> 0.24559446E-04</totfact>
</mgrwt>
<clustering>
<clus scale="   31.750">  1  6  2 -1</clus>
<clus scale="  477.326">  4  5 -1 -1</clus>
<clus scale="  300.000">  1  4  2 -1</clus>
</clustering>
</event>
<event>
 6    1  0.9678510E-012  0.3000000E+03  0.7818608E-02  0.1093470E+00
          1   -1    0    0  502    0  0.00000000000E+00  0.00000000000E+00  0.22411038189E+03  0.22411038189E+03  0.00000000000E+00 0.  1.
         13   -1    0    0    0    0 -0.00000000000E+00 -0.00000000000E+00 -0.27500000000E+03  0.27500000000E+03  0.00000000000E+00 0.  1.
    9000005    2    1    2  501    0  0.62230726198E+01 -0.30341885263E+02 -0.37581961544E+02  0.46539910251E+03  0.46284399548E+03 0.  0.
         13    1    3    3    0    0  0.49709953569E+02  0.20656408070E+03 -0.66928564864E+02  0.22275374680E+03  0.00000000000E+00 0.  1.
          1    1    3    3  501    0 -0.43486880950E+02 -0.23690596596E+03  0.29346603320E+02  0.24264535571E+03  0.00000000000E+00 0.  1.
         21    1    1    2  502  501 -0.62230726198E+01  0.30341885263E+02 -0.13307656567E+02  0.33711279380E+02  0.00000000000E+00 0.  1.
<scales pt_clust_4="550.00000" pt_clust_5="550.00000" pt_clust_6="30.97350"></scales>
<mgrwt>
<rscale>  0 0.30000000E+03</rscale>
<asrwt>  1 0.30973498E+02</asrwt>
<pdfrwt beam="1">  1        1 0.81494684E+00 0.30000000E+03</pdfrwt>
<pdfrwt beam="2">0</pdfrwt>
<totfact> 0.81546831E-04</totfact>
</mgrwt>
<clustering>
<clus scale="   30.973">  1  6  2 -1</clus>
<clus scale="  462.844">  4  5 -1 -1</clus>
<clus scale="  300.000">  1  4  2 -1</clus>
</clustering>
</event>
<event>
 6    1  0.9678510E-012  0.3000000E+03  0.7818608E-02  0.1093470E+00
          1   -1    0    0  502    0  0.00000000000E+00  0.00000000000E+00  0.21948660114E+03  0.21948660114E+03  0.00000000000E+00 0.  1.
         13   -1    0    0    0    0 -0.00000000000E+00 -0.00000000000E+00 -0.27500000000E+03  0.27500000000E+03  0.00000000000E+00 0.  1.
    9000005    2    1    2  501    0  0.30592357081E+02 -0.31870447245E+01 -0.58047467721E+02  0.46362447110E+03  0.45894672036E+03 0.  0.
         13    1    3    3    0    0  0.22045078848E+03 -0.31769420843E+02  0.69267123889E+02  0.23325046772E+03  0.00000000000E+00 0.  1.
          1    1    3    3  501    0 -0.18985843139E+03  0.28582376119E+02 -0.12731459161E+03  0.23037400338E+03  0.00000000000E+00 0.  1.
         21    1    1    2  502  501 -0.30592357081E+02  0.31870447245E+01  0.25340688643E+01  0.30862130044E+02  0.00000000000E+00 0. -1.
<scales pt_clust_4="550.00000" pt_clust_5="550.00000" pt_clust_6="30.75792"></scales>
<mgrwt>
<rscale>  0 0.30000000E+03</rscale>
<asrwt>  1 0.30757919E+02</asrwt>
<pdfrwt beam="1">  1        1 0.79813310E+00 0.30000000E+03</pdfrwt>
<pdfrwt beam="2">0</pdfrwt>
<totfact> 0.10963020E-03</totfact>
</mgrwt>
<clustering>
<clus scale="   30.758">  1  6  2 -1</clus>
<clus scale="  458.947">  4  5 -1 -1</clus>
<clus scale="  300.000">  1  4  2 -1</clus>
</clustering>
</event>
<event>
 6    1  0.9678510E-012  0.3000000E+03  0.7818608E-02  0.1093470E+00
          1   -1    0    0  502    0  0.00000000000E+00  0.00000000000E+00  0.24085456836E+03  0.24085456836E+03  0.00000000000E+00 0.  1.
         13   -1    0    0    0    0 -0.00000000000E+00 -0.00000000000E+00 -0.27500000000E+03  0.27500000000E+03  0.00000000000E+00 0.  1.
    9000005    2    1    2  501    0 -0.23535541523E+02 -0.22669142026E+02 -0.11671990168E+02  0.47619517746E+03  0.47492925786E+03 0.  0.
         13    1    3    3    0    0 -0.15576560117E+03 -0.20082853178E+03 -0.88206361136E+01  0.25430852385E+03  0.00000000000E+00 0.  1.
          1    1    3    3  501    0  0.13223005965E+03  0.17815938975E+03 -0.28513540547E+01  0.22188665361E+03  0.00000000000E+00 0.  1.
         21    1    1    2  502  501  0.23535541523E+02  0.22669142026E+02 -0.22473441470E+02  0.39659390899E+02  0.00000000000E+00 0.  1.
<scales pt_clust_4="550.00000" pt_clust_5="550.00000" pt_clust_6="32.67740"></scales>
<mgrwt>
<rscale>  0 0.30000000E+03</rscale>
<asrwt>  1 0.32677405E+02</asrwt>
<pdfrwt beam="1">  1        1 0.87583479E+00 0.30000000E+03</pdfrwt>
<pdfrwt beam="2">0</pdfrwt>
<totfact> 0.22322688E-04</totfact>
</mgrwt>
<clustering>
<clus scale="   32.677">  1  6  2 -1</clus>
<clus scale="  474.929">  4  5 -1 -1</clus>
<clus scale="  300.000">  1  4  2 -1</clus>
</clustering>
</event>
<event>
 6    1  0.9678510E-012  0.3000000E+03  0.7818608E-02  0.1093470E+00
          1   -1    0    0  502    0  0.00000000000E+00  0.00000000000E+00  0.24180291087E+03  0.24180291087E+03  0.00000000000E+00 0.  1.
         13   -1    0    0    0    0 -0.00000000000E+00 -0.00000000000E+00 -0.27500000000E+03  0.27500000000E+03  0.00000000000E+00 0.  1.
    9000005    2    1    2  501    0  0.17512397260E+02  0.29039552289E+02 -0.58588711787E+02  0.47443884407E+03  0.46958449714E+03 0.  0.
         13    1    3    3    0    0  0.96436051045E+00  0.15447845887E+03 -0.22032823805E+03  0.26908930995E+03  0.00000000000E+00 0.  1.
          3    1    3    3  501    0  0.16548036749E+02 -0.12543890658E+03  0.16173952627E+03  0.20534953412E+03  0.00000000000E+00 0.  1.
         21    1    1    2  502  501 -0.17512397260E+02 -0.29039552289E+02  0.25391622654E+02  0.42364066801E+02  0.00000000000E+00 0. -1.
<scales pt_clust_4="550.00000" pt_clust_5="550.00000" pt_clust_6="33.91135"></scales>
<mgrwt>
<rscale>  0 0.30000000E+03</rscale>
<asrwt>  1 0.33911350E+02</asrwt>
<pdfrwt beam="1">  1        1 0.87928331E+00 0.30000000E+03</pdfrwt>
<pdfrwt beam="2">0</pdfrwt>
<totfact> 0.20258114E-04</totfact>
</mgrwt>
<clustering>
<clus scale="   33.911">  1  6  2 -1</clus>
<clus scale="  469.584">  4  5 -1 -1</clus>
<clus scale="  300.000">  1  4  2 -1</clus>
</clustering>
</event>
<event>
 6    1  0.9678510E-012  0.3000000E+03  0.7818608E-02  0.1093470E+00
          1   -1    0    0  502    0  0.00000000000E+00  0.00000000000E+00  0.23803056866E+03  0.23803056866E+03  0.00000000000E+00 0.  1.
         13   -1    0    0    0    0 -0.00000000000E+00 -0.00000000000E+00 -0.27500000000E+03  0.27500000000E+03  0.00000000000E+00 0.  1.
    9000005    2    1    2  501    0  0.38271863030E+02  0.20258263435E+01 -0.36274589480E+02  0.47469882884E+03  0.47175660333E+03 0.  0.
         13    1    3    3    0    0 -0.11183260635E+03 -0.69442365826E+02 -0.20125388617E+03  0.24048264119E+03  0.00000000000E+00 0.  1.
          3    1    3    3  501    0  0.15010446938E+03  0.71468192170E+02  0.16497929669E+03  0.23421618765E+03  0.00000000000E+00 0.  1.
         21    1    1    2  502  501 -0.38271863030E+02 -0.20258263435E+01 -0.69484186209E+00  0.38331739817E+02  0.00000000000E+00 0.  1.
<scales pt_clust_4="550.00000" pt_clust_5="550.00000" pt_clust_6="38.32544"></scales>
<mgrwt>
<rscale>  0 0.30000000E+03</rscale>
<asrwt>  1 0.38325442E+02</asrwt>
<pdfrwt beam="1">  1        1 0.86556570E+00 0.30000000E+03</pdfrwt>
<pdfrwt beam="2">0</pdfrwt>
<totfact> 0.27702908E-04</totfact>
</mgrwt>
<clustering>
<clus scale="   38.325">  1  6  2 -1</clus>
<clus scale="  471.757">  4  5 -1 -1</clus>
<clus scale="  300.000">  1  4  2 -1</clus>
</clustering>
</event>
<event>
 6    1  0.9678510E-012  0.3000000E+03  0.7818608E-02  0.1093470E+00
          1   -1    0    0  502    0  0.00000000000E+00  0.00000000000E+00  0.24154765751E+03  0.24154765751E+03  0.00000000000E+00 0.  1.
         13   -1    0    0    0    0 -0.00000000000E+00 -0.00000000000E+00 -0.27500000000E+03  0.27500000000E+03  0.00000000000E+00 0.  1.
    9000005    2    1    2  501    0  0.42849265920E+02  0.14364015377E+02 -0.40653575662E+02  0.47078476548E+03  0.46684386862E+03 0.  0.
         13    1    3    3    0    0 -0.33862914253E+02  0.21954353526E+03 -0.10033613235E+03  0.24374864162E+03  0.00000000000E+00 0.  1.
          1    1    3    3  501    0  0.76712180173E+02 -0.20517951988E+03  0.59682556684E+02  0.22703612386E+03  0.00000000000E+00 0.  1.
         21    1    1    2  502  501 -0.42849265920E+02 -0.14364015377E+02  0.72012331693E+01  0.45762892028E+02  0.00000000000E+00 0. -1.
<scales pt_clust_4="550.00000" pt_clust_5="550.00000" pt_clust_6="45.19275"></scales>
<mgrwt>
<rscale>  0 0.30000000E+03</rscale>
<asrwt>  1 0.45192749E+02</asrwt>
<pdfrwt beam="1">  1        1 0.87835512E+00 0.30000000E+03</pdfrwt>
<pdfrwt beam="2">0</pdfrwt>
<totfact> 0.19711744E-04</totfact>
</mgrwt>
<clustering>
<clus scale="   45.193">  1  6  2 -1</clus>
<clus scale="  466.844">  4  5 -1 -1</clus>
<clus scale="  300.000">  1  4  2 -1</clus>
</clustering>
</event>
<event>
 6    1  0.9678510E-012  0.3000000E+03  0.7818608E-02  0.1093470E+00
          1   -1    0    0  502    0  0.00000000000E+00  0.00000000000E+00  0.23434622453E+03  0.23434622453E+03  0.00000000000E+00 0.  1.
         13   -1    0    0    0    0 -0.00000000000E+00 -0.00000000000E+00 -0.27500000000E+03  0.27500000000E+03  0.00000000000E+00 0.  1.
    9000005    2    1    2  501    0  0.67602499523E+01 -0.32932393332E+02 -0.48912243787E+02  0.47472764846E+03  0.47100285468E+03 0.  0.
         13    1    3    3    0    0 -0.76467377410E+02  0.90981634865E+02 -0.21854468799E+03  0.24877037271E+03  0.00000000000E+00 0.  1.
          3    1    3    3  501    0  0.83227627362E+02 -0.12391402820E+03  0.16963244420E+03  0.22595727575E+03  0.00000000000E+00 0.  1.
         21    1    1    2  502  501 -0.67602499523E+01  0.32932393332E+02  0.82584683195E+01  0.34618576068E+02  0.00000000000E+00 0.  1.
<scales pt_clust_4="550.00000" pt_clust_5="550.00000" pt_clust_6="33.61909"></scales>
<mgrwt>
<rscale>  0 0.30000000E+03</rscale>
<asrwt>  1 0.33619094E+02</asrwt>
<pdfrwt beam="1">  1        1 0.85216809E+00 0.30000000E+03</pdfrwt>
<pdfrwt beam="2">0</pdfrwt>
<totfact> 0.39109938E-04</totfact>
</mgrwt>
<clustering>
<clus scale="   33.619">  1  6  2 -1</clus>
<clus scale="  471.003">  4  5 -1 -1</clus>
<clus scale="  300.000">  1  4  2 -1</clus>
</clustering>
</event>
<event>
 6    1  0.9678510E-012  0.3000000E+03  0.7818608E-02  0.1093470E+00
          1   -1    0    0  502    0  0.00000000000E+00  0.00000000000E+00  0.23376492545E+03  0.23376492545E+03  0.00000000000E+00 0.  1.
         13   -1    0    0    0    0 -0.00000000000E+00 -0.00000000000E+00 -0.27500000000E+03  0.27500000000E+03  0.00000000000E+00 0.  1.
    9000005    2    1    2  501    0  0.29805290002E+02  0.20146536907E+02 -0.50325827730E+02  0.47165859102E+03  0.46758410931E+03 0.  0.
         13    1    3    3    0    0  0.46226771217E+02  0.22003568932E+03  0.72783769199E+02  0.23632624910E+03  0.00000000000E+00 0.  1.
          1    1    3    3  501    0 -0.16421481215E+02 -0.19988915242E+03 -0.12310959693E+03  0.23533234192E+03  0.00000000000E+00 0.  1.
         21    1    1    2  502  501 -0.29805290002E+02 -0.20146536907E+02  0.90907531769E+01  0.37106334429E+02  0.00000000000E+00 0. -1.
<scales pt_clust_4="550.00000" pt_clust_5="550.00000" pt_clust_6="35.97552"></scales>
<mgrwt>
<rscale>  0 0.30000000E+03</rscale>
<asrwt>  1 0.35975523E+02</asrwt>
<pdfrwt beam="1">  1        1 0.85005427E+00 0.30000000E+03</pdfrwt>
<pdfrwt beam="2">0</pdfrwt>
<totfact> 0.40443023E-04</totfact>
</mgrwt>
<clustering>
<clus scale="   35.976">  1  6  2 -1</clus>
<clus scale="  467.584">  4  5 -1 -1</clus>
<clus scale="  300.000">  1  4  2 -1</clus>
</clustering>
</event>
<event>
 6    1  0.9678510E-012  0.3000000E+03  0.7818608E-02  0.1093470E+00
          1   -1    0    0  502    0  0.00000000000E+00  0.00000000000E+00  0.26492695818E+03  0.26492695818E+03  0.00000000000E+00 0.  1.
         13   -1    0    0    0    0 -0.00000000000E+00 -0.00000000000E+00 -0.27500000000E+03  0.27500000000E+03  0.00000000000E+00 0.  1.
    9000005    2    1    2  501    0  0.41383911422E+02 -0.17365337100E+01 -0.72202950559E+02  0.46525588457E+03  0.45774897967E+03 0.  0.
         13    1    3    3    0    0 -0.11182183381E+03 -0.17907881186E+03 -0.91517973739E+02  0.23010624262E+03  0.00000000000E+00 0.  1.
          3    1    3    3  501    0  0.15320574523E+03  0.17734227815E+03  0.19315023181E+02  0.23514964196E+03  0.00000000000E+00 0.  1.
         21    1    1    2  502  501 -0.41383911422E+02  0.17365337100E+01  0.62129908740E+02  0.74671073610E+02  0.00000000000E+00 0. -1.
<scales pt_clust_4="550.00000" pt_clust_5="550.00000" pt_clust_6="41.42033"></scales>
<mgrwt>
<rscale>  0 0.30000000E+03</rscale>
<asrwt>  1 0.41420329E+02</asrwt>
<pdfrwt beam="1">  1        1 0.96337076E+00 0.30000000E+03</pdfrwt>
<pdfrwt beam="2">0</pdfrwt>
<totfact> 0.62250484E-06</totfact>
</mgrwt>
<clustering>
<clus scale="   41.420">  1  6  2 -1</clus>
<clus scale="  457.749">  4  5 -1 -1</clus>
<clus scale="  300.000">  1  4  2 -1</clus>
</clustering>
</event>
<event>
 6    1  0.9678510E-012  0.3000000E+03  0.7818608E-02  0.1093470E+00
          1   -1    0    0  502    0  0.00000000000E+00  0.00000000000E+00  0.22166185228E+03  0.22166185228E+03  0.00000000000E+00 0.  1.
         13   -1    0    0    0    0 -0.00000000000E+00 -0.00000000000E+00 -0.27500000000E+03  0.27500000000E+03  0.00000000000E+00 0.  1.
    9000005    2    1    2  501    0  0.28078664067E+02  0.13198865241E+02 -0.45798053486E+02  0.46473264245E+03  0.46142859234E+03 0.  0.
         13    1    3    3    0    0 -0.63940627804E+02 -0.20933069157E+03  0.36247331223E+01  0.21890838496E+03  0.00000000000E+00 0.  1.
          1    1    3    3  501    0  0.92019291871E+02  0.22252955681E+03 -0.49422786608E+02  0.24582425748E+03  0.00000000000E+00 0.  1.
         21    1    1    2  502  501 -0.28078664067E+02 -0.13198865241E+02 -0.75400942361E+01  0.31929209832E+02  0.00000000000E+00 0. -1.
<scales pt_clust_4="550.00000" pt_clust_5="550.00000" pt_clust_6="31.02616"></scales>
<mgrwt>
<rscale>  0 0.30000000E+03</rscale>
<asrwt>  1 0.31026156E+02</asrwt>
<pdfrwt beam="1">  1        1 0.80604310E+00 0.30000000E+03</pdfrwt>
<pdfrwt beam="2">0</pdfrwt>
<totfact> 0.95724163E-04</totfact>
</mgrwt>
<clustering>
<clus scale="   31.026">  1  6  2 -1</clus>
<clus scale="  461.429">  4  5 -1 -1</clus>
<clus scale="  300.000">  1  4  2 -1</clus>
</clustering>
</event>
<event>
 6    1  0.9678510E-012  0.3000000E+03  0.7818608E-02  0.1093470E+00
          1   -1    0    0  502    0  0.00000000000E+00  0.00000000000E+00  0.24337195514E+03  0.24337195514E+03  0.00000000000E+00 0.  1.
         13   -1    0    0    0    0 -0.00000000000E+00 -0.00000000000E+00 -0.27500000000E+03  0.27500000000E+03  0.00000000000E+00 0.  1.
    9000005    2    1    2  501    0 -0.42877523708E+02 -0.10506607666E+02 -0.46340470008E+02  0.47183888843E+03  0.46747794239E+03 0.  0.
         13    1    3    3    0    0  0.19179563100E+02 -0.23534757429E+03 -0.29882942141E+02  0.23801119007E+03  0.00000000000E+00 0.  1.
          3    1    3    3  501    0 -0.62057086808E+02  0.22484096663E+03 -0.16457527867E+02  0.23382769836E+03  0.00000000000E+00 0.  1.
         21    1    1    2  502  501  0.42877523708E+02  0.10506607666E+02  0.14712425144E+02  0.46533066711E+02  0.00000000000E+00 0.  1.
<scales pt_clust_4="550.00000" pt_clust_5="550.00000" pt_clust_6="44.14602"></scales>
<mgrwt>
<rscale>  0 0.30000000E+03</rscale>
<asrwt>  1 0.44146017E+02</asrwt>
<pdfrwt beam="1">  1        1 0.88498893E+00 0.30000000E+03</pdfrwt>
<pdfrwt beam="2">0</pdfrwt>
<totfact> 0.16270243E-04</totfact>
</mgrwt>
<clustering>
<clus scale="   44.146">  1  6  2 -1</clus>
<clus scale="  467.478">  4  5 -1 -1</clus>
<clus scale="  300.000">  1  4  2 -1</clus>
</clustering>
</event>
<event>
 6    1  0.9678510E-012  0.3000000E+03  0.7818608E-02  0.1093470E+00
          1   -1    0    0  502    0  0.00000000000E+00  0.00000000000E+00  0.26461064605E+03  0.26461064605E+03  0.00000000000E+00 0.  1.
         13   -1    0    0    0    0 -0.00000000000E+00 -0.00000000000E+00 -0.27500000000E+03  0.27500000000E+03  0.00000000000E+00 0.  1.
    9000005    2    1    2  501    0  0.22335627813E+02 -0.22699428320E+02 -0.65010342087E+02  0.47638409577E+03  0.47085169406E+03 0.  0.
         13    1    3    3    0    0 -0.20222647161E+03 -0.11037775360E+03 -0.42363602221E+02  0.23425086788E+03  0.00000000000E+00 0.  1.
          1    1    3    3  501    0  0.22456209942E+03  0.87678325280E+02 -0.22646739866E+02  0.24213322789E+03  0.00000000000E+00 0.  1.
         21    1    1    2  502  501 -0.22335627813E+02  0.22699428320E+02  0.54620988140E+02  0.63226550287E+02  0.00000000000E+00 0.  1.
<scales pt_clust_4="550.00000" pt_clust_5="550.00000" pt_clust_6="31.84563"></scales>
<mgrwt>
<rscale>  0 0.30000000E+03</rscale>
<asrwt>  1 0.31845633E+02</asrwt>
<pdfrwt beam="1">  1        1 0.96222053E+00 0.30000000E+03</pdfrwt>
<pdfrwt beam="2">0</pdfrwt>
<totfact> 0.69167944E-06</totfact>
</mgrwt>
<clustering>
<clus scale="   31.846">  1  6  2 -1</clus>
<clus scale="  470.852">  4  5 -1 -1</clus>
<clus scale="  300.000">  1  4  2 -1</clus>
</clustering>
</event>
<event>
 6    1  0.9678510E-012  0.3000000E+03  0.7818608E-02  0.1093470E+00
          1   -1    0    0  502    0  0.00000000000E+00  0.00000000000E+00  0.25016094404E+03  0.25016094404E+03  0.00000000000E+00 0.  1.
         13   -1    0    0    0    0 -0.00000000000E+00 -0.00000000000E+00 -0.27500000000E+03  0.27500000000E+03  0.00000000000E+00 0.  1.
    9000005    2    1    2  501    0 -0.28207202831E+02  0.11872788791E+02 -0.25220905703E+02  0.49455448697E+03  0.49296190227E+03 0.  0.
         13    1    3    3    0    0  0.12635396979E+02 -0.13914926542E+03 -0.21012928322E+03  0.25234200402E+03  0.00000000000E+00 0.  1.
          3    1    3    3  501    0 -0.40842599809E+02  0.15102205421E+03  0.18490837752E+03  0.24221248295E+03  0.00000000000E+00 0.  1.
         21    1    1    2  502  501  0.28207202831E+02 -0.11872788791E+02  0.38184973859E+00  0.30606457071E+02  0.00000000000E+00 0.  1.
<scales pt_clust_4="550.00000" pt_clust_5="550.00000" pt_clust_6="30.60407"></scales>
<mgrwt>
<rscale>  0 0.30000000E+03</rscale>
<asrwt>  1 0.30604075E+02</asrwt>
<pdfrwt beam="1">  1        1 0.90967616E+00 0.30000000E+03</pdfrwt>
<pdfrwt beam="2">0</pdfrwt>
<totfact> 0.75050623E-05</totfact>
</mgrwt>
<clustering>
<clus scale="   30.604">  1  6  2 -1</clus>
<clus scale="  492.962">  4  5 -1 -1</clus>
<clus scale="  300.000">  1  4  2 -1</clus>
</clustering>
</event>
<event>
 6    1  0.9678510E-012  0.3000000E+03  0.7818608E-02  0.1093470E+00
          1   -1    0    0  502    0  0.00000000000E+00  0.00000000000E+00  0.22970123250E+03  0.22970123250E+03  0.00000000000E+00 0.  1.
         13   -1    0    0    0    0 -0.00000000000E+00 -0.00000000000E+00 -0.27500000000E+03  0.27500000000E+03  0.00000000000E+00 0.  1.
    9000005    2    1    2  501    0  0.77518980125E+01  0.30627544992E+02 -0.58555382602E+02  0.47043935457E+03  0.46571054859E+03 0.  0.
         13    1    3    3    0    0  0.44792511847E+02  0.23203969924E+03 -0.10789673635E+03  0.25978933169E+03  0.00000000000E+00 0.  1.
          3    1    3    3  501    0 -0.37040613834E+02 -0.20141215425E+03  0.49341353752E+02  0.21065002289E+03  0.00000000000E+00 0.  1.
         21    1    1    2  502  501 -0.77518980125E+01 -0.30627544992E+02  0.13256615101E+02  0.34261877925E+02  0.00000000000E+00 0. -1.
<scales pt_clust_4="550.00000" pt_clust_5="550.00000" pt_clust_6="31.59333"></scales>
<mgrwt>
<rscale>  0 0.30000000E+03</rscale>
<asrwt>  1 0.31593329E+02</asrwt>
<pdfrwt beam="1">  1        1 0.83527721E+00 0.30000000E+03</pdfrwt>
<pdfrwt beam="2">0</pdfrwt>
<totfact> 0.54899149E-04</totfact>
</mgrwt>
<clustering>
<clus scale="   31.593">  1  6  2 -1</clus>
<clus scale="  465.711">  4  5 -1 -1</clus>
<clus scale="  300.000">  1  4  2 -1</clus>
</clustering>
</event>
<event>
 6    1  0.9678510E-012  0.3000000E+03  0.7818608E-02  0.1093470E+00
          1   -1    0    0  502    0  0.00000000000E+00  0.00000000000E+00  0.26239170860E+03  0.26239170860E+03  0.00000000000E+00 0.  1.
         13   -1    0    0    0    0 -0.00000000000E+00 -0.00000000000E+00 -0.27500000000E+03  0.27500000000E+03  0.00000000000E+00 0.  1.
    9000005    2    1    2  501    0 -0.28275174284E+02  0.35808382733E+02 -0.97025815412E+00  0.49030487846E+03  0.48817640939E+03 0.  0.
         13    1    3    3    0    0 -0.23213712051E+03  0.10913711639E+03 -0.64568493532E+02  0.26451397553E+03  0.00000000000E+00 0.  1.
          1    1    3    3  501    0  0.20386194623E+03 -0.73328733662E+02  0.63598235378E+02  0.22579090292E+03  0.00000000000E+00 0.  1.
         21    1    1    2  502  501  0.28275174284E+02 -0.35808382733E+02 -0.11638033248E+02  0.47086830140E+02  0.00000000000E+00 0.  1.
<scales pt_clust_4="550.00000" pt_clust_5="550.00000" pt_clust_6="45.62596"></scales>
<mgrwt>
<rscale>  0 0.30000000E+03</rscale>
<asrwt>  1 0.45625956E+02</asrwt>
<pdfrwt beam="1">  1        1 0.95415167E+00 0.30000000E+03</pdfrwt>
<pdfrwt beam="2">0</pdfrwt>
<totfact> 0.96384262E-06</totfact>
</mgrwt>
<clustering>
<clus scale="   45.626">  1  6  2 -1</clus>
<clus scale="  488.176">  4  5 -1 -1</clus>
<clus scale="  300.000">  1  4  2 -1</clus>
</clustering>
</event>
<event>
 6    1  0.9678510E-012  0.3000000E+03  0.7818608E-02  0.1093470E+00
          1   -1    0    0  502    0  0.00000000000E+00  0.00000000000E+00  0.24332747293E+03  0.24332747293E+03  0.00000000000E+00 0.  1.
         13   -1    0    0    0    0 -0.00000000000E+00 -0.00000000000E+00 -0.27500000000E+03  0.27500000000E+03  0.00000000000E+00 0.  1.
    9000005    2    1    2  501    0 -0.64328346311E+01  0.45842418544E+02 -0.54890902508E+02  0.46653942742E+03  0.46098060422E+03 0.  0.
         13    1    3    3    0    0  0.14441554189E+03  0.20034331981E+03 -0.38962510433E+02  0.25002274247E+03  0.00000000000E+00 0.  1.
          3    1    3    3  501    0 -0.15084837652E+03 -0.15450090127E+03 -0.15928392075E+02  0.21651668496E+03  0.00000000000E+00 0.  1.
         21    1    1    2  502  501  0.64328346311E+01 -0.45842418544E+02  0.23218375438E+02  0.51788045506E+02  0.00000000000E+00 0. -1.
<scales pt_clust_4="550.00000" pt_clust_5="550.00000" pt_clust_6="46.29156"></scales>
<mgrwt>
<rscale>  0 0.30000000E+03</rscale>
<asrwt>  1 0.46291562E+02</asrwt>
<pdfrwt beam="1">  1        1 0.88482717E+00 0.30000000E+03</pdfrwt>
<pdfrwt beam="2">0</pdfrwt>
<totfact> 0.16215395E-04</totfact>
</mgrwt>
<clustering>
<clus scale="   46.292">  1  6  2 -1</clus>
<clus scale="  460.981">  4  5 -1 -1</clus>
<clus scale="  300.000">  1  4  2 -1</clus>
</clustering>
</event>
<event>
 6    1  0.9678510E-012  0.3000000E+03  0.7818608E-02  0.1093470E+00
          1   -1    0    0  502    0  0.00000000000E+00  0.00000000000E+00  0.26159344836E+03  0.26159344836E+03  0.00000000000E+00 0.  1.
         13   -1    0    0    0    0 -0.00000000000E+00 -0.00000000000E+00 -0.27500000000E+03  0.27500000000E+03  0.00000000000E+00 0.  1.
    9000005    2    1    2  501    0  0.19951768658E+02  0.26057745400E+02 -0.38974712823E+02  0.49499044325E+03  0.49236107838E+03 0.  0.
         13    1    3    3    0    0  0.20434697080E+03  0.75348529763E+02 -0.15887525692E+03  0.26958566852E+03  0.00000000000E+00 0.  1.
          1    1    3    3  501    0 -0.18439520214E+03 -0.49290784363E+02  0.11990054410E+03  0.22540477473E+03  0.00000000000E+00 0.  1.
         21    1    1    2  502  501 -0.19951768658E+02 -0.26057745400E+02  0.25568161185E+02  0.41603005111E+02  0.00000000000E+00 0. -1.
<scales pt_clust_4="550.00000" pt_clust_5="550.00000" pt_clust_6="32.81888"></scales>
<mgrwt>
<rscale>  0 0.30000000E+03</rscale>
<asrwt>  1 0.32818884E+02</asrwt>
<pdfrwt beam="1">  1        1 0.95124890E+00 0.30000000E+03</pdfrwt>
<pdfrwt beam="2">0</pdfrwt>
<totfact> 0.11768029E-05</totfact>
</mgrwt>
<clustering>
<clus scale="   32.819">  1  6  2 -1</clus>
<clus scale="  492.361">  4  5 -1 -1</clus>
<clus scale="  300.000">  1  4  2 -1</clus>
</clustering>
</event>
<event>
 6    1  0.9678510E-012  0.3000000E+03  0.7818608E-02  0.1093470E+00
          1   -1    0    0  502    0  0.00000000000E+00  0.00000000000E+00  0.24807593614E+03  0.24807593614E+03  0.00000000000E+00 0.  1.
         13   -1    0    0    0    0 -0.00000000000E+00 -0.00000000000E+00 -0.27500000000E+03  0.27500000000E+03  0.00000000000E+00 0.  1.
    9000005    2    1    2  501    0  0.18861824767E+02  0.32579097521E+02 -0.22082887855E+02  0.48512065964E+03  0.48315342744E+03 0.  0.
         13    1    3    3    0    0  0.79751450095E+02 -0.82024059104E+02 -0.22027996574E+03  0.24821664604E+03  0.00000000000E+00 0.  1.
          1    1    3    3  501    0 -0.60889625328E+02  0.11460315663E+03  0.19819707788E+03  0.23690401360E+03  0.00000000000E+00 0.  1.
         21    1    1    2  502  501 -0.18861824767E+02 -0.32579097521E+02 -0.48411760086E+01  0.37955276497E+02  0.00000000000E+00 0.  1.
<scales pt_clust_4="550.00000" pt_clust_5="550.00000" pt_clust_6="37.64528"></scales>
<mgrwt>
<rscale>  0 0.30000000E+03</rscale>
<asrwt>  1 0.37645285E+02</asrwt>
<pdfrwt beam="1">  1        1 0.90209431E+00 0.30000000E+03</pdfrwt>
<pdfrwt beam="2">0</pdfrwt>
<totfact> 0.10207585E-04</totfact>
</mgrwt>
<clustering>
<clus scale="   37.645">  1  6  2 -1</clus>
<clus scale="  483.153">  4  5 -1 -1</clus>
<clus scale="  300.000">  1  4  2 -1</clus>
</clustering>
</event>
<event>
 6    1  0.9678510E-012  0.3000000E+03  0.7818608E-02  0.1093470E+00
          1   -1    0    0  502    0  0.00000000000E+00  0.00000000000E+00  0.23072031914E+03  0.23072031914E+03  0.00000000000E+00 0.  1.
         13   -1    0    0    0    0 -0.00000000000E+00 -0.00000000000E+00 -0.27500000000E+03  0.27500000000E+03  0.00000000000E+00 0.  1.
    9000005    2    1    2  501    0 -0.21269085367E+02 -0.22613807795E+02 -0.64373293339E+02  0.46874043869E+03  0.46326009938E+03 0.  0.
         13    1    3    3    0    0 -0.18629579503E+03  0.31978635538E+01  0.11869785084E+03  0.22091973513E+03  0.00000000000E+00 0.  1.
          3    1    3    3  501    0  0.16502670967E+03 -0.25811671349E+02 -0.18307114418E+03  0.24782070356E+03  0.00000000000E+00 0.  1.
         21    1    1    2  502  501  0.21269085367E+02  0.22613807795E+02  0.20093612477E+02  0.36979880445E+02  0.00000000000E+00 0.  1.
<scales pt_clust_4="550.00000" pt_clust_5="550.00000" pt_clust_6="31.04446"></scales>
<mgrwt>
<rscale>  0 0.30000000E+03</rscale>
<asrwt>  1 0.31044457E+02</asrwt>
<pdfrwt beam="1">  1        1 0.83898298E+00 0.30000000E+03</pdfrwt>
<pdfrwt beam="2">0</pdfrwt>
<totfact> 0.51753387E-04</totfact>
</mgrwt>
<clustering>
<clus scale="   31.044">  1  6  2 -1</clus>
<clus scale="  463.260">  4  5 -1 -1</clus>
<clus scale="  300.000">  1  4  2 -1</clus>
</clustering>
</event>
<event>
 6    1  0.9678510E-012  0.3000000E+03  0.7818608E-02  0.1093470E+00
          1   -1    0    0  502    0  0.00000000000E+00  0.00000000000E+00  0.23737150963E+03  0.23737150963E+03  0.00000000000E+00 0.  1.
         13   -1    0    0    0    0 -0.00000000000E+00 -0.00000000000E+00 -0.27500000000E+03  0.27500000000E+03  0.00000000000E+00 0.  1.
    9000005    2    1    2  501    0 -0.33488543336E+02  0.63024706920E+00 -0.56488947604E+02  0.47393199099E+03  0.46935983119E+03 0.  0.
         13    1    3    3    0    0 -0.51046180844E+02 -0.20798499226E+03  0.74768886059E+02  0.22683442399E+03  0.00000000000E+00 0.  1.
          1    1    3    3  501    0  0.17557637509E+02  0.20861523933E+03 -0.13125783366E+03  0.24709756700E+03  0.00000000000E+00 0.  1.
         21    1    1    2  502  501  0.33488543336E+02 -0.63024706920E+00  0.18860457229E+02  0.38439518636E+02  0.00000000000E+00 0.  1.
<scales pt_clust_4="550.00000" pt_clust_5="550.00000" pt_clust_6="33.49447"></scales>
<mgrwt>
<rscale>  0 0.30000000E+03</rscale>
<asrwt>  1 0.33494473E+02</asrwt>
<pdfrwt beam="1">  1        1 0.86316913E+00 0.30000000E+03</pdfrwt>
<pdfrwt beam="2">0</pdfrwt>
<totfact> 0.30149202E-04</totfact>
</mgrwt>
<clustering>
<clus scale="   33.494">  1  6  2 -1</clus>
<clus scale="  469.360">  4  5 -1 -1</clus>
<clus scale="  300.000">  1  4  2 -1</clus>
</clustering>
</event>
<event>
 6    1  0.9678510E-012  0.3000000E+03  0.7818608E-02  0.1093470E+00
          1   -1    0    0  502    0  0.00000000000E+00  0.00000000000E+00  0.25750587456E+03  0.25750587456E+03  0.00000000000E+00 0.  1.
         13   -1    0    0    0    0 -0.00000000000E+00 -0.00000000000E+00 -0.27500000000E+03  0.27500000000E+03  0.00000000000E+00 0.  1.
    9000005    2    1    2  501    0  0.28787354203E+02 -0.11424282822E+02 -0.13284879773E+02  0.50124977517E+03  0.50011560971E+03 0.  0.
         13    1    3    3    0    0 -0.18600389926E+03 -0.15281752745E+03  0.21802489613E+02  0.24171469916E+03  0.00000000000E+00 0.  1.
          1    1    3    3  501    0  0.21479125346E+03  0.14139324463E+03 -0.35087369385E+02  0.25953507601E+03  0.00000000000E+00 0.  1.
         21    1    1    2  502  501 -0.28787354203E+02  0.11424282822E+02 -0.42092456645E+01  0.31256099390E+02  0.00000000000E+00 0. -1.
<scales pt_clust_4="550.00000" pt_clust_5="550.00000" pt_clust_6="30.97139"></scales>
<mgrwt>
<rscale>  0 0.30000000E+03</rscale>
<asrwt>  1 0.30971389E+02</asrwt>
<pdfrwt beam="1">  1        1 0.93638500E+00 0.30000000E+03</pdfrwt>
<pdfrwt beam="2">0</pdfrwt>
<totfact> 0.22163803E-05</totfact>
</mgrwt>
<clustering>
<clus scale="   30.971">  1  6  2 -1</clus>
<clus scale="  500.116">  4  5 -1 -1</clus>
<clus scale="  300.000">  1  4  2 -1</clus>
</clustering>
</event>
<event>
 6    1  0.9678510E-012  0.3000000E+03  0.7818608E-02  0.1093470E+00
          1   -1    0    0  502    0  0.00000000000E+00  0.00000000000E+00  0.22721700013E+03  0.22721700013E+03  0.00000000000E+00 0.  1.
         13   -1    0    0    0    0 -0.00000000000E+00 -0.00000000000E+00 -0.27500000000E+03  0.27500000000E+03  0.00000000000E+00 0.  1.
    9000005    2    1    2  501    0  0.47328968308E+01  0.36615193415E+02 -0.39962558243E+02  0.46447800163E+03  0.46128053854E+03 0.  0.
         13    1    3    3    0    0  0.35665624130E+02 -0.20437463974E+03  0.34597100615E+02  0.21032828978E+03  0.00000000000E+00 0.  1.
          3    1    3    3  501    0 -0.30932727299E+02  0.24098983315E+03 -0.74559658858E+02  0.25414971184E+03  0.00000000000E+00 0.  1.
         21    1    1    2  502  501 -0.47328968308E+01 -0.36615193415E+02 -0.78204416232E+01  0.37738998508E+02  0.00000000000E+00 0.  1.
<scales pt_clust_4="550.00000" pt_clust_5="550.00000" pt_clust_6="36.91983"></scales>
<mgrwt>
<rscale>  0 0.30000000E+03</rscale>
<asrwt>  1 0.36919833E+02</asrwt>
<pdfrwt beam="1">  1        1 0.82624364E+00 0.30000000E+03</pdfrwt>
<pdfrwt beam="2">0</pdfrwt>
<totfact> 0.63044061E-04</totfact>
</mgrwt>
<clustering>
<clus scale="   36.920">  1  6  2 -1</clus>
<clus scale="  461.281">  4  5 -1 -1</clus>
<clus scale="  300.000">  1  4  2 -1</clus>
</clustering>
</event>
<event>
 6    1  0.9678510E-012  0.3000000E+03  0.7818608E-02  0.1093470E+00
          1   -1    0    0  502    0  0.00000000000E+00  0.00000000000E+00  0.26554910101E+03  0.26554910101E+03  0.00000000000E+00 0.  1.
         13   -1    0    0    0    0 -0.00000000000E+00 -0.00000000000E+00 -0.27500000000E+03  0.27500000000E+03  0.00000000000E+00 0.  1.
    9000005    2    1    2  501    0  0.32035242633E+02  0.22670979885E+02 -0.11580272606E+02  0.50124561094E+03  0.49957264704E+03 0.  0.
         13    1    3    3    0    0  0.17578622812E+03  0.27380053235E+02 -0.19774338946E+03  0.26599419803E+03  0.00000000000E+00 0.  1.
          1    1    3    3  501    0 -0.14375098549E+03 -0.47090733502E+01  0.18616311685E+03  0.23525141291E+03  0.00000000000E+00 0.  1.
         21    1    1    2  502  501 -0.32035242633E+02 -0.22670979885E+02  0.21293736108E+01  0.39303490067E+02  0.00000000000E+00 0. -1.
<scales pt_clust_4="550.00000" pt_clust_5="550.00000" pt_clust_6="39.24577"></scales>
<mgrwt>
<rscale>  0 0.30000000E+03</rscale>
<asrwt>  1 0.39245765E+02</asrwt>
<pdfrwt beam="1">  1        1 0.96563309E+00 0.30000000E+03</pdfrwt>
<pdfrwt beam="2">0</pdfrwt>
<totfact> 0.56761184E-06</totfact>
</mgrwt>
<clustering>
<clus scale="   39.246">  1  6  2 -1</clus>
<clus scale="  499.573">  4  5 -1 -1</clus>
<clus scale="  300.000">  1  4  2 -1</clus>
</clustering>
</event>
<event>
 6    1  0.9678510E-012  0.3000000E+03  0.7818608E-02  0.1093470E+00
          1   -1    0    0  502    0  0.00000000000E+00  0.00000000000E+00  0.22861975112E+03  0.22861975112E+03  0.00000000000E+00 0.  1.
         13   -1    0    0    0    0 -0.00000000000E+00 -0.00000000000E+00 -0.27500000000E+03  0.27500000000E+03  0.00000000000E+00 0.  1.
    9000005    2    1    2  501    0  0.29847356404E+02 -0.15315150924E+02 -0.38360689355E+02  0.46912726111E+03  0.46635118322E+03 0.  0.
         13    1    3    3    0    0  0.66329516105E+02  0.20040223983E+03  0.73352662517E+02  0.22347544728E+03  0.00000000000E+00 0.  1.
          1    1    3    3  501    0 -0.36482159701E+02 -0.21571739076E+03 -0.11171335187E+03  0.24565181383E+03  0.00000000000E+00 0.  1.
         21    1    1    2  502  501 -0.29847356404E+02  0.15315150924E+02 -0.80195595272E+01  0.34492490010E+02  0.00000000000E+00 0. -1.
<scales pt_clust_4="550.00000" pt_clust_5="550.00000" pt_clust_6="33.54727"></scales>
<mgrwt>
<rscale>  0 0.30000000E+03</rscale>
<asrwt>  1 0.33547275E+02</asrwt>
<pdfrwt beam="1">  1        1 0.83134455E+00 0.30000000E+03</pdfrwt>
<pdfrwt beam="2">0</pdfrwt>
<totfact> 0.58104662E-04</totfact>
</mgrwt>
<clustering>
<clus scale="   33.547">  1  6  2 -1</clus>
<clus scale="  466.351">  4  5 -1 -1</clus>
<clus scale="  300.000">  1  4  2 -1</clus>
</clustering>
</event>
<event>
 6    1  0.9678510E-012  0.3000000E+03  0.7818608E-02  0.1093470E+00
          1   -1    0    0  502    0  0.00000000000E+00  0.00000000000E+00  0.23963639704E+03  0.23963639704E+03  0.00000000000E+00 0.  1.
         13   -1    0    0    0    0 -0.00000000000E+00 -0.00000000000E+00 -0.27500000000E+03  0.27500000000E+03  0.00000000000E+00 0.  1.
    9000005    2    1    2  501    0  0.44146703260E+02 -0.35886649214E+01 -0.53712650809E+02  0.46669374920E+03  0.46147177244E+03 0.  0.
         13    1    3    3    0    0  0.19454723916E+03 -0.14978078264E+03  0.14994543767E+02  0.24598322596E+03  0.00000000000E+00 0.  1.
          3    1    3    3  501    0 -0.15040053590E+03  0.14619211772E+03 -0.68707194576E+02  0.22071052324E+03  0.00000000000E+00 0.  1.
         21    1    1    2  502  501 -0.44146703260E+02  0.35886649214E+01  0.18349047849E+02  0.47942647837E+02  0.00000000000E+00 0.  1.
<scales pt_clust_4="550.00000" pt_clust_5="550.00000" pt_clust_6="44.29232"></scales>
<mgrwt>
<rscale>  0 0.30000000E+03</rscale>
<asrwt>  1 0.44292324E+02</asrwt>
<pdfrwt beam="1">  1        1 0.87140508E+00 0.30000000E+03</pdfrwt>
<pdfrwt beam="2">0</pdfrwt>
<totfact> 0.23468627E-04</totfact>
</mgrwt>
<clustering>
<clus scale="   44.292">  1  6  2 -1</clus>
<clus scale="  461.472">  4  5 -1 -1</clus>
<clus scale="  300.000">  1  4  2 -1</clus>
</clustering>
</event>
<event>
 6    1  0.9678510E-012  0.3000000E+03  0.7818608E-02  0.1093470E+00
          1   -1    0    0  502    0  0.00000000000E+00  0.00000000000E+00  0.24112191624E+03  0.24112191624E+03  0.00000000000E+00 0.  1.
         13   -1    0    0    0    0 -0.00000000000E+00 -0.00000000000E+00 -0.27500000000E+03  0.27500000000E+03  0.00000000000E+00 0.  1.
    9000005    2    1    2  501    0 -0.22745297393E+02  0.38714452021E+02 -0.41308931618E+02  0.47060955694E+03  0.46663772876E+03 0.  0.
         13    1    3    3    0    0  0.12390223171E+03 -0.11568062320E+03  0.11639994789E+03  0.20562761846E+03  0.00000000000E+00 0.  1.
          3    1    3    3  501    0 -0.14664752910E+03  0.15439507523E+03 -0.15770887951E+03  0.26498193848E+03  0.00000000000E+00 0.  1.
         21    1    1    2  502  501  0.22745297393E+02 -0.38714452021E+02  0.74308478547E+01  0.45512359295E+02  0.00000000000E+00 0. -1.
<scales pt_clust_4="550.00000" pt_clust_5="550.00000" pt_clust_6="44.90164"></scales>
<mgrwt>
<rscale>  0 0.30000000E+03</rscale>
<asrwt>  1 0.44901641E+02</asrwt>
<pdfrwt beam="1">  1        1 0.87680697E+00 0.30000000E+03</pdfrwt>
<pdfrwt beam="2">0</pdfrwt>
<totfact> 0.20547288E-04</totfact>
</mgrwt>
<clustering>
<clus scale="   44.902">  1  6  2 -1</clus>
<clus scale="  466.638">  4  5 -1 -1</clus>
<clus scale="  300.000">  1  4  2 -1</clus>
</clustering>
</event>
<event>
 6    1  0.9678510E-012  0.3000000E+03  0.7818608E-02  0.1093470E+00
          1   -1    0    0  502    0  0.00000000000E+00  0.00000000000E+00  0.23546338519E+03  0.23546338519E+03  0.00000000000E+00 0.  1.
         13   -1    0    0    0    0 -0.00000000000E+00 -0.00000000000E+00 -0.27500000000E+03  0.27500000000E+03  0.00000000000E+00 0.  1.
    9000005    2    1    2  501    0  0.46373549781E+01 -0.35114051420E+02 -0.39453665373E+02  0.47504434302E+03  0.47207630151E+03 0.  0.
         13    1    3    3    0    0 -0.24971395279E+02  0.13936094569E+03  0.15647828408E+03  0.21102250391E+03  0.00000000000E+00 0.  1.
          1    1    3    3  501    0  0.29608750257E+02 -0.17447499711E+03 -0.19593194946E+03  0.26402183911E+03  0.00000000000E+00 0.  1.
         21    1    1    2  502  501 -0.46373549781E+01  0.35114051420E+02 -0.82949431907E-01  0.35419042180E+02  0.00000000000E+00 0. -1.
<scales pt_clust_4="550.00000" pt_clust_5="550.00000" pt_clust_6="35.41895"></scales>
<mgrwt>
<rscale>  0 0.30000000E+03</rscale>
<asrwt>  1 0.35418945E+02</asrwt>
<pdfrwt beam="1">  1        1 0.85623049E+00 0.30000000E+03</pdfrwt>
<pdfrwt beam="2">0</pdfrwt>
<totfact> 0.35333903E-04</totfact>
</mgrwt>
<clustering>
<clus scale="   35.419">  1  6  2 -1</clus>
<clus scale="  472.076">  4  5 -1 -1</clus>
<clus scale="  300.000">  1  4  2 -1</clus>
</clustering>
</event>
<event>
 6    1  0.9678510E-012  0.3000000E+03  0.7818608E-02  0.1093470E+00
          1   -1    0    0  502    0  0.00000000000E+00  0.00000000000E+00  0.25254221249E+03  0.25254221249E+03  0.00000000000E+00 0.  1.
         13   -1    0    0    0    0 -0.00000000000E+00 -0.00000000000E+00 -0.27500000000E+03  0.27500000000E+03  0.00000000000E+00 0.  1.
    9000005    2    1    2  501    0  0.38027643398E+02 -0.29238208954E+02 -0.65303052860E+02  0.46322509744E+03  0.45608335604E+03 0.  0.
         13    1    3    3    0    0  0.14699649185E+03  0.16528255304E+03 -0.90198042713E+02  0.23887649081E+03  0.00000000000E+00 0.  1.
          3    1    3    3  501    0 -0.10896884845E+03 -0.19452076199E+03  0.24894989853E+02  0.22434860663E+03  0.00000000000E+00 0.  1.
         21    1    1    2  502  501 -0.38027643398E+02  0.29238208954E+02  0.42845265348E+02  0.64317115047E+02  0.00000000000E+00 0. -1.
<scales pt_clust_4="550.00000" pt_clust_5="550.00000" pt_clust_6="47.96847"></scales>
<mgrwt>
<rscale>  0 0.30000000E+03</rscale>
<asrwt>  1 0.47968474E+02</asrwt>
<pdfrwt beam="1">  1        1 0.91833532E+00 0.30000000E+03</pdfrwt>
<pdfrwt beam="2">0</pdfrwt>
<totfact> 0.42939767E-05</totfact>
</mgrwt>
<clustering>
<clus scale="   47.968">  1  6  2 -1</clus>
<clus scale="  456.083">  4  5 -1 -1</clus>
<clus scale="  300.000">  1  4  2 -1</clus>
</clustering>
</event>
<event>
 6    1  0.9678510E-012  0.3000000E+03  0.7818608E-02  0.1093470E+00
          1   -1    0    0  502    0  0.00000000000E+00  0.00000000000E+00  0.22631485879E+03  0.22631485879E+03  0.00000000000E+00 0.  1.
         13   -1    0    0    0    0 -0.00000000000E+00 -0.00000000000E+00 -0.27500000000E+03  0.27500000000E+03  0.00000000000E+00 0.  1.
    9000005    2    1    2  501    0  0.21319486694E+02  0.30984759860E+02 -0.55972768507E+02  0.46300447680E+03  0.45806726456E+03 0.  0.
         13    1    3    3    0    0 -0.10302695198E+03 -0.25084594619E+02 -0.22325634865E+03  0.24715822247E+03  0.00000000000E+00 0.  1.
          1    1    3    3  501    0  0.12434643868E+03  0.56069354479E+02  0.16728358014E+03  0.21584625433E+03  0.00000000000E+00 0.  1.
         21    1    1    2  502  501 -0.21319486694E+02 -0.30984759860E+02  0.72876272922E+01  0.38310381987E+02  0.00000000000E+00 0.  1.
<scales pt_clust_4="550.00000" pt_clust_5="550.00000" pt_clust_6="37.61085"></scales>
<mgrwt>
<rscale>  0 0.30000000E+03</rscale>
<asrwt>  1 0.37610848E+02</asrwt>
<pdfrwt beam="1">  1        1 0.82296312E+00 0.30000000E+03</pdfrwt>
<pdfrwt beam="2">0</pdfrwt>
<totfact> 0.67206632E-04</totfact>
</mgrwt>
<clustering>
<clus scale="   37.611">  1  6  2 -1</clus>
<clus scale="  458.067">  4  5 -1 -1</clus>
<clus scale="  300.000">  1  4  2 -1</clus>
</clustering>
</event>
<event>
 6    1  0.9678510E-012  0.3000000E+03  0.7818608E-02  0.1093470E+00
          1   -1    0    0  502    0  0.00000000000E+00  0.00000000000E+00  0.23810270539E+03  0.23810270539E+03  0.00000000000E+00 0.  1.
         13   -1    0    0    0    0 -0.00000000000E+00 -0.00000000000E+00 -0.27500000000E+03  0.27500000000E+03  0.00000000000E+00 0.  1.
    9000005    2    1    2  501    0 -0.22944951673E+02 -0.24848942940E+02 -0.40936060580E+02  0.47904022746E+03  0.47608805666E+03 0.  0.
         13    1    3    3    0    0 -0.98588050683E+02 -0.18598359305E+03  0.11720933416E+03  0.24093054733E+03  0.00000000000E+00 0.  1.
          1    1    3    3  501    0  0.75643099010E+02  0.16113465011E+03 -0.15814539474E+03  0.23810968013E+03  0.00000000000E+00 0.  1.
         21    1    1    2  502  501  0.22944951673E+02  0.24848942940E+02  0.40387659712E+01  0.34062477935E+02  0.00000000000E+00 0.  1.
<scales pt_clust_4="550.00000" pt_clust_5="550.00000" pt_clust_6="33.82219"></scales>
<mgrwt>
<rscale>  0 0.30000000E+03</rscale>
<asrwt>  1 0.33822193E+02</asrwt>
<pdfrwt beam="1">  1        1 0.86582802E+00 0.30000000E+03</pdfrwt>
<pdfrwt beam="2">0</pdfrwt>
<totfact> 0.28172151E-04</totfact>
</mgrwt>
<clustering>
<clus scale="   33.822">  1  6  2 -1</clus>
<clus scale="  476.088">  4  5 -1 -1</clus>
<clus scale="  300.000">  1  4  2 -1</clus>
</clustering>
</event>
<event>
 6    1  0.9678510E-012  0.3000000E+03  0.7818608E-02  0.1093470E+00
          1   -1    0    0  502    0  0.00000000000E+00  0.00000000000E+00  0.23135036980E+03  0.23135036980E+03  0.00000000000E+00 0.  1.
         13   -1    0    0    0    0 -0.00000000000E+00 -0.00000000000E+00 -0.27500000000E+03  0.27500000000E+03  0.00000000000E+00 0.  1.
    9000005    2    1    2  501    0 -0.96710031108E+01 -0.30563648989E+02 -0.68658986759E+02  0.46569163327E+03  0.45948555570E+03 0.  0.
         13    1    3    3    0    0 -0.45475473266E+01 -0.23324196054E+03 -0.11135701823E+03  0.25850121442E+03  0.00000000000E+00 0.  1.
          1    1    3    3  501    0 -0.51234557842E+01  0.20267831156E+03  0.42698031470E+02  0.20719041886E+03  0.00000000000E+00 0.  1.
         21    1    1    2  502  501  0.96710031108E+01  0.30563648989E+02  0.25009356562E+02  0.40658736531E+02  0.00000000000E+00 0. -1.
<scales pt_clust_4="550.00000" pt_clust_5="550.00000" pt_clust_6="32.05721"></scales>
<mgrwt>
<rscale>  0 0.30000000E+03</rscale>
<asrwt>  1 0.32057214E+02</asrwt>
<pdfrwt beam="1">  1        1 0.84127407E+00 0.30000000E+03</pdfrwt>
<pdfrwt beam="2">0</pdfrwt>
<totfact> 0.49385081E-04</totfact>
</mgrwt>
<clustering>
<clus scale="   32.057">  1  6  2 -1</clus>
<clus scale="  459.486">  4  5 -1 -1</clus>
<clus scale="  300.000">  1  4  2 -1</clus>
</clustering>
</event>
<event>
 6    1  0.9678510E-012  0.3000000E+03  0.7818608E-02  0.1093470E+00
          1   -1    0    0  502    0  0.00000000000E+00  0.00000000000E+00  0.23443322384E+03  0.23443322384E+03  0.00000000000E+00 0.  1.
         13   -1    0    0    0    0 -0.00000000000E+00 -0.00000000000E+00 -0.27500000000E+03  0.27500000000E+03  0.00000000000E+00 0.  1.
    9000005    2    1    2  501    0 -0.30383604498E+02 -0.19896019472E+02 -0.65812890628E+02  0.46520222443E+03  0.45908905240E+03 0.  0.
         13    1    3    3    0    0  0.77173736201E+02 -0.13256055346E+03 -0.20519020253E+03  0.25618568482E+03  0.00000000000E+00 0.  1.
          3    1    3    3  501    0 -0.10755734070E+03  0.11266453399E+03  0.13937731190E+03  0.20901653961E+03  0.00000000000E+00 0.  1.
         21    1    1    2  502  501  0.30383604498E+02  0.19896019472E+02  0.25246114471E+02  0.44230999412E+02  0.00000000000E+00 0.  1.
<scales pt_clust_4="550.00000" pt_clust_5="550.00000" pt_clust_6="36.31825"></scales>
<mgrwt>
<rscale>  0 0.30000000E+03</rscale>
<asrwt>  1 0.36318246E+02</asrwt>
<pdfrwt beam="1">  1        1 0.85248445E+00 0.30000000E+03</pdfrwt>
<pdfrwt beam="2">0</pdfrwt>
<totfact> 0.38280256E-04</totfact>
</mgrwt>
<clustering>
<clus scale="   36.318">  1  6  2 -1</clus>
<clus scale="  459.089">  4  5 -1 -1</clus>
<clus scale="  300.000">  1  4  2 -1</clus>
</clustering>
</event>
<event>
 6    1  0.9678510E-012  0.3000000E+03  0.7818608E-02  0.1093470E+00
          1   -1    0    0  502    0  0.00000000000E+00  0.00000000000E+00  0.24214815428E+03  0.24214815428E+03  0.00000000000E+00 0.  1.
         13   -1    0    0    0    0 -0.00000000000E+00 -0.00000000000E+00 -0.27500000000E+03  0.27500000000E+03  0.00000000000E+00 0.  1.
    9000005    2    1    2  501    0 -0.42556291187E+02 -0.10799458382E+01 -0.56241899573E+02  0.46857554037E+03  0.46323609700E+03 0.  0.
         13    1    3    3    0    0 -0.50675519986E+02  0.20695842625E+03  0.70981441889E+02  0.22458442425E+03  0.00000000000E+00 0.  1.
          3    1    3    3  501    0  0.81192287998E+01 -0.20803837209E+03 -0.12722334146E+03  0.24399111613E+03  0.00000000000E+00 0.  1.
         21    1    1    2  502  501  0.42556291187E+02  0.10799458382E+01  0.23390053857E+02  0.48572613910E+02  0.00000000000E+00 0. -1.
<scales pt_clust_4="550.00000" pt_clust_5="550.00000" pt_clust_6="42.56999"></scales>
<mgrwt>
<rscale>  0 0.30000000E+03</rscale>
<asrwt>  1 0.42569992E+02</asrwt>
<pdfrwt beam="1">  1        1 0.88053874E+00 0.30000000E+03</pdfrwt>
<pdfrwt beam="2">0</pdfrwt>
<totfact> 0.18749165E-04</totfact>
</mgrwt>
<clustering>
<clus scale="   42.570">  1  6  2 -1</clus>
<clus scale="  463.236">  4  5 -1 -1</clus>
<clus scale="  300.000">  1  4  2 -1</clus>
</clustering>
</event>
<event>
 6    1  0.9678510E-012  0.3000000E+03  0.7818608E-02  0.1093470E+00
          1   -1    0    0  502    0  0.00000000000E+00  0.00000000000E+00  0.21816300026E+03  0.21816300026E+03  0.00000000000E+00 0.  1.
         13   -1    0    0    0    0 -0.00000000000E+00 -0.00000000000E+00 -0.27500000000E+03  0.27500000000E+03  0.00000000000E+00 0.  1.
    9000005    2    1    2  501    0  0.21731600526E+02  0.21791378018E+02 -0.46616436850E+02  0.46073482542E+03  0.45733615706E+03 0.  0.
         13    1    3    3    0    0  0.73128084954E+02 -0.13084519948E+03  0.14627924172E+03  0.20944163767E+03  0.00000000000E+00 0.  1.
          3    1    3    3  501    0 -0.51396484428E+02  0.15263657749E+03 -0.19289567857E+03  0.25129318775E+03  0.00000000000E+00 0.  1.
         21    1    1    2  502  501 -0.21731600526E+02 -0.21791378018E+02 -0.10220562890E+02  0.32428174836E+02  0.00000000000E+00 0.  1.
<scales pt_clust_4="550.00000" pt_clust_5="550.00000" pt_clust_6="30.77544"></scales>
<mgrwt>
<rscale>  0 0.30000000E+03</rscale>
<asrwt>  1 0.30775438E+02</asrwt>
<pdfrwt beam="1">  1        1 0.79332000E+00 0.30000000E+03</pdfrwt>
<pdfrwt beam="2">0</pdfrwt>
<totfact> 0.11902256E-03</totfact>
</mgrwt>
<clustering>
<clus scale="   30.775">  1  6  2 -1</clus>
<clus scale="  457.336">  4  5 -1 -1</clus>
<clus scale="  300.000">  1  4  2 -1</clus>
</clustering>
</event>
<event>
 6    1  0.9678510E-012  0.3000000E+03  0.7818608E-02  0.1093470E+00
          1   -1    0    0  502    0  0.00000000000E+00  0.00000000000E+00  0.22383669084E+03  0.22383669084E+03  0.00000000000E+00 0.  1.
         13   -1    0    0    0    0 -0.00000000000E+00 -0.00000000000E+00 -0.27500000000E+03  0.27500000000E+03  0.00000000000E+00 0.  1.
    9000005    2    1    2  501    0 -0.26300800917E+02 -0.19615382919E+02 -0.42311235744E+02  0.46485353943E+03  0.46175976121E+03 0.  0.
         13    1    3    3    0    0 -0.11637110968E+03 -0.47740588365E+02  0.18215331978E+03  0.22136221640E+03  0.00000000000E+00 0.  1.
          1    1    3    3  501    0  0.90070308765E+02  0.28125205447E+02 -0.22446455552E+03  0.24349132302E+03  0.00000000000E+00 0.  1.
         21    1    1    2  502  501  0.26300800917E+02  0.19615382919E+02 -0.88520734187E+01  0.33983151410E+02  0.00000000000E+00 0. -1.
<scales pt_clust_4="550.00000" pt_clust_5="550.00000" pt_clust_6="32.81001"></scales>
<mgrwt>
<rscale>  0 0.30000000E+03</rscale>
<asrwt>  1 0.32810005E+02</asrwt>
<pdfrwt beam="1">  1        1 0.81395160E+00 0.30000000E+03</pdfrwt>
<pdfrwt beam="2">0</pdfrwt>
<totfact> 0.82158560E-04</totfact>
</mgrwt>
<clustering>
<clus scale="   32.810">  1  6  2 -1</clus>
<clus scale="  461.760">  4  5 -1 -1</clus>
<clus scale="  300.000">  1  4  2 -1</clus>
</clustering>
</event>
<event>
 6    1  0.9678510E-012  0.3000000E+03  0.7818608E-02  0.1093470E+00
          1   -1    0    0  502    0  0.00000000000E+00  0.00000000000E+00  0.24978322652E+03  0.24978322652E+03  0.00000000000E+00 0.  1.
         13   -1    0    0    0    0 -0.00000000000E+00 -0.00000000000E+00 -0.27500000000E+03  0.27500000000E+03  0.00000000000E+00 0.  1.
    9000005    2    1    2  501    0  0.22328254204E+02  0.33802041943E+02 -0.57716292893E+02  0.47284722997E+03  0.46755983943E+03 0.  0.
         13    1    3    3    0    0 -0.12899442662E+03  0.17545512495E+03 -0.12964933313E+03  0.25344232589E+03  0.00000000000E+00 0.  1.
          1    1    3    3  501    0  0.15132268083E+03 -0.14165308301E+03  0.71933040241E+02  0.21940490408E+03  0.00000000000E+00 0.  1.
         21    1    1    2  502  501 -0.22328254204E+02 -0.33802041943E+02  0.32499519413E+02  0.51935996548E+02  0.00000000000E+00 0.  1.
<scales pt_clust_4="550.00000" pt_clust_5="550.00000" pt_clust_6="40.51085"></scales>
<mgrwt>
<rscale>  0 0.30000000E+03</rscale>
<asrwt>  1 0.40510850E+02</asrwt>
<pdfrwt beam="1">  1        1 0.90830264E+00 0.30000000E+03</pdfrwt>
<pdfrwt beam="2">0</pdfrwt>
<totfact> 0.76718151E-05</totfact>
</mgrwt>
<clustering>
<clus scale="   40.511">  1  6  2 -1</clus>
<clus scale="  467.560">  4  5 -1 -1</clus>
<clus scale="  300.000">  1  4  2 -1</clus>
</clustering>
</event>
<event>
 6    1  0.9678510E-012  0.3000000E+03  0.7818608E-02  0.1093470E+00
          1   -1    0    0  502    0  0.00000000000E+00  0.00000000000E+00  0.23716357033E+03  0.23716357033E+03  0.00000000000E+00 0.  1.
         13   -1    0    0    0    0 -0.00000000000E+00 -0.00000000000E+00 -0.27500000000E+03  0.27500000000E+03  0.00000000000E+00 0.  1.
    9000005    2    1    2  501    0 -0.15847486669E+02  0.30482925714E+02 -0.56444190238E+02  0.47309183698E+03  0.46845446738E+03 0.  0.
         13    1    3    3    0    0 -0.15783686022E+03 -0.13783371109E+03 -0.12308192387E+03  0.24302215195E+03  0.00000000000E+00 0.  1.
          1    1    3    3  501    0  0.14198937355E+03  0.16831663680E+03  0.66637733631E+02  0.23006968503E+03  0.00000000000E+00 0.  1.
         21    1    1    2  502  501  0.15847486669E+02 -0.30482925714E+02  0.18607760564E+02  0.39071733350E+02  0.00000000000E+00 0.  1.
<scales pt_clust_4="550.00000" pt_clust_5="550.00000" pt_clust_6="34.35625"></scales>
<mgrwt>
<rscale>  0 0.30000000E+03</rscale>
<asrwt>  1 0.34356245E+02</asrwt>
<pdfrwt beam="1">  1        1 0.86241298E+00 0.30000000E+03</pdfrwt>
<pdfrwt beam="2">0</pdfrwt>
<totfact> 0.30576137E-04</totfact>
</mgrwt>
<clustering>
<clus scale="   34.356">  1  6  2 -1</clus>
<clus scale="  468.454">  4  5 -1 -1</clus>
<clus scale="  300.000">  1  4  2 -1</clus>
</clustering>
</event>
<event>
 6    1  0.9678510E-012  0.3000000E+03  0.7818608E-02  0.1093470E+00
          1   -1    0    0  502    0  0.00000000000E+00  0.00000000000E+00  0.24308143555E+03  0.24308143555E+03  0.00000000000E+00 0.  1.
         13   -1    0    0    0    0 -0.00000000000E+00 -0.00000000000E+00 -0.27500000000E+03  0.27500000000E+03  0.00000000000E+00 0.  1.
    9000005    2    1    2  501    0 -0.19598770638E+02  0.28145896625E+02 -0.42557023034E+02  0.48217210378E+03  0.47906422758E+03 0.  0.
         13    1    3    3    0    0 -0.10706950816E+03  0.23248218479E+03 -0.47956212220E+00  0.25595326879E+03  0.00000000000E+00 0.  1.
          3    1    3    3  501    0  0.87470737526E+02 -0.20433628817E+03 -0.42077460912E+02  0.22621883499E+03  0.00000000000E+00 0.  1.
         21    1    1    2  502  501  0.19598770638E+02 -0.28145896625E+02  0.10638458587E+02  0.35909331774E+02  0.00000000000E+00 0. -1.
<scales pt_clust_4="550.00000" pt_clust_5="550.00000" pt_clust_6="34.29728"></scales>
<mgrwt>
<rscale>  0 0.30000000E+03</rscale>
<asrwt>  1 0.34297278E+02</asrwt>
<pdfrwt beam="1">  1        1 0.88393249E+00 0.30000000E+03</pdfrwt>
<pdfrwt beam="2">0</pdfrwt>
<totfact> 0.17615223E-04</totfact>
</mgrwt>
<clustering>
<clus scale="   34.297">  1  6  2 -1</clus>
<clus scale="  479.064">  4  5 -1 -1</clus>
<clus scale="  300.000">  1  4  2 -1</clus>
</clustering>
</event>
<event>
 6    1  0.9678510E-012  0.3000000E+03  0.7818608E-02  0.1093470E+00
          1   -1    0    0  502    0  0.00000000000E+00  0.00000000000E+00  0.24865578664E+03  0.24865578664E+03  0.00000000000E+00 0.  1.
         13   -1    0    0    0    0 -0.00000000000E+00 -0.00000000000E+00 -0.27500000000E+03  0.27500000000E+03  0.00000000000E+00 0.  1.
    9000005    2    1    2  501    0 -0.33502215440E+02 -0.14767164145E+02 -0.12802081935E+02  0.48461917690E+03  0.48306457720E+03 0.  0.
         13    1    3    3    0    0  0.13415123000E+03  0.48649998594E+02 -0.18662593133E+03  0.23493108164E+03  0.00000000000E+00 0.  1.
          3    1    3    3  501    0 -0.16765344544E+03 -0.63417162739E+02  0.17382384940E+03  0.24968809526E+03  0.00000000000E+00 0.  1.
         21    1    1    2  502  501  0.33502215440E+02  0.14767164145E+02 -0.13542131427E+02  0.39036609738E+02  0.00000000000E+00 0. -1.
<scales pt_clust_4="550.00000" pt_clust_5="550.00000" pt_clust_6="36.61241"></scales>
<mgrwt>
<rscale>  0 0.30000000E+03</rscale>
<asrwt>  1 0.36612415E+02</asrwt>
<pdfrwt beam="1">  1        1 0.90420286E+00 0.30000000E+03</pdfrwt>
<pdfrwt beam="2">0</pdfrwt>
<totfact> 0.94832453E-05</totfact>
</mgrwt>
<clustering>
<clus scale="   36.612">  1  6  2 -1</clus>
<clus scale="  483.065">  4  5 -1 -1</clus>
<clus scale="  300.000">  1  4  2 -1</clus>
</clustering>
</event>
<event>
 6    1  0.9678510E-012  0.3000000E+03  0.7818608E-02  0.1093470E+00
          1   -1    0    0  502    0  0.00000000000E+00  0.00000000000E+00  0.22088483285E+03  0.22088483285E+03  0.00000000000E+00 0.  1.
         13   -1    0    0    0    0 -0.00000000000E+00 -0.00000000000E+00 -0.27500000000E+03  0.27500000000E+03  0.00000000000E+00 0.  1.
    9000005    2    1    2  501    0  0.31409243830E+02  0.35020929245E+00 -0.62751795013E+02  0.46330793022E+03  0.45796264824E+03 0.  0.
         13    1    3    3    0    0 -0.14515017028E+03  0.50065022813E+01 -0.19465661720E+03  0.24286793863E+03  0.00000000000E+00 0.  1.
          3    1    3    3  501    0  0.17655941411E+03 -0.46562929888E+01  0.13190482219E+03  0.22043999158E+03  0.00000000000E+00 0.  1.
         21    1    1    2  502  501 -0.31409243830E+02 -0.35020929245E+00  0.86366278646E+01  0.32576902636E+02  0.00000000000E+00 0.  1.
<scales pt_clust_4="550.00000" pt_clust_5="550.00000" pt_clust_6="31.41120"></scales>
<mgrwt>
<rscale>  0 0.30000000E+03</rscale>
<asrwt>  1 0.31411196E+02</asrwt>
<pdfrwt beam="1">  1        1 0.80321757E+00 0.30000000E+03</pdfrwt>
<pdfrwt beam="2">0</pdfrwt>
<totfact> 0.10028684E-03</totfact>
</mgrwt>
<clustering>
<clus scale="   31.411">  1  6  2 -1</clus>
<clus scale="  457.963">  4  5 -1 -1</clus>
<clus scale="  300.000">  1  4  2 -1</clus>
</clustering>
</event>
<event>
 6    1  0.9678510E-012  0.3000000E+03  0.7818608E-02  0.1093470E+00
          1   -1    0    0  502    0  0.00000000000E+00  0.00000000000E+00  0.24308802975E+03  0.24308802975E+03  0.00000000000E+00 0.  1.
         13   -1    0    0    0    0 -0.00000000000E+00 -0.00000000000E+00 -0.27500000000E+03  0.27500000000E+03  0.00000000000E+00 0.  1.
    9000005    2    1    2  501    0 -0.35389058032E+02 -0.14759077300E+02 -0.45766795309E+02  0.47731828645E+03  0.47356935209E+03 0.  0.
         13    1    3    3    0    0 -0.47249872883E+02  0.60174886533E+02  0.20315903664E+03  0.21708791221E+03  0.00000000000E+00 0.  1.
          1    1    3    3  501    0  0.11860814851E+02 -0.74933963833E+02 -0.24892583195E+03  0.26023037424E+03  0.00000000000E+00 0.  1.
         21    1    1    2  502  501  0.35389058032E+02  0.14759077300E+02  0.13854825056E+02  0.40769743297E+02  0.00000000000E+00 0. -1.
<scales pt_clust_4="550.00000" pt_clust_5="550.00000" pt_clust_6="38.34339"></scales>
<mgrwt>
<rscale>  0 0.30000000E+03</rscale>
<asrwt>  1 0.38343393E+02</asrwt>
<pdfrwt beam="1">  1        1 0.88395647E+00 0.30000000E+03</pdfrwt>
<pdfrwt beam="2">0</pdfrwt>
<totfact> 0.17241030E-04</totfact>
</mgrwt>
<clustering>
<clus scale="   38.343">  1  6  2 -1</clus>
<clus scale="  473.569">  4  5 -1 -1</clus>
<clus scale="  300.000">  1  4  2 -1</clus>
</clustering>
</event>
<event>
 6    1  0.9678510E-012  0.3000000E+03  0.7818608E-02  0.1093470E+00
          1   -1    0    0  502    0  0.00000000000E+00  0.00000000000E+00  0.24064327370E+03  0.24064327370E+03  0.00000000000E+00 0.  1.
         13   -1    0    0    0    0 -0.00000000000E+00 -0.00000000000E+00 -0.27500000000E+03  0.27500000000E+03  0.00000000000E+00 0.  1.
    9000005    2    1    2  501    0  0.27255902310E+01  0.30347013237E+02 -0.57151722235E+02  0.47759091642E+03  0.47317902959E+03 0.  0.
         13    1    3    3    0    0  0.12699242813E+03 -0.47385137858E+02 -0.22005576567E+03  0.25845109421E+03  0.00000000000E+00 0.  1.
          1    1    3    3  501    0 -0.12426683790E+03  0.77732151095E+02  0.16290404344E+03  0.21913982222E+03  0.00000000000E+00 0.  1.
         21    1    1    2  502  501 -0.27255902310E+01 -0.30347013237E+02  0.22794995937E+02  0.38052357276E+02  0.00000000000E+00 0.  1.
<scales pt_clust_4="550.00000" pt_clust_5="550.00000" pt_clust_6="30.46917"></scales>
<mgrwt>
<rscale>  0 0.30000000E+03</rscale>
<asrwt>  1 0.30469166E+02</asrwt>
<pdfrwt beam="1">  1        1 0.87506645E+00 0.30000000E+03</pdfrwt>
<pdfrwt beam="2">0</pdfrwt>
<totfact> 0.23054054E-04</totfact>
</mgrwt>
<clustering>
<clus scale="   30.469">  1  6  2 -1</clus>
<clus scale="  473.179">  4  5 -1 -1</clus>
<clus scale="  300.000">  1  4  2 -1</clus>
</clustering>
</event>
<event>
 6    1  0.9678510E-012  0.3000000E+03  0.7818608E-02  0.1093470E+00
          1   -1    0    0  502    0  0.00000000000E+00  0.00000000000E+00  0.24467494061E+03  0.24467494061E+03  0.00000000000E+00 0.  1.
         13   -1    0    0    0    0 -0.00000000000E+00 -0.00000000000E+00 -0.27500000000E+03  0.27500000000E+03  0.00000000000E+00 0.  1.
    9000005    2    1    2  501    0 -0.36056338136E+02 -0.31738750055E+01 -0.64693992532E+02  0.46976144977E+03  0.46387538631E+03 0.  0.
         13    1    3    3    0    0 -0.10599274597E+03  0.19898003452E+03  0.44181847907E+02  0.22973800735E+03  0.00000000000E+00 0.  1.
          3    1    3    3  501    0  0.69936407836E+02 -0.20215390953E+03 -0.10887584044E+03  0.24002344242E+03  0.00000000000E+00 0.  1.
         21    1    1    2  502  501  0.36056338136E+02  0.31738750055E+01  0.34368933146E+02  0.49913490841E+02  0.00000000000E+00 0.  1.
<scales pt_clust_4="550.00000" pt_clust_5="550.00000" pt_clust_6="36.19576"></scales>
<mgrwt>
<rscale>  0 0.30000000E+03</rscale>
<asrwt>  1 0.36195759E+02</asrwt>
<pdfrwt beam="1">  1        1 0.88972706E+00 0.30000000E+03</pdfrwt>
<pdfrwt beam="2">0</pdfrwt>
<totfact> 0.14526417E-04</totfact>
</mgrwt>
<clustering>
<clus scale="   36.196">  1  6  2 -1</clus>
<clus scale="  463.875">  4  5 -1 -1</clus>
<clus scale="  300.000">  1  4  2 -1</clus>
</clustering>
</event>
<event>
 6    1  0.9678510E-012  0.3000000E+03  0.7818608E-02  0.1093470E+00
          1   -1    0    0  502    0  0.00000000000E+00  0.00000000000E+00  0.24069701034E+03  0.24069701034E+03  0.00000000000E+00 0.  1.
         13   -1    0    0    0    0 -0.00000000000E+00 -0.00000000000E+00 -0.27500000000E+03  0.27500000000E+03  0.00000000000E+00 0.  1.
    9000005    2    1    2  501    0  0.31995957533E+02 -0.28569151032E+02 -0.64470521528E+02  0.46325639947E+03  0.45673855302E+03 0.  0.
         13    1    3    3    0    0 -0.45049332751E+02 -0.19059429652E+03  0.99971071381E+02  0.21988597809E+03  0.00000000000E+00 0.  1.
          3    1    3    3  501    0  0.77045290284E+02  0.16202514549E+03 -0.16444159291E+03  0.24337042138E+03  0.00000000000E+00 0.  1.
         21    1    1    2  502  501 -0.31995957533E+02  0.28569151032E+02  0.30167531866E+02  0.52440610866E+02  0.00000000000E+00 0.  1.
<scales pt_clust_4="550.00000" pt_clust_5="550.00000" pt_clust_6="42.89449"></scales>
<mgrwt>
<rscale>  0 0.30000000E+03</rscale>
<asrwt>  1 0.42894495E+02</asrwt>
<pdfrwt beam="1">  1        1 0.87526186E+00 0.30000000E+03</pdfrwt>
<pdfrwt beam="2">0</pdfrwt>
<totfact> 0.21530279E-04</totfact>
</mgrwt>
<clustering>
<clus scale="   42.894">  1  6  2 -1</clus>
<clus scale="  456.739">  4  5 -1 -1</clus>
<clus scale="  300.000">  1  4  2 -1</clus>
</clustering>
</event>
<event>
 6    1  0.9678510E-012  0.3000000E+03  0.7818608E-02  0.1093470E+00
          1   -1    0    0  502    0  0.00000000000E+00  0.00000000000E+00  0.23056732284E+03  0.23056732284E+03  0.00000000000E+00 0.  1.
         13   -1    0    0    0    0 -0.00000000000E+00 -0.00000000000E+00 -0.27500000000E+03  0.27500000000E+03  0.00000000000E+00 0.  1.
    9000005    2    1    2  501    0  0.80343727353E+00  0.38377955971E+02 -0.49162157080E+02  0.46689070204E+03  0.46270562666E+03 0.  0.
         13    1    3    3    0    0  0.15678716368E+03 -0.84016645243E+02 -0.16042436799E+03  0.23953494362E+03  0.00000000000E+00 0.  1.
          1    1    3    3  501    0 -0.15598372640E+03  0.12239460121E+03  0.11126221091E+03  0.22735575842E+03  0.00000000000E+00 0.  1.
         21    1    1    2  502  501 -0.80343727353E+00 -0.38377955971E+02  0.47294799149E+01  0.38676620796E+02  0.00000000000E+00 0.  1.
<scales pt_clust_4="550.00000" pt_clust_5="550.00000" pt_clust_6="38.38636"></scales>
<mgrwt>
<rscale>  0 0.30000000E+03</rscale>
<asrwt>  1 0.38386365E+02</asrwt>
<pdfrwt beam="1">  1        1 0.83842663E+00 0.30000000E+03</pdfrwt>
<pdfrwt beam="2">0</pdfrwt>
<totfact> 0.50208861E-04</totfact>
</mgrwt>
<clustering>
<clus scale="   38.386">  1  6  2 -1</clus>
<clus scale="  462.706">  4  5 -1 -1</clus>
<clus scale="  300.000">  1  4  2 -1</clus>
</clustering>
</event>
<event>
 6    1  0.9678510E-012  0.3000000E+03  0.7818608E-02  0.1093470E+00
          1   -1    0    0  502    0  0.00000000000E+00  0.00000000000E+00  0.23137827110E+03  0.23137827110E+03  0.00000000000E+00 0.  1.
         13   -1    0    0    0    0 -0.00000000000E+00 -0.00000000000E+00 -0.27500000000E+03  0.27500000000E+03  0.00000000000E+00 0.  1.
    9000005    2    1    2  501    0 -0.25674054553E+02  0.24699383565E+02 -0.37113636270E+02  0.47016264056E+03  0.46733956601E+03 0.  0.
         13    1    3    3    0    0 -0.58859718651E+02 -0.10598849246E+03 -0.21507401153E+03  0.24689037537E+03  0.00000000000E+00 0.  1.
          3    1    3    3  501    0  0.33185664098E+02  0.13068787603E+03  0.17796037526E+03  0.22327226519E+03  0.00000000000E+00 0.  1.
         21    1    1    2  502  501  0.25674054553E+02 -0.24699383565E+02 -0.65080926268E+01  0.36215630539E+02  0.00000000000E+00 0.  1.
<scales pt_clust_4="550.00000" pt_clust_5="550.00000" pt_clust_6="35.62608"></scales>
<mgrwt>
<rscale>  0 0.30000000E+03</rscale>
<asrwt>  1 0.35626084E+02</asrwt>
<pdfrwt beam="1">  1        1 0.84137553E+00 0.30000000E+03</pdfrwt>
<pdfrwt beam="2">0</pdfrwt>
<totfact> 0.48322567E-04</totfact>
</mgrwt>
<clustering>
<clus scale="   35.626">  1  6  2 -1</clus>
<clus scale="  467.340">  4  5 -1 -1</clus>
<clus scale="  300.000">  1  4  2 -1</clus>
</clustering>
</event>
<event>
 6    1  0.9678510E-012  0.3000000E+03  0.7818608E-02  0.1093470E+00
          1   -1    0    0  502    0  0.00000000000E+00  0.00000000000E+00  0.24999022670E+03  0.24999022670E+03  0.00000000000E+00 0.  1.
         13   -1    0    0    0    0 -0.00000000000E+00 -0.00000000000E+00 -0.27500000000E+03  0.27500000000E+03  0.00000000000E+00 0.  1.
    9000005    2    1    2  501    0 -0.10387946311E+02  0.39078134896E+02 -0.33404285651E+02  0.48369279466E+03  0.48084078784E+03 0.  0.
         13    1    3    3    0    0 -0.13104097335E+03 -0.17608716529E+03  0.46544011383E+02  0.22437640579E+03  0.00000000000E+00 0.  1.
          3    1    3    3  501    0  0.12065302704E+03  0.21516530019E+03 -0.79948297034E+02  0.25931638887E+03  0.00000000000E+00 0.  1.
         21    1    1    2  502  501  0.10387946311E+02 -0.39078134896E+02  0.83945123511E+01  0.41297432041E+02  0.00000000000E+00 0.  1.
<scales pt_clust_4="550.00000" pt_clust_5="550.00000" pt_clust_6="40.43526"></scales>
<mgrwt>
<rscale>  0 0.30000000E+03</rscale>
<asrwt>  1 0.40435258E+02</asrwt>
<pdfrwt beam="1">  1        1 0.90905537E+00 0.30000000E+03</pdfrwt>
<pdfrwt beam="2">0</pdfrwt>
<totfact> 0.73713220E-05</totfact>
</mgrwt>
<clustering>
<clus scale="   40.435">  1  6  2 -1</clus>
<clus scale="  480.841">  4  5 -1 -1</clus>
<clus scale="  300.000">  1  4  2 -1</clus>
</clustering>
</event>
<event>
 6    1  0.9678510E-012  0.3000000E+03  0.7818608E-02  0.1093470E+00
          1   -1    0    0  502    0  0.00000000000E+00  0.00000000000E+00  0.22785726240E+03  0.22785726240E+03  0.00000000000E+00 0.  1.
         13   -1    0    0    0    0 -0.00000000000E+00 -0.00000000000E+00 -0.27500000000E+03  0.27500000000E+03  0.00000000000E+00 0.  1.
    9000005    2    1    2  501    0 -0.72442653748E+01 -0.30518223340E+02 -0.54673112616E+02  0.47059973793E+03  0.46635943516E+03 0.  0.
         13    1    3    3    0    0  0.84014490052E+02  0.18552385243E+03  0.56076332027E+02  0.21123941245E+03  0.00000000000E+00 0.  1.
          3    1    3    3  501    0 -0.91258755427E+02 -0.21604207577E+03 -0.11074944464E+03  0.25936032548E+03  0.00000000000E+00 0.  1.
         21    1    1    2  502  501  0.72442653748E+01  0.30518223340E+02  0.75303750130E+01  0.32257524463E+02  0.00000000000E+00 0. -1.
<scales pt_clust_4="550.00000" pt_clust_5="550.00000" pt_clust_6="31.36625"></scales>
<mgrwt>
<rscale>  0 0.30000000E+03</rscale>
<asrwt>  1 0.31366245E+02</asrwt>
<pdfrwt beam="1">  1        1 0.82857186E+00 0.30000000E+03</pdfrwt>
<pdfrwt beam="2">0</pdfrwt>
<totfact> 0.62032838E-04</totfact>
</mgrwt>
<clustering>
<clus scale="   31.366">  1  6  2 -1</clus>
<clus scale="  466.359">  4  5 -1 -1</clus>
<clus scale="  300.000">  1  4  2 -1</clus>
</clustering>
</event>
<event>
 6    1  0.9678510E-012  0.3000000E+03  0.7818608E-02  0.1093470E+00
          1   -1    0    0  502    0  0.00000000000E+00  0.00000000000E+00  0.24181173267E+03  0.24181173267E+03  0.00000000000E+00 0.  1.
         13   -1    0    0    0    0 -0.00000000000E+00 -0.00000000000E+00 -0.27500000000E+03  0.27500000000E+03  0.00000000000E+00 0.  1.
    9000005    2    1    2  501    0  0.40000941093E+02 -0.15402423554E+02 -0.23842587186E+02  0.47294088042E+03  0.47039057969E+03 0.  0.
         13    1    3    3    0    0  0.67602895937E+01 -0.12215588465E+03 -0.21737139317E+03  0.24943553123E+03  0.00000000000E+00 0.  1.
          1    1    3    3  501    0  0.33240651500E+02  0.10675346110E+03  0.19352880599E+03  0.22350534919E+03  0.00000000000E+00 0.  1.
         21    1    1    2  502  501 -0.40000941093E+02  0.15402423554E+02 -0.93456801486E+01  0.43870852250E+02  0.00000000000E+00 0.  1.
<scales pt_clust_4="550.00000" pt_clust_5="550.00000" pt_clust_6="42.86387"></scales>
<mgrwt>
<rscale>  0 0.30000000E+03</rscale>
<asrwt>  1 0.42863875E+02</asrwt>
<pdfrwt beam="1">  1        1 0.87931539E+00 0.30000000E+03</pdfrwt>
<pdfrwt beam="2">0</pdfrwt>
<totfact> 0.19385618E-04</totfact>
</mgrwt>
<clustering>
<clus scale="   42.864">  1  6  2 -1</clus>
<clus scale="  470.391">  4  5 -1 -1</clus>
<clus scale="  300.000">  1  4  2 -1</clus>
</clustering>
</event>
<event>
 6    1  0.9678510E-012  0.3000000E+03  0.7818608E-02  0.1093470E+00
          1   -1    0    0  502    0  0.00000000000E+00  0.00000000000E+00  0.23097866651E+03  0.23097866651E+03  0.00000000000E+00 0.  1.
         13   -1    0    0    0    0 -0.00000000000E+00 -0.00000000000E+00 -0.27500000000E+03  0.27500000000E+03  0.00000000000E+00 0.  1.
    9000005    2    1    2  501    0  0.39671544630E+01 -0.32015969828E+02 -0.68789866375E+02  0.46530630661E+03  0.45906116435E+03 0.  0.
         13    1    3    3    0    0 -0.22223845716E+03 -0.25751109737E+02  0.14446052597E+02  0.22419130208E+03  0.00000000000E+00 0.  1.
          1    1    3    3  501    0  0.22620561162E+03 -0.62648600908E+01 -0.83235918972E+02  0.24111500453E+03  0.00000000000E+00 0.  1.
         21    1    1    2  502  501 -0.39671544630E+01  0.32015969828E+02  0.24768532884E+02  0.40672359899E+02  0.00000000000E+00 0. -1.
<scales pt_clust_4="550.00000" pt_clust_5="550.00000" pt_clust_6="32.26082"></scales>
<mgrwt>
<rscale>  0 0.30000000E+03</rscale>
<asrwt>  1 0.32260822E+02</asrwt>
<pdfrwt beam="1">  1        1 0.83992242E+00 0.30000000E+03</pdfrwt>
<pdfrwt beam="2">0</pdfrwt>
<totfact> 0.50542594E-04</totfact>
</mgrwt>
<clustering>
<clus scale="   32.261">  1  6  2 -1</clus>
<clus scale="  459.061">  4  5 -1 -1</clus>
<clus scale="  300.000">  1  4  2 -1</clus>
</clustering>
</event>
<event>
 6    1  0.9678510E-012  0.3000000E+03  0.7818608E-02  0.1093470E+00
          1   -1    0    0  502    0  0.00000000000E+00  0.00000000000E+00  0.23225107798E+03  0.23225107798E+03  0.00000000000E+00 0.  1.
         13   -1    0    0    0    0 -0.00000000000E+00 -0.00000000000E+00 -0.27500000000E+03  0.27500000000E+03  0.00000000000E+00 0.  1.
    9000005    2    1    2  501    0  0.43100848049E+02 -0.59931649412E+01 -0.47038331132E+02  0.46352465394E+03  0.45907395819E+03 0.  0.
         13    1    3    3    0    0 -0.63600674508E+02 -0.21600962420E+03 -0.32467295873E+02  0.22750676660E+03  0.00000000000E+00 0.  1.
          1    1    3    3  501    0  0.10670152256E+03  0.21001645926E+03 -0.14571035258E+02  0.23601788734E+03  0.00000000000E+00 0.  1.
         21    1    1    2  502  501 -0.43100848049E+02  0.59931649412E+01  0.42894091073E+01  0.43726424037E+02  0.00000000000E+00 0. -1.
<scales pt_clust_4="550.00000" pt_clust_5="550.00000" pt_clust_6="43.51553"></scales>
<mgrwt>
<rscale>  0 0.30000000E+03</rscale>
<asrwt>  1 0.43515527E+02</asrwt>
<pdfrwt beam="1">  1        1 0.84454937E+00 0.30000000E+03</pdfrwt>
<pdfrwt beam="2">0</pdfrwt>
<totfact> 0.43808022E-04</totfact>
</mgrwt>
<clustering>
<clus scale="   43.516">  1  6  2 -1</clus>
<clus scale="  459.074">  4  5 -1 -1</clus>
<clus scale="  300.000">  1  4  2 -1</clus>
</clustering>
</event>
<event>
 6    1  0.9678510E-012  0.3000000E+03  0.7818608E-02  0.1093470E+00
          1   -1    0    0  502    0  0.00000000000E+00  0.00000000000E+00  0.24244148960E+03  0.24244148960E+03  0.00000000000E+00 0.  1.
         13   -1    0    0    0    0 -0.00000000000E+00 -0.00000000000E+00 -0.27500000000E+03  0.27500000000E+03  0.00000000000E+00 0.  1.
    9000005    2    1    2  501    0  0.10005138499E+02 -0.29687281800E+02 -0.60217414255E+02  0.47565091100E+03  0.47078255560E+03 0.  0.
         13    1    3    3    0    0  0.12754837269E+03  0.15501795996E+03 -0.13767219314E+03  0.24341895582E+03  0.00000000000E+00 0.  1.
          1    1    3    3  501    0 -0.11754323419E+03 -0.18470524176E+03  0.77454778889E+02  0.23223195519E+03  0.00000000000E+00 0.  1.
         21    1    1    2  502  501 -0.10005138499E+02  0.29687281800E+02  0.27658903851E+02  0.41790578596E+02  0.00000000000E+00 0.  1.
<scales pt_clust_4="550.00000" pt_clust_5="550.00000" pt_clust_6="31.32790"></scales>
<mgrwt>
<rscale>  0 0.30000000E+03</rscale>
<asrwt>  1 0.31327903E+02</asrwt>
<pdfrwt beam="1">  1        1 0.88160542E+00 0.30000000E+03</pdfrwt>
<pdfrwt beam="2">0</pdfrwt>
<totfact> 0.19236762E-04</totfact>
</mgrwt>
<clustering>
<clus scale="   31.328">  1  6  2 -1</clus>
<clus scale="  470.783">  4  5 -1 -1</clus>
<clus scale="  300.000">  1  4  2 -1</clus>
</clustering>
</event>
<event>
 6    1  0.9678510E-012  0.3000000E+03  0.7818608E-02  0.1093470E+00
          1   -1    0    0  502    0  0.00000000000E+00  0.00000000000E+00  0.23663340270E+03  0.23663340270E+03  0.00000000000E+00 0.  1.
         13   -1    0    0    0    0 -0.00000000000E+00 -0.00000000000E+00 -0.27500000000E+03  0.27500000000E+03  0.00000000000E+00 0.  1.
    9000005    2    1    2  501    0 -0.28802109710E-01  0.32830126448E+02 -0.60248838831E+02  0.47217899196E+03  0.46716727180E+03 0.  0.
         13    1    3    3    0    0  0.12078346320E+03  0.68130206214E+02  0.16415430615E+03  0.21488835755E+03  0.00000000000E+00 0.  1.
          3    1    3    3  501    0 -0.12081226531E+03 -0.35300079766E+02 -0.22440314498E+03  0.25729063442E+03  0.00000000000E+00 0.  1.
         21    1    1    2  502  501  0.28802109710E-01 -0.32830126448E+02  0.21882241527E+02  0.39454410734E+02  0.00000000000E+00 0.  1.
<scales pt_clust_4="550.00000" pt_clust_5="550.00000" pt_clust_6="32.83014"></scales>
<mgrwt>
<rscale>  0 0.30000000E+03</rscale>
<asrwt>  1 0.32830139E+02</asrwt>
<pdfrwt beam="1">  1        1 0.86048510E+00 0.30000000E+03</pdfrwt>
<pdfrwt beam="2">0</pdfrwt>
<totfact> 0.32349580E-04</totfact>
</mgrwt>
<clustering>
<clus scale="   32.830">  1  6  2 -1</clus>
<clus scale="  467.167">  4  5 -1 -1</clus>
<clus scale="  300.000">  1  4  2 -1</clus>
</clustering>
</event>
<event>
 6    1  0.9678510E-012  0.3000000E+03  0.7818608E-02  0.1093470E+00
          1   -1    0    0  502    0  0.00000000000E+00  0.00000000000E+00  0.23775162699E+03  0.23775162699E+03  0.00000000000E+00 0.  1.
         13   -1    0    0    0    0 -0.00000000000E+00 -0.00000000000E+00 -0.27500000000E+03  0.27500000000E+03  0.00000000000E+00 0.  1.
    9000005    2    1    2  501    0  0.14699827752E+02 -0.30940404354E+02 -0.25766499519E+02  0.47662370183E+03  0.47469237101E+03 0.  0.
         13    1    3    3    0    0  0.52553923728E+02  0.10177125617E+03  0.18920108513E+03  0.22117041868E+03  0.00000000000E+00 0.  1.
          3    1    3    3  501    0 -0.37854095976E+02 -0.13271166053E+03 -0.21496758465E+03  0.25545328315E+03  0.00000000000E+00 0.  1.
         21    1    1    2  502  501 -0.14699827752E+02  0.30940404354E+02 -0.11481873490E+02  0.36127925160E+02  0.00000000000E+00 0. -1.
<scales pt_clust_4="550.00000" pt_clust_5="550.00000" pt_clust_6="34.25485"></scales>
<mgrwt>
<rscale>  0 0.30000000E+03</rscale>
<asrwt>  1 0.34254850E+02</asrwt>
<pdfrwt beam="1">  1        1 0.86455137E+00 0.30000000E+03</pdfrwt>
<pdfrwt beam="2">0</pdfrwt>
<totfact> 0.29006677E-04</totfact>
</mgrwt>
<clustering>
<clus scale="   34.255">  1  6  2 -1</clus>
<clus scale="  474.692">  4  5 -1 -1</clus>
<clus scale="  300.000">  1  4  2 -1</clus>
</clustering>
</event>
<event>
 6    1  0.9678510E-012  0.3000000E+03  0.7818608E-02  0.1093470E+00
          1   -1    0    0  502    0  0.00000000000E+00  0.00000000000E+00  0.25716536263E+03  0.25716536263E+03  0.00000000000E+00 0.  1.
         13   -1    0    0    0    0 -0.00000000000E+00 -0.00000000000E+00 -0.27500000000E+03  0.27500000000E+03  0.00000000000E+00 0.  1.
    9000005    2    1    2  501    0 -0.31519596923E+02 -0.18534371622E+02 -0.72468316192E+02  0.46642460827E+03  0.45930735943E+03 0.  0.
         13    1    3    3    0    0 -0.24315477036E+03  0.21095509345E+02 -0.56481164247E+02  0.25051823243E+03  0.00000000000E+00 0.  1.
          1    1    3    3  501    0  0.21163517344E+03 -0.39629880967E+02 -0.15987151945E+02  0.21590637584E+03  0.00000000000E+00 0.  1.
         21    1    1    2  502  501  0.31519596923E+02  0.18534371622E+02  0.54633678827E+02  0.65740754360E+02  0.00000000000E+00 0. -1.
<scales pt_clust_4="550.00000" pt_clust_5="550.00000" pt_clust_6="36.56512"></scales>
<mgrwt>
<rscale>  0 0.30000000E+03</rscale>
<asrwt>  1 0.36565119E+02</asrwt>
<pdfrwt beam="1">  1        1 0.93514677E+00 0.30000000E+03</pdfrwt>
<pdfrwt beam="2">0</pdfrwt>
<totfact> 0.22250812E-05</totfact>
</mgrwt>
<clustering>
<clus scale="   36.565">  1  6  2 -1</clus>
<clus scale="  459.307">  4  5 -1 -1</clus>
<clus scale="  300.000">  1  4  2 -1</clus>
</clustering>
</event>
<event>
 6    1  0.9678510E-012  0.3000000E+03  0.7818608E-02  0.1093470E+00
          1   -1    0    0  502    0  0.00000000000E+00  0.00000000000E+00  0.24007417421E+03  0.24007417421E+03  0.00000000000E+00 0.  1.
         13   -1    0    0    0    0 -0.00000000000E+00 -0.00000000000E+00 -0.27500000000E+03  0.27500000000E+03  0.00000000000E+00 0.  1.
    9000005    2    1    2  501    0  0.19826883975E+02  0.39704331740E+02 -0.55331853349E+02  0.46622803569E+03  0.46080085502E+03 0.  0.
         13    1    3    3    0    0  0.19779441802E+03  0.10361768079E+03  0.76142999788E+02  0.23591738382E+03  0.00000000000E+00 0.  1.
          3    1    3    3  501    0 -0.17796753404E+03 -0.63913349054E+02 -0.13147485314E+03  0.23031065188E+03  0.00000000000E+00 0.  1.
         21    1    1    2  502  501 -0.19826883975E+02 -0.39704331740E+02  0.20406027556E+02  0.48846138513E+02  0.00000000000E+00 0.  1.
<scales pt_clust_4="550.00000" pt_clust_5="550.00000" pt_clust_6="44.37949"></scales>
<mgrwt>
<rscale>  0 0.30000000E+03</rscale>
<asrwt>  1 0.44379492E+02</asrwt>
<pdfrwt beam="1">  1        1 0.87299700E+00 0.30000000E+03</pdfrwt>
<pdfrwt beam="2">0</pdfrwt>
<totfact> 0.22596235E-04</totfact>
</mgrwt>
<clustering>
<clus scale="   44.379">  1  6  2 -1</clus>
<clus scale="  460.801">  4  5 -1 -1</clus>
<clus scale="  300.000">  1  4  2 -1</clus>
</clustering>
</event>
<event>
 6    1  0.9678510E-012  0.3000000E+03  0.7818608E-02  0.1093470E+00
          1   -1    0    0  502    0  0.00000000000E+00  0.00000000000E+00  0.23460158141E+03  0.23460158141E+03  0.00000000000E+00 0.  1.
         13   -1    0    0    0    0 -0.00000000000E+00 -0.00000000000E+00 -0.27500000000E+03  0.27500000000E+03  0.00000000000E+00 0.  1.
    9000005    2    1    2  501    0  0.11533398532E+02  0.31344762011E+02 -0.72563544247E+02  0.46323231685E+03  0.45629288624E+03 0.  0.
         13    1    3    3    0    0 -0.18165206060E+03  0.92767561713E+02 -0.14247339823E+03  0.24880104668E+03  0.00000000000E+00 0.  1.
          1    1    3    3  501    0  0.19318545913E+03 -0.61422799702E+02  0.69909853988E+02  0.21443127017E+03  0.00000000000E+00 0.  1.
         21    1    1    2  502  501 -0.11533398532E+02 -0.31344762011E+02  0.32165125659E+02  0.46369264561E+02  0.00000000000E+00 0. -1.
<scales pt_clust_4="550.00000" pt_clust_5="550.00000" pt_clust_6="33.39930"></scales>
<mgrwt>
<rscale>  0 0.30000000E+03</rscale>
<asrwt>  1 0.33399302E+02</asrwt>
<pdfrwt beam="1">  1        1 0.85309666E+00 0.30000000E+03</pdfrwt>
<pdfrwt beam="2">0</pdfrwt>
<totfact> 0.38360761E-04</totfact>
</mgrwt>
<clustering>
<clus scale="   33.399">  1  6  2 -1</clus>
<clus scale="  456.293">  4  5 -1 -1</clus>
<clus scale="  300.000">  1  4  2 -1</clus>
</clustering>
</event>
<event>
 6    1  0.9678510E-012  0.3000000E+03  0.7818608E-02  0.1093470E+00
          1   -1    0    0  502    0  0.00000000000E+00  0.00000000000E+00  0.22649378020E+03  0.22649378020E+03  0.00000000000E+00 0.  1.
         13   -1    0    0    0    0 -0.00000000000E+00 -0.00000000000E+00 -0.27500000000E+03  0.27500000000E+03  0.00000000000E+00 0.  1.
    9000005    2    1    2  501    0  0.14652840671E+02 -0.29570523085E+02 -0.59486130019E+02  0.46671332586E+03  0.46172893271E+03 0.  0.
         13    1    3    3    0    0 -0.53169860264E+02  0.19609998517E+03  0.46342007358E+02  0.20839822425E+03  0.00000000000E+00 0.  1.
          1    1    3    3  501    0  0.67822700935E+02 -0.22567050826E+03 -0.10582813738E+03  0.25831510161E+03  0.00000000000E+00 0.  1.
         21    1    1    2  502  501 -0.14652840671E+02  0.29570523085E+02  0.10979910216E+02  0.34780454333E+02  0.00000000000E+00 0.  1.
<scales pt_clust_4="550.00000" pt_clust_5="550.00000" pt_clust_6="33.00184"></scales>
<mgrwt>
<rscale>  0 0.30000000E+03</rscale>
<asrwt>  1 0.33001842E+02</asrwt>
<pdfrwt beam="1">  1        1 0.82361375E+00 0.30000000E+03</pdfrwt>
<pdfrwt beam="2">0</pdfrwt>
<totfact> 0.67953813E-04</totfact>
</mgrwt>
<clustering>
<clus scale="   33.002">  1  6  2 -1</clus>
<clus scale="  461.729">  4  5 -1 -1</clus>
<clus scale="  300.000">  1  4  2 -1</clus>
</clustering>
</event>
<event>
 6    1  0.9678510E-012  0.3000000E+03  0.7818608E-02  0.1093470E+00
          1   -1    0    0  502    0  0.00000000000E+00  0.00000000000E+00  0.23110818237E+03  0.23110818237E+03  0.00000000000E+00 0.  1.
         13   -1    0    0    0    0 -0.00000000000E+00 -0.00000000000E+00 -0.27500000000E+03  0.27500000000E+03  0.00000000000E+00 0.  1.
    9000005    2    1    2  501    0 -0.16584228781E+02  0.25406124165E+02 -0.60954487495E+02  0.47129952695E+03  0.46635532244E+03 0.  0.
         13    1    3    3    0    0 -0.48079811417E+02  0.19473465039E+03  0.10988455330E+03  0.22870913270E+03  0.00000000000E+00 0.  1.
          3    1    3    3  501    0  0.31495582636E+02 -0.16932852623E+03 -0.17083904079E+03  0.24259039424E+03  0.00000000000E+00 0.  1.
         21    1    1    2  502  501  0.16584228781E+02 -0.25406124165E+02  0.17062669862E+02  0.34808655420E+02  0.00000000000E+00 0. -1.
<scales pt_clust_4="550.00000" pt_clust_5="550.00000" pt_clust_6="30.33987"></scales>
<mgrwt>
<rscale>  0 0.30000000E+03</rscale>
<asrwt>  1 0.30339871E+02</asrwt>
<pdfrwt beam="1">  1        1 0.84039339E+00 0.30000000E+03</pdfrwt>
<pdfrwt beam="2">0</pdfrwt>
<totfact> 0.50713101E-04</totfact>
</mgrwt>
<clustering>
<clus scale="   30.340">  1  6  2 -1</clus>
<clus scale="  466.355">  4  5 -1 -1</clus>
<clus scale="  300.000">  1  4  2 -1</clus>
</clustering>
</event>
<event>
 6    1  0.9678510E-012  0.3000000E+03  0.7818608E-02  0.1093470E+00
          1   -1    0    0  502    0  0.00000000000E+00  0.00000000000E+00  0.23205514317E+03  0.23205514317E+03  0.00000000000E+00 0.  1.
         13   -1    0    0    0    0 -0.00000000000E+00 -0.00000000000E+00 -0.27500000000E+03  0.27500000000E+03  0.00000000000E+00 0.  1.
    9000005    2    1    2  501    0  0.15993601570E+02 -0.33297936805E+02 -0.50471503853E+02  0.46935635934E+03  0.46517036822E+03 0.  0.
         13    1    3    3    0    0 -0.19456636488E+03  0.79088035143E+02  0.40565943060E+02  0.21390788527E+03  0.00000000000E+00 0.  1.
          1    1    3    3  501    0  0.21055996645E+03 -0.11238597195E+03 -0.91037446914E+02  0.25544847407E+03  0.00000000000E+00 0.  1.
         21    1    1    2  502  501 -0.15993601570E+02  0.33297936805E+02  0.75266470242E+01  0.37698783828E+02  0.00000000000E+00 0.  1.
<scales pt_clust_4="550.00000" pt_clust_5="550.00000" pt_clust_6="36.93979"></scales>
<mgrwt>
<rscale>  0 0.30000000E+03</rscale>
<asrwt>  1 0.36939787E+02</asrwt>
<pdfrwt beam="1">  1        1 0.84383688E+00 0.30000000E+03</pdfrwt>
<pdfrwt beam="2">0</pdfrwt>
<totfact> 0.45779385E-04</totfact>
</mgrwt>
<clustering>
<clus scale="   36.940">  1  6  2 -1</clus>
<clus scale="  465.170">  4  5 -1 -1</clus>
<clus scale="  300.000">  1  4  2 -1</clus>
</clustering>
</event>
<event>
 6    1  0.9678510E-012  0.3000000E+03  0.7818608E-02  0.1093470E+00
          1   -1    0    0  502    0  0.00000000000E+00  0.00000000000E+00  0.23184774158E+03  0.23184774158E+03  0.00000000000E+00 0.  1.
         13   -1    0    0    0    0 -0.00000000000E+00 -0.00000000000E+00 -0.27500000000E+03  0.27500000000E+03  0.00000000000E+00 0.  1.
    9000005    2    1    2  501    0 -0.27529580049E+02  0.13054422368E+02 -0.54283041549E+02  0.47441026242E+03  0.47030857187E+03 0.  0.
         13    1    3    3    0    0 -0.20677185259E+03 -0.12610541342E+03 -0.50797542127E+02  0.24746224884E+03  0.00000000000E+00 0.  1.
          1    1    3    3  501    0  0.17924227254E+03  0.13915983579E+03 -0.34854994225E+01  0.22694801358E+03  0.00000000000E+00 0.  1.
         21    1    1    2  502  501  0.27529580049E+02 -0.13054422368E+02  0.11130783130E+02  0.32437479158E+02  0.00000000000E+00 0.  1.
<scales pt_clust_4="550.00000" pt_clust_5="550.00000" pt_clust_6="30.46795"></scales>
<mgrwt>
<rscale>  0 0.30000000E+03</rscale>
<asrwt>  1 0.30467946E+02</asrwt>
<pdfrwt beam="1">  1        1 0.84308270E+00 0.30000000E+03</pdfrwt>
<pdfrwt beam="2">0</pdfrwt>
<totfact> 0.48178584E-04</totfact>
</mgrwt>
<clustering>
<clus scale="   30.468">  1  6  2 -1</clus>
<clus scale="  470.309">  4  5 -1 -1</clus>
<clus scale="  300.000">  1  4  2 -1</clus>
</clustering>
</event>
<event>
 6    1  0.9678510E-012  0.3000000E+03  0.7818608E-02  0.1093470E+00
          1   -1    0    0  502    0  0.00000000000E+00  0.00000000000E+00  0.23208608484E+03  0.23208608484E+03  0.00000000000E+00 0.  1.
         13   -1    0    0    0    0 -0.00000000000E+00 -0.00000000000E+00 -0.27500000000E+03  0.27500000000E+03  0.00000000000E+00 0.  1.
    9000005    2    1    2  501    0 -0.29827564687E+02 -0.75447499012E+01 -0.51439548875E+02  0.47515971179E+03  0.47136410306E+03 0.  0.
         13    1    3    3    0    0 -0.14077695410E+03  0.99016165600E+02 -0.19823426208E+03  0.26252461697E+03  0.00000000000E+00 0.  1.
          3    1    3    3  501    0  0.11094938941E+03 -0.10656091550E+03  0.14679471320E+03  0.21263509482E+03  0.00000000000E+00 0.  1.
         21    1    1    2  502  501  0.29827564687E+02  0.75447499012E+01  0.85256337190E+01  0.31926373056E+02  0.00000000000E+00 0.  1.
<scales pt_clust_4="550.00000" pt_clust_5="550.00000" pt_clust_6="30.76698"></scales>
<mgrwt>
<rscale>  0 0.30000000E+03</rscale>
<asrwt>  1 0.30766977E+02</asrwt>
<pdfrwt beam="1">  1        1 0.84394940E+00 0.30000000E+03</pdfrwt>
<pdfrwt beam="2">0</pdfrwt>
<totfact> 0.47278581E-04</totfact>
</mgrwt>
<clustering>
<clus scale="   30.767">  1  6  2 -1</clus>
<clus scale="  471.364">  4  5 -1 -1</clus>
<clus scale="  300.000">  1  4  2 -1</clus>
</clustering>
</event>
<event>
 6    1  0.9678510E-012  0.3000000E+03  0.7818608E-02  0.1093470E+00
          1   -1    0    0  502    0  0.00000000000E+00  0.00000000000E+00  0.22239404941E+03  0.22239404941E+03  0.00000000000E+00 0.  1.
         13   -1    0    0    0    0 -0.00000000000E+00 -0.00000000000E+00 -0.27500000000E+03  0.27500000000E+03  0.00000000000E+00 0.  1.
    9000005    2    1    2  501    0  0.30504860252E+02 -0.12421882011E+02 -0.48464251879E+02  0.46419761406E+03  0.46048430107E+03 0.  0.
         13    1    3    3    0    0 -0.24278715137E+02 -0.12308280362E+03 -0.21975273490E+03  0.25304169034E+03  0.00000000000E+00 0.  1.
          3    1    3    3  501    0  0.54783575389E+02  0.11066092161E+03  0.17128848302E+03  0.21115592371E+03  0.00000000000E+00 0.  1.
         21    1    1    2  502  501 -0.30504860252E+02  0.12421882011E+02 -0.41416987126E+01  0.33196435350E+02  0.00000000000E+00 0. -1.
<scales pt_clust_4="550.00000" pt_clust_5="550.00000" pt_clust_6="32.93707"></scales>
<mgrwt>
<rscale>  0 0.30000000E+03</rscale>
<asrwt>  1 0.32937072E+02</asrwt>
<pdfrwt beam="1">  1        1 0.80870563E+00 0.30000000E+03</pdfrwt>
<pdfrwt beam="2">0</pdfrwt>
<totfact> 0.90283205E-04</totfact>
</mgrwt>
<clustering>
<clus scale="   32.937">  1  6  2 -1</clus>
<clus scale="  460.484">  4  5 -1 -1</clus>
<clus scale="  300.000">  1  4  2 -1</clus>
</clustering>
</event>
<event>
 6    1  0.9678510E-012  0.3000000E+03  0.7818608E-02  0.1093470E+00
          1   -1    0    0  502    0  0.00000000000E+00  0.00000000000E+00  0.22688245622E+03  0.22688245622E+03  0.00000000000E+00 0.  1.
         13   -1    0    0    0    0 -0.00000000000E+00 -0.00000000000E+00 -0.27500000000E+03  0.27500000000E+03  0.00000000000E+00 0.  1.
    9000005    2    1    2  501    0 -0.27296793078E+02 -0.12575724767E+02 -0.34326326102E+02  0.46881492757E+03  0.46658962256E+03 0.  0.
         13    1    3    3    0    0 -0.18674517202E+03  0.36181885164E+02  0.13338462835E+03  0.23232379810E+03  0.00000000000E+00 0.  1.
          1    1    3    3  501    0  0.15944837894E+03 -0.48757609931E+02 -0.16771095445E+03  0.23649112946E+03  0.00000000000E+00 0.  1.
         21    1    1    2  502  501  0.27296793078E+02  0.12575724767E+02 -0.13791217682E+02  0.33067528649E+02  0.00000000000E+00 0. -1.
<scales pt_clust_4="550.00000" pt_clust_5="550.00000" pt_clust_6="30.05436"></scales>
<mgrwt>
<rscale>  0 0.30000000E+03</rscale>
<asrwt>  1 0.30054362E+02</asrwt>
<pdfrwt beam="1">  1        1 0.82502711E+00 0.30000000E+03</pdfrwt>
<pdfrwt beam="2">0</pdfrwt>
<totfact> 0.67195400E-04</totfact>
</mgrwt>
<clustering>
<clus scale="   30.054">  1  6  2 -1</clus>
<clus scale="  466.590">  4  5 -1 -1</clus>
<clus scale="  300.000">  1  4  2 -1</clus>
</clustering>
</event>
<event>
 6    1  0.9678510E-012  0.3000000E+03  0.7818608E-02  0.1093470E+00
          1   -1    0    0  502    0  0.00000000000E+00  0.00000000000E+00  0.23010415136E+03  0.23010415136E+03  0.00000000000E+00 0.  1.
         13   -1    0    0    0    0 -0.00000000000E+00 -0.00000000000E+00 -0.27500000000E+03  0.27500000000E+03  0.00000000000E+00 0.  1.
    9000005    2    1    2  501    0  0.34104477343E+02 -0.11717169293E+02 -0.54182684161E+02  0.46786636484E+03  0.46331713183E+03 0.  0.
         13    1    3    3    0    0  0.14669101710E+03  0.18230717611E+03 -0.66324766912E+02  0.24321417652E+03  0.00000000000E+00 0.  1.
          3    1    3    3  501    0 -0.11258653975E+03 -0.19402434540E+03  0.12142082751E+02  0.22465218831E+03  0.00000000000E+00 0.  1.
         21    1    1    2  502  501 -0.34104477343E+02  0.11717169293E+02  0.92868355209E+01  0.37237786523E+02  0.00000000000E+00 0.  1.
<scales pt_clust_4="550.00000" pt_clust_5="550.00000" pt_clust_6="36.06116"></scales>
<mgrwt>
<rscale>  0 0.30000000E+03</rscale>
<asrwt>  1 0.36061162E+02</asrwt>
<pdfrwt beam="1">  1        1 0.83674237E+00 0.30000000E+03</pdfrwt>
<pdfrwt beam="2">0</pdfrwt>
<totfact> 0.52252972E-04</totfact>
</mgrwt>
<clustering>
<clus scale="   36.061">  1  6  2 -1</clus>
<clus scale="  463.317">  4  5 -1 -1</clus>
<clus scale="  300.000">  1  4  2 -1</clus>
</clustering>
</event>
<event>
 6    1  0.9678510E-012  0.3000000E+03  0.7818608E-02  0.1093470E+00
          1   -1    0    0  502    0  0.00000000000E+00  0.00000000000E+00  0.23297471878E+03  0.23297471878E+03  0.00000000000E+00 0.  1.
         13   -1    0    0    0    0 -0.00000000000E+00 -0.00000000000E+00 -0.27500000000E+03  0.27500000000E+03  0.00000000000E+00 0.  1.
    9000005    2    1    2  501    0 -0.40946559420E+02 -0.18742516475E+02 -0.40584128526E+02  0.46291942416E+03  0.45893291353E+03 0.  0.
         13    1    3    3    0    0 -0.10855554775E+03 -0.13981981229E+03  0.14668696755E+03  0.22989335203E+03  0.00000000000E+00 0.  1.
          1    1    3    3  501    0  0.67608988332E+02  0.12107729582E+03 -0.18727109608E+03  0.23302607213E+03  0.00000000000E+00 0.  1.
         21    1    1    2  502  501  0.40946559420E+02  0.18742516475E+02 -0.14411526982E+01  0.45055294620E+02  0.00000000000E+00 0. -1.
<scales pt_clust_4="550.00000" pt_clust_5="550.00000" pt_clust_6="45.03224"></scales>
<mgrwt>
<rscale>  0 0.30000000E+03</rscale>
<asrwt>  1 0.45032240E+02</asrwt>
<pdfrwt beam="1">  1        1 0.84718080E+00 0.30000000E+03</pdfrwt>
<pdfrwt beam="2">0</pdfrwt>
<totfact> 0.41263659E-04</totfact>
</mgrwt>
<clustering>
<clus scale="   45.032">  1  6  2 -1</clus>
<clus scale="  458.933">  4  5 -1 -1</clus>
<clus scale="  300.000">  1  4  2 -1</clus>
</clustering>
</event>
<event>
 6    1  0.9678510E-012  0.3000000E+03  0.7818608E-02  0.1093470E+00
          1   -1    0    0  502    0  0.00000000000E+00  0.00000000000E+00  0.24966475528E+03  0.24966475528E+03  0.00000000000E+00 0.  1.
         13   -1    0    0    0    0 -0.00000000000E+00 -0.00000000000E+00 -0.27500000000E+03  0.27500000000E+03  0.00000000000E+00 0.  1.
    9000005    2    1    2  501    0  0.79113177018E+01  0.36678709288E+02 -0.43643843952E+02  0.48291404907E+03  0.47947187302E+03 0.  0.
         13    1    3    3    0    0  0.18918609242E+03 -0.12679314872E+03 -0.67802950732E+02  0.23762390506E+03  0.00000000000E+00 0.  1.
          1    1    3    3  501    0 -0.18127477472E+03  0.16347185801E+03  0.24159106780E+02  0.24529014401E+03  0.00000000000E+00 0.  1.
         21    1    1    2  502  501 -0.79113177018E+01 -0.36678709288E+02  0.18308599228E+02  0.41750706204E+02  0.00000000000E+00 0.  1.
<scales pt_clust_4="550.00000" pt_clust_5="550.00000" pt_clust_6="37.52222"></scales>
<mgrwt>
<rscale>  0 0.30000000E+03</rscale>
<asrwt>  1 0.37522216E+02</asrwt>
<pdfrwt beam="1">  1        1 0.90787184E+00 0.30000000E+03</pdfrwt>
<pdfrwt beam="2">0</pdfrwt>
<totfact> 0.79573199E-05</totfact>
</mgrwt>
<clustering>
<clus scale="   37.522">  1  6  2 -1</clus>
<clus scale="  479.472">  4  5 -1 -1</clus>
<clus scale="  300.000">  1  4  2 -1</clus>
</clustering>
</event>
<event>
 6    1  0.9678510E-012  0.3000000E+03  0.7818608E-02  0.1093470E+00
          1   -1    0    0  502    0  0.00000000000E+00  0.00000000000E+00  0.26541434702E+03  0.26541434702E+03  0.00000000000E+00 0.  1.
         13   -1    0    0    0    0 -0.00000000000E+00 -0.00000000000E+00 -0.27500000000E+03  0.27500000000E+03  0.00000000000E+00 0.  1.
    9000005    2    1    2  501    0 -0.43854929671E+01  0.37640933052E+02 -0.65216291118E+02  0.47310283026E+03  0.46705144361E+03 0.  0.
         13    1    3    3    0    0 -0.53775168140E+02  0.12233314692E+03 -0.23885647368E+03  0.27369615007E+03  0.00000000000E+00 0.  1.
          3    1    3    3  501    0  0.49389675173E+02 -0.84692213870E+02  0.17364018256E+03  0.19940668019E+03  0.00000000000E+00 0.  1.
         21    1    1    2  502  501  0.43854929671E+01 -0.37640933052E+02  0.55630638143E+02  0.67311516769E+02  0.00000000000E+00 0.  1.
<scales pt_clust_4="550.00000" pt_clust_5="550.00000" pt_clust_6="37.89555"></scales>
<mgrwt>
<rscale>  0 0.30000000E+03</rscale>
<asrwt>  1 0.37895546E+02</asrwt>
<pdfrwt beam="1">  1        1 0.96514308E+00 0.30000000E+03</pdfrwt>
<pdfrwt beam="2">0</pdfrwt>
<totfact> 0.58314498E-06</totfact>
</mgrwt>
<clustering>
<clus scale="   37.896">  1  6  2 -1</clus>
<clus scale="  467.051">  4  5 -1 -1</clus>
<clus scale="  300.000">  1  4  2 -1</clus>
</clustering>
</event>
<event>
 6    1  0.9678510E-012  0.3000000E+03  0.7818608E-02  0.1093470E+00
          1   -1    0    0  502    0  0.00000000000E+00  0.00000000000E+00  0.24248161887E+03  0.24248161887E+03  0.00000000000E+00 0.  1.
         13   -1    0    0    0    0 -0.00000000000E+00 -0.00000000000E+00 -0.27500000000E+03  0.27500000000E+03  0.00000000000E+00 0.  1.
    9000005    2    1    2  501    0 -0.27550747922E+02 -0.14521687056E+02 -0.51492552197E+02  0.48101324526E+03  0.47723404749E+03 0.  0.
         13    1    3    3    0    0 -0.19294772238E+03  0.37826078793E+02 -0.17885467532E+03  0.26579810138E+03  0.00000000000E+00 0.  1.
          3    1    3    3  501    0  0.16539697446E+03 -0.52347765849E+02  0.12736212313E+03  0.21521514389E+03  0.00000000000E+00 0.  1.
         21    1    1    2  502  501  0.27550747922E+02  0.14521687056E+02  0.18974171070E+02  0.36468373611E+02  0.00000000000E+00 0. -1.
<scales pt_clust_4="550.00000" pt_clust_5="550.00000" pt_clust_6="31.14359"></scales>
<mgrwt>
<rscale>  0 0.30000000E+03</rscale>
<asrwt>  1 0.31143589E+02</asrwt>
<pdfrwt beam="1">  1        1 0.88175134E+00 0.30000000E+03</pdfrwt>
<pdfrwt beam="2">0</pdfrwt>
<totfact> 0.19175017E-04</totfact>
</mgrwt>
<clustering>
<clus scale="   31.144">  1  6  2 -1</clus>
<clus scale="  477.234">  4  5 -1 -1</clus>
<clus scale="  300.000">  1  4  2 -1</clus>
</clustering>
</event>
<event>
 6    1  0.9678510E-012  0.3000000E+03  0.7818608E-02  0.1093470E+00
          1   -1    0    0  502    0  0.00000000000E+00  0.00000000000E+00  0.27189982666E+03  0.27189982666E+03  0.00000000000E+00 0.  1.
         13   -1    0    0    0    0 -0.00000000000E+00 -0.00000000000E+00 -0.27500000000E+03  0.27500000000E+03  0.00000000000E+00 0.  1.
    9000005    2    1    2  501    0  0.17666840173E+02 -0.52250634392E+02 -0.52495589570E+02  0.47285826279E+03  0.46668715831E+03 0.  0.
         13    1    3    3    0    0 -0.15972387840E+03  0.13577544453E+03 -0.44104836782E+02  0.21422400728E+03  0.00000000000E+00 0.  1.
          3    1    3    3  501    0  0.17739071857E+03 -0.18802607892E+03 -0.83907527877E+01  0.25863425551E+03  0.00000000000E+00 0.  1.
         21    1    1    2  502  501 -0.17666840173E+02  0.52250634392E+02  0.49395416235E+02  0.74041563875E+02  0.00000000000E+00 0.  1.
<scales pt_clust_4="550.00000" pt_clust_5="550.00000" pt_clust_6="55.15656"></scales>
<mgrwt>
<rscale>  0 0.30000000E+03</rscale>
<asrwt>  1 0.55156559E+02</asrwt>
<pdfrwt beam="1">  1        1 0.98872664E+00 0.30000000E+03</pdfrwt>
<pdfrwt beam="2">0</pdfrwt>
<totfact> 0.83964150E-07</totfact>
</mgrwt>
<clustering>
<clus scale="   55.157">  1  6  2 -1</clus>
<clus scale="  466.687">  4  5 -1 -1</clus>
<clus scale="  300.000">  1  4  2 -1</clus>
</clustering>
</event>
<event>
 6    1  0.9678510E-012  0.3000000E+03  0.7818608E-02  0.1093470E+00
          1   -1    0    0  502    0  0.00000000000E+00  0.00000000000E+00  0.23487815758E+03  0.23487815758E+03  0.00000000000E+00 0.  1.
         13   -1    0    0    0    0 -0.00000000000E+00 -0.00000000000E+00 -0.27500000000E+03  0.27500000000E+03  0.00000000000E+00 0.  1.
    9000005    2    1    2  501    0 -0.30141365440E+02  0.20858321127E+02 -0.59221703802E+02  0.46854565009E+03  0.46334031181E+03 0.  0.
         13    1    3    3    0    0 -0.16758254908E+03  0.17198279355E+03 -0.10020664863E+03  0.26019870188E+03  0.00000000000E+00 0.  1.
          1    1    3    3  501    0  0.13744118364E+03 -0.15112447242E+03  0.40984944830E+02  0.20834694821E+03  0.00000000000E+00 0.  1.
         21    1    1    2  502  501  0.30141365440E+02 -0.20858321127E+02  0.19099861385E+02  0.41332507494E+02  0.00000000000E+00 0.  1.
<scales pt_clust_4="550.00000" pt_clust_5="550.00000" pt_clust_6="36.65476"></scales>
<mgrwt>
<rscale>  0 0.30000000E+03</rscale>
<asrwt>  1 0.36654761E+02</asrwt>
<pdfrwt beam="1">  1        1 0.85410239E+00 0.30000000E+03</pdfrwt>
<pdfrwt beam="2">0</pdfrwt>
<totfact> 0.36862422E-04</totfact>
</mgrwt>
<clustering>
<clus scale="   36.655">  1  6  2 -1</clus>
<clus scale="  463.340">  4  5 -1 -1</clus>
<clus scale="  300.000">  1  4  2 -1</clus>
</clustering>
</event>
<event>
 6    1  0.9678510E-012  0.3000000E+03  0.7818608E-02  0.1093470E+00
          1   -1    0    0  502    0  0.00000000000E+00  0.00000000000E+00  0.24578520642E+03  0.24578520642E+03  0.00000000000E+00 0.  1.
         13   -1    0    0    0    0 -0.00000000000E+00 -0.00000000000E+00 -0.27500000000E+03  0.27500000000E+03  0.00000000000E+00 0.  1.
    9000005    2    1    2  501    0 -0.16672199827E+02  0.31300027661E+02 -0.65486069229E+01  0.47869708462E+03  0.47733673711E+03 0.  0.
         13    1    3    3    0    0 -0.22001965312E+03  0.12369852049E+03 -0.29678530550E+02  0.25414717568E+03  0.00000000000E+00 0.  1.
          1    1    3    3  501    0  0.20334745329E+03 -0.92398492829E+02  0.23129923627E+02  0.22454990894E+03  0.00000000000E+00 0.  1.
         21    1    1    2  502  501  0.16672199827E+02 -0.31300027661E+02 -0.22666186660E+02  0.42088121797E+02  0.00000000000E+00 0.  1.
<scales pt_clust_4="550.00000" pt_clust_5="550.00000" pt_clust_6="35.46344"></scales>
<mgrwt>
<rscale>  0 0.30000000E+03</rscale>
<asrwt>  1 0.35463435E+02</asrwt>
<pdfrwt beam="1">  1        1 0.89376439E+00 0.30000000E+03</pdfrwt>
<pdfrwt beam="2">0</pdfrwt>
<totfact> 0.12990991E-04</totfact>
</mgrwt>
<clustering>
<clus scale="   35.463">  1  6  2 -1</clus>
<clus scale="  477.337">  4  5 -1 -1</clus>
<clus scale="  300.000">  1  4  2 -1</clus>
</clustering>
</event>
<event>
 6    1  0.9678510E-012  0.3000000E+03  0.7818608E-02  0.1093470E+00
          1   -1    0    0  502    0  0.00000000000E+00  0.00000000000E+00  0.24442564084E+03  0.24442564084E+03  0.00000000000E+00 0.  1.
         13   -1    0    0    0    0 -0.00000000000E+00 -0.00000000000E+00 -0.27500000000E+03  0.27500000000E+03  0.00000000000E+00 0.  1.
    9000005    2    1    2  501    0  0.35297683943E+02  0.20784617881E+01 -0.18761084022E+02  0.48214561985E+03  0.48048119003E+03 0.  0.
         13    1    3    3    0    0 -0.92655636607E+02  0.86869928982E+02  0.18662106438E+03  0.22574072124E+03  0.00000000000E+00 0.  1.
          1    1    3    3  501    0  0.12795332055E+03 -0.84791467193E+02 -0.20538214840E+03  0.25640489861E+03  0.00000000000E+00 0.  1.
         21    1    1    2  502  501 -0.35297683943E+02 -0.20784617881E+01 -0.11813275141E+02  0.37280020986E+02  0.00000000000E+00 0.  1.
<scales pt_clust_4="550.00000" pt_clust_5="550.00000" pt_clust_6="35.35884"></scales>
<mgrwt>
<rscale>  0 0.30000000E+03</rscale>
<asrwt>  1 0.35358843E+02</asrwt>
<pdfrwt beam="1">  1        1 0.88882051E+00 0.30000000E+03</pdfrwt>
<pdfrwt beam="2">0</pdfrwt>
<totfact> 0.15007121E-04</totfact>
</mgrwt>
<clustering>
<clus scale="   35.359">  1  6  2 -1</clus>
<clus scale="  480.481">  4  5 -1 -1</clus>
<clus scale="  300.000">  1  4  2 -1</clus>
</clustering>
</event>
<event>
 6    1  0.9678510E-012  0.3000000E+03  0.7818608E-02  0.1093470E+00
          1   -1    0    0  502    0  0.00000000000E+00  0.00000000000E+00  0.24347414853E+03  0.24347414853E+03  0.00000000000E+00 0.  1.
         13   -1    0    0    0    0 -0.00000000000E+00 -0.00000000000E+00 -0.27500000000E+03  0.27500000000E+03  0.00000000000E+00 0.  1.
    9000005    2    1    2  501    0 -0.10645918332E+02  0.28654141861E+02 -0.26637299641E+02  0.48751783476E+03  0.48582887734E+03 0.  0.
         13    1    3    3    0    0 -0.15297768730E+03 -0.12391687455E+02 -0.20473004813E+03  0.25587129448E+03  0.00000000000E+00 0.  1.
          3    1    3    3  501    0  0.14233176897E+03  0.41045829316E+02  0.17809274849E+03  0.23164654028E+03  0.00000000000E+00 0.  1.
         21    1    1    2  502  501  0.10645918332E+02 -0.28654141861E+02 -0.48885518335E+01  0.30956313765E+02  0.00000000000E+00 0.  1.
<scales pt_clust_4="550.00000" pt_clust_5="550.00000" pt_clust_6="30.56790"></scales>
<mgrwt>
<rscale>  0 0.30000000E+03</rscale>
<asrwt>  1 0.30567897E+02</asrwt>
<pdfrwt beam="1">  1        1 0.88536054E+00 0.30000000E+03</pdfrwt>
<pdfrwt beam="2">0</pdfrwt>
<totfact> 0.17214487E-04</totfact>
</mgrwt>
<clustering>
<clus scale="   30.568">  1  6  2 -1</clus>
<clus scale="  485.829">  4  5 -1 -1</clus>
<clus scale="  300.000">  1  4  2 -1</clus>
</clustering>
</event>
<event>
 6    1  0.9678510E-012  0.3000000E+03  0.7818608E-02  0.1093470E+00
          1   -1    0    0  502    0  0.00000000000E+00  0.00000000000E+00  0.22179819357E+03  0.22179819357E+03  0.00000000000E+00 0.  1.
         13   -1    0    0    0    0 -0.00000000000E+00 -0.00000000000E+00 -0.27500000000E+03  0.27500000000E+03  0.00000000000E+00 0.  1.
    9000005    2    1    2  501    0  0.23618561700E+02 -0.24983828027E+02 -0.45678689099E+02  0.46160408307E+03  0.45804995224E+03 0.  0.
         13    1    3    3    0    0  0.17426530490E+03 -0.17366614921E+03 -0.50443185991E+01  0.24607676246E+03  0.00000000000E+00 0.  1.
          1    1    3    3  501    0 -0.15064674319E+03  0.14868232118E+03 -0.40634370500E+02  0.21552732062E+03  0.00000000000E+00 0.  1.
         21    1    1    2  502  501 -0.23618561700E+02  0.24983828027E+02 -0.75231173268E+01  0.35194110502E+02  0.00000000000E+00 0. -1.
<scales pt_clust_4="550.00000" pt_clust_5="550.00000" pt_clust_6="34.38065"></scales>
<mgrwt>
<rscale>  0 0.30000000E+03</rscale>
<asrwt>  1 0.34380653E+02</asrwt>
<pdfrwt beam="1">  1        1 0.80653889E+00 0.30000000E+03</pdfrwt>
<pdfrwt beam="2">0</pdfrwt>
<totfact> 0.93063706E-04</totfact>
</mgrwt>
<clustering>
<clus scale="   34.381">  1  6  2 -1</clus>
<clus scale="  458.050">  4  5 -1 -1</clus>
<clus scale="  300.000">  1  4  2 -1</clus>
</clustering>
</event>
<event>
 6    1  0.9678510E-012  0.3000000E+03  0.7818608E-02  0.1093470E+00
          1   -1    0    0  502    0  0.00000000000E+00  0.00000000000E+00  0.22528598756E+03  0.22528598756E+03  0.00000000000E+00 0.  1.
         13   -1    0    0    0    0 -0.00000000000E+00 -0.00000000000E+00 -0.27500000000E+03  0.27500000000E+03  0.00000000000E+00 0.  1.
    9000005    2    1    2  501    0 -0.32087254480E+02 -0.16339903582E+02 -0.44599520814E+02  0.46391646221E+03  0.46036157779E+03 0.  0.
         13    1    3    3    0    0 -0.17567887223E+03 -0.10354342529E+03  0.11336721668E+03  0.23331616507E+03  0.00000000000E+00 0.  1.
          1    1    3    3  501    0  0.14359161775E+03  0.87203521709E+02 -0.15796673749E+03  0.23060029714E+03  0.00000000000E+00 0.  1.
         21    1    1    2  502  501  0.32087254480E+02  0.16339903582E+02 -0.51144916297E+01  0.36369525344E+02  0.00000000000E+00 0.  1.
<scales pt_clust_4="550.00000" pt_clust_5="550.00000" pt_clust_6="36.00813"></scales>
<mgrwt>
<rscale>  0 0.30000000E+03</rscale>
<asrwt>  1 0.36008133E+02</asrwt>
<pdfrwt beam="1">  1        1 0.81922177E+00 0.30000000E+03</pdfrwt>
<pdfrwt beam="2">0</pdfrwt>
<totfact> 0.73065197E-04</totfact>
</mgrwt>
<clustering>
<clus scale="   36.008">  1  6  2 -1</clus>
<clus scale="  460.362">  4  5 -1 -1</clus>
<clus scale="  300.000">  1  4  2 -1</clus>
</clustering>
</event>
<event>
 6    1  0.9678510E-012  0.3000000E+03  0.7818608E-02  0.1093470E+00
          1   -1    0    0  502    0  0.00000000000E+00  0.00000000000E+00  0.23104100083E+03  0.23104100083E+03  0.00000000000E+00 0.  1.
         13   -1    0    0    0    0 -0.00000000000E+00 -0.00000000000E+00 -0.27500000000E+03  0.27500000000E+03  0.00000000000E+00 0.  1.
    9000005    2    1    2  501    0  0.23526474516E+02 -0.37498756441E+02 -0.44927074022E+02  0.46176246306E+03  0.45743467138E+03 0.  0.
         13    1    3    3    0    0  0.22707456679E+03 -0.96737193004E+02 -0.10954619702E+02  0.24706466175E+03  0.00000000000E+00 0.  1.
          3    1    3    3  501    0 -0.20354809228E+03  0.59238436562E+02 -0.33972454320E+02  0.21469780131E+03  0.00000000000E+00 0.  1.
         21    1    1    2  502  501 -0.23526474516E+02  0.37498756441E+02  0.96807485320E+00  0.44278537766E+02  0.00000000000E+00 0. -1.
<scales pt_clust_4="550.00000" pt_clust_5="550.00000" pt_clust_6="44.26795"></scales>
<mgrwt>
<rscale>  0 0.30000000E+03</rscale>
<asrwt>  1 0.44267954E+02</asrwt>
<pdfrwt beam="1">  1        1 0.84014909E+00 0.30000000E+03</pdfrwt>
<pdfrwt beam="2">0</pdfrwt>
<totfact> 0.47486739E-04</totfact>
</mgrwt>
<clustering>
<clus scale="   44.268">  1  6  2 -1</clus>
<clus scale="  457.435">  4  5 -1 -1</clus>
<clus scale="  300.000">  1  4  2 -1</clus>
</clustering>
</event>
<event>
 6    1  0.9678510E-012  0.3000000E+03  0.7818608E-02  0.1093470E+00
          1   -1    0    0  502    0  0.00000000000E+00  0.00000000000E+00  0.21931552913E+03  0.21931552913E+03  0.00000000000E+00 0.  1.
         13   -1    0    0    0    0 -0.00000000000E+00 -0.00000000000E+00 -0.27500000000E+03  0.27500000000E+03  0.00000000000E+00 0.  1.
    9000005    2    1    2  501    0 -0.49746358966E+01 -0.30607248493E+02 -0.59039726281E+02  0.46312565254E+03  0.45829917096E+03 0.  0.
         13    1    3    3    0    0  0.15882158272E+03  0.13295397317E+03  0.40680469937E+02  0.21108281492E+03  0.00000000000E+00 0.  1.
          3    1    3    3  501    0 -0.16379621861E+03 -0.16356122167E+03 -0.99720196217E+02  0.25204283763E+03  0.00000000000E+00 0.  1.
         21    1    1    2  502  501  0.49746358966E+01  0.30607248493E+02  0.33552554105E+01  0.31189876586E+02  0.00000000000E+00 0. -1.
<scales pt_clust_4="550.00000" pt_clust_5="550.00000" pt_clust_6="31.00888"></scales>
<mgrwt>
<rscale>  0 0.30000000E+03</rscale>
<asrwt>  1 0.31008880E+02</asrwt>
<pdfrwt beam="1">  1        1 0.79751102E+00 0.30000000E+03</pdfrwt>
<pdfrwt beam="2">0</pdfrwt>
<totfact> 0.11060643E-03</totfact>
</mgrwt>
<clustering>
<clus scale="   31.009">  1  6  2 -1</clus>
<clus scale="  458.299">  4  5 -1 -1</clus>
<clus scale="  300.000">  1  4  2 -1</clus>
</clustering>
</event>
<event>
 6    1  0.9678510E-012  0.3000000E+03  0.7818608E-02  0.1093470E+00
          1   -1    0    0  502    0  0.00000000000E+00  0.00000000000E+00  0.23047231395E+03  0.23047231395E+03  0.00000000000E+00 0.  1.
         13   -1    0    0    0    0 -0.00000000000E+00 -0.00000000000E+00 -0.27500000000E+03  0.27500000000E+03  0.00000000000E+00 0.  1.
    9000005    2    1    2  501    0 -0.78946015204E+01 -0.32322839810E+02 -0.65938996540E+02  0.46590547274E+03  0.46001398626E+03 0.  0.
         13    1    3    3    0    0 -0.10567621273E+03 -0.28226460561E+02  0.17470522452E+03  0.20612159151E+03  0.00000000000E+00 0.  1.
          3    1    3    3  501    0  0.97781611213E+02 -0.40963792485E+01 -0.24064422106E+03  0.25978388122E+03  0.00000000000E+00 0.  1.
         21    1    1    2  502  501  0.78946015204E+01  0.32322839810E+02  0.21411310487E+02  0.39566841210E+02  0.00000000000E+00 0.  1.
<scales pt_clust_4="550.00000" pt_clust_5="550.00000" pt_clust_6="33.27297"></scales>
<mgrwt>
<rscale>  0 0.30000000E+03</rscale>
<asrwt>  1 0.33272973E+02</asrwt>
<pdfrwt beam="1">  1        1 0.83808114E+00 0.30000000E+03</pdfrwt>
<pdfrwt beam="2">0</pdfrwt>
<totfact> 0.51867396E-04</totfact>
</mgrwt>
<clustering>
<clus scale="   33.273">  1  6  2 -1</clus>
<clus scale="  460.014">  4  5 -1 -1</clus>
<clus scale="  300.000">  1  4  2 -1</clus>
</clustering>
</event>
<event>
 6    1  0.9678510E-012  0.3000000E+03  0.7818608E-02  0.1093470E+00
          1   -1    0    0  502    0  0.00000000000E+00  0.00000000000E+00  0.25828300809E+03  0.25828300809E+03  0.00000000000E+00 0.  1.
         13   -1    0    0    0    0 -0.00000000000E+00 -0.00000000000E+00 -0.27500000000E+03  0.27500000000E+03  0.00000000000E+00 0.  1.
    9000005    2    1    2  501    0 -0.30134035181E+02 -0.14531675602E+01 -0.29159401265E+02  0.50064889522E+03  0.49888763648E+03 0.  0.
         13    1    3    3    0    0  0.93615519451E+02  0.16946694299E+03 -0.16102668737E+03  0.25181839546E+03  0.00000000000E+00 0.  1.
          3    1    3    3  501    0 -0.12374955463E+03 -0.17092011055E+03  0.13186728610E+03  0.24883049975E+03  0.00000000000E+00 0.  1.
         21    1    1    2  502  501  0.30134035181E+02  0.14531675602E+01  0.12442409350E+02  0.32634112868E+02  0.00000000000E+00 0. -1.
<scales pt_clust_4="550.00000" pt_clust_5="550.00000" pt_clust_6="30.16905"></scales>
<mgrwt>
<rscale>  0 0.30000000E+03</rscale>
<asrwt>  1 0.30169053E+02</asrwt>
<pdfrwt beam="1">  1        1 0.93921094E+00 0.30000000E+03</pdfrwt>
<pdfrwt beam="2">0</pdfrwt>
<totfact> 0.20310254E-05</totfact>
</mgrwt>
<clustering>
<clus scale="   30.169">  1  6  2 -1</clus>
<clus scale="  498.888">  4  5 -1 -1</clus>
<clus scale="  300.000">  1  4  2 -1</clus>
</clustering>
</event>
<event>
 6    1  0.9678510E-012  0.3000000E+03  0.7818608E-02  0.1093470E+00
          1   -1    0    0  502    0  0.00000000000E+00  0.00000000000E+00  0.24421050318E+03  0.24421050318E+03  0.00000000000E+00 0.  1.
         13   -1    0    0    0    0 -0.00000000000E+00 -0.00000000000E+00 -0.27500000000E+03  0.27500000000E+03  0.00000000000E+00 0.  1.
    9000005    2    1    2  501    0 -0.19023894688E+02  0.28204871834E+02 -0.37924742540E+02  0.48444938847E+03  0.48176290904E+03 0.  0.
         13    1    3    3    0    0 -0.16505259912E+02 -0.22195947398E+03 -0.67371391773E+02  0.23254534208E+03  0.00000000000E+00 0.  1.
          1    1    3    3  501    0 -0.25186347758E+01  0.25016434581E+03  0.29446649233E+02  0.25190404639E+03  0.00000000000E+00 0.  1.
         21    1    1    2  502  501  0.19023894688E+02 -0.28204871834E+02  0.71352457170E+01  0.34761114708E+02  0.00000000000E+00 0.  1.
<scales pt_clust_4="550.00000" pt_clust_5="550.00000" pt_clust_6="34.02093"></scales>
<mgrwt>
<rscale>  0 0.30000000E+03</rscale>
<asrwt>  1 0.34020925E+02</asrwt>
<pdfrwt beam="1">  1        1 0.88803819E+00 0.30000000E+03</pdfrwt>
<pdfrwt beam="2">0</pdfrwt>
<totfact> 0.15493117E-04</totfact>
</mgrwt>
<clustering>
<clus scale="   34.021">  1  6  2 -1</clus>
<clus scale="  481.763">  4  5 -1 -1</clus>
<clus scale="  300.000">  1  4  2 -1</clus>
</clustering>
</event>
<event>
 6    1  0.9678510E-012  0.3000000E+03  0.7818608E-02  0.1093470E+00
          1   -1    0    0  502    0  0.00000000000E+00  0.00000000000E+00  0.24295176761E+03  0.24295176761E+03  0.00000000000E+00 0.  1.
         13   -1    0    0    0    0 -0.00000000000E+00 -0.00000000000E+00 -0.27500000000E+03  0.27500000000E+03  0.00000000000E+00 0.  1.
    9000005    2    1    2  501    0 -0.65333762251E+01 -0.44540322125E+02 -0.51719895683E+02  0.46882438587E+03  0.46378317335E+03 0.  0.
         13    1    3    3    0    0  0.16598461965E+03 -0.18117610585E+03 -0.33714115349E+02  0.24801676730E+03  0.00000000000E+00 0.  1.
          3    1    3    3  501    0 -0.17251799587E+03  0.13663578372E+03 -0.18005780334E+02  0.22080761857E+03  0.00000000000E+00 0.  1.
         21    1    1    2  502  501  0.65333762251E+01  0.44540322125E+02  0.19671663297E+02  0.49127381742E+02  0.00000000000E+00 0. -1.
<scales pt_clust_4="550.00000" pt_clust_5="550.00000" pt_clust_6="45.01694"></scales>
<mgrwt>
<rscale>  0 0.30000000E+03</rscale>
<asrwt>  1 0.45016945E+02</asrwt>
<pdfrwt beam="1">  1        1 0.88346097E+00 0.30000000E+03</pdfrwt>
<pdfrwt beam="2">0</pdfrwt>
<totfact> 0.17006314E-04</totfact>
</mgrwt>
<clustering>
<clus scale="   45.017">  1  6  2 -1</clus>
<clus scale="  463.783">  4  5 -1 -1</clus>
<clus scale="  300.000">  1  4  2 -1</clus>
</clustering>
</event>
<event>
 6    1  0.9678510E-012  0.3000000E+03  0.7818608E-02  0.1093470E+00
          1   -1    0    0  502    0  0.00000000000E+00  0.00000000000E+00  0.23586811573E+03  0.23586811573E+03  0.00000000000E+00 0.  1.
         13   -1    0    0    0    0 -0.00000000000E+00 -0.00000000000E+00 -0.27500000000E+03  0.27500000000E+03  0.00000000000E+00 0.  1.
    9000005    2    1    2  501    0 -0.92730931636E+00 -0.39393593380E+02 -0.63689981055E+02  0.46443735847E+03  0.45835895448E+03 0.  0.
         13    1    3    3    0    0  0.39798829453E+02 -0.24436812162E+03 -0.60869542384E+01  0.24766262677E+03  0.00000000000E+00 0.  1.
          1    1    3    3  501    0 -0.40726138770E+02  0.20497452824E+03 -0.57603026817E+02  0.21677473170E+03  0.00000000000E+00 0.  1.
         21    1    1    2  502  501  0.92730931636E+00  0.39393593380E+02  0.24558096786E+02  0.46430757259E+02  0.00000000000E+00 0.  1.
<scales pt_clust_4="550.00000" pt_clust_5="550.00000" pt_clust_6="39.40451"></scales>
<mgrwt>
<rscale>  0 0.30000000E+03</rscale>
<asrwt>  1 0.39404506E+02</asrwt>
<pdfrwt beam="1">  1        1 0.85770224E+00 0.30000000E+03</pdfrwt>
<pdfrwt beam="2">0</pdfrwt>
<totfact> 0.33459233E-04</totfact>
</mgrwt>
<clustering>
<clus scale="   39.405">  1  6  2 -1</clus>
<clus scale="  458.359">  4  5 -1 -1</clus>
<clus scale="  300.000">  1  4  2 -1</clus>
</clustering>
</event>
<event>
 6    1  0.9678510E-012  0.3000000E+03  0.7818608E-02  0.1093470E+00
          1   -1    0    0  502    0  0.00000000000E+00  0.00000000000E+00  0.23339043812E+03  0.23339043812E+03  0.00000000000E+00 0.  1.
         13   -1    0    0    0    0 -0.00000000000E+00 -0.00000000000E+00 -0.27500000000E+03  0.27500000000E+03  0.00000000000E+00 0.  1.
    9000005    2    1    2  501    0  0.37392946501E+02  0.53703689874E+01 -0.43289140045E+02  0.47057649500E+03  0.46705590103E+03 0.  0.
         13    1    3    3    0    0  0.17059536134E+02  0.21613719598E+03  0.73287881769E+02  0.22886115632E+03  0.00000000000E+00 0.  1.
          3    1    3    3  501    0  0.20333410367E+02 -0.21076682699E+03 -0.11657702181E+03  0.24171533868E+03  0.00000000000E+00 0.  1.
         21    1    1    2  502  501 -0.37392946501E+02 -0.53703689874E+01  0.16795781617E+01  0.37813943115E+02  0.00000000000E+00 0. -1.
<scales pt_clust_4="550.00000" pt_clust_5="550.00000" pt_clust_6="37.77662"></scales>
<mgrwt>
<rscale>  0 0.30000000E+03</rscale>
<asrwt>  1 0.37776624E+02</asrwt>
<pdfrwt beam="1">  1        1 0.84869250E+00 0.30000000E+03</pdfrwt>
<pdfrwt beam="2">0</pdfrwt>
<totfact> 0.41266222E-04</totfact>
</mgrwt>
<clustering>
<clus scale="   37.777">  1  6  2 -1</clus>
<clus scale="  467.056">  4  5 -1 -1</clus>
<clus scale="  300.000">  1  4  2 -1</clus>
</clustering>
</event>
<event>
 6    1  0.9678510E-012  0.3000000E+03  0.7818608E-02  0.1093470E+00
          1   -1    0    0  502    0  0.00000000000E+00  0.00000000000E+00  0.25829141259E+03  0.25829141259E+03  0.00000000000E+00 0.  1.
         13   -1    0    0    0    0 -0.00000000000E+00 -0.00000000000E+00 -0.27500000000E+03  0.27500000000E+03  0.00000000000E+00 0.  1.
    9000005    2    1    2  501    0 -0.32303402422E+01 -0.36237561281E+02 -0.12808449884E+02  0.49670170067E+03  0.49520190540E+03 0.  0.
         13    1    3    3    0    0  0.11334737037E+03 -0.61286078490E+02  0.20862207649E+03  0.24520762750E+03  0.00000000000E+00 0.  1.
          1    1    3    3  501    0 -0.11657771062E+03  0.25048517209E+02 -0.22143052637E+03  0.25149407316E+03  0.00000000000E+00 0.  1.
         21    1    1    2  502  501  0.32303402422E+01  0.36237561281E+02 -0.39001375291E+01  0.36589711921E+02  0.00000000000E+00 0. -1.
<scales pt_clust_4="550.00000" pt_clust_5="550.00000" pt_clust_6="36.38128"></scales>
<mgrwt>
<rscale>  0 0.30000000E+03</rscale>
<asrwt>  1 0.36381276E+02</asrwt>
<pdfrwt beam="1">  1        1 0.93924150E+00 0.30000000E+03</pdfrwt>
<pdfrwt beam="2">0</pdfrwt>
<totfact> 0.19581426E-05</totfact>
</mgrwt>
<clustering>
<clus scale="   36.381">  1  6  2 -1</clus>
<clus scale="  495.202">  4  5 -1 -1</clus>
<clus scale="  300.000">  1  4  2 -1</clus>
</clustering>
</event>
<event>
 6    1  0.9678510E-012  0.3000000E+03  0.7818608E-02  0.1093470E+00
          1   -1    0    0  502    0  0.00000000000E+00  0.00000000000E+00  0.23826328632E+03  0.23826328632E+03  0.00000000000E+00 0.  1.
         13   -1    0    0    0    0 -0.00000000000E+00 -0.00000000000E+00 -0.27500000000E+03  0.27500000000E+03  0.00000000000E+00 0.  1.
    9000005    2    1    2  501    0  0.28602409548E+02 -0.15073673839E+02 -0.58211047581E+02  0.47445013789E+03  0.46975429088E+03 0.  0.
         13    1    3    3    0    0  0.23362268504E+03 -0.73051739499E+02  0.24277860072E+02  0.24597871879E+03  0.00000000000E+00 0.  1.
          3    1    3    3  501    0 -0.20502027549E+03  0.57978065659E+02 -0.82488907653E+02  0.22847141910E+03  0.00000000000E+00 0.  1.
         21    1    1    2  502  501 -0.28602409548E+02  0.15073673839E+02  0.21474333904E+02  0.38813148437E+02  0.00000000000E+00 0.  1.
<scales pt_clust_4="550.00000" pt_clust_5="550.00000" pt_clust_6="32.33131"></scales>
<mgrwt>
<rscale>  0 0.30000000E+03</rscale>
<asrwt>  1 0.32331308E+02</asrwt>
<pdfrwt beam="1">  1        1 0.86641195E+00 0.30000000E+03</pdfrwt>
<pdfrwt beam="2">0</pdfrwt>
<totfact> 0.28009080E-04</totfact>
</mgrwt>
<clustering>
<clus scale="   32.331">  1  6  2 -1</clus>
<clus scale="  469.754">  4  5 -1 -1</clus>
<clus scale="  300.000">  1  4  2 -1</clus>
</clustering>
</event>
<event>
 6    1  0.9678510E-012  0.3000000E+03  0.7818608E-02  0.1093470E+00
          1   -1    0    0  502    0  0.00000000000E+00  0.00000000000E+00  0.23069398676E+03  0.23069398676E+03  0.00000000000E+00 0.  1.
         13   -1    0    0    0    0 -0.00000000000E+00 -0.00000000000E+00 -0.27500000000E+03  0.27500000000E+03  0.00000000000E+00 0.  1.
    9000005    2    1    2  501    0  0.35475360890E+02 -0.27175465448E+01 -0.65459234497E+02  0.46430141425E+03  0.45828485203E+03 0.  0.
         13    1    3    3    0    0  0.16188768796E+03 -0.17988454002E+03 -0.36469517852E+02  0.24473679123E+03  0.00000000000E+00 0.  1.
          1    1    3    3  501    0 -0.12641232707E+03  0.17716699347E+03 -0.28989716645E+02  0.21956462302E+03  0.00000000000E+00 0.  1.
         21    1    1    2  502  501 -0.35475360890E+02  0.27175465448E+01  0.21153221254E+02  0.41392572510E+02  0.00000000000E+00 0. -1.
<scales pt_clust_4="550.00000" pt_clust_5="550.00000" pt_clust_6="35.57930"></scales>
<mgrwt>
<rscale>  0 0.30000000E+03</rscale>
<asrwt>  1 0.35579296E+02</asrwt>
<pdfrwt beam="1">  1        1 0.83888722E+00 0.30000000E+03</pdfrwt>
<pdfrwt beam="2">0</pdfrwt>
<totfact> 0.50520889E-04</totfact>
</mgrwt>
<clustering>
<clus scale="   35.579">  1  6  2 -1</clus>
<clus scale="  458.285">  4  5 -1 -1</clus>
<clus scale="  300.000">  1  4  2 -1</clus>
</clustering>
</event>
<event>
 6    1  0.9678510E-012  0.3000000E+03  0.7818608E-02  0.1093470E+00
          1   -1    0    0  502    0  0.00000000000E+00  0.00000000000E+00  0.25063030783E+03  0.25063030783E+03  0.00000000000E+00 0.  1.
         13   -1    0    0    0    0 -0.00000000000E+00 -0.00000000000E+00 -0.27500000000E+03  0.27500000000E+03  0.00000000000E+00 0.  1.
    9000005    2    1    2  501    0 -0.69100323771E+00 -0.44037839578E+02 -0.43560584330E+02  0.47758762741E+03  0.47355317394E+03 0.  0.
         13    1    3    3    0    0 -0.29284550540E+02 -0.10279512303E+03  0.19926597595E+03  0.22612242567E+03  0.00000000000E+00 0.  1.
          1    1    3    3  501    0  0.28593547302E+02  0.58757283451E+02 -0.24282656028E+03  0.25146520174E+03  0.00000000000E+00 0.  1.
         21    1    1    2  502  501  0.69100323771E+00  0.44037839578E+02  0.19190892162E+02  0.48042680423E+02  0.00000000000E+00 0.  1.
<scales pt_clust_4="550.00000" pt_clust_5="550.00000" pt_clust_6="44.04326"></scales>
<mgrwt>
<rscale>  0 0.30000000E+03</rscale>
<asrwt>  1 0.44043261E+02</asrwt>
<pdfrwt beam="1">  1        1 0.91138294E+00 0.30000000E+03</pdfrwt>
<pdfrwt beam="2">0</pdfrwt>
<totfact> 0.63689991E-05</totfact>
</mgrwt>
<clustering>
<clus scale="   44.043">  1  6  2 -1</clus>
<clus scale="  473.553">  4  5 -1 -1</clus>
<clus scale="  300.000">  1  4  2 -1</clus>
</clustering>
</event>
<event>
 6    1  0.9678510E-012  0.3000000E+03  0.7818608E-02  0.1093470E+00
          1   -1    0    0  502    0  0.00000000000E+00  0.00000000000E+00  0.22680317457E+03  0.22680317457E+03  0.00000000000E+00 0.  1.
         13   -1    0    0    0    0 -0.00000000000E+00 -0.00000000000E+00 -0.27500000000E+03  0.27500000000E+03  0.00000000000E+00 0.  1.
    9000005    2    1    2  501    0  0.31334832434E+02 -0.68757547835E+01 -0.28972019778E+02  0.46440343018E+03  0.46238730552E+03 0.  0.
         13    1    3    3    0    0  0.68133631612E+02 -0.19635284704E+03 -0.13140065168E+03  0.24589177204E+03  0.00000000000E+00 0.  1.
          1    1    3    3  501    0 -0.36798799178E+02  0.18947709225E+03  0.10242863190E+03  0.21851165814E+03  0.00000000000E+00 0.  1.
         21    1    1    2  502  501 -0.31334832434E+02  0.68757547835E+01 -0.19224805656E+02  0.37399744384E+02  0.00000000000E+00 0. -1.
<scales pt_clust_4="550.00000" pt_clust_5="550.00000" pt_clust_6="32.08035"></scales>
<mgrwt>
<rscale>  0 0.30000000E+03</rscale>
<asrwt>  1 0.32080348E+02</asrwt>
<pdfrwt beam="1">  1        1 0.82473882E+00 0.30000000E+03</pdfrwt>
<pdfrwt beam="2">0</pdfrwt>
<totfact> 0.66756290E-04</totfact>
</mgrwt>
<clustering>
<clus scale="   32.080">  1  6  2 -1</clus>
<clus scale="  462.387">  4  5 -1 -1</clus>
<clus scale="  300.000">  1  4  2 -1</clus>
</clustering>
</event>
<event>
 6    1  0.9678510E-012  0.3000000E+03  0.7818608E-02  0.1093470E+00
          1   -1    0    0  502    0  0.00000000000E+00  0.00000000000E+00  0.23373671563E+03  0.23373671563E+03  0.00000000000E+00 0.  1.
         13   -1    0    0    0    0 -0.00000000000E+00 -0.00000000000E+00 -0.27500000000E+03  0.27500000000E+03  0.00000000000E+00 0.  1.
    9000005    2    1    2  501    0  0.17490528913E+02 -0.27429078526E+02 -0.44311933149E+02  0.47606306860E+03  0.47287865771E+03 0.  0.
         13    1    3    3    0    0 -0.92224677945E+02 -0.74904108976E+02 -0.22788427732E+03  0.25699661596E+03  0.00000000000E+00 0.  1.
          3    1    3    3  501    0  0.10971520686E+03  0.47475030450E+02  0.18357234417E+03  0.21906645265E+03  0.00000000000E+00 0.  1.
         21    1    1    2  502  501 -0.17490528913E+02  0.27429078526E+02  0.30486487766E+01  0.32673647023E+02  0.00000000000E+00 0.  1.
<scales pt_clust_4="550.00000" pt_clust_5="550.00000" pt_clust_6="32.53111"></scales>
<mgrwt>
<rscale>  0 0.30000000E+03</rscale>
<asrwt>  1 0.32531107E+02</asrwt>
<pdfrwt beam="1">  1        1 0.84995169E+00 0.30000000E+03</pdfrwt>
<pdfrwt beam="2">0</pdfrwt>
<totfact> 0.41306210E-04</totfact>
</mgrwt>
<clustering>
<clus scale="   32.531">  1  6  2 -1</clus>
<clus scale="  472.879">  4  5 -1 -1</clus>
<clus scale="  300.000">  1  4  2 -1</clus>
</clustering>
</event>
<event>
 6    1  0.9678510E-012  0.3000000E+03  0.7818608E-02  0.1093470E+00
          1   -1    0    0  502    0  0.00000000000E+00  0.00000000000E+00  0.24131253445E+03  0.24131253445E+03  0.00000000000E+00 0.  1.
         13   -1    0    0    0    0 -0.00000000000E+00 -0.00000000000E+00 -0.27500000000E+03  0.27500000000E+03  0.00000000000E+00 0.  1.
    9000005    2    1    2  501    0 -0.14630395155E+02  0.35227258880E+02 -0.58234575084E+02  0.47095210216E+03  0.46577849732E+03 0.  0.
         13    1    3    3    0    0 -0.11506304040E+03  0.14302427133E+03  0.13506963040E+03  0.22790184403E+03  0.00000000000E+00 0.  1.
          1    1    3    3  501    0  0.10043264525E+03 -0.10779701245E+03 -0.19330420548E+03  0.24305025814E+03  0.00000000000E+00 0.  1.
         21    1    1    2  502  501  0.14630395155E+02 -0.35227258880E+02  0.24547109532E+02  0.45360432284E+02  0.00000000000E+00 0.  1.
<scales pt_clust_4="550.00000" pt_clust_5="550.00000" pt_clust_6="38.14457"></scales>
<mgrwt>
<rscale>  0 0.30000000E+03</rscale>
<asrwt>  1 0.38144570E+02</asrwt>
<pdfrwt beam="1">  1        1 0.87750013E+00 0.30000000E+03</pdfrwt>
<pdfrwt beam="2">0</pdfrwt>
<totfact> 0.20790373E-04</totfact>
</mgrwt>
<clustering>
<clus scale="   38.145">  1  6  2 -1</clus>
<clus scale="  465.778">  4  5 -1 -1</clus>
<clus scale="  300.000">  1  4  2 -1</clus>
</clustering>
</event>
<event>
 6    1  0.9678510E-012  0.3000000E+03  0.7818608E-02  0.1093470E+00
          1   -1    0    0  502    0  0.00000000000E+00  0.00000000000E+00  0.25336674179E+03  0.25336674179E+03  0.00000000000E+00 0.  1.
         13   -1    0    0    0    0 -0.00000000000E+00 -0.00000000000E+00 -0.27500000000E+03  0.27500000000E+03  0.00000000000E+00 0.  1.
    9000005    2    1    2  501    0  0.29189174833E+02 -0.16179303940E+02 -0.44507019464E+02  0.48790704879E+03  0.48472531982E+03 0.  0.
         13    1    3    3    0    0  0.13009580014E+03 -0.18957980004E+03 -0.13629202634E+03  0.26728436962E+03  0.00000000000E+00 0.  1.
          1    1    3    3  501    0 -0.10090662531E+03  0.17340049610E+03  0.91785006880E+02  0.22062267917E+03  0.00000000000E+00 0.  1.
         21    1    1    2  502  501 -0.29189174833E+02  0.16179303940E+02  0.22873761250E+02  0.40459692993E+02  0.00000000000E+00 0. -1.
<scales pt_clust_4="550.00000" pt_clust_5="550.00000" pt_clust_6="33.37331"></scales>
<mgrwt>
<rscale>  0 0.30000000E+03</rscale>
<asrwt>  1 0.33373310E+02</asrwt>
<pdfrwt beam="1">  1        1 0.92133361E+00 0.30000000E+03</pdfrwt>
<pdfrwt beam="2">0</pdfrwt>
<totfact> 0.39479603E-05</totfact>
</mgrwt>
<clustering>
<clus scale="   33.373">  1  6  2 -1</clus>
<clus scale="  484.725">  4  5 -1 -1</clus>
<clus scale="  300.000">  1  4  2 -1</clus>
</clustering>
</event>
<event>
 6    1  0.9678510E-012  0.3000000E+03  0.7818608E-02  0.1093470E+00
          1   -1    0    0  502    0  0.00000000000E+00  0.00000000000E+00  0.22998871573E+03  0.22998871573E+03  0.00000000000E+00 0.  1.
         13   -1    0    0    0    0 -0.00000000000E+00 -0.00000000000E+00 -0.27500000000E+03  0.27500000000E+03  0.00000000000E+00 0.  1.
    9000005    2    1    2  501    0 -0.21496946984E+02  0.32651592846E+02 -0.60398966456E+02  0.46297650312E+03  0.45735212042E+03 0.  0.
         13    1    3    3    0    0 -0.19826755004E+03  0.12937701611E+03 -0.10105710340E+03  0.25741206624E+03  0.00000000000E+00 0.  1.
          3    1    3    3  501    0  0.17677060306E+03 -0.96725423268E+02  0.40658136939E+02  0.20556443689E+03  0.00000000000E+00 0.  1.
         21    1    1    2  502  501  0.21496946984E+02 -0.32651592846E+02  0.15387682188E+02  0.42012212607E+02  0.00000000000E+00 0.  1.
<scales pt_clust_4="550.00000" pt_clust_5="550.00000" pt_clust_6="39.09278"></scales>
<mgrwt>
<rscale>  0 0.30000000E+03</rscale>
<asrwt>  1 0.39092777E+02</asrwt>
<pdfrwt beam="1">  1        1 0.83632260E+00 0.30000000E+03</pdfrwt>
<pdfrwt beam="2">0</pdfrwt>
<totfact> 0.51842159E-04</totfact>
</mgrwt>
<clustering>
<clus scale="   39.093">  1  6  2 -1</clus>
<clus scale="  457.352">  4  5 -1 -1</clus>
<clus scale="  300.000">  1  4  2 -1</clus>
</clustering>
</event>
<event>
 6    1  0.9678510E-012  0.3000000E+03  0.7818608E-02  0.1093470E+00
          1   -1    0    0  502    0  0.00000000000E+00  0.00000000000E+00  0.22761696985E+03  0.22761696985E+03  0.00000000000E+00 0.  1.
         13   -1    0    0    0    0 -0.00000000000E+00 -0.00000000000E+00 -0.27500000000E+03  0.27500000000E+03  0.00000000000E+00 0.  1.
    9000005    2    1    2  501    0  0.27779759062E+02  0.12585123916E+02 -0.54598109623E+02  0.47127757405E+03  0.46710972787E+03 0.  0.
         13    1    3    3    0    0 -0.14238496591E+03 -0.78850977090E+01 -0.20060522033E+03  0.24612620280E+03  0.00000000000E+00 0.  1.
          3    1    3    3  501    0  0.17016472497E+03  0.20470221625E+02  0.14600711070E+03  0.22515137124E+03  0.00000000000E+00 0.  1.
         21    1    1    2  502  501 -0.27779759062E+02 -0.12585123916E+02  0.72150794720E+01  0.31339395803E+02  0.00000000000E+00 0.  1.
<scales pt_clust_4="550.00000" pt_clust_5="550.00000" pt_clust_6="30.49755"></scales>
<mgrwt>
<rscale>  0 0.30000000E+03</rscale>
<asrwt>  1 0.30497547E+02</asrwt>
<pdfrwt beam="1">  1        1 0.82769807E+00 0.30000000E+03</pdfrwt>
<pdfrwt beam="2">0</pdfrwt>
<totfact> 0.63461018E-04</totfact>
</mgrwt>
<clustering>
<clus scale="   30.498">  1  6  2 -1</clus>
<clus scale="  467.110">  4  5 -1 -1</clus>
<clus scale="  300.000">  1  4  2 -1</clus>
</clustering>
</event>
<event>
 6    1  0.9678510E-012  0.3000000E+03  0.7818608E-02  0.1093470E+00
          1   -1    0    0  502    0  0.00000000000E+00  0.00000000000E+00  0.23211313830E+03  0.23211313830E+03  0.00000000000E+00 0.  1.
         13   -1    0    0    0    0 -0.00000000000E+00 -0.00000000000E+00 -0.27500000000E+03  0.27500000000E+03  0.00000000000E+00 0.  1.
    9000005    2    1    2  501    0 -0.20509128763E+02 -0.22411798203E+02 -0.65109024279E+02  0.46947356377E+03  0.46394323895E+03 0.  0.
         13    1    3    3    0    0  0.92446274147E+02  0.90989455386E+01  0.17731592036E+03  0.20017502348E+03  0.00000000000E+00 0.  1.
          1    1    3    3  501    0 -0.11295540291E+03 -0.31510743742E+02 -0.24242494464E+03  0.26929854028E+03  0.00000000000E+00 0.  1.
         21    1    1    2  502  501  0.20509128763E+02  0.22411798203E+02  0.22222162576E+02  0.37639574531E+02  0.00000000000E+00 0. -1.
<scales pt_clust_4="550.00000" pt_clust_5="550.00000" pt_clust_6="30.37948"></scales>
<mgrwt>
<rscale>  0 0.30000000E+03</rscale>
<asrwt>  1 0.30379484E+02</asrwt>
<pdfrwt beam="1">  1        1 0.84404778E+00 0.30000000E+03</pdfrwt>
<pdfrwt beam="2">0</pdfrwt>
<totfact> 0.47301669E-04</totfact>
</mgrwt>
<clustering>
<clus scale="   30.379">  1  6  2 -1</clus>
<clus scale="  463.943">  4  5 -1 -1</clus>
<clus scale="  300.000">  1  4  2 -1</clus>
</clustering>
</event>
<event>
 6    1  0.9678510E-012  0.3000000E+03  0.7818608E-02  0.1093470E+00
          1   -1    0    0  502    0  0.00000000000E+00  0.00000000000E+00  0.22211335110E+03  0.22211335110E+03  0.00000000000E+00 0.  1.
         13   -1    0    0    0    0 -0.00000000000E+00 -0.00000000000E+00 -0.27500000000E+03  0.27500000000E+03  0.00000000000E+00 0.  1.
    9000005    2    1    2  501    0  0.28879947343E+02 -0.94532845832E+01 -0.49321780077E+02  0.46651720367E+03  0.46290630519E+03 0.  0.
         13    1    3    3    0    0 -0.19654660668E+03  0.90803936474E+02 -0.35641378534E+02  0.21942249507E+03  0.00000000000E+00 0.  1.
          3    1    3    3  501    0  0.22542655402E+03 -0.10025722106E+03 -0.13680401543E+02  0.24709470860E+03  0.00000000000E+00 0.  1.
         21    1    1    2  502  501 -0.28879947343E+02  0.94532845832E+01 -0.35648688213E+01  0.30596147432E+02  0.00000000000E+00 0.  1.
<scales pt_clust_4="550.00000" pt_clust_5="550.00000" pt_clust_6="30.38778"></scales>
<mgrwt>
<rscale>  0 0.30000000E+03</rscale>
<asrwt>  1 0.30387775E+02</asrwt>
<pdfrwt beam="1">  1        1 0.80768491E+00 0.30000000E+03</pdfrwt>
<pdfrwt beam="2">0</pdfrwt>
<totfact> 0.93359297E-04</totfact>
</mgrwt>
<clustering>
<clus scale="   30.388">  1  6  2 -1</clus>
<clus scale="  462.906">  4  5 -1 -1</clus>
<clus scale="  300.000">  1  4  2 -1</clus>
</clustering>
</event>
<event>
 6    1  0.9678510E-012  0.3000000E+03  0.7818608E-02  0.1093470E+00
          1   -1    0    0  502    0  0.00000000000E+00  0.00000000000E+00  0.22198995330E+03  0.22198995330E+03  0.00000000000E+00 0.  1.
         13   -1    0    0    0    0 -0.00000000000E+00 -0.00000000000E+00 -0.27500000000E+03  0.27500000000E+03  0.00000000000E+00 0.  1.
    9000005    2    1    2  501    0 -0.31405417012E+02 -0.15832284655E+02 -0.54198178160E+02  0.46179942743E+03  0.45725737523E+03 0.  0.
         13    1    3    3    0    0 -0.69349801627E+02  0.14177125413E+03  0.13850393543E+03  0.20998053151E+03  0.00000000000E+00 0.  1.
          3    1    3    3  501    0  0.37944384614E+02 -0.15760353878E+03 -0.19270211359E+03  0.25181889592E+03  0.00000000000E+00 0.  1.
         21    1    1    2  502  501  0.31405417012E+02  0.15832284655E+02  0.11881314638E+01  0.35190525877E+02  0.00000000000E+00 0. -1.
<scales pt_clust_4="550.00000" pt_clust_5="550.00000" pt_clust_6="35.17046"></scales>
<mgrwt>
<rscale>  0 0.30000000E+03</rscale>
<asrwt>  1 0.35170463E+02</asrwt>
<pdfrwt beam="1">  1        1 0.80723619E+00 0.30000000E+03</pdfrwt>
<pdfrwt beam="2">0</pdfrwt>
<totfact> 0.91534199E-04</totfact>
</mgrwt>
<clustering>
<clus scale="   35.170">  1  6  2 -1</clus>
<clus scale="  457.257">  4  5 -1 -1</clus>
<clus scale="  300.000">  1  4  2 -1</clus>
</clustering>
</event>
<event>
 6    1  0.9678510E-012  0.3000000E+03  0.7818608E-02  0.1093470E+00
          1   -1    0    0  502    0  0.00000000000E+00  0.00000000000E+00  0.24759271547E+03  0.24759271547E+03  0.00000000000E+00 0.  1.
         13   -1    0    0    0    0 -0.00000000000E+00 -0.00000000000E+00 -0.27500000000E+03  0.27500000000E+03  0.00000000000E+00 0.  1.
    9000005    2    1    2  501    0  0.30357409150E+02  0.25301819287E+02 -0.42499570671E+01  0.47678860905E+03  0.47512899432E+03 0.  0.
         13    1    3    3    0    0 -0.19849557212E+03  0.58781946999E+02  0.91661727808E+02  0.22640159405E+03  0.00000000000E+00 0.  1.
          3    1    3    3  501    0  0.22885298127E+03 -0.33480127712E+02 -0.95911684875E+02  0.25038701500E+03  0.00000000000E+00 0.  1.
         21    1    1    2  502  501 -0.30357409150E+02 -0.25301819287E+02 -0.23157327461E+02  0.45804106417E+02  0.00000000000E+00 0.  1.
<scales pt_clust_4="550.00000" pt_clust_5="550.00000" pt_clust_6="39.51906"></scales>
<mgrwt>
<rscale>  0 0.30000000E+03</rscale>
<asrwt>  1 0.39519058E+02</asrwt>
<pdfrwt beam="1">  1        1 0.90033715E+00 0.30000000E+03</pdfrwt>
<pdfrwt beam="2">0</pdfrwt>
<totfact> 0.10693069E-04</totfact>
</mgrwt>
<clustering>
<clus scale="   39.519">  1  6  2 -1</clus>
<clus scale="  475.129">  4  5 -1 -1</clus>
<clus scale="  300.000">  1  4  2 -1</clus>
</clustering>
</event>
<event>
 6    1  0.9678510E-012  0.3000000E+03  0.7818608E-02  0.1093470E+00
          1   -1    0    0  502    0  0.00000000000E+00  0.00000000000E+00  0.23755318280E+03  0.23755318280E+03  0.00000000000E+00 0.  1.
         13   -1    0    0    0    0 -0.00000000000E+00 -0.00000000000E+00 -0.27500000000E+03  0.27500000000E+03  0.00000000000E+00 0.  1.
    9000005    2    1    2  501    0  0.21750120031E+01 -0.33807783804E+02 -0.56814777642E+02  0.47352992288E+03  0.46888695011E+03 0.  0.
         13    1    3    3    0    0  0.22045398024E+03  0.59044810932E+02 -0.61181164287E+02  0.23628241993E+03  0.00000000000E+00 0.  1.
          3    1    3    3  501    0 -0.21827896824E+03 -0.92852594736E+02  0.43663866455E+01  0.23724750295E+03  0.00000000000E+00 0.  1.
         21    1    1    2  502  501 -0.21750120031E+01  0.33807783804E+02  0.19367960443E+02  0.39023259918E+02  0.00000000000E+00 0.  1.
<scales pt_clust_4="550.00000" pt_clust_5="550.00000" pt_clust_6="33.87768"></scales>
<mgrwt>
<rscale>  0 0.30000000E+03</rscale>
<asrwt>  1 0.33877676E+02</asrwt>
<pdfrwt beam="1">  1        1 0.86382976E+00 0.30000000E+03</pdfrwt>
<pdfrwt beam="2">0</pdfrwt>
<totfact> 0.29593553E-04</totfact>
</mgrwt>
<clustering>
<clus scale="   33.878">  1  6  2 -1</clus>
<clus scale="  468.887">  4  5 -1 -1</clus>
<clus scale="  300.000">  1  4  2 -1</clus>
</clustering>
</event>
<event>
 6    1  0.9678510E-012  0.3000000E+03  0.7818608E-02  0.1093470E+00
          1   -1    0    0  502    0  0.00000000000E+00  0.00000000000E+00  0.23061936875E+03  0.23061936875E+03  0.00000000000E+00 0.  1.
         13   -1    0    0    0    0 -0.00000000000E+00 -0.00000000000E+00 -0.27500000000E+03  0.27500000000E+03  0.00000000000E+00 0.  1.
    9000005    2    1    2  501    0 -0.24091033353E+02  0.21686707016E+02 -0.54939112441E+02  0.47152871498E+03  0.46719410509E+03 0.  0.
         13    1    3    3    0    0 -0.49586670757E+02  0.18360874436E+03 -0.18268384385E+03  0.26371271438E+03  0.00000000000E+00 0.  1.
          1    1    3    3  501    0  0.25495637404E+02 -0.16192203734E+03  0.12774473141E+03  0.20781600060E+03  0.00000000000E+00 0.  1.
         21    1    1    2  502  501  0.24091033353E+02 -0.21686707016E+02  0.10558481194E+02  0.34090653768E+02  0.00000000000E+00 0.  1.
<scales pt_clust_4="550.00000" pt_clust_5="550.00000" pt_clust_6="32.41437"></scales>
<mgrwt>
<rscale>  0 0.30000000E+03</rscale>
<asrwt>  1 0.32414366E+02</asrwt>
<pdfrwt beam="1">  1        1 0.83861589E+00 0.30000000E+03</pdfrwt>
<pdfrwt beam="2">0</pdfrwt>
<totfact> 0.51653194E-04</totfact>
</mgrwt>
<clustering>
<clus scale="   32.414">  1  6  2 -1</clus>
<clus scale="  467.194">  4  5 -1 -1</clus>
<clus scale="  300.000">  1  4  2 -1</clus>
</clustering>
</event>
<event>
 6    1  0.9678510E-012  0.3000000E+03  0.7818608E-02  0.1093470E+00
          1   -1    0    0  502    0  0.00000000000E+00  0.00000000000E+00  0.23723915589E+03  0.23723915589E+03  0.00000000000E+00 0.  1.
         13   -1    0    0    0    0 -0.00000000000E+00 -0.00000000000E+00 -0.27500000000E+03  0.27500000000E+03  0.00000000000E+00 0.  1.
    9000005    2    1    2  501    0  0.20284746265E+02 -0.31033598611E+02 -0.50584891153E+02  0.47300892066E+03  0.46883264886E+03 0.  0.
         13    1    3    3    0    0 -0.28738283654E+01 -0.22092078304E+03  0.86920020423E+02  0.23742228459E+03  0.00000000000E+00 0.  1.
          3    1    3    3  501    0  0.23158574630E+02  0.18988718443E+03 -0.13750491158E+03  0.23558663607E+03  0.00000000000E+00 0.  1.
         21    1    1    2  502  501 -0.20284746265E+02  0.31033598611E+02  0.12824047045E+02  0.39230235233E+02  0.00000000000E+00 0. -1.
<scales pt_clust_4="550.00000" pt_clust_5="550.00000" pt_clust_6="37.07499"></scales>
<mgrwt>
<rscale>  0 0.30000000E+03</rscale>
<asrwt>  1 0.37074994E+02</asrwt>
<pdfrwt beam="1">  1        1 0.86268784E+00 0.30000000E+03</pdfrwt>
<pdfrwt beam="2">0</pdfrwt>
<totfact> 0.29939476E-04</totfact>
</mgrwt>
<clustering>
<clus scale="   37.075">  1  6  2 -1</clus>
<clus scale="  468.833">  4  5 -1 -1</clus>
<clus scale="  300.000">  1  4  2 -1</clus>
</clustering>
</event>
<event>
 6    1  0.9678510E-012  0.3000000E+03  0.7818608E-02  0.1093470E+00
          1   -1    0    0  502    0  0.00000000000E+00  0.00000000000E+00  0.22409714651E+03  0.22409714651E+03  0.00000000000E+00 0.  1.
         13   -1    0    0    0    0 -0.00000000000E+00 -0.00000000000E+00 -0.27500000000E+03  0.27500000000E+03  0.00000000000E+00 0.  1.
    9000005    2    1    2  501    0 -0.11556295335E+02  0.30768574848E+02 -0.63652398947E+02  0.46384372016E+03  0.45827842594E+03 0.  0.
         13    1    3    3    0    0 -0.27905334068E+02  0.58471116814E+02  0.19382404653E+03  0.20436570207E+03  0.00000000000E+00 0.  1.
          1    1    3    3  501    0  0.16349038733E+02 -0.27702541966E+02 -0.25747644547E+03  0.25947801809E+03  0.00000000000E+00 0.  1.
         21    1    1    2  502  501  0.11556295335E+02 -0.30768574848E+02  0.12749545460E+02  0.35253426352E+02  0.00000000000E+00 0.  1.
<scales pt_clust_4="550.00000" pt_clust_5="550.00000" pt_clust_6="32.86720"></scales>
<mgrwt>
<rscale>  0 0.30000000E+03</rscale>
<asrwt>  1 0.32867205E+02</asrwt>
<pdfrwt beam="1">  1        1 0.81489871E+00 0.30000000E+03</pdfrwt>
<pdfrwt beam="2">0</pdfrwt>
<totfact> 0.80703232E-04</totfact>
</mgrwt>
<clustering>
<clus scale="   32.867">  1  6  2 -1</clus>
<clus scale="  458.278">  4  5 -1 -1</clus>
<clus scale="  300.000">  1  4  2 -1</clus>
</clustering>
</event>
<event>
 6    1  0.9678510E-012  0.3000000E+03  0.7818608E-02  0.1093470E+00
          1   -1    0    0  502    0  0.00000000000E+00  0.00000000000E+00  0.24010834964E+03  0.24010834964E+03  0.00000000000E+00 0.  1.
         13   -1    0    0    0    0 -0.00000000000E+00 -0.00000000000E+00 -0.27500000000E+03  0.27500000000E+03  0.00000000000E+00 0.  1.
    9000005    2    1    2  501    0  0.10112890218E+02  0.34086897352E+02 -0.61806151150E+02  0.47051488070E+03  0.46508070861E+03 0.  0.
         13    1    3    3    0    0 -0.18440730481E+03  0.10715575256E+03  0.69967081628E+02  0.22446336424E+03  0.00000000000E+00 0.  1.
          3    1    3    3  501    0  0.19452019503E+03 -0.73068855208E+02 -0.13177323278E+03  0.24605151646E+03  0.00000000000E+00 0.  1.
         21    1    1    2  502  501 -0.10112890218E+02 -0.34086897352E+02  0.26914500794E+02  0.44593468946E+02  0.00000000000E+00 0.  1.
<scales pt_clust_4="550.00000" pt_clust_5="550.00000" pt_clust_6="35.55541"></scales>
<mgrwt>
<rscale>  0 0.30000000E+03</rscale>
<asrwt>  1 0.35555409E+02</asrwt>
<pdfrwt beam="1">  1        1 0.87312127E+00 0.30000000E+03</pdfrwt>
<pdfrwt beam="2">0</pdfrwt>
<totfact> 0.23461209E-04</totfact>
</mgrwt>
<clustering>
<clus scale="   35.555">  1  6  2 -1</clus>
<clus scale="  465.081">  4  5 -1 -1</clus>
<clus scale="  300.000">  1  4  2 -1</clus>
</clustering>
</event>
<event>
 6    1  0.9678510E-012  0.3000000E+03  0.7818608E-02  0.1093470E+00
          1   -1    0    0  502    0  0.00000000000E+00  0.00000000000E+00  0.23047895426E+03  0.23047895426E+03  0.00000000000E+00 0.  1.
         13   -1    0    0    0    0 -0.00000000000E+00 -0.00000000000E+00 -0.27500000000E+03  0.27500000000E+03  0.00000000000E+00 0.  1.
    9000005    2    1    2  501    0  0.34896134882E+02  0.88798148075E+01 -0.56540734110E+02  0.46751760221E+03  0.46268700265E+03 0.  0.
         13    1    3    3    0    0  0.12921608988E+03  0.80729665345E+02  0.15981320108E+03  0.22080384053E+03  0.00000000000E+00 0.  1.
          3    1    3    3  501    0 -0.94319955002E+02 -0.71849850537E+02 -0.21635393519E+03  0.24671376169E+03  0.00000000000E+00 0.  1.
         21    1    1    2  502  501 -0.34896134882E+02 -0.88798148075E+01  0.12019688370E+02  0.37961352047E+02  0.00000000000E+00 0.  1.
<scales pt_clust_4="550.00000" pt_clust_5="550.00000" pt_clust_6="36.00821"></scales>
<mgrwt>
<rscale>  0 0.30000000E+03</rscale>
<asrwt>  1 0.36008212E+02</asrwt>
<pdfrwt beam="1">  1        1 0.83810529E+00 0.30000000E+03</pdfrwt>
<pdfrwt beam="2">0</pdfrwt>
<totfact> 0.51084238E-04</totfact>
</mgrwt>
<clustering>
<clus scale="   36.008">  1  6  2 -1</clus>
<clus scale="  462.687">  4  5 -1 -1</clus>
<clus scale="  300.000">  1  4  2 -1</clus>
</clustering>
</event>
<event>
 6    1  0.9678510E-012  0.3000000E+03  0.7818608E-02  0.1093470E+00
          1   -1    0    0  502    0  0.00000000000E+00  0.00000000000E+00  0.24549920366E+03  0.24549920366E+03  0.00000000000E+00 0.  1.
         13   -1    0    0    0    0 -0.00000000000E+00 -0.00000000000E+00 -0.27500000000E+03  0.27500000000E+03  0.00000000000E+00 0.  1.
    9000005    2    1    2  501    0 -0.36129709896E+02 -0.10153613952E+02 -0.61782312098E+02  0.47099619291E+03  0.46541584399E+03 0.  0.
         13    1    3    3    0    0  0.15050401390E+03  0.80955700967E+02 -0.16633416279E+03  0.23847921803E+03  0.00000000000E+00 0.  1.
          1    1    3    3  501    0 -0.18663372380E+03 -0.91109314920E+02  0.10455185070E+03  0.23251697488E+03  0.00000000000E+00 0.  1.
         21    1    1    2  502  501  0.36129709896E+02  0.10153613952E+02  0.32281515762E+02  0.49503010751E+02  0.00000000000E+00 0. -1.
<scales pt_clust_4="550.00000" pt_clust_5="550.00000" pt_clust_6="37.52935"></scales>
<mgrwt>
<rscale>  0 0.30000000E+03</rscale>
<asrwt>  1 0.37529346E+02</asrwt>
<pdfrwt beam="1">  1        1 0.89272438E+00 0.30000000E+03</pdfrwt>
<pdfrwt beam="2">0</pdfrwt>
<totfact> 0.13220287E-04</totfact>
</mgrwt>
<clustering>
<clus scale="   37.529">  1  6  2 -1</clus>
<clus scale="  465.416">  4  5 -1 -1</clus>
<clus scale="  300.000">  1  4  2 -1</clus>
</clustering>
</event>
<event>
 6    1  0.9678510E-012  0.3000000E+03  0.7818608E-02  0.1093470E+00
          1   -1    0    0  502    0  0.00000000000E+00  0.00000000000E+00  0.23078994598E+03  0.23078994598E+03  0.00000000000E+00 0.  1.
         13   -1    0    0    0    0 -0.00000000000E+00 -0.00000000000E+00 -0.27500000000E+03  0.27500000000E+03  0.00000000000E+00 0.  1.
    9000005    2    1    2  501    0  0.30463028558E+02 -0.22020901501E-01 -0.65701157670E+02  0.46850906442E+03  0.46287806681E+03 0.  0.
         13    1    3    3    0    0  0.96704281668E+02  0.21271063630E+03 -0.75301310654E+02  0.24549505143E+03  0.00000000000E+00 0.  1.
          3    1    3    3  501    0 -0.66241253110E+02 -0.21273265720E+03  0.96001529845E+01  0.22301401299E+03  0.00000000000E+00 0.  1.
         21    1    1    2  502  501 -0.30463028558E+02  0.22020901501E-01  0.21491103651E+02  0.37280881561E+02  0.00000000000E+00 0. -1.
<scales pt_clust_4="550.00000" pt_clust_5="550.00000" pt_clust_6="30.46304"></scales>
<mgrwt>
<rscale>  0 0.30000000E+03</rscale>
<asrwt>  1 0.30463037E+02</asrwt>
<pdfrwt beam="1">  1        1 0.83923617E+00 0.30000000E+03</pdfrwt>
<pdfrwt beam="2">0</pdfrwt>
<totfact> 0.51714978E-04</totfact>
</mgrwt>
<clustering>
<clus scale="   30.463">  1  6  2 -1</clus>
<clus scale="  462.878">  4  5 -1 -1</clus>
<clus scale="  300.000">  1  4  2 -1</clus>
</clustering>
</event>
<event>
 6    1  0.9678510E-012  0.3000000E+03  0.7818608E-02  0.1093470E+00
          1   -1    0    0  502    0  0.00000000000E+00  0.00000000000E+00  0.23295523112E+03  0.23295523112E+03  0.00000000000E+00 0.  1.
         13   -1    0    0    0    0 -0.00000000000E+00 -0.00000000000E+00 -0.27500000000E+03  0.27500000000E+03  0.00000000000E+00 0.  1.
    9000005    2    1    2  501    0  0.43640050006E+01  0.35959808185E+02 -0.67074450176E+02  0.46392527211E+03  0.45761940944E+03 0.  0.
         13    1    3    3    0    0  0.84152916102E+02 -0.16816732475E+03  0.75310918271E+02  0.20256775857E+03  0.00000000000E+00 0.  1.
          1    1    3    3  501    0 -0.79788911102E+02  0.20412713294E+03 -0.14238536845E+03  0.26135751354E+03  0.00000000000E+00 0.  1.
         21    1    1    2  502  501 -0.43640050006E+01 -0.35959808185E+02  0.25029681292E+02  0.44029959005E+02  0.00000000000E+00 0. -1.
<scales pt_clust_4="550.00000" pt_clust_5="550.00000" pt_clust_6="36.22364"></scales>
<mgrwt>
<rscale>  0 0.30000000E+03</rscale>
<asrwt>  1 0.36223643E+02</asrwt>
<pdfrwt beam="1">  1        1 0.84710993E+00 0.30000000E+03</pdfrwt>
<pdfrwt beam="2">0</pdfrwt>
<totfact> 0.42996302E-04</totfact>
</mgrwt>
<clustering>
<clus scale="   36.224">  1  6  2 -1</clus>
<clus scale="  457.619">  4  5 -1 -1</clus>
<clus scale="  300.000">  1  4  2 -1</clus>
</clustering>
</event>
<event>
 6    1  0.9678510E-012  0.3000000E+03  0.7818608E-02  0.1093470E+00
          1   -1    0    0  502    0  0.00000000000E+00  0.00000000000E+00  0.24097991683E+03  0.24097991683E+03  0.00000000000E+00 0.  1.
         13   -1    0    0    0    0 -0.00000000000E+00 -0.00000000000E+00 -0.27500000000E+03  0.27500000000E+03  0.00000000000E+00 0.  1.
    9000005    2    1    2  501    0  0.23488640369E+02 -0.36962292882E+02 -0.36722915990E+02  0.47210244394E+03  0.46863015022E+03 0.  0.
         13    1    3    3    0    0 -0.51282329150E+02  0.20656101235E+03  0.10188669258E+02  0.21307542816E+03  0.00000000000E+00 0.  1.
          1    1    3    3  501    0  0.74770969519E+02 -0.24352330523E+03 -0.46911585248E+02  0.25902701578E+03  0.00000000000E+00 0.  1.
         21    1    1    2  502  501 -0.23488640369E+02  0.36962292882E+02  0.27028328186E+01  0.43877472885E+02  0.00000000000E+00 0.  1.
<scales pt_clust_4="550.00000" pt_clust_5="550.00000" pt_clust_6="43.79415"></scales>
<mgrwt>
<rscale>  0 0.30000000E+03</rscale>
<asrwt>  1 0.43794147E+02</asrwt>
<pdfrwt beam="1">  1        1 0.87629061E+00 0.30000000E+03</pdfrwt>
<pdfrwt beam="2">0</pdfrwt>
<totfact> 0.20910351E-04</totfact>
</mgrwt>
<clustering>
<clus scale="   43.794">  1  6  2 -1</clus>
<clus scale="  468.630">  4  5 -1 -1</clus>
<clus scale="  300.000">  1  4  2 -1</clus>
</clustering>
</event>
<event>
 6    1  0.9678510E-012  0.3000000E+03  0.7818608E-02  0.1093470E+00
          1   -1    0    0  502    0  0.00000000000E+00  0.00000000000E+00  0.25226587882E+03  0.25226587882E+03  0.00000000000E+00 0.  1.
         13   -1    0    0    0    0 -0.00000000000E+00 -0.00000000000E+00 -0.27500000000E+03  0.27500000000E+03  0.00000000000E+00 0.  1.
    9000005    2    1    2  501    0 -0.98119775713E+01 -0.28917649841E+02 -0.29791084080E+02  0.49592411592E+03  0.49408573617E+03 0.  0.
         13    1    3    3    0    0 -0.28977338008E+02  0.13439410161E+02 -0.25955028067E+03  0.26150841681E+03  0.00000000000E+00 0.  1.
          1    1    3    3  501    0  0.19165360436E+02 -0.42357060001E+02  0.22975919659E+03  0.23441569911E+03  0.00000000000E+00 0.  1.
         21    1    1    2  502  501  0.98119775713E+01  0.28917649841E+02  0.70569628960E+01  0.31341762897E+02  0.00000000000E+00 0. -1.
<scales pt_clust_4="550.00000" pt_clust_5="550.00000" pt_clust_6="30.53695"></scales>
<mgrwt>
<rscale>  0 0.30000000E+03</rscale>
<asrwt>  1 0.30536951E+02</asrwt>
<pdfrwt beam="1">  1        1 0.91733047E+00 0.30000000E+03</pdfrwt>
<pdfrwt beam="2">0</pdfrwt>
<totfact> 0.49141551E-05</totfact>
</mgrwt>
<clustering>
<clus scale="   30.537">  1  6  2 -1</clus>
<clus scale="  494.086">  4  5 -1 -1</clus>
<clus scale="  300.000">  1  4  2 -1</clus>
</clustering>
</event>
<event>
 6    1  0.9678510E-012  0.3000000E+03  0.7818608E-02  0.1093470E+00
          1   -1    0    0  502    0  0.00000000000E+00  0.00000000000E+00  0.23495741665E+03  0.23495741665E+03  0.00000000000E+00 0.  1.
         13   -1    0    0    0    0 -0.00000000000E+00 -0.00000000000E+00 -0.27500000000E+03  0.27500000000E+03  0.00000000000E+00 0.  1.
    9000005    2    1    2  501    0  0.43001761757E+02 -0.35942777128E+01 -0.48999124983E+02  0.46588599752E+03  0.46128817250E+03 0.  0.
         13    1    3    3    0    0 -0.18991284110E+03 -0.71530190620E+02  0.41135392220E+02  0.20706418299E+03  0.00000000000E+00 0.  1.
          3    1    3    3  501    0  0.23291460285E+03  0.67935912907E+02 -0.90134517203E+02  0.25882181453E+03  0.00000000000E+00 0.  1.
         21    1    1    2  502  501 -0.43001761757E+02  0.35942777128E+01  0.89565416346E+01  0.44071419135E+02  0.00000000000E+00 0. -1.
<scales pt_clust_4="550.00000" pt_clust_5="550.00000" pt_clust_6="43.15171"></scales>
<mgrwt>
<rscale>  0 0.30000000E+03</rscale>
<asrwt>  1 0.43151713E+02</asrwt>
<pdfrwt beam="1">  1        1 0.85439061E+00 0.30000000E+03</pdfrwt>
<pdfrwt beam="2">0</pdfrwt>
<totfact> 0.35548817E-04</totfact>
</mgrwt>
<clustering>
<clus scale="   43.152">  1  6  2 -1</clus>
<clus scale="  461.288">  4  5 -1 -1</clus>
<clus scale="  300.000">  1  4  2 -1</clus>
</clustering>
</event>
<event>
 6    1  0.9678510E-012  0.3000000E+03  0.7818608E-02  0.1093470E+00
          1   -1    0    0  502    0  0.00000000000E+00  0.00000000000E+00  0.23647126031E+03  0.23647126031E+03  0.00000000000E+00 0.  1.
         13   -1    0    0    0    0 -0.00000000000E+00 -0.00000000000E+00 -0.27500000000E+03  0.27500000000E+03  0.00000000000E+00 0.  1.
    9000005    2    1    2  501    0  0.28412292107E+02 -0.23965607619E+02 -0.48762084067E+02  0.47291830934E+03  0.46892683627E+03 0.  0.
         13    1    3    3    0    0 -0.17034545287E+03 -0.12739559849E+03 -0.11160365773E+03  0.24021363044E+03  0.00000000000E+00 0.  1.
          3    1    3    3  501    0  0.19875774498E+03  0.10342999087E+03  0.62841573666E+02  0.23270467890E+03  0.00000000000E+00 0.  1.
         21    1    1    2  502  501 -0.28412292107E+02  0.23965607619E+02  0.10233344377E+02  0.38552950969E+02  0.00000000000E+00 0.  1.
<scales pt_clust_4="550.00000" pt_clust_5="550.00000" pt_clust_6="37.17000"></scales>
<mgrwt>
<rscale>  0 0.30000000E+03</rscale>
<asrwt>  1 0.37169997E+02</asrwt>
<pdfrwt beam="1">  1        1 0.85989549E+00 0.30000000E+03</pdfrwt>
<pdfrwt beam="2">0</pdfrwt>
<totfact> 0.32068579E-04</totfact>
</mgrwt>
<clustering>
<clus scale="   37.170">  1  6  2 -1</clus>
<clus scale="  468.927">  4  5 -1 -1</clus>
<clus scale="  300.000">  1  4  2 -1</clus>
</clustering>
</event>
<event>
 6    1  0.9678510E-012  0.3000000E+03  0.7818608E-02  0.1093470E+00
          1   -1    0    0  502    0  0.00000000000E+00  0.00000000000E+00  0.24009224105E+03  0.24009224105E+03  0.00000000000E+00 0.  1.
         13   -1    0    0    0    0 -0.00000000000E+00 -0.00000000000E+00 -0.27500000000E+03  0.27500000000E+03  0.00000000000E+00 0.  1.
    9000005    2    1    2  501    0 -0.44099128954E+02  0.31209048639E+02 -0.38844252866E+02  0.46092367197E+03  0.45609540396E+03 0.  0.
         13    1    3    3    0    0 -0.20219579615E+03  0.15547350478E+03  0.50158008372E+01  0.25510842582E+03  0.00000000000E+00 0.  1.
          3    1    3    3  501    0  0.15809666719E+03 -0.12426445614E+03 -0.43860053704E+02  0.20581524615E+03  0.00000000000E+00 0.  1.
         21    1    1    2  502  501  0.44099128954E+02 -0.31209048639E+02  0.39364939136E+01  0.54168569076E+02  0.00000000000E+00 0.  1.
<scales pt_clust_4="550.00000" pt_clust_5="550.00000" pt_clust_6="54.02534"></scales>
<mgrwt>
<rscale>  0 0.30000000E+03</rscale>
<asrwt>  1 0.54025345E+02</asrwt>
<pdfrwt beam="1">  1        1 0.87306269E+00 0.30000000E+03</pdfrwt>
<pdfrwt beam="2">0</pdfrwt>
<totfact> 0.21793491E-04</totfact>
</mgrwt>
<clustering>
<clus scale="   54.025">  1  6  2 -1</clus>
<clus scale="  456.095">  4  5 -1 -1</clus>
<clus scale="  300.000">  1  4  2 -1</clus>
</clustering>
</event>
<event>
 6    1  0.9678510E-012  0.3000000E+03  0.7818608E-02  0.1093470E+00
          1   -1    0    0  502    0  0.00000000000E+00  0.00000000000E+00  0.23462557254E+03  0.23462557254E+03  0.00000000000E+00 0.  1.
         13   -1    0    0    0    0 -0.00000000000E+00 -0.00000000000E+00 -0.27500000000E+03  0.27500000000E+03  0.00000000000E+00 0.  1.
    9000005    2    1    2  501    0 -0.21253599616E+02  0.21268411131E+02 -0.52720097930E+02  0.47712208984E+03  0.47324625627E+03 0.  0.
         13    1    3    3    0    0 -0.19902216160E+03 -0.13025852426E+03 -0.91558173152E+00  0.23786118271E+03  0.00000000000E+00 0.  1.
          3    1    3    3  501    0  0.17776856199E+03  0.15152693539E+03 -0.51804516199E+02  0.23926090712E+03  0.00000000000E+00 0.  1.
         21    1    1    2  502  501  0.21253599616E+02 -0.21268411131E+02  0.12345670473E+02  0.32503482707E+02  0.00000000000E+00 0.  1.
<scales pt_clust_4="550.00000" pt_clust_5="550.00000" pt_clust_6="30.06760"></scales>
<mgrwt>
<rscale>  0 0.30000000E+03</rscale>
<asrwt>  1 0.30067604E+02</asrwt>
<pdfrwt beam="1">  1        1 0.85318390E+00 0.30000000E+03</pdfrwt>
<pdfrwt beam="2">0</pdfrwt>
<totfact> 0.39060925E-04</totfact>
</mgrwt>
<clustering>
<clus scale="   30.068">  1  6  2 -1</clus>
<clus scale="  473.246">  4  5 -1 -1</clus>
<clus scale="  300.000">  1  4  2 -1</clus>
</clustering>
</event>
<event>
 6    1  0.9678510E-012  0.3000000E+03  0.7818608E-02  0.1093470E+00
          1   -1    0    0  502    0  0.00000000000E+00  0.00000000000E+00  0.24086910352E+03  0.24086910352E+03  0.00000000000E+00 0.  1.
         13   -1    0    0    0    0 -0.00000000000E+00 -0.00000000000E+00 -0.27500000000E+03  0.27500000000E+03  0.00000000000E+00 0.  1.
    9000005    2    1    2  501    0 -0.71645750493E+01  0.35591914427E+02 -0.39347052048E+02  0.47919044778E+03  0.47619027629E+03 0.  0.
         13    1    3    3    0    0 -0.11351776821E+03 -0.11289896648E+03  0.14765158510E+03  0.21779221959E+03  0.00000000000E+00 0.  1.
          3    1    3    3  501    0  0.10635319316E+03  0.14849088091E+03 -0.18699863715E+03  0.26139822819E+03  0.00000000000E+00 0.  1.
         21    1    1    2  502  501  0.71645750493E+01 -0.35591914427E+02  0.52161555705E+01  0.36678655743E+02  0.00000000000E+00 0. -1.
<scales pt_clust_4="550.00000" pt_clust_5="550.00000" pt_clust_6="36.30586"></scales>
<mgrwt>
<rscale>  0 0.30000000E+03</rscale>
<asrwt>  1 0.36305861E+02</asrwt>
<pdfrwt beam="1">  1        1 0.87588765E+00 0.30000000E+03</pdfrwt>
<pdfrwt beam="2">0</pdfrwt>
<totfact> 0.21857409E-04</totfact>
</mgrwt>
<clustering>
<clus scale="   36.306">  1  6  2 -1</clus>
<clus scale="  476.190">  4  5 -1 -1</clus>
<clus scale="  300.000">  1  4  2 -1</clus>
</clustering>
</event>
<event>
 6    1  0.9678510E-012  0.3000000E+03  0.7818608E-02  0.1093470E+00
          1   -1    0    0  502    0  0.00000000000E+00  0.00000000000E+00  0.22913201307E+03  0.22913201307E+03  0.00000000000E+00 0.  1.
         13   -1    0    0    0    0 -0.00000000000E+00 -0.00000000000E+00 -0.27500000000E+03  0.27500000000E+03  0.00000000000E+00 0.  1.
    9000005    2    1    2  501    0  0.35058040084E+02 -0.11212055992E+02 -0.65832136640E+02  0.46225906658E+03  0.45606446698E+03 0.  0.
         13    1    3    3    0    0 -0.79756109113E+02  0.81449805798E+02 -0.22067425449E+03  0.24837921492E+03  0.00000000000E+00 0.  1.
          3    1    3    3  501    0  0.11481414920E+03 -0.92661861790E+02  0.15484211785E+03  0.21387985166E+03  0.00000000000E+00 0.  1.
         21    1    1    2  502  501 -0.35058040084E+02  0.11212055992E+02  0.19964149708E+02  0.41872946489E+02  0.00000000000E+00 0.  1.
<scales pt_clust_4="550.00000" pt_clust_5="550.00000" pt_clust_6="36.80729"></scales>
<mgrwt>
<rscale>  0 0.30000000E+03</rscale>
<asrwt>  1 0.36807287E+02</asrwt>
<pdfrwt beam="1">  1        1 0.83320732E+00 0.30000000E+03</pdfrwt>
<pdfrwt beam="2">0</pdfrwt>
<totfact> 0.55254446E-04</totfact>
</mgrwt>
<clustering>
<clus scale="   36.807">  1  6  2 -1</clus>
<clus scale="  456.064">  4  5 -1 -1</clus>
<clus scale="  300.000">  1  4  2 -1</clus>
</clustering>
</event>
<event>
 6    1  0.9678510E-012  0.3000000E+03  0.7818608E-02  0.1093470E+00
          1   -1    0    0  502    0  0.00000000000E+00  0.00000000000E+00  0.23144296094E+03  0.23144296094E+03  0.00000000000E+00 0.  1.
         13   -1    0    0    0    0 -0.00000000000E+00 -0.00000000000E+00 -0.27500000000E+03  0.27500000000E+03  0.00000000000E+00 0.  1.
    9000005    2    1    2  501    0 -0.23817474813E+02  0.21376164795E+02 -0.71249519526E+02  0.46412173692E+03  0.45750221871E+03 0.  0.
         13    1    3    3    0    0 -0.13508008186E+03  0.11613841846E+03  0.12631138182E+03  0.21837885872E+03  0.00000000000E+00 0.  1.
          3    1    3    3  501    0  0.11126260705E+03 -0.94762253660E+02 -0.19756090135E+03  0.24574287820E+03  0.00000000000E+00 0.  1.
         21    1    1    2  502  501  0.23817474813E+02 -0.21376164795E+02  0.27692480466E+02  0.42321224015E+02  0.00000000000E+00 0.  1.
<scales pt_clust_4="550.00000" pt_clust_5="550.00000" pt_clust_6="32.00332"></scales>
<mgrwt>
<rscale>  0 0.30000000E+03</rscale>
<asrwt>  1 0.32003321E+02</asrwt>
<pdfrwt beam="1">  1        1 0.84161077E+00 0.30000000E+03</pdfrwt>
<pdfrwt beam="2">0</pdfrwt>
<totfact> 0.49092191E-04</totfact>
</mgrwt>
<clustering>
<clus scale="   32.003">  1  6  2 -1</clus>
<clus scale="  457.502">  4  5 -1 -1</clus>
<clus scale="  300.000">  1  4  2 -1</clus>
</clustering>
</event>
<event>
 6    1  0.9678510E-012  0.3000000E+03  0.7818608E-02  0.1093470E+00
          1   -1    0    0  502    0  0.00000000000E+00  0.00000000000E+00  0.25952994212E+03  0.25952994212E+03  0.00000000000E+00 0.  1.
         13   -1    0    0    0    0 -0.00000000000E+00 -0.00000000000E+00 -0.27500000000E+03  0.27500000000E+03  0.00000000000E+00 0.  1.
    9000005    2    1    2  501    0  0.40255153219E+01 -0.39535304063E+02 -0.32823252300E+02  0.49116661202E+03  0.48845473673E+03 0.  0.
         13    1    3    3    0    0 -0.72490523799E+02 -0.24916592104E+03 -0.60047729296E+02  0.26635364094E+03  0.00000000000E+00 0.  1.
          3    1    3    3  501    0  0.76516039121E+02  0.20963061698E+03  0.27224476996E+02  0.22481297108E+03  0.00000000000E+00 0.  1.
         21    1    1    2  502  501 -0.40255153219E+01  0.39535304063E+02  0.17353194422E+02  0.43363330103E+02  0.00000000000E+00 0.  1.
<scales pt_clust_4="550.00000" pt_clust_5="550.00000" pt_clust_6="39.73972"></scales>
<mgrwt>
<rscale>  0 0.30000000E+03</rscale>
<asrwt>  1 0.39739716E+02</asrwt>
<pdfrwt beam="1">  1        1 0.94374524E+00 0.30000000E+03</pdfrwt>
<pdfrwt beam="2">0</pdfrwt>
<totfact> 0.16045434E-05</totfact>
</mgrwt>
<clustering>
<clus scale="   39.740">  1  6  2 -1</clus>
<clus scale="  488.455">  4  5 -1 -1</clus>
<clus scale="  300.000">  1  4  2 -1</clus>
</clustering>
</event>
<event>
 6    1  0.9678510E-012  0.3000000E+03  0.7818608E-02  0.1093470E+00
          1   -1    0    0  502    0  0.00000000000E+00  0.00000000000E+00  0.23279125524E+03  0.23279125524E+03  0.00000000000E+00 0.  1.
         13   -1    0    0    0    0 -0.00000000000E+00 -0.00000000000E+00 -0.27500000000E+03  0.27500000000E+03  0.00000000000E+00 0.  1.
    9000005    2    1    2  501    0 -0.31103607533E+02  0.80336814095E+01 -0.39928169570E+02  0.47558604663E+03  0.47281693560E+03 0.  0.
         13    1    3    3    0    0 -0.86425091147E+02  0.98252442817E+02  0.18523485736E+03  0.22679239688E+03  0.00000000000E+00 0.  1.
          3    1    3    3  501    0  0.55321483614E+02 -0.90218761408E+02 -0.22516302693E+03  0.24879364975E+03  0.00000000000E+00 0.  1.
         21    1    1    2  502  501  0.31103607533E+02 -0.80336814095E+01 -0.22805751864E+01  0.32205208612E+02  0.00000000000E+00 0.  1.
<scales pt_clust_4="550.00000" pt_clust_5="550.00000" pt_clust_6="32.12436"></scales>
<mgrwt>
<rscale>  0 0.30000000E+03</rscale>
<asrwt>  1 0.32124359E+02</asrwt>
<pdfrwt beam="1">  1        1 0.84651366E+00 0.30000000E+03</pdfrwt>
<pdfrwt beam="2">0</pdfrwt>
<totfact> 0.44524240E-04</totfact>
</mgrwt>
<clustering>
<clus scale="   32.124">  1  6  2 -1</clus>
<clus scale="  472.817">  4  5 -1 -1</clus>
<clus scale="  300.000">  1  4  2 -1</clus>
</clustering>
</event>
<event>
 6    1  0.9678510E-012  0.3000000E+03  0.7818608E-02  0.1093470E+00
          1   -1    0    0  502    0  0.00000000000E+00  0.00000000000E+00  0.22953665733E+03  0.22953665733E+03  0.00000000000E+00 0.  1.
         13   -1    0    0    0    0 -0.00000000000E+00 -0.00000000000E+00 -0.27500000000E+03  0.27500000000E+03  0.00000000000E+00 0.  1.
    9000005    2    1    2  501    0  0.16443239521E+02  0.30535556961E+02 -0.60600517027E+02  0.46669574809E+03  0.46144306068E+03 0.  0.
         13    1    3    3    0    0 -0.17614651527E+03  0.68000128290E+02  0.99531546135E+02  0.21344353110E+03  0.00000000000E+00 0.  1.
          3    1    3    3  501    0  0.19258975480E+03 -0.37464571329E+02 -0.16013206316E+03  0.25325221699E+03  0.00000000000E+00 0.  1.
         21    1    1    2  502  501 -0.16443239521E+02 -0.30535556961E+02  0.15137174356E+02  0.37840909244E+02  0.00000000000E+00 0.  1.
<scales pt_clust_4="550.00000" pt_clust_5="550.00000" pt_clust_6="34.68141"></scales>
<mgrwt>
<rscale>  0 0.30000000E+03</rscale>
<asrwt>  1 0.34681412E+02</asrwt>
<pdfrwt beam="1">  1        1 0.83467875E+00 0.30000000E+03</pdfrwt>
<pdfrwt beam="2">0</pdfrwt>
<totfact> 0.54485626E-04</totfact>
</mgrwt>
<clustering>
<clus scale="   34.681">  1  6  2 -1</clus>
<clus scale="  461.443">  4  5 -1 -1</clus>
<clus scale="  300.000">  1  4  2 -1</clus>
</clustering>
</event>
<event>
 6    1  0.9678510E-012  0.3000000E+03  0.7818608E-02  0.1093470E+00
          1   -1    0    0  502    0  0.00000000000E+00  0.00000000000E+00  0.23127941054E+03  0.23127941054E+03  0.00000000000E+00 0.  1.
         13   -1    0    0    0    0 -0.00000000000E+00 -0.00000000000E+00 -0.27500000000E+03  0.27500000000E+03  0.00000000000E+00 0.  1.
    9000005    2    1    2  501    0 -0.18633616261E+02  0.35050375212E+02 -0.53048810151E+02  0.46550250336E+03  0.46076313212E+03 0.  0.
         13    1    3    3    0    0 -0.53081555408E+02 -0.20659221943E+03  0.95543644012E+01  0.21351646899E+03  0.00000000000E+00 0.  1.
          1    1    3    3  501    0  0.34447939147E+02  0.24164259464E+03 -0.62603174552E+02  0.25198603437E+03  0.00000000000E+00 0.  1.
         21    1    1    2  502  501  0.18633616261E+02 -0.35050375212E+02  0.93282206891E+01  0.40776907175E+02  0.00000000000E+00 0.  1.
<scales pt_clust_4="550.00000" pt_clust_5="550.00000" pt_clust_6="39.69560"></scales>
<mgrwt>
<rscale>  0 0.30000000E+03</rscale>
<asrwt>  1 0.39695597E+02</asrwt>
<pdfrwt beam="1">  1        1 0.84101604E+00 0.30000000E+03</pdfrwt>
<pdfrwt beam="2">0</pdfrwt>
<totfact> 0.47682185E-04</totfact>
</mgrwt>
<clustering>
<clus scale="   39.696">  1  6  2 -1</clus>
<clus scale="  460.763">  4  5 -1 -1</clus>
<clus scale="  300.000">  1  4  2 -1</clus>
</clustering>
</event>
<event>
 6    1  0.9678510E-012  0.3000000E+03  0.7818608E-02  0.1093470E+00
          1   -1    0    0  502    0  0.00000000000E+00  0.00000000000E+00  0.22060094844E+03  0.22060094844E+03  0.00000000000E+00 0.  1.
         13   -1    0    0    0    0 -0.00000000000E+00 -0.00000000000E+00 -0.27500000000E+03  0.27500000000E+03  0.00000000000E+00 0.  1.
    9000005    2    1    2  501    0  0.85447321499E+01 -0.29396858228E+02 -0.47444651199E+02  0.46420745539E+03  0.46076065261E+03 0.  0.
         13    1    3    3    0    0 -0.19325027360E+03  0.67566284217E+02  0.63500602008E+02  0.21434364339E+03  0.00000000000E+00 0.  1.
          1    1    3    3  501    0  0.20179500575E+03 -0.96963142445E+02 -0.11094525321E+03  0.24986381200E+03  0.00000000000E+00 0.  1.
         21    1    1    2  502  501 -0.85447321499E+01  0.29396858228E+02 -0.69544003637E+01  0.31393493046E+02  0.00000000000E+00 0. -1.
<scales pt_clust_4="550.00000" pt_clust_5="550.00000" pt_clust_6="30.61354"></scales>
<mgrwt>
<rscale>  0 0.30000000E+03</rscale>
<asrwt>  1 0.30613537E+02</asrwt>
<pdfrwt beam="1">  1        1 0.80218527E+00 0.30000000E+03</pdfrwt>
<pdfrwt beam="2">0</pdfrwt>
<totfact> 0.10255352E-03</totfact>
</mgrwt>
<clustering>
<clus scale="   30.614">  1  6  2 -1</clus>
<clus scale="  460.761">  4  5 -1 -1</clus>
<clus scale="  300.000">  1  4  2 -1</clus>
</clustering>
</event>
<event>
 6    1  0.9678510E-012  0.3000000E+03  0.7818608E-02  0.1093470E+00
          1   -1    0    0  502    0  0.00000000000E+00  0.00000000000E+00  0.22823928837E+03  0.22823928837E+03  0.00000000000E+00 0.  1.
         13   -1    0    0    0    0 -0.00000000000E+00 -0.00000000000E+00 -0.27500000000E+03  0.27500000000E+03  0.00000000000E+00 0.  1.
    9000005    2    1    2  501    0  0.25374136571E+02 -0.17450443713E+02 -0.16053102966E+02  0.45974995609E+03  0.45843642440E+03 0.  0.
         13    1    3    3    0    0 -0.46999289438E+02 -0.19059530142E+03  0.11807829568E+03  0.22908074132E+03  0.00000000000E+00 0.  1.
          3    1    3    3  501    0  0.72373426008E+02  0.17314485771E+03 -0.13413139865E+03  0.23066921478E+03  0.00000000000E+00 0.  1.
         21    1    1    2  502  501 -0.25374136571E+02  0.17450443713E+02 -0.30707608660E+02  0.43489332280E+02  0.00000000000E+00 0.  1.
<scales pt_clust_4="550.00000" pt_clust_5="550.00000" pt_clust_6="30.79555"></scales>
<mgrwt>
<rscale>  0 0.30000000E+03</rscale>
<asrwt>  1 0.30795547E+02</asrwt>
<pdfrwt beam="1">  1        1 0.82996105E+00 0.30000000E+03</pdfrwt>
<pdfrwt beam="2">0</pdfrwt>
<totfact> 0.60595115E-04</totfact>
</mgrwt>
<clustering>
<clus scale="   30.796">  1  6  2 -1</clus>
<clus scale="  458.436">  4  5 -1 -1</clus>
<clus scale="  300.000">  1  4  2 -1</clus>
</clustering>
</event>
<event>
 6    1  0.9678510E-012  0.3000000E+03  0.7818608E-02  0.1093470E+00
          1   -1    0    0  502    0  0.00000000000E+00  0.00000000000E+00  0.22615620524E+03  0.22615620524E+03  0.00000000000E+00 0.  1.
         13   -1    0    0    0    0 -0.00000000000E+00 -0.00000000000E+00 -0.27500000000E+03  0.27500000000E+03  0.00000000000E+00 0.  1.
    9000005    2    1    2  501    0  0.16709010367E+01  0.37763451048E+02 -0.60099238316E+02  0.46171567843E+03  0.45622426406E+03 0.  0.
         13    1    3    3    0    0 -0.15558066213E+03  0.10585206965E+03  0.11189261563E+03  0.21892912212E+03  0.00000000000E+00 0.  1.
          3    1    3    3  501    0  0.15725156317E+03 -0.68088618606E+02 -0.17199185394E+03  0.24278655631E+03  0.00000000000E+00 0.  1.
         21    1    1    2  502  501 -0.16709010367E+01 -0.37763451048E+02  0.11255443559E+02  0.39440526810E+02  0.00000000000E+00 0. -1.
<scales pt_clust_4="550.00000" pt_clust_5="550.00000" pt_clust_6="37.80040"></scales>
<mgrwt>
<rscale>  0 0.30000000E+03</rscale>
<asrwt>  1 0.37800399E+02</asrwt>
<pdfrwt beam="1">  1        1 0.82238620E+00 0.30000000E+03</pdfrwt>
<pdfrwt beam="2">0</pdfrwt>
<totfact> 0.67942714E-04</totfact>
</mgrwt>
<clustering>
<clus scale="   37.800">  1  6  2 -1</clus>
<clus scale="  456.224">  4  5 -1 -1</clus>
<clus scale="  300.000">  1  4  2 -1</clus>
</clustering>
</event>
<event>
 6    1  0.9678510E-012  0.3000000E+03  0.7818608E-02  0.1093470E+00
          1   -1    0    0  502    0  0.00000000000E+00  0.00000000000E+00  0.22744767877E+03  0.22744767877E+03  0.00000000000E+00 0.  1.
         13   -1    0    0    0    0 -0.00000000000E+00 -0.00000000000E+00 -0.27500000000E+03  0.27500000000E+03  0.00000000000E+00 0.  1.
    9000005    2    1    2  501    0  0.23010856895E+02 -0.24366737884E+02 -0.48606950295E+02  0.46891635472E+03  0.46518455978E+03 0.  0.
         13    1    3    3    0    0  0.98457529517E+01 -0.66414871891E+02  0.20282710588E+03  0.21365090438E+03  0.00000000000E+00 0.  1.
          1    1    3    3  501    0  0.13165103944E+02  0.42048134007E+02 -0.25143405618E+03  0.25526545035E+03  0.00000000000E+00 0.  1.
         21    1    1    2  502  501 -0.23010856895E+02  0.24366737884E+02  0.10546290702E+01  0.33531324051E+02  0.00000000000E+00 0.  1.
<scales pt_clust_4="550.00000" pt_clust_5="550.00000" pt_clust_6="33.51473"></scales>
<mgrwt>
<rscale>  0 0.30000000E+03</rscale>
<asrwt>  1 0.33514735E+02</asrwt>
<pdfrwt beam="1">  1        1 0.82708247E+00 0.30000000E+03</pdfrwt>
<pdfrwt beam="2">0</pdfrwt>
<totfact> 0.63109666E-04</totfact>
</mgrwt>
<clustering>
<clus scale="   33.515">  1  6  2 -1</clus>
<clus scale="  465.185">  4  5 -1 -1</clus>
<clus scale="  300.000">  1  4  2 -1</clus>
</clustering>
</event>
<event>
 6    1  0.9678510E-012  0.3000000E+03  0.7818608E-02  0.1093470E+00
          1   -1    0    0  502    0  0.00000000000E+00  0.00000000000E+00  0.24693317860E+03  0.24693317860E+03  0.00000000000E+00 0.  1.
         13   -1    0    0    0    0 -0.00000000000E+00 -0.00000000000E+00 -0.27500000000E+03  0.27500000000E+03  0.00000000000E+00 0.  1.
    9000005    2    1    2  501    0  0.33879126985E+01 -0.34868117793E+02 -0.33760643626E+02  0.48644116256E+03  0.48400202477E+03 0.  0.
         13    1    3    3    0    0  0.68888245194E+02  0.21413731254E+03 -0.42002377019E+02  0.22883308027E+03  0.00000000000E+00 0.  1.
          1    1    3    3  501    0 -0.65500332495E+02 -0.24900543034E+03  0.82417333937E+01  0.25760808229E+03  0.00000000000E+00 0.  1.
         21    1    1    2  502  501 -0.33879126985E+01  0.34868117793E+02  0.56938222231E+01  0.35492016037E+02  0.00000000000E+00 0. -1.
<scales pt_clust_4="550.00000" pt_clust_5="550.00000" pt_clust_6="35.03232"></scales>
<mgrwt>
<rscale>  0 0.30000000E+03</rscale>
<asrwt>  1 0.35032322E+02</asrwt>
<pdfrwt beam="1">  1        1 0.89793883E+00 0.30000000E+03</pdfrwt>
<pdfrwt beam="2">0</pdfrwt>
<totfact> 0.11685590E-04</totfact>
</mgrwt>
<clustering>
<clus scale="   35.032">  1  6  2 -1</clus>
<clus scale="  484.002">  4  5 -1 -1</clus>
<clus scale="  300.000">  1  4  2 -1</clus>
</clustering>
</event>
<event>
 6    1  0.9678510E-012  0.3000000E+03  0.7818608E-02  0.1093470E+00
          1   -1    0    0  502    0  0.00000000000E+00  0.00000000000E+00  0.24820902391E+03  0.24820902391E+03  0.00000000000E+00 0.  1.
         13   -1    0    0    0    0 -0.00000000000E+00 -0.00000000000E+00 -0.27500000000E+03  0.27500000000E+03  0.00000000000E+00 0.  1.
    9000005    2    1    2  501    0  0.37538452223E+02 -0.19907275167E+02 -0.44839238994E+01  0.47521902936E+03  0.47329439600E+03 0.  0.
         13    1    3    3    0    0  0.11739517068E+03 -0.20241588042E+03  0.95000897274E+02  0.25254501624E+03  0.00000000000E+00 0.  1.
          1    1    3    3  501    0 -0.79856718462E+02  0.18250860525E+03 -0.99484821173E+02  0.22267401312E+03  0.00000000000E+00 0.  1.
         21    1    1    2  502  501 -0.37538452223E+02  0.19907275167E+02 -0.22307052190E+02  0.47989994554E+02  0.00000000000E+00 0.  1.
<scales pt_clust_4="550.00000" pt_clust_5="550.00000" pt_clust_6="42.49043"></scales>
<mgrwt>
<rscale>  0 0.30000000E+03</rscale>
<asrwt>  1 0.42490432E+02</asrwt>
<pdfrwt beam="1">  1        1 0.90257827E+00 0.30000000E+03</pdfrwt>
<pdfrwt beam="2">0</pdfrwt>
<totfact> 0.98188663E-05</totfact>
</mgrwt>
<clustering>
<clus scale="   42.490">  1  6  2 -1</clus>
<clus scale="  473.294">  4  5 -1 -1</clus>
<clus scale="  300.000">  1  4  2 -1</clus>
</clustering>
</event>
<event>
 6    1  0.9678510E-012  0.3000000E+03  0.7818608E-02  0.1093470E+00
          1   -1    0    0  502    0  0.00000000000E+00  0.00000000000E+00  0.24242033535E+03  0.24242033535E+03  0.00000000000E+00 0.  1.
         13   -1    0    0    0    0 -0.00000000000E+00 -0.00000000000E+00 -0.27500000000E+03  0.27500000000E+03  0.00000000000E+00 0.  1.
    9000005    2    1    2  501    0  0.94746690661E+01  0.38122923238E+02 -0.59926734248E+02  0.46955606009E+03  0.46405662743E+03 0.  0.
         13    1    3    3    0    0  0.85739690166E+02 -0.16184776224E+03  0.94059889337E+02  0.20589622482E+03  0.00000000000E+00 0.  1.
          3    1    3    3  501    0 -0.76265021100E+02  0.19997068548E+03 -0.15398662359E+03  0.26365983528E+03  0.00000000000E+00 0.  1.
         21    1    1    2  502  501 -0.94746690661E+01 -0.38122923238E+02  0.27347069597E+02  0.47864275255E+02  0.00000000000E+00 0. -1.
<scales pt_clust_4="550.00000" pt_clust_5="550.00000" pt_clust_6="39.28265"></scales>
<mgrwt>
<rscale>  0 0.30000000E+03</rscale>
<asrwt>  1 0.39282650E+02</asrwt>
<pdfrwt beam="1">  1        1 0.88152849E+00 0.30000000E+03</pdfrwt>
<pdfrwt beam="2">0</pdfrwt>
<totfact> 0.18481984E-04</totfact>
</mgrwt>
<clustering>
<clus scale="   39.283">  1  6  2 -1</clus>
<clus scale="  464.057">  4  5 -1 -1</clus>
<clus scale="  300.000">  1  4  2 -1</clus>
</clustering>
</event>
<event>
 6    1  0.9678510E-012  0.3000000E+03  0.7818608E-02  0.1093470E+00
          1   -1    0    0  502    0  0.00000000000E+00  0.00000000000E+00  0.22559769585E+03  0.22559769585E+03  0.00000000000E+00 0.  1.
         13   -1    0    0    0    0 -0.00000000000E+00 -0.00000000000E+00 -0.27500000000E+03  0.27500000000E+03  0.00000000000E+00 0.  1.
    9000005    2    1    2  501    0 -0.33604117380E+02  0.33670980943E+01 -0.44558708598E+02  0.46647974643E+03  0.46311694124E+03 0.  0.
         13    1    3    3    0    0  0.18961429851E+03 -0.54439774784E+02  0.69591258488E+02  0.20918942262E+03  0.00000000000E+00 0.  1.
          3    1    3    3  501    0 -0.22321841589E+03  0.57806872879E+02 -0.11414996709E+03  0.25729032382E+03  0.00000000000E+00 0.  1.
         21    1    1    2  502  501  0.33604117380E+02 -0.33670980943E+01 -0.48435955520E+01  0.34117949416E+02  0.00000000000E+00 0. -1.
<scales pt_clust_4="550.00000" pt_clust_5="550.00000" pt_clust_6="33.77240"></scales>
<mgrwt>
<rscale>  0 0.30000000E+03</rscale>
<asrwt>  1 0.33772403E+02</asrwt>
<pdfrwt beam="1">  1        1 0.82035526E+00 0.30000000E+03</pdfrwt>
<pdfrwt beam="2">0</pdfrwt>
<totfact> 0.72300088E-04</totfact>
</mgrwt>
<clustering>
<clus scale="   33.772">  1  6  2 -1</clus>
<clus scale="  463.117">  4  5 -1 -1</clus>
<clus scale="  300.000">  1  4  2 -1</clus>
</clustering>
</event>
<event>
 6    1  0.9678510E-012  0.3000000E+03  0.7818608E-02  0.1093470E+00
          1   -1    0    0  502    0  0.00000000000E+00  0.00000000000E+00  0.23157018464E+03  0.23157018464E+03  0.00000000000E+00 0.  1.
         13   -1    0    0    0    0 -0.00000000000E+00 -0.00000000000E+00 -0.27500000000E+03  0.27500000000E+03  0.00000000000E+00 0.  1.
    9000005    2    1    2  501    0 -0.59030732592E+01  0.37192671754E+02 -0.50650718531E+02  0.46822592107E+03  0.46395245098E+03 0.  0.
         13    1    3    3    0    0  0.42643301960E+02  0.17466339488E+03 -0.19348579165E+03  0.26412592505E+03  0.00000000000E+00 0.  1.
          3    1    3    3  501    0 -0.48546375220E+02 -0.13747072312E+03  0.14283507312E+03  0.20409999602E+03  0.00000000000E+00 0.  1.
         21    1    1    2  502  501  0.59030732592E+01 -0.37192671754E+02  0.72209031693E+01  0.38344263569E+02  0.00000000000E+00 0. -1.
<scales pt_clust_4="550.00000" pt_clust_5="550.00000" pt_clust_6="37.65821"></scales>
<mgrwt>
<rscale>  0 0.30000000E+03</rscale>
<asrwt>  1 0.37658214E+02</asrwt>
<pdfrwt beam="1">  1        1 0.84207340E+00 0.30000000E+03</pdfrwt>
<pdfrwt beam="2">0</pdfrwt>
<totfact> 0.47203182E-04</totfact>
</mgrwt>
<clustering>
<clus scale="   37.658">  1  6  2 -1</clus>
<clus scale="  463.952">  4  5 -1 -1</clus>
<clus scale="  300.000">  1  4  2 -1</clus>
</clustering>
</event>
<event>
 6    1  0.9678510E-012  0.3000000E+03  0.7818608E-02  0.1093470E+00
          1   -1    0    0  502    0  0.00000000000E+00  0.00000000000E+00  0.21949872988E+03  0.21949872988E+03  0.00000000000E+00 0.  1.
         13   -1    0    0    0    0 -0.00000000000E+00 -0.00000000000E+00 -0.27500000000E+03  0.27500000000E+03  0.00000000000E+00 0.  1.
    9000005    2    1    2  501    0 -0.25372239584E+02 -0.20182330830E+02 -0.59333275249E+02  0.46185273039E+03  0.45687682147E+03 0.  0.
         13    1    3    3    0    0  0.16417071305E+03  0.10303815652E+03 -0.11976126834E+03  0.22784127395E+03  0.00000000000E+00 0.  1.
          3    1    3    3  501    0 -0.18954295263E+03 -0.12322048735E+03  0.60427993089E+02  0.23401145644E+03  0.00000000000E+00 0.  1.
         21    1    1    2  502  501  0.25372239584E+02  0.20182330830E+02  0.38320051295E+01  0.32645999487E+02  0.00000000000E+00 0. -1.
<scales pt_clust_4="550.00000" pt_clust_5="550.00000" pt_clust_6="32.42032"></scales>
<mgrwt>
<rscale>  0 0.30000000E+03</rscale>
<asrwt>  1 0.32420318E+02</asrwt>
<pdfrwt beam="1">  1        1 0.79817720E+00 0.30000000E+03</pdfrwt>
<pdfrwt beam="2">0</pdfrwt>
<totfact> 0.10845517E-03</totfact>
</mgrwt>
<clustering>
<clus scale="   32.420">  1  6  2 -1</clus>
<clus scale="  456.877">  4  5 -1 -1</clus>
<clus scale="  300.000">  1  4  2 -1</clus>
</clustering>
</event>
<event>
 6    1  0.9678510E-012  0.3000000E+03  0.7818608E-02  0.1093470E+00
          1   -1    0    0  502    0  0.00000000000E+00  0.00000000000E+00  0.22861595538E+03  0.22861595538E+03  0.00000000000E+00 0.  1.
         13   -1    0    0    0    0 -0.00000000000E+00 -0.00000000000E+00 -0.27500000000E+03  0.27500000000E+03  0.00000000000E+00 0.  1.
    9000005    2    1    2  501    0  0.23538238774E+02 -0.19480275828E+02 -0.54203446630E+02  0.47207752043E+03  0.46795901727E+03 0.  0.
         13    1    3    3    0    0  0.24490227750E+03  0.87050735590E+01 -0.15060316318E+02  0.24551928021E+03  0.00000000000E+00 0.  1.
          3    1    3    3  501    0 -0.22136403872E+03 -0.28185349387E+02 -0.39143130312E+02  0.22655824022E+03  0.00000000000E+00 0.  1.
         21    1    1    2  502  501 -0.23538238774E+02  0.19480275828E+02  0.78194020059E+01  0.31538434943E+02  0.00000000000E+00 0. -1.
<scales pt_clust_4="550.00000" pt_clust_5="550.00000" pt_clust_6="30.55372"></scales>
<mgrwt>
<rscale>  0 0.30000000E+03</rscale>
<asrwt>  1 0.30553720E+02</asrwt>
<pdfrwt beam="1">  1        1 0.83133075E+00 0.30000000E+03</pdfrwt>
<pdfrwt beam="2">0</pdfrwt>
<totfact> 0.59161693E-04</totfact>
</mgrwt>
<clustering>
<clus scale="   30.554">  1  6  2 -1</clus>
<clus scale="  467.959">  4  5 -1 -1</clus>
<clus scale="  300.000">  1  4  2 -1</clus>
</clustering>
</event>
<event>
 6    1  0.9678510E-012  0.3000000E+03  0.7818608E-02  0.1093470E+00
          1   -1    0    0  502    0  0.00000000000E+00  0.00000000000E+00  0.23513369629E+03  0.23513369629E+03  0.00000000000E+00 0.  1.
         13   -1    0    0    0    0 -0.00000000000E+00 -0.00000000000E+00 -0.27500000000E+03  0.27500000000E+03  0.00000000000E+00 0.  1.
    9000005    2    1    2  501    0 -0.18538519476E+01  0.33290845825E+02 -0.70505187876E+02  0.46485170864E+03  0.45826238371E+03 0.  0.
         13    1    3    3    0    0 -0.16958333891E+03 -0.32728397180E+02 -0.18358967029E+03  0.25206115103E+03  0.00000000000E+00 0.  1.
          1    1    3    3  501    0  0.16772948697E+03  0.66019243004E+02  0.11308448242E+03  0.21279055761E+03  0.00000000000E+00 0.  1.
         21    1    1    2  502  501  0.18538519476E+01 -0.33290845825E+02  0.30638884170E+02  0.45281987654E+02  0.00000000000E+00 0. -1.
<scales pt_clust_4="550.00000" pt_clust_5="550.00000" pt_clust_6="33.34242"></scales>
<mgrwt>
<rscale>  0 0.30000000E+03</rscale>
<asrwt>  1 0.33342423E+02</asrwt>
<pdfrwt beam="1">  1        1 0.85503162E+00 0.30000000E+03</pdfrwt>
<pdfrwt beam="2">0</pdfrwt>
<totfact> 0.36740727E-04</totfact>
</mgrwt>
<clustering>
<clus scale="   33.342">  1  6  2 -1</clus>
<clus scale="  458.262">  4  5 -1 -1</clus>
<clus scale="  300.000">  1  4  2 -1</clus>
</clustering>
</event>
<event>
 6    1  0.9678510E-012  0.3000000E+03  0.7818608E-02  0.1093470E+00
          1   -1    0    0  502    0  0.00000000000E+00  0.00000000000E+00  0.23770273081E+03  0.23770273081E+03  0.00000000000E+00 0.  1.
         13   -1    0    0    0    0 -0.00000000000E+00 -0.00000000000E+00 -0.27500000000E+03  0.27500000000E+03  0.00000000000E+00 0.  1.
    9000005    2    1    2  501    0  0.32607907021E+02 -0.99463865842E+01 -0.68425210472E+02  0.46653829715E+03  0.46023229686E+03 0.  0.
         13    1    3    3    0    0  0.10718014438E+03  0.16419917500E+03 -0.16283068777E+03  0.25487798120E+03  0.00000000000E+00 0.  1.
          3    1    3    3  501    0 -0.74572237361E+02 -0.17414556159E+03  0.94405477298E+02  0.21166031595E+03  0.00000000000E+00 0.  1.
         21    1    1    2  502  501 -0.32607907021E+02  0.99463865842E+01  0.31127941284E+02  0.46164433658E+02  0.00000000000E+00 0.  1.
<scales pt_clust_4="550.00000" pt_clust_5="550.00000" pt_clust_6="34.09115"></scales>
<mgrwt>
<rscale>  0 0.30000000E+03</rscale>
<asrwt>  1 0.34091146E+02</asrwt>
<pdfrwt beam="1">  1        1 0.86437357E+00 0.30000000E+03</pdfrwt>
<pdfrwt beam="2">0</pdfrwt>
<totfact> 0.29161347E-04</totfact>
</mgrwt>
<clustering>
<clus scale="   34.091">  1  6  2 -1</clus>
<clus scale="  460.232">  4  5 -1 -1</clus>
<clus scale="  300.000">  1  4  2 -1</clus>
</clustering>
</event>
<event>
 6    1  0.9678510E-012  0.3000000E+03  0.7818608E-02  0.1093470E+00
          1   -1    0    0  502    0  0.00000000000E+00  0.00000000000E+00  0.23770827667E+03  0.23770827667E+03  0.00000000000E+00 0.  1.
         13   -1    0    0    0    0 -0.00000000000E+00 -0.00000000000E+00 -0.27500000000E+03  0.27500000000E+03  0.00000000000E+00 0.  1.
    9000005    2    1    2  501    0  0.14004582408E+02 -0.27524306075E+02 -0.49308842907E+02  0.47957027859E+03  0.47602791343E+03 0.  0.
         13    1    3    3    0    0 -0.10055334775E+03  0.26477707154E+02 -0.23374946313E+03  0.25583364953E+03  0.00000000000E+00 0.  1.
          1    1    3    3  501    0  0.11455793016E+03 -0.54002013229E+02  0.18444062022E+03  0.22373662906E+03  0.00000000000E+00 0.  1.
         21    1    1    2  502  501 -0.14004582408E+02  0.27524306075E+02  0.12017119573E+02  0.33137998071E+02  0.00000000000E+00 0.  1.
<scales pt_clust_4="550.00000" pt_clust_5="550.00000" pt_clust_6="30.88229"></scales>
<mgrwt>
<rscale>  0 0.30000000E+03</rscale>
<asrwt>  1 0.30882289E+02</asrwt>
<pdfrwt beam="1">  1        1 0.86439373E+00 0.30000000E+03</pdfrwt>
<pdfrwt beam="2">0</pdfrwt>
<totfact> 0.29698474E-04</totfact>
</mgrwt>
<clustering>
<clus scale="   30.882">  1  6  2 -1</clus>
<clus scale="  476.028">  4  5 -1 -1</clus>
<clus scale="  300.000">  1  4  2 -1</clus>
</clustering>
</event>
<event>
 6    1  0.9678510E-012  0.3000000E+03  0.7818608E-02  0.1093470E+00
          1   -1    0    0  502    0  0.00000000000E+00  0.00000000000E+00  0.23491997151E+03  0.23491997151E+03  0.00000000000E+00 0.  1.
         13   -1    0    0    0    0 -0.00000000000E+00 -0.00000000000E+00 -0.27500000000E+03  0.27500000000E+03  0.00000000000E+00 0.  1.
    9000005    2    1    2  501    0  0.23175871471E+02  0.24330982768E+02 -0.71369063557E+02  0.46400568772E+03  0.45725115337E+03 0.  0.
         13    1    3    3    0    0 -0.97514853566E+02  0.62146727008E+02  0.16172321643E+03  0.19881086760E+03  0.00000000000E+00 0.  1.
          3    1    3    3  501    0  0.12069072504E+03 -0.37815744239E+02 -0.23309227999E+03  0.26519482011E+03  0.00000000000E+00 0.  1.
         21    1    1    2  502  501 -0.23175871471E+02 -0.24330982768E+02  0.31289035069E+02  0.45914283796E+02  0.00000000000E+00 0. -1.
<scales pt_clust_4="550.00000" pt_clust_5="550.00000" pt_clust_6="33.60235"></scales>
<mgrwt>
<rscale>  0 0.30000000E+03</rscale>
<asrwt>  1 0.33602347E+02</asrwt>
<pdfrwt beam="1">  1        1 0.85425444E+00 0.30000000E+03</pdfrwt>
<pdfrwt beam="2">0</pdfrwt>
<totfact> 0.37338896E-04</totfact>
</mgrwt>
<clustering>
<clus scale="   33.602">  1  6  2 -1</clus>
<clus scale="  457.251">  4  5 -1 -1</clus>
<clus scale="  300.000">  1  4  2 -1</clus>
</clustering>
</event>
<event>
 6    1  0.9678510E-012  0.3000000E+03  0.7818608E-02  0.1093470E+00
          1   -1    0    0  502    0  0.00000000000E+00  0.00000000000E+00  0.23844905666E+03  0.23844905666E+03  0.00000000000E+00 0.  1.
         13   -1    0    0    0    0 -0.00000000000E+00 -0.00000000000E+00 -0.27500000000E+03  0.27500000000E+03  0.00000000000E+00 0.  1.
    9000005    2    1    2  501    0 -0.78528014408E+01 -0.46580837958E+02 -0.44235028778E+02  0.46559003322E+03  0.46107038541E+03 0.  0.
         13    1    3    3    0    0 -0.55827353728E+02  0.61016014571E+02 -0.23067298566E+03  0.24505034947E+03  0.00000000000E+00 0.  1.
          3    1    3    3  501    0  0.47974552287E+02 -0.10759685253E+03  0.18643795689E+03  0.22053968375E+03  0.00000000000E+00 0.  1.
         21    1    1    2  502  501  0.78528014408E+01  0.46580837958E+02  0.76840854332E+01  0.47859023436E+02  0.00000000000E+00 0.  1.
<scales pt_clust_4="550.00000" pt_clust_5="550.00000" pt_clust_6="47.23813"></scales>
<mgrwt>
<rscale>  0 0.30000000E+03</rscale>
<asrwt>  1 0.47238130E+02</asrwt>
<pdfrwt beam="1">  1        1 0.86708748E+00 0.30000000E+03</pdfrwt>
<pdfrwt beam="2">0</pdfrwt>
<totfact> 0.25702556E-04</totfact>
</mgrwt>
<clustering>
<clus scale="   47.238">  1  6  2 -1</clus>
<clus scale="  461.070">  4  5 -1 -1</clus>
<clus scale="  300.000">  1  4  2 -1</clus>
</clustering>
</event>
<event>
 6    1  0.9678510E-012  0.3000000E+03  0.7818608E-02  0.1093470E+00
          1   -1    0    0  502    0  0.00000000000E+00  0.00000000000E+00  0.22962762844E+03  0.22962762844E+03  0.00000000000E+00 0.  1.
         13   -1    0    0    0    0 -0.00000000000E+00 -0.00000000000E+00 -0.27500000000E+03  0.27500000000E+03  0.00000000000E+00 0.  1.
    9000005    2    1    2  501    0 -0.65793782233E+01  0.29620305474E+02 -0.48333607010E+02  0.47414124411E+03  0.47069430747E+03 0.  0.
         13    1    3    3    0    0 -0.99827104651E+02 -0.19639825543E+03 -0.63178126545E+02  0.22919249821E+03  0.00000000000E+00 0.  1.
          1    1    3    3  501    0  0.93247726428E+02  0.22601856091E+03  0.14844519535E+02  0.24494874590E+03  0.00000000000E+00 0.  1.
         21    1    1    2  502  501  0.65793782233E+01 -0.29620305474E+02  0.29612354468E+01  0.30486384331E+02  0.00000000000E+00 0.  1.
<scales pt_clust_4="550.00000" pt_clust_5="550.00000" pt_clust_6="30.34223"></scales>
<mgrwt>
<rscale>  0 0.30000000E+03</rscale>
<asrwt>  1 0.30342227E+02</asrwt>
<pdfrwt beam="1">  1        1 0.83500956E+00 0.30000000E+03</pdfrwt>
<pdfrwt beam="2">0</pdfrwt>
<totfact> 0.55574650E-04</totfact>
</mgrwt>
<clustering>
<clus scale="   30.342">  1  6  2 -1</clus>
<clus scale="  470.694">  4  5 -1 -1</clus>
<clus scale="  300.000">  1  4  2 -1</clus>
</clustering>
</event>
<event>
 6    1  0.9678510E-012  0.3000000E+03  0.7818608E-02  0.1093470E+00
          1   -1    0    0  502    0  0.00000000000E+00  0.00000000000E+00  0.23089847760E+03  0.23089847760E+03  0.00000000000E+00 0.  1.
         13   -1    0    0    0    0 -0.00000000000E+00 -0.00000000000E+00 -0.27500000000E+03  0.27500000000E+03  0.00000000000E+00 0.  1.
    9000005    2    1    2  501    0  0.34960381539E+02 -0.35184769443E+01 -0.45537216539E+02  0.47073217022E+03  0.46720501927E+03 0.  0.
         13    1    3    3    0    0  0.17424204982E+03 -0.12315572410E+03  0.10075914336E+03  0.23596616129E+03  0.00000000000E+00 0.  1.
          1    1    3    3  501    0 -0.13928166828E+03  0.11963724716E+03 -0.14629635990E+03  0.23476600892E+03  0.00000000000E+00 0.  1.
         21    1    1    2  502  501 -0.34960381539E+02  0.35184769443E+01  0.14356941398E+01  0.35166307384E+02  0.00000000000E+00 0.  1.
<scales pt_clust_4="550.00000" pt_clust_5="550.00000" pt_clust_6="35.13699"></scales>
<mgrwt>
<rscale>  0 0.30000000E+03</rscale>
<asrwt>  1 0.35136988E+02</asrwt>
<pdfrwt beam="1">  1        1 0.83963083E+00 0.30000000E+03</pdfrwt>
<pdfrwt beam="2">0</pdfrwt>
<totfact> 0.49991227E-04</totfact>
</mgrwt>
<clustering>
<clus scale="   35.137">  1  6  2 -1</clus>
<clus scale="  467.205">  4  5 -1 -1</clus>
<clus scale="  300.000">  1  4  2 -1</clus>
</clustering>
</event>
<event>
 6    1  0.9678510E-012  0.3000000E+03  0.7818608E-02  0.1093470E+00
          1   -1    0    0  502    0  0.00000000000E+00  0.00000000000E+00  0.24797216890E+03  0.24797216890E+03  0.00000000000E+00 0.  1.
         13   -1    0    0    0    0 -0.00000000000E+00 -0.00000000000E+00 -0.27500000000E+03  0.27500000000E+03  0.00000000000E+00 0.  1.
    9000005    2    1    2  501    0  0.85454740634E+01  0.33246480435E+02 -0.70618589278E+02  0.46748786673E+03  0.46084657621E+03 0.  0.
         13    1    3    3    0    0 -0.81391199092E+02  0.23076284866E+03 -0.27726322594E+02  0.24626158567E+03  0.00000000000E+00 0.  1.
          1    1    3    3  501    0  0.89936673155E+02 -0.19751636822E+03 -0.42892266684E+02  0.22122628107E+03  0.00000000000E+00 0.  1.
         21    1    1    2  502  501 -0.85454740634E+01 -0.33246480435E+02  0.43590758180E+02  0.55484302167E+02  0.00000000000E+00 0.  1.
<scales pt_clust_4="550.00000" pt_clust_5="550.00000" pt_clust_6="34.32716"></scales>
<mgrwt>
<rscale>  0 0.30000000E+03</rscale>
<asrwt>  1 0.34327155E+02</asrwt>
<pdfrwt beam="1">  1        1 0.90171698E+00 0.30000000E+03</pdfrwt>
<pdfrwt beam="2">0</pdfrwt>
<totfact> 0.10515637E-04</totfact>
</mgrwt>
<clustering>
<clus scale="   34.327">  1  6  2 -1</clus>
<clus scale="  460.847">  4  5 -1 -1</clus>
<clus scale="  300.000">  1  4  2 -1</clus>
</clustering>
</event>
<event>
 6    1  0.9678510E-012  0.3000000E+03  0.7818608E-02  0.1093470E+00
          1   -1    0    0  502    0  0.00000000000E+00  0.00000000000E+00  0.22720441290E+03  0.22720441290E+03  0.00000000000E+00 0.  1.
         13   -1    0    0    0    0 -0.00000000000E+00 -0.00000000000E+00 -0.27500000000E+03  0.27500000000E+03  0.00000000000E+00 0.  1.
    9000005    2    1    2  501    0  0.19031081201E+02  0.32071204253E+02 -0.50775729302E+02  0.46479284461E+03  0.46050349567E+03 0.  0.
         13    1    3    3    0    0 -0.17117659848E+03  0.11215132784E+03 -0.13143038633E+03  0.24321450338E+03  0.00000000000E+00 0.  1.
          3    1    3    3  501    0  0.19020767968E+03 -0.80080123586E+02  0.80654657032E+02  0.22157834123E+03  0.00000000000E+00 0.  1.
         21    1    1    2  502  501 -0.19031081201E+02 -0.32071204253E+02  0.29801421968E+01  0.37411568283E+02  0.00000000000E+00 0.  1.
<scales pt_clust_4="550.00000" pt_clust_5="550.00000" pt_clust_6="37.29268"></scales>
<mgrwt>
<rscale>  0 0.30000000E+03</rscale>
<asrwt>  1 0.37292683E+02</asrwt>
<pdfrwt beam="1">  1        1 0.82619787E+00 0.30000000E+03</pdfrwt>
<pdfrwt beam="2">0</pdfrwt>
<totfact> 0.62985723E-04</totfact>
</mgrwt>
<clustering>
<clus scale="   37.293">  1  6  2 -1</clus>
<clus scale="  460.503">  4  5 -1 -1</clus>
<clus scale="  300.000">  1  4  2 -1</clus>
</clustering>
</event>
<event>
 6    1  0.9678510E-012  0.3000000E+03  0.7818608E-02  0.1093470E+00
          1   -1    0    0  502    0  0.00000000000E+00  0.00000000000E+00  0.23682571736E+03  0.23682571736E+03  0.00000000000E+00 0.  1.
         13   -1    0    0    0    0 -0.00000000000E+00 -0.00000000000E+00 -0.27500000000E+03  0.27500000000E+03  0.00000000000E+00 0.  1.
    9000005    2    1    2  501    0 -0.43516010746E+02  0.96751879976E+01 -0.42831893055E+02  0.46700445244E+03  0.46289451831E+03 0.  0.
         13    1    3    3    0    0 -0.63245015118E+02  0.17645536254E+03 -0.17256828802E+03  0.25478665769E+03  0.00000000000E+00 0.  1.
          3    1    3    3  501    0  0.19729004372E+02 -0.16678017454E+03  0.12973639496E+03  0.21221779476E+03  0.00000000000E+00 0.  1.
         21    1    1    2  502  501  0.43516010746E+02 -0.96751879976E+01  0.46576104144E+01  0.44821264917E+02  0.00000000000E+00 0.  1.
<scales pt_clust_4="550.00000" pt_clust_5="550.00000" pt_clust_6="44.57861"></scales>
<mgrwt>
<rscale>  0 0.30000000E+03</rscale>
<asrwt>  1 0.44578610E+02</asrwt>
<pdfrwt beam="1">  1        1 0.86118443E+00 0.30000000E+03</pdfrwt>
<pdfrwt beam="2">0</pdfrwt>
<totfact> 0.30054645E-04</totfact>
</mgrwt>
<clustering>
<clus scale="   44.579">  1  6  2 -1</clus>
<clus scale="  462.895">  4  5 -1 -1</clus>
<clus scale="  300.000">  1  4  2 -1</clus>
</clustering>
</event>
<event>
 6    1  0.9678510E-012  0.3000000E+03  0.7818608E-02  0.1093470E+00
          1   -1    0    0  502    0  0.00000000000E+00  0.00000000000E+00  0.23277240469E+03  0.23277240469E+03  0.00000000000E+00 0.  1.
         13   -1    0    0    0    0 -0.00000000000E+00 -0.00000000000E+00 -0.27500000000E+03  0.27500000000E+03  0.00000000000E+00 0.  1.
    9000005    2    1    2  501    0  0.16079082168E+02  0.27839752281E+02 -0.48188987579E+02  0.47507489885E+03  0.47152984243E+03 0.  0.
         13    1    3    3    0    0  0.19210816457E+03 -0.97693948912E+02  0.72593528917E+02  0.22741916143E+03  0.00000000000E+00 0.  1.
          1    1    3    3  501    0 -0.17602908240E+03  0.12553370119E+03 -0.12078251650E+03  0.24765573742E+03  0.00000000000E+00 0.  1.
         21    1    1    2  502  501 -0.16079082168E+02 -0.27839752281E+02  0.59613922725E+01  0.32697505842E+02  0.00000000000E+00 0.  1.
<scales pt_clust_4="550.00000" pt_clust_5="550.00000" pt_clust_6="32.14947"></scales>
<mgrwt>
<rscale>  0 0.30000000E+03</rscale>
<asrwt>  1 0.32149474E+02</asrwt>
<pdfrwt beam="1">  1        1 0.84644511E+00 0.30000000E+03</pdfrwt>
<pdfrwt beam="2">0</pdfrwt>
<totfact> 0.44580559E-04</totfact>
</mgrwt>
<clustering>
<clus scale="   32.149">  1  6  2 -1</clus>
<clus scale="  471.530">  4  5 -1 -1</clus>
<clus scale="  300.000">  1  4  2 -1</clus>
</clustering>
</event>
<event>
 6    1  0.9678510E-012  0.3000000E+03  0.7818608E-02  0.1093470E+00
          1   -1    0    0  502    0  0.00000000000E+00  0.00000000000E+00  0.23792772860E+03  0.23792772860E+03  0.00000000000E+00 0.  1.
         13   -1    0    0    0    0 -0.00000000000E+00 -0.00000000000E+00 -0.27500000000E+03  0.27500000000E+03  0.00000000000E+00 0.  1.
    9000005    2    1    2  501    0  0.50158568759E+01 -0.38372750505E+02 -0.57122028422E+02  0.46934310335E+03  0.46424389682E+03 0.  0.
         13    1    3    3    0    0 -0.20721720106E+03 -0.75755869845E+02  0.53621106518E+02  0.22705317284E+03  0.00000000000E+00 0.  1.
          1    1    3    3  501    0  0.21223305794E+03  0.37383119341E+02 -0.11074313494E+03  0.24228993051E+03  0.00000000000E+00 0.  1.
         21    1    1    2  502  501 -0.50158568759E+01  0.38372750505E+02  0.20049757022E+02  0.43584625249E+02  0.00000000000E+00 0. -1.
<scales pt_clust_4="550.00000" pt_clust_5="550.00000" pt_clust_6="38.69918"></scales>
<mgrwt>
<rscale>  0 0.30000000E+03</rscale>
<asrwt>  1 0.38699183E+02</asrwt>
<pdfrwt beam="1">  1        1 0.86519174E+00 0.30000000E+03</pdfrwt>
<pdfrwt beam="2">0</pdfrwt>
<totfact> 0.27910257E-04</totfact>
</mgrwt>
<clustering>
<clus scale="   38.699">  1  6  2 -1</clus>
<clus scale="  464.244">  4  5 -1 -1</clus>
<clus scale="  300.000">  1  4  2 -1</clus>
</clustering>
</event>
<event>
 6    1  0.9678510E-012  0.3000000E+03  0.7818608E-02  0.1093470E+00
          1   -1    0    0  502    0  0.00000000000E+00  0.00000000000E+00  0.21920823447E+03  0.21920823447E+03  0.00000000000E+00 0.  1.
         13   -1    0    0    0    0 -0.00000000000E+00 -0.00000000000E+00 -0.27500000000E+03  0.27500000000E+03  0.00000000000E+00 0.  1.
    9000005    2    1    2  501    0 -0.20218116673E+02  0.26098704129E+02 -0.55248557059E+02  0.46118991116E+03  0.45667692793E+03 0.  0.
         13    1    3    3    0    0  0.15636660314E+03  0.82212862013E+02  0.11399069364E+03  0.21024592147E+03  0.00000000000E+00 0.  1.
          3    1    3    3  501    0 -0.17658471981E+03 -0.56114157884E+02 -0.16923925070E+03  0.25094398969E+03  0.00000000000E+00 0.  1.
         21    1    1    2  502  501  0.20218116673E+02 -0.26098704129E+02 -0.54320846654E+00  0.33018323314E+02  0.00000000000E+00 0.  1.
<scales pt_clust_4="550.00000" pt_clust_5="550.00000" pt_clust_6="33.01385"></scales>
<mgrwt>
<rscale>  0 0.30000000E+03</rscale>
<asrwt>  1 0.33013855E+02</asrwt>
<pdfrwt beam="1">  1        1 0.79712085E+00 0.30000000E+03</pdfrwt>
<pdfrwt beam="2">0</pdfrwt>
<totfact> 0.11001528E-03</totfact>
</mgrwt>
<clustering>
<clus scale="   33.014">  1  6  2 -1</clus>
<clus scale="  456.677">  4  5 -1 -1</clus>
<clus scale="  300.000">  1  4  2 -1</clus>
</clustering>
</event>
<event>
 6    1  0.9678510E-012  0.3000000E+03  0.7818608E-02  0.1093470E+00
          1   -1    0    0  502    0  0.00000000000E+00  0.00000000000E+00  0.23386848717E+03  0.23386848717E+03  0.00000000000E+00 0.  1.
         13   -1    0    0    0    0 -0.00000000000E+00 -0.00000000000E+00 -0.27500000000E+03  0.27500000000E+03  0.00000000000E+00 0.  1.
    9000005    2    1    2  501    0 -0.13967204043E+02 -0.41668680321E+02 -0.53083344124E+02  0.46332501365E+03  0.45817121816E+03 0.  0.
         13    1    3    3    0    0  0.18125804815E+03 -0.15104412497E+03 -0.15870466701E+02  0.23647553662E+03  0.00000000000E+00 0.  1.
          1    1    3    3  501    0 -0.19522525219E+03  0.10937544465E+03 -0.37212877424E+02  0.22684947703E+03  0.00000000000E+00 0.  1.
         21    1    1    2  502  501  0.13967204043E+02  0.41668680321E+02  0.11951831294E+02  0.45543473515E+02  0.00000000000E+00 0.  1.
<scales pt_clust_4="550.00000" pt_clust_5="550.00000" pt_clust_6="43.94726"></scales>
<mgrwt>
<rscale>  0 0.30000000E+03</rscale>
<asrwt>  1 0.43947261E+02</asrwt>
<pdfrwt beam="1">  1        1 0.85043086E+00 0.30000000E+03</pdfrwt>
<pdfrwt beam="2">0</pdfrwt>
<totfact> 0.38674028E-04</totfact>
</mgrwt>
<clustering>
<clus scale="   43.947">  1  6  2 -1</clus>
<clus scale="  458.171">  4  5 -1 -1</clus>
<clus scale="  300.000">  1  4  2 -1</clus>
</clustering>
</event>
<event>
 6    1  0.9678510E-012  0.3000000E+03  0.7818608E-02  0.1093470E+00
          1   -1    0    0  502    0  0.00000000000E+00  0.00000000000E+00  0.23363935751E+03  0.23363935751E+03  0.00000000000E+00 0.  1.
         13   -1    0    0    0    0 -0.00000000000E+00 -0.00000000000E+00 -0.27500000000E+03  0.27500000000E+03  0.00000000000E+00 0.  1.
    9000005    2    1    2  501    0 -0.97206068984E+01  0.45374859944E+02 -0.39611609839E+02  0.46220201016E+03  0.45815745159E+03 0.  0.
         13    1    3    3    0    0 -0.61686970207E+01 -0.18000826500E+03 -0.12706182146E+03  0.22042172026E+03  0.00000000000E+00 0.  1.
          1    1    3    3  501    0 -0.35519098777E+01  0.22538312494E+03  0.87450211621E+02  0.24178028990E+03  0.00000000000E+00 0.  1.
         21    1    1    2  502  501  0.97206068984E+01 -0.45374859944E+02 -0.17490326558E+01  0.46437347347E+02  0.00000000000E+00 0.  1.
<scales pt_clust_4="550.00000" pt_clust_5="550.00000" pt_clust_6="46.40440"></scales>
<mgrwt>
<rscale>  0 0.30000000E+03</rscale>
<asrwt>  1 0.46404398E+02</asrwt>
<pdfrwt beam="1">  1        1 0.84959766E+00 0.30000000E+03</pdfrwt>
<pdfrwt beam="2">0</pdfrwt>
<totfact> 0.38995853E-04</totfact>
</mgrwt>
<clustering>
<clus scale="   46.404">  1  6  2 -1</clus>
<clus scale="  458.157">  4  5 -1 -1</clus>
<clus scale="  300.000">  1  4  2 -1</clus>
</clustering>
</event>
<event>
 6    1  0.9678510E-012  0.3000000E+03  0.7818608E-02  0.1093470E+00
          1   -1    0    0  502    0  0.00000000000E+00  0.00000000000E+00  0.23895902549E+03  0.23895902549E+03  0.00000000000E+00 0.  1.
         13   -1    0    0    0    0 -0.00000000000E+00 -0.00000000000E+00 -0.27500000000E+03  0.27500000000E+03  0.00000000000E+00 0.  1.
    9000005    2    1    2  501    0  0.31071701701E+02 -0.13704517143E+02 -0.45483653543E+02  0.47871092449E+03  0.47533369547E+03 0.  0.
         13    1    3    3    0    0 -0.80307700586E+02 -0.60424751079E+02 -0.23408628981E+03  0.25474863767E+03  0.00000000000E+00 0.  1.
          3    1    3    3  501    0  0.11137940229E+03  0.46720233936E+02  0.18860263627E+03  0.22396228682E+03  0.00000000000E+00 0.  1.
         21    1    1    2  502  501 -0.31071701701E+02  0.13704517143E+02  0.94426790314E+01  0.35248100999E+02  0.00000000000E+00 0.  1.
<scales pt_clust_4="550.00000" pt_clust_5="550.00000" pt_clust_6="33.95975"></scales>
<mgrwt>
<rscale>  0 0.30000000E+03</rscale>
<asrwt>  1 0.33959747E+02</asrwt>
<pdfrwt beam="1">  1        1 0.86894191E+00 0.30000000E+03</pdfrwt>
<pdfrwt beam="2">0</pdfrwt>
<totfact> 0.26113348E-04</totfact>
</mgrwt>
<clustering>
<clus scale="   33.960">  1  6  2 -1</clus>
<clus scale="  475.334">  4  5 -1 -1</clus>
<clus scale="  300.000">  1  4  2 -1</clus>
</clustering>
</event>
<event>
 6    1  0.9678510E-012  0.3000000E+03  0.7818608E-02  0.1093470E+00
          1   -1    0    0  502    0  0.00000000000E+00  0.00000000000E+00  0.24192817598E+03  0.24192817598E+03  0.00000000000E+00 0.  1.
         13   -1    0    0    0    0 -0.00000000000E+00 -0.00000000000E+00 -0.27500000000E+03  0.27500000000E+03  0.00000000000E+00 0.  1.
    9000005    2    1    2  501    0 -0.81916556333E+01  0.37946550747E+02 -0.56856350508E+02  0.47140073771E+03  0.46634640235E+03 0.  0.
         13    1    3    3    0    0 -0.78021095600E+02 -0.16282873618E+03  0.10076109572E+03  0.20676868016E+03  0.00000000000E+00 0.  1.
          1    1    3    3  501    0  0.69829439967E+02  0.20077528693E+03 -0.15761744623E+03  0.26463205755E+03  0.00000000000E+00 0.  1.
         21    1    1    2  502  501  0.81916556333E+01 -0.37946550747E+02  0.23784526489E+02  0.45527438275E+02  0.00000000000E+00 0.  1.
<scales pt_clust_4="550.00000" pt_clust_5="550.00000" pt_clust_6="38.82066"></scales>
<mgrwt>
<rscale>  0 0.30000000E+03</rscale>
<asrwt>  1 0.38820664E+02</asrwt>
<pdfrwt beam="1">  1        1 0.87973882E+00 0.30000000E+03</pdfrwt>
<pdfrwt beam="2">0</pdfrwt>
<totfact> 0.19505850E-04</totfact>
</mgrwt>
<clustering>
<clus scale="   38.821">  1  6  2 -1</clus>
<clus scale="  466.346">  4  5 -1 -1</clus>
<clus scale="  300.000">  1  4  2 -1</clus>
</clustering>
</event>
<event>
 6    1  0.9678510E-012  0.3000000E+03  0.7818608E-02  0.1093470E+00
          1   -1    0    0  502    0  0.00000000000E+00  0.00000000000E+00  0.22889283282E+03  0.22889283282E+03  0.00000000000E+00 0.  1.
         13   -1    0    0    0    0 -0.00000000000E+00 -0.00000000000E+00 -0.27500000000E+03  0.27500000000E+03  0.00000000000E+00 0.  1.
    9000005    2    1    2  501    0  0.55007398098E+01  0.33218486044E+02 -0.61320985926E+02  0.46694440614E+03  0.46167422405E+03 0.  0.
         13    1    3    3    0    0 -0.21684635957E+03 -0.50201949928E+02 -0.38802312100E+01  0.22261544338E+03  0.00000000000E+00 0.  1.
          1    1    3    3  501    0  0.22234709938E+03  0.83420435972E+02 -0.57440754716E+02  0.24432896276E+03  0.00000000000E+00 0.  1.
         21    1    1    2  502  501 -0.55007398098E+01 -0.33218486044E+02  0.15213818747E+02  0.36948426683E+02  0.00000000000E+00 0.  1.
<scales pt_clust_4="550.00000" pt_clust_5="550.00000" pt_clust_6="33.67085"></scales>
<mgrwt>
<rscale>  0 0.30000000E+03</rscale>
<asrwt>  1 0.33670847E+02</asrwt>
<pdfrwt beam="1">  1        1 0.83233757E+00 0.30000000E+03</pdfrwt>
<pdfrwt beam="2">0</pdfrwt>
<totfact> 0.57041543E-04</totfact>
</mgrwt>
<clustering>
<clus scale="   33.671">  1  6  2 -1</clus>
<clus scale="  461.674">  4  5 -1 -1</clus>
<clus scale="  300.000">  1  4  2 -1</clus>
</clustering>
</event>
<event>
 6    1  0.9678510E-012  0.3000000E+03  0.7818608E-02  0.1093470E+00
          1   -1    0    0  502    0  0.00000000000E+00  0.00000000000E+00  0.24158564834E+03  0.24158564834E+03  0.00000000000E+00 0.  1.
         13   -1    0    0    0    0 -0.00000000000E+00 -0.00000000000E+00 -0.27500000000E+03  0.27500000000E+03  0.00000000000E+00 0.  1.
    9000005    2    1    2  501    0 -0.31627560943E+02  0.15425832113E+02 -0.68112748272E+02  0.46716664759E+03  0.46083301882E+03 0.  0.
         13    1    3    3    0    0 -0.22413580276E+03  0.79908492004E+02  0.33219961391E+02  0.24026192168E+03  0.00000000000E+00 0.  1.
          3    1    3    3  501    0  0.19250824182E+03 -0.64482659890E+02 -0.10133270966E+03  0.22690472591E+03  0.00000000000E+00 0.  1.
         21    1    1    2  502  501  0.31627560943E+02 -0.15425832113E+02  0.34698396614E+02  0.49419000751E+02  0.00000000000E+00 0. -1.
<scales pt_clust_4="550.00000" pt_clust_5="550.00000" pt_clust_6="35.18890"></scales>
<mgrwt>
<rscale>  0 0.30000000E+03</rscale>
<asrwt>  1 0.35188903E+02</asrwt>
<pdfrwt beam="1">  1        1 0.87849327E+00 0.30000000E+03</pdfrwt>
<pdfrwt beam="2">0</pdfrwt>
<totfact> 0.20556978E-04</totfact>
</mgrwt>
<clustering>
<clus scale="   35.189">  1  6  2 -1</clus>
<clus scale="  460.833">  4  5 -1 -1</clus>
<clus scale="  300.000">  1  4  2 -1</clus>
</clustering>
</event>
<event>
 6    1  0.9678510E-012  0.3000000E+03  0.7818608E-02  0.1093470E+00
          1   -1    0    0  502    0  0.00000000000E+00  0.00000000000E+00  0.25596920222E+03  0.25596920222E+03  0.00000000000E+00 0.  1.
         13   -1    0    0    0    0 -0.00000000000E+00 -0.00000000000E+00 -0.27500000000E+03  0.27500000000E+03  0.00000000000E+00 0.  1.
    9000005    2    1    2  501    0  0.31510164235E+02  0.92597632777E+01 -0.74146478294E+02  0.46681024412E+03  0.45971237759E+03 0.  0.
         13    1    3    3    0    0  0.19378508913E+03 -0.14060831469E+03 -0.50140553626E+02  0.24461691284E+03  0.00000000000E+00 0.  1.
          3    1    3    3  501    0 -0.16227492490E+03  0.14986807797E+03 -0.24005924669E+02  0.22219333128E+03  0.00000000000E+00 0.  1.
         21    1    1    2  502  501 -0.31510164235E+02 -0.92597632777E+01  0.55115680517E+02  0.64158958103E+02  0.00000000000E+00 0.  1.
<scales pt_clust_4="550.00000" pt_clust_5="550.00000" pt_clust_6="32.84256"></scales>
<mgrwt>
<rscale>  0 0.30000000E+03</rscale>
<asrwt>  1 0.32842559E+02</asrwt>
<pdfrwt beam="1">  1        1 0.93079710E+00 0.30000000E+03</pdfrwt>
<pdfrwt beam="2">0</pdfrwt>
<totfact> 0.25867789E-05</totfact>
</mgrwt>
<clustering>
<clus scale="   32.843">  1  6  2 -1</clus>
<clus scale="  459.712">  4  5 -1 -1</clus>
<clus scale="  300.000">  1  4  2 -1</clus>
</clustering>
</event>
<event>
 6    1  0.9678510E-012  0.3000000E+03  0.7818608E-02  0.1093470E+00
          1   -1    0    0  502    0  0.00000000000E+00  0.00000000000E+00  0.24961414165E+03  0.24961414165E+03  0.00000000000E+00 0.  1.
         13   -1    0    0    0    0 -0.00000000000E+00 -0.00000000000E+00 -0.27500000000E+03  0.27500000000E+03  0.00000000000E+00 0.  1.
    9000005    2    1    2  501    0  0.27765010060E+02  0.24533805555E+02 -0.65671308689E+02  0.46988096243E+03  0.46379154226E+03 0.  0.
         13    1    3    3    0    0  0.23537667440E+03  0.76284469777E+02 -0.49972208607E+01  0.24748024446E+03  0.00000000000E+00 0.  1.
          3    1    3    3  501    0 -0.20761166434E+03 -0.51750664222E+02 -0.60674087828E+02  0.22240071797E+03  0.00000000000E+00 0.  1.
         21    1    1    2  502  501 -0.27765010060E+02 -0.24533805555E+02  0.40285450339E+02  0.54733179221E+02  0.00000000000E+00 0.  1.
<scales pt_clust_4="550.00000" pt_clust_5="550.00000" pt_clust_6="37.05136"></scales>
<mgrwt>
<rscale>  0 0.30000000E+03</rscale>
<asrwt>  1 0.37051362E+02</asrwt>
<pdfrwt beam="1">  1        1 0.90768779E+00 0.30000000E+03</pdfrwt>
<pdfrwt beam="2">0</pdfrwt>
<totfact> 0.80518266E-05</totfact>
</mgrwt>
<clustering>
<clus scale="   37.051">  1  6  2 -1</clus>
<clus scale="  463.792">  4  5 -1 -1</clus>
<clus scale="  300.000">  1  4  2 -1</clus>
</clustering>
</event>
<event>
 6    1  0.9678510E-012  0.3000000E+03  0.7818608E-02  0.1093470E+00
          1   -1    0    0  502    0  0.00000000000E+00  0.00000000000E+00  0.22549863379E+03  0.22549863379E+03  0.00000000000E+00 0.  1.
         13   -1    0    0    0    0 -0.00000000000E+00 -0.00000000000E+00 -0.27500000000E+03  0.27500000000E+03  0.00000000000E+00 0.  1.
    9000005    2    1    2  501    0 -0.21668189451E+02  0.27845882724E+02 -0.62991620882E+02  0.46272442844E+03  0.45705694258E+03 0.  0.
         13    1    3    3    0    0  0.67307002538E+02 -0.89843657058E+02  0.15993323527E+03  0.19539896379E+03  0.00000000000E+00 0.  1.
          3    1    3    3  501    0 -0.88975191989E+02  0.11768953978E+03 -0.22292485615E+03  0.26732546466E+03  0.00000000000E+00 0.  1.
         21    1    1    2  502  501  0.21668189451E+02 -0.27845882724E+02  0.13490254676E+02  0.37774205352E+02  0.00000000000E+00 0.  1.
<scales pt_clust_4="550.00000" pt_clust_5="550.00000" pt_clust_6="35.28319"></scales>
<mgrwt>
<rscale>  0 0.30000000E+03</rscale>
<asrwt>  1 0.35283192E+02</asrwt>
<pdfrwt beam="1">  1        1 0.81999503E+00 0.30000000E+03</pdfrwt>
<pdfrwt beam="2">0</pdfrwt>
<totfact> 0.72227441E-04</totfact>
</mgrwt>
<clustering>
<clus scale="   35.283">  1  6  2 -1</clus>
<clus scale="  457.057">  4  5 -1 -1</clus>
<clus scale="  300.000">  1  4  2 -1</clus>
</clustering>
</event>
<event>
 6    1  0.9678510E-012  0.3000000E+03  0.7818608E-02  0.1093470E+00
          1   -1    0    0  502    0  0.00000000000E+00  0.00000000000E+00  0.23838327312E+03  0.23838327312E+03  0.00000000000E+00 0.  1.
         13   -1    0    0    0    0 -0.00000000000E+00 -0.00000000000E+00 -0.27500000000E+03  0.27500000000E+03  0.00000000000E+00 0.  1.
    9000005    2    1    2  501    0 -0.28415010404E+02  0.10852640893E+02 -0.74321256787E+02  0.46493924143E+03  0.45795158738E+03 0.  0.
         13    1    3    3    0    0 -0.42461795730E+02  0.22122978689E+03  0.34126975899E+02  0.22783826103E+03  0.00000000000E+00 0.  1.
          1    1    3    3  501    0  0.14046785326E+02 -0.21037714600E+03 -0.10844823269E+03  0.23710098040E+03  0.00000000000E+00 0.  1.
         21    1    1    2  502  501  0.28415010404E+02 -0.10852640893E+02  0.37704529910E+02  0.48444031690E+02  0.00000000000E+00 0. -1.
<scales pt_clust_4="550.00000" pt_clust_5="550.00000" pt_clust_6="30.41698"></scales>
<mgrwt>
<rscale>  0 0.30000000E+03</rscale>
<asrwt>  1 0.30416979E+02</asrwt>
<pdfrwt beam="1">  1        1 0.86684827E+00 0.30000000E+03</pdfrwt>
<pdfrwt beam="2">0</pdfrwt>
<totfact> 0.28037932E-04</totfact>
</mgrwt>
<clustering>
<clus scale="   30.417">  1  6  2 -1</clus>
<clus scale="  457.952">  4  5 -1 -1</clus>
<clus scale="  300.000">  1  4  2 -1</clus>
</clustering>
</event>
<event>
 6    1  0.9678510E-012  0.3000000E+03  0.7818608E-02  0.1093470E+00
          1   -1    0    0  502    0  0.00000000000E+00  0.00000000000E+00  0.22479181315E+03  0.22479181315E+03  0.00000000000E+00 0.  1.
         13   -1    0    0    0    0 -0.00000000000E+00 -0.00000000000E+00 -0.27500000000E+03  0.27500000000E+03  0.00000000000E+00 0.  1.
    9000005    2    1    2  501    0  0.74551622996E+01 -0.29503200588E+02 -0.37635743777E+02  0.46686637291E+03  0.46435088312E+03 0.  0.
         13    1    3    3    0    0  0.18137643447E+03 -0.13661326868E+03  0.67834730968E+02  0.23698554151E+03  0.00000000000E+00 0.  1.
          3    1    3    3  501    0 -0.17392127217E+03  0.10711006809E+03 -0.10547047474E+03  0.22988083140E+03  0.00000000000E+00 0.  1.
         21    1    1    2  502  501 -0.74551622996E+01  0.29503200588E+02 -0.12572443078E+02  0.32925440237E+02  0.00000000000E+00 0.  1.
<scales pt_clust_4="550.00000" pt_clust_5="550.00000" pt_clust_6="30.43056"></scales>
<mgrwt>
<rscale>  0 0.30000000E+03</rscale>
<asrwt>  1 0.30430564E+02</asrwt>
<pdfrwt beam="1">  1        1 0.81742478E+00 0.30000000E+03</pdfrwt>
<pdfrwt beam="2">0</pdfrwt>
<totfact> 0.78097289E-04</totfact>
</mgrwt>
<clustering>
<clus scale="   30.431">  1  6  2 -1</clus>
<clus scale="  464.351">  4  5 -1 -1</clus>
<clus scale="  300.000">  1  4  2 -1</clus>
</clustering>
</event>
<event>
 6    1  0.9678510E-012  0.3000000E+03  0.7818608E-02  0.1093470E+00
          1   -1    0    0  502    0  0.00000000000E+00  0.00000000000E+00  0.24215261240E+03  0.24215261240E+03  0.00000000000E+00 0.  1.
         13   -1    0    0    0    0 -0.00000000000E+00 -0.00000000000E+00 -0.27500000000E+03  0.27500000000E+03  0.00000000000E+00 0.  1.
    9000005    2    1    2  501    0 -0.29424603735E+02  0.15861853032E+02 -0.49969905098E+02  0.47959483967E+03  0.47581174128E+03 0.  0.
         13    1    3    3    0    0  0.58140355986E+02  0.14651329088E+03 -0.20510464013E+03  0.25867809881E+03  0.00000000000E+00 0.  1.
          1    1    3    3  501    0 -0.87564959721E+02 -0.13065143784E+03  0.15513473503E+03  0.22091674087E+03  0.00000000000E+00 0.  1.
         21    1    1    2  502  501  0.29424603735E+02 -0.15861853032E+02  0.17122517495E+02  0.37557772724E+02  0.00000000000E+00 0. -1.
<scales pt_clust_4="550.00000" pt_clust_5="550.00000" pt_clust_6="33.42762"></scales>
<mgrwt>
<rscale>  0 0.30000000E+03</rscale>
<asrwt>  1 0.33427619E+02</asrwt>
<pdfrwt beam="1">  1        1 0.88055495E+00 0.30000000E+03</pdfrwt>
<pdfrwt beam="2">0</pdfrwt>
<totfact> 0.19595145E-04</totfact>
</mgrwt>
<clustering>
<clus scale="   33.428">  1  6  2 -1</clus>
<clus scale="  475.812">  4  5 -1 -1</clus>
<clus scale="  300.000">  1  4  2 -1</clus>
</clustering>
</event>
<event>
 6    1  0.9678510E-012  0.3000000E+03  0.7818608E-02  0.1093470E+00
          1   -1    0    0  502    0  0.00000000000E+00  0.00000000000E+00  0.23596742633E+03  0.23596742633E+03  0.00000000000E+00 0.  1.
         13   -1    0    0    0    0 -0.00000000000E+00 -0.00000000000E+00 -0.27500000000E+03  0.27500000000E+03  0.00000000000E+00 0.  1.
    9000005    2    1    2  501    0  0.45994783456E+01 -0.42670436379E+02 -0.27979048950E+02  0.46664923874E+03  0.46382837720E+03 0.  0.
         13    1    3    3    0    0 -0.27663951722E+02 -0.21023500724E+03 -0.14750879223E+03  0.25830775498E+03  0.00000000000E+00 0.  1.
          3    1    3    3  501    0  0.32263430068E+02  0.16756457087E+03  0.11952974328E+03  0.20834148377E+03  0.00000000000E+00 0.  1.
         21    1    1    2  502  501 -0.45994783456E+01  0.42670436379E+02 -0.11053524724E+02  0.44318187583E+02  0.00000000000E+00 0. -1.
<scales pt_clust_4="550.00000" pt_clust_5="550.00000" pt_clust_6="42.91763"></scales>
<mgrwt>
<rscale>  0 0.30000000E+03</rscale>
<asrwt>  1 0.42917633E+02</asrwt>
<pdfrwt beam="1">  1        1 0.85806337E+00 0.30000000E+03</pdfrwt>
<pdfrwt beam="2">0</pdfrwt>
<totfact> 0.32660477E-04</totfact>
</mgrwt>
<clustering>
<clus scale="   42.918">  1  6  2 -1</clus>
<clus scale="  463.828">  4  5 -1 -1</clus>
<clus scale="  300.000">  1  4  2 -1</clus>
</clustering>
</event>
<event>
 6    1  0.9678510E-012  0.3000000E+03  0.7818608E-02  0.1093470E+00
          1   -1    0    0  502    0  0.00000000000E+00  0.00000000000E+00  0.22782020209E+03  0.22782020209E+03  0.00000000000E+00 0.  1.
         13   -1    0    0    0    0 -0.00000000000E+00 -0.00000000000E+00 -0.27500000000E+03  0.27500000000E+03  0.00000000000E+00 0.  1.
    9000005    2    1    2  501    0 -0.18340499674E+02 -0.25723846093E+02 -0.60135875685E+02  0.46867419006E+03  0.46372522327E+03 0.  0.
         13    1    3    3    0    0  0.14931377333E+03 -0.13650029488E+03  0.86391558273E+02  0.21997825972E+03  0.00000000000E+00 0.  1.
          3    1    3    3  501    0 -0.16765427301E+03  0.11077644879E+03 -0.14652743396E+03  0.24869593034E+03  0.00000000000E+00 0.  1.
         21    1    1    2  502  501  0.18340499674E+02  0.25723846093E+02  0.12956077771E+02  0.34146012026E+02  0.00000000000E+00 0.  1.
<scales pt_clust_4="550.00000" pt_clust_5="550.00000" pt_clust_6="31.59257"></scales>
<mgrwt>
<rscale>  0 0.30000000E+03</rscale>
<asrwt>  1 0.31592565E+02</asrwt>
<pdfrwt beam="1">  1        1 0.82843710E+00 0.30000000E+03</pdfrwt>
<pdfrwt beam="2">0</pdfrwt>
<totfact> 0.62112947E-04</totfact>
</mgrwt>
<clustering>
<clus scale="   31.593">  1  6  2 -1</clus>
<clus scale="  463.725">  4  5 -1 -1</clus>
<clus scale="  300.000">  1  4  2 -1</clus>
</clustering>
</event>
<event>
 6    1  0.9678510E-012  0.3000000E+03  0.7818608E-02  0.1093470E+00
          1   -1    0    0  502    0  0.00000000000E+00  0.00000000000E+00  0.24382495499E+03  0.24382495499E+03  0.00000000000E+00 0.  1.
         13   -1    0    0    0    0 -0.00000000000E+00 -0.00000000000E+00 -0.27500000000E+03  0.27500000000E+03  0.00000000000E+00 0.  1.
    9000005    2    1    2  501    0 -0.27585848175E+02 -0.31786169700E+02 -0.22078830553E+02  0.47576591736E+03  0.47338609376E+03 0.  0.
         13    1    3    3    0    0 -0.15745779226E+03  0.33563904337E+02 -0.19302700769E+03  0.25135416789E+03  0.00000000000E+00 0.  1.
          1    1    3    3  501    0  0.12987194409E+03 -0.65350074038E+02  0.17094817713E+03  0.22441174947E+03  0.00000000000E+00 0.  1.
         21    1    1    2  502  501  0.27585848175E+02  0.31786169700E+02 -0.90962144589E+01  0.43059037626E+02  0.00000000000E+00 0.  1.
<scales pt_clust_4="550.00000" pt_clust_5="550.00000" pt_clust_6="42.08731"></scales>
<mgrwt>
<rscale>  0 0.30000000E+03</rscale>
<asrwt>  1 0.42087307E+02</asrwt>
<pdfrwt beam="1">  1        1 0.88663620E+00 0.30000000E+03</pdfrwt>
<pdfrwt beam="2">0</pdfrwt>
<totfact> 0.15575375E-04</totfact>
</mgrwt>
<clustering>
<clus scale="   42.087">  1  6  2 -1</clus>
<clus scale="  473.386">  4  5 -1 -1</clus>
<clus scale="  300.000">  1  4  2 -1</clus>
</clustering>
</event>
<event>
 6    1  0.9678510E-012  0.3000000E+03  0.7818608E-02  0.1093470E+00
          1   -1    0    0  502    0  0.00000000000E+00  0.00000000000E+00  0.25037428959E+03  0.25037428959E+03  0.00000000000E+00 0.  1.
         13   -1    0    0    0    0 -0.00000000000E+00 -0.00000000000E+00 -0.27500000000E+03  0.27500000000E+03  0.00000000000E+00 0.  1.
    9000005    2    1    2  501    0 -0.26598700628E+01 -0.38760818817E+02 -0.30145238805E+02  0.48613220532E+03  0.48363861471E+03 0.  0.
         13    1    3    3    0    0  0.18791114466E+03  0.11809980527E+03  0.48309291542E+02  0.22713861394E+03  0.00000000000E+00 0.  1.
          3    1    3    3  501    0 -0.19057101473E+03 -0.15686062409E+03 -0.78454530347E+02  0.25899359138E+03  0.00000000000E+00 0.  1.
         21    1    1    2  502  501  0.26598700628E+01  0.38760818817E+02  0.55195283931E+01  0.39242084269E+02  0.00000000000E+00 0.  1.
<scales pt_clust_4="550.00000" pt_clust_5="550.00000" pt_clust_6="38.85198"></scales>
<mgrwt>
<rscale>  0 0.30000000E+03</rscale>
<asrwt>  1 0.38851975E+02</asrwt>
<pdfrwt beam="1">  1        1 0.91045196E+00 0.30000000E+03</pdfrwt>
<pdfrwt beam="2">0</pdfrwt>
<totfact> 0.68711043E-05</totfact>
</mgrwt>
<clustering>
<clus scale="   38.852">  1  6  2 -1</clus>
<clus scale="  483.639">  4  5 -1 -1</clus>
<clus scale="  300.000">  1  4  2 -1</clus>
</clustering>
</event>
<event>
 6    1  0.9678510E-012  0.3000000E+03  0.7818608E-02  0.1093470E+00
          1   -1    0    0  502    0  0.00000000000E+00  0.00000000000E+00  0.24274704224E+03  0.24274704224E+03  0.00000000000E+00 0.  1.
         13   -1    0    0    0    0 -0.00000000000E+00 -0.00000000000E+00 -0.27500000000E+03  0.27500000000E+03  0.00000000000E+00 0.  1.
    9000005    2    1    2  501    0  0.14646945243E+02  0.26564038394E+02 -0.54633906204E+02  0.48004972146E+03  0.47596500945E+03 0.  0.
         13    1    3    3    0    0  0.85358525751E+02 -0.16208165365E+03 -0.16827728788E+03  0.24874441900E+03  0.00000000000E+00 0.  1.
          1    1    3    3  501    0 -0.70711580508E+02  0.18864569205E+03  0.11364338167E+03  0.23130530246E+03  0.00000000000E+00 0.  1.
         21    1    1    2  502  501 -0.14646945243E+02 -0.26564038394E+02  0.22380948439E+02  0.37697320777E+02  0.00000000000E+00 0.  1.
<scales pt_clust_4="550.00000" pt_clust_5="550.00000" pt_clust_6="30.33449"></scales>
<mgrwt>
<rscale>  0 0.30000000E+03</rscale>
<asrwt>  1 0.30334488E+02</asrwt>
<pdfrwt beam="1">  1        1 0.88271652E+00 0.30000000E+03</pdfrwt>
<pdfrwt beam="2">0</pdfrwt>
<totfact> 0.18719311E-04</totfact>
</mgrwt>
<clustering>
<clus scale="   30.334">  1  6  2 -1</clus>
<clus scale="  475.965">  4  5 -1 -1</clus>
<clus scale="  300.000">  1  4  2 -1</clus>
</clustering>
</event>
<event>
 6    1  0.9678510E-012  0.3000000E+03  0.7818608E-02  0.1093470E+00
          1   -1    0    0  502    0  0.00000000000E+00  0.00000000000E+00  0.22909465169E+03  0.22909465169E+03  0.00000000000E+00 0.  1.
         13   -1    0    0    0    0 -0.00000000000E+00 -0.00000000000E+00 -0.27500000000E+03  0.27500000000E+03  0.00000000000E+00 0.  1.
    9000005    2    1    2  501    0  0.31407780709E+02  0.15027122604E+01 -0.40443277143E+02  0.47218006169E+03  0.46939284736E+03 0.  0.
         13    1    3    3    0    0  0.24852139772E+03  0.34206076603E+02 -0.23606759799E+02  0.25197265707E+03  0.00000000000E+00 0.  1.
          3    1    3    3  501    0 -0.21711361701E+03 -0.32703364342E+02 -0.16836517344E+02  0.22020740462E+03  0.00000000000E+00 0.  1.
         21    1    1    2  502  501 -0.31407780709E+02 -0.15027122604E+01 -0.54620711713E+01  0.31914589997E+02  0.00000000000E+00 0. -1.
<scales pt_clust_4="550.00000" pt_clust_5="550.00000" pt_clust_6="31.44372"></scales>
<mgrwt>
<rscale>  0 0.30000000E+03</rscale>
<asrwt>  1 0.31443725E+02</asrwt>
<pdfrwt beam="1">  1        1 0.83307146E+00 0.30000000E+03</pdfrwt>
<pdfrwt beam="2">0</pdfrwt>
<totfact> 0.57049364E-04</totfact>
</mgrwt>
<clustering>
<clus scale="   31.444">  1  6  2 -1</clus>
<clus scale="  469.393">  4  5 -1 -1</clus>
<clus scale="  300.000">  1  4  2 -1</clus>
</clustering>
</event>
<event>
 6    1  0.9678510E-012  0.3000000E+03  0.7818608E-02  0.1093470E+00
          1   -1    0    0  502    0  0.00000000000E+00  0.00000000000E+00  0.25245283107E+03  0.25245283107E+03  0.00000000000E+00 0.  1.
         13   -1    0    0    0    0 -0.00000000000E+00 -0.00000000000E+00 -0.27500000000E+03  0.27500000000E+03  0.00000000000E+00 0.  1.
    9000005    2    1    2  501    0 -0.44810671403E+02 -0.26581745797E+02 -0.19173008012E+02  0.47524200419E+03  0.47198810666E+03 0.  0.
         13    1    3    3    0    0 -0.15105277226E+03  0.13524756895E+03 -0.14059147624E+03  0.24672820695E+03  0.00000000000E+00 0.  1.
          1    1    3    3  501    0  0.10624210085E+03 -0.16182931474E+03  0.12141846823E+03  0.22851379725E+03  0.00000000000E+00 0.  1.
         21    1    1    2  502  501  0.44810671403E+02  0.26581745797E+02 -0.33741609176E+01  0.52210826876E+02  0.00000000000E+00 0.  1.
<scales pt_clust_4="550.00000" pt_clust_5="550.00000" pt_clust_6="52.10171"></scales>
<mgrwt>
<rscale>  0 0.30000000E+03</rscale>
<asrwt>  1 0.52101710E+02</asrwt>
<pdfrwt beam="1">  1        1 0.91801029E+00 0.30000000E+03</pdfrwt>
<pdfrwt beam="2">0</pdfrwt>
<totfact> 0.43033440E-05</totfact>
</mgrwt>
<clustering>
<clus scale="   52.102">  1  6  2 -1</clus>
<clus scale="  471.988">  4  5 -1 -1</clus>
<clus scale="  300.000">  1  4  2 -1</clus>
</clustering>
</event>
<event>
 6    1  0.9678510E-012  0.3000000E+03  0.7818608E-02  0.1093470E+00
          1   -1    0    0  502    0  0.00000000000E+00  0.00000000000E+00  0.22584070351E+03  0.22584070351E+03  0.00000000000E+00 0.  1.
         13   -1    0    0    0    0 -0.00000000000E+00 -0.00000000000E+00 -0.27500000000E+03  0.27500000000E+03  0.00000000000E+00 0.  1.
    9000005    2    1    2  501    0  0.31976465143E+02  0.35013735805E+01 -0.65467588525E+02  0.46477528615E+03  0.45901558528E+03 0.  0.
         13    1    3    3    0    0  0.16468559924E+03  0.13628023547E+03  0.79002175087E+02  0.22789250283E+03  0.00000000000E+00 0.  1.
          1    1    3    3  501    0 -0.13270913410E+03 -0.13277886188E+03 -0.14446976361E+03  0.23688278332E+03  0.00000000000E+00 0.  1.
         21    1    1    2  502  501 -0.31976465143E+02 -0.35013735805E+01  0.16308292035E+02  0.36065417356E+02  0.00000000000E+00 0. -1.
<scales pt_clust_4="550.00000" pt_clust_5="550.00000" pt_clust_6="32.16759"></scales>
<mgrwt>
<rscale>  0 0.30000000E+03</rscale>
<asrwt>  1 0.32167591E+02</asrwt>
<pdfrwt beam="1">  1        1 0.82123892E+00 0.30000000E+03</pdfrwt>
<pdfrwt beam="2">0</pdfrwt>
<totfact> 0.71681136E-04</totfact>
</mgrwt>
<clustering>
<clus scale="   32.168">  1  6  2 -1</clus>
<clus scale="  459.016">  4  5 -1 -1</clus>
<clus scale="  300.000">  1  4  2 -1</clus>
</clustering>
</event>
<event>
 6    1  0.9678510E-012  0.3000000E+03  0.7818608E-02  0.1093470E+00
          1   -1    0    0  502    0  0.00000000000E+00  0.00000000000E+00  0.22492656468E+03  0.22492656468E+03  0.00000000000E+00 0.  1.
         13   -1    0    0    0    0 -0.00000000000E+00 -0.00000000000E+00 -0.27500000000E+03  0.27500000000E+03  0.00000000000E+00 0.  1.
    9000005    2    1    2  501    0  0.32537160227E+02 -0.27025016605E+01 -0.44867571994E+02  0.46686493550E+03  0.46355560473E+03 0.  0.
         13    1    3    3    0    0  0.21668495927E+03  0.11156268953E+03 -0.55233178528E+02  0.24989859800E+03  0.00000000000E+00 0.  1.
          1    1    3    3  501    0 -0.18414779905E+03 -0.11426519119E+03  0.10365606534E+02  0.21696633750E+03  0.00000000000E+00 0.  1.
         21    1    1    2  502  501 -0.32537160227E+02  0.27025016605E+01 -0.52058633282E+01  0.33061629177E+02  0.00000000000E+00 0. -1.
<scales pt_clust_4="550.00000" pt_clust_5="550.00000" pt_clust_6="32.64922"></scales>
<mgrwt>
<rscale>  0 0.30000000E+03</rscale>
<asrwt>  1 0.32649217E+02</asrwt>
<pdfrwt beam="1">  1        1 0.81791478E+00 0.30000000E+03</pdfrwt>
<pdfrwt beam="2">0</pdfrwt>
<totfact> 0.76337640E-04</totfact>
</mgrwt>
<clustering>
<clus scale="   32.649">  1  6  2 -1</clus>
<clus scale="  463.556">  4  5 -1 -1</clus>
<clus scale="  300.000">  1  4  2 -1</clus>
</clustering>
</event>
<event>
 6    1  0.9678510E-012  0.3000000E+03  0.7818608E-02  0.1093470E+00
          1   -1    0    0  502    0  0.00000000000E+00  0.00000000000E+00  0.22248111611E+03  0.22248111611E+03  0.00000000000E+00 0.  1.
         13   -1    0    0    0    0 -0.00000000000E+00 -0.00000000000E+00 -0.27500000000E+03  0.27500000000E+03  0.00000000000E+00 0.  1.
    9000005    2    1    2  501    0 -0.30582041143E+02 -0.56225150353E+00 -0.67434084733E+02  0.46345112076E+03  0.45749754992E+03 0.  0.
         13    1    3    3    0    0  0.56850929145E+02  0.62497183162E+02 -0.24309044838E+03  0.25735363246E+03  0.00000000000E+00 0.  1.
          3    1    3    3  501    0 -0.87432970288E+02 -0.63059434666E+02  0.17565636365E+03  0.20609748830E+03  0.00000000000E+00 0.  1.
         21    1    1    2  502  501  0.30582041143E+02  0.56225150353E+00  0.14915200843E+02  0.34029995348E+02  0.00000000000E+00 0.  1.
<scales pt_clust_4="550.00000" pt_clust_5="550.00000" pt_clust_6="30.58721"></scales>
<mgrwt>
<rscale>  0 0.30000000E+03</rscale>
<asrwt>  1 0.30587209E+02</asrwt>
<pdfrwt beam="1">  1        1 0.80902224E+00 0.30000000E+03</pdfrwt>
<pdfrwt beam="2">0</pdfrwt>
<totfact> 0.91049638E-04</totfact>
</mgrwt>
<clustering>
<clus scale="   30.587">  1  6  2 -1</clus>
<clus scale="  457.498">  4  5 -1 -1</clus>
<clus scale="  300.000">  1  4  2 -1</clus>
</clustering>
</event>
<event>
 6    1  0.9678510E-012  0.3000000E+03  0.7818608E-02  0.1093470E+00
          1   -1    0    0  502    0  0.00000000000E+00  0.00000000000E+00  0.24648211928E+03  0.24648211928E+03  0.00000000000E+00 0.  1.
         13   -1    0    0    0    0 -0.00000000000E+00 -0.00000000000E+00 -0.27500000000E+03  0.27500000000E+03  0.00000000000E+00 0.  1.
    9000005    2    1    2  501    0 -0.43795914676E+01  0.37557947932E+02 -0.43243750435E+02  0.48090341165E+03  0.47746024872E+03 0.  0.
         13    1    3    3    0    0  0.53418648913E+02  0.10232280922E+03  0.19540896489E+03  0.22695412069E+03  0.00000000000E+00 0.  1.
          1    1    3    3  501    0 -0.57798240381E+02 -0.64764861285E+02 -0.23865271532E+03  0.25394929096E+03  0.00000000000E+00 0.  1.
         21    1    1    2  502  501  0.43795914676E+01 -0.37557947932E+02  0.14725869712E+02  0.40578707632E+02  0.00000000000E+00 0.  1.
<scales pt_clust_4="550.00000" pt_clust_5="550.00000" pt_clust_6="37.81244"></scales>
<mgrwt>
<rscale>  0 0.30000000E+03</rscale>
<asrwt>  1 0.37812435E+02</asrwt>
<pdfrwt beam="1">  1        1 0.89629862E+00 0.30000000E+03</pdfrwt>
<pdfrwt beam="2">0</pdfrwt>
<totfact> 0.12021516E-04</totfact>
</mgrwt>
<clustering>
<clus scale="   37.812">  1  6  2 -1</clus>
<clus scale="  477.460">  4  5 -1 -1</clus>
<clus scale="  300.000">  1  4  2 -1</clus>
</clustering>
</event>
<event>
 6    1  0.9678510E-012  0.3000000E+03  0.7818608E-02  0.1093470E+00
          1   -1    0    0  502    0  0.00000000000E+00  0.00000000000E+00  0.24077541568E+03  0.24077541568E+03  0.00000000000E+00 0.  1.
         13   -1    0    0    0    0 -0.00000000000E+00 -0.00000000000E+00 -0.27500000000E+03  0.27500000000E+03  0.00000000000E+00 0.  1.
    9000005    2    1    2  501    0 -0.21741264701E+01  0.34211655596E+02 -0.54571826178E+02  0.47591096465E+03  0.47152730341E+03 0.  0.
         13    1    3    3    0    0  0.58673214772E+02  0.24531851271E+03 -0.15070984765E+02  0.25268726401E+03  0.00000000000E+00 0.  1.
          3    1    3    3  501    0 -0.60847341242E+02 -0.21110685711E+03 -0.39500841413E+02  0.22322370064E+03  0.00000000000E+00 0.  1.
         21    1    1    2  502  501  0.21741264701E+01 -0.34211655596E+02  0.20347241854E+02  0.39864451026E+02  0.00000000000E+00 0. -1.
<scales pt_clust_4="550.00000" pt_clust_5="550.00000" pt_clust_6="34.28067"></scales>
<mgrwt>
<rscale>  0 0.30000000E+03</rscale>
<asrwt>  1 0.34280668E+02</asrwt>
<pdfrwt beam="1">  1        1 0.87554697E+00 0.30000000E+03</pdfrwt>
<pdfrwt beam="2">0</pdfrwt>
<totfact> 0.22279918E-04</totfact>
</mgrwt>
<clustering>
<clus scale="   34.281">  1  6  2 -1</clus>
<clus scale="  471.527">  4  5 -1 -1</clus>
<clus scale="  300.000">  1  4  2 -1</clus>
</clustering>
</event>
<event>
 6    1  0.9678510E-012  0.3000000E+03  0.7818608E-02  0.1093470E+00
          1   -1    0    0  502    0  0.00000000000E+00  0.00000000000E+00  0.22926417468E+03  0.22926417468E+03  0.00000000000E+00 0.  1.
         13   -1    0    0    0    0 -0.00000000000E+00 -0.00000000000E+00 -0.27500000000E+03  0.27500000000E+03  0.00000000000E+00 0.  1.
    9000005    2    1    2  501    0 -0.29449879472E+02  0.11166636032E+02 -0.53698969369E+02  0.47177724155E+03  0.46765179051E+03 0.  0.
         13    1    3    3    0    0 -0.19958214375E+03 -0.12103753225E+03 -0.95680633111E+02  0.25226553445E+03  0.00000000000E+00 0.  1.
          3    1    3    3  501    0  0.17013226428E+03  0.13220416828E+03  0.41981663742E+02  0.21951170710E+03  0.00000000000E+00 0.  1.
         21    1    1    2  502  501  0.29449879472E+02 -0.11166636032E+02  0.79631440468E+01  0.32486933132E+02  0.00000000000E+00 0.  1.
<scales pt_clust_4="550.00000" pt_clust_5="550.00000" pt_clust_6="31.49586"></scales>
<mgrwt>
<rscale>  0 0.30000000E+03</rscale>
<asrwt>  1 0.31495859E+02</asrwt>
<pdfrwt beam="1">  1        1 0.83368791E+00 0.30000000E+03</pdfrwt>
<pdfrwt beam="2">0</pdfrwt>
<totfact> 0.56428815E-04</totfact>
</mgrwt>
<clustering>
<clus scale="   31.496">  1  6  2 -1</clus>
<clus scale="  467.652">  4  5 -1 -1</clus>
<clus scale="  300.000">  1  4  2 -1</clus>
</clustering>
</event>
<event>
 6    1  0.9678510E-012  0.3000000E+03  0.7818608E-02  0.1093470E+00
          1   -1    0    0  502    0  0.00000000000E+00  0.00000000000E+00  0.23687982813E+03  0.23687982813E+03  0.00000000000E+00 0.  1.
         13   -1    0    0    0    0 -0.00000000000E+00 -0.00000000000E+00 -0.27500000000E+03  0.27500000000E+03  0.00000000000E+00 0.  1.
    9000005    2    1    2  501    0 -0.42743876135E+02  0.57240517300E+01 -0.60732506202E+01  0.45815079616E+03  0.45607616023E+03 0.  0.
         13    1    3    3    0    0  0.15997747416E+03  0.11874705513E+03  0.74141643402E+02  0.21258089901E+03  0.00000000000E+00 0.  1.
          1    1    3    3  501    0 -0.20272135029E+03 -0.11302300340E+03 -0.80214894022E+02  0.24556989714E+03  0.00000000000E+00 0.  1.
         21    1    1    2  502  501  0.42743876135E+02 -0.57240517300E+01 -0.32046921249E+02  0.53729031974E+02  0.00000000000E+00 0.  1.
<scales pt_clust_4="550.00000" pt_clust_5="550.00000" pt_clust_6="43.12546"></scales>
<mgrwt>
<rscale>  0 0.30000000E+03</rscale>
<asrwt>  1 0.43125463E+02</asrwt>
<pdfrwt beam="1">  1        1 0.86138119E+00 0.30000000E+03</pdfrwt>
<pdfrwt beam="2">0</pdfrwt>
<totfact> 0.30086854E-04</totfact>
</mgrwt>
<clustering>
<clus scale="   43.125">  1  6  2 -1</clus>
<clus scale="  456.076">  4  5 -1 -1</clus>
<clus scale="  300.000">  1  4  2 -1</clus>
</clustering>
</event>
<event>
 6    1  0.9678510E-012  0.3000000E+03  0.7818608E-02  0.1093470E+00
          1   -1    0    0  502    0  0.00000000000E+00  0.00000000000E+00  0.24146303666E+03  0.24146303666E+03  0.00000000000E+00 0.  1.
         13   -1    0    0    0    0 -0.00000000000E+00 -0.00000000000E+00 -0.27500000000E+03  0.27500000000E+03  0.00000000000E+00 0.  1.
    9000005    2    1    2  501    0  0.30510968868E+02 -0.13702905349E+02 -0.30226998185E+02  0.48285284913E+03  0.48074370891E+03 0.  0.
         13    1    3    3    0    0  0.10831601316E+03 -0.22879056054E+03 -0.12662300320E+02  0.25345179650E+03  0.00000000000E+00 0.  1.
          3    1    3    3  501    0 -0.77805044292E+02  0.21508765519E+03 -0.17564697865E+02  0.22940105262E+03  0.00000000000E+00 0.  1.
         21    1    1    2  502  501 -0.30510968868E+02  0.13702905349E+02 -0.33099651593E+01  0.33610187528E+02  0.00000000000E+00 0.  1.
<scales pt_clust_4="550.00000" pt_clust_5="550.00000" pt_clust_6="33.44682"></scales>
<mgrwt>
<rscale>  0 0.30000000E+03</rscale>
<asrwt>  1 0.33446823E+02</asrwt>
<pdfrwt beam="1">  1        1 0.87804741E+00 0.30000000E+03</pdfrwt>
<pdfrwt beam="2">0</pdfrwt>
<totfact> 0.21002275E-04</totfact>
</mgrwt>
<clustering>
<clus scale="   33.447">  1  6  2 -1</clus>
<clus scale="  480.744">  4  5 -1 -1</clus>
<clus scale="  300.000">  1  4  2 -1</clus>
</clustering>
</event>
<event>
 6    1  0.9678510E-012  0.3000000E+03  0.7818608E-02  0.1093470E+00
          1   -1    0    0  502    0  0.00000000000E+00  0.00000000000E+00  0.23312813403E+03  0.23312813403E+03  0.00000000000E+00 0.  1.
         13   -1    0    0    0    0 -0.00000000000E+00 -0.00000000000E+00 -0.27500000000E+03  0.27500000000E+03  0.00000000000E+00 0.  1.
    9000005    2    1    2  501    0  0.37542514611E+02  0.76460948624E+01 -0.39146030084E+02  0.46971806567E+03  0.46651339356E+03 0.  0.
         13    1    3    3    0    0  0.98310356758E+02  0.18030130532E+03  0.11058173020E+03  0.23324194734E+03  0.00000000000E+00 0.  1.
          3    1    3    3  501    0 -0.60767842147E+02 -0.17265521046E+03 -0.14972776029E+03  0.23647611832E+03  0.00000000000E+00 0.  1.
         21    1    1    2  502  501 -0.37542514611E+02 -0.76460948624E+01 -0.27258358913E+01  0.38410068358E+02  0.00000000000E+00 0. -1.
<scales pt_clust_4="550.00000" pt_clust_5="550.00000" pt_clust_6="38.31322"></scales>
<mgrwt>
<rscale>  0 0.30000000E+03</rscale>
<asrwt>  1 0.38313224E+02</asrwt>
<pdfrwt beam="1">  1        1 0.84773867E+00 0.30000000E+03</pdfrwt>
<pdfrwt beam="2">0</pdfrwt>
<totfact> 0.41997144E-04</totfact>
</mgrwt>
<clustering>
<clus scale="   38.313">  1  6  2 -1</clus>
<clus scale="  466.513">  4  5 -1 -1</clus>
<clus scale="  300.000">  1  4  2 -1</clus>
</clustering>
</event>
<event>
 6    1  0.9678510E-012  0.3000000E+03  0.7818608E-02  0.1093470E+00
          1   -1    0    0  502    0  0.00000000000E+00  0.00000000000E+00  0.24013509462E+03  0.24013509462E+03  0.00000000000E+00 0.  1.
         13   -1    0    0    0    0 -0.00000000000E+00 -0.00000000000E+00 -0.27500000000E+03  0.27500000000E+03  0.00000000000E+00 0.  1.
    9000005    2    1    2  501    0  0.25309560118E+02 -0.18076195198E+02 -0.44326388787E+02  0.48262598306E+03  0.47957865686E+03 0.  0.
         13    1    3    3    0    0  0.13659443621E+03 -0.77168427123E+02 -0.21767682323E+03  0.26832108661E+03  0.00000000000E+00 0.  1.
          1    1    3    3  501    0 -0.11128487610E+03  0.59092231925E+02  0.17335043444E+03  0.21430489645E+03  0.00000000000E+00 0.  1.
         21    1    1    2  502  501 -0.25309560118E+02  0.18076195198E+02  0.94614834083E+01  0.32509111561E+02  0.00000000000E+00 0.  1.
<scales pt_clust_4="550.00000" pt_clust_5="550.00000" pt_clust_6="31.10181"></scales>
<mgrwt>
<rscale>  0 0.30000000E+03</rscale>
<asrwt>  1 0.31101811E+02</asrwt>
<pdfrwt beam="1">  1        1 0.87321853E+00 0.30000000E+03</pdfrwt>
<pdfrwt beam="2">0</pdfrwt>
<totfact> 0.24006154E-04</totfact>
</mgrwt>
<clustering>
<clus scale="   31.102">  1  6  2 -1</clus>
<clus scale="  479.579">  4  5 -1 -1</clus>
<clus scale="  300.000">  1  4  2 -1</clus>
</clustering>
</event>
<event>
 6    1  0.9678510E-012  0.3000000E+03  0.7818608E-02  0.1093470E+00
          1   -1    0    0  502    0  0.00000000000E+00  0.00000000000E+00  0.23655842540E+03  0.23655842540E+03  0.00000000000E+00 0.  1.
         13   -1    0    0    0    0 -0.00000000000E+00 -0.00000000000E+00 -0.27500000000E+03  0.27500000000E+03  0.00000000000E+00 0.  1.
    9000005    2    1    2  501    0 -0.16380980379E+02  0.32233246503E+02 -0.37746695387E+02  0.47539488637E+03  0.47251260965E+03 0.  0.
         13    1    3    3    0    0 -0.16092353111E+01 -0.21945025959E+03  0.58625892266E+01  0.21953445294E+03  0.00000000000E+00 0.  1.
          1    1    3    3  501    0 -0.14771745068E+02  0.25168350610E+03 -0.43609284614E+02  0.25586043343E+03  0.00000000000E+00 0.  1.
         21    1    1    2  502  501  0.16380980379E+02 -0.32233246503E+02 -0.69487920949E+00  0.36163539033E+02  0.00000000000E+00 0.  1.
<scales pt_clust_4="550.00000" pt_clust_5="550.00000" pt_clust_6="36.15686"></scales>
<mgrwt>
<rscale>  0 0.30000000E+03</rscale>
<asrwt>  1 0.36156862E+02</asrwt>
<pdfrwt beam="1">  1        1 0.86021246E+00 0.30000000E+03</pdfrwt>
<pdfrwt beam="2">0</pdfrwt>
<totfact> 0.31983292E-04</totfact>
</mgrwt>
<clustering>
<clus scale="   36.157">  1  6  2 -1</clus>
<clus scale="  472.513">  4  5 -1 -1</clus>
<clus scale="  300.000">  1  4  2 -1</clus>
</clustering>
</event>
<event>
 6    1  0.9678510E-012  0.3000000E+03  0.7818608E-02  0.1093470E+00
          1   -1    0    0  502    0  0.00000000000E+00  0.00000000000E+00  0.22729006080E+03  0.22729006080E+03  0.00000000000E+00 0.  1.
         13   -1    0    0    0    0 -0.00000000000E+00 -0.00000000000E+00 -0.27500000000E+03  0.27500000000E+03  0.00000000000E+00 0.  1.
    9000005    2    1    2  501    0 -0.37691403022E+01 -0.32807329116E+02 -0.69478137841E+02  0.46273779494E+03  0.45629872668E+03 0.  0.
         13    1    3    3    0    0 -0.68161068016E+02  0.37048176311E+02 -0.24835858372E+03  0.26019316799E+03  0.00000000000E+00 0.  1.
          1    1    3    3  501    0  0.64391927714E+02 -0.69855505426E+02  0.17888044588E+03  0.20254462696E+03  0.00000000000E+00 0.  1.
         21    1    1    2  502  501  0.37691403022E+01  0.32807329116E+02  0.21768198642E+02  0.39552265857E+02  0.00000000000E+00 0. -1.
<scales pt_clust_4="550.00000" pt_clust_5="550.00000" pt_clust_6="33.02313"></scales>
<mgrwt>
<rscale>  0 0.30000000E+03</rscale>
<asrwt>  1 0.33023132E+02</asrwt>
<pdfrwt beam="1">  1        1 0.82650931E+00 0.30000000E+03</pdfrwt>
<pdfrwt beam="2">0</pdfrwt>
<totfact> 0.64026213E-04</totfact>
</mgrwt>
<clustering>
<clus scale="   33.023">  1  6  2 -1</clus>
<clus scale="  456.299">  4  5 -1 -1</clus>
<clus scale="  300.000">  1  4  2 -1</clus>
</clustering>
</event>
<event>
 6    1  0.9678510E-012  0.3000000E+03  0.7818608E-02  0.1093470E+00
          1   -1    0    0  502    0  0.00000000000E+00  0.00000000000E+00  0.26460141075E+03  0.26460141075E+03  0.00000000000E+00 0.  1.
         13   -1    0    0    0    0 -0.00000000000E+00 -0.00000000000E+00 -0.27500000000E+03  0.27500000000E+03  0.00000000000E+00 0.  1.
    9000005    2    1    2  501    0 -0.49716681560E+02 -0.38099233685E+01 -0.68558627212E+01  0.48961326363E+03  0.48701938476E+03 0.  0.
         13    1    3    3    0    0 -0.16853855803E+03  0.14226636240E+02 -0.20012366257E+03  0.26202504278E+03  0.00000000000E+00 0.  1.
          3    1    3    3  501    0  0.11882187647E+03 -0.18036559609E+02  0.19326779985E+03  0.22758822085E+03  0.00000000000E+00 0.  1.
         21    1    1    2  502  501  0.49716681560E+02  0.38099233685E+01 -0.35427265258E+01  0.49988147122E+02  0.00000000000E+00 0. -1.
<scales pt_clust_4="550.00000" pt_clust_5="550.00000" pt_clust_6="49.86248"></scales>
<mgrwt>
<rscale>  0 0.30000000E+03</rscale>
<asrwt>  1 0.49862475E+02</asrwt>
<pdfrwt beam="1">  1        1 0.96218695E+00 0.30000000E+03</pdfrwt>
<pdfrwt beam="2">0</pdfrwt>
<totfact> 0.63833325E-06</totfact>
</mgrwt>
<clustering>
<clus scale="   49.862">  1  6  2 -1</clus>
<clus scale="  487.019">  4  5 -1 -1</clus>
<clus scale="  300.000">  1  4  2 -1</clus>
</clustering>
</event>
<event>
 6    1  0.9678510E-012  0.3000000E+03  0.7818608E-02  0.1093470E+00
          1   -1    0    0  502    0  0.00000000000E+00  0.00000000000E+00  0.23718666314E+03  0.23718666314E+03  0.00000000000E+00 0.  1.
         13   -1    0    0    0    0 -0.00000000000E+00 -0.00000000000E+00 -0.27500000000E+03  0.27500000000E+03  0.00000000000E+00 0.  1.
    9000005    2    1    2  501    0  0.37031356589E+02  0.76903794378E+01 -0.41721528364E+02  0.47416381123E+03  0.47080799764E+03 0.  0.
         13    1    3    3    0    0 -0.75315237544E+02 -0.13618336160E+03 -0.18525810622E+03  0.24194805001E+03  0.00000000000E+00 0.  1.
          1    1    3    3  501    0  0.11234659413E+03  0.14387374104E+03  0.14353657786E+03  0.23221576122E+03  0.00000000000E+00 0.  1.
         21    1    1    2  502  501 -0.37031356589E+02 -0.76903794378E+01  0.39081915035E+01  0.38022851913E+02  0.00000000000E+00 0.  1.
<scales pt_clust_4="550.00000" pt_clust_5="550.00000" pt_clust_6="37.82147"></scales>
<mgrwt>
<rscale>  0 0.30000000E+03</rscale>
<asrwt>  1 0.37821466E+02</asrwt>
<pdfrwt beam="1">  1        1 0.86249696E+00 0.30000000E+03</pdfrwt>
<pdfrwt beam="2">0</pdfrwt>
<totfact> 0.29971589E-04</totfact>
</mgrwt>
<clustering>
<clus scale="   37.821">  1  6  2 -1</clus>
<clus scale="  470.808">  4  5 -1 -1</clus>
<clus scale="  300.000">  1  4  2 -1</clus>
</clustering>
</event>
<event>
 6    1  0.9678510E-012  0.3000000E+03  0.7818608E-02  0.1093470E+00
          1   -1    0    0  502    0  0.00000000000E+00  0.00000000000E+00  0.23866437777E+03  0.23866437777E+03  0.00000000000E+00 0.  1.
         13   -1    0    0    0    0 -0.00000000000E+00 -0.00000000000E+00 -0.27500000000E+03  0.27500000000E+03  0.00000000000E+00 0.  1.
    9000005    2    1    2  501    0 -0.50946632484E+01  0.39806961960E+02 -0.34714063684E+02  0.47349997480E+03  0.47051738555E+03 0.  0.
         13    1    3    3    0    0 -0.14478361777E+03 -0.16777002934E+03 -0.63692416798E+01  0.22169719430E+03  0.00000000000E+00 0.  1.
          3    1    3    3  501    0  0.13968895452E+03  0.20757699130E+03 -0.28344822004E+02  0.25180278050E+03  0.00000000000E+00 0.  1.
         21    1    1    2  502  501  0.50946632484E+01 -0.39806961960E+02 -0.16215585439E+01  0.40164402973E+02  0.00000000000E+00 0.  1.
<scales pt_clust_4="550.00000" pt_clust_5="550.00000" pt_clust_6="40.13166"></scales>
<mgrwt>
<rscale>  0 0.30000000E+03</rscale>
<asrwt>  1 0.40131656E+02</asrwt>
<pdfrwt beam="1">  1        1 0.86787046E+00 0.30000000E+03</pdfrwt>
<pdfrwt beam="2">0</pdfrwt>
<totfact> 0.25972624E-04</totfact>
</mgrwt>
<clustering>
<clus scale="   40.132">  1  6  2 -1</clus>
<clus scale="  470.517">  4  5 -1 -1</clus>
<clus scale="  300.000">  1  4  2 -1</clus>
</clustering>
</event>
<event>
 6    1  0.9678510E-012  0.3000000E+03  0.7818608E-02  0.1093470E+00
          1   -1    0    0  502    0  0.00000000000E+00  0.00000000000E+00  0.24232509008E+03  0.24232509008E+03  0.00000000000E+00 0.  1.
         13   -1    0    0    0    0 -0.00000000000E+00 -0.00000000000E+00 -0.27500000000E+03  0.27500000000E+03  0.00000000000E+00 0.  1.
    9000005    2    1    2  501    0  0.18955433026E+02  0.29201258690E+02 -0.36064279017E+01  0.47197094366E+03  0.47067137515E+03 0.  0.
         13    1    3    3    0    0  0.19974079771E+03  0.15047027433E+03 -0.33229019504E+02  0.25227337843E+03  0.00000000000E+00 0.  1.
          3    1    3    3  501    0 -0.18078536468E+03 -0.12126901564E+03  0.29622591602E+02  0.21969756524E+03  0.00000000000E+00 0.  1.
         21    1    1    2  502  501 -0.18955433026E+02 -0.29201258690E+02 -0.29068482019E+02  0.45354146417E+02  0.00000000000E+00 0.  1.
<scales pt_clust_4="550.00000" pt_clust_5="550.00000" pt_clust_6="34.81412"></scales>
<mgrwt>
<rscale>  0 0.30000000E+03</rscale>
<asrwt>  1 0.34814123E+02</asrwt>
<pdfrwt beam="1">  1        1 0.88118215E+00 0.30000000E+03</pdfrwt>
<pdfrwt beam="2">0</pdfrwt>
<totfact> 0.19094104E-04</totfact>
</mgrwt>
<clustering>
<clus scale="   34.814">  1  6  2 -1</clus>
<clus scale="  470.671">  4  5 -1 -1</clus>
<clus scale="  300.000">  1  4  2 -1</clus>
</clustering>
</event>
<event>
 6    1  0.9678510E-012  0.3000000E+03  0.7818608E-02  0.1093470E+00
          1   -1    0    0  502    0  0.00000000000E+00  0.00000000000E+00  0.24770802624E+03  0.24770802624E+03  0.00000000000E+00 0.  1.
         13   -1    0    0    0    0 -0.00000000000E+00 -0.00000000000E+00 -0.27500000000E+03  0.27500000000E+03  0.00000000000E+00 0.  1.
    9000005    2    1    2  501    0  0.33803559117E+02  0.14309686239E+02 -0.33249693199E+02  0.48552009607E+03  0.48298734338E+03 0.  0.
         13    1    3    3    0    0  0.11359246797E+03 -0.89504868423E+02 -0.21646393199E+03  0.26032864634E+03  0.00000000000E+00 0.  1.
          3    1    3    3  501    0 -0.79788908856E+02  0.10381455466E+03  0.18321423879E+03  0.22519144973E+03  0.00000000000E+00 0.  1.
         21    1    1    2  502  501 -0.33803559117E+02 -0.14309686239E+02  0.59577194374E+01  0.37187930168E+02  0.00000000000E+00 0.  1.
<scales pt_clust_4="550.00000" pt_clust_5="550.00000" pt_clust_6="36.70760"></scales>
<mgrwt>
<rscale>  0 0.30000000E+03</rscale>
<asrwt>  1 0.36707598E+02</asrwt>
<pdfrwt beam="1">  1        1 0.90075646E+00 0.30000000E+03</pdfrwt>
<pdfrwt beam="2">0</pdfrwt>
<totfact> 0.10704100E-04</totfact>
</mgrwt>
<clustering>
<clus scale="   36.708">  1  6  2 -1</clus>
<clus scale="  482.987">  4  5 -1 -1</clus>
<clus scale="  300.000">  1  4  2 -1</clus>
</clustering>
</event>
<event>
 6    1  0.9678510E-012  0.3000000E+03  0.7818608E-02  0.1093470E+00
          1   -1    0    0  502    0  0.00000000000E+00  0.00000000000E+00  0.23345234395E+03  0.23345234395E+03  0.00000000000E+00 0.  1.
         13   -1    0    0    0    0 -0.00000000000E+00 -0.00000000000E+00 -0.27500000000E+03  0.27500000000E+03  0.00000000000E+00 0.  1.
    9000005    2    1    2  501    0  0.17488432348E+02  0.32220988082E+02 -0.46638173312E+02  0.47143949882E+03  0.46769225405E+03 0.  0.
         13    1    3    3    0    0  0.15052399781E+03 -0.16979650068E+03 -0.31398695127E+02  0.22907248551E+03  0.00000000000E+00 0.  1.
          3    1    3    3  501    0 -0.13303556547E+03  0.20201748876E+03 -0.15239478185E+02  0.24236701331E+03  0.00000000000E+00 0.  1.
         21    1    1    2  502  501 -0.17488432348E+02 -0.32220988082E+02  0.50905172647E+01  0.37012845135E+02  0.00000000000E+00 0.  1.
<scales pt_clust_4="550.00000" pt_clust_5="550.00000" pt_clust_6="36.66111"></scales>
<mgrwt>
<rscale>  0 0.30000000E+03</rscale>
<asrwt>  1 0.36661115E+02</asrwt>
<pdfrwt beam="1">  1        1 0.84891761E+00 0.30000000E+03</pdfrwt>
<pdfrwt beam="2">0</pdfrwt>
<totfact> 0.41297215E-04</totfact>
</mgrwt>
<clustering>
<clus scale="   36.661">  1  6  2 -1</clus>
<clus scale="  467.692">  4  5 -1 -1</clus>
<clus scale="  300.000">  1  4  2 -1</clus>
</clustering>
</event>
<event>
 6    1  0.9678510E-012  0.3000000E+03  0.7818608E-02  0.1093470E+00
          1   -1    0    0  502    0  0.00000000000E+00  0.00000000000E+00  0.23658560417E+03  0.23658560417E+03  0.00000000000E+00 0.  1.
         13   -1    0    0    0    0 -0.00000000000E+00 -0.00000000000E+00 -0.27500000000E+03  0.27500000000E+03  0.00000000000E+00 0.  1.
    9000005    2    1    2  501    0  0.14086807991E+01  0.40987497259E+02 -0.60250955685E+02  0.46512277323E+03  0.45937681395E+03 0.  0.
         13    1    3    3    0    0 -0.13671588701E+03  0.20072372221E+03  0.85891892178E+01  0.24301238773E+03  0.00000000000E+00 0.  1.
          3    1    3    3  501    0  0.13812456781E+03 -0.15973622495E+03 -0.68840144903E+02  0.22211038549E+03  0.00000000000E+00 0.  1.
         21    1    1    2  502  501 -0.14086807991E+01 -0.40987497259E+02  0.21836559858E+02  0.46462830947E+02  0.00000000000E+00 0. -1.
<scales pt_clust_4="550.00000" pt_clust_5="550.00000" pt_clust_6="41.01170"></scales>
<mgrwt>
<rscale>  0 0.30000000E+03</rscale>
<asrwt>  1 0.41011697E+02</asrwt>
<pdfrwt beam="1">  1        1 0.86031129E+00 0.30000000E+03</pdfrwt>
<pdfrwt beam="2">0</pdfrwt>
<totfact> 0.31175334E-04</totfact>
</mgrwt>
<clustering>
<clus scale="   41.012">  1  6  2 -1</clus>
<clus scale="  459.377">  4  5 -1 -1</clus>
<clus scale="  300.000">  1  4  2 -1</clus>
</clustering>
</event>
<event>
 6    1  0.9678510E-012  0.3000000E+03  0.7818608E-02  0.1093470E+00
          1   -1    0    0  502    0  0.00000000000E+00  0.00000000000E+00  0.25688218537E+03  0.25688218537E+03  0.00000000000E+00 0.  1.
         13   -1    0    0    0    0 -0.00000000000E+00 -0.00000000000E+00 -0.27500000000E+03  0.27500000000E+03  0.00000000000E+00 0.  1.
    9000005    2    1    2  501    0  0.29395797722E+02  0.30083665526E+02 -0.50537128578E+02  0.47877708418E+03  0.47424081975E+03 0.  0.
         13    1    3    3    0    0 -0.20009153422E+03  0.97930588489E+02  0.33223850193E+02  0.22523509152E+03  0.00000000000E+00 0.  1.
          3    1    3    3  501    0  0.22948733195E+03 -0.67846922962E+02 -0.83760978771E+02  0.25354199266E+03  0.00000000000E+00 0.  1.
         21    1    1    2  502  501 -0.29395797722E+02 -0.30083665526E+02  0.32419313944E+02  0.53105101184E+02  0.00000000000E+00 0. -1.
<scales pt_clust_4="550.00000" pt_clust_5="550.00000" pt_clust_6="42.06114"></scales>
<mgrwt>
<rscale>  0 0.30000000E+03</rscale>
<asrwt>  1 0.42061144E+02</asrwt>
<pdfrwt beam="1">  1        1 0.93411704E+00 0.30000000E+03</pdfrwt>
<pdfrwt beam="2">0</pdfrwt>
<totfact> 0.22322662E-05</totfact>
</mgrwt>
<clustering>
<clus scale="   42.061">  1  6  2 -1</clus>
<clus scale="  474.241">  4  5 -1 -1</clus>
<clus scale="  300.000">  1  4  2 -1</clus>
</clustering>
</event>
<event>
 6    1  0.9678510E-012  0.3000000E+03  0.7818608E-02  0.1093470E+00
          1   -1    0    0  502    0  0.00000000000E+00  0.00000000000E+00  0.23001453834E+03  0.23001453834E+03  0.00000000000E+00 0.  1.
         13   -1    0    0    0    0 -0.00000000000E+00 -0.00000000000E+00 -0.27500000000E+03  0.27500000000E+03  0.00000000000E+00 0.  1.
    9000005    2    1    2  501    0 -0.27687711283E+02  0.13102043552E+02 -0.26621275523E+02  0.46930016820E+03  0.46754217207E+03 0.  0.
         13    1    3    3    0    0 -0.34970082884E+01  0.43120901730E+02 -0.24436739596E+03  0.24816741414E+03  0.00000000000E+00 0.  1.
          3    1    3    3  501    0 -0.24190702994E+02 -0.30018858178E+02  0.21774612043E+03  0.22113275407E+03  0.00000000000E+00 0.  1.
         21    1    1    2  502  501  0.27687711283E+02 -0.13102043552E+02 -0.18364186142E+02  0.35714370133E+02  0.00000000000E+00 0.  1.
<scales pt_clust_4="550.00000" pt_clust_5="550.00000" pt_clust_6="30.63126"></scales>
<mgrwt>
<rscale>  0 0.30000000E+03</rscale>
<asrwt>  1 0.30631256E+02</asrwt>
<pdfrwt beam="1">  1        1 0.83641650E+00 0.30000000E+03</pdfrwt>
<pdfrwt beam="2">0</pdfrwt>
<totfact> 0.54182769E-04</totfact>
</mgrwt>
<clustering>
<clus scale="   30.631">  1  6  2 -1</clus>
<clus scale="  467.542">  4  5 -1 -1</clus>
<clus scale="  300.000">  1  4  2 -1</clus>
</clustering>
</event>
<event>
 6    1  0.9678510E-012  0.3000000E+03  0.7818608E-02  0.1093470E+00
          1   -1    0    0  502    0  0.00000000000E+00  0.00000000000E+00  0.24590369186E+03  0.24590369186E+03  0.00000000000E+00 0.  1.
         13   -1    0    0    0    0 -0.00000000000E+00 -0.00000000000E+00 -0.27500000000E+03  0.27500000000E+03  0.00000000000E+00 0.  1.
    9000005    2    1    2  501    0  0.10152342586E+02 -0.52540971618E+02 -0.52903530417E+02  0.46233401036E+03  0.45616918993E+03 0.  0.
         13    1    3    3    0    0  0.18689290557E+02 -0.12378722744E+03 -0.23518954368E+03  0.26643327253E+03  0.00000000000E+00 0.  1.
          3    1    3    3  501    0 -0.85369479708E+01  0.71246255821E+02  0.18228601326E+03  0.19590073782E+03  0.00000000000E+00 0.  1.
         21    1    1    2  502  501 -0.10152342586E+02  0.52540971618E+02  0.23807222273E+02  0.58569681499E+02  0.00000000000E+00 0.  1.
<scales pt_clust_4="550.00000" pt_clust_5="550.00000" pt_clust_6="53.51284"></scales>
<mgrwt>
<rscale>  0 0.30000000E+03</rscale>
<asrwt>  1 0.53512837E+02</asrwt>
<pdfrwt beam="1">  1        1 0.89419524E+00 0.30000000E+03</pdfrwt>
<pdfrwt beam="2">0</pdfrwt>
<totfact> 0.11928645E-04</totfact>
</mgrwt>
<clustering>
<clus scale="   53.513">  1  6  2 -1</clus>
<clus scale="  456.169">  4  5 -1 -1</clus>
<clus scale="  300.000">  1  4  2 -1</clus>
</clustering>
</event>
<event>
 6    1  0.9678510E-012  0.3000000E+03  0.7818608E-02  0.1093470E+00
          1   -1    0    0  502    0  0.00000000000E+00  0.00000000000E+00  0.23384296058E+03  0.23384296058E+03  0.00000000000E+00 0.  1.
         13   -1    0    0    0    0 -0.00000000000E+00 -0.00000000000E+00 -0.27500000000E+03  0.27500000000E+03  0.00000000000E+00 0.  1.
    9000005    2    1    2  501    0 -0.27529037526E+02 -0.30604154375E+02 -0.28095157556E+02  0.46565644730E+03  0.46298177811E+03 0.  0.
         13    1    3    3    0    0 -0.15007766516E+03 -0.19651482912E+03  0.35519973621E+02  0.24980602909E+03  0.00000000000E+00 0.  1.
          3    1    3    3  501    0  0.12254862763E+03  0.16591067474E+03 -0.63615131178E+02  0.21585041821E+03  0.00000000000E+00 0.  1.
         21    1    1    2  502  501  0.27529037526E+02  0.30604154375E+02 -0.13061881859E+02  0.43186513287E+02  0.00000000000E+00 0.  1.
<scales pt_clust_4="550.00000" pt_clust_5="550.00000" pt_clust_6="41.16387"></scales>
<mgrwt>
<rscale>  0 0.30000000E+03</rscale>
<asrwt>  1 0.41163866E+02</asrwt>
<pdfrwt beam="1">  1        1 0.85033804E+00 0.30000000E+03</pdfrwt>
<pdfrwt beam="2">0</pdfrwt>
<totfact> 0.39212240E-04</totfact>
</mgrwt>
<clustering>
<clus scale="   41.164">  1  6  2 -1</clus>
<clus scale="  462.982">  4  5 -1 -1</clus>
<clus scale="  300.000">  1  4  2 -1</clus>
</clustering>
</event>
<event>
 6    1  0.9678510E-012  0.3000000E+03  0.7818608E-02  0.1093470E+00
          1   -1    0    0  502    0  0.00000000000E+00  0.00000000000E+00  0.22421410580E+03  0.22421410580E+03  0.00000000000E+00 0.  1.
         13   -1    0    0    0    0 -0.00000000000E+00 -0.00000000000E+00 -0.27500000000E+03  0.27500000000E+03  0.00000000000E+00 0.  1.
    9000005    2    1    2  501    0  0.31756722843E+02  0.26869018005E+01 -0.44279722718E+02  0.46668659200E+03  0.46348675539E+03 0.  0.
         13    1    3    3    0    0  0.36826253299E+02  0.12128559586E+03 -0.22042782433E+03  0.25427307060E+03  0.00000000000E+00 0.  1.
          3    1    3    3  501    0 -0.50695304563E+01 -0.11859869406E+03  0.17614810161E+03  0.21241352140E+03  0.00000000000E+00 0.  1.
         21    1    1    2  502  501 -0.31756722843E+02 -0.26869018005E+01 -0.65061714809E+01  0.32527513805E+02  0.00000000000E+00 0.  1.
<scales pt_clust_4="550.00000" pt_clust_5="550.00000" pt_clust_6="31.87020"></scales>
<mgrwt>
<rscale>  0 0.30000000E+03</rscale>
<asrwt>  1 0.31870204E+02</asrwt>
<pdfrwt beam="1">  1        1 0.81532402E+00 0.30000000E+03</pdfrwt>
<pdfrwt beam="2">0</pdfrwt>
<totfact> 0.80535763E-04</totfact>
</mgrwt>
<clustering>
<clus scale="   31.870">  1  6  2 -1</clus>
<clus scale="  463.487">  4  5 -1 -1</clus>
<clus scale="  300.000">  1  4  2 -1</clus>
</clustering>
</event>
<event>
 6    1  0.9678510E-012  0.3000000E+03  0.7818608E-02  0.1093470E+00
          1   -1    0    0  502    0  0.00000000000E+00  0.00000000000E+00  0.23570651162E+03  0.23570651162E+03  0.00000000000E+00 0.  1.
         13   -1    0    0    0    0 -0.00000000000E+00 -0.00000000000E+00 -0.27500000000E+03  0.27500000000E+03  0.00000000000E+00 0.  1.
    9000005    2    1    2  501    0  0.27981420508E+02 -0.20936725809E+02 -0.59441581665E+02  0.47036729938E+03  0.46528570611E+03 0.  0.
         13    1    3    3    0    0  0.24005109884E+03  0.11763143458E+02  0.20894485542E+02  0.24124568623E+03  0.00000000000E+00 0.  1.
          1    1    3    3  501    0 -0.21206967833E+03 -0.32699869267E+02 -0.80336067207E+02  0.22912161315E+03  0.00000000000E+00 0.  1.
         21    1    1    2  502  501 -0.27981420508E+02  0.20936725809E+02  0.20148093285E+02  0.40339212242E+02  0.00000000000E+00 0.  1.
<scales pt_clust_4="550.00000" pt_clust_5="550.00000" pt_clust_6="34.94719"></scales>
<mgrwt>
<rscale>  0 0.30000000E+03</rscale>
<asrwt>  1 0.34947194E+02</asrwt>
<pdfrwt beam="1">  1        1 0.85711459E+00 0.30000000E+03</pdfrwt>
<pdfrwt beam="2">0</pdfrwt>
<totfact> 0.34692960E-04</totfact>
</mgrwt>
<clustering>
<clus scale="   34.947">  1  6  2 -1</clus>
<clus scale="  465.286">  4  5 -1 -1</clus>
<clus scale="  300.000">  1  4  2 -1</clus>
</clustering>
</event>
<event>
 6    1  0.9678510E-012  0.3000000E+03  0.7818608E-02  0.1093470E+00
          1   -1    0    0  502    0  0.00000000000E+00  0.00000000000E+00  0.22027471313E+03  0.22027471313E+03  0.00000000000E+00 0.  1.
         13   -1    0    0    0    0 -0.00000000000E+00 -0.00000000000E+00 -0.27500000000E+03  0.27500000000E+03  0.00000000000E+00 0.  1.
    9000005    2    1    2  501    0 -0.12811036657E+02 -0.27717482414E+02 -0.59512143947E+02  0.46436685827E+03  0.45952421295E+03 0.  0.
         13    1    3    3    0    0  0.14489671621E+03  0.14026857009E+03 -0.10820385492E+03  0.22886328745E+03  0.00000000000E+00 0.  1.
          1    1    3    3  501    0 -0.15770775287E+03 -0.16798605250E+03  0.48691710972E+02  0.23550357082E+03  0.00000000000E+00 0.  1.
         21    1    1    2  502  501  0.12811036657E+02  0.27717482414E+02  0.47868570795E+01  0.30907854864E+02  0.00000000000E+00 0. -1.
<scales pt_clust_4="550.00000" pt_clust_5="550.00000" pt_clust_6="30.53492"></scales>
<mgrwt>
<rscale>  0 0.30000000E+03</rscale>
<asrwt>  1 0.30534922E+02</asrwt>
<pdfrwt beam="1">  1        1 0.80099896E+00 0.30000000E+03</pdfrwt>
<pdfrwt beam="2">0</pdfrwt>
<totfact> 0.10466188E-03</totfact>
</mgrwt>
<clustering>
<clus scale="   30.535">  1  6  2 -1</clus>
<clus scale="  459.524">  4  5 -1 -1</clus>
<clus scale="  300.000">  1  4  2 -1</clus>
</clustering>
</event>
<event>
 6    1  0.9678510E-012  0.3000000E+03  0.7818608E-02  0.1093470E+00
          1   -1    0    0  502    0  0.00000000000E+00  0.00000000000E+00  0.22289338079E+03  0.22289338079E+03  0.00000000000E+00 0.  1.
         13   -1    0    0    0    0 -0.00000000000E+00 -0.00000000000E+00 -0.27500000000E+03  0.27500000000E+03  0.00000000000E+00 0.  1.
    9000005    2    1    2  501    0 -0.19156076213E+02 -0.27653466677E+02 -0.48602873394E+02  0.46407111431E+03  0.46029131033E+03 0.  0.
         13    1    3    3    0    0  0.18999232504E+02 -0.19866784310E+03 -0.16055551825E+03  0.25614050277E+03  0.00000000000E+00 0.  1.
          3    1    3    3  501    0 -0.38155308717E+02  0.17101437643E+03  0.11195264485E+03  0.20793061154E+03  0.00000000000E+00 0.  1.
         21    1    1    2  502  501  0.19156076213E+02  0.27653466677E+02 -0.35037458145E+01  0.33822266480E+02  0.00000000000E+00 0.  1.
<scales pt_clust_4="550.00000" pt_clust_5="550.00000" pt_clust_6="33.64030"></scales>
<mgrwt>
<rscale>  0 0.30000000E+03</rscale>
<asrwt>  1 0.33640295E+02</asrwt>
<pdfrwt beam="1">  1        1 0.81052138E+00 0.30000000E+03</pdfrwt>
<pdfrwt beam="2">0</pdfrwt>
<totfact> 0.87045777E-04</totfact>
</mgrwt>
<clustering>
<clus scale="   33.640">  1  6  2 -1</clus>
<clus scale="  460.291">  4  5 -1 -1</clus>
<clus scale="  300.000">  1  4  2 -1</clus>
</clustering>
</event>
<event>
 6    1  0.9678510E-012  0.3000000E+03  0.7818608E-02  0.1093470E+00
          1   -1    0    0  502    0  0.00000000000E+00  0.00000000000E+00  0.23340688935E+03  0.23340688935E+03  0.00000000000E+00 0.  1.
         13   -1    0    0    0    0 -0.00000000000E+00 -0.00000000000E+00 -0.27500000000E+03  0.27500000000E+03  0.00000000000E+00 0.  1.
    9000005    2    1    2  501    0  0.36138514000E+02  0.17434364497E+01 -0.42830176921E+02  0.47220520296E+03  0.46886490366E+03 0.  0.
         13    1    3    3    0    0  0.22222685586E+03 -0.33131858494E+02  0.88822189397E+02  0.24160272524E+03  0.00000000000E+00 0.  1.
          3    1    3    3  501    0 -0.18608834186E+03  0.34875294944E+02 -0.13165236632E+03  0.23060247772E+03  0.00000000000E+00 0.  1.
         21    1    1    2  502  501 -0.36138514000E+02 -0.17434364497E+01  0.12370662729E+01  0.36201686394E+02  0.00000000000E+00 0.  1.
<scales pt_clust_4="550.00000" pt_clust_5="550.00000" pt_clust_6="36.18054"></scales>
<mgrwt>
<rscale>  0 0.30000000E+03</rscale>
<asrwt>  1 0.36180544E+02</asrwt>
<pdfrwt beam="1">  1        1 0.84875232E+00 0.30000000E+03</pdfrwt>
<pdfrwt beam="2">0</pdfrwt>
<totfact> 0.41544593E-04</totfact>
</mgrwt>
<clustering>
<clus scale="   36.181">  1  6  2 -1</clus>
<clus scale="  468.865">  4  5 -1 -1</clus>
<clus scale="  300.000">  1  4  2 -1</clus>
</clustering>
</event>
<event>
 6    1  0.9678510E-012  0.3000000E+03  0.7818608E-02  0.1093470E+00
          1   -1    0    0  502    0  0.00000000000E+00  0.00000000000E+00  0.22715650299E+03  0.22715650299E+03  0.00000000000E+00 0.  1.
         13   -1    0    0    0    0 -0.00000000000E+00 -0.00000000000E+00 -0.27500000000E+03  0.27500000000E+03  0.00000000000E+00 0.  1.
    9000005    2    1    2  501    0  0.24402510326E+02  0.22953508312E+02 -0.59994478101E+02  0.46651955032E+03  0.46143125964E+03 0.  0.
         13    1    3    3    0    0  0.15020458852E+03  0.19595757852E+03 -0.52833177096E+02  0.25249185253E+03  0.00000000000E+00 0.  1.
          3    1    3    3  501    0 -0.12580207820E+03 -0.17300407021E+03 -0.71613010059E+01  0.21402769779E+03  0.00000000000E+00 0.  1.
         21    1    1    2  502  501 -0.24402510326E+02 -0.22953508312E+02  0.12150981094E+02  0.35636952670E+02  0.00000000000E+00 0.  1.
<scales pt_clust_4="550.00000" pt_clust_5="550.00000" pt_clust_6="33.50143"></scales>
<mgrwt>
<rscale>  0 0.30000000E+03</rscale>
<asrwt>  1 0.33501434E+02</asrwt>
<pdfrwt beam="1">  1        1 0.82602365E+00 0.30000000E+03</pdfrwt>
<pdfrwt beam="2">0</pdfrwt>
<totfact> 0.64488336E-04</totfact>
</mgrwt>
<clustering>
<clus scale="   33.501">  1  6  2 -1</clus>
<clus scale="  461.431">  4  5 -1 -1</clus>
<clus scale="  300.000">  1  4  2 -1</clus>
</clustering>
</event>
<event>
 6    1  0.9678510E-012  0.3000000E+03  0.7818608E-02  0.1093470E+00
          1   -1    0    0  502    0  0.00000000000E+00  0.00000000000E+00  0.22796013267E+03  0.22796013267E+03  0.00000000000E+00 0.  1.
         13   -1    0    0    0    0 -0.00000000000E+00 -0.00000000000E+00 -0.27500000000E+03  0.27500000000E+03  0.00000000000E+00 0.  1.
    9000005    2    1    2  501    0 -0.16575175100E+02  0.27398490634E+02 -0.49845623144E+02  0.47081536662E+03  0.46707291677E+03 0.  0.
         13    1    3    3    0    0  0.18758296010E+03  0.10794495920E+03 -0.11065795097E+03  0.24307337010E+03  0.00000000000E+00 0.  1.
          3    1    3    3  501    0 -0.20415813520E+03 -0.80546468568E+02  0.60812327829E+02  0.22774199653E+03  0.00000000000E+00 0.  1.
         21    1    1    2  502  501  0.16575175100E+02 -0.27398490634E+02  0.28057558162E+01  0.32144766048E+02  0.00000000000E+00 0. -1.
<scales pt_clust_4="550.00000" pt_clust_5="550.00000" pt_clust_6="32.02208"></scales>
<mgrwt>
<rscale>  0 0.30000000E+03</rscale>
<asrwt>  1 0.32022082E+02</asrwt>
<pdfrwt beam="1">  1        1 0.82894594E+00 0.30000000E+03</pdfrwt>
<pdfrwt beam="2">0</pdfrwt>
<totfact> 0.61336162E-04</totfact>
</mgrwt>
<clustering>
<clus scale="   32.022">  1  6  2 -1</clus>
<clus scale="  467.073">  4  5 -1 -1</clus>
<clus scale="  300.000">  1  4  2 -1</clus>
</clustering>
</event>
<event>
 6    1  0.9678510E-012  0.3000000E+03  0.7818608E-02  0.1093470E+00
          1   -1    0    0  502    0  0.00000000000E+00  0.00000000000E+00  0.22201895284E+03  0.22201895284E+03  0.00000000000E+00 0.  1.
         13   -1    0    0    0    0 -0.00000000000E+00 -0.00000000000E+00 -0.27500000000E+03  0.27500000000E+03  0.00000000000E+00 0.  1.
    9000005    2    1    2  501    0 -0.12225682074E+02 -0.32958176079E+02 -0.47558940198E+02  0.46145059729E+03  0.45764515979E+03 0.  0.
         13    1    3    3    0    0  0.10295583766E+03  0.14593042780E+02  0.17662530614E+03  0.20496185054E+03  0.00000000000E+00 0.  1.
          3    1    3    3  501    0 -0.11518151973E+03 -0.47551218859E+02 -0.22418424634E+03  0.25648874675E+03  0.00000000000E+00 0.  1.
         21    1    1    2  502  501  0.12225682074E+02  0.32958176079E+02 -0.54221069590E+01  0.35568355550E+02  0.00000000000E+00 0.  1.
<scales pt_clust_4="550.00000" pt_clust_5="550.00000" pt_clust_6="35.15267"></scales>
<mgrwt>
<rscale>  0 0.30000000E+03</rscale>
<asrwt>  1 0.35152666E+02</asrwt>
<pdfrwt beam="1">  1        1 0.80734165E+00 0.30000000E+03</pdfrwt>
<pdfrwt beam="2">0</pdfrwt>
<totfact> 0.91372163E-04</totfact>
</mgrwt>
<clustering>
<clus scale="   35.153">  1  6  2 -1</clus>
<clus scale="  457.645">  4  5 -1 -1</clus>
<clus scale="  300.000">  1  4  2 -1</clus>
</clustering>
</event>
<event>
 6    1  0.9678510E-012  0.3000000E+03  0.7818608E-02  0.1093470E+00
          1   -1    0    0  502    0  0.00000000000E+00  0.00000000000E+00  0.23441493187E+03  0.23441493187E+03  0.00000000000E+00 0.  1.
         13   -1    0    0    0    0 -0.00000000000E+00 -0.00000000000E+00 -0.27500000000E+03  0.27500000000E+03  0.00000000000E+00 0.  1.
    9000005    2    1    2  501    0 -0.27229189603E+02  0.25389877275E+02 -0.44527588660E+02  0.47197674144E+03  0.46839434634E+03 0.  0.
         13    1    3    3    0    0  0.12660927083E+03  0.19916210553E+03 -0.43019123177E+02  0.23988767516E+03  0.00000000000E+00 0.  1.
          1    1    3    3  501    0 -0.15383846043E+03 -0.17377222825E+03 -0.15084654825E+01  0.23208906628E+03  0.00000000000E+00 0.  1.
         21    1    1    2  502  501  0.27229189603E+02 -0.25389877275E+02  0.39425205342E+01  0.37438190429E+02  0.00000000000E+00 0.  1.
<scales pt_clust_4="550.00000" pt_clust_5="550.00000" pt_clust_6="37.23002"></scales>
<mgrwt>
<rscale>  0 0.30000000E+03</rscale>
<asrwt>  1 0.37230023E+02</asrwt>
<pdfrwt beam="1">  1        1 0.85241793E+00 0.30000000E+03</pdfrwt>
<pdfrwt beam="2">0</pdfrwt>
<totfact> 0.38160797E-04</totfact>
</mgrwt>
<clustering>
<clus scale="   37.230">  1  6  2 -1</clus>
<clus scale="  468.394">  4  5 -1 -1</clus>
<clus scale="  300.000">  1  4  2 -1</clus>
</clustering>
</event>
<event>
 6    1  0.9678510E-012  0.3000000E+03  0.7818608E-02  0.1093470E+00
          1   -1    0    0  502    0  0.00000000000E+00  0.00000000000E+00  0.22898762983E+03  0.22898762983E+03  0.00000000000E+00 0.  1.
         13   -1    0    0    0    0 -0.00000000000E+00 -0.00000000000E+00 -0.27500000000E+03  0.27500000000E+03  0.00000000000E+00 0.  1.
    9000005    2    1    2  501    0  0.10032888774E+02 -0.35151616647E+02 -0.21166676593E+02  0.45978804273E+03  0.45784355519E+03 0.  0.
         13    1    3    3    0    0  0.22455782944E+03  0.67791043199E+01  0.49530093848E+02  0.23005522210E+03  0.00000000000E+00 0.  1.
          3    1    3    3  501    0 -0.21452494066E+03 -0.41930720967E+02 -0.70696770441E+02  0.22973282064E+03  0.00000000000E+00 0.  1.
         21    1    1    2  502  501 -0.10032888774E+02  0.35151616647E+02 -0.24845693578E+02  0.44199587095E+02  0.00000000000E+00 0.  1.
<scales pt_clust_4="550.00000" pt_clust_5="550.00000" pt_clust_6="36.55539"></scales>
<mgrwt>
<rscale>  0 0.30000000E+03</rscale>
<asrwt>  1 0.36555387E+02</asrwt>
<pdfrwt beam="1">  1        1 0.83268229E+00 0.30000000E+03</pdfrwt>
<pdfrwt beam="2">0</pdfrwt>
<totfact> 0.55832379E-04</totfact>
</mgrwt>
<clustering>
<clus scale="   36.555">  1  6  2 -1</clus>
<clus scale="  457.844">  4  5 -1 -1</clus>
<clus scale="  300.000">  1  4  2 -1</clus>
</clustering>
</event>
<event>
 6    1  0.9678510E-012  0.3000000E+03  0.7818608E-02  0.1093470E+00
          1   -1    0    0  502    0  0.00000000000E+00  0.00000000000E+00  0.24001442381E+03  0.24001442381E+03  0.00000000000E+00 0.  1.
         13   -1    0    0    0    0 -0.00000000000E+00 -0.00000000000E+00 -0.27500000000E+03  0.27500000000E+03  0.00000000000E+00 0.  1.
    9000005    2    1    2  501    0  0.12284977969E+02  0.45546547683E+02 -0.43267919566E+02  0.46711864214E+03  0.46271190203E+03 0.  0.
         13    1    3    3    0    0  0.10639714867E+03  0.67564661508E+02 -0.22692726424E+03  0.25957912086E+03  0.00000000000E+00 0.  1.
          3    1    3    3  501    0 -0.94112170699E+02 -0.22018113825E+02  0.18365934467E+03  0.20753952129E+03  0.00000000000E+00 0.  1.
         21    1    1    2  502  501 -0.12284977969E+02 -0.45546547683E+02  0.82823433713E+01  0.47895781665E+02  0.00000000000E+00 0.  1.
<scales pt_clust_4="550.00000" pt_clust_5="550.00000" pt_clust_6="47.17424"></scales>
<mgrwt>
<rscale>  0 0.30000000E+03</rscale>
<asrwt>  1 0.47174238E+02</asrwt>
<pdfrwt beam="1">  1        1 0.87277972E+00 0.30000000E+03</pdfrwt>
<pdfrwt beam="2">0</pdfrwt>
<totfact> 0.22466965E-04</totfact>
</mgrwt>
<clustering>
<clus scale="   47.174">  1  6  2 -1</clus>
<clus scale="  462.712">  4  5 -1 -1</clus>
<clus scale="  300.000">  1  4  2 -1</clus>
</clustering>
</event>
<event>
 6    1  0.9678510E-012  0.3000000E+03  0.7818608E-02  0.1093470E+00
          1   -1    0    0  502    0  0.00000000000E+00  0.00000000000E+00  0.23286056057E+03  0.23286056057E+03  0.00000000000E+00 0.  1.
         13   -1    0    0    0    0 -0.00000000000E+00 -0.00000000000E+00 -0.27500000000E+03  0.27500000000E+03  0.00000000000E+00 0.  1.
    9000005    2    1    2  501    0 -0.43487907008E+02  0.80522791282E+01 -0.43927805332E+02  0.46359730823E+03  0.45938739084E+03 0.  0.
         13    1    3    3    0    0  0.55327950344E+02  0.21237051832E+03 -0.80405728694E+02  0.23372526681E+03  0.00000000000E+00 0.  1.
          1    1    3    3  501    0 -0.98815857351E+02 -0.20431823919E+03  0.36477923363E+02  0.22987204141E+03  0.00000000000E+00 0.  1.
         21    1    1    2  502  501  0.43487907008E+02 -0.80522791282E+01  0.17883658988E+01  0.44263252339E+02  0.00000000000E+00 0.  1.
<scales pt_clust_4="550.00000" pt_clust_5="550.00000" pt_clust_6="44.22711"></scales>
<mgrwt>
<rscale>  0 0.30000000E+03</rscale>
<asrwt>  1 0.44227110E+02</asrwt>
<pdfrwt beam="1">  1        1 0.84676567E+00 0.30000000E+03</pdfrwt>
<pdfrwt beam="2">0</pdfrwt>
<totfact> 0.41755471E-04</totfact>
</mgrwt>
<clustering>
<clus scale="   44.227">  1  6  2 -1</clus>
<clus scale="  459.387">  4  5 -1 -1</clus>
<clus scale="  300.000">  1  4  2 -1</clus>
</clustering>
</event>
<event>
 6    1  0.9678510E-012  0.3000000E+03  0.7818608E-02  0.1093470E+00
          1   -1    0    0  502    0  0.00000000000E+00  0.00000000000E+00  0.23671416408E+03  0.23671416408E+03  0.00000000000E+00 0.  1.
         13   -1    0    0    0    0 -0.00000000000E+00 -0.00000000000E+00 -0.27500000000E+03  0.27500000000E+03  0.00000000000E+00 0.  1.
    9000005    2    1    2  501    0 -0.26414152211E+02 -0.31933282099E+02 -0.38790721529E+02  0.47026905759E+03  0.46683061650E+03 0.  0.
         13    1    3    3    0    0 -0.15515629181E+03  0.15989433219E+03 -0.77762815740E+02  0.23598035483E+03  0.00000000000E+00 0.  1.
          1    1    3    3  501    0  0.12874213960E+03 -0.19182761429E+03  0.38972094211E+02  0.23428870276E+03  0.00000000000E+00 0.  1.
         21    1    1    2  502  501  0.26414152211E+02  0.31933282099E+02  0.50488560689E+00  0.41445106492E+02  0.00000000000E+00 0. -1.
<scales pt_clust_4="550.00000" pt_clust_5="550.00000" pt_clust_6="41.44203"></scales>
<mgrwt>
<rscale>  0 0.30000000E+03</rscale>
<asrwt>  1 0.41442031E+02</asrwt>
<pdfrwt beam="1">  1        1 0.86077878E+00 0.30000000E+03</pdfrwt>
<pdfrwt beam="2">0</pdfrwt>
<totfact> 0.30759484E-04</totfact>
</mgrwt>
<clustering>
<clus scale="   41.442">  1  6  2 -1</clus>
<clus scale="  466.831">  4  5 -1 -1</clus>
<clus scale="  300.000">  1  4  2 -1</clus>
</clustering>
</event>
<event>
 6    1  0.9678510E-012  0.3000000E+03  0.7818608E-02  0.1093470E+00
          1   -1    0    0  502    0  0.00000000000E+00  0.00000000000E+00  0.23100999598E+03  0.23100999598E+03  0.00000000000E+00 0.  1.
         13   -1    0    0    0    0 -0.00000000000E+00 -0.00000000000E+00 -0.27500000000E+03  0.27500000000E+03  0.00000000000E+00 0.  1.
    9000005    2    1    2  501    0 -0.31514812271E+02  0.59380878498E+01 -0.50572933571E+02  0.47327195631E+03  0.46946808064E+03 0.  0.
         13    1    3    3    0    0 -0.10572033336E+03  0.56832640731E+02 -0.23733705290E+03  0.26596167885E+03  0.00000000000E+00 0.  1.
          3    1    3    3  501    0  0.74205521091E+02 -0.50894552881E+02  0.18676411933E+03  0.20731027746E+03  0.00000000000E+00 0.  1.
         21    1    1    2  502  501  0.31514812271E+02 -0.59380878498E+01  0.65829295524E+01  0.32738039668E+02  0.00000000000E+00 0. -1.
<scales pt_clust_4="550.00000" pt_clust_5="550.00000" pt_clust_6="32.06937"></scales>
<mgrwt>
<rscale>  0 0.30000000E+03</rscale>
<asrwt>  1 0.32069367E+02</asrwt>
<pdfrwt beam="1">  1        1 0.84003635E+00 0.30000000E+03</pdfrwt>
<pdfrwt beam="2">0</pdfrwt>
<totfact> 0.50498115E-04</totfact>
</mgrwt>
<clustering>
<clus scale="   32.069">  1  6  2 -1</clus>
<clus scale="  469.468">  4  5 -1 -1</clus>
<clus scale="  300.000">  1  4  2 -1</clus>
</clustering>
</event>
<event>
 6    1  0.9678510E-012  0.3000000E+03  0.7818608E-02  0.1093470E+00
          1   -1    0    0  502    0  0.00000000000E+00  0.00000000000E+00  0.24165887286E+03  0.24165887286E+03  0.00000000000E+00 0.  1.
         13   -1    0    0    0    0 -0.00000000000E+00 -0.00000000000E+00 -0.27500000000E+03  0.27500000000E+03  0.00000000000E+00 0.  1.
    9000005    2    1    2  501    0 -0.28269446634E+02  0.13601706235E+02 -0.52220592183E+02  0.48004463757E+03  0.47616351791E+03 0.  0.
         13    1    3    3    0    0 -0.19953764000E+03  0.35749023296E+02  0.12047890036E+03  0.23581439285E+03  0.00000000000E+00 0.  1.
          3    1    3    3  501    0  0.17126819337E+03 -0.22147317060E+02 -0.17269949254E+03  0.24423024472E+03  0.00000000000E+00 0.  1.
         21    1    1    2  502  501  0.28269446634E+02 -0.13601706235E+02  0.18879465047E+02  0.36614235291E+02  0.00000000000E+00 0.  1.
<scales pt_clust_4="550.00000" pt_clust_5="550.00000" pt_clust_6="31.37145"></scales>
<mgrwt>
<rscale>  0 0.30000000E+03</rscale>
<asrwt>  1 0.31371452E+02</asrwt>
<pdfrwt beam="1">  1        1 0.87875954E+00 0.30000000E+03</pdfrwt>
<pdfrwt beam="2">0</pdfrwt>
<totfact> 0.20856874E-04</totfact>
</mgrwt>
<clustering>
<clus scale="   31.371">  1  6  2 -1</clus>
<clus scale="  476.164">  4  5 -1 -1</clus>
<clus scale="  300.000">  1  4  2 -1</clus>
</clustering>
</event>
<event>
 6    1  0.9678510E-012  0.3000000E+03  0.7818608E-02  0.1093470E+00
          1   -1    0    0  502    0  0.00000000000E+00  0.00000000000E+00  0.23275181203E+03  0.23275181203E+03  0.00000000000E+00 0.  1.
         13   -1    0    0    0    0 -0.00000000000E+00 -0.00000000000E+00 -0.27500000000E+03  0.27500000000E+03  0.00000000000E+00 0.  1.
    9000005    2    1    2  501    0 -0.37153096476E+02  0.10743311966E+02 -0.27823583631E+02  0.46647420866E+03  0.46403476616E+03 0.  0.
         13    1    3    3    0    0 -0.21455674853E+03 -0.96878758830E+02  0.57151281811E+02  0.24225268061E+03  0.00000000000E+00 0.  1.
          1    1    3    3  501    0  0.17740365205E+03  0.10762207080E+03 -0.84974865442E+02  0.22422152805E+03  0.00000000000E+00 0.  1.
         21    1    1    2  502  501  0.37153096476E+02 -0.10743311966E+02 -0.14424604339E+02  0.41277603371E+02  0.00000000000E+00 0.  1.
<scales pt_clust_4="550.00000" pt_clust_5="550.00000" pt_clust_6="38.67522"></scales>
<mgrwt>
<rscale>  0 0.30000000E+03</rscale>
<asrwt>  1 0.38675222E+02</asrwt>
<pdfrwt beam="1">  1        1 0.84637023E+00 0.30000000E+03</pdfrwt>
<pdfrwt beam="2">0</pdfrwt>
<totfact> 0.43134295E-04</totfact>
</mgrwt>
<clustering>
<clus scale="   38.675">  1  6  2 -1</clus>
<clus scale="  464.035">  4  5 -1 -1</clus>
<clus scale="  300.000">  1  4  2 -1</clus>
</clustering>
</event>
<event>
 6    1  0.9678510E-012  0.3000000E+03  0.7818608E-02  0.1093470E+00
          1   -1    0    0  502    0  0.00000000000E+00  0.00000000000E+00  0.22474302773E+03  0.22474302773E+03  0.00000000000E+00 0.  1.
         13   -1    0    0    0    0 -0.00000000000E+00 -0.00000000000E+00 -0.27500000000E+03  0.27500000000E+03  0.00000000000E+00 0.  1.
    9000005    2    1    2  501    0 -0.19376248997E+02  0.24740791475E+02 -0.64889240130E+02  0.46507821776E+03  0.45945575343E+03 0.  0.
         13    1    3    3    0    0 -0.83929197224E+02  0.83962146612E+02 -0.24084867914E+03  0.26851785500E+03  0.00000000000E+00 0.  1.
          1    1    3    3  501    0  0.64552948226E+02 -0.59221355137E+02  0.17595943901E+03  0.19656036275E+03  0.00000000000E+00 0.  1.
         21    1    1    2  502  501  0.19376248997E+02 -0.24740791475E+02  0.14632267863E+02  0.34664809978E+02  0.00000000000E+00 0.  1.
<scales pt_clust_4="550.00000" pt_clust_5="550.00000" pt_clust_6="31.42524"></scales>
<mgrwt>
<rscale>  0 0.30000000E+03</rscale>
<asrwt>  1 0.31425241E+02</asrwt>
<pdfrwt beam="1">  1        1 0.81724737E+00 0.30000000E+03</pdfrwt>
<pdfrwt beam="2">0</pdfrwt>
<totfact> 0.77879988E-04</totfact>
</mgrwt>
<clustering>
<clus scale="   31.425">  1  6  2 -1</clus>
<clus scale="  459.456">  4  5 -1 -1</clus>
<clus scale="  300.000">  1  4  2 -1</clus>
</clustering>
</event>
<event>
 6    1  0.9678510E-012  0.3000000E+03  0.7818608E-02  0.1093470E+00
          1   -1    0    0  502    0  0.00000000000E+00  0.00000000000E+00  0.22865130494E+03  0.22865130494E+03  0.00000000000E+00 0.  1.
         13   -1    0    0    0    0 -0.00000000000E+00 -0.00000000000E+00 -0.27500000000E+03  0.27500000000E+03  0.00000000000E+00 0.  1.
    9000005    2    1    2  501    0 -0.28496556704E+02 -0.15203303733E+02 -0.69697959092E+02  0.46379679052E+03  0.45739093040E+03 0.  0.
         13    1    3    3    0    0  0.25970434017E+02 -0.58981575766E+02 -0.25643699719E+03  0.26441108760E+03  0.00000000000E+00 0.  1.
          3    1    3    3  501    0 -0.54466990721E+02  0.43778272033E+02  0.18673903809E+03  0.19938570292E+03  0.00000000000E+00 0.  1.
         21    1    1    2  502  501  0.28496556704E+02  0.15203303733E+02  0.23349264028E+02  0.39854514412E+02  0.00000000000E+00 0.  1.
<scales pt_clust_4="550.00000" pt_clust_5="550.00000" pt_clust_6="32.29852"></scales>
<mgrwt>
<rscale>  0 0.30000000E+03</rscale>
<asrwt>  1 0.32298517E+02</asrwt>
<pdfrwt beam="1">  1        1 0.83145929E+00 0.30000000E+03</pdfrwt>
<pdfrwt beam="2">0</pdfrwt>
<totfact> 0.58401488E-04</totfact>
</mgrwt>
<clustering>
<clus scale="   32.299">  1  6  2 -1</clus>
<clus scale="  457.391">  4  5 -1 -1</clus>
<clus scale="  300.000">  1  4  2 -1</clus>
</clustering>
</event>
<event>
 6    1  0.9678510E-012  0.3000000E+03  0.7818608E-02  0.1093470E+00
          1   -1    0    0  502    0  0.00000000000E+00  0.00000000000E+00  0.24495880304E+03  0.24495880304E+03  0.00000000000E+00 0.  1.
         13   -1    0    0    0    0 -0.00000000000E+00 -0.00000000000E+00 -0.27500000000E+03  0.27500000000E+03  0.00000000000E+00 0.  1.
    9000005    2    1    2  501    0 -0.30733277408E+02  0.21251578329E+02 -0.51510781233E+02  0.47686463904E+03  0.47259957624E+03 0.  0.
         13    1    3    3    0    0 -0.13691956328E+03  0.17538376880E+03  0.92241183836E+02  0.24086276001E+03  0.00000000000E+00 0.  1.
          3    1    3    3  501    0  0.10618628587E+03 -0.15413219047E+03 -0.14375196507E+03  0.23600187903E+03  0.00000000000E+00 0.  1.
         21    1    1    2  502  501  0.30733277408E+02 -0.21251578329E+02  0.21469584275E+02  0.43094163997E+02  0.00000000000E+00 0.  1.
<scales pt_clust_4="550.00000" pt_clust_5="550.00000" pt_clust_6="37.36528"></scales>
<mgrwt>
<rscale>  0 0.30000000E+03</rscale>
<asrwt>  1 0.37365277E+02</asrwt>
<pdfrwt beam="1">  1        1 0.89075928E+00 0.30000000E+03</pdfrwt>
<pdfrwt beam="2">0</pdfrwt>
<totfact> 0.13994773E-04</totfact>
</mgrwt>
<clustering>
<clus scale="   37.365">  1  6  2 -1</clus>
<clus scale="  472.600">  4  5 -1 -1</clus>
<clus scale="  300.000">  1  4  2 -1</clus>
</clustering>
</event>
<event>
 6    1  0.9678510E-012  0.3000000E+03  0.7818608E-02  0.1093470E+00
          1   -1    0    0  502    0  0.00000000000E+00  0.00000000000E+00  0.24974547009E+03  0.24974547009E+03  0.00000000000E+00 0.  1.
         13   -1    0    0    0    0 -0.00000000000E+00 -0.00000000000E+00 -0.27500000000E+03  0.27500000000E+03  0.00000000000E+00 0.  1.
    9000005    2    1    2  501    0  0.13542208047E+02 -0.29424702410E+02 -0.54563296498E+02  0.48106242636E+03  0.47685920377E+03 0.  0.
         13    1    3    3    0    0  0.10369525121E+03  0.83598000448E+02  0.16878179077E+03  0.21500842703E+03  0.00000000000E+00 0.  1.
          3    1    3    3  501    0 -0.90153043160E+02 -0.11302270286E+03 -0.22334508726E+03  0.26605399933E+03  0.00000000000E+00 0.  1.
         21    1    1    2  502  501 -0.13542208047E+02  0.29424702410E+02  0.29308766590E+02  0.43683043733E+02  0.00000000000E+00 0.  1.
<scales pt_clust_4="550.00000" pt_clust_5="550.00000" pt_clust_6="32.39143"></scales>
<mgrwt>
<rscale>  0 0.30000000E+03</rscale>
<asrwt>  1 0.32391427E+02</asrwt>
<pdfrwt beam="1">  1        1 0.90816535E+00 0.30000000E+03</pdfrwt>
<pdfrwt beam="2">0</pdfrwt>
<totfact> 0.80553912E-05</totfact>
</mgrwt>
<clustering>
<clus scale="   32.391">  1  6  2 -1</clus>
<clus scale="  476.859">  4  5 -1 -1</clus>
<clus scale="  300.000">  1  4  2 -1</clus>
</clustering>
</event>
<event>
 6    1  0.9678510E-012  0.3000000E+03  0.7818608E-02  0.1093470E+00
          1   -1    0    0  502    0  0.00000000000E+00  0.00000000000E+00  0.23374128946E+03  0.23374128946E+03  0.00000000000E+00 0.  1.
         13   -1    0    0    0    0 -0.00000000000E+00 -0.00000000000E+00 -0.27500000000E+03  0.27500000000E+03  0.00000000000E+00 0.  1.
    9000005    2    1    2  501    0  0.25998147423E+02 -0.24153889745E+02 -0.23417693004E+02  0.46902207540E+03  0.46709100270E+03 0.  0.
         13    1    3    3    0    0 -0.74135138887E+02  0.12459108621E+03  0.15766076320E+03  0.21418653981E+03  0.00000000000E+00 0.  1.
          1    1    3    3  501    0  0.10013328631E+03 -0.14874497596E+03 -0.18107845620E+03  0.25483553559E+03  0.00000000000E+00 0.  1.
         21    1    1    2  502  501 -0.25998147423E+02  0.24153889745E+02 -0.17841017532E+02  0.39719214064E+02  0.00000000000E+00 0. -1.
<scales pt_clust_4="550.00000" pt_clust_5="550.00000" pt_clust_6="35.48683"></scales>
<mgrwt>
<rscale>  0 0.30000000E+03</rscale>
<asrwt>  1 0.35486833E+02</asrwt>
<pdfrwt beam="1">  1        1 0.84996833E+00 0.30000000E+03</pdfrwt>
<pdfrwt beam="2">0</pdfrwt>
<totfact> 0.40621607E-04</totfact>
</mgrwt>
<clustering>
<clus scale="   35.487">  1  6  2 -1</clus>
<clus scale="  467.091">  4  5 -1 -1</clus>
<clus scale="  300.000">  1  4  2 -1</clus>
</clustering>
</event>
<event>
 6    1  0.9678510E-012  0.3000000E+03  0.7818608E-02  0.1093470E+00
          1   -1    0    0  502    0  0.00000000000E+00  0.00000000000E+00  0.24209392884E+03  0.24209392884E+03  0.00000000000E+00 0.  1.
         13   -1    0    0    0    0 -0.00000000000E+00 -0.00000000000E+00 -0.27500000000E+03  0.27500000000E+03  0.00000000000E+00 0.  1.
    9000005    2    1    2  501    0 -0.32352501778E+02 -0.10038429999E+02 -0.31558245198E+02  0.48319302792E+03  0.48096998341E+03 0.  0.
         13    1    3    3    0    0 -0.14228233410E+03  0.19941733238E+03 -0.36314900548E+01  0.24499943422E+03  0.00000000000E+00 0.  1.
          3    1    3    3  501    0  0.10992983232E+03 -0.20945576238E+03 -0.27926755143E+02  0.23819359370E+03  0.00000000000E+00 0.  1.
         21    1    1    2  502  501  0.32352501778E+02  0.10038429999E+02 -0.13478259660E+01  0.33900900917E+02  0.00000000000E+00 0. -1.
<scales pt_clust_4="550.00000" pt_clust_5="550.00000" pt_clust_6="33.87410"></scales>
<mgrwt>
<rscale>  0 0.30000000E+03</rscale>
<asrwt>  1 0.33874097E+02</asrwt>
<pdfrwt beam="1">  1        1 0.88034156E+00 0.30000000E+03</pdfrwt>
<pdfrwt beam="2">0</pdfrwt>
<totfact> 0.19666602E-04</totfact>
</mgrwt>
<clustering>
<clus scale="   33.874">  1  6  2 -1</clus>
<clus scale="  480.970">  4  5 -1 -1</clus>
<clus scale="  300.000">  1  4  2 -1</clus>
</clustering>
</event>
<event>
 6    1  0.9678510E-012  0.3000000E+03  0.7818608E-02  0.1093470E+00
          1   -1    0    0  502    0  0.00000000000E+00  0.00000000000E+00  0.22682901780E+03  0.22682901780E+03  0.00000000000E+00 0.  1.
         13   -1    0    0    0    0 -0.00000000000E+00 -0.00000000000E+00 -0.27500000000E+03  0.27500000000E+03  0.00000000000E+00 0.  1.
    9000005    2    1    2  501    0 -0.16916913913E+01 -0.34598489341E+02 -0.34928824435E+02  0.46474435754E+03  0.46213350647E+03 0.  0.
         13    1    3    3    0    0  0.21610361947E+03  0.56620623920E+02 -0.47081404330E+02  0.22830533948E+03  0.00000000000E+00 0.  1.
          3    1    3    3  501    0 -0.21779531087E+03 -0.91219113261E+02  0.12152579896E+02  0.23643901805E+03  0.00000000000E+00 0.  1.
         21    1    1    2  502  501  0.16916913913E+01  0.34598489341E+02 -0.13242157767E+02  0.37084660262E+02  0.00000000000E+00 0.  1.
<scales pt_clust_4="550.00000" pt_clust_5="550.00000" pt_clust_6="34.63984"></scales>
<mgrwt>
<rscale>  0 0.30000000E+03</rscale>
<asrwt>  1 0.34639840E+02</asrwt>
<pdfrwt beam="1">  1        1 0.82483279E+00 0.30000000E+03</pdfrwt>
<pdfrwt beam="2">0</pdfrwt>
<totfact> 0.65669207E-04</totfact>
</mgrwt>
<clustering>
<clus scale="   34.640">  1  6  2 -1</clus>
<clus scale="  462.134">  4  5 -1 -1</clus>
<clus scale="  300.000">  1  4  2 -1</clus>
</clustering>
</event>
<event>
 6    1  0.9678510E-012  0.3000000E+03  0.7818608E-02  0.1093470E+00
          1   -1    0    0  502    0  0.00000000000E+00  0.00000000000E+00  0.22367532875E+03  0.22367532875E+03  0.00000000000E+00 0.  1.
         13   -1    0    0    0    0 -0.00000000000E+00 -0.00000000000E+00 -0.27500000000E+03  0.27500000000E+03  0.00000000000E+00 0.  1.
    9000005    2    1    2  501    0  0.12425175317E+02 -0.28971305143E+02 -0.65839287878E+02  0.46397092558E+03  0.45819263029E+03 0.  0.
         13    1    3    3    0    0  0.10599523669E+03 -0.43620764693E+02 -0.23986415879E+03  0.26584314170E+03  0.00000000000E+00 0.  1.
          3    1    3    3  501    0 -0.93570061375E+02  0.14649459550E+02  0.17402487092E+03  0.19812778389E+03  0.00000000000E+00 0.  1.
         21    1    1    2  502  501 -0.12425175317E+02  0.28971305143E+02  0.14514616631E+02  0.34704403169E+02  0.00000000000E+00 0. -1.
<scales pt_clust_4="550.00000" pt_clust_5="550.00000" pt_clust_6="31.52335"></scales>
<mgrwt>
<rscale>  0 0.30000000E+03</rscale>
<asrwt>  1 0.31523349E+02</asrwt>
<pdfrwt beam="1">  1        1 0.81336483E+00 0.30000000E+03</pdfrwt>
<pdfrwt beam="2">0</pdfrwt>
<totfact> 0.83684548E-04</totfact>
</mgrwt>
<clustering>
<clus scale="   31.523">  1  6  2 -1</clus>
<clus scale="  458.193">  4  5 -1 -1</clus>
<clus scale="  300.000">  1  4  2 -1</clus>
</clustering>
</event>
<event>
 6    1  0.9678510E-012  0.3000000E+03  0.7818608E-02  0.1093470E+00
          1   -1    0    0  502    0  0.00000000000E+00  0.00000000000E+00  0.22817129135E+03  0.22817129135E+03  0.00000000000E+00 0.  1.
         13   -1    0    0    0    0 -0.00000000000E+00 -0.00000000000E+00 -0.27500000000E+03  0.27500000000E+03  0.00000000000E+00 0.  1.
    9000005    2    1    2  501    0  0.17239210046E+02  0.25210892835E+02 -0.52255265556E+02  0.47215150733E+03  0.46825597019E+03 0.  0.
         13    1    3    3    0    0 -0.21732371535E+03 -0.36041759047E+02 -0.64115873383E+02  0.22943288968E+03  0.00000000000E+00 0.  1.
          1    1    3    3  501    0  0.23456292540E+03  0.61252651882E+02  0.11860607826E+02  0.24271861765E+03  0.00000000000E+00 0.  1.
         21    1    1    2  502  501 -0.17239210046E+02 -0.25210892835E+02  0.54265569026E+01  0.31019784016E+02  0.00000000000E+00 0.  1.
<scales pt_clust_4="550.00000" pt_clust_5="550.00000" pt_clust_6="30.54144"></scales>
<mgrwt>
<rscale>  0 0.30000000E+03</rscale>
<asrwt>  1 0.30541439E+02</asrwt>
<pdfrwt beam="1">  1        1 0.82971379E+00 0.30000000E+03</pdfrwt>
<pdfrwt beam="2">0</pdfrwt>
<totfact> 0.60978971E-04</totfact>
</mgrwt>
<clustering>
<clus scale="   30.541">  1  6  2 -1</clus>
<clus scale="  468.256">  4  5 -1 -1</clus>
<clus scale="  300.000">  1  4  2 -1</clus>
</clustering>
</event>
<event>
 6    1  0.9678510E-012  0.3000000E+03  0.7818608E-02  0.1093470E+00
          1   -1    0    0  502    0  0.00000000000E+00  0.00000000000E+00  0.22290132912E+03  0.22290132912E+03  0.00000000000E+00 0.  1.
         13   -1    0    0    0    0 -0.00000000000E+00 -0.00000000000E+00 -0.27500000000E+03  0.27500000000E+03  0.00000000000E+00 0.  1.
    9000005    2    1    2  501    0 -0.16130162195E+02  0.28860202055E+02 -0.56769387006E+02  0.46451107628E+03  0.45984201993E+03 0.  0.
         13    1    3    3    0    0 -0.16812839112E+03 -0.13054139855E+03 -0.10753909973E+03  0.23848033589E+03  0.00000000000E+00 0.  1.
          3    1    3    3  501    0  0.15199822893E+03  0.15940160060E+03  0.50769712729E+02  0.22603074039E+03  0.00000000000E+00 0.  1.
         21    1    1    2  502  501  0.16130162195E+02 -0.28860202055E+02  0.46707161221E+01  0.33390252832E+02  0.00000000000E+00 0.  1.
<scales pt_clust_4="550.00000" pt_clust_5="550.00000" pt_clust_6="33.06196"></scales>
<mgrwt>
<rscale>  0 0.30000000E+03</rscale>
<asrwt>  1 0.33061963E+02</asrwt>
<pdfrwt beam="1">  1        1 0.81055029E+00 0.30000000E+03</pdfrwt>
<pdfrwt beam="2">0</pdfrwt>
<totfact> 0.87285605E-04</totfact>
</mgrwt>
<clustering>
<clus scale="   33.062">  1  6  2 -1</clus>
<clus scale="  459.842">  4  5 -1 -1</clus>
<clus scale="  300.000">  1  4  2 -1</clus>
</clustering>
</event>
<event>
 6    1  0.9678510E-012  0.3000000E+03  0.7818608E-02  0.1093470E+00
          1   -1    0    0  502    0  0.00000000000E+00  0.00000000000E+00  0.24246957654E+03  0.24246957654E+03  0.00000000000E+00 0.  1.
         13   -1    0    0    0    0 -0.00000000000E+00 -0.00000000000E+00 -0.27500000000E+03  0.27500000000E+03  0.00000000000E+00 0.  1.
    9000005    2    1    2  501    0 -0.15950726692E+02  0.30338260000E+02 -0.35437534216E+02  0.48307063768E+03  0.48054821450E+03 0.  0.
         13    1    3    3    0    0  0.13536540017E+03 -0.13296243272E+03 -0.14127779272E+03  0.23656334203E+03  0.00000000000E+00 0.  1.
          3    1    3    3  501    0 -0.15131612686E+03  0.16330069271E+03  0.10584025851E+03  0.24650729565E+03  0.00000000000E+00 0.  1.
         21    1    1    2  502  501  0.15950726692E+02 -0.30338260000E+02  0.29071107577E+01  0.34398938861E+02  0.00000000000E+00 0.  1.
<scales pt_clust_4="550.00000" pt_clust_5="550.00000" pt_clust_6="34.27588"></scales>
<mgrwt>
<rscale>  0 0.30000000E+03</rscale>
<asrwt>  1 0.34275876E+02</asrwt>
<pdfrwt beam="1">  1        1 0.88170755E+00 0.30000000E+03</pdfrwt>
<pdfrwt beam="2">0</pdfrwt>
<totfact> 0.18854618E-04</totfact>
</mgrwt>
<clustering>
<clus scale="   34.276">  1  6  2 -1</clus>
<clus scale="  480.548">  4  5 -1 -1</clus>
<clus scale="  300.000">  1  4  2 -1</clus>
</clustering>
</event>
<event>
 6    1  0.9678510E-012  0.3000000E+03  0.7818608E-02  0.1093470E+00
          1   -1    0    0  502    0  0.00000000000E+00  0.00000000000E+00  0.22096280126E+03  0.22096280126E+03  0.00000000000E+00 0.  1.
         13   -1    0    0    0    0 -0.00000000000E+00 -0.00000000000E+00 -0.27500000000E+03  0.27500000000E+03  0.00000000000E+00 0.  1.
    9000005    2    1    2  501    0  0.18118988024E+02  0.24010373023E+02 -0.53042699254E+02  0.46586654288E+03  0.46185854121E+03 0.  0.
         13    1    3    3    0    0 -0.12583387704E+03  0.10773249661E+03  0.13571693086E+03  0.21414840825E+03  0.00000000000E+00 0.  1.
          1    1    3    3  501    0  0.14395286506E+03 -0.83722123586E+02 -0.18875963011E+03  0.25171813462E+03  0.00000000000E+00 0.  1.
         21    1    1    2  502  501 -0.18118988024E+02 -0.24010373023E+02 -0.99449948249E+00  0.30096258388E+02  0.00000000000E+00 0. -1.
<scales pt_clust_4="550.00000" pt_clust_5="550.00000" pt_clust_6="30.07982"></scales>
<mgrwt>
<rscale>  0 0.30000000E+03</rscale>
<asrwt>  1 0.30079823E+02</asrwt>
<pdfrwt beam="1">  1        1 0.80350110E+00 0.30000000E+03</pdfrwt>
<pdfrwt beam="2">0</pdfrwt>
<totfact> 0.10063695E-03</totfact>
</mgrwt>
<clustering>
<clus scale="   30.080">  1  6  2 -1</clus>
<clus scale="  461.859">  4  5 -1 -1</clus>
<clus scale="  300.000">  1  4  2 -1</clus>
</clustering>
</event>
<event>
 6    1  0.9678510E-012  0.3000000E+03  0.7818608E-02  0.1093470E+00
          1   -1    0    0  502    0  0.00000000000E+00  0.00000000000E+00  0.22971030808E+03  0.22971030808E+03  0.00000000000E+00 0.  1.
         13   -1    0    0    0    0 -0.00000000000E+00 -0.00000000000E+00 -0.27500000000E+03  0.27500000000E+03  0.00000000000E+00 0.  1.
    9000005    2    1    2  501    0  0.44873485384E+01 -0.34506818207E+02 -0.54151489456E+02  0.46880225529E+03  0.46436226586E+03 0.  0.
         13    1    3    3    0    0  0.17494703869E+03  0.55678433186E+02 -0.16459180433E+03  0.24657050984E+03  0.00000000000E+00 0.  1.
          1    1    3    3  501    0 -0.17045969015E+03 -0.90185251393E+02  0.11044031488E+03  0.22223174545E+03  0.00000000000E+00 0.  1.
         21    1    1    2  502  501 -0.44873485384E+01  0.34506818207E+02  0.88617975352E+01  0.35908052791E+02  0.00000000000E+00 0.  1.
<scales pt_clust_4="550.00000" pt_clust_5="550.00000" pt_clust_6="34.79737"></scales>
<mgrwt>
<rscale>  0 0.30000000E+03</rscale>
<asrwt>  1 0.34797368E+02</asrwt>
<pdfrwt beam="1">  1        1 0.83531021E+00 0.30000000E+03</pdfrwt>
<pdfrwt beam="2">0</pdfrwt>
<totfact> 0.53876608E-04</totfact>
</mgrwt>
<clustering>
<clus scale="   34.797">  1  6  2 -1</clus>
<clus scale="  464.362">  4  5 -1 -1</clus>
<clus scale="  300.000">  1  4  2 -1</clus>
</clustering>
</event>
<event>
 6    1  0.9678510E-012  0.3000000E+03  0.7818608E-02  0.1093470E+00
          1   -1    0    0  502    0  0.00000000000E+00  0.00000000000E+00  0.22512568904E+03  0.22512568904E+03  0.00000000000E+00 0.  1.
         13   -1    0    0    0    0 -0.00000000000E+00 -0.00000000000E+00 -0.27500000000E+03  0.27500000000E+03  0.00000000000E+00 0.  1.
    9000005    2    1    2  501    0 -0.20484957322E+02  0.33143637378E+02 -0.53941925605E+02  0.46095070131E+03  0.45612244356E+03 0.  0.
         13    1    3    3    0    0 -0.86054138628E+02  0.12009544326E+03  0.16190689158E+03  0.21918501730E+03  0.00000000000E+00 0.  1.
          1    1    3    3  501    0  0.65569181306E+02 -0.86951805886E+02 -0.21584881718E+03  0.24176568401E+03  0.00000000000E+00 0.  1.
         21    1    1    2  502  501  0.20484957322E+02 -0.33143637378E+02  0.40676146476E+01  0.39174987735E+02  0.00000000000E+00 0. -1.
<scales pt_clust_4="550.00000" pt_clust_5="550.00000" pt_clust_6="38.96324"></scales>
<mgrwt>
<rscale>  0 0.30000000E+03</rscale>
<asrwt>  1 0.38963241E+02</asrwt>
<pdfrwt beam="1">  1        1 0.81863887E+00 0.30000000E+03</pdfrwt>
<pdfrwt beam="2">0</pdfrwt>
<totfact> 0.72835296E-04</totfact>
</mgrwt>
<clustering>
<clus scale="   38.963">  1  6  2 -1</clus>
<clus scale="  456.122">  4  5 -1 -1</clus>
<clus scale="  300.000">  1  4  2 -1</clus>
</clustering>
</event>
<event>
 6    1  0.9678510E-012  0.3000000E+03  0.7818608E-02  0.1093470E+00
          1   -1    0    0  502    0  0.00000000000E+00  0.00000000000E+00  0.22890240911E+03  0.22890240911E+03  0.00000000000E+00 0.  1.
         13   -1    0    0    0    0 -0.00000000000E+00 -0.00000000000E+00 -0.27500000000E+03  0.27500000000E+03  0.00000000000E+00 0.  1.
    9000005    2    1    2  501    0  0.22118219040E+02  0.21841093125E+02 -0.27454738798E+02  0.46765596244E+03  0.46581336130E+03 0.  0.
         13    1    3    3    0    0  0.11787560419E+03 -0.11147928175E+03 -0.18087320137E+03  0.24297613730E+03  0.00000000000E+00 0.  1.
          3    1    3    3  501    0 -0.95757385147E+02  0.13332037488E+03  0.15341846257E+03  0.22467982514E+03  0.00000000000E+00 0.  1.
         21    1    1    2  502  501 -0.22118219040E+02 -0.21841093125E+02 -0.18642852088E+02  0.36246446672E+02  0.00000000000E+00 0.  1.
<scales pt_clust_4="550.00000" pt_clust_5="550.00000" pt_clust_6="31.08456"></scales>
<mgrwt>
<rscale>  0 0.30000000E+03</rscale>
<asrwt>  1 0.31084561E+02</asrwt>
<pdfrwt beam="1">  1        1 0.83237240E+00 0.30000000E+03</pdfrwt>
<pdfrwt beam="2">0</pdfrwt>
<totfact> 0.57877845E-04</totfact>
</mgrwt>
<clustering>
<clus scale="   31.085">  1  6  2 -1</clus>
<clus scale="  465.813">  4  5 -1 -1</clus>
<clus scale="  300.000">  1  4  2 -1</clus>
</clustering>
</event>
<event>
 6    1  0.9678510E-012  0.3000000E+03  0.7818608E-02  0.1093470E+00
          1   -1    0    0  502    0  0.00000000000E+00  0.00000000000E+00  0.23355035775E+03  0.23355035775E+03  0.00000000000E+00 0.  1.
         13   -1    0    0    0    0 -0.00000000000E+00 -0.00000000000E+00 -0.27500000000E+03  0.27500000000E+03  0.00000000000E+00 0.  1.
    9000005    2    1    2  501    0  0.28469815070E+02 -0.18285059166E+02 -0.46055743812E+02  0.47440229880E+03  0.47094748731E+03 0.  0.
         13    1    3    3    0    0 -0.10438084454E+03 -0.16434118544E+03 -0.15504295103E+03  0.24888090044E+03  0.00000000000E+00 0.  1.
          3    1    3    3  501    0  0.13285065961E+03  0.14605612628E+03  0.10898720722E+03  0.22552139836E+03  0.00000000000E+00 0.  1.
         21    1    1    2  502  501 -0.28469815070E+02  0.18285059166E+02  0.46061015657E+01  0.34148058956E+02  0.00000000000E+00 0.  1.
<scales pt_clust_4="550.00000" pt_clust_5="550.00000" pt_clust_6="33.83598"></scales>
<mgrwt>
<rscale>  0 0.30000000E+03</rscale>
<asrwt>  1 0.33835983E+02</asrwt>
<pdfrwt beam="1">  1        1 0.84927403E+00 0.30000000E+03</pdfrwt>
<pdfrwt beam="2">0</pdfrwt>
<totfact> 0.41602484E-04</totfact>
</mgrwt>
<clustering>
<clus scale="   33.836">  1  6  2 -1</clus>
<clus scale="  470.947">  4  5 -1 -1</clus>
<clus scale="  300.000">  1  4  2 -1</clus>
</clustering>
</event>
<event>
 6    1  0.9678510E-012  0.3000000E+03  0.7818608E-02  0.1093470E+00
          1   -1    0    0  502    0  0.00000000000E+00  0.00000000000E+00  0.24000775867E+03  0.24000775867E+03  0.00000000000E+00 0.  1.
         13   -1    0    0    0    0 -0.00000000000E+00 -0.00000000000E+00 -0.27500000000E+03  0.27500000000E+03  0.00000000000E+00 0.  1.
    9000005    2    1    2  501    0  0.29148062043E+02 -0.11171577802E+02 -0.37599319821E+02  0.48368347847E+03  0.48120846296E+03 0.  0.
         13    1    3    3    0    0 -0.21645083158E+03 -0.59360025315E+02 -0.60221113896E+02  0.23238149163E+03  0.00000000000E+00 0.  1.
          1    1    3    3  501    0  0.24559889362E+03  0.48188447513E+02  0.22621794075E+02  0.25130198684E+03  0.00000000000E+00 0.  1.
         21    1    1    2  502  501 -0.29148062043E+02  0.11171577802E+02  0.26070784855E+01  0.31324280194E+02  0.00000000000E+00 0.  1.
<scales pt_clust_4="550.00000" pt_clust_5="550.00000" pt_clust_6="31.21560"></scales>
<mgrwt>
<rscale>  0 0.30000000E+03</rscale>
<asrwt>  1 0.31215600E+02</asrwt>
<pdfrwt beam="1">  1        1 0.87275549E+00 0.30000000E+03</pdfrwt>
<pdfrwt beam="2">0</pdfrwt>
<totfact> 0.24254025E-04</totfact>
</mgrwt>
<clustering>
<clus scale="   31.216">  1  6  2 -1</clus>
<clus scale="  481.208">  4  5 -1 -1</clus>
<clus scale="  300.000">  1  4  2 -1</clus>
</clustering>
</event>
<event>
 6    1  0.9678510E-012  0.3000000E+03  0.7818608E-02  0.1093470E+00
          1   -1    0    0  502    0  0.00000000000E+00  0.00000000000E+00  0.23361391825E+03  0.23361391825E+03  0.00000000000E+00 0.  1.
         13   -1    0    0    0    0 -0.00000000000E+00 -0.00000000000E+00 -0.27500000000E+03  0.27500000000E+03  0.00000000000E+00 0.  1.
    9000005    2    1    2  501    0 -0.25200766411E+02 -0.27635840327E+02 -0.48522120982E+02  0.47053844906E+03  0.46653319016E+03 0.  0.
         13    1    3    3    0    0  0.10669157546E+03 -0.20868632263E+03 -0.72315926781E+02  0.24528079174E+03  0.00000000000E+00 0.  1.
          1    1    3    3  501    0 -0.13189234187E+03  0.18105048231E+03  0.23793805799E+02  0.22525765732E+03  0.00000000000E+00 0.  1.
         21    1    1    2  502  501  0.25200766411E+02  0.27635840327E+02  0.71360392300E+01  0.38075469192E+02  0.00000000000E+00 0.  1.
<scales pt_clust_4="550.00000" pt_clust_5="550.00000" pt_clust_6="37.40078"></scales>
<mgrwt>
<rscale>  0 0.30000000E+03</rscale>
<asrwt>  1 0.37400779E+02</asrwt>
<pdfrwt beam="1">  1        1 0.84950516E+00 0.30000000E+03</pdfrwt>
<pdfrwt beam="2">0</pdfrwt>
<totfact> 0.40630566E-04</totfact>
</mgrwt>
<clustering>
<clus scale="   37.401">  1  6  2 -1</clus>
<clus scale="  466.533">  4  5 -1 -1</clus>
<clus scale="  300.000">  1  4  2 -1</clus>
</clustering>
</event>
<event>
 6    1  0.9678510E-012  0.3000000E+03  0.7818608E-02  0.1093470E+00
          1   -1    0    0  502    0  0.00000000000E+00  0.00000000000E+00  0.22813257808E+03  0.22813257808E+03  0.00000000000E+00 0.  1.
         13   -1    0    0    0    0 -0.00000000000E+00 -0.00000000000E+00 -0.27500000000E+03  0.27500000000E+03  0.00000000000E+00 0.  1.
    9000005    2    1    2  501    0 -0.31815643242E+02 -0.69995405777E+01 -0.47344611298E+02  0.47055257757E+03  0.46702996405E+03 0.  0.
         13    1    3    3    0    0  0.16207486413E+03 -0.10175784941E+03 -0.13855369331E+03  0.23626266618E+03  0.00000000000E+00 0.  1.
          3    1    3    3  501    0 -0.19389050738E+03  0.94758308829E+02  0.91209082009E+02  0.23428991140E+03  0.00000000000E+00 0.  1.
         21    1    1    2  502  501  0.31815643242E+02  0.69995405777E+01  0.47718937811E+00  0.32580000505E+02  0.00000000000E+00 0.  1.
<scales pt_clust_4="550.00000" pt_clust_5="550.00000" pt_clust_6="32.57651"></scales>
<mgrwt>
<rscale>  0 0.30000000E+03</rscale>
<asrwt>  1 0.32576506E+02</asrwt>
<pdfrwt beam="1">  1        1 0.82957301E+00 0.30000000E+03</pdfrwt>
<pdfrwt beam="2">0</pdfrwt>
<totfact> 0.60396515E-04</totfact>
</mgrwt>
<clustering>
<clus scale="   32.577">  1  6  2 -1</clus>
<clus scale="  467.030">  4  5 -1 -1</clus>
<clus scale="  300.000">  1  4  2 -1</clus>
</clustering>
</event>
<event>
 6    1  0.9678510E-012  0.3000000E+03  0.7818608E-02  0.1093470E+00
          1   -1    0    0  502    0  0.00000000000E+00  0.00000000000E+00  0.22371264274E+03  0.22371264274E+03  0.00000000000E+00 0.  1.
         13   -1    0    0    0    0 -0.00000000000E+00 -0.00000000000E+00 -0.27500000000E+03  0.27500000000E+03  0.00000000000E+00 0.  1.
    9000005    2    1    2  501    0  0.23640441254E+02  0.23704783240E+02 -0.62171723612E+02  0.46350956557E+03  0.45809934179E+03 0.  0.
         13    1    3    3    0    0  0.21206630953E+03  0.94217734391E+02 -0.10986281821E+03  0.25674684016E+03  0.00000000000E+00 0.  1.
          1    1    3    3  501    0 -0.18842586827E+03 -0.70512951152E+02  0.47691094597E+02  0.20676272541E+03  0.00000000000E+00 0.  1.
         21    1    1    2  502  501 -0.23640441254E+02 -0.23704783240E+02  0.10884366350E+02  0.35203077166E+02  0.00000000000E+00 0. -1.
<scales pt_clust_4="550.00000" pt_clust_5="550.00000" pt_clust_6="33.47816"></scales>
<mgrwt>
<rscale>  0 0.30000000E+03</rscale>
<asrwt>  1 0.33478160E+02</asrwt>
<pdfrwt beam="1">  1        1 0.81350052E+00 0.30000000E+03</pdfrwt>
<pdfrwt beam="2">0</pdfrwt>
<totfact> 0.82529102E-04</totfact>
</mgrwt>
<clustering>
<clus scale="   33.478">  1  6  2 -1</clus>
<clus scale="  458.099">  4  5 -1 -1</clus>
<clus scale="  300.000">  1  4  2 -1</clus>
</clustering>
</event>
<event>
 6    1  0.9678510E-012  0.3000000E+03  0.7818608E-02  0.1093470E+00
          1   -1    0    0  502    0  0.00000000000E+00  0.00000000000E+00  0.22542655952E+03  0.22542655952E+03  0.00000000000E+00 0.  1.
         13   -1    0    0    0    0 -0.00000000000E+00 -0.00000000000E+00 -0.27500000000E+03  0.27500000000E+03  0.00000000000E+00 0.  1.
    9000005    2    1    2  501    0  0.14258310132E+01 -0.37646724881E+02 -0.58035158812E+02  0.46181426141E+03  0.45660160260E+03 0.  0.
         13    1    3    3    0    0  0.20305002920E+03 -0.12072904841E+03 -0.60012963866E+02  0.24373422681E+03  0.00000000000E+00 0.  1.
          3    1    3    3  501    0 -0.20162419819E+03  0.83082323524E+02  0.19778050536E+01  0.21808003460E+03  0.00000000000E+00 0.  1.
         21    1    1    2  502  501 -0.14258310132E+01  0.37646724881E+02  0.84617183328E+01  0.38612298112E+02  0.00000000000E+00 0. -1.
<scales pt_clust_4="550.00000" pt_clust_5="550.00000" pt_clust_6="37.67372"></scales>
<mgrwt>
<rscale>  0 0.30000000E+03</rscale>
<asrwt>  1 0.37673716E+02</asrwt>
<pdfrwt beam="1">  1        1 0.81973294E+00 0.30000000E+03</pdfrwt>
<pdfrwt beam="2">0</pdfrwt>
<totfact> 0.71726625E-04</totfact>
</mgrwt>
<clustering>
<clus scale="   37.674">  1  6  2 -1</clus>
<clus scale="  456.602">  4  5 -1 -1</clus>
<clus scale="  300.000">  1  4  2 -1</clus>
</clustering>
</event>
<event>
 6    1  0.9678510E-012  0.3000000E+03  0.7818608E-02  0.1093470E+00
          1   -1    0    0  502    0  0.00000000000E+00  0.00000000000E+00  0.23373568062E+03  0.23373568062E+03  0.00000000000E+00 0.  1.
         13   -1    0    0    0    0 -0.00000000000E+00 -0.00000000000E+00 -0.27500000000E+03  0.27500000000E+03  0.00000000000E+00 0.  1.
    9000005    2    1    2  501    0 -0.29865032761E+02 -0.54323297576E+01 -0.69768486119E+02  0.46709534069E+03  0.46085679473E+03 0.  0.
         13    1    3    3    0    0  0.91779806760E+02 -0.27799426534E+02  0.17120530455E+03  0.19623352759E+03  0.00000000000E+00 0.  1.
          1    1    3    3  501    0 -0.12164483952E+03  0.22367096776E+02 -0.24097379067E+03  0.27086181309E+03  0.00000000000E+00 0.  1.
         21    1    1    2  502  501  0.29865032761E+02  0.54323297576E+01  0.28504166743E+02  0.41640339938E+02  0.00000000000E+00 0. -1.
<scales pt_clust_4="550.00000" pt_clust_5="550.00000" pt_clust_6="30.35507"></scales>
<mgrwt>
<rscale>  0 0.30000000E+03</rscale>
<asrwt>  1 0.30355072E+02</asrwt>
<pdfrwt beam="1">  1        1 0.84994793E+00 0.30000000E+03</pdfrwt>
<pdfrwt beam="2">0</pdfrwt>
<totfact> 0.41859161E-04</totfact>
</mgrwt>
<clustering>
<clus scale="   30.355">  1  6  2 -1</clus>
<clus scale="  460.857">  4  5 -1 -1</clus>
<clus scale="  300.000">  1  4  2 -1</clus>
</clustering>
</event>
<event>
 6    1  0.9678510E-012  0.3000000E+03  0.7818608E-02  0.1093470E+00
          1   -1    0    0  502    0  0.00000000000E+00  0.00000000000E+00  0.23612022450E+03  0.23612022450E+03  0.00000000000E+00 0.  1.
         13   -1    0    0    0    0 -0.00000000000E+00 -0.00000000000E+00 -0.27500000000E+03  0.27500000000E+03  0.00000000000E+00 0.  1.
    9000005    2    1    2  501    0 -0.28129628203E+02  0.12804005758E+02 -0.55680246628E+02  0.47594247050E+03  0.47166272570E+03 0.  0.
         13    1    3    3    0    0 -0.11761881862E+03  0.42838033964E+02 -0.23897208487E+03  0.26977201670E+03  0.00000000000E+00 0.  1.
          1    1    3    3  501    0  0.89489190417E+02 -0.30034028206E+02  0.18329183825E+03  0.20617045380E+03  0.00000000000E+00 0.  1.
         21    1    1    2  502  501  0.28129628203E+02 -0.12804005758E+02  0.16800471133E+02  0.35177754001E+02  0.00000000000E+00 0.  1.
<scales pt_clust_4="550.00000" pt_clust_5="550.00000" pt_clust_6="30.90661"></scales>
<mgrwt>
<rscale>  0 0.30000000E+03</rscale>
<asrwt>  1 0.30906610E+02</asrwt>
<pdfrwt beam="1">  1        1 0.85861900E+00 0.30000000E+03</pdfrwt>
<pdfrwt beam="2">0</pdfrwt>
<totfact> 0.34251458E-04</totfact>
</mgrwt>
<clustering>
<clus scale="   30.907">  1  6  2 -1</clus>
<clus scale="  471.663">  4  5 -1 -1</clus>
<clus scale="  300.000">  1  4  2 -1</clus>
</clustering>
</event>
<event>
 6    1  0.9678510E-012  0.3000000E+03  0.7818608E-02  0.1093470E+00
          1   -1    0    0  502    0  0.00000000000E+00  0.00000000000E+00  0.23717472212E+03  0.23717472212E+03  0.00000000000E+00 0.  1.
         13   -1    0    0    0    0 -0.00000000000E+00 -0.00000000000E+00 -0.27500000000E+03  0.27500000000E+03  0.00000000000E+00 0.  1.
    9000005    2    1    2  501    0 -0.24827446638E+02 -0.24579584523E+02 -0.32266612347E+02  0.47679878616E+03  0.47442111055E+03 0.  0.
         13    1    3    3    0    0 -0.78127183639E+02 -0.23213535158E+03 -0.79224166682E+02  0.25742406038E+03  0.00000000000E+00 0.  1.
          1    1    3    3  501    0  0.53299737001E+02  0.20755576706E+03  0.46957554335E+02  0.21937472578E+03  0.00000000000E+00 0.  1.
         21    1    1    2  502  501  0.24827446638E+02  0.24579584523E+02 -0.55586655373E+01  0.35375935951E+02  0.00000000000E+00 0.  1.
<scales pt_clust_4="550.00000" pt_clust_5="550.00000" pt_clust_6="34.93650"></scales>
<mgrwt>
<rscale>  0 0.30000000E+03</rscale>
<asrwt>  1 0.34936504E+02</asrwt>
<pdfrwt beam="1">  1        1 0.86245353E+00 0.30000000E+03</pdfrwt>
<pdfrwt beam="2">0</pdfrwt>
<totfact> 0.30449571E-04</totfact>
</mgrwt>
<clustering>
<clus scale="   34.937">  1  6  2 -1</clus>
<clus scale="  474.421">  4  5 -1 -1</clus>
<clus scale="  300.000">  1  4  2 -1</clus>
</clustering>
</event>
<event>
 6    1  0.9678510E-012  0.3000000E+03  0.7818608E-02  0.1093470E+00
          1   -1    0    0  502    0  0.00000000000E+00  0.00000000000E+00  0.24279622525E+03  0.24279622525E+03  0.00000000000E+00 0.  1.
         13   -1    0    0    0    0 -0.00000000000E+00 -0.00000000000E+00 -0.27500000000E+03  0.27500000000E+03  0.00000000000E+00 0.  1.
    9000005    2    1    2  501    0 -0.30133398060E+02 -0.13914640806E+02 -0.37472692309E+02  0.48418967233E+03  0.48159505522E+03 0.  0.
         13    1    3    3    0    0 -0.17789140676E+02  0.22969899100E+03 -0.63233428024E+02  0.23890698276E+03  0.00000000000E+00 0.  1.
          3    1    3    3  501    0 -0.12344257384E+02 -0.24361363181E+03  0.25760735716E+02  0.24528268956E+03  0.00000000000E+00 0.  1.
         21    1    1    2  502  501  0.30133398060E+02  0.13914640806E+02  0.52689175620E+01  0.33606552928E+02  0.00000000000E+00 0. -1.
<scales pt_clust_4="550.00000" pt_clust_5="550.00000" pt_clust_6="33.19095"></scales>
<mgrwt>
<rscale>  0 0.30000000E+03</rscale>
<asrwt>  1 0.33190946E+02</asrwt>
<pdfrwt beam="1">  1        1 0.88289536E+00 0.30000000E+03</pdfrwt>
<pdfrwt beam="2">0</pdfrwt>
<totfact> 0.18300895E-04</totfact>
</mgrwt>
<clustering>
<clus scale="   33.191">  1  6  2 -1</clus>
<clus scale="  481.595">  4  5 -1 -1</clus>
<clus scale="  300.000">  1  4  2 -1</clus>
</clustering>
</event>
<event>
 6    1  0.9678510E-012  0.3000000E+03  0.7818608E-02  0.1093470E+00
          1   -1    0    0  502    0  0.00000000000E+00  0.00000000000E+00  0.23983385206E+03  0.23983385206E+03  0.00000000000E+00 0.  1.
         13   -1    0    0    0    0 -0.00000000000E+00 -0.00000000000E+00 -0.27500000000E+03  0.27500000000E+03  0.00000000000E+00 0.  1.
    9000005    2    1    2  501    0  0.33329748979E+02 -0.82176113202E+01 -0.40629658511E+02  0.48007394339E+03  0.47711824600E+03 0.  0.
         13    1    3    3    0    0 -0.97963148492E+02 -0.20763855513E+03 -0.68757092488E+02  0.23966244138E+03  0.00000000000E+00 0.  1.
          3    1    3    3  501    0  0.13129289747E+03  0.19942094381E+03  0.28127433977E+02  0.24041150201E+03  0.00000000000E+00 0.  1.
         21    1    1    2  502  501 -0.33329748979E+02  0.82176113202E+01  0.54635105685E+01  0.34759908668E+02  0.00000000000E+00 0.  1.
<scales pt_clust_4="550.00000" pt_clust_5="550.00000" pt_clust_6="34.32785"></scales>
<mgrwt>
<rscale>  0 0.30000000E+03</rscale>
<asrwt>  1 0.34327850E+02</asrwt>
<pdfrwt beam="1">  1        1 0.87212310E+00 0.30000000E+03</pdfrwt>
<pdfrwt beam="2">0</pdfrwt>
<totfact> 0.24179537E-04</totfact>
</mgrwt>
<clustering>
<clus scale="   34.328">  1  6  2 -1</clus>
<clus scale="  477.118">  4  5 -1 -1</clus>
<clus scale="  300.000">  1  4  2 -1</clus>
</clustering>
</event>
<event>
 6    1  0.9678510E-012  0.3000000E+03  0.7818608E-02  0.1093470E+00
          1   -1    0    0  502    0  0.00000000000E+00  0.00000000000E+00  0.22184675889E+03  0.22184675889E+03  0.00000000000E+00 0.  1.
         13   -1    0    0    0    0 -0.00000000000E+00 -0.00000000000E+00 -0.27500000000E+03  0.27500000000E+03  0.00000000000E+00 0.  1.
    9000005    2    1    2  501    0  0.71150679608E+01 -0.33471706606E+02 -0.56279812239E+02  0.46248464629E+03  0.45777030425E+03 0.  0.
         13    1    3    3    0    0  0.11535804468E+03 -0.15723975843E+03  0.11390528375E+03  0.22584559719E+03  0.00000000000E+00 0.  1.
          1    1    3    3  501    0 -0.10824297672E+03  0.12376805183E+03 -0.17018509599E+03  0.23663904910E+03  0.00000000000E+00 0.  1.
         21    1    1    2  502  501 -0.71150679608E+01  0.33471706606E+02  0.31265711307E+01  0.34362112598E+02  0.00000000000E+00 0. -1.
<scales pt_clust_4="550.00000" pt_clust_5="550.00000" pt_clust_6="34.21958"></scales>
<mgrwt>
<rscale>  0 0.30000000E+03</rscale>
<asrwt>  1 0.34219575E+02</asrwt>
<pdfrwt beam="1">  1        1 0.80671549E+00 0.30000000E+03</pdfrwt>
<pdfrwt beam="2">0</pdfrwt>
<totfact> 0.92855966E-04</totfact>
</mgrwt>
<clustering>
<clus scale="   34.220">  1  6  2 -1</clus>
<clus scale="  457.770">  4  5 -1 -1</clus>
<clus scale="  300.000">  1  4  2 -1</clus>
</clustering>
</event>
<event>
 6    1  0.9678510E-012  0.3000000E+03  0.7818608E-02  0.1093470E+00
          1   -1    0    0  502    0  0.00000000000E+00  0.00000000000E+00  0.22782602663E+03  0.22782602663E+03  0.00000000000E+00 0.  1.
         13   -1    0    0    0    0 -0.00000000000E+00 -0.00000000000E+00 -0.27500000000E+03  0.27500000000E+03  0.00000000000E+00 0.  1.
    9000005    2    1    2  501    0 -0.72939433382E+01  0.30369177927E+02 -0.64828799010E+02  0.46694871561E+03  0.46137061161E+03 0.  0.
         13    1    3    3    0    0 -0.30307416831E+02  0.81710922421E+01  0.19886315320E+03  0.20132525913E+03  0.00000000000E+00 0.  1.
          3    1    3    3  501    0  0.23013473492E+02  0.22198085685E+02 -0.26369195221E+03  0.26562345648E+03  0.00000000000E+00 0.  1.
         21    1    1    2  502  501  0.72939433382E+01 -0.30369177927E+02  0.17654825639E+02  0.35877311016E+02  0.00000000000E+00 0. -1.
<scales pt_clust_4="550.00000" pt_clust_5="550.00000" pt_clust_6="31.23281"></scales>
<mgrwt>
<rscale>  0 0.30000000E+03</rscale>
<asrwt>  1 0.31232813E+02</asrwt>
<pdfrwt beam="1">  1        1 0.82845828E+00 0.30000000E+03</pdfrwt>
<pdfrwt beam="2">0</pdfrwt>
<totfact> 0.62222824E-04</totfact>
</mgrwt>
<clustering>
<clus scale="   31.233">  1  6  2 -1</clus>
<clus scale="  461.371">  4  5 -1 -1</clus>
<clus scale="  300.000">  1  4  2 -1</clus>
</clustering>
</event>
<event>
 6    1  0.9678510E-012  0.3000000E+03  0.7818608E-02  0.1093470E+00
          1   -1    0    0  502    0  0.00000000000E+00  0.00000000000E+00  0.23725283721E+03  0.23725283721E+03  0.00000000000E+00 0.  1.
         13   -1    0    0    0    0 -0.00000000000E+00 -0.00000000000E+00 -0.27500000000E+03  0.27500000000E+03  0.00000000000E+00 0.  1.
    9000005    2    1    2  501    0  0.17560473719E+02 -0.26994343233E+02 -0.33365166425E+02  0.47975258035E+03  0.47750627140E+03 0.  0.
         13    1    3    3    0    0 -0.13630200836E+03  0.49515672959E+02  0.16343067552E+03  0.21849399317E+03  0.00000000000E+00 0.  1.
          1    1    3    3  501    0  0.15386248208E+03 -0.76510016192E+02 -0.19679584195E+03  0.26125858718E+03  0.00000000000E+00 0.  1.
         21    1    1    2  502  501 -0.17560473719E+02  0.26994343233E+02 -0.43819963609E+01  0.32500256859E+02  0.00000000000E+00 0. -1.
<scales pt_clust_4="550.00000" pt_clust_5="550.00000" pt_clust_6="32.20351"></scales>
<mgrwt>
<rscale>  0 0.30000000E+03</rscale>
<asrwt>  1 0.32203507E+02</asrwt>
<pdfrwt beam="1">  1        1 0.86273759E+00 0.30000000E+03</pdfrwt>
<pdfrwt beam="2">0</pdfrwt>
<totfact> 0.30702692E-04</totfact>
</mgrwt>
<clustering>
<clus scale="   32.204">  1  6  2 -1</clus>
<clus scale="  477.506">  4  5 -1 -1</clus>
<clus scale="  300.000">  1  4  2 -1</clus>
</clustering>
</event>
<event>
 6    1  0.9678510E-012  0.3000000E+03  0.7818608E-02  0.1093470E+00
          1   -1    0    0  502    0  0.00000000000E+00  0.00000000000E+00  0.23067729418E+03  0.23067729418E+03  0.00000000000E+00 0.  1.
         13   -1    0    0    0    0 -0.00000000000E+00 -0.00000000000E+00 -0.27500000000E+03  0.27500000000E+03  0.00000000000E+00 0.  1.
    9000005    2    1    2  501    0  0.25252763997E+02 -0.21236505677E+02 -0.60776040056E+02  0.46880720508E+03  0.46367852789E+03 0.  0.
         13    1    3    3    0    0 -0.11953796388E+03  0.15419684466E+03  0.68971939581E+02  0.20693747887E+03  0.00000000000E+00 0.  1.
          3    1    3    3  501    0  0.14479072787E+03 -0.17543335034E+03 -0.12974797964E+03  0.26186972621E+03  0.00000000000E+00 0.  1.
         21    1    1    2  502  501 -0.25252763997E+02  0.21236505677E+02  0.16453334240E+02  0.36870089103E+02  0.00000000000E+00 0.  1.
<scales pt_clust_4="550.00000" pt_clust_5="550.00000" pt_clust_6="32.99532"></scales>
<mgrwt>
<rscale>  0 0.30000000E+03</rscale>
<asrwt>  1 0.32995322E+02</asrwt>
<pdfrwt beam="1">  1        1 0.83882652E+00 0.30000000E+03</pdfrwt>
<pdfrwt beam="2">0</pdfrwt>
<totfact> 0.51294550E-04</totfact>
</mgrwt>
<clustering>
<clus scale="   32.995">  1  6  2 -1</clus>
<clus scale="  463.679">  4  5 -1 -1</clus>
<clus scale="  300.000">  1  4  2 -1</clus>
</clustering>
</event>
<event>
 6    1  0.9678510E-012  0.3000000E+03  0.7818608E-02  0.1093470E+00
          1   -1    0    0  502    0  0.00000000000E+00  0.00000000000E+00  0.24165444025E+03  0.24165444025E+03  0.00000000000E+00 0.  1.
         13   -1    0    0    0    0 -0.00000000000E+00 -0.00000000000E+00 -0.27500000000E+03  0.27500000000E+03  0.00000000000E+00 0.  1.
    9000005    2    1    2  501    0  0.28884332048E+02 -0.13375827746E+02 -0.59641535712E+02  0.47536647884E+03  0.47053475856E+03 0.  0.
         13    1    3    3    0    0  0.13796225224E+03 -0.10445388402E+03 -0.20757156309E+03  0.27024091240E+03  0.00000000000E+00 0.  1.
          3    1    3    3  501    0 -0.10907792019E+03  0.91078056273E+02  0.14793002738E+03  0.20512556644E+03  0.00000000000E+00 0.  1.
         21    1    1    2  502  501 -0.28884332048E+02  0.13375827746E+02  0.26295975957E+02  0.41287961409E+02  0.00000000000E+00 0.  1.
<scales pt_clust_4="550.00000" pt_clust_5="550.00000" pt_clust_6="31.83108"></scales>
<mgrwt>
<rscale>  0 0.30000000E+03</rscale>
<asrwt>  1 0.31831076E+02</asrwt>
<pdfrwt beam="1">  1        1 0.87874342E+00 0.30000000E+03</pdfrwt>
<pdfrwt beam="2">0</pdfrwt>
<totfact> 0.20808224E-04</totfact>
</mgrwt>
<clustering>
<clus scale="   31.831">  1  6  2 -1</clus>
<clus scale="  470.535">  4  5 -1 -1</clus>
<clus scale="  300.000">  1  4  2 -1</clus>
</clustering>
</event>
<event>
 6    1  0.9678510E-012  0.3000000E+03  0.7818608E-02  0.1093470E+00
          1   -1    0    0  502    0  0.00000000000E+00  0.00000000000E+00  0.23048825052E+03  0.23048825052E+03  0.00000000000E+00 0.  1.
         13   -1    0    0    0    0 -0.00000000000E+00 -0.00000000000E+00 -0.27500000000E+03  0.27500000000E+03  0.00000000000E+00 0.  1.
    9000005    2    1    2  501    0 -0.15228368753E+02 -0.26976496975E+02 -0.56911209073E+02  0.47212088320E+03  0.46765329896E+03 0.  0.
         13    1    3    3    0    0 -0.96219212834E+02  0.10239569539E+03 -0.21212008972E+03  0.25443653003E+03  0.00000000000E+00 0.  1.
          1    1    3    3  501    0  0.80990844081E+02 -0.12937219237E+03  0.15520888064E+03  0.21768435317E+03  0.00000000000E+00 0.  1.
         21    1    1    2  502  501  0.15228368753E+02  0.26976496975E+02  0.12399459598E+02  0.33367367325E+02  0.00000000000E+00 0.  1.
<scales pt_clust_4="550.00000" pt_clust_5="550.00000" pt_clust_6="30.97797"></scales>
<mgrwt>
<rscale>  0 0.30000000E+03</rscale>
<asrwt>  1 0.30977970E+02</asrwt>
<pdfrwt beam="1">  1        1 0.83813909E+00 0.30000000E+03</pdfrwt>
<pdfrwt beam="2">0</pdfrwt>
<totfact> 0.52525292E-04</totfact>
</mgrwt>
<clustering>
<clus scale="   30.978">  1  6  2 -1</clus>
<clus scale="  467.653">  4  5 -1 -1</clus>
<clus scale="  300.000">  1  4  2 -1</clus>
</clustering>
</event>
<event>
 6    1  0.9678510E-012  0.3000000E+03  0.7818608E-02  0.1093470E+00
          1   -1    0    0  502    0  0.00000000000E+00  0.00000000000E+00  0.22433782471E+03  0.22433782471E+03  0.00000000000E+00 0.  1.
         13   -1    0    0    0    0 -0.00000000000E+00 -0.00000000000E+00 -0.27500000000E+03  0.27500000000E+03  0.00000000000E+00 0.  1.
    9000005    2    1    2  501    0  0.31914575910E+02  0.11534994969E+02 -0.32463129535E+02  0.46083066264E+03  0.45843150915E+03 0.  0.
         13    1    3    3    0    0  0.10947458974E+03 -0.20076473361E+03  0.17531763765E+02  0.22934368707E+03  0.00000000000E+00 0.  1.
          3    1    3    3  501    0 -0.77560013831E+02  0.21229972858E+03 -0.49994893300E+02  0.23148697556E+03  0.00000000000E+00 0.  1.
         21    1    1    2  502  501 -0.31914575910E+02 -0.11534994969E+02 -0.18199045755E+02  0.38507162072E+02  0.00000000000E+00 0. -1.
<scales pt_clust_4="550.00000" pt_clust_5="550.00000" pt_clust_6="33.93519"></scales>
<mgrwt>
<rscale>  0 0.30000000E+03</rscale>
<asrwt>  1 0.33935194E+02</asrwt>
<pdfrwt beam="1">  1        1 0.81577391E+00 0.30000000E+03</pdfrwt>
<pdfrwt beam="2">0</pdfrwt>
<totfact> 0.78918073E-04</totfact>
</mgrwt>
<clustering>
<clus scale="   33.935">  1  6  2 -1</clus>
<clus scale="  458.432">  4  5 -1 -1</clus>
<clus scale="  300.000">  1  4  2 -1</clus>
</clustering>
</event>
<event>
 6    1  0.9678510E-012  0.3000000E+03  0.7818608E-02  0.1093470E+00
          1   -1    0    0  502    0  0.00000000000E+00  0.00000000000E+00  0.23285805466E+03  0.23285805466E+03  0.00000000000E+00 0.  1.
         13   -1    0    0    0    0 -0.00000000000E+00 -0.00000000000E+00 -0.27500000000E+03  0.27500000000E+03  0.00000000000E+00 0.  1.
    9000005    2    1    2  501    0  0.39213919369E+02  0.45485230553E+01 -0.50832328760E+02  0.46743599016E+03  0.46298386442E+03 0.  0.
         13    1    3    3    0    0  0.93915561965E+02 -0.20233032760E+03  0.53466685465E+02  0.22938260766E+03  0.00000000000E+00 0.  1.
          1    1    3    3  501    0 -0.54701642596E+02  0.20687885065E+03 -0.10429901423E+03  0.23805338250E+03  0.00000000000E+00 0.  1.
         21    1    1    2  502  501 -0.39213919369E+02 -0.45485230553E+01  0.86903834194E+01  0.40422064498E+02  0.00000000000E+00 0.  1.
<scales pt_clust_4="550.00000" pt_clust_5="550.00000" pt_clust_6="39.47684"></scales>
<mgrwt>
<rscale>  0 0.30000000E+03</rscale>
<asrwt>  1 0.39476835E+02</asrwt>
<pdfrwt beam="1">  1        1 0.84675656E+00 0.30000000E+03</pdfrwt>
<pdfrwt beam="2">0</pdfrwt>
<totfact> 0.42631247E-04</totfact>
</mgrwt>
<clustering>
<clus scale="   39.477">  1  6  2 -1</clus>
<clus scale="  462.984">  4  5 -1 -1</clus>
<clus scale="  300.000">  1  4  2 -1</clus>
</clustering>
</event>
<event>
 6    1  0.9678510E-012  0.3000000E+03  0.7818608E-02  0.1093470E+00
          1   -1    0    0  502    0  0.00000000000E+00  0.00000000000E+00  0.23588765321E+03  0.23588765321E+03  0.00000000000E+00 0.  1.
         13   -1    0    0    0    0 -0.00000000000E+00 -0.00000000000E+00 -0.27500000000E+03  0.27500000000E+03  0.00000000000E+00 0.  1.
    9000005    2    1    2  501    0 -0.33029571698E+02  0.14998144318E+02 -0.60502917342E+02  0.46877526254E+03  0.46343688548E+03 0.  0.
         13    1    3    3    0    0 -0.19972782315E+03 -0.13447490003E+03 -0.24892601693E+02  0.24206268547E+03  0.00000000000E+00 0.  1.
          3    1    3    3  501    0  0.16669825145E+03  0.14947304435E+03 -0.35610315650E+02  0.22671257707E+03  0.00000000000E+00 0.  1.
         21    1    1    2  502  501  0.33029571698E+02 -0.14998144318E+02  0.21390570557E+02  0.42112390674E+02  0.00000000000E+00 0.  1.
<scales pt_clust_4="550.00000" pt_clust_5="550.00000" pt_clust_6="36.27529"></scales>
<mgrwt>
<rscale>  0 0.30000000E+03</rscale>
<asrwt>  1 0.36275294E+02</asrwt>
<pdfrwt beam="1">  1        1 0.85777328E+00 0.30000000E+03</pdfrwt>
<pdfrwt beam="2">0</pdfrwt>
<totfact> 0.33915985E-04</totfact>
</mgrwt>
<clustering>
<clus scale="   36.275">  1  6  2 -1</clus>
<clus scale="  463.437">  4  5 -1 -1</clus>
<clus scale="  300.000">  1  4  2 -1</clus>
</clustering>
</event>
<event>
 6    1  0.9678510E-012  0.3000000E+03  0.7818608E-02  0.1093470E+00
          1   -1    0    0  502    0  0.00000000000E+00  0.00000000000E+00  0.21835121449E+03  0.21835121449E+03  0.00000000000E+00 0.  1.
         13   -1    0    0    0    0 -0.00000000000E+00 -0.00000000000E+00 -0.27500000000E+03  0.27500000000E+03  0.00000000000E+00 0.  1.
    9000005    2    1    2  501    0  0.24482172668E+02 -0.18935538349E+02 -0.54764077136E+02  0.46234341682E+03  0.45804410217E+03 0.  0.
         13    1    3    3    0    0 -0.48585520567E+02 -0.20914709456E+03  0.67054123187E+02  0.22494291589E+03  0.00000000000E+00 0.  1.
          1    1    3    3  501    0  0.73067693234E+02  0.19021155621E+03 -0.12181820032E+03  0.23740050093E+03  0.00000000000E+00 0.  1.
         21    1    1    2  502  501 -0.24482172668E+02  0.18935538349E+02 -0.18847083718E+01  0.31007797677E+02  0.00000000000E+00 0. -1.
<scales pt_clust_4="550.00000" pt_clust_5="550.00000" pt_clust_6="30.95047"></scales>
<mgrwt>
<rscale>  0 0.30000000E+03</rscale>
<asrwt>  1 0.30950467E+02</asrwt>
<pdfrwt beam="1">  1        1 0.79400442E+00 0.30000000E+03</pdfrwt>
<pdfrwt beam="2">0</pdfrwt>
<totfact> 0.11747429E-03</totfact>
</mgrwt>
<clustering>
<clus scale="   30.950">  1  6  2 -1</clus>
<clus scale="  458.044">  4  5 -1 -1</clus>
<clus scale="  300.000">  1  4  2 -1</clus>
</clustering>
</event>
<event>
 6    1  0.9678510E-012  0.3000000E+03  0.7818608E-02  0.1093470E+00
          1   -1    0    0  502    0  0.00000000000E+00  0.00000000000E+00  0.23865854283E+03  0.23865854283E+03  0.00000000000E+00 0.  1.
         13   -1    0    0    0    0 -0.00000000000E+00 -0.00000000000E+00 -0.27500000000E+03  0.27500000000E+03  0.00000000000E+00 0.  1.
    9000005    2    1    2  501    0 -0.10147723488E+02  0.49745595687E+02 -0.32912387572E+02  0.46277279727E+03  0.45880043162E+03 0.  0.
         13    1    3    3    0    0  0.22090785761E+03  0.25329944106E+02  0.23753532455E+02  0.22362047743E+03  0.00000000000E+00 0.  1.
          3    1    3    3  501    0 -0.23105558109E+03  0.24415651580E+02 -0.56665920027E+02  0.23915231985E+03  0.00000000000E+00 0.  1.
         21    1    1    2  502  501  0.10147723488E+02 -0.49745595687E+02 -0.34290696004E+01  0.50885745554E+02  0.00000000000E+00 0.  1.
<scales pt_clust_4="550.00000" pt_clust_5="550.00000" pt_clust_6="50.77008"></scales>
<mgrwt>
<rscale>  0 0.30000000E+03</rscale>
<asrwt>  1 0.50770076E+02</asrwt>
<pdfrwt beam="1">  1        1 0.86784925E+00 0.30000000E+03</pdfrwt>
<pdfrwt beam="2">0</pdfrwt>
<totfact> 0.24917339E-04</totfact>
</mgrwt>
<clustering>
<clus scale="   50.770">  1  6  2 -1</clus>
<clus scale="  458.800">  4  5 -1 -1</clus>
<clus scale="  300.000">  1  4  2 -1</clus>
</clustering>
</event>
<event>
 6    1  0.9678510E-012  0.3000000E+03  0.7818608E-02  0.1093470E+00
          1   -1    0    0  502    0  0.00000000000E+00  0.00000000000E+00  0.24335854722E+03  0.24335854722E+03  0.00000000000E+00 0.  1.
         13   -1    0    0    0    0 -0.00000000000E+00 -0.00000000000E+00 -0.27500000000E+03  0.27500000000E+03  0.00000000000E+00 0.  1.
    9000005    2    1    2  501    0  0.23714903679E+02  0.18928384597E+02 -0.40709339283E+02  0.48668984081E+03  0.48403416248E+03 0.  0.
         13    1    3    3    0    0 -0.13927279034E+03  0.30579275149E+02  0.16881806399E+03  0.22097859835E+03  0.00000000000E+00 0.  1.
          1    1    3    3  501    0  0.16298769402E+03 -0.11650890552E+02 -0.20952740327E+03  0.26571124247E+03  0.00000000000E+00 0.  1.
         21    1    1    2  502  501 -0.23714903679E+02 -0.18928384597E+02  0.90678865047E+01  0.31668706409E+02  0.00000000000E+00 0.  1.
<scales pt_clust_4="550.00000" pt_clust_5="550.00000" pt_clust_6="30.34272"></scales>
<mgrwt>
<rscale>  0 0.30000000E+03</rscale>
<asrwt>  1 0.30342716E+02</asrwt>
<pdfrwt beam="1">  1        1 0.88494017E+00 0.30000000E+03</pdfrwt>
<pdfrwt beam="2">0</pdfrwt>
<totfact> 0.17469379E-04</totfact>
</mgrwt>
<clustering>
<clus scale="   30.343">  1  6  2 -1</clus>
<clus scale="  484.034">  4  5 -1 -1</clus>
<clus scale="  300.000">  1  4  2 -1</clus>
</clustering>
</event>
<event>
 6    1  0.9678510E-012  0.3000000E+03  0.7818608E-02  0.1093470E+00
          1   -1    0    0  502    0  0.00000000000E+00  0.00000000000E+00  0.23291270909E+03  0.23291270909E+03  0.00000000000E+00 0.  1.
         13   -1    0    0    0    0 -0.00000000000E+00 -0.00000000000E+00 -0.27500000000E+03  0.27500000000E+03  0.00000000000E+00 0.  1.
    9000005    2    1    2  501    0  0.55379582304E+01  0.35140755852E+02 -0.25888290590E+02  0.46882371685E+03  0.46675468095E+03 0.  0.
         13    1    3    3    0    0 -0.84835536983E+02  0.24630286810E+02 -0.22944282156E+03  0.24586119606E+03  0.00000000000E+00 0.  1.
          1    1    3    3  501    0  0.90373495213E+02  0.10510469042E+02  0.20355453097E+03  0.22296252079E+03  0.00000000000E+00 0.  1.
         21    1    1    2  502  501 -0.55379582304E+01 -0.35140755852E+02 -0.16199000317E+02  0.39088992242E+02  0.00000000000E+00 0.  1.
<scales pt_clust_4="550.00000" pt_clust_5="550.00000" pt_clust_6="35.57447"></scales>
<mgrwt>
<rscale>  0 0.30000000E+03</rscale>
<asrwt>  1 0.35574471E+02</asrwt>
<pdfrwt beam="1">  1        1 0.84695531E+00 0.30000000E+03</pdfrwt>
<pdfrwt beam="2">0</pdfrwt>
<totfact> 0.43280177E-04</totfact>
</mgrwt>
<clustering>
<clus scale="   35.574">  1  6  2 -1</clus>
<clus scale="  466.755">  4  5 -1 -1</clus>
<clus scale="  300.000">  1  4  2 -1</clus>
</clustering>
</event>
<event>
 6    1  0.9678510E-012  0.3000000E+03  0.7818608E-02  0.1093470E+00
          1   -1    0    0  502    0  0.00000000000E+00  0.00000000000E+00  0.24106020212E+03  0.24106020212E+03  0.00000000000E+00 0.  1.
         13   -1    0    0    0    0 -0.00000000000E+00 -0.00000000000E+00 -0.27500000000E+03  0.27500000000E+03  0.00000000000E+00 0.  1.
    9000005    2    1    2  501    0 -0.22201831198E+02 -0.20960564912E+02 -0.39480897776E+02  0.48502843810E+03  0.48245370544E+03 0.  0.
         13    1    3    3    0    0 -0.69872204009E+02 -0.22772088198E+03 -0.10871312654E+03  0.26183481217E+03  0.00000000000E+00 0.  1.
          1    1    3    3  501    0  0.47670372811E+02  0.20676031706E+03  0.69232228767E+02  0.22319362593E+03  0.00000000000E+00 0.  1.
         21    1    1    2  502  501  0.22201831198E+02  0.20960564912E+02  0.55410998943E+01  0.31031764017E+02  0.00000000000E+00 0. -1.
<scales pt_clust_4="550.00000" pt_clust_5="550.00000" pt_clust_6="30.53304"></scales>
<mgrwt>
<rscale>  0 0.30000000E+03</rscale>
<asrwt>  1 0.30533041E+02</asrwt>
<pdfrwt beam="1">  1        1 0.87658255E+00 0.30000000E+03</pdfrwt>
<pdfrwt beam="2">0</pdfrwt>
<totfact> 0.22194202E-04</totfact>
</mgrwt>
<clustering>
<clus scale="   30.533">  1  6  2 -1</clus>
<clus scale="  482.454">  4  5 -1 -1</clus>
<clus scale="  300.000">  1  4  2 -1</clus>
</clustering>
</event>
<event>
 6    1  0.9678510E-012  0.3000000E+03  0.7818608E-02  0.1093470E+00
          1   -1    0    0  502    0  0.00000000000E+00  0.00000000000E+00  0.23501376366E+03  0.23501376366E+03  0.00000000000E+00 0.  1.
         13   -1    0    0    0    0 -0.00000000000E+00 -0.00000000000E+00 -0.27500000000E+03  0.27500000000E+03  0.00000000000E+00 0.  1.
    9000005    2    1    2  501    0 -0.35667463246E+02 -0.31627103471E+01 -0.20095951619E+02  0.46905287869E+03  0.46725216432E+03 0.  0.
         13    1    3    3    0    0  0.37327964508E+02  0.81924120414E+02 -0.22119617572E+03  0.23881517245E+03  0.00000000000E+00 0.  1.
          1    1    3    3  501    0 -0.72995427755E+02 -0.85086830761E+02  0.20110022410E+03  0.23023770624E+03  0.00000000000E+00 0.  1.
         21    1    1    2  502  501  0.35667463246E+02  0.31627103471E+01 -0.19890284722E+02  0.40960884970E+02  0.00000000000E+00 0.  1.
<scales pt_clust_4="550.00000" pt_clust_5="550.00000" pt_clust_6="35.80743"></scales>
<mgrwt>
<rscale>  0 0.30000000E+03</rscale>
<asrwt>  1 0.35807429E+02</asrwt>
<pdfrwt beam="1">  1        1 0.85459550E+00 0.30000000E+03</pdfrwt>
<pdfrwt beam="2">0</pdfrwt>
<totfact> 0.36614122E-04</totfact>
</mgrwt>
<clustering>
<clus scale="   35.807">  1  6  2 -1</clus>
<clus scale="  467.252">  4  5 -1 -1</clus>
<clus scale="  300.000">  1  4  2 -1</clus>
</clustering>
</event>
<event>
 6    1  0.9678510E-012  0.3000000E+03  0.7818608E-02  0.1093470E+00
          1   -1    0    0  502    0  0.00000000000E+00  0.00000000000E+00  0.23873003079E+03  0.23873003079E+03  0.00000000000E+00 0.  1.
         13   -1    0    0    0    0 -0.00000000000E+00 -0.00000000000E+00 -0.27500000000E+03  0.27500000000E+03  0.00000000000E+00 0.  1.
    9000005    2    1    2  501    0  0.31444256635E+02  0.25392705121E+02 -0.19425505434E+02  0.46994342657E+03  0.46779904143E+03 0.  0.
         13    1    3    3    0    0 -0.18676143240E+03 -0.10421507127E+03  0.12018450794E+02  0.21420797574E+03  0.00000000000E+00 0.  1.
          1    1    3    3  501    0  0.21820568903E+03  0.12960777639E+03 -0.31443956228E+02  0.25573545083E+03  0.00000000000E+00 0.  1.
         21    1    1    2  502  501 -0.31444256635E+02 -0.25392705121E+02 -0.16844463779E+02  0.43786604216E+02  0.00000000000E+00 0.  1.
<scales pt_clust_4="550.00000" pt_clust_5="550.00000" pt_clust_6="40.41698"></scales>
<mgrwt>
<rscale>  0 0.30000000E+03</rscale>
<asrwt>  1 0.40416981E+02</asrwt>
<pdfrwt beam="1">  1        1 0.86810920E+00 0.30000000E+03</pdfrwt>
<pdfrwt beam="2">0</pdfrwt>
<totfact> 0.25791384E-04</totfact>
</mgrwt>
<clustering>
<clus scale="   40.417">  1  6  2 -1</clus>
<clus scale="  467.799">  4  5 -1 -1</clus>
<clus scale="  300.000">  1  4  2 -1</clus>
</clustering>
</event>
<event>
 6    1  0.9678510E-012  0.3000000E+03  0.7818608E-02  0.1093470E+00
          1   -1    0    0  502    0  0.00000000000E+00  0.00000000000E+00  0.24286512138E+03  0.24286512138E+03  0.00000000000E+00 0.  1.
         13   -1    0    0    0    0 -0.00000000000E+00 -0.00000000000E+00 -0.27500000000E+03  0.27500000000E+03  0.00000000000E+00 0.  1.
    9000005    2    1    2  501    0 -0.24220331140E+02  0.33749115250E+02 -0.30872076982E+02  0.47630526228E+03  0.47348494223E+03 0.  0.
         13    1    3    3    0    0 -0.24196166250E+03 -0.37794696325E+01 -0.70007848852E+02  0.25191432951E+03  0.00000000000E+00 0.  1.
          1    1    3    3  501    0  0.21774133136E+03  0.37528584882E+02  0.39135771870E+02  0.22439093277E+03  0.00000000000E+00 0.  1.
         21    1    1    2  502  501  0.24220331140E+02 -0.33749115250E+02 -0.12628016383E+01  0.41559859103E+02  0.00000000000E+00 0.  1.
<scales pt_clust_4="550.00000" pt_clust_5="550.00000" pt_clust_6="41.54067"></scales>
<mgrwt>
<rscale>  0 0.30000000E+03</rscale>
<asrwt>  1 0.41540669E+02</asrwt>
<pdfrwt beam="1">  1        1 0.88314590E+00 0.30000000E+03</pdfrwt>
<pdfrwt beam="2">0</pdfrwt>
<totfact> 0.17422361E-04</totfact>
</mgrwt>
<clustering>
<clus scale="   41.541">  1  6  2 -1</clus>
<clus scale="  473.485">  4  5 -1 -1</clus>
<clus scale="  300.000">  1  4  2 -1</clus>
</clustering>
</event>
<event>
 6    1  0.9678510E-012  0.3000000E+03  0.7818608E-02  0.1093470E+00
          1   -1    0    0  502    0  0.00000000000E+00  0.00000000000E+00  0.24552721981E+03  0.24552721981E+03  0.00000000000E+00 0.  1.
         13   -1    0    0    0    0 -0.00000000000E+00 -0.00000000000E+00 -0.27500000000E+03  0.27500000000E+03  0.00000000000E+00 0.  1.
    9000005    2    1    2  501    0 -0.25412865630E+02 -0.16213935206E+02 -0.63999594178E+02  0.47469266605E+03  0.46939159953E+03 0.  0.
         13    1    3    3    0    0  0.57202762828E+02  0.20359578856E+03  0.44348483011E+02  0.21607912704E+03  0.00000000000E+00 0.  1.
          3    1    3    3  501    0 -0.82615628458E+02 -0.21980972377E+03 -0.10834807719E+03  0.25861353901E+03  0.00000000000E+00 0.  1.
         21    1    1    2  502  501  0.25412865630E+02  0.16213935206E+02  0.34526813988E+02  0.45834553762E+02  0.00000000000E+00 0.  1.
<scales pt_clust_4="550.00000" pt_clust_5="550.00000" pt_clust_6="30.14474"></scales>
<mgrwt>
<rscale>  0 0.30000000E+03</rscale>
<asrwt>  1 0.30144741E+02</asrwt>
<pdfrwt beam="1">  1        1 0.89282625E+00 0.30000000E+03</pdfrwt>
<pdfrwt beam="2">0</pdfrwt>
<totfact> 0.13739334E-04</totfact>
</mgrwt>
<clustering>
<clus scale="   30.145">  1  6  2 -1</clus>
<clus scale="  469.392">  4  5 -1 -1</clus>
<clus scale="  300.000">  1  4  2 -1</clus>
</clustering>
</event>
<event>
 6    1  0.9678510E-012  0.3000000E+03  0.7818608E-02  0.1093470E+00
          1   -1    0    0  502    0  0.00000000000E+00  0.00000000000E+00  0.22787923502E+03  0.22787923502E+03  0.00000000000E+00 0.  1.
         13   -1    0    0    0    0 -0.00000000000E+00 -0.00000000000E+00 -0.27500000000E+03  0.27500000000E+03  0.00000000000E+00 0.  1.
    9000005    2    1    2  501    0 -0.15463186140E+02  0.37489812765E+02 -0.44346172993E+02  0.46223080888E+03  0.45830791116E+03 0.  0.
         13    1    3    3    0    0 -0.23416381472E+03  0.10841974101E+02  0.12332819495E+02  0.23473887400E+03  0.00000000000E+00 0.  1.
          3    1    3    3  501    0  0.21870062858E+03  0.26647838664E+02 -0.56678992489E+02  0.22749193489E+03  0.00000000000E+00 0.  1.
         21    1    1    2  502  501  0.15463186140E+02 -0.37489812765E+02 -0.27745919869E+01  0.40648426137E+02  0.00000000000E+00 0.  1.
<scales pt_clust_4="550.00000" pt_clust_5="550.00000" pt_clust_6="40.55362"></scales>
<mgrwt>
<rscale>  0 0.30000000E+03</rscale>
<asrwt>  1 0.40553621E+02</asrwt>
<pdfrwt beam="1">  1        1 0.82865176E+00 0.30000000E+03</pdfrwt>
<pdfrwt beam="2">0</pdfrwt>
<totfact> 0.59039196E-04</totfact>
</mgrwt>
<clustering>
<clus scale="   40.554">  1  6  2 -1</clus>
<clus scale="  458.308">  4  5 -1 -1</clus>
<clus scale="  300.000">  1  4  2 -1</clus>
</clustering>
</event>
<event>
 6    1  0.9678510E-012  0.3000000E+03  0.7818608E-02  0.1093470E+00
          1   -1    0    0  502    0  0.00000000000E+00  0.00000000000E+00  0.21912777823E+03  0.21912777823E+03  0.00000000000E+00 0.  1.
         13   -1    0    0    0    0 -0.00000000000E+00 -0.00000000000E+00 -0.27500000000E+03  0.27500000000E+03  0.00000000000E+00 0.  1.
    9000005    2    1    2  501    0  0.13579612673E+02 -0.27833497108E+02 -0.60600706199E+02  0.46279938844E+03  0.45776819342E+03 0.  0.
         13    1    3    3    0    0 -0.55937329049E+02  0.15602265368E+03 -0.17034763331E+03  0.23767702753E+03  0.00000000000E+00 0.  1.
          3    1    3    3  501    0  0.69516941722E+02 -0.18385615079E+03  0.10974692711E+03  0.22512236091E+03  0.00000000000E+00 0.  1.
         21    1    1    2  502  501 -0.13579612673E+02  0.27833497108E+02  0.47284844247E+01  0.31328389786E+02  0.00000000000E+00 0.  1.
<scales pt_clust_4="550.00000" pt_clust_5="550.00000" pt_clust_6="30.96949"></scales>
<mgrwt>
<rscale>  0 0.30000000E+03</rscale>
<asrwt>  1 0.30969492E+02</asrwt>
<pdfrwt beam="1">  1        1 0.79682828E+00 0.30000000E+03</pdfrwt>
<pdfrwt beam="2">0</pdfrwt>
<totfact> 0.11191180E-03</totfact>
</mgrwt>
<clustering>
<clus scale="   30.969">  1  6  2 -1</clus>
<clus scale="  457.768">  4  5 -1 -1</clus>
<clus scale="  300.000">  1  4  2 -1</clus>
</clustering>
</event>
<event>
 6    1  0.9678510E-012  0.3000000E+03  0.7818608E-02  0.1093470E+00
          1   -1    0    0  502    0  0.00000000000E+00  0.00000000000E+00  0.26702365638E+03  0.26702365638E+03  0.00000000000E+00 0.  1.
         13   -1    0    0    0    0 -0.00000000000E+00 -0.00000000000E+00 -0.27500000000E+03  0.27500000000E+03  0.00000000000E+00 0.  1.
    9000005    2    1    2  501    0  0.20932137488E+02  0.69025665216E+02 -0.12473472745E+02  0.46975387702E+03  0.46401553919E+03 0.  0.
         13    1    3    3    0    0  0.30285786158E+02  0.11603255545E+03  0.21018863269E+03  0.24199182647E+03  0.00000000000E+00 0.  1.
          1    1    3    3  501    0 -0.93536486698E+01 -0.47006890232E+02 -0.22266210543E+03  0.22776205055E+03  0.00000000000E+00 0.  1.
         21    1    1    2  502  501 -0.20932137488E+02 -0.69025665216E+02  0.44971291208E+01  0.72269779359E+02  0.00000000000E+00 0. -1.
<scales pt_clust_4="550.00000" pt_clust_5="550.00000" pt_clust_6="72.12972"></scales>
<mgrwt>
<rscale>  0 0.30000000E+03</rscale>
<asrwt>  1 0.72129722E+02</asrwt>
<pdfrwt beam="1">  1        1 0.97099511E+00 0.30000000E+03</pdfrwt>
<pdfrwt beam="2">0</pdfrwt>
<totfact> 0.42189839E-06</totfact>
</mgrwt>
<clustering>
<clus scale="   72.130">  1  6  2 -1</clus>
<clus scale="  464.016">  4  5 -1 -1</clus>
<clus scale="  300.000">  1  4  2 -1</clus>
</clustering>
</event>
<event>
 6    1  0.9678510E-012  0.3000000E+03  0.7818608E-02  0.1093470E+00
          1   -1    0    0  502    0  0.00000000000E+00  0.00000000000E+00  0.24498801013E+03  0.24498801013E+03  0.00000000000E+00 0.  1.
         13   -1    0    0    0    0 -0.00000000000E+00 -0.00000000000E+00 -0.27500000000E+03  0.27500000000E+03  0.00000000000E+00 0.  1.
    9000005    2    1    2  501    0 -0.32302416935E+02  0.36835629605E+00 -0.35712752696E+02  0.48718434382E+03  0.48479851726E+03 0.  0.
         13    1    3    3    0    0  0.94665714077E+02 -0.25927139323E+02  0.19738985688E+03  0.22044629635E+03  0.00000000000E+00 0.  1.
          1    1    3    3  501    0 -0.12696813101E+03  0.26295495619E+02 -0.23310260957E+03  0.26673804748E+03  0.00000000000E+00 0.  1.
         21    1    1    2  502  501  0.32302416935E+02 -0.36835629605E+00  0.57007628247E+01  0.32803666304E+02  0.00000000000E+00 0.  1.
<scales pt_clust_4="550.00000" pt_clust_5="550.00000" pt_clust_6="32.30452"></scales>
<mgrwt>
<rscale>  0 0.30000000E+03</rscale>
<asrwt>  1 0.32304517E+02</asrwt>
<pdfrwt beam="1">  1        1 0.89086549E+00 0.30000000E+03</pdfrwt>
<pdfrwt beam="2">0</pdfrwt>
<totfact> 0.14336109E-04</totfact>
</mgrwt>
<clustering>
<clus scale="   32.305">  1  6  2 -1</clus>
<clus scale="  484.799">  4  5 -1 -1</clus>
<clus scale="  300.000">  1  4  2 -1</clus>
</clustering>
</event>
<event>
 6    1  0.9678510E-012  0.3000000E+03  0.7818608E-02  0.1093470E+00
          1   -1    0    0  502    0  0.00000000000E+00  0.00000000000E+00  0.22691877493E+03  0.22691877493E+03  0.00000000000E+00 0.  1.
         13   -1    0    0    0    0 -0.00000000000E+00 -0.00000000000E+00 -0.27500000000E+03  0.27500000000E+03  0.00000000000E+00 0.  1.
    9000005    2    1    2  501    0  0.16809826544E+02  0.27684448162E+02 -0.60944976528E+02  0.46706945585E+03  0.46194219063E+03 0.  0.
         13    1    3    3    0    0 -0.18129202614E+03  0.13182937708E+03  0.28678013518E+02  0.22598276895E+03  0.00000000000E+00 0.  1.
          3    1    3    3  501    0  0.19810185268E+03 -0.10414492892E+03 -0.89622990046E+02  0.24108668690E+03  0.00000000000E+00 0.  1.
         21    1    1    2  502  501 -0.16809826544E+02 -0.27684448162E+02  0.12863751454E+02  0.34849319074E+02  0.00000000000E+00 0. -1.
<scales pt_clust_4="550.00000" pt_clust_5="550.00000" pt_clust_6="32.38825"></scales>
<mgrwt>
<rscale>  0 0.30000000E+03</rscale>
<asrwt>  1 0.32388253E+02</asrwt>
<pdfrwt beam="1">  1        1 0.82515918E+00 0.30000000E+03</pdfrwt>
<pdfrwt beam="2">0</pdfrwt>
<totfact> 0.66061986E-04</totfact>
</mgrwt>
<clustering>
<clus scale="   32.388">  1  6  2 -1</clus>
<clus scale="  461.942">  4  5 -1 -1</clus>
<clus scale="  300.000">  1  4  2 -1</clus>
</clustering>
</event>
<event>
 6    1  0.9678510E-012  0.3000000E+03  0.7818608E-02  0.1093470E+00
          1   -1    0    0  502    0  0.00000000000E+00  0.00000000000E+00  0.23610494540E+03  0.23610494540E+03  0.00000000000E+00 0.  1.
         13   -1    0    0    0    0 -0.00000000000E+00 -0.00000000000E+00 -0.27500000000E+03  0.27500000000E+03  0.00000000000E+00 0.  1.
    9000005    2    1    2  501    0  0.30185283956E+02  0.15126251490E+02 -0.29421849289E+02  0.47603791715E+03  0.47392668050E+03 0.  0.
         13    1    3    3    0    0  0.10101677820E+03  0.22522575683E+03 -0.54861350937E+02  0.25286517919E+03  0.00000000000E+00 0.  1.
          3    1    3    3  501    0 -0.70831494246E+02 -0.21009950534E+03  0.25439501648E+02  0.22317273796E+03  0.00000000000E+00 0.  1.
         21    1    1    2  502  501 -0.30185283956E+02 -0.15126251490E+02 -0.94732053114E+01  0.35067028254E+02  0.00000000000E+00 0.  1.
<scales pt_clust_4="550.00000" pt_clust_5="550.00000" pt_clust_6="33.76323"></scales>
<mgrwt>
<rscale>  0 0.30000000E+03</rscale>
<asrwt>  1 0.33763234E+02</asrwt>
<pdfrwt beam="1">  1        1 0.85856344E+00 0.30000000E+03</pdfrwt>
<pdfrwt beam="2">0</pdfrwt>
<totfact> 0.33726694E-04</totfact>
</mgrwt>
<clustering>
<clus scale="   33.763">  1  6  2 -1</clus>
<clus scale="  473.927">  4  5 -1 -1</clus>
<clus scale="  300.000">  1  4  2 -1</clus>
</clustering>
</event>
<event>
 6    1  0.9678510E-012  0.3000000E+03  0.7818608E-02  0.1093470E+00
          1   -1    0    0  502    0  0.00000000000E+00  0.00000000000E+00  0.25435071696E+03  0.25435071696E+03  0.00000000000E+00 0.  1.
         13   -1    0    0    0    0 -0.00000000000E+00 -0.00000000000E+00 -0.27500000000E+03  0.27500000000E+03  0.00000000000E+00 0.  1.
    9000005    2    1    2  501    0  0.30538706857E+02  0.20596080596E+02 -0.61539110720E+02  0.47431628083E+03  0.46886251819E+03 0.  0.
         13    1    3    3    0    0  0.18599995166E+03 -0.14848401656E+03 -0.63116097491E+01  0.23808259409E+03  0.00000000000E+00 0.  1.
          3    1    3    3  501    0 -0.15546124480E+03  0.16908009715E+03 -0.55227500971E+02  0.23623368674E+03  0.00000000000E+00 0.  1.
         21    1    1    2  502  501 -0.30538706857E+02 -0.20596080596E+02  0.40889827680E+02  0.55034436130E+02  0.00000000000E+00 0. -1.
<scales pt_clust_4="550.00000" pt_clust_5="550.00000" pt_clust_6="36.83492"></scales>
<mgrwt>
<rscale>  0 0.30000000E+03</rscale>
<asrwt>  1 0.36834918E+02</asrwt>
<pdfrwt beam="1">  1        1 0.92491170E+00 0.30000000E+03</pdfrwt>
<pdfrwt beam="2">0</pdfrwt>
<totfact> 0.32620305E-05</totfact>
</mgrwt>
<clustering>
<clus scale="   36.835">  1  6  2 -1</clus>
<clus scale="  468.863">  4  5 -1 -1</clus>
<clus scale="  300.000">  1  4  2 -1</clus>
</clustering>
</event>
<event>
 6    1  0.9678510E-012  0.3000000E+03  0.7818608E-02  0.1093470E+00
          1   -1    0    0  502    0  0.00000000000E+00  0.00000000000E+00  0.23254863626E+03  0.23254863626E+03  0.00000000000E+00 0.  1.
         13   -1    0    0    0    0 -0.00000000000E+00 -0.00000000000E+00 -0.27500000000E+03  0.27500000000E+03  0.00000000000E+00 0.  1.
    9000005    2    1    2  501    0 -0.23848849506E+02 -0.19555704119E+02 -0.55949673049E+02  0.47388266620E+03  0.46955641005E+03 0.  0.
         13    1    3    3    0    0 -0.17296993896E+02  0.74577882276E+02 -0.24819157610E+03  0.25973083177E+03  0.00000000000E+00 0.  1.
          3    1    3    3  501    0 -0.65518556098E+01 -0.94133586395E+02  0.19224190305E+03  0.21415183443E+03  0.00000000000E+00 0.  1.
         21    1    1    2  502  501  0.23848849506E+02  0.19555704119E+02  0.13498309314E+02  0.33665970069E+02  0.00000000000E+00 0.  1.
<scales pt_clust_4="550.00000" pt_clust_5="550.00000" pt_clust_6="30.84142"></scales>
<mgrwt>
<rscale>  0 0.30000000E+03</rscale>
<asrwt>  1 0.30841420E+02</asrwt>
<pdfrwt beam="1">  1        1 0.84563140E+00 0.30000000E+03</pdfrwt>
<pdfrwt beam="2">0</pdfrwt>
<totfact> 0.45689885E-04</totfact>
</mgrwt>
<clustering>
<clus scale="   30.841">  1  6  2 -1</clus>
<clus scale="  469.556">  4  5 -1 -1</clus>
<clus scale="  300.000">  1  4  2 -1</clus>
</clustering>
</event>
<event>
 6    1  0.9678510E-012  0.3000000E+03  0.7818608E-02  0.1093470E+00
          1   -1    0    0  502    0  0.00000000000E+00  0.00000000000E+00  0.22702247663E+03  0.22702247663E+03  0.00000000000E+00 0.  1.
         13   -1    0    0    0    0 -0.00000000000E+00 -0.00000000000E+00 -0.27500000000E+03  0.27500000000E+03  0.00000000000E+00 0.  1.
    9000005    2    1    2  501    0 -0.11782821118E+02 -0.32662374550E+02 -0.59683617955E+02  0.46537962965E+03  0.46022863867E+03 0.  0.
         13    1    3    3    0    0  0.30102065752E+02 -0.42641973051E+02 -0.25759936991E+03  0.26283437296E+03  0.00000000000E+00 0.  1.
          3    1    3    3  501    0 -0.41884886870E+02  0.99795985007E+01  0.19791575196E+03  0.20254525669E+03  0.00000000000E+00 0.  1.
         21    1    1    2  502  501  0.11782821118E+02  0.32662374550E+02  0.11706094589E+02  0.36642846986E+02  0.00000000000E+00 0. -1.
<scales pt_clust_4="550.00000" pt_clust_5="550.00000" pt_clust_6="34.72270"></scales>
<mgrwt>
<rscale>  0 0.30000000E+03</rscale>
<asrwt>  1 0.34722696E+02</asrwt>
<pdfrwt beam="1">  1        1 0.82553628E+00 0.30000000E+03</pdfrwt>
<pdfrwt beam="2">0</pdfrwt>
<totfact> 0.64698291E-04</totfact>
</mgrwt>
<clustering>
<clus scale="   34.723">  1  6  2 -1</clus>
<clus scale="  460.229">  4  5 -1 -1</clus>
<clus scale="  300.000">  1  4  2 -1</clus>
</clustering>
</event>
<event>
 6    1  0.9678510E-012  0.3000000E+03  0.7818608E-02  0.1093470E+00
          1   -1    0    0  502    0  0.00000000000E+00  0.00000000000E+00  0.23385095986E+03  0.23385095986E+03  0.00000000000E+00 0.  1.
         13   -1    0    0    0    0 -0.00000000000E+00 -0.00000000000E+00 -0.27500000000E+03  0.27500000000E+03  0.00000000000E+00 0.  1.
    9000005    2    1    2  501    0  0.31907206391E+02  0.30071248386E+01 -0.58222328149E+02  0.47253829288E+03  0.46784130443E+03 0.  0.
         13    1    3    3    0    0  0.59328999577E+02 -0.17989365579E+03  0.11294474640E+03  0.22054063871E+03  0.00000000000E+00 0.  1.
          3    1    3    3  501    0 -0.27421793186E+02  0.18290078063E+03 -0.17116707455E+03  0.25199765417E+03  0.00000000000E+00 0.  1.
         21    1    1    2  502  501 -0.31907206391E+02 -0.30071248386E+01  0.17073288010E+02  0.36312666976E+02  0.00000000000E+00 0. -1.
<scales pt_clust_4="550.00000" pt_clust_5="550.00000" pt_clust_6="32.04860"></scales>
<mgrwt>
<rscale>  0 0.30000000E+03</rscale>
<asrwt>  1 0.32048598E+02</asrwt>
<pdfrwt beam="1">  1        1 0.85036713E+00 0.30000000E+03</pdfrwt>
<pdfrwt beam="2">0</pdfrwt>
<totfact> 0.41052781E-04</totfact>
</mgrwt>
<clustering>
<clus scale="   32.049">  1  6  2 -1</clus>
<clus scale="  467.841">  4  5 -1 -1</clus>
<clus scale="  300.000">  1  4  2 -1</clus>
</clustering>
</event>
<event>
 6    1  0.9678510E-012  0.3000000E+03  0.7818608E-02  0.1093470E+00
          1   -1    0    0  502    0  0.00000000000E+00  0.00000000000E+00  0.26836886319E+03  0.26836886319E+03  0.00000000000E+00 0.  1.
         13   -1    0    0    0    0 -0.00000000000E+00 -0.00000000000E+00 -0.27500000000E+03  0.27500000000E+03  0.00000000000E+00 0.  1.
    9000005    2    1    2  501    0  0.41577791239E+02 -0.28077619932E+02 -0.37565873512E+02  0.48442801657E+03  0.48035637075E+03 0.  0.
         13    1    3    3    0    0  0.12163528509E+03 -0.18840766528E+03  0.11230849855E+03  0.25081026646E+03  0.00000000000E+00 0.  1.
          1    1    3    3  501    0 -0.80057493853E+02  0.16033004535E+03 -0.14987437207E+03  0.23361775011E+03  0.00000000000E+00 0.  1.
         21    1    1    2  502  501 -0.41577791239E+02  0.28077619932E+02  0.30934736699E+02  0.58940846618E+02  0.00000000000E+00 0.  1.
<scales pt_clust_4="550.00000" pt_clust_5="550.00000" pt_clust_6="50.17036"></scales>
<mgrwt>
<rscale>  0 0.30000000E+03</rscale>
<asrwt>  1 0.50170364E+02</asrwt>
<pdfrwt beam="1">  1        1 0.97588678E+00 0.30000000E+03</pdfrwt>
<pdfrwt beam="2">0</pdfrwt>
<totfact> 0.36454140E-06</totfact>
</mgrwt>
<clustering>
<clus scale="   50.170">  1  6  2 -1</clus>
<clus scale="  480.356">  4  5 -1 -1</clus>
<clus scale="  300.000">  1  4  2 -1</clus>
</clustering>
</event>
<event>
 6    1  0.9678510E-012  0.3000000E+03  0.7818608E-02  0.1093470E+00
          1   -1    0    0  502    0  0.00000000000E+00  0.00000000000E+00  0.22679782143E+03  0.22679782143E+03  0.00000000000E+00 0.  1.
         13   -1    0    0    0    0 -0.00000000000E+00 -0.00000000000E+00 -0.27500000000E+03  0.27500000000E+03  0.00000000000E+00 0.  1.
    9000005    2    1    2  501    0  0.26618058537E+02  0.29515910325E+02 -0.39777219459E+02  0.46116913774E+03  0.45772812500E+03 0.  0.
         13    1    3    3    0    0 -0.13229452361E+03 -0.14063065020E+03 -0.10447539214E+03  0.21953115569E+03  0.00000000000E+00 0.  1.
          3    1    3    3  501    0  0.15891258215E+03  0.17014656053E+03  0.64698172678E+02  0.24163798206E+03  0.00000000000E+00 0.  1.
         21    1    1    2  502  501 -0.26618058537E+02 -0.29515910325E+02 -0.84249591063E+01  0.40628683692E+02  0.00000000000E+00 0.  1.
<scales pt_clust_4="550.00000" pt_clust_5="550.00000" pt_clust_6="39.74559"></scales>
<mgrwt>
<rscale>  0 0.30000000E+03</rscale>
<asrwt>  1 0.39745586E+02</asrwt>
<pdfrwt beam="1">  1        1 0.82471935E+00 0.30000000E+03</pdfrwt>
<pdfrwt beam="2">0</pdfrwt>
<totfact> 0.64168977E-04</totfact>
</mgrwt>
<clustering>
<clus scale="   39.746">  1  6  2 -1</clus>
<clus scale="  457.728">  4  5 -1 -1</clus>
<clus scale="  300.000">  1  4  2 -1</clus>
</clustering>
</event>
<event>
 6    1  0.9678510E-012  0.3000000E+03  0.7818608E-02  0.1093470E+00
          1   -1    0    0  502    0  0.00000000000E+00  0.00000000000E+00  0.25382106863E+03  0.25382106863E+03  0.00000000000E+00 0.  1.
         13   -1    0    0    0    0 -0.00000000000E+00 -0.00000000000E+00 -0.27500000000E+03  0.27500000000E+03  0.00000000000E+00 0.  1.
    9000005    2    1    2  501    0 -0.23429530431E+02 -0.28037496957E+02 -0.33239744957E+02  0.49034370702E+03  0.48784938889E+03 0.  0.
         13    1    3    3    0    0  0.93138004631E+02  0.20208388216E+03  0.30579450200E+02  0.22460562351E+03  0.00000000000E+00 0.  1.
          3    1    3    3  501    0 -0.11656753506E+03 -0.23012137912E+03 -0.63819195157E+02  0.26573808351E+03  0.00000000000E+00 0.  1.
         21    1    1    2  502  501  0.23429530431E+02  0.28037496957E+02  0.12060813583E+02  0.38477361605E+02  0.00000000000E+00 0. -1.
<scales pt_clust_4="550.00000" pt_clust_5="550.00000" pt_clust_6="36.53826"></scales>
<mgrwt>
<rscale>  0 0.30000000E+03</rscale>
<asrwt>  1 0.36538256E+02</asrwt>
<pdfrwt beam="1">  1        1 0.92298570E+00 0.30000000E+03</pdfrwt>
<pdfrwt beam="2">0</pdfrwt>
<totfact> 0.35820051E-05</totfact>
</mgrwt>
<clustering>
<clus scale="   36.538">  1  6  2 -1</clus>
<clus scale="  487.849">  4  5 -1 -1</clus>
<clus scale="  300.000">  1  4  2 -1</clus>
</clustering>
</event>
<event>
 6    1  0.9678510E-012  0.3000000E+03  0.7818608E-02  0.1093470E+00
          1   -1    0    0  502    0  0.00000000000E+00  0.00000000000E+00  0.23858817803E+03  0.23858817803E+03  0.00000000000E+00 0.  1.
         13   -1    0    0    0    0 -0.00000000000E+00 -0.00000000000E+00 -0.27500000000E+03  0.27500000000E+03  0.00000000000E+00 0.  1.
    9000005    2    1    2  501    0 -0.23642638326E+02  0.38456315122E+02 -0.33465608419E+02  0.46834944801E+03  0.46496601594E+03 0.  0.
         13    1    3    3    0    0  0.65784726557E+02 -0.17403933446E+03  0.90157028681E+02  0.20675011489E+03  0.00000000000E+00 0.  1.
          1    1    3    3  501    0 -0.89427364883E+02  0.21249564958E+03 -0.12362263710E+03  0.26159933311E+03  0.00000000000E+00 0.  1.
         21    1    1    2  502  501  0.23642638326E+02 -0.38456315122E+02 -0.29462135512E+01  0.45238730023E+02  0.00000000000E+00 0.  1.
<scales pt_clust_4="550.00000" pt_clust_5="550.00000" pt_clust_6="45.14269"></scales>
<mgrwt>
<rscale>  0 0.30000000E+03</rscale>
<asrwt>  1 0.45142691E+02</asrwt>
<pdfrwt beam="1">  1        1 0.86759337E+00 0.30000000E+03</pdfrwt>
<pdfrwt beam="2">0</pdfrwt>
<totfact> 0.25596630E-04</totfact>
</mgrwt>
<clustering>
<clus scale="   45.143">  1  6  2 -1</clus>
<clus scale="  464.966">  4  5 -1 -1</clus>
<clus scale="  300.000">  1  4  2 -1</clus>
</clustering>
</event>
<event>
 6    1  0.9678510E-012  0.3000000E+03  0.7818608E-02  0.1093470E+00
          1   -1    0    0  502    0  0.00000000000E+00  0.00000000000E+00  0.23490359447E+03  0.23490359447E+03  0.00000000000E+00 0.  1.
         13   -1    0    0    0    0 -0.00000000000E+00 -0.00000000000E+00 -0.27500000000E+03  0.27500000000E+03  0.00000000000E+00 0.  1.
    9000005    2    1    2  501    0  0.38392288478E+02 -0.13669392728E+02 -0.63422391886E+02  0.46294700014E+03  0.45676767074E+03 0.  0.
         13    1    3    3    0    0  0.22210241528E+03 -0.44134645822E+01 -0.14121404952E+03  0.26323063903E+03  0.00000000000E+00 0.  1.
          3    1    3    3  501    0 -0.18371012680E+03 -0.92559281457E+01  0.77791657630E+02  0.19971636111E+03  0.00000000000E+00 0.  1.
         21    1    1    2  502  501 -0.38392288478E+02  0.13669392728E+02  0.23325986359E+02  0.46956594337E+02  0.00000000000E+00 0. -1.
<scales pt_clust_4="550.00000" pt_clust_5="550.00000" pt_clust_6="40.75316"></scales>
<mgrwt>
<rscale>  0 0.30000000E+03</rscale>
<asrwt>  1 0.40753161E+02</asrwt>
<pdfrwt beam="1">  1        1 0.85419489E+00 0.30000000E+03</pdfrwt>
<pdfrwt beam="2">0</pdfrwt>
<totfact> 0.36076972E-04</totfact>
</mgrwt>
<clustering>
<clus scale="   40.753">  1  6  2 -1</clus>
<clus scale="  456.768">  4  5 -1 -1</clus>
<clus scale="  300.000">  1  4  2 -1</clus>
</clustering>
</event>
<event>
 6    1  0.9678510E-012  0.3000000E+03  0.7818608E-02  0.1093470E+00
          1   -1    0    0  502    0  0.00000000000E+00  0.00000000000E+00  0.22491239374E+03  0.22491239374E+03  0.00000000000E+00 0.  1.
         13   -1    0    0    0    0 -0.00000000000E+00 -0.00000000000E+00 -0.27500000000E+03  0.27500000000E+03  0.00000000000E+00 0.  1.
    9000005    2    1    2  501    0 -0.30011571476E+02 -0.88934010152E+01 -0.59691504718E+02  0.46717064868E+03  0.46228297854E+03 0.  0.
         13    1    3    3    0    0 -0.37491861278E+02 -0.23296516305E+03 -0.32781488366E+01  0.23598549345E+03  0.00000000000E+00 0.  1.
          3    1    3    3  501    0  0.74802898022E+01  0.22407176204E+03 -0.56413355881E+02  0.23118515523E+03  0.00000000000E+00 0.  1.
         21    1    1    2  502  501  0.30011571476E+02  0.88934010152E+01  0.96038984606E+01  0.32741745062E+02  0.00000000000E+00 0. -1.
<scales pt_clust_4="550.00000" pt_clust_5="550.00000" pt_clust_6="31.30155"></scales>
<mgrwt>
<rscale>  0 0.30000000E+03</rscale>
<asrwt>  1 0.31301550E+02</asrwt>
<pdfrwt beam="1">  1        1 0.81786325E+00 0.30000000E+03</pdfrwt>
<pdfrwt beam="2">0</pdfrwt>
<totfact> 0.77028422E-04</totfact>
</mgrwt>
<clustering>
<clus scale="   31.302">  1  6  2 -1</clus>
<clus scale="  462.283">  4  5 -1 -1</clus>
<clus scale="  300.000">  1  4  2 -1</clus>
</clustering>
</event>
<event>
 6    1  0.9678510E-012  0.3000000E+03  0.7818608E-02  0.1093470E+00
          1   -1    0    0  502    0  0.00000000000E+00  0.00000000000E+00  0.23226967139E+03  0.23226967139E+03  0.00000000000E+00 0.  1.
         13   -1    0    0    0    0 -0.00000000000E+00 -0.00000000000E+00 -0.27500000000E+03  0.27500000000E+03  0.00000000000E+00 0.  1.
    9000005    2    1    2  501    0  0.31978195250E+02  0.21656394048E+01 -0.64375362973E+02  0.46859406567E+03  0.46304310388E+03 0.  0.
         13    1    3    3    0    0  0.23559706126E+02 -0.15821988663E+03 -0.20159557014E+03  0.25735066772E+03  0.00000000000E+00 0.  1.
          1    1    3    3  501    0  0.84184891243E+01  0.16038552603E+03  0.13722020717E+03  0.21124339794E+03  0.00000000000E+00 0.  1.
         21    1    1    2  502  501 -0.31978195250E+02 -0.21656394048E+01  0.21645034361E+02  0.38675605722E+02  0.00000000000E+00 0.  1.
<scales pt_clust_4="550.00000" pt_clust_5="550.00000" pt_clust_6="32.05144"></scales>
<mgrwt>
<rscale>  0 0.30000000E+03</rscale>
<asrwt>  1 0.32051442E+02</asrwt>
<pdfrwt beam="1">  1        1 0.84461699E+00 0.30000000E+03</pdfrwt>
<pdfrwt beam="2">0</pdfrwt>
<totfact> 0.46292668E-04</totfact>
</mgrwt>
<clustering>
<clus scale="   32.051">  1  6  2 -1</clus>
<clus scale="  463.043">  4  5 -1 -1</clus>
<clus scale="  300.000">  1  4  2 -1</clus>
</clustering>
</event>
