<event>
 6    1  0.1730844E-002  0.6684639E+03  0.7818608E-02  0.9772737E-01
          1   -1    0    0  502    0  0.00000000000E+00  0.00000000000E+00  0.11242140179E+03  0.11242140179E+03  0.00000000000E+00 0.  1.
         13   -1    0    0    0    0 -0.00000000000E+00 -0.00000000000E+00 -0.10000000000E+04  0.10000000000E+04  0.00000000000E+00 0.  1.
    9000005    2    1    2  501    0 -0.33578110077E-01  0.33693268279E-01 -0.88828811591E+03  0.11117102913E+04  0.66846390530E+03 0.  0.
         13    1    3    3    0    0  0.23364460367E+03 -0.21953562502E+02 -0.83989386998E+03  0.87206276870E+03  0.00000000000E+00 0.  1.
          1    1    3    3  501    0 -0.23367818178E+03  0.21987255770E+02 -0.48394245938E+02  0.23964752262E+03  0.00000000000E+00 0.  1.
         21    1    1    2  502  501  0.33578110077E-01 -0.33693268279E-01  0.70951770082E+00  0.71111046510E+00  0.00000000000E+00 0. -1.
<mgrwt>
<rscale>  1 0.66846391E+03</rscale>
<asrwt>0</asrwt>
<pdfrwt beam="1">  1        1 0.40880596E+00 0.66846391E+03</pdfrwt>
<pdfrwt beam="2">0</pdfrwt>
<totfact> 0.12176846E+00</totfact>
</mgrwt>
</event>
<event>
 6    1  0.1730844E-002  0.6433784E+03  0.7818608E-02  0.9819284E-01
          1   -1    0    0  502    0  0.00000000000E+00  0.00000000000E+00  0.12380387592E+03  0.12380387592E+03  0.00000000000E+00 0.  1.
         13   -1    0    0    0    0 -0.00000000000E+00 -0.00000000000E+00 -0.10000000000E+04  0.10000000000E+04  0.00000000000E+00 0.  1.
    9000005    2    1    2  501    0  0.68887666475E-01  0.14253166823E+02 -0.89372112049E+03  0.11012144313E+04  0.64322051035E+03 0.  0.
         13    1    3    3    0    0 -0.22827639602E+03  0.21391345291E+03 -0.61161627671E+03  0.68698147592E+03  0.00000000000E+00 0.  1.
          3    1    3    3  501    0  0.22834528369E+03 -0.19966028608E+03 -0.28210484378E+03  0.41423295536E+03  0.00000000000E+00 0.  1.
         21    1    1    2  502  501 -0.68887666475E-01 -0.14253166823E+02  0.17524996412E+02  0.22589444642E+02  0.00000000000E+00 0. -1.
<mgrwt>
<rscale>  1 0.64337841E+03</rscale>
<asrwt>0</asrwt>
<pdfrwt beam="1">  1        1 0.45019686E+00 0.64337841E+03</pdfrwt>
<pdfrwt beam="2">0</pdfrwt>
<totfact> 0.79392253E-01</totfact>
</mgrwt>
</event>
<event>
 6    1  0.1730844E-002  0.6241447E+03  0.7818608E-02  0.9856542E-01
          1   -1    0    0  502    0  0.00000000000E+00  0.00000000000E+00  0.97446682629E+02  0.97446682629E+02  0.00000000000E+00 0.  1.
         13   -1    0    0    0    0 -0.00000000000E+00 -0.00000000000E+00 -0.10000000000E+04  0.10000000000E+04  0.00000000000E+00 0.  1.
    9000005    2    1    2  501    0 -0.12724143647E-01 -0.51305901759E-02 -0.90260995847E+03  0.10973884036E+04  0.62414467161E+03 0.  0.
         13    1    3    3    0    0  0.24758996686E+01  0.15836239053E+03  0.21472327209E+02  0.15983065303E+03  0.00000000000E+00 0.  1.
          3    1    3    3  501    0 -0.24886238123E+01 -0.15836752112E+03 -0.92408228568E+03  0.93755775060E+03  0.00000000000E+00 0.  1.
         21    1    1    2  502  501  0.12724143647E-01  0.51305901759E-02  0.56641103834E-01  0.58278996479E-01  0.00000000000E+00 0. -1.
<mgrwt>
<rscale>  1 0.62414467E+03</rscale>
<asrwt>0</asrwt>
<pdfrwt beam="1">  1        1 0.35435232E+00 0.62414467E+03</pdfrwt>
<pdfrwt beam="2">0</pdfrwt>
<totfact> 0.21362929E+00</totfact>
</mgrwt>
</event>
<event>
 6    1  0.1730844E-002  0.6435676E+03  0.7818608E-02  0.9818925E-01
          1   -1    0    0  502    0  0.00000000000E+00  0.00000000000E+00  0.13454767199E+03  0.13454767199E+03  0.00000000000E+00 0.  1.
         13   -1    0    0    0    0 -0.00000000000E+00 -0.00000000000E+00 -0.10000000000E+04  0.10000000000E+04  0.00000000000E+00 0.  1.
    9000005    2    1    2  501    0  0.31355988684E+00 -0.31871130500E+00 -0.89645341798E+03  0.11035433582E+04  0.64356741127E+03 0.  0.
         13    1    3    3    0    0 -0.24549704717E+03  0.20557953587E+03 -0.49851004412E+03  0.59248967065E+03  0.00000000000E+00 0.  1.
          1    1    3    3  501    0  0.24581060705E+03 -0.20589824718E+03 -0.39794337385E+03  0.51105368751E+03  0.00000000000E+00 0.  1.
         21    1    1    2  502  501 -0.31355988684E+00  0.31871130500E+00  0.31001089963E+02  0.31004313823E+02  0.00000000000E+00 0.  1.
<mgrwt>
<rscale>  1 0.64356757E+03</rscale>
<asrwt>0</asrwt>
<pdfrwt beam="1">  1        1 0.48926529E+00 0.64356757E+03</pdfrwt>
<pdfrwt beam="2">0</pdfrwt>
<totfact> 0.52115984E-01</totfact>
</mgrwt>
</event>
<event>
 6    1  0.1730844E-002  0.6401833E+03  0.7818608E-02  0.9825376E-01
          1   -1    0    0  502    0  0.00000000000E+00  0.00000000000E+00  0.10254014262E+03  0.10254014262E+03  0.00000000000E+00 0.  1.
         13   -1    0    0    0    0 -0.00000000000E+00 -0.00000000000E+00 -0.10000000000E+04  0.10000000000E+04  0.00000000000E+00 0.  1.
    9000005    2    1    2  501    0 -0.28819717946E-02  0.43926222430E-02 -0.89754123148E+03  0.11024585991E+04  0.64018333350E+03 0.  0.
         13    1    3    3    0    0 -0.18945393421E+03  0.22702309794E+03 -0.23766456917E+03  0.37936358237E+03  0.00000000000E+00 0.  1.
          3    1    3    3  501    0  0.18945105224E+03 -0.22701870532E+03 -0.65987666231E+03  0.72309501673E+03  0.00000000000E+00 0.  1.
         21    1    1    2  502  501  0.28819717946E-02 -0.43926222430E-02  0.81374103523E-01  0.81543519766E-01  0.00000000000E+00 0.  1.
<mgrwt>
<rscale>  1 0.64018333E+03</rscale>
<asrwt>0</asrwt>
<pdfrwt beam="1">  1        1 0.37287403E+00 0.64018333E+03</pdfrwt>
<pdfrwt beam="2">0</pdfrwt>
<totfact> 0.17671424E+00</totfact>
</mgrwt>
</event>
<event>
 6    1  0.1730844E-002  0.6531863E+03  0.7818608E-02  0.9800819E-01
          1   -1    0    0  502    0  0.00000000000E+00  0.00000000000E+00  0.10667710484E+03  0.10667710484E+03  0.00000000000E+00 0.  1.
         13   -1    0    0    0    0 -0.00000000000E+00 -0.00000000000E+00 -0.10000000000E+04  0.10000000000E+04  0.00000000000E+00 0.  1.
    9000005    2    1    2  501    0  0.35456592275E-02  0.27678386665E-02 -0.89333652427E+03  0.11066627527E+04  0.65318626936E+03 0.  0.
         13    1    3    3    0    0 -0.30627574993E+03  0.70257460297E+02 -0.29587561526E+03  0.43160552062E+03  0.00000000000E+00 0.  1.
          1    1    3    3  501    0  0.30627929559E+03 -0.70254692458E+02 -0.59746090901E+03  0.67505723203E+03  0.00000000000E+00 0.  1.
         21    1    1    2  502  501 -0.35456592276E-02 -0.27678386665E-02  0.13629114620E-01  0.14352191316E-01  0.00000000000E+00 0.  1.
<mgrwt>
<rscale>  1 0.65318627E+03</rscale>
<asrwt>0</asrwt>
<pdfrwt beam="1">  1        1 0.38791756E+00 0.65318627E+03</pdfrwt>
<pdfrwt beam="2">0</pdfrwt>
<totfact> 0.15130096E+00</totfact>
</mgrwt>
</event>
<event>
 6    1  0.1730844E-002  0.6746442E+03  0.7818608E-02  0.9761604E-01
          1   -1    0    0  502    0  0.00000000000E+00  0.00000000000E+00  0.11378834996E+03  0.11378834996E+03  0.00000000000E+00 0.  1.
         13   -1    0    0    0    0 -0.00000000000E+00 -0.00000000000E+00 -0.10000000000E+04  0.10000000000E+04  0.00000000000E+00 0.  1.
    9000005    2    1    2  501    0  0.18859800116E-03  0.18655199312E-02 -0.88621333423E+03  0.11137858296E+04  0.67464420286E+03 0.  0.
         13    1    3    3    0    0 -0.25971978783E+03  0.13318047836E+03 -0.16393504014E+03  0.33476275986E+03  0.00000000000E+00 0.  1.
          3    1    3    3  501    0  0.25971997643E+03 -0.13317861284E+03 -0.72227829409E+03  0.77902306974E+03  0.00000000000E+00 0.  1.
         21    1    1    2  502  501 -0.18859800115E-03 -0.18655199312E-02  0.16841808957E-02  0.25203569409E-02  0.00000000000E+00 0.  1.
<mgrwt>
<rscale>  1 0.67464420E+03</rscale>
<asrwt>0</asrwt>
<pdfrwt beam="1">  1        1 0.41377669E+00 0.67464420E+03</pdfrwt>
<pdfrwt beam="2">0</pdfrwt>
<totfact> 0.11553454E+00</totfact>
</mgrwt>
</event>
<event>
 6    1  0.1730844E-002  0.6459737E+03  0.7818608E-02  0.9814364E-01
          1   -1    0    0  502    0  0.00000000000E+00  0.00000000000E+00  0.10432068095E+03  0.10432068095E+03  0.00000000000E+00 0.  1.
         13   -1    0    0    0    0 -0.00000000000E+00 -0.00000000000E+00 -0.10000000000E+04  0.10000000000E+04  0.00000000000E+00 0.  1.
    9000005    2    1    2  501    0  0.33030428753E-04 -0.24941095162E-04 -0.89567947662E+03  0.11043205180E+04  0.64597374691E+03 0.  0.
         13    1    3    3    0    0  0.67996719903E+02 -0.46935123594E+02 -0.98162842684E+03  0.98509940013E+03  0.00000000000E+00 0.  1.
          3    1    3    3  501    0 -0.67996686873E+02  0.46935098653E+02  0.85948950218E+02  0.11922111791E+03  0.00000000000E+00 0.  1.
         21    1    1    2  502  501 -0.33030428745E-04  0.24941095166E-04  0.15757140336E-03  0.16291658789E-03  0.00000000000E+00 0. -1.
<mgrwt>
<rscale>  1 0.64597375E+03</rscale>
<asrwt>0</asrwt>
<pdfrwt beam="1">  1        1 0.37934873E+00 0.64597375E+03</pdfrwt>
<pdfrwt beam="2">0</pdfrwt>
<totfact> 0.16530872E+00</totfact>
</mgrwt>
</event>
<event>
 6    1  0.1730844E-002  0.6547839E+03  0.7818608E-02  0.9797844E-01
          1   -1    0    0  502    0  0.00000000000E+00  0.00000000000E+00  0.12165808906E+03  0.12165808906E+03  0.00000000000E+00 0.  1.
         13   -1    0    0    0    0 -0.00000000000E+00 -0.00000000000E+00 -0.10000000000E+04  0.10000000000E+04  0.00000000000E+00 0.  1.
    9000005    2    1    2  501    0 -0.38655569687E+02 -0.99785748948E+01 -0.84872206037E+03  0.10719473199E+04  0.65356567826E+03 0.  0.
         13    1    3    3    0    0  0.19811071995E+03  0.23766024197E+03 -0.45209997893E+03  0.54783632494E+03  0.00000000000E+00 0.  1.
          1    1    3    3  501    0 -0.23676628964E+03 -0.24763881687E+03 -0.39662208144E+03  0.52411099493E+03  0.00000000000E+00 0.  1.
         21    1    1    2  502  501  0.38655569687E+02  0.99785748948E+01 -0.29619850579E+02  0.49710769186E+02  0.00000000000E+00 0.  1.
<mgrwt>
<rscale>  1 0.65478387E+03</rscale>
<asrwt>0</asrwt>
<pdfrwt beam="1">  1        1 0.44239398E+00 0.65478387E+03</pdfrwt>
<pdfrwt beam="2">0</pdfrwt>
<totfact> 0.86016289E-01</totfact>
</mgrwt>
</event>
<event>
 6    1  0.1730844E-002  0.6497782E+03  0.7818608E-02  0.9807195E-01
          1   -1    0    0  502    0  0.00000000000E+00  0.00000000000E+00  0.10672400165E+03  0.10672400165E+03  0.00000000000E+00 0.  1.
         13   -1    0    0    0    0 -0.00000000000E+00 -0.00000000000E+00 -0.10000000000E+04  0.10000000000E+04  0.00000000000E+00 0.  1.
    9000005    2    1    2  501    0 -0.61602984834E-01 -0.70342256561E-01 -0.89444499916E+03  0.11055512673E+04  0.64977822321E+03 0.  0.
         13    1    3    3    0    0  0.20170489722E+03  0.19126827977E+03 -0.73318299498E+03  0.78410823522E+03  0.00000000000E+00 0.  1.
          1    1    3    3  501    0 -0.20176650020E+03 -0.19133862202E+03 -0.16126200418E+03  0.32144303208E+03  0.00000000000E+00 0.  1.
         21    1    1    2  502  501  0.61602984834E-01  0.70342256561E-01  0.11690008133E+01  0.11727343528E+01  0.00000000000E+00 0.  1.
<mgrwt>
<rscale>  1 0.64977823E+03</rscale>
<asrwt>0</asrwt>
<pdfrwt beam="1">  1        1 0.38808810E+00 0.64977823E+03</pdfrwt>
<pdfrwt beam="2">0</pdfrwt>
<totfact> 0.15113352E+00</totfact>
</mgrwt>
</event>
<event>
 6    1  0.1730844E-002  0.6370310E+03  0.7818608E-02  0.9831424E-01
          1   -1    0    0  502    0  0.00000000000E+00  0.00000000000E+00  0.10151766403E+03  0.10151766403E+03  0.00000000000E+00 0.  1.
         13   -1    0    0    0    0 -0.00000000000E+00 -0.00000000000E+00 -0.10000000000E+04  0.10000000000E+04  0.00000000000E+00 0.  1.
    9000005    2    1    2  501    0 -0.19296095921E+00  0.65036689955E-01 -0.89824305954E+03  0.11012034716E+04  0.63703096493E+03 0.  0.
         13    1    3    3    0    0  0.14735031959E+03  0.46867416553E+02  0.32226456822E+02  0.15794687694E+03  0.00000000000E+00 0.  1.
          1    1    3    3  501    0 -0.14754328055E+03 -0.46802379863E+02 -0.93046951636E+03  0.94325659461E+03  0.00000000000E+00 0.  1.
         21    1    1    2  502  501  0.19296095921E+00 -0.65036689955E-01 -0.23927642830E+00  0.31419247598E+00  0.00000000000E+00 0. -1.
<mgrwt>
<rscale>  1 0.63703100E+03</rscale>
<asrwt>0</asrwt>
<pdfrwt beam="1">  1        1 0.36915592E+00 0.63703100E+03</pdfrwt>
<pdfrwt beam="2">0</pdfrwt>
<totfact> 0.18359374E+00</totfact>
</mgrwt>
</event>
<event>
 6    1  0.1730844E-002  0.6538756E+03  0.7818608E-02  0.9799534E-01
          1   -1    0    0  502    0  0.00000000000E+00  0.00000000000E+00  0.11302362831E+03  0.11302362831E+03  0.00000000000E+00 0.  1.
         13   -1    0    0    0    0 -0.00000000000E+00 -0.00000000000E+00 -0.10000000000E+04  0.10000000000E+04  0.00000000000E+00 0.  1.
    9000005    2    1    2  501    0  0.58008267899E+00 -0.69875491743E-01 -0.89309628927E+03  0.11068758832E+04  0.65387529206E+03 0.  0.
         13    1    3    3    0    0 -0.11571462497E+02 -0.23519509140E+03 -0.83052707577E+03  0.86326464850E+03  0.00000000000E+00 0.  1.
          3    1    3    3  501    0  0.12151545176E+02  0.23512521590E+03 -0.62569213497E+02  0.24361123472E+03  0.00000000000E+00 0.  1.
         21    1    1    2  502  501 -0.58008267899E+00  0.69875491743E-01  0.61199175801E+01  0.61477450895E+01  0.00000000000E+00 0. -1.
<mgrwt>
<rscale>  1 0.65387555E+03</rscale>
<asrwt>0</asrwt>
<pdfrwt beam="1">  1        1 0.41099588E+00 0.65387555E+03</pdfrwt>
<pdfrwt beam="2">0</pdfrwt>
<totfact> 0.11937843E+00</totfact>
</mgrwt>
</event>
<event>
 6    1  0.1730844E-002  0.6429752E+03  0.7818608E-02  0.9820051E-01
          1   -1    0    0  502    0  0.00000000000E+00  0.00000000000E+00  0.10335695068E+03  0.10335695068E+03  0.00000000000E+00 0.  1.
         13   -1    0    0    0    0 -0.00000000000E+00 -0.00000000000E+00 -0.10000000000E+04  0.10000000000E+04  0.00000000000E+00 0.  1.
    9000005    2    1    2  501    0 -0.22085544646E-03  0.33014306833E-03 -0.89664571780E+03  0.11033542528E+04  0.64297516587E+03 0.  0.
         13    1    3    3    0    0 -0.29888414520E+03  0.58659789834E+02 -0.62484447234E+03  0.69512827436E+03  0.00000000000E+00 0.  1.
          3    1    3    3  501    0  0.29888392434E+03 -0.58659459691E+02 -0.27180124546E+03  0.40822597844E+03  0.00000000000E+00 0.  1.
         21    1    1    2  502  501  0.22085544646E-03 -0.33014306833E-03  0.26684760549E-02  0.26978762072E-02  0.00000000000E+00 0.  1.
<mgrwt>
<rscale>  1 0.64297517E+03</rscale>
<asrwt>0</asrwt>
<pdfrwt beam="1">  1        1 0.37584425E+00 0.64297517E+03</pdfrwt>
<pdfrwt beam="2">0</pdfrwt>
<totfact> 0.17138758E+00</totfact>
</mgrwt>
</event>
<event>
 6    1  0.1730844E-002  0.6515537E+03  0.7818608E-02  0.9803868E-01
          1   -1    0    0  502    0  0.00000000000E+00  0.00000000000E+00  0.10613078270E+03  0.10613078270E+03  0.00000000000E+00 0.  1.
         13   -1    0    0    0    0 -0.00000000000E+00 -0.00000000000E+00 -0.10000000000E+04  0.10000000000E+04  0.00000000000E+00 0.  1.
    9000005    2    1    2  501    0 -0.25017856103E-04  0.39913609371E-04 -0.89386944894E+03  0.11061305463E+04  0.65155367681E+03 0.  0.
         13    1    3    3    0    0  0.31697099620E+03 -0.66013716842E+02 -0.50819523864E+03  0.60257018166E+03  0.00000000000E+00 0.  1.
          1    1    3    3  501    0 -0.31697102122E+03  0.66013756755E+02 -0.38567421029E+03  0.50356036466E+03  0.00000000000E+00 0.  1.
         21    1    1    2  502  501  0.25017856100E-04 -0.39913609371E-04  0.23163409587E-03  0.23637542957E-03  0.00000000000E+00 0.  1.
<mgrwt>
<rscale>  1 0.65155368E+03</rscale>
<asrwt>0</asrwt>
<pdfrwt beam="1">  1        1 0.38593093E+00 0.65155368E+03</pdfrwt>
<pdfrwt beam="2">0</pdfrwt>
<totfact> 0.15444324E+00</totfact>
</mgrwt>
</event>
<event>
 6    1  0.1730844E-002  0.6545342E+03  0.7818608E-02  0.9798308E-01
          1   -1    0    0  502    0  0.00000000000E+00  0.00000000000E+00  0.10710971084E+03  0.10710971084E+03  0.00000000000E+00 0.  1.
         13   -1    0    0    0    0 -0.00000000000E+00 -0.00000000000E+00 -0.10000000000E+04  0.10000000000E+04  0.00000000000E+00 0.  1.
    9000005    2    1    2  501    0  0.93680357446E-03 -0.27809664957E-04 -0.89289618996E+03  0.11071037361E+04  0.65453424385E+03 0.  0.
         13    1    3    3    0    0  0.26209404150E+03  0.11943735165E+03 -0.18361944458E+03  0.34157673806E+03  0.00000000000E+00 0.  1.
          3    1    3    3  501    0 -0.26209310469E+03 -0.11943737946E+03 -0.70927674539E+03  0.76552699801E+03  0.00000000000E+00 0.  1.
         21    1    1    2  502  501 -0.93680357446E-03  0.27809664957E-04  0.59008063064E-02  0.59747710735E-02  0.00000000000E+00 0. -1.
<mgrwt>
<rscale>  1 0.65453424E+03</rscale>
<asrwt>0</asrwt>
<pdfrwt beam="1">  1        1 0.38949068E+00 0.65453424E+03</pdfrwt>
<pdfrwt beam="2">0</pdfrwt>
<totfact> 0.14885437E+00</totfact>
</mgrwt>
</event>
<event>
 6    1  0.1730844E-002  0.6276198E+03  0.7818608E-02  0.9849705E-01
          1   -1    0    0  502    0  0.00000000000E+00  0.00000000000E+00  0.98479480561E+02  0.98479480561E+02  0.00000000000E+00 0.  1.
         13   -1    0    0    0    0 -0.00000000000E+00 -0.00000000000E+00 -0.10000000000E+04  0.10000000000E+04  0.00000000000E+00 0.  1.
    9000005    2    1    2  501    0  0.46291785105E-03 -0.66107538458E-04 -0.90152332326E+03  0.10984766380E+04  0.62761980680E+03 0.  0.
         13    1    3    3    0    0 -0.19602330775E+03  0.24424069849E+03 -0.48567360877E+03  0.57789056943E+03  0.00000000000E+00 0.  1.
          1    1    3    3  501    0  0.19602377067E+03 -0.24424076460E+03 -0.41584971449E+03  0.52058606858E+03  0.00000000000E+00 0.  1.
         21    1    1    2  502  501 -0.46291785106E-03  0.66107538459E-04  0.28038198519E-02  0.28425462011E-02  0.00000000000E+00 0.  1.
<mgrwt>
<rscale>  1 0.62761981E+03</rscale>
<asrwt>0</asrwt>
<pdfrwt beam="1">  1        1 0.35810796E+00 0.62761981E+03</pdfrwt>
<pdfrwt beam="2">0</pdfrwt>
<totfact> 0.20558329E+00</totfact>
</mgrwt>
</event>
<event>
 6    1  0.1730844E-002  0.6409836E+03  0.7818608E-02  0.9823846E-01
          1   -1    0    0  502    0  0.00000000000E+00  0.00000000000E+00  0.11448934739E+03  0.11448934739E+03  0.00000000000E+00 0.  1.
         13   -1    0    0    0    0 -0.00000000000E+00 -0.00000000000E+00 -0.10000000000E+04  0.10000000000E+04  0.00000000000E+00 0.  1.
    9000005    2    1    2  501    0  0.33646905767E+01 -0.53970367211E+01 -0.89633064576E+03  0.11019385944E+04  0.64095209667E+03 0.  0.
         13    1    3    3    0    0 -0.43437351090E+02 -0.29168028466E+03 -0.22601349046E+03  0.37154581117E+03  0.00000000000E+00 0.  1.
          1    1    3    3  501    0  0.46802041667E+02  0.28628324794E+03 -0.67031715530E+03  0.73039278326E+03  0.00000000000E+00 0.  1.
         21    1    1    2  502  501 -0.33646905767E+01  0.53970367211E+01  0.10819993143E+02  0.12550752952E+02  0.00000000000E+00 0. -1.
<mgrwt>
<rscale>  1 0.64098365E+03</rscale>
<asrwt>0</asrwt>
<pdfrwt beam="1">  1        1 0.41632578E+00 0.64098365E+03</pdfrwt>
<pdfrwt beam="2">0</pdfrwt>
<totfact> 0.11326128E+00</totfact>
</mgrwt>
</event>
<event>
 6    1  0.1730844E-002  0.6520639E+03  0.7818608E-02  0.9802914E-01
          1   -1    0    0  502    0  0.00000000000E+00  0.00000000000E+00  0.10629998211E+03  0.10629998211E+03  0.00000000000E+00 0.  1.
         13   -1    0    0    0    0 -0.00000000000E+00 -0.00000000000E+00 -0.10000000000E+04  0.10000000000E+04  0.00000000000E+00 0.  1.
    9000005    2    1    2  501    0 -0.25800418069E-02 -0.53937971592E-02 -0.89369967182E+03  0.11062939930E+04  0.65206387378E+03 0.  0.
         13    1    3    3    0    0 -0.12541467148E+03 -0.96620543057E+02  0.36705150968E+02  0.16251657537E+03  0.00000000000E+00 0.  1.
          3    1    3    3  501    0  0.12541209144E+03  0.96615149260E+02 -0.93040482279E+03  0.94377741762E+03  0.00000000000E+00 0.  1.
         21    1    1    2  502  501  0.25800418069E-02  0.53937971592E-02 -0.34607109924E-03  0.59891091763E-02  0.00000000000E+00 0. -1.
<mgrwt>
<rscale>  1 0.65206387E+03</rscale>
<asrwt>0</asrwt>
<pdfrwt beam="1">  1        1 0.38654620E+00 0.65206387E+03</pdfrwt>
<pdfrwt beam="2">0</pdfrwt>
<totfact> 0.15346336E+00</totfact>
</mgrwt>
</event>
<event>
 6    1  0.1730844E-002  0.6512729E+03  0.7818608E-02  0.9804394E-01
          1   -1    0    0  502    0  0.00000000000E+00  0.00000000000E+00  0.10605699883E+03  0.10605699883E+03  0.00000000000E+00 0.  1.
         13   -1    0    0    0    0 -0.00000000000E+00 -0.00000000000E+00 -0.10000000000E+04  0.10000000000E+04  0.00000000000E+00 0.  1.
    9000005    2    1    2  501    0 -0.12555850210E-02 -0.47980731020E-03 -0.89396087543E+03  0.11060390741E+04  0.65127289720E+03 0.  0.
         13    1    3    3    0    0 -0.14421936180E+03 -0.23832852578E+02 -0.94115215292E+03  0.95243614176E+03  0.00000000000E+00 0.  1.
          1    1    3    3  501    0  0.14421810621E+03  0.23832372771E+02  0.47191277489E+02  0.15360293234E+03  0.00000000000E+00 0.  1.
         21    1    1    2  502  501  0.12555850210E-02  0.47980731019E-03  0.17874263295E-01  0.17924731438E-01  0.00000000000E+00 0. -1.
<mgrwt>
<rscale>  1 0.65127290E+03</rscale>
<asrwt>0</asrwt>
<pdfrwt beam="1">  1        1 0.38566263E+00 0.65127290E+03</pdfrwt>
<pdfrwt beam="2">0</pdfrwt>
<totfact> 0.15487406E+00</totfact>
</mgrwt>
</event>
<event>
 6    1  0.1730844E-002  0.6468782E+03  0.7818608E-02  0.9812655E-01
          1   -1    0    0  502    0  0.00000000000E+00  0.00000000000E+00  0.10461359183E+03  0.10461359183E+03  0.00000000000E+00 0.  1.
         13   -1    0    0    0    0 -0.00000000000E+00 -0.00000000000E+00 -0.10000000000E+04  0.10000000000E+04  0.00000000000E+00 0.  1.
    9000005    2    1    2  501    0 -0.48975574089E-04  0.18359327925E-04 -0.89538715495E+03  0.11046128432E+04  0.64687817721E+03 0.  0.
         13    1    3    3    0    0 -0.17025114547E+03 -0.64247651901E+02  0.89101944184E+01  0.18218837744E+03  0.00000000000E+00 0.  1.
          1    1    3    3  501    0  0.17025109650E+03  0.64247670261E+02 -0.90429734937E+03  0.92242446578E+03  0.00000000000E+00 0.  1.
         21    1    1    2  502  501  0.48975574105E-04 -0.18359327935E-04  0.74677893526E-03  0.74860834215E-03  0.00000000000E+00 0. -1.
<mgrwt>
<rscale>  1 0.64687818E+03</rscale>
<asrwt>0</asrwt>
<pdfrwt beam="1">  1        1 0.38041386E+00 0.64687818E+03</pdfrwt>
<pdfrwt beam="2">0</pdfrwt>
<totfact> 0.16350243E+00</totfact>
</mgrwt>
</event>
<event>
 6    1  0.1730844E-002  0.6478013E+03  0.7818608E-02  0.9810914E-01
          1   -1    0    0  502    0  0.00000000000E+00  0.00000000000E+00  0.10529394833E+03  0.10529394833E+03  0.00000000000E+00 0.  1.
         13   -1    0    0    0    0 -0.00000000000E+00 -0.00000000000E+00 -0.10000000000E+04  0.10000000000E+04  0.00000000000E+00 0.  1.
    9000005    2    1    2  501    0 -0.65651406704E-01 -0.16683988647E-01 -0.89508504947E+03  0.11049089447E+04  0.64780130111E+03 0.  0.
         13    1    3    3    0    0 -0.67530878255E+02 -0.43137924965E+02  0.87741047840E+02  0.11882672917E+03  0.00000000000E+00 0.  1.
          1    1    3    3  501    0  0.67465226849E+02  0.43121240977E+02 -0.98282609731E+03  0.98608221554E+03  0.00000000000E+00 0.  1.
         21    1    1    2  502  501  0.65651406704E-01  0.16683988647E-01  0.37899779885E+00  0.38500362883E+00  0.00000000000E+00 0. -1.
<mgrwt>
<rscale>  1 0.64780130E+03</rscale>
<asrwt>0</asrwt>
<pdfrwt beam="1">  1        1 0.38288789E+00 0.64780130E+03</pdfrwt>
<pdfrwt beam="2">0</pdfrwt>
<totfact> 0.15941371E+00</totfact>
</mgrwt>
</event>
<event>
 6    1  0.1730844E-002  0.6691296E+03  0.7818608E-02  0.9771531E-01
          1   -1    0    0  502    0  0.00000000000E+00  0.00000000000E+00  0.11195059540E+03  0.11195059540E+03  0.00000000000E+00 0.  1.
         13   -1    0    0    0    0 -0.00000000000E+00 -0.00000000000E+00 -0.10000000000E+04  0.10000000000E+04  0.00000000000E+00 0.  1.
    9000005    2    1    2  501    0 -0.14441771632E-01 -0.29781570865E-01 -0.88804599538E+03  0.11119173218E+04  0.66912961347E+03 0.  0.
         13    1    3    3    0    0  0.42603356448E+02 -0.28322202605E+03 -0.15664129108E+03  0.32644487451E+03  0.00000000000E+00 0.  1.
          1    1    3    3  501    0 -0.42617798220E+02  0.28319224448E+03 -0.73140470430E+03  0.78547244734E+03  0.00000000000E+00 0.  1.
         21    1    1    2  502  501  0.14441771632E-01  0.29781570865E-01 -0.34092186934E-02  0.33273555613E-01  0.00000000000E+00 0. -1.
<mgrwt>
<rscale>  1 0.66912961E+03</rscale>
<asrwt>0</asrwt>
<pdfrwt beam="1">  1        1 0.40709393E+00 0.66912961E+03</pdfrwt>
<pdfrwt beam="2">0</pdfrwt>
<totfact> 0.12392260E+00</totfact>
</mgrwt>
</event>
<event>
 6    1  0.1730844E-002  0.6451802E+03  0.7818608E-02  0.9815865E-01
          1   -1    0    0  502    0  0.00000000000E+00  0.00000000000E+00  0.10406446369E+03  0.10406446369E+03  0.00000000000E+00 0.  1.
         13   -1    0    0    0    0 -0.00000000000E+00 -0.00000000000E+00 -0.10000000000E+04  0.10000000000E+04  0.00000000000E+00 0.  1.
    9000005    2    1    2  501    0  0.95046880460E-04 -0.35007394899E-04 -0.89593559503E+03  0.11040643466E+04  0.64518020042E+03 0.  0.
         13    1    3    3    0    0 -0.68408623344E+02  0.30743261991E+03 -0.56738551884E+03  0.64893827328E+03  0.00000000000E+00 0.  1.
          3    1    3    3  501    0  0.68408718391E+02 -0.30743265492E+03 -0.32855007619E+03  0.45512607333E+03  0.00000000000E+00 0.  1.
         21    1    1    2  502  501 -0.95046880456E-04  0.35007394922E-04  0.58715061383E-04  0.11707640931E-03  0.00000000000E+00 0. -1.
<mgrwt>
<rscale>  1 0.64518020E+03</rscale>
<asrwt>0</asrwt>
<pdfrwt beam="1">  1        1 0.37841703E+00 0.64518020E+03</pdfrwt>
<pdfrwt beam="2">0</pdfrwt>
<totfact> 0.16690437E+00</totfact>
</mgrwt>
</event>
<event>
 6    1  0.1730844E-002  0.6424614E+03  0.7818608E-02  0.9821029E-01
          1   -1    0    0  502    0  0.00000000000E+00  0.00000000000E+00  0.11658661568E+03  0.11658661568E+03  0.00000000000E+00 0.  1.
         13   -1    0    0    0    0 -0.00000000000E+00 -0.00000000000E+00 -0.10000000000E+04  0.10000000000E+04  0.00000000000E+00 0.  1.
    9000005    2    1    2  501    0  0.52182403146E+00 -0.32827499338E+00 -0.89680300770E+03  0.11031828073E+04  0.64246112071E+03 0.  0.
         13    1    3    3    0    0  0.30189696538E+03  0.23484148837E+01 -0.25909126588E+03  0.39783863163E+03  0.00000000000E+00 0.  1.
          1    1    3    3  501    0 -0.30137514135E+03 -0.26766898770E+01 -0.63771174182E+03  0.70534417567E+03  0.00000000000E+00 0.  1.
         21    1    1    2  502  501 -0.52182403146E+00  0.32827499338E+00  0.13389623388E+02  0.13403808386E+02  0.00000000000E+00 0. -1.
<mgrwt>
<rscale>  1 0.64246142E+03</rscale>
<asrwt>0</asrwt>
<pdfrwt beam="1">  1        1 0.42395222E+00 0.64246142E+03</pdfrwt>
<pdfrwt beam="2">0</pdfrwt>
<totfact> 0.10460795E+00</totfact>
</mgrwt>
</event>
<event>
 6    1  0.1730844E-002  0.6496140E+03  0.7818608E-02  0.9807504E-01
          1   -1    0    0  502    0  0.00000000000E+00  0.00000000000E+00  0.10578515371E+03  0.10578515371E+03  0.00000000000E+00 0.  1.
         13   -1    0    0    0    0 -0.00000000000E+00 -0.00000000000E+00 -0.10000000000E+04  0.10000000000E+04  0.00000000000E+00 0.  1.
    9000005    2    1    2  501    0  0.74560025855E-02  0.57296518021E-02 -0.89450034121E+03  0.11054995040E+04  0.64961395673E+03 0.  0.
         13    1    3    3    0    0 -0.17174495818E+02 -0.19258723138E+02 -0.99825168638E+03  0.99858514463E+03  0.00000000000E+00 0.  1.
          3    1    3    3  501    0  0.17181951820E+02  0.19264452789E+02  0.10375134517E+03  0.10691435934E+03  0.00000000000E+00 0.  1.
         21    1    1    2  502  501 -0.74560025855E-02 -0.57296518021E-02  0.28549492314E+00  0.28564973660E+00  0.00000000000E+00 0.  1.
<mgrwt>
<rscale>  1 0.64961396E+03</rscale>
<asrwt>0</asrwt>
<pdfrwt beam="1">  1        1 0.38467410E+00 0.64961396E+03</pdfrwt>
<pdfrwt beam="2">0</pdfrwt>
<totfact> 0.15648929E+00</totfact>
</mgrwt>
</event>
<event>
 6    1  0.1730844E-002  0.6211120E+03  0.7818608E-02  0.9862548E-01
          1   -1    0    0  502    0  0.00000000000E+00  0.00000000000E+00  0.96447871664E+02  0.96447871664E+02  0.00000000000E+00 0.  1.
         13   -1    0    0    0    0 -0.00000000000E+00 -0.00000000000E+00 -0.10000000000E+04  0.10000000000E+04  0.00000000000E+00 0.  1.
    9000005    2    1    2  501    0  0.24066407990E-02 -0.17652517742E-02 -0.90355408078E+03  0.10964443051E+04  0.62111201677E+03 0.  0.
         13    1    3    3    0    0  0.15931878043E+03 -0.20525959295E+03 -0.15151399239E+03  0.30078308494E+03  0.00000000000E+00 0.  1.
          1    1    3    3  501    0 -0.15931637379E+03  0.20525782770E+03 -0.75204008839E+03  0.79566122020E+03  0.00000000000E+00 0.  1.
         21    1    1    2  502  501 -0.24066407990E-02  0.17652517742E-02  0.19524421385E-02  0.35665198816E-02  0.00000000000E+00 0. -1.
<mgrwt>
<rscale>  1 0.62111202E+03</rscale>
<asrwt>0</asrwt>
<pdfrwt beam="1">  1        1 0.35072027E+00 0.62111202E+03</pdfrwt>
<pdfrwt beam="2">0</pdfrwt>
<totfact> 0.22168545E+00</totfact>
</mgrwt>
</event>
<event>
 6    1  0.1730844E-002  0.6551877E+03  0.7818608E-02  0.9797093E-01
          1   -1    0    0  502    0  0.00000000000E+00  0.00000000000E+00  0.10903594792E+03  0.10903594792E+03  0.00000000000E+00 0.  1.
         13   -1    0    0    0    0 -0.00000000000E+00 -0.00000000000E+00 -0.10000000000E+04  0.10000000000E+04  0.00000000000E+00 0.  1.
    9000005    2    1    2  501    0  0.14570491289E+00  0.10768973906E+00 -0.89267696720E+03  0.11073134772E+04  0.65518771073E+03 0.  0.
         13    1    3    3    0    0  0.12138416563E+03 -0.30031788759E+03 -0.36389000482E+03  0.48717644122E+03  0.00000000000E+00 0.  1.
          1    1    3    3  501    0 -0.12123846071E+03  0.30042557733E+03 -0.52878696238E+03  0.62013703603E+03  0.00000000000E+00 0.  1.
         21    1    1    2  502  501 -0.14570491289E+00 -0.10768973906E+00  0.17129151184E+01  0.17224706686E+01  0.00000000000E+00 0.  1.
<mgrwt>
<rscale>  1 0.65518774E+03</rscale>
<asrwt>0</asrwt>
<pdfrwt beam="1">  1        1 0.39649519E+00 0.65518774E+03</pdfrwt>
<pdfrwt beam="2">0</pdfrwt>
<totfact> 0.13854714E+00</totfact>
</mgrwt>
</event>
<event>
 6    1  0.1730845E-002  0.5996741E+03  0.7818608E-02  0.9906082E-01
          1   -1    0    0  502    0  0.00000000000E+00  0.00000000000E+00  0.89902276021E+02  0.89902276021E+02  0.00000000000E+00 0.  1.
         13   -1    0    0    0    0 -0.00000000000E+00 -0.00000000000E+00 -0.10000000000E+04  0.10000000000E+04  0.00000000000E+00 0.  1.
    9000005    2    1    2  501    0 -0.11810460364E-04 -0.20672470669E-05 -0.91009772178E+03  0.10899022638E+04  0.59967414611E+03 0.  0.
         13    1    3    3    0    0  0.20281049453E+03 -0.17724267933E+03 -0.69448355775E+03  0.74488554561E+03  0.00000000000E+00 0.  1.
          1    1    3    3  501    0 -0.20281050634E+03  0.17724267726E+03 -0.21561416403E+03  0.34501671822E+03  0.00000000000E+00 0.  1.
         21    1    1    2  502  501  0.11810460350E-04  0.20672470877E-05 -0.21940290104E-05  0.12189103638E-04  0.00000000000E+00 0. -1.
<mgrwt>
<rscale>  1 0.59967415E+03</rscale>
<asrwt>0</asrwt>
<pdfrwt beam="1">  1        1 0.32691806E+00 0.59967415E+03</pdfrwt>
<pdfrwt beam="2">0</pdfrwt>
<totfact> 0.28232331E+00</totfact>
</mgrwt>
</event>
<event>
 6    1  0.1730844E-002  0.6268760E+03  0.7818608E-02  0.9851164E-01
          1   -1    0    0  502    0  0.00000000000E+00  0.00000000000E+00  0.98276706455E+02  0.98276706455E+02  0.00000000000E+00 0.  1.
         13   -1    0    0    0    0 -0.00000000000E+00 -0.00000000000E+00 -0.10000000000E+04  0.10000000000E+04  0.00000000000E+00 0.  1.
    9000005    2    1    2  501    0  0.19199827869E-01 -0.58032751044E-02 -0.90175328745E+03  0.10982406240E+04  0.62687596564E+03 0.  0.
         13    1    3    3    0    0 -0.23563737866E+03  0.89949541494E+01 -0.89132942657E+02  0.25209237372E+03  0.00000000000E+00 0.  1.
          1    1    3    3  501    0  0.23565657849E+03 -0.90007574245E+01 -0.81262034480E+03  0.84614825025E+03  0.00000000000E+00 0.  1.
         21    1    1    2  502  501 -0.19199827869E-01  0.58032751044E-02  0.29993909407E-01  0.36082488740E-01  0.00000000000E+00 0.  1.
<mgrwt>
<rscale>  1 0.62687597E+03</rscale>
<asrwt>0</asrwt>
<pdfrwt beam="1">  1        1 0.35737060E+00 0.62687597E+03</pdfrwt>
<pdfrwt beam="2">0</pdfrwt>
<totfact> 0.20714190E+00</totfact>
</mgrwt>
</event>
<event>
 6    1  0.1730844E-002  0.6508061E+03  0.7818608E-02  0.9805268E-01
          1   -1    0    0  502    0  0.00000000000E+00  0.00000000000E+00  0.10588832526E+03  0.10588832526E+03  0.00000000000E+00 0.  1.
         13   -1    0    0    0    0 -0.00000000000E+00 -0.00000000000E+00 -0.10000000000E+04  0.10000000000E+04  0.00000000000E+00 0.  1.
    9000005    2    1    2  501    0 -0.58139156096E-04 -0.15180798070E-03 -0.89411286476E+03  0.11058871242E+04  0.65080605137E+03 0.  0.
         13    1    3    3    0    0 -0.90962859104E+02 -0.24349015531E+03 -0.77971836211E+03  0.82190171047E+03  0.00000000000E+00 0.  1.
          1    1    3    3  501    0  0.90962800965E+02  0.24349000350E+03 -0.11439450266E+03  0.28398541371E+03  0.00000000000E+00 0.  1.
         21    1    1    2  502  501  0.58139156099E-04  0.15180798070E-03  0.11900217143E-02  0.12010734802E-02  0.00000000000E+00 0. -1.
<mgrwt>
<rscale>  1 0.65080605E+03</rscale>
<asrwt>0</asrwt>
<pdfrwt beam="1">  1        1 0.38504927E+00 0.65080605E+03</pdfrwt>
<pdfrwt beam="2">0</pdfrwt>
<totfact> 0.15585821E+00</totfact>
</mgrwt>
</event>
<event>
 6    1  0.1730844E-002  0.6507150E+03  0.7818608E-02  0.9805438E-01
          1   -1    0    0  502    0  0.00000000000E+00  0.00000000000E+00  0.10585926021E+03  0.10585926021E+03  0.00000000000E+00 0.  1.
         13   -1    0    0    0    0 -0.00000000000E+00 -0.00000000000E+00 -0.10000000000E+04  0.10000000000E+04  0.00000000000E+00 0.  1.
    9000005    2    1    2  501    0 -0.12839089716E-02 -0.68738798234E-03 -0.89414214124E+03  0.11058572391E+04  0.65071504093E+03 0.  0.
         13    1    3    3    0    0  0.30274970169E+03 -0.11228233123E+03 -0.51488889279E+03  0.60776251587E+03  0.00000000000E+00 0.  1.
          3    1    3    3  501    0 -0.30275098560E+03  0.11228164385E+03 -0.37925324845E+03  0.49809472321E+03  0.00000000000E+00 0.  1.
         21    1    1    2  502  501  0.12839089716E-02  0.68738798234E-03  0.14014494791E-02  0.20211346141E-02  0.00000000000E+00 0.  1.
<mgrwt>
<rscale>  1 0.65071504E+03</rscale>
<asrwt>0</asrwt>
<pdfrwt beam="1">  1        1 0.38494358E+00 0.65071504E+03</pdfrwt>
<pdfrwt beam="2">0</pdfrwt>
<totfact> 0.15602870E+00</totfact>
</mgrwt>
</event>
<event>
 6    1  0.1730844E-002  0.6541639E+03  0.7818608E-02  0.9798997E-01
          1   -1    0    0  502    0  0.00000000000E+00  0.00000000000E+00  0.10698534563E+03  0.10698534563E+03  0.00000000000E+00 0.  1.
         13   -1    0    0    0    0 -0.00000000000E+00 -0.00000000000E+00 -0.10000000000E+04  0.10000000000E+04  0.00000000000E+00 0.  1.
    9000005    2    1    2  501    0  0.28658043478E-02 -0.36563088099E-02 -0.89301499303E+03  0.11069806877E+04  0.65416394367E+03 0.  0.
         13    1    3    3    0    0 -0.26690150184E+03 -0.17083880376E+03 -0.30944714774E+03  0.44292194097E+03  0.00000000000E+00 0.  1.
          1    1    3    3  501    0  0.26690436764E+03  0.17083514746E+03 -0.58356784529E+03  0.66405874675E+03  0.00000000000E+00 0.  1.
         21    1    1    2  502  501 -0.28658043478E-02  0.36563088099E-02  0.33865899033E-03  0.46579092504E-02  0.00000000000E+00 0. -1.
<mgrwt>
<rscale>  1 0.65416394E+03</rscale>
<asrwt>0</asrwt>
<pdfrwt beam="1">  1        1 0.38903844E+00 0.65416394E+03</pdfrwt>
<pdfrwt beam="2">0</pdfrwt>
<totfact> 0.14955337E+00</totfact>
</mgrwt>
</event>
<event>
 6    1  0.1730844E-002  0.6387757E+03  0.7818608E-02  0.9828072E-01
          1   -1    0    0  502    0  0.00000000000E+00  0.00000000000E+00  0.10336996326E+03  0.10336996326E+03  0.00000000000E+00 0.  1.
         13   -1    0    0    0    0 -0.00000000000E+00 -0.00000000000E+00 -0.10000000000E+04  0.10000000000E+04  0.00000000000E+00 0.  1.
    9000005    2    1    2  501    0 -0.19526137900E+00 -0.85526815064E-01 -0.89798220976E+03  0.11020010901E+04  0.63877563207E+03 0.  0.
         13    1    3    3    0    0 -0.12565198582E+03 -0.22568202513E+03 -0.12481110968E+03  0.28687734506E+03  0.00000000000E+00 0.  1.
          3    1    3    3  501    0  0.12545672444E+03  0.22559649831E+03 -0.77317110007E+03  0.81512374505E+03  0.00000000000E+00 0.  1.
         21    1    1    2  502  501  0.19526137900E+00  0.85526815064E-01  0.13521730144E+01  0.13688731508E+01  0.00000000000E+00 0. -1.
<mgrwt>
<rscale>  1 0.63877567E+03</rscale>
<asrwt>0</asrwt>
<pdfrwt beam="1">  1        1 0.37589157E+00 0.63877567E+03</pdfrwt>
<pdfrwt beam="2">0</pdfrwt>
<totfact> 0.17143751E+00</totfact>
</mgrwt>
</event>
