<event>
 6    1  0.1295671E-001  0.3000000E+03  0.7818608E-02  0.1093470E+00
         21   -1    0    0  501  502  0.00000000000E+00  0.00000000000E+00  0.10880435721E+01  0.10880435721E+01  0.00000000000E+00 0. -1.
         13   -1    0    0    0    0 -0.00000000000E+00 -0.00000000000E+00 -0.10000000000E+04  0.10000000000E+04  0.00000000000E+00 0.  1.
    9000005    2    1    2  501    0  0.20023348099E+02 -0.24118066761E+02 -0.34743056704E+03  0.34885295073E+03  0.27868812862E+01 0.  0.
         13    1    3    3    0    0  0.32750780075E+01 -0.56732029270E+01 -0.69728331217E+02  0.70035359225E+02  0.00000000000E+00 0.  1.
          1    1    3    3  501    0  0.16748270091E+02 -0.18444863834E+02 -0.27770223582E+03  0.27881759151E+03  0.00000000000E+00 0.  1.
         -3    1    1    2    0  502 -0.20023348099E+02  0.24118066761E+02 -0.65148138939E+03  0.65223509284E+03  0.00000000000E+00 0. -1.
<mgrwt>
<rscale>  1 0.30000000E+03</rscale>
<asrwt>0</asrwt>
<pdfrwt beam="1">  1       21 0.39565304E-02 0.30000000E+03</pdfrwt>
<pdfrwt beam="2">0</pdfrwt>
<totfact> 0.42827994E+04</totfact>
</mgrwt>
</event>
<event>
 6    1  0.1295671E-001  0.3000000E+03  0.7818608E-02  0.1093470E+00
         21   -1    0    0  501  502  0.00000000000E+00  0.00000000000E+00  0.11529436510E+02  0.11529436510E+02  0.00000000000E+00 0. -1.
         13   -1    0    0    0    0 -0.00000000000E+00 -0.00000000000E+00 -0.10000000000E+04  0.10000000000E+04  0.00000000000E+00 0.  1.
    9000005    2    1    2  501    0 -0.11558618793E+02 -0.34165419866E+02 -0.97057765083E+03  0.97126737116E+03  0.62010004615E+01 0.  0.
         13    1    3    3    0    0 -0.46355108766E+01 -0.92517228084E+01 -0.21768932388E+03  0.21793513730E+03  0.00000000000E+00 0.  1.
          1    1    3    3  501    0 -0.69231079164E+01 -0.24913697057E+02 -0.75288832694E+03  0.75333223386E+03  0.00000000000E+00 0.  1.
         -3    1    1    2    0  502  0.11558618793E+02  0.34165419866E+02 -0.17892912664E+02  0.40262065355E+02  0.00000000000E+00 0. -1.
<mgrwt>
<rscale>  1 0.30000000E+03</rscale>
<asrwt>0</asrwt>
<pdfrwt beam="1">  1       21 0.41925312E-01 0.30000000E+03</pdfrwt>
<pdfrwt beam="2">0</pdfrwt>
<totfact> 0.54729330E+02</totfact>
</mgrwt>
</event>
<event>
 6    1  0.1295671E-001  0.3000000E+03  0.7818608E-02  0.1093470E+00
         21   -1    0    0  501  502  0.00000000000E+00  0.00000000000E+00  0.17529703121E+01  0.17529703121E+01  0.00000000000E+00 0. -1.
         13   -1    0    0    0    0 -0.00000000000E+00 -0.00000000000E+00 -0.10000000000E+04  0.10000000000E+04  0.00000000000E+00 0.  1.
    9000005    2    1    2  501    0 -0.33186570810E+02 -0.24656986299E+02 -0.57456973746E+03  0.57606322014E+03  0.30224051826E+01 0.  0.
         13    1    3    3    0    0 -0.85006522681E+01 -0.79585870241E+01 -0.15696999377E+03  0.15740133145E+03  0.00000000000E+00 0.  1.
          1    1    3    3  501    0 -0.24685918542E+02 -0.16698399275E+02 -0.41759974369E+03  0.41866188869E+03  0.00000000000E+00 0.  1.
         -3    1    1    2    0  502  0.33186570810E+02  0.24656986299E+02 -0.42367729222E+03  0.42568975017E+03  0.00000000000E+00 0. -1.
<mgrwt>
<rscale>  1 0.30000000E+03</rscale>
<asrwt>0</asrwt>
<pdfrwt beam="1">  1       21 0.63744509E-02 0.30000000E+03</pdfrwt>
<pdfrwt beam="2">0</pdfrwt>
<totfact> 0.18979941E+04</totfact>
</mgrwt>
</event>
<event>
 6    1  0.1295671E-001  0.3000000E+03  0.7818608E-02  0.1093470E+00
         21   -1    0    0  501  502  0.00000000000E+00  0.00000000000E+00  0.35452315072E+01  0.35452315072E+01  0.00000000000E+00 0. -1.
         13   -1    0    0    0    0 -0.00000000000E+00 -0.00000000000E+00 -0.10000000000E+04  0.10000000000E+04  0.00000000000E+00 0.  1.
    9000005    2    1    2  501    0  0.24847601951E+02 -0.52700473540E+02 -0.39826243137E+03  0.40252209100E+03  0.40405775861E+01 0.  0.
         13    1    3    3    0    0  0.15664989489E+02 -0.31995140446E+02 -0.25635384384E+03  0.25881726017E+03  0.00000000000E+00 0.  1.
          3    1    3    3  501    0  0.91826124622E+01 -0.20705333094E+02 -0.14190858753E+03  0.14370483083E+03  0.00000000000E+00 0.  1.
         -1    1    1    2    0  502 -0.24847601951E+02  0.52700473540E+02 -0.59819233712E+03  0.60102314051E+03  0.00000000000E+00 0. -1.
<mgrwt>
<rscale>  1 0.30000000E+03</rscale>
<asrwt>0</asrwt>
<pdfrwt beam="1">  1       21 0.12891778E-01 0.30000000E+03</pdfrwt>
<pdfrwt beam="2">0</pdfrwt>
<totfact> 0.54388988E+03</totfact>
</mgrwt>
</event>
<event>
 6    1  0.1295671E-001  0.3000000E+03  0.7818608E-02  0.1093470E+00
         21   -1    0    0  501  502  0.00000000000E+00  0.00000000000E+00  0.19156349242E+01  0.19156349242E+01  0.00000000000E+00 0. -1.
         13   -1    0    0    0    0 -0.00000000000E+00 -0.00000000000E+00 -0.10000000000E+04  0.10000000000E+04  0.00000000000E+00 0.  1.
    9000005    2    1    2  501    0 -0.26787348470E+01 -0.37351753679E+02 -0.75777136363E+03  0.75870242026E+03  0.30973937229E+01 0.  0.
         13    1    3    3    0    0 -0.19362189883E+01 -0.19515994801E+02 -0.36727826555E+03  0.36780150536E+03  0.00000000000E+00 0.  1.
          1    1    3    3  501    0 -0.74251585871E+00 -0.17835758878E+02 -0.39049309808E+03  0.39090091491E+03  0.00000000000E+00 0.  1.
         -3    1    1    2    0  502  0.26787348470E+01  0.37351753679E+02 -0.24031300144E+03  0.24321321466E+03  0.00000000000E+00 0. -1.
<mgrwt>
<rscale>  1 0.30000000E+03</rscale>
<asrwt>0</asrwt>
<pdfrwt beam="1">  1       21 0.69659599E-02 0.30000000E+03</pdfrwt>
<pdfrwt beam="2">0</pdfrwt>
<totfact> 0.16272728E+04</totfact>
</mgrwt>
</event>
<event>
 6    1  0.1295671E-001  0.3000000E+03  0.7818608E-02  0.1093470E+00
         21   -1    0    0  501  502  0.00000000000E+00  0.00000000000E+00  0.12121499664E+01  0.12121499664E+01  0.00000000000E+00 0. -1.
         13   -1    0    0    0    0 -0.00000000000E+00 -0.00000000000E+00 -0.10000000000E+04  0.10000000000E+04  0.00000000000E+00 0.  1.
    9000005    2    1    2  501    0  0.33634549083E+02 -0.18764171527E+00 -0.62490775764E+03  0.62582216397E+03  0.35152881165E+01 0.  0.
         13    1    3    3    0    0  0.19015467365E+02 -0.58196158670E+00 -0.38392602962E+03  0.38439709013E+03  0.00000000000E+00 0.  1.
          3    1    3    3  501    0  0.14619081718E+02  0.39431987143E+00 -0.24098172802E+03  0.24142507384E+03  0.00000000000E+00 0.  1.
         -3    1    1    2    0  502 -0.33634549083E+02  0.18764171527E+00 -0.37388009239E+03  0.37538998600E+03  0.00000000000E+00 0. -1.
<mgrwt>
<rscale>  1 0.30000000E+03</rscale>
<asrwt>0</asrwt>
<pdfrwt beam="1">  1       21 0.44078274E-02 0.30000000E+03</pdfrwt>
<pdfrwt beam="2">0</pdfrwt>
<totfact> 0.35688784E+04</totfact>
</mgrwt>
</event>
<event>
 6    1  0.1295671E-001  0.3000000E+03  0.7818608E-02  0.1093470E+00
         21   -1    0    0  501  502  0.00000000000E+00  0.00000000000E+00  0.20044892532E+01  0.20044892532E+01  0.00000000000E+00 0. -1.
         13   -1    0    0    0    0 -0.00000000000E+00 -0.00000000000E+00 -0.10000000000E+04  0.10000000000E+04  0.00000000000E+00 0.  1.
    9000005    2    1    2  501    0  0.23474766136E+02  0.26903326053E+02 -0.80084703236E+03  0.80164886511E+03  0.31749150177E+01 0.  0.
         13    1    3    3    0    0  0.11205845937E+02  0.10467749724E+02 -0.33877821590E+03  0.33912508656E+03  0.00000000000E+00 0.  1.
          1    1    3    3  501    0  0.12268920199E+02  0.16435576328E+02 -0.46206881647E+03  0.46252377855E+03  0.00000000000E+00 0.  1.
         -1    1    1    2    0  502 -0.23474766136E+02 -0.26903326053E+02 -0.19714847838E+03  0.20035562415E+03  0.00000000000E+00 0. -1.
<mgrwt>
<rscale>  1 0.30000000E+03</rscale>
<asrwt>0</asrwt>
<pdfrwt beam="1">  1       21 0.72890672E-02 0.30000000E+03</pdfrwt>
<pdfrwt beam="2">0</pdfrwt>
<totfact> 0.15036243E+04</totfact>
</mgrwt>
</event>
<event>
 6    1  0.1295671E-001  0.3000000E+03  0.7818608E-02  0.1093470E+00
         21   -1    0    0  501  502  0.00000000000E+00  0.00000000000E+00  0.29187810986E+01  0.29187810986E+01  0.00000000000E+00 0. -1.
         13   -1    0    0    0    0 -0.00000000000E+00 -0.00000000000E+00 -0.10000000000E+04  0.10000000000E+04  0.00000000000E+00 0.  1.
    9000005    2    1    2  501    0 -0.41281910171E+02 -0.68495402971E+01 -0.81545099468E+03  0.81653034085E+03  0.32187707451E+01 0.  0.
         13    1    3    3    0    0 -0.36811225400E+02 -0.63296275587E+01 -0.70695371106E+03  0.70793974325E+03  0.00000000000E+00 0.  1.
          1    1    3    3  501    0 -0.44706847712E+01 -0.51991273839E+00 -0.10849728363E+03  0.10859059759E+03  0.00000000000E+00 0.  1.
         -3    1    1    2    0  502  0.41281910171E+02  0.68495402971E+01 -0.18163022422E+03  0.18638844025E+03  0.00000000000E+00 0. -1.
<mgrwt>
<rscale>  1 0.30000000E+03</rscale>
<asrwt>0</asrwt>
<pdfrwt beam="1">  1       21 0.10613772E-01 0.30000000E+03</pdfrwt>
<pdfrwt beam="2">0</pdfrwt>
<totfact> 0.77329659E+03</totfact>
</mgrwt>
</event>
<event>
 6    1  0.1295671E-001  0.3000000E+03  0.7818608E-02  0.1093470E+00
         21   -1    0    0  501  502  0.00000000000E+00  0.00000000000E+00  0.16153079973E+01  0.16153079973E+01  0.00000000000E+00 0. -1.
         13   -1    0    0    0    0 -0.00000000000E+00 -0.00000000000E+00 -0.10000000000E+04  0.10000000000E+04  0.00000000000E+00 0.  1.
    9000005    2    1    2  501    0 -0.36018040898E+02  0.16814822380E+02 -0.56861991029E+03  0.57001618251E+03  0.31318400311E+01 0.  0.
         13    1    3    3    0    0 -0.12189388652E+02  0.68211795674E+01 -0.18424223581E+03  0.18477096943E+03  0.00000000000E+00 0.  1.
          1    1    3    3  501    0 -0.23828652247E+02  0.99936428128E+01 -0.38437767448E+03  0.38524521308E+03  0.00000000000E+00 0.  1.
         -3    1    1    2    0  502  0.36018040898E+02 -0.16814822380E+02 -0.42976478171E+03  0.43159912549E+03  0.00000000000E+00 0. -1.
<mgrwt>
<rscale>  1 0.30000000E+03</rscale>
<asrwt>0</asrwt>
<pdfrwt beam="1">  1       21 0.58738596E-02 0.30000000E+03</pdfrwt>
<pdfrwt beam="2">0</pdfrwt>
<totfact> 0.21857821E+04</totfact>
</mgrwt>
</event>
<event>
 6    1  0.1295671E-001  0.3000000E+03  0.7818608E-02  0.1093470E+00
         21   -1    0    0  501  502  0.00000000000E+00  0.00000000000E+00  0.16753969466E+01  0.16753969466E+01  0.00000000000E+00 0. -1.
         13   -1    0    0    0    0 -0.00000000000E+00 -0.00000000000E+00 -0.10000000000E+04  0.10000000000E+04  0.00000000000E+00 0.  1.
    9000005    2    1    2  501    0  0.20520177919E+02  0.34211971942E+02 -0.60859006210E+03  0.60990435522E+03  0.31499364382E+01 0.  0.
         13    1    3    3    0    0  0.15909972542E+01  0.41091170646E+01 -0.77480927097E+02  0.77606122047E+02  0.00000000000E+00 0.  1.
          1    1    3    3  501    0  0.18929180664E+02  0.30102854877E+02 -0.53110913501E+03  0.53229823317E+03  0.00000000000E+00 0.  1.
         -1    1    1    2    0  502 -0.20520177919E+02 -0.34211971942E+02 -0.38973454095E+03  0.39177104173E+03  0.00000000000E+00 0. -1.
<mgrwt>
<rscale>  1 0.30000000E+03</rscale>
<asrwt>0</asrwt>
<pdfrwt beam="1">  1       21 0.60923654E-02 0.30000000E+03</pdfrwt>
<pdfrwt beam="2">0</pdfrwt>
<totfact> 0.20523567E+04</totfact>
</mgrwt>
</event>
<event>
 6    1  0.1295671E-001  0.3000000E+03  0.7818608E-02  0.1093470E+00
         21   -1    0    0  501  502  0.00000000000E+00  0.00000000000E+00  0.19020667729E+01  0.19020667729E+01  0.00000000000E+00 0. -1.
         13   -1    0    0    0    0 -0.00000000000E+00 -0.00000000000E+00 -0.10000000000E+04  0.10000000000E+04  0.00000000000E+00 0.  1.
    9000005    2    1    2  501    0 -0.32763719054E+02 -0.28313979989E+02 -0.52337743329E+03  0.52521066156E+03  0.68672107703E+01 0.  0.
         13    1    3    3    0    0 -0.24853998252E+02 -0.22700811253E+02 -0.43572246286E+03  0.43702072342E+03  0.00000000000E+00 0.  1.
          3    1    3    3  501    0 -0.79097208015E+01 -0.56131687364E+01 -0.87654970433E+02  0.88189938134E+02  0.00000000000E+00 0.  1.
         -3    1    1    2    0  502  0.32763719054E+02  0.28313979989E+02 -0.47472049993E+03  0.47669140522E+03  0.00000000000E+00 0. -1.
<mgrwt>
<rscale>  1 0.30000000E+03</rscale>
<asrwt>0</asrwt>
<pdfrwt beam="1">  1       21 0.69166210E-02 0.30000000E+03</pdfrwt>
<pdfrwt beam="2">0</pdfrwt>
<totfact> 0.16475142E+04</totfact>
</mgrwt>
</event>
<event>
 6    1  0.1295671E-001  0.3000000E+03  0.7818608E-02  0.1093470E+00
         21   -1    0    0  501  502  0.00000000000E+00  0.00000000000E+00  0.20055456308E+01  0.20055456308E+01  0.00000000000E+00 0. -1.
         13   -1    0    0    0    0 -0.00000000000E+00 -0.00000000000E+00 -0.10000000000E+04  0.10000000000E+04  0.00000000000E+00 0.  1.
    9000005    2    1    2  501    0  0.79430610587E+01  0.36394407785E+02 -0.77622644366E+03  0.77713070108E+03  0.41218430364E+01 0.  0.
         13    1    3    3    0    0  0.45758554639E+00  0.75162309134E+01 -0.13334654420E+03  0.13355899057E+03  0.00000000000E+00 0.  1.
          3    1    3    3  501    0  0.74854755123E+01  0.28878176871E+02 -0.64287989946E+03  0.64357171051E+03  0.00000000000E+00 0.  1.
         -3    1    1    2    0  502 -0.79430610587E+01 -0.36394407785E+02 -0.22176801071E+03  0.22487484455E+03  0.00000000000E+00 0. -1.
<mgrwt>
<rscale>  1 0.30000000E+03</rscale>
<asrwt>0</asrwt>
<pdfrwt beam="1">  1       21 0.72929086E-02 0.30000000E+03</pdfrwt>
<pdfrwt beam="2">0</pdfrwt>
<totfact> 0.15022413E+04</totfact>
</mgrwt>
</event>
<event>
 6    1  0.1295671E-001  0.3000000E+03  0.7818608E-02  0.1093470E+00
         21   -1    0    0  501  502  0.00000000000E+00  0.00000000000E+00  0.98987338360E+00  0.98987338360E+00  0.00000000000E+00 0. -1.
         13   -1    0    0    0    0 -0.00000000000E+00 -0.00000000000E+00 -0.10000000000E+04  0.10000000000E+04  0.00000000000E+00 0.  1.
    9000005    2    1    2  501    0 -0.21115229558E+02  0.23214001980E+02 -0.51387801734E+03  0.51484390121E+03  0.29804535103E+01 0.  0.
         13    1    3    3    0    0 -0.55540597080E+01  0.42700455969E+01 -0.11511248163E+03  0.11532547115E+03  0.00000000000E+00 0.  1.
          3    1    3    3  501    0 -0.15561169850E+02  0.18943956384E+02 -0.39876553571E+03  0.39951843006E+03  0.00000000000E+00 0.  1.
         -1    1    1    2    0  502  0.21115229558E+02 -0.23214001980E+02 -0.48513210928E+03  0.48614597217E+03  0.00000000000E+00 0. -1.
<mgrwt>
<rscale>  1 0.30000000E+03</rscale>
<asrwt>0</asrwt>
<pdfrwt beam="1">  1       21 0.35995472E-02 0.30000000E+03</pdfrwt>
<pdfrwt beam="2">0</pdfrwt>
<totfact> 0.50200900E+04</totfact>
</mgrwt>
</event>
<event>
 6    1  0.1295671E-001  0.3000000E+03  0.7818608E-02  0.1093470E+00
         21   -1    0    0  501  502  0.00000000000E+00  0.00000000000E+00  0.19827117096E+01  0.19827117096E+01  0.00000000000E+00 0. -1.
         13   -1    0    0    0    0 -0.00000000000E+00 -0.00000000000E+00 -0.10000000000E+04  0.10000000000E+04  0.00000000000E+00 0.  1.
    9000005    2    1    2  501    0  0.20886286182E+02  0.39125593272E+02 -0.53690198996E+03  0.53873939837E+03  0.30567194495E+01 0.  0.
         13    1    3    3    0    0  0.16188460740E+02  0.28415755390E+02 -0.40729077571E+03  0.40860163656E+03  0.00000000000E+00 0.  1.
          3    1    3    3  501    0  0.46978254420E+01  0.10709837883E+02 -0.12961121425E+03  0.13013776181E+03  0.00000000000E+00 0.  1.
         -3    1    1    2    0  502 -0.20886286182E+02 -0.39125593272E+02 -0.46111529833E+03  0.46324331334E+03  0.00000000000E+00 0. -1.
<mgrwt>
<rscale>  1 0.30000000E+03</rscale>
<asrwt>0</asrwt>
<pdfrwt beam="1">  1       21 0.72098760E-02 0.30000000E+03</pdfrwt>
<pdfrwt beam="2">0</pdfrwt>
<totfact> 0.15325720E+04</totfact>
</mgrwt>
</event>
<event>
 6    1  0.1295671E-001  0.3000000E+03  0.7818608E-02  0.1093470E+00
         21   -1    0    0  501  502  0.00000000000E+00  0.00000000000E+00  0.82407224083E+01  0.82407224083E+01  0.00000000000E+00 0. -1.
         13   -1    0    0    0    0 -0.00000000000E+00 -0.00000000000E+00 -0.10000000000E+04  0.10000000000E+04  0.00000000000E+00 0.  1.
    9000005    2    1    2  501    0  0.70089271897E+02 -0.17724382155E+02 -0.80060511365E+03  0.80387200134E+03  0.38712765027E+01 0.  0.
         13    1    3    3    0    0  0.50214884274E+02 -0.11677536423E+02 -0.58637618684E+03  0.58863820123E+03  0.00000000000E+00 0.  1.
          3    1    3    3  501    0  0.19874387624E+02 -0.60468457318E+01 -0.21422892682E+03  0.21523380011E+03  0.00000000000E+00 0.  1.
         -3    1    1    2    0  502 -0.70089271897E+02  0.17724382155E+02 -0.19115416394E+03  0.20436872106E+03  0.00000000000E+00 0. -1.
<mgrwt>
<rscale>  1 0.30000000E+03</rscale>
<asrwt>0</asrwt>
<pdfrwt beam="1">  1       21 0.29966326E-01 0.30000000E+03</pdfrwt>
<pdfrwt beam="2">0</pdfrwt>
<totfact> 0.10897248E+03</totfact>
</mgrwt>
</event>
<event>
 6    1  0.1295671E-001  0.3000000E+03  0.7818608E-02  0.1093470E+00
         21   -1    0    0  501  502  0.00000000000E+00  0.00000000000E+00  0.11338375786E+01  0.11338375786E+01  0.00000000000E+00 0. -1.
         13   -1    0    0    0    0 -0.00000000000E+00 -0.00000000000E+00 -0.10000000000E+04  0.10000000000E+04  0.00000000000E+00 0.  1.
    9000005    2    1    2  501    0 -0.30665856159E+02 -0.12388630644E+02 -0.58703245269E+03  0.58797421059E+03  0.35635520266E+01 0.  0.
         13    1    3    3    0    0 -0.24548323783E+02 -0.10339007537E+02 -0.44661993554E+03  0.44741354706E+03  0.00000000000E+00 0.  1.
          1    1    3    3  501    0 -0.61175323760E+01 -0.20496231065E+01 -0.14041251715E+03  0.14056066352E+03  0.00000000000E+00 0.  1.
         -3    1    1    2    0  502  0.30665856159E+02  0.12388630644E+02 -0.41183370974E+03  0.41315962699E+03  0.00000000000E+00 0. -1.
<mgrwt>
<rscale>  1 0.30000000E+03</rscale>
<asrwt>0</asrwt>
<pdfrwt beam="1">  1       21 0.41230544E-02 0.30000000E+03</pdfrwt>
<pdfrwt beam="2">0</pdfrwt>
<totfact> 0.39954009E+04</totfact>
</mgrwt>
</event>
<event>
 6    1  0.1295671E-001  0.3000000E+03  0.7818608E-02  0.1093470E+00
         21   -1    0    0  501  502  0.00000000000E+00  0.00000000000E+00  0.57201336104E+01  0.57201336104E+01  0.00000000000E+00 0. -1.
         13   -1    0    0    0    0 -0.00000000000E+00 -0.00000000000E+00 -0.10000000000E+04  0.10000000000E+04  0.00000000000E+00 0.  1.
    9000005    2    1    2  501    0  0.40915023897E+02 -0.20779633537E+02 -0.89677564065E+03  0.89795693772E+03  0.37788879586E+01 0.  0.
         13    1    3    3    0    0  0.28584197800E+02 -0.12691911086E+02 -0.59605431097E+03  0.59687426029E+03  0.00000000000E+00 0.  1.
          3    1    3    3  501    0  0.12330826097E+02 -0.80877224510E+01 -0.30072132968E+03  0.30108267744E+03  0.00000000000E+00 0.  1.
         -3    1    1    2    0  502 -0.40915023897E+02  0.20779633537E+02 -0.97504225740E+02  0.10776319589E+03  0.00000000000E+00 0. -1.
<mgrwt>
<rscale>  1 0.30000000E+03</rscale>
<asrwt>0</asrwt>
<pdfrwt beam="1">  1       21 0.20800530E-01 0.30000000E+03</pdfrwt>
<pdfrwt beam="2">0</pdfrwt>
<totfact> 0.22257555E+03</totfact>
</mgrwt>
</event>
<event>
 6    1  0.1295671E-001  0.3000000E+03  0.7818608E-02  0.1093470E+00
         21   -1    0    0  501  502  0.00000000000E+00  0.00000000000E+00  0.38771166815E+01  0.38771166815E+01  0.00000000000E+00 0. -1.
         13   -1    0    0    0    0 -0.00000000000E+00 -0.00000000000E+00 -0.10000000000E+04  0.10000000000E+04  0.00000000000E+00 0.  1.
    9000005    2    1    2  501    0  0.22970158429E+02  0.36582205758E+02 -0.85942786924E+03  0.86051947708E+03  0.34091146345E+01 0.  0.
         13    1    3    3    0    0  0.81245595552E+01  0.14292496669E+02 -0.35702384682E+03  0.35740217001E+03  0.00000000000E+00 0.  1.
          1    1    3    3  501    0  0.14845598874E+02  0.22289709089E+02 -0.50240402241E+03  0.50311730707E+03  0.00000000000E+00 0.  1.
         -3    1    1    2    0  502 -0.22970158429E+02 -0.36582205758E+02 -0.13669501408E+03  0.14335763960E+03  0.00000000000E+00 0. -1.
<mgrwt>
<rscale>  1 0.30000000E+03</rscale>
<asrwt>0</asrwt>
<pdfrwt beam="1">  1       21 0.14098636E-01 0.30000000E+03</pdfrwt>
<pdfrwt beam="2">0</pdfrwt>
<totfact> 0.46167180E+03</totfact>
</mgrwt>
</event>
<event>
 6    1  0.1295671E-001  0.3000000E+03  0.7818608E-02  0.1093470E+00
         21   -1    0    0  501  502  0.00000000000E+00  0.00000000000E+00  0.14698660639E+01  0.14698660639E+01  0.00000000000E+00 0. -1.
         13   -1    0    0    0    0 -0.00000000000E+00 -0.00000000000E+00 -0.10000000000E+04  0.10000000000E+04  0.00000000000E+00 0.  1.
    9000005    2    1    2  501    0 -0.33612756510E+02 -0.59881017627E+01 -0.72603461179E+03  0.72684378509E+03  0.31552559074E+01 0.  0.
         13    1    3    3    0    0 -0.32819711427E+02 -0.57192464301E+01 -0.69514341113E+03  0.69594123695E+03  0.00000000000E+00 0.  1.
          1    1    3    3  501    0 -0.79304508356E+00 -0.26885533261E+00 -0.30891200659E+02  0.30902548145E+02  0.00000000000E+00 0.  1.
         -1    1    1    2    0  502  0.33612756510E+02  0.59881017627E+01 -0.27249552214E+03  0.27462608097E+03  0.00000000000E+00 0. -1.
<mgrwt>
<rscale>  1 0.30000000E+03</rscale>
<asrwt>0</asrwt>
<pdfrwt beam="1">  1       21 0.53449788E-02 0.30000000E+03</pdfrwt>
<pdfrwt beam="2">0</pdfrwt>
<totfact> 0.25702572E+04</totfact>
</mgrwt>
</event>
<event>
 6    1  0.1295671E-001  0.3000000E+03  0.7818608E-02  0.1093470E+00
         21   -1    0    0  501  502  0.00000000000E+00  0.00000000000E+00  0.13200565621E+01  0.13200565621E+01  0.00000000000E+00 0. -1.
         13   -1    0    0    0    0 -0.00000000000E+00 -0.00000000000E+00 -0.10000000000E+04  0.10000000000E+04  0.00000000000E+00 0.  1.
    9000005    2    1    2  501    0  0.35863177576E+02  0.36629751436E+01 -0.55697557819E+03  0.55814703034E+03  0.25938163742E+01 0.  0.
         13    1    3    3    0    0  0.32875176977E+02  0.40587456931E+01 -0.51278832974E+03  0.51385710251E+03  0.00000000000E+00 0.  1.
          3    1    3    3  501    0  0.29880005985E+01 -0.39577054944E+00 -0.44187248452E+02  0.44289927836E+02  0.00000000000E+00 0.  1.
         -1    1    1    2    0  502 -0.35863177576E+02 -0.36629751436E+01 -0.44170436525E+03  0.44317302622E+03  0.00000000000E+00 0. -1.
<mgrwt>
<rscale>  1 0.30000000E+03</rscale>
<asrwt>0</asrwt>
<pdfrwt beam="1">  1       21 0.48002158E-02 0.30000000E+03</pdfrwt>
<pdfrwt beam="2">0</pdfrwt>
<totfact> 0.30876180E+04</totfact>
</mgrwt>
</event>
<event>
 6    1  0.1295671E-001  0.3000000E+03  0.7818608E-02  0.1093470E+00
         21   -1    0    0  501  502  0.00000000000E+00  0.00000000000E+00  0.12907577599E+01  0.12907577599E+01  0.00000000000E+00 0. -1.
         13   -1    0    0    0    0 -0.00000000000E+00 -0.00000000000E+00 -0.10000000000E+04  0.10000000000E+04  0.00000000000E+00 0.  1.
    9000005    2    1    2  501    0 -0.43075634394E+01 -0.34691966139E+02 -0.61004775507E+03  0.61106026276E+03  0.37806934298E+01 0.  0.
         13    1    3    3    0    0 -0.33764508837E+01 -0.18971159619E+02 -0.36297994169E+03  0.36349104994E+03  0.00000000000E+00 0.  1.
          1    1    3    3  501    0 -0.93111255571E+00 -0.15720806520E+02 -0.24706781338E+03  0.24756921282E+03  0.00000000000E+00 0.  1.
         -3    1    1    2    0  502  0.43075634394E+01  0.34691966139E+02 -0.38866148717E+03  0.39023049500E+03  0.00000000000E+00 0. -1.
<mgrwt>
<rscale>  1 0.30000000E+03</rscale>
<asrwt>0</asrwt>
<pdfrwt beam="1">  1       21 0.46936745E-02 0.30000000E+03</pdfrwt>
<pdfrwt beam="2">0</pdfrwt>
<totfact> 0.32077699E+04</totfact>
</mgrwt>
</event>
<event>
 6    1  0.1295671E-001  0.3000000E+03  0.7818608E-02  0.1093470E+00
         21   -1    0    0  501  502  0.00000000000E+00  0.00000000000E+00  0.16634484288E+01  0.16634484288E+01  0.00000000000E+00 0. -1.
         13   -1    0    0    0    0 -0.00000000000E+00 -0.00000000000E+00 -0.10000000000E+04  0.10000000000E+04  0.00000000000E+00 0.  1.
    9000005    2    1    2  501    0  0.48813851414E+01 -0.38123874234E+02 -0.66522226759E+03  0.66633915181E+03  0.31531310980E+01 0.  0.
         13    1    3    3    0    0  0.42571984207E+01 -0.22223363798E+02 -0.40206631819E+03  0.40270252775E+03  0.00000000000E+00 0.  1.
          3    1    3    3  501    0  0.62418672070E+00 -0.15900510436E+02 -0.26315594940E+03  0.26363662406E+03  0.00000000000E+00 0.  1.
         -3    1    1    2    0  502 -0.48813851414E+01  0.38123874234E+02 -0.33311428398E+03  0.33532429661E+03  0.00000000000E+00 0. -1.
<mgrwt>
<rscale>  1 0.30000000E+03</rscale>
<asrwt>0</asrwt>
<pdfrwt beam="1">  1       21 0.60489161E-02 0.30000000E+03</pdfrwt>
<pdfrwt beam="2">0</pdfrwt>
<totfact> 0.20778598E+04</totfact>
</mgrwt>
</event>
<event>
 6    1  0.1295671E-001  0.3000000E+03  0.7818608E-02  0.1093470E+00
         21   -1    0    0  501  502  0.00000000000E+00  0.00000000000E+00  0.28807151131E+01  0.28807151131E+01  0.00000000000E+00 0. -1.
         13   -1    0    0    0    0 -0.00000000000E+00 -0.00000000000E+00 -0.10000000000E+04  0.10000000000E+04  0.00000000000E+00 0.  1.
    9000005    2    1    2  501    0 -0.33546985363E+02  0.20135572356E+02 -0.84158659577E+03  0.84250222876E+03  0.33415242579E+01 0.  0.
         13    1    3    3    0    0 -0.96933668343E+01  0.51146945876E+01 -0.26622414672E+03  0.26644965333E+03  0.00000000000E+00 0.  1.
          1    1    3    3  501    0 -0.23853618529E+02  0.15020877768E+02 -0.57536244905E+03  0.57605257543E+03  0.00000000000E+00 0.  1.
         -1    1    1    2    0  502  0.33546985363E+02 -0.20135572356E+02 -0.15553268912E+03  0.16037848635E+03  0.00000000000E+00 0. -1.
<mgrwt>
<rscale>  1 0.30000000E+03</rscale>
<asrwt>0</asrwt>
<pdfrwt beam="1">  1       21 0.10475350E-01 0.30000000E+03</pdfrwt>
<pdfrwt beam="2">0</pdfrwt>
<totfact> 0.79171527E+03</totfact>
</mgrwt>
</event>
<event>
 6    1  0.1295671E-001  0.3000000E+03  0.7818608E-02  0.1093470E+00
         21   -1    0    0  501  502  0.00000000000E+00  0.00000000000E+00  0.28660920210E+01  0.28660920210E+01  0.00000000000E+00 0. -1.
         13   -1    0    0    0    0 -0.00000000000E+00 -0.00000000000E+00 -0.10000000000E+04  0.10000000000E+04  0.00000000000E+00 0.  1.
    9000005    2    1    2  501    0 -0.89344691055E+01 -0.45169221897E+02 -0.75357021747E+03  0.75498839097E+03  0.43948257934E+01 0.  0.
         13    1    3    3    0    0 -0.14461708248E+01 -0.24318078974E+01 -0.39504594713E+02  0.39605783708E+02  0.00000000000E+00 0.  1.
          3    1    3    3  501    0 -0.74882982808E+01 -0.42737414000E+02 -0.71406562275E+03  0.71538260726E+03  0.00000000000E+00 0.  1.
         -1    1    1    2    0  502  0.89344691055E+01  0.45169221897E+02 -0.24356369051E+03  0.24787770106E+03  0.00000000000E+00 0. -1.
<mgrwt>
<rscale>  1 0.30000000E+03</rscale>
<asrwt>0</asrwt>
<pdfrwt beam="1">  1       21 0.10422175E-01 0.30000000E+03</pdfrwt>
<pdfrwt beam="2">0</pdfrwt>
<totfact> 0.79896826E+03</totfact>
</mgrwt>
</event>
<event>
 6    1  0.1295671E-001  0.3000000E+03  0.7818608E-02  0.1093470E+00
         21   -1    0    0  501  502  0.00000000000E+00  0.00000000000E+00  0.34721982279E+01  0.34721982279E+01  0.00000000000E+00 0. -1.
         13   -1    0    0    0    0 -0.00000000000E+00 -0.00000000000E+00 -0.10000000000E+04  0.10000000000E+04  0.00000000000E+00 0.  1.
    9000005    2    1    2  501    0 -0.83825574371E+01 -0.42202024013E+02 -0.84090300808E+03  0.84200903056E+03  0.31718221672E+01 0.  0.
         13    1    3    3    0    0 -0.51198104686E+01 -0.19332355482E+02 -0.37146399113E+03  0.37200194775E+03  0.00000000000E+00 0.  1.
          1    1    3    3  501    0 -0.32627469686E+01 -0.22869668531E+02 -0.46943901695E+03  0.47000708281E+03  0.00000000000E+00 0.  1.
         -3    1    1    2    0  502  0.83825574371E+01  0.42202024013E+02 -0.15562479370E+03  0.16146316767E+03  0.00000000000E+00 0. -1.
<mgrwt>
<rscale>  1 0.30000000E+03</rscale>
<asrwt>0</asrwt>
<pdfrwt beam="1">  1       21 0.12626202E-01 0.30000000E+03</pdfrwt>
<pdfrwt beam="2">0</pdfrwt>
<totfact> 0.56493453E+03</totfact>
</mgrwt>
</event>
<event>
 6    1  0.1295671E-001  0.3000000E+03  0.7818608E-02  0.1093470E+00
         21   -1    0    0  501  502  0.00000000000E+00  0.00000000000E+00  0.95132148953E+00  0.95132148953E+00  0.00000000000E+00 0. -1.
         13   -1    0    0    0    0 -0.00000000000E+00 -0.00000000000E+00 -0.10000000000E+04  0.10000000000E+04  0.00000000000E+00 0.  1.
    9000005    2    1    2  501    0 -0.16797926824E+02  0.25136512764E+02 -0.59158199048E+03  0.59236459082E+03  0.35415229896E+01 0.  0.
         13    1    3    3    0    0 -0.32842318375E+01  0.34502038850E+01 -0.11408984570E+03  0.11418924195E+03  0.00000000000E+00 0.  1.
          3    1    3    3  501    0 -0.13513694987E+02  0.21686308879E+02 -0.47749214478E+03  0.47817534887E+03  0.00000000000E+00 0.  1.
         -1    1    1    2    0  502  0.16797926824E+02 -0.25136512764E+02 -0.40746668803E+03  0.40858673067E+03  0.00000000000E+00 0. -1.
<mgrwt>
<rscale>  1 0.30000000E+03</rscale>
<asrwt>0</asrwt>
<pdfrwt beam="1">  1       21 0.34593582E-02 0.30000000E+03</pdfrwt>
<pdfrwt beam="2">0</pdfrwt>
<totfact> 0.53655554E+04</totfact>
</mgrwt>
</event>
<event>
 6    1  0.1295671E-001  0.3000000E+03  0.7818608E-02  0.1093470E+00
         21   -1    0    0  501  502  0.00000000000E+00  0.00000000000E+00  0.13488543465E+02  0.13488543465E+02  0.00000000000E+00 0. -1.
         13   -1    0    0    0    0 -0.00000000000E+00 -0.00000000000E+00 -0.10000000000E+04  0.10000000000E+04  0.00000000000E+00 0.  1.
    9000005    2    1    2  501    0 -0.68796157333E+02 -0.15481400454E+02 -0.89587407334E+03  0.89865074369E+03  0.31966916250E+01 0.  0.
         13    1    3    3    0    0 -0.54812395502E+02 -0.12123820657E+02 -0.72883934636E+03  0.73099807013E+03  0.00000000000E+00 0.  1.
          3    1    3    3  501    0 -0.13983761831E+02 -0.33575797970E+01 -0.16703472697E+03  0.16765267356E+03  0.00000000000E+00 0.  1.
         -3    1    1    2    0  502  0.68796157333E+02  0.15481400454E+02 -0.90637383198E+02  0.11483779977E+03  0.00000000000E+00 0. -1.
<mgrwt>
<rscale>  1 0.30000000E+03</rscale>
<asrwt>0</asrwt>
<pdfrwt beam="1">  1       21 0.49049352E-01 0.30000000E+03</pdfrwt>
<pdfrwt beam="2">0</pdfrwt>
<totfact> 0.39165909E+02</totfact>
</mgrwt>
</event>
<event>
 6    1  0.1295671E-001  0.3000000E+03  0.7818608E-02  0.1093470E+00
         21   -1    0    0  501  502  0.00000000000E+00  0.00000000000E+00  0.16761066287E+01  0.16761066287E+01  0.00000000000E+00 0. -1.
         13   -1    0    0    0    0 -0.00000000000E+00 -0.00000000000E+00 -0.10000000000E+04  0.10000000000E+04  0.00000000000E+00 0.  1.
    9000005    2    1    2  501    0 -0.16912080870E+02  0.37136171844E+02 -0.48784875263E+03  0.48957261802E+03  0.44529906558E+01 0.  0.
         13    1    3    3    0    0 -0.89118900554E+01  0.17893414810E+02 -0.26412649331E+03  0.26488186149E+03  0.00000000000E+00 0.  1.
          3    1    3    3  501    0 -0.80001908147E+01  0.19242757035E+02 -0.22372225932E+03  0.22469075653E+03  0.00000000000E+00 0.  1.
         -1    1    1    2    0  502  0.16912080870E+02 -0.37136171844E+02 -0.51047514074E+03  0.51210348861E+03  0.00000000000E+00 0. -1.
<mgrwt>
<rscale>  1 0.30000000E+03</rscale>
<asrwt>0</asrwt>
<pdfrwt beam="1">  1       21 0.60949460E-02 0.30000000E+03</pdfrwt>
<pdfrwt beam="2">0</pdfrwt>
<totfact> 0.20508573E+04</totfact>
</mgrwt>
</event>
<event>
 6    1  0.1295671E-001  0.3000000E+03  0.7818608E-02  0.1093470E+00
         21   -1    0    0  501  502  0.00000000000E+00  0.00000000000E+00  0.54409412335E+01  0.54409412335E+01  0.00000000000E+00 0. -1.
         13   -1    0    0    0    0 -0.00000000000E+00 -0.00000000000E+00 -0.10000000000E+04  0.10000000000E+04  0.00000000000E+00 0.  1.
    9000005    2    1    2  501    0 -0.51335951054E+02  0.49896076082E+02 -0.37773115931E+03  0.38447262012E+03  0.36563135764E+01 0.  0.
         13    1    3    3    0    0 -0.30862442373E+02  0.32351535215E+02 -0.23849031622E+03  0.24264530309E+03  0.00000000000E+00 0.  1.
          1    1    3    3  501    0 -0.20473508681E+02  0.17544540866E+02 -0.13924084308E+03  0.14182731703E+03  0.00000000000E+00 0.  1.
         -3    1    1    2    0  502  0.51335951054E+02 -0.49896076082E+02 -0.61682789946E+03  0.62096832112E+03  0.00000000000E+00 0. -1.
<mgrwt>
<rscale>  1 0.30000000E+03</rscale>
<asrwt>0</asrwt>
<pdfrwt beam="1">  1       21 0.19785283E-01 0.30000000E+03</pdfrwt>
<pdfrwt beam="2">0</pdfrwt>
<totfact> 0.24491318E+03</totfact>
</mgrwt>
</event>
<event>
 6    1  0.1295671E-001  0.3000000E+03  0.7818608E-02  0.1093470E+00
         21   -1    0    0  501  502  0.00000000000E+00  0.00000000000E+00  0.12890264589E+01  0.12890264589E+01  0.00000000000E+00 0. -1.
         13   -1    0    0    0    0 -0.00000000000E+00 -0.00000000000E+00 -0.10000000000E+04  0.10000000000E+04  0.00000000000E+00 0.  1.
    9000005    2    1    2  501    0  0.33519691278E+02  0.11840212014E+02 -0.56243992010E+03  0.56357200326E+03  0.33134298108E+01 0.  0.
         13    1    3    3    0    0  0.21324340451E+02  0.58310511361E+01 -0.35011476285E+03  0.35081202348E+03  0.00000000000E+00 0.  1.
          3    1    3    3  501    0  0.12195350826E+02  0.60091608780E+01 -0.21232515725E+03  0.21275997978E+03  0.00000000000E+00 0.  1.
         -3    1    1    2    0  502 -0.33519691278E+02 -0.11840212014E+02 -0.43627105345E+03  0.43771702320E+03  0.00000000000E+00 0. -1.
<mgrwt>
<rscale>  1 0.30000000E+03</rscale>
<asrwt>0</asrwt>
<pdfrwt beam="1">  1       21 0.46873788E-02 0.30000000E+03</pdfrwt>
<pdfrwt beam="2">0</pdfrwt>
<totfact> 0.32150980E+04</totfact>
</mgrwt>
</event>
<event>
 6    1  0.1295671E-001  0.3000000E+03  0.7818608E-02  0.1093470E+00
         21   -1    0    0  501  502  0.00000000000E+00  0.00000000000E+00  0.23046875469E+01  0.23046875469E+01  0.00000000000E+00 0. -1.
         13   -1    0    0    0    0 -0.00000000000E+00 -0.00000000000E+00 -0.10000000000E+04  0.10000000000E+04  0.00000000000E+00 0.  1.
    9000005    2    1    2  501    0  0.72742458348E+00  0.41554892998E+02 -0.74887456915E+03  0.75003677327E+03  0.38344035229E+01 0.  0.
         13    1    3    3    0    0  0.15321405007E+01  0.36091563912E+02 -0.66523992242E+03  0.66622001083E+03  0.00000000000E+00 0.  1.
          1    1    3    3  501    0 -0.80471591725E+00  0.54633290863E+01 -0.83634646728E+02  0.83816762439E+02  0.00000000000E+00 0.  1.
         -1    1    1    2    0  502 -0.72742458348E+00 -0.41554892998E+02 -0.24882074330E+03  0.25226791428E+03  0.00000000000E+00 0. -1.
<mgrwt>
<rscale>  1 0.30000000E+03</rscale>
<asrwt>0</asrwt>
<pdfrwt beam="1">  1       21 0.83806997E-02 0.30000000E+03</pdfrwt>
<pdfrwt beam="2">0</pdfrwt>
<totfact> 0.11770878E+04</totfact>
</mgrwt>
</event>
<event>
 6    1  0.1295671E-001  0.3000000E+03  0.7818608E-02  0.1093470E+00
         21   -1    0    0  501  502  0.00000000000E+00  0.00000000000E+00  0.17874926060E+01  0.17874926060E+01  0.00000000000E+00 0. -1.
         13   -1    0    0    0    0 -0.00000000000E+00 -0.00000000000E+00 -0.10000000000E+04  0.10000000000E+04  0.00000000000E+00 0.  1.
    9000005    2    1    2  501    0 -0.36095584304E+02 -0.21587699066E+02 -0.51301076055E+03  0.51476628660E+03  0.59472199062E+01 0.  0.
         13    1    3    3    0    0 -0.34632156456E+02 -0.20513841323E+02 -0.47118635033E+03  0.47290250653E+03  0.00000000000E+00 0.  1.
          3    1    3    3  501    0 -0.14634278478E+01 -0.10738577429E+01 -0.41824410220E+02  0.41863780070E+02  0.00000000000E+00 0.  1.
         -3    1    1    2    0  502  0.36095584304E+02  0.21587699066E+02 -0.48520174684E+03  0.48702120600E+03  0.00000000000E+00 0. -1.
<mgrwt>
<rscale>  1 0.30000000E+03</rscale>
<asrwt>0</asrwt>
<pdfrwt beam="1">  1       21 0.64999868E-02 0.30000000E+03</pdfrwt>
<pdfrwt beam="2">0</pdfrwt>
<totfact> 0.18350110E+04</totfact>
</mgrwt>
</event>
<event>
 6    1  0.1295671E-001  0.3000000E+03  0.7818608E-02  0.1093470E+00
         21   -1    0    0  501  502  0.00000000000E+00  0.00000000000E+00  0.15420459523E+01  0.15420459523E+01  0.00000000000E+00 0. -1.
         13   -1    0    0    0    0 -0.00000000000E+00 -0.00000000000E+00 -0.10000000000E+04  0.10000000000E+04  0.00000000000E+00 0.  1.
    9000005    2    1    2  501    0  0.16577935520E+02  0.35496483063E+02 -0.51501786146E+03  0.51651714827E+03  0.34261600258E+01 0.  0.
         13    1    3    3    0    0  0.12395785605E+02  0.26334781899E+02 -0.40133358156E+03  0.40238764882E+03  0.00000000000E+00 0.  1.
          3    1    3    3  501    0  0.41821499151E+01  0.91617011642E+01 -0.11368427990E+03  0.11412949944E+03  0.00000000000E+00 0.  1.
         -3    1    1    2    0  502 -0.16577935520E+02 -0.35496483063E+02 -0.48344009259E+03  0.48502489769E+03  0.00000000000E+00 0. -1.
<mgrwt>
<rscale>  1 0.30000000E+03</rscale>
<asrwt>0</asrwt>
<pdfrwt beam="1">  1       21 0.56074517E-02 0.30000000E+03</pdfrwt>
<pdfrwt beam="2">0</pdfrwt>
<totfact> 0.23674940E+04</totfact>
</mgrwt>
</event>
<event>
 6    1  0.1295671E-001  0.3000000E+03  0.7818608E-02  0.1093470E+00
         21   -1    0    0  501  502  0.00000000000E+00  0.00000000000E+00  0.23466218312E+01  0.23466218312E+01  0.00000000000E+00 0. -1.
         13   -1    0    0    0    0 -0.00000000000E+00 -0.00000000000E+00 -0.10000000000E+04  0.10000000000E+04  0.00000000000E+00 0.  1.
    9000005    2    1    2  501    0  0.17976322133E+00 -0.44124272754E+02 -0.70446066174E+03  0.70585218221E+03  0.39364231238E+01 0.  0.
         13    1    3    3    0    0  0.17541258522E+01 -0.21105604177E+02 -0.32059728391E+03  0.32129603473E+03  0.00000000000E+00 0.  1.
          3    1    3    3  501    0 -0.15743626308E+01 -0.23018668577E+02 -0.38386337783E+03  0.38455614747E+03  0.00000000000E+00 0.  1.
         -1    1    1    2    0  502 -0.17976322133E+00  0.44124272754E+02 -0.29319271643E+03  0.29649443963E+03  0.00000000000E+00 0. -1.
<mgrwt>
<rscale>  1 0.30000000E+03</rscale>
<asrwt>0</asrwt>
<pdfrwt beam="1">  1       21 0.85331883E-02 0.30000000E+03</pdfrwt>
<pdfrwt beam="2">0</pdfrwt>
<totfact> 0.11402625E+04</totfact>
</mgrwt>
</event>
<event>
 6    1  0.1295671E-001  0.3000000E+03  0.7818608E-02  0.1093470E+00
         21   -1    0    0  501  502  0.00000000000E+00  0.00000000000E+00  0.13344362059E+01  0.13344362059E+01  0.00000000000E+00 0. -1.
         13   -1    0    0    0    0 -0.00000000000E+00 -0.00000000000E+00 -0.10000000000E+04  0.10000000000E+04  0.00000000000E+00 0.  1.
    9000005    2    1    2  501    0 -0.29688482962E+02  0.63766215479E+01 -0.77683241897E+03  0.77743264643E+03  0.32932122778E+01 0.  0.
         13    1    3    3    0    0 -0.34784241863E+01 -0.31049945563E+00 -0.91461441469E+02  0.91528089242E+02  0.00000000000E+00 0.  1.
          3    1    3    3  501    0 -0.26210058776E+02  0.66871210035E+01 -0.68537097750E+03  0.68590455718E+03  0.00000000000E+00 0.  1.
         -3    1    1    2    0  502  0.29688482962E+02 -0.63766215479E+01 -0.22183314483E+03  0.22390178978E+03  0.00000000000E+00 0. -1.
<mgrwt>
<rscale>  1 0.30000000E+03</rscale>
<asrwt>0</asrwt>
<pdfrwt beam="1">  1       21 0.48525055E-02 0.30000000E+03</pdfrwt>
<pdfrwt beam="2">0</pdfrwt>
<totfact> 0.30312045E+04</totfact>
</mgrwt>
</event>
<event>
 6    1  0.1295671E-001  0.3000000E+03  0.7818608E-02  0.1093470E+00
         21   -1    0    0  501  502  0.00000000000E+00  0.00000000000E+00  0.25915884999E+01  0.25915884999E+01  0.00000000000E+00 0. -1.
         13   -1    0    0    0    0 -0.00000000000E+00 -0.00000000000E+00 -0.10000000000E+04  0.10000000000E+04  0.00000000000E+00 0.  1.
    9000005    2    1    2  501    0 -0.22502248187E+02 -0.34945007902E+02 -0.78647136586E+03  0.78759870030E+03  0.68555565073E+01 0.  0.
         13    1    3    3    0    0 -0.15589925824E+02 -0.18483776531E+02 -0.42662968970E+03  0.42731439001E+03  0.00000000000E+00 0.  1.
          3    1    3    3  501    0 -0.69123223627E+01 -0.16461231371E+02 -0.35984167616E+03  0.36028431029E+03  0.00000000000E+00 0.  1.
         -1    1    1    2    0  502  0.22502248187E+02  0.34945007902E+02 -0.21093704564E+03  0.21499288820E+03  0.00000000000E+00 0. -1.
<mgrwt>
<rscale>  1 0.30000000E+03</rscale>
<asrwt>0</asrwt>
<pdfrwt beam="1">  1       21 0.94239781E-02 0.30000000E+03</pdfrwt>
<pdfrwt beam="2">0</pdfrwt>
<totfact> 0.95635664E+03</totfact>
</mgrwt>
</event>
<event>
 6    1  0.1295671E-001  0.3000000E+03  0.7818608E-02  0.1093470E+00
         21   -1    0    0  501  502  0.00000000000E+00  0.00000000000E+00  0.13965517219E+01  0.13965517219E+01  0.00000000000E+00 0. -1.
         13   -1    0    0    0    0 -0.00000000000E+00 -0.00000000000E+00 -0.10000000000E+04  0.10000000000E+04  0.00000000000E+00 0.  1.
    9000005    2    1    2  501    0 -0.28456879864E+02  0.16355775792E+02 -0.72887220702E+03  0.72967565093E+03  0.97239903981E+01 0.  0.
         13    1    3    3    0    0 -0.89768089886E+01  0.10482774430E+02 -0.32017843708E+03  0.32047574515E+03  0.00000000000E+00 0.  1.
          1    1    3    3  501    0 -0.19480070875E+02  0.58730013622E+01 -0.40869376993E+03  0.40919990578E+03  0.00000000000E+00 0.  1.
         -3    1    1    2    0  502  0.28456879864E+02 -0.16355775792E+02 -0.26973124126E+03  0.27172090079E+03  0.00000000000E+00 0. -1.
<mgrwt>
<rscale>  1 0.30000000E+03</rscale>
<asrwt>0</asrwt>
<pdfrwt beam="1">  1       21 0.50783806E-02 0.30000000E+03</pdfrwt>
<pdfrwt beam="2">0</pdfrwt>
<totfact> 0.28050612E+04</totfact>
</mgrwt>
</event>
<event>
 6    1  0.1295671E-001  0.3000000E+03  0.7818608E-02  0.1093470E+00
         21   -1    0    0  501  502  0.00000000000E+00  0.00000000000E+00  0.40589203415E+01  0.40589203415E+01  0.00000000000E+00 0. -1.
         13   -1    0    0    0    0 -0.00000000000E+00 -0.00000000000E+00 -0.10000000000E+04  0.10000000000E+04  0.00000000000E+00 0.  1.
    9000005    2    1    2  501    0  0.53567336690E+02 -0.34145199406E+02 -0.52319732219E+03  0.52706624280E+03  0.52945396606E+01 0.  0.
         13    1    3    3    0    0  0.21115372888E+02 -0.10434748605E+02 -0.19453534023E+03  0.19595596839E+03  0.00000000000E+00 0.  1.
          3    1    3    3  501    0  0.32451963802E+02 -0.23710450801E+02 -0.32866198196E+03  0.33111027440E+03  0.00000000000E+00 0.  1.
         -3    1    1    2    0  502 -0.53567336690E+02  0.34145199406E+02 -0.47274375747E+03  0.47699267755E+03  0.00000000000E+00 0. -1.
<mgrwt>
<rscale>  1 0.30000000E+03</rscale>
<asrwt>0</asrwt>
<pdfrwt beam="1">  1       21 0.14759741E-01 0.30000000E+03</pdfrwt>
<pdfrwt beam="2">0</pdfrwt>
<totfact> 0.42428454E+03</totfact>
</mgrwt>
</event>
<event>
 6    1  0.1295671E-001  0.3000000E+03  0.7818608E-02  0.1093470E+00
         21   -1    0    0  501  502  0.00000000000E+00  0.00000000000E+00  0.19233212590E+01  0.19233212590E+01  0.00000000000E+00 0. -1.
         13   -1    0    0    0    0 -0.00000000000E+00 -0.00000000000E+00 -0.10000000000E+04  0.10000000000E+04  0.00000000000E+00 0.  1.
    9000005    2    1    2  501    0  0.34168365927E+02  0.10970112188E+02 -0.78642559584E+03  0.78725147522E+03  0.34419240657E+01 0.  0.
         13    1    3    3    0    0  0.11867064482E+02  0.54706872800E+01 -0.27463578010E+03  0.27494648088E+03  0.00000000000E+00 0.  1.
          3    1    3    3  501    0  0.22301301445E+02  0.54994249078E+01 -0.51178981575E+03  0.51230499434E+03  0.00000000000E+00 0.  1.
         -3    1    1    2    0  502 -0.34168365927E+02 -0.10970112188E+02 -0.21165108290E+03  0.21467184604E+03  0.00000000000E+00 0. -1.
<mgrwt>
<rscale>  1 0.30000000E+03</rscale>
<asrwt>0</asrwt>
<pdfrwt beam="1">  1       21 0.69939102E-02 0.30000000E+03</pdfrwt>
<pdfrwt beam="2">0</pdfrwt>
<totfact> 0.16159744E+04</totfact>
</mgrwt>
</event>
<event>
 6    1  0.1295671E-001  0.3000000E+03  0.7818608E-02  0.1093470E+00
         21   -1    0    0  501  502  0.00000000000E+00  0.00000000000E+00  0.52187354286E+01  0.52187354286E+01  0.00000000000E+00 0. -1.
         13   -1    0    0    0    0 -0.00000000000E+00 -0.00000000000E+00 -0.10000000000E+04  0.10000000000E+04  0.00000000000E+00 0.  1.
    9000005    2    1    2  501    0  0.13060388999E+02 -0.35163440784E+02 -0.92689743196E+03  0.92766065359E+03  0.28978466676E+01 0.  0.
         13    1    3    3    0    0  0.13021817421E+01 -0.18320688066E+01 -0.47253987218E+02  0.47307414444E+02  0.00000000000E+00 0.  1.
          3    1    3    3  501    0  0.11758207257E+02 -0.33331371978E+02 -0.87964344474E+03  0.88035323914E+03  0.00000000000E+00 0.  1.
         -3    1    1    2    0  502 -0.13060388999E+02  0.35163440784E+02 -0.67883832614E+02  0.77558081841E+02  0.00000000000E+00 0. -1.
<mgrwt>
<rscale>  1 0.30000000E+03</rscale>
<asrwt>0</asrwt>
<pdfrwt beam="1">  1       21 0.18977260E-01 0.30000000E+03</pdfrwt>
<pdfrwt beam="2">0</pdfrwt>
<totfact> 0.26510992E+03</totfact>
</mgrwt>
</event>
<event>
 6    1  0.1295671E-001  0.3000000E+03  0.7818608E-02  0.1093470E+00
         21   -1    0    0  501  502  0.00000000000E+00  0.00000000000E+00  0.13194840459E+01  0.13194840459E+01  0.00000000000E+00 0. -1.
         13   -1    0    0    0    0 -0.00000000000E+00 -0.00000000000E+00 -0.10000000000E+04  0.10000000000E+04  0.00000000000E+00 0.  1.
    9000005    2    1    2  501    0 -0.31952568907E+02  0.52592902143E+01 -0.27565312825E+03  0.27756729568E+03  0.32139888159E+01 0.  0.
         13    1    3    3    0    0 -0.52124143864E+01  0.14700004057E+01 -0.55566818124E+02  0.55830112317E+02  0.00000000000E+00 0.  1.
          1    1    3    3  501    0 -0.26740154521E+02  0.37892898086E+01 -0.22008631013E+03  0.22173718337E+03  0.00000000000E+00 0.  1.
         -3    1    1    2    0  502  0.31952568907E+02 -0.52592902143E+01 -0.72302738770E+03  0.72375218836E+03  0.00000000000E+00 0. -1.
<mgrwt>
<rscale>  1 0.30000000E+03</rscale>
<asrwt>0</asrwt>
<pdfrwt beam="1">  1       21 0.47981339E-02 0.30000000E+03</pdfrwt>
<pdfrwt beam="2">0</pdfrwt>
<totfact> 0.30898979E+04</totfact>
</mgrwt>
</event>
<event>
 6    1  0.1295671E-001  0.3000000E+03  0.7818608E-02  0.1093470E+00
         21   -1    0    0  501  502  0.00000000000E+00  0.00000000000E+00  0.71814392359E+01  0.71814392359E+01  0.00000000000E+00 0. -1.
         13   -1    0    0    0    0 -0.00000000000E+00 -0.00000000000E+00 -0.10000000000E+04  0.10000000000E+04  0.00000000000E+00 0.  1.
    9000005    2    1    2  501    0  0.43941878764E+02  0.35998767035E+02 -0.87003662533E+03  0.87189580213E+03  0.34293475486E+01 0.  0.
         13    1    3    3    0    0  0.75663393103E+01  0.79436601031E+01 -0.16867269196E+03  0.16902907513E+03  0.00000000000E+00 0.  1.
          3    1    3    3  501    0  0.36375539454E+02  0.28055106932E+02 -0.70136393337E+03  0.70286672700E+03  0.00000000000E+00 0.  1.
         -3    1    1    2    0  502 -0.43941878764E+02 -0.35998767035E+02 -0.12278193544E+03  0.13528563710E+03  0.00000000000E+00 0. -1.
<mgrwt>
<rscale>  1 0.30000000E+03</rscale>
<asrwt>0</asrwt>
<pdfrwt beam="1">  1       21 0.26114380E-01 0.30000000E+03</pdfrwt>
<pdfrwt beam="2">0</pdfrwt>
<totfact> 0.14315935E+03</totfact>
</mgrwt>
</event>
<event>
 6    1  0.1295671E-001  0.3000000E+03  0.7818608E-02  0.1093470E+00
         21   -1    0    0  501  502  0.00000000000E+00  0.00000000000E+00  0.16509755158E+01  0.16509755158E+01  0.00000000000E+00 0. -1.
         13   -1    0    0    0    0 -0.00000000000E+00 -0.00000000000E+00 -0.10000000000E+04  0.10000000000E+04  0.00000000000E+00 0.  1.
    9000005    2    1    2  501    0 -0.15905566418E+02 -0.29080545807E+02 -0.78148241524E+03  0.78226594551E+03  0.11250732449E+02 0.  0.
         13    1    3    3    0    0 -0.49953968900E+01 -0.15095435455E+02 -0.47907178369E+03  0.47933558191E+03  0.00000000000E+00 0.  1.
          1    1    3    3  501    0 -0.10910169528E+02 -0.13985110352E+02 -0.30241063155E+03  0.30293036359E+03  0.00000000000E+00 0.  1.
         -1    1    1    2    0  502  0.15905566418E+02  0.29080545807E+02 -0.21686660924E+03  0.21938503001E+03  0.00000000000E+00 0. -1.
<mgrwt>
<rscale>  1 0.30000000E+03</rscale>
<asrwt>0</asrwt>
<pdfrwt beam="1">  1       21 0.60035600E-02 0.30000000E+03</pdfrwt>
<pdfrwt beam="2">0</pdfrwt>
<totfact> 0.21050120E+04</totfact>
</mgrwt>
</event>
<event>
 6    1  0.1295671E-001  0.3000000E+03  0.7818608E-02  0.1093470E+00
         21   -1    0    0  501  502  0.00000000000E+00  0.00000000000E+00  0.16483233429E+01  0.16483233429E+01  0.00000000000E+00 0. -1.
         13   -1    0    0    0    0 -0.00000000000E+00 -0.00000000000E+00 -0.10000000000E+04  0.10000000000E+04  0.00000000000E+00 0.  1.
    9000005    2    1    2  501    0  0.33281245880E+02 -0.21678188910E+02 -0.59621781966E+03  0.59755770956E+03  0.46842903543E+01 0.  0.
         13    1    3    3    0    0  0.24567259596E+02 -0.18297110795E+02 -0.44979965820E+03  0.45084150988E+03  0.00000000000E+00 0.  1.
          1    1    3    3  501    0  0.87139862842E+01 -0.33810781151E+01 -0.14641816145E+03  0.14671619968E+03  0.00000000000E+00 0.  1.
         -1    1    1    2    0  502 -0.33281245880E+02  0.21678188910E+02 -0.40213385700E+03  0.40409061378E+03  0.00000000000E+00 0. -1.
<mgrwt>
<rscale>  1 0.30000000E+03</rscale>
<asrwt>0</asrwt>
<pdfrwt beam="1">  1       21 0.59939157E-02 0.30000000E+03</pdfrwt>
<pdfrwt beam="2">0</pdfrwt>
<totfact> 0.21108567E+04</totfact>
</mgrwt>
</event>
<event>
 6    1  0.1295671E-001  0.3000000E+03  0.7818608E-02  0.1093470E+00
         21   -1    0    0  501  502  0.00000000000E+00  0.00000000000E+00  0.28882854920E+01  0.28882854920E+01  0.00000000000E+00 0. -1.
         13   -1    0    0    0    0 -0.00000000000E+00 -0.00000000000E+00 -0.10000000000E+04  0.10000000000E+04  0.00000000000E+00 0.  1.
    9000005    2    1    2  501    0 -0.39988721632E+02 -0.81365022666E+01 -0.82463045375E+03  0.82564527197E+03  0.30707264309E+01 0.  0.
         13    1    3    3    0    0 -0.18537453324E+02 -0.29810624150E+01 -0.40589859610E+03  0.40633261526E+03  0.00000000000E+00 0.  1.
          3    1    3    3  501    0 -0.21451268309E+02 -0.51554398516E+01 -0.41873185765E+03  0.41931265671E+03  0.00000000000E+00 0.  1.
         -1    1    1    2    0  502  0.39988721632E+02  0.81365022666E+01 -0.17248126076E+03  0.17724301352E+03  0.00000000000E+00 0. -1.
<mgrwt>
<rscale>  1 0.30000000E+03</rscale>
<asrwt>0</asrwt>
<pdfrwt beam="1">  1       21 0.10502878E-01 0.30000000E+03</pdfrwt>
<pdfrwt beam="2">0</pdfrwt>
<totfact> 0.78799960E+03</totfact>
</mgrwt>
</event>
<event>
 6    1  0.1295671E-001  0.3000000E+03  0.7818608E-02  0.1093470E+00
         21   -1    0    0  501  502  0.00000000000E+00  0.00000000000E+00  0.39301705646E+01  0.39301705646E+01  0.00000000000E+00 0. -1.
         13   -1    0    0    0    0 -0.00000000000E+00 -0.00000000000E+00 -0.10000000000E+04  0.10000000000E+04  0.00000000000E+00 0.  1.
    9000005    2    1    2  501    0 -0.16434230160E+02  0.58895079781E+02 -0.38933428451E+03  0.39412140069E+03  0.34320608012E+01 0.  0.
         13    1    3    3    0    0 -0.17412857104E+01  0.56428854102E+01 -0.44541848843E+02  0.44931620603E+02  0.00000000000E+00 0.  1.
          1    1    3    3  501    0 -0.14692944449E+02  0.53252194371E+02 -0.34479243567E+03  0.34918978009E+03  0.00000000000E+00 0.  1.
         -3    1    1    2    0  502  0.16434230160E+02 -0.58895079781E+02 -0.60673554492E+03  0.60980876988E+03  0.00000000000E+00 0. -1.
<mgrwt>
<rscale>  1 0.30000000E+03</rscale>
<asrwt>0</asrwt>
<pdfrwt beam="1">  1       21 0.14291559E-01 0.30000000E+03</pdfrwt>
<pdfrwt beam="2">0</pdfrwt>
<totfact> 0.45027093E+03</totfact>
</mgrwt>
</event>
<event>
 6    1  0.1295671E-001  0.3000000E+03  0.7818608E-02  0.1093470E+00
         21   -1    0    0  501  502  0.00000000000E+00  0.00000000000E+00  0.16851457311E+01  0.16851457311E+01  0.00000000000E+00 0. -1.
         13   -1    0    0    0    0 -0.00000000000E+00 -0.00000000000E+00 -0.10000000000E+04  0.10000000000E+04  0.00000000000E+00 0.  1.
    9000005    2    1    2  501    0  0.22861235068E+02  0.33168446211E+02 -0.59488648426E+03  0.59625052508E+03  0.14062760833E+01 0.  0.
         13    1    3    3    0    0  0.33742946124E+01  0.40752516215E+01 -0.76736582326E+02  0.76918766286E+02  0.00000000000E+00 0.  1.
          3    1    3    3  501    0  0.19486940456E+02  0.29093194590E+02 -0.51814990193E+03  0.51933175880E+03  0.00000000000E+00 0.  1.
         -1    1    1    2    0  502 -0.22861235068E+02 -0.33168446211E+02 -0.40342837001E+03  0.40543462065E+03  0.00000000000E+00 0. -1.
<mgrwt>
<rscale>  1 0.30000000E+03</rscale>
<asrwt>0</asrwt>
<pdfrwt beam="1">  1       21 0.61278156E-02 0.30000000E+03</pdfrwt>
<pdfrwt beam="2">0</pdfrwt>
<totfact> 0.20319074E+04</totfact>
</mgrwt>
</event>
<event>
 6    1  0.1295671E-001  0.3000000E+03  0.7818608E-02  0.1093470E+00
         21   -1    0    0  501  502  0.00000000000E+00  0.00000000000E+00  0.14038423848E+01  0.14038423848E+01  0.00000000000E+00 0. -1.
         13   -1    0    0    0    0 -0.00000000000E+00 -0.00000000000E+00 -0.10000000000E+04  0.10000000000E+04  0.00000000000E+00 0.  1.
    9000005    2    1    2  501    0  0.36030405154E+02 -0.99280215228E+01 -0.47835952570E+03  0.47982651457E+03  0.29820373716E+01 0.  0.
         13    1    3    3    0    0  0.17304015477E+02 -0.59196064131E+01 -0.22095768507E+03  0.22171325915E+03  0.00000000000E+00 0.  1.
          1    1    3    3  501    0  0.18726389676E+02 -0.40084151098E+01 -0.25740184062E+03  0.25811325541E+03  0.00000000000E+00 0.  1.
         -3    1    1    2    0  502 -0.36030405154E+02  0.99280215228E+01 -0.52023663192E+03  0.52157732782E+03  0.00000000000E+00 0. -1.
<mgrwt>
<rscale>  1 0.30000000E+03</rscale>
<asrwt>0</asrwt>
<pdfrwt beam="1">  1       21 0.51048922E-02 0.30000000E+03</pdfrwt>
<pdfrwt beam="2">0</pdfrwt>
<totfact> 0.27802497E+04</totfact>
</mgrwt>
</event>
<event>
 6    1  0.1295671E-001  0.3000000E+03  0.7818608E-02  0.1093470E+00
         21   -1    0    0  501  502  0.00000000000E+00  0.00000000000E+00  0.23066682825E+01  0.23066682825E+01  0.00000000000E+00 0. -1.
         13   -1    0    0    0    0 -0.00000000000E+00 -0.00000000000E+00 -0.10000000000E+04  0.10000000000E+04  0.00000000000E+00 0.  1.
    9000005    2    1    2  501    0 -0.30296607156E+02  0.31909034543E+02 -0.69738423938E+03  0.69879122908E+03  0.53229333959E+01 0.  0.
         13    1    3    3    0    0 -0.20678206544E+02  0.25178904882E+02 -0.51446046798E+03  0.51549116247E+03  0.00000000000E+00 0.  1.
          3    1    3    3  501    0 -0.96184006118E+01  0.67301296616E+01 -0.18292377140E+03  0.18330006661E+03  0.00000000000E+00 0.  1.
         -3    1    1    2    0  502  0.30296607156E+02 -0.31909034543E+02 -0.30030909234E+03  0.30351543920E+03  0.00000000000E+00 0. -1.
<mgrwt>
<rscale>  1 0.30000000E+03</rscale>
<asrwt>0</asrwt>
<pdfrwt beam="1">  1       21 0.83879024E-02 0.30000000E+03</pdfrwt>
<pdfrwt beam="2">0</pdfrwt>
<totfact> 0.11753077E+04</totfact>
</mgrwt>
</event>
<event>
 6    1  0.1295671E-001  0.3000000E+03  0.7818608E-02  0.1093470E+00
         21   -1    0    0  501  502  0.00000000000E+00  0.00000000000E+00  0.93496143362E+00  0.93496143362E+00  0.00000000000E+00 0. -1.
         13   -1    0    0    0    0 -0.00000000000E+00 -0.00000000000E+00 -0.10000000000E+04  0.10000000000E+04  0.00000000000E+00 0.  1.
    9000005    2    1    2  501    0  0.26917591522E+02 -0.13694153791E+02 -0.56682422094E+03  0.56764036073E+03  0.37141752509E+01 0.  0.
         13    1    3    3    0    0  0.15074609609E+02 -0.56233974835E+01 -0.29352044191E+03  0.29396107952E+03  0.00000000000E+00 0.  1.
          3    1    3    3  501    0  0.11842981912E+02 -0.80707563075E+01 -0.27330377904E+03  0.27367928121E+03  0.00000000000E+00 0.  1.
         -1    1    1    2    0  502 -0.26917591522E+02  0.13694153791E+02 -0.43224081762E+03  0.43329460071E+03  0.00000000000E+00 0. -1.
<mgrwt>
<rscale>  1 0.30000000E+03</rscale>
<asrwt>0</asrwt>
<pdfrwt beam="1">  1       21 0.33998669E-02 0.30000000E+03</pdfrwt>
<pdfrwt beam="2">0</pdfrwt>
<totfact> 0.55234633E+04</totfact>
</mgrwt>
</event>
<event>
 6    1  0.1295671E-001  0.3000000E+03  0.7818608E-02  0.1093470E+00
         21   -1    0    0  501  502  0.00000000000E+00  0.00000000000E+00  0.18044295595E+01  0.18044295595E+01  0.00000000000E+00 0. -1.
         13   -1    0    0    0    0 -0.00000000000E+00 -0.00000000000E+00 -0.10000000000E+04  0.10000000000E+04  0.00000000000E+00 0.  1.
    9000005    2    1    2  501    0  0.34656338388E+02  0.86603595495E+01 -0.76967971400E+03  0.77051335696E+03  0.28120273275E+01 0.  0.
         13    1    3    3    0    0  0.14428673184E+02  0.22335689007E+01 -0.32167988310E+03  0.32201105979E+03  0.00000000000E+00 0.  1.
          3    1    3    3  501    0  0.20227665204E+02  0.64267906488E+01 -0.44799983090E+03  0.44850229717E+03  0.00000000000E+00 0.  1.
         -1    1    1    2    0  502 -0.34656338388E+02 -0.86603595495E+01 -0.22851585644E+03  0.23129107260E+03  0.00000000000E+00 0. -1.
<mgrwt>
<rscale>  1 0.30000000E+03</rscale>
<asrwt>0</asrwt>
<pdfrwt beam="1">  1       21 0.65615759E-02 0.30000000E+03</pdfrwt>
<pdfrwt beam="2">0</pdfrwt>
<totfact> 0.18052836E+04</totfact>
</mgrwt>
</event>
<event>
 6    1  0.1295671E-001  0.3000000E+03  0.7818608E-02  0.1093470E+00
         21   -1    0    0  501  502  0.00000000000E+00  0.00000000000E+00  0.11668008532E+01  0.11668008532E+01  0.00000000000E+00 0. -1.
         13   -1    0    0    0    0 -0.00000000000E+00 -0.00000000000E+00 -0.10000000000E+04  0.10000000000E+04  0.00000000000E+00 0.  1.
    9000005    2    1    2  501    0 -0.24526222420E+02  0.23255323654E+02 -0.52159295350E+03  0.52273122762E+03  0.68103986499E+01 0.  0.
         13    1    3    3    0    0 -0.39526531869E+00 -0.28551113235E+00 -0.20378804104E+02  0.20384636567E+02  0.00000000000E+00 0.  1.
          3    1    3    3  501    0 -0.24130957101E+02  0.23540834787E+02 -0.50121414939E+03  0.50234659105E+03  0.00000000000E+00 0.  1.
         -1    1    1    2    0  502  0.24526222420E+02 -0.23255323654E+02 -0.47724024565E+03  0.47843557323E+03  0.00000000000E+00 0. -1.
<mgrwt>
<rscale>  1 0.30000000E+03</rscale>
<asrwt>0</asrwt>
<pdfrwt beam="1">  1       21 0.42429211E-02 0.30000000E+03</pdfrwt>
<pdfrwt beam="2">0</pdfrwt>
<totfact> 0.38067025E+04</totfact>
</mgrwt>
</event>
<event>
 6    1  0.1295671E-001  0.3000000E+03  0.7818608E-02  0.1093470E+00
         21   -1    0    0  501  502  0.00000000000E+00  0.00000000000E+00  0.43467120810E+01  0.43467120810E+01  0.00000000000E+00 0. -1.
         13   -1    0    0    0    0 -0.00000000000E+00 -0.00000000000E+00 -0.10000000000E+04  0.10000000000E+04  0.00000000000E+00 0.  1.
    9000005    2    1    2  501    0  0.39934431660E+02 -0.19153456342E+01 -0.89685158304E+03  0.89776245307E+03  0.60193661719E+01 0.  0.
         13    1    3    3    0    0  0.27351885371E+02 -0.29430499703E+01 -0.56183939938E+03  0.56251248686E+03  0.00000000000E+00 0.  1.
          3    1    3    3  501    0  0.12582546289E+02  0.10277043360E+01 -0.33501218366E+03  0.33524996622E+03  0.00000000000E+00 0.  1.
         -1    1    1    2    0  502 -0.39934431660E+02  0.19153456342E+01 -0.98801704882E+02  0.10658425901E+03  0.00000000000E+00 0. -1.
<mgrwt>
<rscale>  1 0.30000000E+03</rscale>
<asrwt>0</asrwt>
<pdfrwt beam="1">  1       21 0.15806259E-01 0.30000000E+03</pdfrwt>
<pdfrwt beam="2">0</pdfrwt>
<totfact> 0.37365196E+03</totfact>
</mgrwt>
</event>
<event>
 6    1  0.1295671E-001  0.3000000E+03  0.7818608E-02  0.1093470E+00
         21   -1    0    0  501  502  0.00000000000E+00  0.00000000000E+00  0.11718488518E+01  0.11718488518E+01  0.00000000000E+00 0. -1.
         13   -1    0    0    0    0 -0.00000000000E+00 -0.00000000000E+00 -0.10000000000E+04  0.10000000000E+04  0.00000000000E+00 0.  1.
    9000005    2    1    2  501    0 -0.22071308217E+01 -0.31811505946E+02 -0.67632763250E+03  0.67709866597E+03  0.51665881891E+01 0.  0.
         13    1    3    3    0    0  0.83801008118E+00 -0.21816259689E+02 -0.46910932815E+03  0.46961709211E+03  0.00000000000E+00 0.  1.
          3    1    3    3  501    0 -0.30451409029E+01 -0.99952462572E+01 -0.20721830435E+03  0.20748157386E+03  0.00000000000E+00 0.  1.
         -3    1    1    2    0  502  0.22071308217E+01  0.31811505946E+02 -0.32250051865E+03  0.32407318288E+03  0.00000000000E+00 0. -1.
<mgrwt>
<rscale>  1 0.30000000E+03</rscale>
<asrwt>0</asrwt>
<pdfrwt beam="1">  1       21 0.42612775E-02 0.30000000E+03</pdfrwt>
<pdfrwt beam="2">0</pdfrwt>
<totfact> 0.37790315E+04</totfact>
</mgrwt>
</event>
<event>
 6    1  0.1295671E-001  0.3000000E+03  0.7818608E-02  0.1093470E+00
         21   -1    0    0  501  502  0.00000000000E+00  0.00000000000E+00  0.14290220650E+01  0.14290220650E+01  0.00000000000E+00 0. -1.
         13   -1    0    0    0    0 -0.00000000000E+00 -0.00000000000E+00 -0.10000000000E+04  0.10000000000E+04  0.00000000000E+00 0.  1.
    9000005    2    1    2  501    0  0.25893686899E+02  0.15646399208E+02 -0.79892270575E+03  0.79950149691E+03  0.31402175701E+01 0.  0.
         13    1    3    3    0    0  0.22402322910E+02  0.12918059068E+02 -0.65400125132E+03  0.65451232001E+03  0.00000000000E+00 0.  1.
          3    1    3    3  501    0  0.34913639890E+01  0.27283401403E+01 -0.14492145444E+03  0.14498917690E+03  0.00000000000E+00 0.  1.
         -3    1    1    2    0  502 -0.25893686899E+02 -0.15646399208E+02 -0.19964827218E+03  0.20192752516E+03  0.00000000000E+00 0. -1.
<mgrwt>
<rscale>  1 0.30000000E+03</rscale>
<asrwt>0</asrwt>
<pdfrwt beam="1">  1       21 0.51964548E-02 0.30000000E+03</pdfrwt>
<pdfrwt beam="2">0</pdfrwt>
<totfact> 0.26971288E+04</totfact>
</mgrwt>
</event>
<event>
 6    1  0.1295671E-001  0.3000000E+03  0.7818608E-02  0.1093470E+00
         21   -1    0    0  501  502  0.00000000000E+00  0.00000000000E+00  0.31166187251E+01  0.31166187251E+01  0.00000000000E+00 0. -1.
         13   -1    0    0    0    0 -0.00000000000E+00 -0.00000000000E+00 -0.10000000000E+04  0.10000000000E+04  0.00000000000E+00 0.  1.
    9000005    2    1    2  501    0  0.41201298881E+02  0.37451160690E+02 -0.52376528565E+03  0.52673350728E+03  0.42399019211E+01 0.  0.
         13    1    3    3    0    0  0.20327090657E+01  0.98664331181E+00 -0.26853158568E+02  0.26948051808E+02  0.00000000000E+00 0.  1.
          1    1    3    3  501    0  0.39168589815E+02  0.36464517378E+02 -0.49691212709E+03  0.49978545547E+03  0.00000000000E+00 0.  1.
         -1    1    1    2    0  502 -0.41201298881E+02 -0.37451160690E+02 -0.47311809562E+03  0.47638311145E+03  0.00000000000E+00 0. -1.
<mgrwt>
<rscale>  1 0.30000000E+03</rscale>
<asrwt>0</asrwt>
<pdfrwt beam="1">  1       21 0.11333183E-01 0.30000000E+03</pdfrwt>
<pdfrwt beam="2">0</pdfrwt>
<totfact> 0.68724708E+03</totfact>
</mgrwt>
</event>
<event>
 6    1  0.1295671E-001  0.3000000E+03  0.7818608E-02  0.1093470E+00
         21   -1    0    0  501  502  0.00000000000E+00  0.00000000000E+00  0.11326440896E+01  0.11326440896E+01  0.00000000000E+00 0. -1.
         13   -1    0    0    0    0 -0.00000000000E+00 -0.00000000000E+00 -0.10000000000E+04  0.10000000000E+04  0.00000000000E+00 0.  1.
    9000005    2    1    2  501    0 -0.45179102306E+01 -0.30427160747E+02 -0.69714644504E+03  0.69784774225E+03  0.56640899811E+01 0.  0.
         13    1    3    3    0    0  0.44908245713E+00 -0.22207173535E-01 -0.74446144182E+01  0.74581802102E+01  0.00000000000E+00 0.  1.
          3    1    3    3  501    0 -0.49669926877E+01 -0.30404953574E+02 -0.68970183062E+03  0.69038956204E+03  0.00000000000E+00 0.  1.
         -3    1    1    2    0  502  0.45179102306E+01  0.30427160747E+02 -0.30172091087E+03  0.30328490184E+03  0.00000000000E+00 0. -1.
<mgrwt>
<rscale>  1 0.30000000E+03</rscale>
<asrwt>0</asrwt>
<pdfrwt beam="1">  1       21 0.41187145E-02 0.30000000E+03</pdfrwt>
<pdfrwt beam="2">0</pdfrwt>
<totfact> 0.40025046E+04</totfact>
</mgrwt>
</event>
<event>
 6    1  0.1295671E-001  0.3000000E+03  0.7818608E-02  0.1093470E+00
         21   -1    0    0  501  502  0.00000000000E+00  0.00000000000E+00  0.23756731372E+01  0.23756731372E+01  0.00000000000E+00 0. -1.
         13   -1    0    0    0    0 -0.00000000000E+00 -0.00000000000E+00 -0.10000000000E+04  0.10000000000E+04  0.00000000000E+00 0.  1.
    9000005    2    1    2  501    0  0.42887187059E+02  0.40252395160E+00 -0.73624559107E+03  0.73750152120E+03  0.33838682331E+01 0.  0.
         13    1    3    3    0    0  0.14822094701E+02 -0.27032367804E+00 -0.22840291763E+03  0.22888350825E+03  0.00000000000E+00 0.  1.
          1    1    3    3  501    0  0.28065092359E+02  0.67284762963E+00 -0.50784267344E+03  0.50861801295E+03  0.00000000000E+00 0.  1.
         -1    1    1    2    0  502 -0.42887187059E+02 -0.40252395160E+00 -0.26137873580E+03  0.26487415194E+03  0.00000000000E+00 0. -1.
<mgrwt>
<rscale>  1 0.30000000E+03</rscale>
<asrwt>0</asrwt>
<pdfrwt beam="1">  1       21 0.86388296E-02 0.30000000E+03</pdfrwt>
<pdfrwt beam="2">0</pdfrwt>
<totfact> 0.11157709E+04</totfact>
</mgrwt>
</event>
<event>
 6    1  0.1295671E-001  0.3000000E+03  0.7818608E-02  0.1093470E+00
         21   -1    0    0  501  502  0.00000000000E+00  0.00000000000E+00  0.26167696679E+01  0.26167696679E+01  0.00000000000E+00 0. -1.
         13   -1    0    0    0    0 -0.00000000000E+00 -0.00000000000E+00 -0.10000000000E+04  0.10000000000E+04  0.00000000000E+00 0.  1.
    9000005    2    1    2  501    0 -0.36006178218E+02 -0.98822718729E+01 -0.84026660777E+03  0.84112454926E+03  0.69592432010E+01 0.  0.
         13    1    3    3    0    0 -0.34626041659E+02 -0.10830176536E+02 -0.79623783680E+03  0.79706395493E+03  0.00000000000E+00 0.  1.
          3    1    3    3  501    0 -0.13801365589E+01  0.94790466325E+00 -0.44028770970E+02  0.44060594337E+02  0.00000000000E+00 0.  1.
         -1    1    1    2    0  502  0.36006178218E+02  0.98822718729E+01 -0.15711662256E+03  0.16149222041E+03  0.00000000000E+00 0. -1.
<mgrwt>
<rscale>  1 0.30000000E+03</rscale>
<asrwt>0</asrwt>
<pdfrwt beam="1">  1       21 0.95155461E-02 0.30000000E+03</pdfrwt>
<pdfrwt beam="2">0</pdfrwt>
<totfact> 0.94003012E+03</totfact>
</mgrwt>
</event>
<event>
 6    1  0.1295671E-001  0.3000000E+03  0.7818608E-02  0.1093470E+00
         21   -1    0    0  501  502  0.00000000000E+00  0.00000000000E+00  0.43053187570E+01  0.43053187570E+01  0.00000000000E+00 0. -1.
         13   -1    0    0    0    0 -0.00000000000E+00 -0.00000000000E+00 -0.10000000000E+04  0.10000000000E+04  0.00000000000E+00 0.  1.
    9000005    2    1    2  501    0  0.35267499058E+02  0.58177637521E+01 -0.91887590227E+03  0.91957771010E+03  0.35494064099E+01 0.  0.
         13    1    3    3    0    0  0.94956382035E+01  0.31587207544E+01 -0.24990067984E+03  0.25010096850E+03  0.00000000000E+00 0.  1.
          3    1    3    3  501    0  0.25771860855E+02  0.26590429977E+01 -0.66897522243E+03  0.66947674160E+03  0.00000000000E+00 0.  1.
         -3    1    1    2    0  502 -0.35267499058E+02 -0.58177637521E+01 -0.76818778974E+02  0.84727608652E+02  0.00000000000E+00 0. -1.
<mgrwt>
<rscale>  1 0.30000000E+03</rscale>
<asrwt>0</asrwt>
<pdfrwt beam="1">  1       21 0.15655738E-01 0.30000000E+03</pdfrwt>
<pdfrwt beam="2">0</pdfrwt>
<totfact> 0.38036777E+03</totfact>
</mgrwt>
</event>
<event>
 6    1  0.1295671E-001  0.3000000E+03  0.7818608E-02  0.1093470E+00
         21   -1    0    0  501  502  0.00000000000E+00  0.00000000000E+00  0.12684401740E+01  0.12684401740E+01  0.00000000000E+00 0. -1.
         13   -1    0    0    0    0 -0.00000000000E+00 -0.00000000000E+00 -0.10000000000E+04  0.10000000000E+04  0.00000000000E+00 0.  1.
    9000005    2    1    2  501    0 -0.30856691170E+02 -0.13134142546E+02 -0.66593212520E+03  0.66678360528E+03  0.31843051160E+01 0.  0.
         13    1    3    3    0    0 -0.21638099725E+01 -0.18641575267E+01 -0.53810567146E+02  0.53886308961E+02  0.00000000000E+00 0.  1.
          3    1    3    3  501    0 -0.28692881198E+02 -0.11269985019E+02 -0.61212155806E+03  0.61289729632E+03  0.00000000000E+00 0.  1.
         -1    1    1    2    0  502  0.30856691170E+02  0.13134142546E+02 -0.33279943462E+03  0.33448483490E+03  0.00000000000E+00 0. -1.
<mgrwt>
<rscale>  1 0.30000000E+03</rscale>
<asrwt>0</asrwt>
<pdfrwt beam="1">  1       21 0.46125195E-02 0.30000000E+03</pdfrwt>
<pdfrwt beam="2">0</pdfrwt>
<totfact> 0.33042844E+04</totfact>
</mgrwt>
</event>
<event>
 6    1  0.1295671E-001  0.3000000E+03  0.7818608E-02  0.1093470E+00
         21   -1    0    0  501  502  0.00000000000E+00  0.00000000000E+00  0.30110451476E+01  0.30110451476E+01  0.00000000000E+00 0. -1.
         13   -1    0    0    0    0 -0.00000000000E+00 -0.00000000000E+00 -0.10000000000E+04  0.10000000000E+04  0.00000000000E+00 0.  1.
    9000005    2    1    2  501    0 -0.22803560711E+02  0.30388970409E+02 -0.86016855354E+03  0.86101346024E+03  0.32781574265E+01 0.  0.
         13    1    3    3    0    0 -0.18998856158E+02  0.24256686807E+02 -0.72068839322E+03  0.72134672906E+03  0.00000000000E+00 0.  1.
          1    1    3    3  501    0 -0.38047045529E+01  0.61322836018E+01 -0.13948016031E+03  0.13966673118E+03  0.00000000000E+00 0.  1.
         -1    1    1    2    0  502  0.22803560711E+02 -0.30388970409E+02 -0.13682040132E+03  0.14199758491E+03  0.00000000000E+00 0. -1.
<mgrwt>
<rscale>  1 0.30000000E+03</rscale>
<asrwt>0</asrwt>
<pdfrwt beam="1">  1       21 0.10949278E-01 0.30000000E+03</pdfrwt>
<pdfrwt beam="2">0</pdfrwt>
<totfact> 0.73125636E+03</totfact>
</mgrwt>
</event>
<event>
 6    1  0.1295671E-001  0.3000000E+03  0.7818608E-02  0.1093470E+00
         21   -1    0    0  501  502  0.00000000000E+00  0.00000000000E+00  0.19915930018E+01  0.19915930018E+01  0.00000000000E+00 0. -1.
         13   -1    0    0    0    0 -0.00000000000E+00 -0.00000000000E+00 -0.10000000000E+04  0.10000000000E+04  0.00000000000E+00 0.  1.
    9000005    2    1    2  501    0 -0.34739208338E+02  0.25885373116E+02 -0.38215844723E+03  0.38461971310E+03  0.32217673071E+01 0.  0.
         13    1    3    3    0    0 -0.24473831456E+02  0.17324119477E+02 -0.27549469429E+03  0.27712167025E+03  0.00000000000E+00 0.  1.
          1    1    3    3  501    0 -0.10265376881E+02  0.85612536390E+01 -0.10666375294E+03  0.10749804285E+03  0.00000000000E+00 0.  1.
         -3    1    1    2    0  502  0.34739208338E+02 -0.25885373116E+02 -0.61584995977E+03  0.61737187990E+03  0.00000000000E+00 0. -1.
<mgrwt>
<rscale>  1 0.30000000E+03</rscale>
<asrwt>0</asrwt>
<pdfrwt beam="1">  1       21 0.72421716E-02 0.30000000E+03</pdfrwt>
<pdfrwt beam="2">0</pdfrwt>
<totfact> 0.15206651E+04</totfact>
</mgrwt>
</event>
<event>
 6    1  0.1295671E-001  0.3000000E+03  0.7818608E-02  0.1093470E+00
         21   -1    0    0  501  502  0.00000000000E+00  0.00000000000E+00  0.30859831817E+01  0.30859831817E+01  0.00000000000E+00 0. -1.
         13   -1    0    0    0    0 -0.00000000000E+00 -0.00000000000E+00 -0.10000000000E+04  0.10000000000E+04  0.00000000000E+00 0.  1.
    9000005    2    1    2  501    0  0.39088861347E+02  0.26521995375E+02 -0.76200972544E+03  0.76347926077E+03  0.32256209596E+01 0.  0.
         13    1    3    3    0    0  0.23702405876E+02  0.15233848151E+02 -0.47691172190E+03  0.47774330415E+03  0.00000000000E+00 0.  1.
          1    1    3    3  501    0  0.15386455471E+02  0.11288147224E+02 -0.28509800355E+03  0.28573595662E+03  0.00000000000E+00 0.  1.
         -1    1    1    2    0  502 -0.39088861347E+02 -0.26521995375E+02 -0.23490429137E+03  0.23960672241E+03  0.00000000000E+00 0. -1.
<mgrwt>
<rscale>  1 0.30000000E+03</rscale>
<asrwt>0</asrwt>
<pdfrwt beam="1">  1       21 0.11221781E-01 0.30000000E+03</pdfrwt>
<pdfrwt beam="2">0</pdfrwt>
<totfact> 0.69959815E+03</totfact>
</mgrwt>
</event>
<event>
 6    1  0.1295671E-001  0.3000000E+03  0.7818608E-02  0.1093470E+00
         21   -1    0    0  501  502  0.00000000000E+00  0.00000000000E+00  0.84431700868E+01  0.84431700868E+01  0.00000000000E+00 0. -1.
         13   -1    0    0    0    0 -0.00000000000E+00 -0.00000000000E+00 -0.10000000000E+04  0.10000000000E+04  0.00000000000E+00 0.  1.
    9000005    2    1    2  501    0 -0.60489475765E+02 -0.24697880584E+02 -0.85024440585E+03  0.85275706544E+03  0.31782078522E+01 0.  0.
         13    1    3    3    0    0 -0.59019375931E+02 -0.24600705763E+02 -0.83114308786E+03  0.83359901269E+03  0.00000000000E+00 0.  1.
          1    1    3    3  501    0 -0.14700998340E+01 -0.97174820817E-01 -0.19101317990E+02  0.19158052757E+02  0.00000000000E+00 0.  1.
         -1    1    1    2    0  502  0.60489475765E+02  0.24697880584E+02 -0.14131242406E+03  0.15568610464E+03  0.00000000000E+00 0. -1.
<mgrwt>
<rscale>  1 0.30000000E+03</rscale>
<asrwt>0</asrwt>
<pdfrwt beam="1">  1       21 0.30702501E-01 0.30000000E+03</pdfrwt>
<pdfrwt beam="2">0</pdfrwt>
<totfact> 0.10379993E+03</totfact>
</mgrwt>
</event>
<event>
 6    1  0.1295671E-001  0.3000000E+03  0.7818608E-02  0.1093470E+00
         21   -1    0    0  501  502  0.00000000000E+00  0.00000000000E+00  0.41822220408E+01  0.41822220408E+01  0.00000000000E+00 0. -1.
         13   -1    0    0    0    0 -0.00000000000E+00 -0.00000000000E+00 -0.10000000000E+04  0.10000000000E+04  0.00000000000E+00 0.  1.
    9000005    2    1    2  501    0 -0.25604974538E+01 -0.47200928236E+02 -0.84038384163E+03  0.84171932678E+03  0.34554348046E+01 0.  0.
         13    1    3    3    0    0 -0.10824481701E+01 -0.22972526635E+02 -0.37838057223E+03  0.37907883892E+03  0.00000000000E+00 0.  1.
          3    1    3    3  501    0 -0.14780492837E+01 -0.24228401601E+02 -0.46200326940E+03  0.46264048786E+03  0.00000000000E+00 0.  1.
         -3    1    1    2    0  502  0.25604974538E+01  0.47200928236E+02 -0.15543393633E+03  0.16246289526E+03  0.00000000000E+00 0. -1.
<mgrwt>
<rscale>  1 0.30000000E+03</rscale>
<asrwt>0</asrwt>
<pdfrwt beam="1">  1       21 0.15208112E-01 0.30000000E+03</pdfrwt>
<pdfrwt beam="2">0</pdfrwt>
<totfact> 0.40142558E+03</totfact>
</mgrwt>
</event>
<event>
 6    1  0.1295671E-001  0.3000000E+03  0.7818608E-02  0.1093470E+00
         21   -1    0    0  501  502  0.00000000000E+00  0.00000000000E+00  0.42263556197E+01  0.42263556197E+01  0.00000000000E+00 0. -1.
         13   -1    0    0    0    0 -0.00000000000E+00 -0.00000000000E+00 -0.10000000000E+04  0.10000000000E+04  0.00000000000E+00 0.  1.
    9000005    2    1    2  501    0 -0.61342317225E+02 -0.69333268276E+01 -0.34239792738E+03  0.34794076347E+03  0.39348829115E+01 0.  0.
         13    1    3    3    0    0 -0.36731914727E+02 -0.54002937927E+01 -0.21395979090E+03  0.21715706034E+03  0.00000000000E+00 0.  1.
          1    1    3    3  501    0 -0.24610402498E+02 -0.15330330349E+01 -0.12843813648E+03  0.13078370313E+03  0.00000000000E+00 0.  1.
         -1    1    1    2    0  502  0.61342317225E+02  0.69333268276E+01 -0.65337571700E+03  0.65628559215E+03  0.00000000000E+00 0. -1.
<mgrwt>
<rscale>  1 0.30000000E+03</rscale>
<asrwt>0</asrwt>
<pdfrwt beam="1">  1       21 0.15368598E-01 0.30000000E+03</pdfrwt>
<pdfrwt beam="2">0</pdfrwt>
<totfact> 0.39368333E+03</totfact>
</mgrwt>
</event>
<event>
 6    1  0.1295671E-001  0.3000000E+03  0.7818608E-02  0.1093470E+00
         21   -1    0    0  501  502  0.00000000000E+00  0.00000000000E+00  0.10620204825E+01  0.10620204825E+01  0.00000000000E+00 0. -1.
         13   -1    0    0    0    0 -0.00000000000E+00 -0.00000000000E+00 -0.10000000000E+04  0.10000000000E+04  0.00000000000E+00 0.  1.
    9000005    2    1    2  501    0  0.15606812140E+02 -0.26099377200E+02 -0.67480272607E+03  0.67550340425E+03  0.46238476422E+01 0.  0.
         13    1    3    3    0    0  0.96809642112E+01 -0.11852981848E+02 -0.32228167303E+03  0.32264483727E+03  0.00000000000E+00 0.  1.
          3    1    3    3  501    0  0.59258479288E+01 -0.14246395353E+02 -0.35252105304E+03  0.35285856698E+03  0.00000000000E+00 0.  1.
         -1    1    1    2    0  502 -0.15606812140E+02  0.26099377200E+02 -0.32413525345E+03  0.32555861623E+03  0.00000000000E+00 0. -1.
<mgrwt>
<rscale>  1 0.30000000E+03</rscale>
<asrwt>0</asrwt>
<pdfrwt beam="1">  1       21 0.38619008E-02 0.30000000E+03</pdfrwt>
<pdfrwt beam="2">0</pdfrwt>
<totfact> 0.44608041E+04</totfact>
</mgrwt>
</event>
<event>
 6    1  0.1295671E-001  0.3000000E+03  0.7818608E-02  0.1093470E+00
         21   -1    0    0  501  502  0.00000000000E+00  0.00000000000E+00  0.99950056114E+00  0.99950056114E+00  0.00000000000E+00 0. -1.
         13   -1    0    0    0    0 -0.00000000000E+00 -0.00000000000E+00 -0.10000000000E+04  0.10000000000E+04  0.00000000000E+00 0.  1.
    9000005    2    1    2  501    0  0.13260145741E+02 -0.27229579743E+02 -0.63956709459E+03  0.64029234233E+03  0.33066124462E+01 0.  0.
         13    1    3    3    0    0  0.82357932338E+01 -0.20289156448E+02 -0.46249769182E+03  0.46301575902E+03  0.00000000000E+00 0.  1.
          1    1    3    3  501    0  0.50243525073E+01 -0.69404232954E+01 -0.17706940277E+03  0.17727658331E+03  0.00000000000E+00 0.  1.
         -3    1    1    2    0  502 -0.13260145741E+02  0.27229579743E+02 -0.35943340485E+03  0.36070715823E+03  0.00000000000E+00 0. -1.
<mgrwt>
<rscale>  1 0.30000000E+03</rscale>
<asrwt>0</asrwt>
<pdfrwt beam="1">  1       21 0.36345552E-02 0.30000000E+03</pdfrwt>
<pdfrwt beam="2">0</pdfrwt>
<totfact> 0.49392565E+04</totfact>
</mgrwt>
</event>
<event>
 6    1  0.1295671E-001  0.3000000E+03  0.7818608E-02  0.1093470E+00
         21   -1    0    0  501  502  0.00000000000E+00  0.00000000000E+00  0.12506237701E+01  0.12506237701E+01  0.00000000000E+00 0. -1.
         13   -1    0    0    0    0 -0.00000000000E+00 -0.00000000000E+00 -0.10000000000E+04  0.10000000000E+04  0.00000000000E+00 0.  1.
    9000005    2    1    2  501    0 -0.29144990433E+02  0.77474208495E+01 -0.75976237813E+03  0.76036841550E+03  0.34355612472E+01 0.  0.
         13    1    3    3    0    0 -0.18079207764E+02  0.30778096649E+01 -0.45462212382E+03  0.45499187480E+03  0.00000000000E+00 0.  1.
          1    1    3    3  501    0 -0.11065782669E+02  0.46696111846E+01 -0.30514025431E+03  0.30537654071E+03  0.00000000000E+00 0.  1.
         -3    1    1    2    0  502  0.29144990433E+02 -0.77474208495E+01 -0.23898699810E+03  0.24088220827E+03  0.00000000000E+00 0. -1.
<mgrwt>
<rscale>  1 0.30000000E+03</rscale>
<asrwt>0</asrwt>
<pdfrwt beam="1">  1       21 0.45477324E-02 0.30000000E+03</pdfrwt>
<pdfrwt beam="2">0</pdfrwt>
<totfact> 0.33846459E+04</totfact>
</mgrwt>
</event>
<event>
 6    1  0.1295671E-001  0.3000000E+03  0.7818608E-02  0.1093470E+00
         21   -1    0    0  501  502  0.00000000000E+00  0.00000000000E+00  0.28399974454E+01  0.28399974454E+01  0.00000000000E+00 0. -1.
         13   -1    0    0    0    0 -0.00000000000E+00 -0.00000000000E+00 -0.10000000000E+04  0.10000000000E+04  0.00000000000E+00 0.  1.
    9000005    2    1    2  501    0  0.17471120995E+02  0.37540744058E+02 -0.81390755283E+03  0.81496767947E+03  0.35023543052E+01 0.  0.
         13    1    3    3    0    0  0.10316879319E+02  0.19106557939E+02 -0.40279279011E+03  0.40337765223E+03  0.00000000000E+00 0.  1.
          1    1    3    3  501    0  0.71542416755E+01  0.18434186119E+02 -0.41111476272E+03  0.41159002723E+03  0.00000000000E+00 0.  1.
         -1    1    1    2    0  502 -0.17471120995E+02 -0.37540744058E+02 -0.18325244972E+03  0.18787231798E+03  0.00000000000E+00 0. -1.
<mgrwt>
<rscale>  1 0.30000000E+03</rscale>
<asrwt>0</asrwt>
<pdfrwt beam="1">  1       21 0.10327285E-01 0.30000000E+03</pdfrwt>
<pdfrwt beam="2">0</pdfrwt>
<totfact> 0.81216431E+03</totfact>
</mgrwt>
</event>
<event>
 6    1  0.1295671E-001  0.3000000E+03  0.7818608E-02  0.1093470E+00
         21   -1    0    0  501  502  0.00000000000E+00  0.00000000000E+00  0.33748964286E+01  0.33748964286E+01  0.00000000000E+00 0. -1.
         13   -1    0    0    0    0 -0.00000000000E+00 -0.00000000000E+00 -0.10000000000E+04  0.10000000000E+04  0.00000000000E+00 0.  1.
    9000005    2    1    2  501    0  0.39121948713E+02  0.32107534625E+02 -0.74420507974E+03  0.74593113736E+03  0.32619512190E+01 0.  0.
         13    1    3    3    0    0  0.36274696863E+02  0.29080478742E+02 -0.67171963374E+03  0.67332666235E+03  0.00000000000E+00 0.  1.
          1    1    3    3  501    0  0.28472518509E+01  0.30270558829E+01 -0.72485446000E+02  0.72604475015E+02  0.00000000000E+00 0.  1.
         -3    1    1    2    0  502 -0.39121948713E+02 -0.32107534625E+02 -0.25242002383E+03  0.25744375907E+03  0.00000000000E+00 0. -1.
<mgrwt>
<rscale>  1 0.30000000E+03</rscale>
<asrwt>0</asrwt>
<pdfrwt beam="1">  1       21 0.12272377E-01 0.30000000E+03</pdfrwt>
<pdfrwt beam="2">0</pdfrwt>
<totfact> 0.59494352E+03</totfact>
</mgrwt>
</event>
<event>
 6    1  0.1295671E-001  0.3000000E+03  0.7818608E-02  0.1093470E+00
         21   -1    0    0  501  502  0.00000000000E+00  0.00000000000E+00  0.27369218501E+01  0.27369218501E+01  0.00000000000E+00 0. -1.
         13   -1    0    0    0    0 -0.00000000000E+00 -0.00000000000E+00 -0.10000000000E+04  0.10000000000E+04  0.00000000000E+00 0.  1.
    9000005    2    1    2  501    0  0.31464145089E+02 -0.40433711171E+02 -0.59037295746E+03  0.59263394973E+03  0.70634304280E+01 0.  0.
         13    1    3    3    0    0  0.54091912429E+01 -0.36623785611E+01 -0.62343460114E+02  0.62684761989E+02  0.00000000000E+00 0.  1.
          1    1    3    3  501    0  0.26054953846E+02 -0.36771332609E+02 -0.52802949735E+03  0.52994918775E+03  0.00000000000E+00 0.  1.
         -1    1    1    2    0  502 -0.31464145089E+02  0.40433711171E+02 -0.40689012069E+03  0.41010297212E+03  0.00000000000E+00 0. -1.
<mgrwt>
<rscale>  1 0.30000000E+03</rscale>
<asrwt>0</asrwt>
<pdfrwt beam="1">  1       21 0.99524641E-02 0.30000000E+03</pdfrwt>
<pdfrwt beam="2">0</pdfrwt>
<totfact> 0.86767488E+03</totfact>
</mgrwt>
</event>
<event>
 6    1  0.1295671E-001  0.3000000E+03  0.7818608E-02  0.1093470E+00
         21   -1    0    0  501  502  0.00000000000E+00  0.00000000000E+00  0.95013841722E+00  0.95013841722E+00  0.00000000000E+00 0. -1.
         13   -1    0    0    0    0 -0.00000000000E+00 -0.00000000000E+00 -0.10000000000E+04  0.10000000000E+04  0.00000000000E+00 0.  1.
    9000005    2    1    2  501    0  0.14214151695E+02 -0.27031729396E+02 -0.55613955398E+03  0.55698809377E+03  0.34317055483E+01 0.  0.
         13    1    3    3    0    0  0.35195346061E+01 -0.42226630820E+01 -0.88652201123E+02  0.88822467717E+02  0.00000000000E+00 0.  1.
          1    1    3    3  501    0  0.10694617089E+02 -0.22809066314E+02 -0.46748735285E+03  0.46816562605E+03  0.00000000000E+00 0.  1.
         -3    1    1    2    0  502 -0.14214151695E+02  0.27031729396E+02 -0.44291030761E+03  0.44396204465E+03  0.00000000000E+00 0. -1.
<mgrwt>
<rscale>  1 0.30000000E+03</rscale>
<asrwt>0</asrwt>
<pdfrwt beam="1">  1       21 0.34550561E-02 0.30000000E+03</pdfrwt>
<pdfrwt beam="2">0</pdfrwt>
<totfact> 0.53767374E+04</totfact>
</mgrwt>
</event>
<event>
 6    1  0.1295671E-001  0.3000000E+03  0.7818608E-02  0.1093470E+00
         21   -1    0    0  501  502  0.00000000000E+00  0.00000000000E+00  0.23508692245E+01  0.23508692245E+01  0.00000000000E+00 0. -1.
         13   -1    0    0    0    0 -0.00000000000E+00 -0.00000000000E+00 -0.10000000000E+04  0.10000000000E+04  0.00000000000E+00 0.  1.
    9000005    2    1    2  501    0  0.42815541284E+02  0.49391559713E+01 -0.72779722594E+03  0.72907881361E+03  0.30900695839E+01 0.  0.
         13    1    3    3    0    0  0.20124631885E+02  0.20949110077E+01 -0.36750428583E+03  0.36806085036E+03  0.00000000000E+00 0.  1.
          1    1    3    3  501    0  0.22690909399E+02  0.28442449636E+01 -0.36029294011E+03  0.36101796325E+03  0.00000000000E+00 0.  1.
         -1    1    1    2    0  502 -0.42815541284E+02 -0.49391559713E+01 -0.26985190484E+03  0.27327205562E+03  0.00000000000E+00 0. -1.
<mgrwt>
<rscale>  1 0.30000000E+03</rscale>
<asrwt>0</asrwt>
<pdfrwt beam="1">  1       21 0.85486334E-02 0.30000000E+03</pdfrwt>
<pdfrwt beam="2">0</pdfrwt>
<totfact> 0.11366309E+04</totfact>
</mgrwt>
</event>
<event>
 6    1  0.1295671E-001  0.3000000E+03  0.7818608E-02  0.1093470E+00
         21   -1    0    0  501  502  0.00000000000E+00  0.00000000000E+00  0.31522033755E+01  0.31522033755E+01  0.00000000000E+00 0. -1.
         13   -1    0    0    0    0 -0.00000000000E+00 -0.00000000000E+00 -0.10000000000E+04  0.10000000000E+04  0.00000000000E+00 0.  1.
    9000005    2    1    2  501    0 -0.49907560379E+02  0.12931602279E+02 -0.69632415999E+03  0.69823836785E+03  0.33899303225E+01 0.  0.
         13    1    3    3    0    0 -0.31618528312E+02  0.77861985026E+01 -0.41792586124E+03  0.41919253537E+03  0.00000000000E+00 0.  1.
          3    1    3    3  501    0 -0.18289032067E+02  0.51454037764E+01 -0.27839829875E+03  0.27904583248E+03  0.00000000000E+00 0.  1.
         -3    1    1    2    0  502  0.49907560379E+02 -0.12931602279E+02 -0.30052363663E+03  0.30491383553E+03  0.00000000000E+00 0. -1.
<mgrwt>
<rscale>  1 0.30000000E+03</rscale>
<asrwt>0</asrwt>
<pdfrwt beam="1">  1       21 0.11462582E-01 0.30000000E+03</pdfrwt>
<pdfrwt beam="2">0</pdfrwt>
<totfact> 0.67330732E+03</totfact>
</mgrwt>
</event>
<event>
 6    1  0.1295671E-001  0.3000000E+03  0.7818608E-02  0.1093470E+00
         21   -1    0    0  501  502  0.00000000000E+00  0.00000000000E+00  0.17184778699E+01  0.17184778699E+01  0.00000000000E+00 0. -1.
         13   -1    0    0    0    0 -0.00000000000E+00 -0.00000000000E+00 -0.10000000000E+04  0.10000000000E+04  0.00000000000E+00 0.  1.
    9000005    2    1    2  501    0  0.14933256064E+02 -0.38573178160E+02 -0.51781368510E+03  0.51947348347E+03  0.32856254112E+01 0.  0.
         13    1    3    3    0    0  0.87440012389E+01 -0.20770846180E+02 -0.30063397696E+03  0.30147748458E+03  0.00000000000E+00 0.  1.
          1    1    3    3  501    0  0.61892548252E+01 -0.17802331979E+02 -0.21717970815E+03  0.21799599888E+03  0.00000000000E+00 0.  1.
         -1    1    1    2    0  502 -0.14933256064E+02  0.38573178160E+02 -0.48046783703E+03  0.48224499440E+03  0.00000000000E+00 0. -1.
<mgrwt>
<rscale>  1 0.30000000E+03</rscale>
<asrwt>0</asrwt>
<pdfrwt beam="1">  1       21 0.62490236E-02 0.30000000E+03</pdfrwt>
<pdfrwt beam="2">0</pdfrwt>
<totfact> 0.19643269E+04</totfact>
</mgrwt>
</event>
<event>
 6    1  0.1295671E-001  0.3000000E+03  0.7818608E-02  0.1093470E+00
         21   -1    0    0  501  502  0.00000000000E+00  0.00000000000E+00  0.62239353299E+01  0.62239353299E+01  0.00000000000E+00 0. -1.
         13   -1    0    0    0    0 -0.00000000000E+00 -0.00000000000E+00 -0.10000000000E+04  0.10000000000E+04  0.00000000000E+00 0.  1.
    9000005    2    1    2  501    0 -0.24217249605E+02  0.62639041800E+02 -0.76070692333E+03  0.76367218955E+03  0.31725625429E+01 0.  0.
         13    1    3    3    0    0 -0.46590649453E+01  0.91549885267E+01 -0.11112898358E+03  0.11160274053E+03  0.00000000000E+00 0.  1.
          1    1    3    3  501    0 -0.19558184660E+02  0.53484053273E+02 -0.64957793975E+03  0.65206944903E+03  0.00000000000E+00 0.  1.
         -3    1    1    2    0  502  0.24217249605E+02 -0.62639041800E+02 -0.23306914134E+03  0.24255174578E+03  0.00000000000E+00 0. -1.
<mgrwt>
<rscale>  1 0.30000000E+03</rscale>
<asrwt>0</asrwt>
<pdfrwt beam="1">  1       21 0.22632540E-01 0.30000000E+03</pdfrwt>
<pdfrwt beam="2">0</pdfrwt>
<totfact> 0.18922829E+03</totfact>
</mgrwt>
</event>
<event>
 6    1  0.1295671E-001  0.3000000E+03  0.7818608E-02  0.1093470E+00
         21   -1    0    0  501  502  0.00000000000E+00  0.00000000000E+00  0.14674017855E+01  0.14674017855E+01  0.00000000000E+00 0. -1.
         13   -1    0    0    0    0 -0.00000000000E+00 -0.00000000000E+00 -0.10000000000E+04  0.10000000000E+04  0.00000000000E+00 0.  1.
    9000005    2    1    2  501    0  0.19491417089E+02 -0.26571884916E+02 -0.75370851425E+03  0.75443539476E+03  0.32031233305E+01 0.  0.
         13    1    3    3    0    0  0.51262944928E+01 -0.80690255204E+01 -0.18987890093E+03  0.19011939693E+03  0.00000000000E+00 0.  1.
          1    1    3    3  501    0  0.14365122596E+02 -0.18502859396E+02 -0.56382961332E+03  0.56431599783E+03  0.00000000000E+00 0.  1.
         -3    1    1    2    0  502 -0.19491417089E+02  0.26571884916E+02 -0.24482408396E+03  0.24703200703E+03  0.00000000000E+00 0. -1.
<mgrwt>
<rscale>  1 0.30000000E+03</rscale>
<asrwt>0</asrwt>
<pdfrwt beam="1">  1       21 0.53360177E-02 0.30000000E+03</pdfrwt>
<pdfrwt beam="2">0</pdfrwt>
<totfact> 0.25776476E+04</totfact>
</mgrwt>
</event>
<event>
 6    1  0.1295671E-001  0.3000000E+03  0.7818608E-02  0.1093470E+00
         21   -1    0    0  501  502  0.00000000000E+00  0.00000000000E+00  0.28571122724E+01  0.28571122724E+01  0.00000000000E+00 0. -1.
         13   -1    0    0    0    0 -0.00000000000E+00 -0.00000000000E+00 -0.10000000000E+04  0.10000000000E+04  0.00000000000E+00 0.  1.
    9000005    2    1    2  501    0  0.83670663041E+00  0.52615443673E+02 -0.58256354480E+03  0.58495148109E+03  0.43435595493E+01 0.  0.
         13    1    3    3    0    0  0.25665275674E+01  0.34723395940E+02 -0.37952157674E+03  0.38111537426E+03  0.00000000000E+00 0.  1.
          1    1    3    3  501    0 -0.17298209370E+01  0.17892047734E+02 -0.20304196806E+03  0.20383610683E+03  0.00000000000E+00 0.  1.
         -1    1    1    2    0  502 -0.83670663041E+00 -0.52615443673E+02 -0.41457934293E+03  0.41790563118E+03  0.00000000000E+00 0. -1.
<mgrwt>
<rscale>  1 0.30000000E+03</rscale>
<asrwt>0</asrwt>
<pdfrwt beam="1">  1       21 0.10389521E-01 0.30000000E+03</pdfrwt>
<pdfrwt beam="2">0</pdfrwt>
<totfact> 0.80347231E+03</totfact>
</mgrwt>
</event>
<event>
 6    1  0.1295671E-001  0.3000000E+03  0.7818608E-02  0.1093470E+00
         21   -1    0    0  501  502  0.00000000000E+00  0.00000000000E+00  0.23736865922E+01  0.23736865922E+01  0.00000000000E+00 0. -1.
         13   -1    0    0    0    0 -0.00000000000E+00 -0.00000000000E+00 -0.10000000000E+04  0.10000000000E+04  0.00000000000E+00 0.  1.
    9000005    2    1    2  501    0  0.35586512118E+02  0.26186885420E+02 -0.70919058864E+03  0.71057354928E+03  0.33652799302E+01 0.  0.
         13    1    3    3    0    0  0.21730449400E+02  0.17623164887E+02 -0.43279390195E+03  0.43369730220E+03  0.00000000000E+00 0.  1.
          3    1    3    3  501    0  0.13856062718E+02  0.85637205326E+01 -0.27639668669E+03  0.27687624708E+03  0.00000000000E+00 0.  1.
         -3    1    1    2    0  502 -0.35586512118E+02 -0.26186885420E+02 -0.28843572477E+03  0.29180013731E+03  0.00000000000E+00 0. -1.
<mgrwt>
<rscale>  1 0.30000000E+03</rscale>
<asrwt>0</asrwt>
<pdfrwt beam="1">  1       21 0.86316058E-02 0.30000000E+03</pdfrwt>
<pdfrwt beam="2">0</pdfrwt>
<totfact> 0.11174200E+04</totfact>
</mgrwt>
</event>
<event>
 6    1  0.1295671E-001  0.3000000E+03  0.7818608E-02  0.1093470E+00
         21   -1    0    0  501  502  0.00000000000E+00  0.00000000000E+00  0.14666208260E+01  0.14666208260E+01  0.00000000000E+00 0. -1.
         13   -1    0    0    0    0 -0.00000000000E+00 -0.00000000000E+00 -0.10000000000E+04  0.10000000000E+04  0.00000000000E+00 0.  1.
    9000005    2    1    2  501    0 -0.14509823414E+02  0.30946067051E+02 -0.72481281027E+03  0.72562038852E+03  0.17732031958E+01 0.  0.
         13    1    3    3    0    0 -0.30882528280E+01  0.50307559896E+01 -0.12733032005E+03  0.12746707894E+03  0.00000000000E+00 0.  1.
          1    1    3    3  501    0 -0.11421570586E+02  0.25915311061E+02 -0.59748249023E+03  0.59815330957E+03  0.00000000000E+00 0.  1.
         -1    1    1    2    0  502  0.14509823414E+02 -0.30946067051E+02 -0.27372056890E+03  0.27584623231E+03  0.00000000000E+00 0. -1.
<mgrwt>
<rscale>  1 0.30000000E+03</rscale>
<asrwt>0</asrwt>
<pdfrwt beam="1">  1       21 0.53331779E-02 0.30000000E+03</pdfrwt>
<pdfrwt beam="2">0</pdfrwt>
<totfact> 0.25799965E+04</totfact>
</mgrwt>
</event>
<event>
 6    1  0.1295671E-001  0.3000000E+03  0.7818608E-02  0.1093470E+00
         21   -1    0    0  501  502  0.00000000000E+00  0.00000000000E+00  0.24529868601E+01  0.24529868601E+01  0.00000000000E+00 0. -1.
         13   -1    0    0    0    0 -0.00000000000E+00 -0.00000000000E+00 -0.10000000000E+04  0.10000000000E+04  0.00000000000E+00 0.  1.
    9000005    2    1    2  501    0  0.17971203789E+02  0.28233020383E+02 -0.86797336590E+03  0.86862698914E+03  0.38748874602E+01 0.  0.
         13    1    3    3    0    0  0.12150788721E+02  0.15840183042E+02 -0.49508471419E+03  0.49548706067E+03  0.00000000000E+00 0.  1.
          1    1    3    3  501    0  0.58204150683E+01  0.12392837341E+02 -0.37288865171E+03  0.37313992847E+03  0.00000000000E+00 0.  1.
         -3    1    1    2    0  502 -0.17971203789E+02 -0.28233020383E+02 -0.12957364724E+03  0.13382599772E+03  0.00000000000E+00 0. -1.
<mgrwt>
<rscale>  1 0.30000000E+03</rscale>
<asrwt>0</asrwt>
<pdfrwt beam="1">  1       21 0.89199710E-02 0.30000000E+03</pdfrwt>
<pdfrwt beam="2">0</pdfrwt>
<totfact> 0.10543554E+04</totfact>
</mgrwt>
</event>
<event>
 6    1  0.1295671E-001  0.3000000E+03  0.7818608E-02  0.1093470E+00
         21   -1    0    0  501  502  0.00000000000E+00  0.00000000000E+00  0.10715695539E+01  0.10715695539E+01  0.00000000000E+00 0. -1.
         13   -1    0    0    0    0 -0.00000000000E+00 -0.00000000000E+00 -0.10000000000E+04  0.10000000000E+04  0.00000000000E+00 0.  1.
    9000005    2    1    2  501    0 -0.22213745478E+02 -0.22277477993E+02 -0.63470295375E+03  0.63548993108E+03  0.31426887790E+01 0.  0.
         13    1    3    3    0    0 -0.26041693961E+01 -0.36644283916E+01 -0.75423702800E+02  0.75557558707E+02  0.00000000000E+00 0.  1.
          3    1    3    3  501    0 -0.19609576082E+02 -0.18613049601E+02 -0.55927925095E+03  0.55993237238E+03  0.00000000000E+00 0.  1.
         -1    1    1    2    0  502  0.22213745478E+02  0.22277477993E+02 -0.36422547669E+03  0.36558163847E+03  0.00000000000E+00 0. -1.
<mgrwt>
<rscale>  1 0.30000000E+03</rscale>
<asrwt>0</asrwt>
<pdfrwt beam="1">  1       21 0.38966248E-02 0.30000000E+03</pdfrwt>
<pdfrwt beam="2">0</pdfrwt>
<totfact> 0.43941612E+04</totfact>
</mgrwt>
</event>
<event>
 6    1  0.1295671E-001  0.3000000E+03  0.7818608E-02  0.1093470E+00
         21   -1    0    0  501  502  0.00000000000E+00  0.00000000000E+00  0.11097488366E+01  0.11097488366E+01  0.00000000000E+00 0. -1.
         13   -1    0    0    0    0 -0.00000000000E+00 -0.00000000000E+00 -0.10000000000E+04  0.10000000000E+04  0.00000000000E+00 0.  1.
    9000005    2    1    2  501    0 -0.89414743720E+01 -0.31908298623E+02 -0.53804191370E+03  0.53907156900E+03  0.33115132417E+01 0.  0.
         13    1    3    3    0    0 -0.43175852437E+01 -0.20497046808E+02 -0.35192947027E+03  0.35255229756E+03  0.00000000000E+00 0.  1.
          1    1    3    3  501    0 -0.46238891283E+01 -0.11411251815E+02 -0.18611244343E+03  0.18651927144E+03  0.00000000000E+00 0.  1.
         -1    1    1    2    0  502  0.89414743720E+01  0.31908298623E+02 -0.46084833746E+03  0.46203817984E+03  0.00000000000E+00 0. -1.
<mgrwt>
<rscale>  1 0.30000000E+03</rscale>
<asrwt>0</asrwt>
<pdfrwt beam="1">  1       21 0.40354588E-02 0.30000000E+03</pdfrwt>
<pdfrwt beam="2">0</pdfrwt>
<totfact> 0.41426871E+04</totfact>
</mgrwt>
</event>
<event>
 6    1  0.1295671E-001  0.3000000E+03  0.7818608E-02  0.1093470E+00
         21   -1    0    0  501  502  0.00000000000E+00  0.00000000000E+00  0.21910316077E+01  0.21910316077E+01  0.00000000000E+00 0. -1.
         13   -1    0    0    0    0 -0.00000000000E+00 -0.00000000000E+00 -0.10000000000E+04  0.10000000000E+04  0.00000000000E+00 0.  1.
    9000005    2    1    2  501    0  0.36260162761E+02 -0.63551086297E+01 -0.19148079505E+03  0.19502295125E+03  0.37242228000E+01 0.  0.
         13    1    3    3    0    0  0.89678877928E+01 -0.38718494569E+00 -0.41043372301E+02  0.42013466097E+02  0.00000000000E+00 0.  1.
          3    1    3    3  501    0  0.27292274968E+02 -0.59679236840E+01 -0.15043742274E+03  0.15300948516E+03  0.00000000000E+00 0.  1.
         -1    1    1    2    0  502 -0.36260162761E+02  0.63551086297E+01 -0.80632817335E+03  0.80716808035E+03  0.00000000000E+00 0. -1.
<mgrwt>
<rscale>  1 0.30000000E+03</rscale>
<asrwt>0</asrwt>
<pdfrwt beam="1">  1       21 0.79674045E-02 0.30000000E+03</pdfrwt>
<pdfrwt beam="2">0</pdfrwt>
<totfact> 0.12865791E+04</totfact>
</mgrwt>
</event>
<event>
 6    1  0.1295671E-001  0.3000000E+03  0.7818608E-02  0.1093470E+00
         21   -1    0    0  501  502  0.00000000000E+00  0.00000000000E+00  0.13066991878E+01  0.13066991878E+01  0.00000000000E+00 0. -1.
         13   -1    0    0    0    0 -0.00000000000E+00 -0.00000000000E+00 -0.10000000000E+04  0.10000000000E+04  0.00000000000E+00 0.  1.
    9000005    2    1    2  501    0 -0.18324873358E+02  0.27373249972E+02 -0.70406740641E+03  0.70484504324E+03  0.32444425303E+01 0.  0.
         13    1    3    3    0    0 -0.15749519624E+02  0.21754288927E+02 -0.58837951915E+03  0.58899215190E+03  0.00000000000E+00 0.  1.
          1    1    3    3  501    0 -0.25753537337E+01  0.56189610451E+01 -0.11568788727E+03  0.11585289134E+03  0.00000000000E+00 0.  1.
         -1    1    1    2    0  502  0.18324873358E+02 -0.27373249972E+02 -0.29462589440E+03  0.29646165595E+03  0.00000000000E+00 0. -1.
<mgrwt>
<rscale>  1 0.30000000E+03</rscale>
<asrwt>0</asrwt>
<pdfrwt beam="1">  1       21 0.47516434E-02 0.30000000E+03</pdfrwt>
<pdfrwt beam="2">0</pdfrwt>
<totfact> 0.31415060E+04</totfact>
</mgrwt>
</event>
<event>
 6    1  0.1295671E-001  0.3000000E+03  0.7818608E-02  0.1093470E+00
         21   -1    0    0  501  502  0.00000000000E+00  0.00000000000E+00  0.17181705877E+01  0.17181705877E+01  0.00000000000E+00 0. -1.
         13   -1    0    0    0    0 -0.00000000000E+00 -0.00000000000E+00 -0.10000000000E+04  0.10000000000E+04  0.00000000000E+00 0.  1.
    9000005    2    1    2  501    0 -0.22434730162E+02 -0.29276906086E+02 -0.27463809924E+03  0.27713504729E+03  0.41586699655E+01 0.  0.
         13    1    3    3    0    0 -0.13765695813E+02 -0.19422577753E+02 -0.16332632720E+03  0.16505217377E+03  0.00000000000E+00 0.  1.
          1    1    3    3  501    0 -0.86690343485E+01 -0.98543283337E+01 -0.11131177204E+03  0.11208287352E+03  0.00000000000E+00 0.  1.
         -1    1    1    2    0  502  0.22434730162E+02  0.29276906086E+02 -0.72364373017E+03  0.72458312329E+03  0.00000000000E+00 0. -1.
<mgrwt>
<rscale>  1 0.30000000E+03</rscale>
<asrwt>0</asrwt>
<pdfrwt beam="1">  1       21 0.62479062E-02 0.30000000E+03</pdfrwt>
<pdfrwt beam="2">0</pdfrwt>
<totfact> 0.19649339E+04</totfact>
</mgrwt>
</event>
<event>
 6    1  0.1295671E-001  0.3000000E+03  0.7818608E-02  0.1093470E+00
         21   -1    0    0  501  502  0.00000000000E+00  0.00000000000E+00  0.13192805948E+01  0.13192805948E+01  0.00000000000E+00 0. -1.
         13   -1    0    0    0    0 -0.00000000000E+00 -0.00000000000E+00 -0.10000000000E+04  0.10000000000E+04  0.00000000000E+00 0.  1.
    9000005    2    1    2  501    0  0.18681091867E+02  0.24027124316E+02 -0.77174321799E+03  0.77235003496E+03  0.32704891010E+01 0.  0.
         13    1    3    3    0    0  0.11961502964E+02  0.15610338005E+02 -0.53670308415E+03  0.53706327443E+03  0.00000000000E+00 0.  1.
          3    1    3    3  501    0  0.67195889027E+01  0.84167863103E+01 -0.23504013384E+03  0.23528676053E+03  0.00000000000E+00 0.  1.
         -3    1    1    2    0  502 -0.18681091867E+02 -0.24027124316E+02 -0.22693750142E+03  0.22896924563E+03  0.00000000000E+00 0. -1.
<mgrwt>
<rscale>  1 0.30000000E+03</rscale>
<asrwt>0</asrwt>
<pdfrwt beam="1">  1       21 0.47973941E-02 0.30000000E+03</pdfrwt>
<pdfrwt beam="2">0</pdfrwt>
<totfact> 0.30907088E+04</totfact>
</mgrwt>
</event>
<event>
 6    1  0.1295671E-001  0.3000000E+03  0.7818608E-02  0.1093470E+00
         21   -1    0    0  501  502  0.00000000000E+00  0.00000000000E+00  0.31634503976E+01  0.31634503976E+01  0.00000000000E+00 0. -1.
         13   -1    0    0    0    0 -0.00000000000E+00 -0.00000000000E+00 -0.10000000000E+04  0.10000000000E+04  0.00000000000E+00 0.  1.
    9000005    2    1    2  501    0  0.25227163272E+02  0.27524203316E+02 -0.87339215740E+03  0.87419636351E+03  0.33808024596E+01 0.  0.
         13    1    3    3    0    0  0.78796406790E+01  0.86246941210E+01 -0.31118210416E+03  0.31140131027E+03  0.00000000000E+00 0.  1.
          3    1    3    3  501    0  0.17347522593E+02  0.18899509195E+02 -0.56221005324E+03  0.56279505324E+03  0.00000000000E+00 0.  1.
         -3    1    1    2    0  502 -0.25227163272E+02 -0.27524203316E+02 -0.12344439220E+03  0.12896708689E+03  0.00000000000E+00 0. -1.
<mgrwt>
<rscale>  1 0.30000000E+03</rscale>
<asrwt>0</asrwt>
<pdfrwt beam="1">  1       21 0.11503480E-01 0.30000000E+03</pdfrwt>
<pdfrwt beam="2">0</pdfrwt>
<totfact> 0.66898956E+03</totfact>
</mgrwt>
</event>
<event>
 6    1  0.1295671E-001  0.3000000E+03  0.7818608E-02  0.1093470E+00
         21   -1    0    0  501  502  0.00000000000E+00  0.00000000000E+00  0.12466359078E+01  0.12466359078E+01  0.00000000000E+00 0. -1.
         13   -1    0    0    0    0 -0.00000000000E+00 -0.00000000000E+00 -0.10000000000E+04  0.10000000000E+04  0.00000000000E+00 0.  1.
    9000005    2    1    2  501    0  0.32122865283E+02 -0.14134595334E+02 -0.53564337322E+03  0.53680877257E+03  0.42626014164E+01 0.  0.
         13    1    3    3    0    0  0.20357872428E+02 -0.90001588506E+01 -0.30749302428E+03  0.30829759294E+03  0.00000000000E+00 0.  1.
          3    1    3    3  501    0  0.11764992855E+02 -0.51344364838E+01 -0.22815034893E+03  0.22851117963E+03  0.00000000000E+00 0.  1.
         -1    1    1    2    0  502 -0.32122865283E+02  0.14134595334E+02 -0.46310999087E+03  0.46443786334E+03  0.00000000000E+00 0. -1.
<mgrwt>
<rscale>  1 0.30000000E+03</rscale>
<asrwt>0</asrwt>
<pdfrwt beam="1">  1       21 0.45332310E-02 0.30000000E+03</pdfrwt>
<pdfrwt beam="2">0</pdfrwt>
<totfact> 0.34030525E+04</totfact>
</mgrwt>
</event>
<event>
 6    1  0.1295671E-001  0.3000000E+03  0.7818608E-02  0.1093470E+00
         21   -1    0    0  501  502  0.00000000000E+00  0.00000000000E+00  0.13515391780E+01  0.13515391780E+01  0.00000000000E+00 0. -1.
         13   -1    0    0    0    0 -0.00000000000E+00 -0.00000000000E+00 -0.10000000000E+04  0.10000000000E+04  0.00000000000E+00 0.  1.
    9000005    2    1    2  501    0 -0.65952967997E+01  0.35930891704E+02 -0.45415063539E+03  0.45562962389E+03  0.33207872900E+01 0.  0.
         13    1    3    3    0    0 -0.58958128285E+01  0.24500506372E+02 -0.32067000948E+03  0.32165865510E+03  0.00000000000E+00 0.  1.
          1    1    3    3  501    0 -0.69948397124E+00  0.11430385332E+02 -0.13348062591E+03  0.13397096879E+03  0.00000000000E+00 0.  1.
         -3    1    1    2    0  502  0.65952967997E+01 -0.35930891704E+02 -0.54449782544E+03  0.54572191529E+03  0.00000000000E+00 0. -1.
<mgrwt>
<rscale>  1 0.30000000E+03</rscale>
<asrwt>0</asrwt>
<pdfrwt beam="1">  1       21 0.49146983E-02 0.30000000E+03</pdfrwt>
<pdfrwt beam="2">0</pdfrwt>
<totfact> 0.29661770E+04</totfact>
</mgrwt>
</event>
<event>
 6    1  0.1295671E-001  0.3000000E+03  0.7818608E-02  0.1093470E+00
         21   -1    0    0  501  502  0.00000000000E+00  0.00000000000E+00  0.17816904628E+01  0.17816904628E+01  0.00000000000E+00 0. -1.
         13   -1    0    0    0    0 -0.00000000000E+00 -0.00000000000E+00 -0.10000000000E+04  0.10000000000E+04  0.00000000000E+00 0.  1.
    9000005    2    1    2  501    0  0.27966028113E+02  0.20533451219E+02 -0.78389987821E+03  0.78467316609E+03  0.30392732305E+01 0.  0.
         13    1    3    3    0    0  0.20577714774E+02  0.13722236683E+02 -0.57512672777E+03  0.57565831456E+03  0.00000000000E+00 0.  1.
          1    1    3    3  501    0  0.73883133395E+01  0.68112145358E+01 -0.20877315044E+03  0.20901485153E+03  0.00000000000E+00 0.  1.
         -1    1    1    2    0  502 -0.27966028113E+02 -0.20533451219E+02 -0.21431843133E+03  0.21710852437E+03  0.00000000000E+00 0. -1.
<mgrwt>
<rscale>  1 0.30000000E+03</rscale>
<asrwt>0</asrwt>
<pdfrwt beam="1">  1       21 0.64788881E-02 0.30000000E+03</pdfrwt>
<pdfrwt beam="2">0</pdfrwt>
<totfact> 0.18453687E+04</totfact>
</mgrwt>
</event>
<event>
 6    1  0.1295671E-001  0.3000000E+03  0.7818608E-02  0.1093470E+00
         21   -1    0    0  501  502  0.00000000000E+00  0.00000000000E+00  0.16847745553E+01  0.16847745553E+01  0.00000000000E+00 0. -1.
         13   -1    0    0    0    0 -0.00000000000E+00 -0.00000000000E+00 -0.10000000000E+04  0.10000000000E+04  0.00000000000E+00 0.  1.
    9000005    2    1    2  501    0 -0.36084035265E+02  0.97701228526E+01 -0.70507191896E+03  0.70606821599E+03  0.28985893149E+01 0.  0.
         13    1    3    3    0    0 -0.30346192628E+02  0.92946133497E+01 -0.59574547616E+03  0.59659027281E+03  0.00000000000E+00 0.  1.
          3    1    3    3  501    0 -0.57378426363E+01  0.47550950293E+00 -0.10932644280E+03  0.10947794318E+03  0.00000000000E+00 0.  1.
         -3    1    1    2    0  502  0.36084035265E+02 -0.97701228526E+01 -0.29324330648E+03  0.29561655857E+03  0.00000000000E+00 0. -1.
<mgrwt>
<rscale>  1 0.30000000E+03</rscale>
<asrwt>0</asrwt>
<pdfrwt beam="1">  1       21 0.61264658E-02 0.30000000E+03</pdfrwt>
<pdfrwt beam="2">0</pdfrwt>
<totfact> 0.20326802E+04</totfact>
</mgrwt>
</event>
<event>
 6    1  0.1295671E-001  0.3000000E+03  0.7818608E-02  0.1093470E+00
         21   -1    0    0  501  502  0.00000000000E+00  0.00000000000E+00  0.16776678921E+01  0.16776678921E+01  0.00000000000E+00 0. -1.
         13   -1    0    0    0    0 -0.00000000000E+00 -0.00000000000E+00 -0.10000000000E+04  0.10000000000E+04  0.00000000000E+00 0.  1.
    9000005    2    1    2  501    0 -0.29586543292E+02 -0.61473900617E+01 -0.83678575435E+03  0.83733893265E+03  0.35965946500E+01 0.  0.
         13    1    3    3    0    0 -0.21546768456E+02 -0.36135363815E+01 -0.56412724168E+03  0.56455014452E+03  0.00000000000E+00 0.  1.
          1    1    3    3  501    0 -0.80397748356E+01 -0.25338536802E+01 -0.27265851268E+03  0.27278878813E+03  0.00000000000E+00 0.  1.
         -1    1    1    2    0  502  0.29586543292E+02  0.61473900617E+01 -0.16153657776E+03  0.16433873524E+03  0.00000000000E+00 0. -1.
<mgrwt>
<rscale>  1 0.30000000E+03</rscale>
<asrwt>0</asrwt>
<pdfrwt beam="1">  1       21 0.61006234E-02 0.30000000E+03</pdfrwt>
<pdfrwt beam="2">0</pdfrwt>
<totfact> 0.20475646E+04</totfact>
</mgrwt>
</event>
<event>
 6    1  0.1295671E-001  0.3000000E+03  0.7818608E-02  0.1093470E+00
         21   -1    0    0  501  502  0.00000000000E+00  0.00000000000E+00  0.10495230518E+01  0.10495230518E+01  0.00000000000E+00 0. -1.
         13   -1    0    0    0    0 -0.00000000000E+00 -0.00000000000E+00 -0.10000000000E+04  0.10000000000E+04  0.00000000000E+00 0.  1.
    9000005    2    1    2  501    0  0.28972415383E+01  0.32046837031E+02 -0.54530421807E+03  0.54626350528E+03  0.34253724991E+01 0.  0.
         13    1    3    3    0    0  0.78326902293E+00  0.23619762694E+02 -0.38662101763E+03  0.38734263640E+03  0.00000000000E+00 0.  1.
          1    1    3    3  501    0  0.21139725154E+01  0.84270743371E+01 -0.15868320044E+03  0.15892086887E+03  0.00000000000E+00 0.  1.
         -1    1    1    2    0  502 -0.28972415383E+01 -0.32046837031E+02 -0.45364625887E+03  0.45478601777E+03  0.00000000000E+00 0. -1.
<mgrwt>
<rscale>  1 0.30000000E+03</rscale>
<asrwt>0</asrwt>
<pdfrwt beam="1">  1       21 0.38164555E-02 0.30000000E+03</pdfrwt>
<pdfrwt beam="2">0</pdfrwt>
<totfact> 0.45504489E+04</totfact>
</mgrwt>
</event>
<event>
 6    1  0.1295671E-001  0.3000000E+03  0.7818608E-02  0.1093470E+00
         21   -1    0    0  501  502  0.00000000000E+00  0.00000000000E+00  0.97669600064E+00  0.97669600064E+00  0.00000000000E+00 0. -1.
         13   -1    0    0    0    0 -0.00000000000E+00 -0.00000000000E+00 -0.10000000000E+04  0.10000000000E+04  0.00000000000E+00 0.  1.
    9000005    2    1    2  501    0 -0.29209717066E+02 -0.10801036916E+02 -0.52202860180E+03  0.52296642844E+03  0.31865664756E+01 0.  0.
         13    1    3    3    0    0 -0.18931872014E+02 -0.53634739211E+01 -0.32634611264E+03  0.32693878305E+03  0.00000000000E+00 0.  1.
          3    1    3    3  501    0 -0.10277845052E+02 -0.54375629950E+01 -0.19568248917E+03  0.19602764539E+03  0.00000000000E+00 0.  1.
         -1    1    1    2    0  502  0.29209717066E+02  0.10801036916E+02 -0.47699470220E+03  0.47801026756E+03  0.00000000000E+00 0. -1.
<mgrwt>
<rscale>  1 0.30000000E+03</rscale>
<asrwt>0</asrwt>
<pdfrwt beam="1">  1       21 0.35516293E-02 0.30000000E+03</pdfrwt>
<pdfrwt beam="2">0</pdfrwt>
<totfact> 0.51341646E+04</totfact>
</mgrwt>
</event>
<event>
 6    1  0.1295671E-001  0.3000000E+03  0.7818608E-02  0.1093470E+00
         21   -1    0    0  501  502  0.00000000000E+00  0.00000000000E+00  0.14196632310E+01  0.14196632310E+01  0.00000000000E+00 0. -1.
         13   -1    0    0    0    0 -0.00000000000E+00 -0.00000000000E+00 -0.10000000000E+04  0.10000000000E+04  0.00000000000E+00 0.  1.
    9000005    2    1    2  501    0 -0.45705613068E+01  0.31913798911E+02 -0.75737755909E+03  0.75807184518E+03  0.35741915798E+01 0.  0.
         13    1    3    3    0    0 -0.13459423430E+01  0.21339176845E+02 -0.49955767192E+03  0.50001503938E+03  0.00000000000E+00 0.  1.
          3    1    3    3  501    0 -0.32246189638E+01  0.10574622066E+02 -0.25781988717E+03  0.25805680579E+03  0.00000000000E+00 0.  1.
         -1    1    1    2    0  502  0.45705613068E+01 -0.31913798911E+02 -0.24120277768E+03  0.24334781806E+03  0.00000000000E+00 0. -1.
<mgrwt>
<rscale>  1 0.30000000E+03</rscale>
<asrwt>0</asrwt>
<pdfrwt beam="1">  1       21 0.51624226E-02 0.30000000E+03</pdfrwt>
<pdfrwt beam="2">0</pdfrwt>
<totfact> 0.27275672E+04</totfact>
</mgrwt>
</event>
<event>
 6    1  0.1295671E-001  0.3000000E+03  0.7818608E-02  0.1093470E+00
         21   -1    0    0  501  502  0.00000000000E+00  0.00000000000E+00  0.14632565002E+01  0.14632565002E+01  0.00000000000E+00 0. -1.
         13   -1    0    0    0    0 -0.00000000000E+00 -0.00000000000E+00 -0.10000000000E+04  0.10000000000E+04  0.00000000000E+00 0.  1.
    9000005    2    1    2  501    0 -0.22384098575E+02 -0.20702825306E+02 -0.80061587119E+03  0.80120760355E+03  0.42656690245E+01 0.  0.
         13    1    3    3    0    0 -0.19262653024E+02 -0.16819025092E+02 -0.70252762613E+03  0.70299288395E+03  0.00000000000E+00 0.  1.
          3    1    3    3  501    0 -0.31214455504E+01 -0.38838002138E+01 -0.98088245065E+02  0.98214719601E+02  0.00000000000E+00 0.  1.
         -1    1    1    2    0  502  0.22384098575E+02  0.20702825306E+02 -0.19792087231E+03  0.20025565295E+03  0.00000000000E+00 0. -1.
<mgrwt>
<rscale>  1 0.30000000E+03</rscale>
<asrwt>0</asrwt>
<pdfrwt beam="1">  1       21 0.53209439E-02 0.30000000E+03</pdfrwt>
<pdfrwt beam="2">0</pdfrwt>
<totfact> 0.25901537E+04</totfact>
</mgrwt>
</event>
<event>
 6    1  0.1295671E-001  0.3000000E+03  0.7818608E-02  0.1093470E+00
         21   -1    0    0  501  502  0.00000000000E+00  0.00000000000E+00  0.37414231843E+01  0.37414231843E+01  0.00000000000E+00 0. -1.
         13   -1    0    0    0    0 -0.00000000000E+00 -0.00000000000E+00 -0.10000000000E+04  0.10000000000E+04  0.00000000000E+00 0.  1.
    9000005    2    1    2  501    0  0.38391055962E+01  0.32205220214E+02 -0.92342109725E+03  0.92400928807E+03  0.58929319599E+01 0.  0.
         13    1    3    3    0    0  0.14091646608E+01  0.28353840293E+02 -0.78379892032E+03  0.78431286710E+03  0.00000000000E+00 0.  1.
          3    1    3    3  501    0  0.24299409353E+01  0.38513799211E+01 -0.13962217693E+03  0.13969642097E+03  0.00000000000E+00 0.  1.
         -3    1    1    2    0  502 -0.38391055962E+01 -0.32205220214E+02 -0.72837479563E+02  0.79732135115E+02  0.00000000000E+00 0. -1.
<mgrwt>
<rscale>  1 0.30000000E+03</rscale>
<asrwt>0</asrwt>
<pdfrwt beam="1">  1       21 0.13605204E-01 0.30000000E+03</pdfrwt>
<pdfrwt beam="2">0</pdfrwt>
<totfact> 0.49287064E+03</totfact>
</mgrwt>
</event>
<event>
 6    1  0.1295671E-001  0.3000000E+03  0.7818608E-02  0.1093470E+00
         21   -1    0    0  501  502  0.00000000000E+00  0.00000000000E+00  0.17018009576E+01  0.17018009576E+01  0.00000000000E+00 0. -1.
         13   -1    0    0    0    0 -0.00000000000E+00 -0.00000000000E+00 -0.10000000000E+04  0.10000000000E+04  0.00000000000E+00 0.  1.
    9000005    2    1    2  501    0  0.33725666519E+02 -0.27408470065E+01 -0.78500065535E+03  0.78573704696E+03  0.34271328230E+01 0.  0.
         13    1    3    3    0    0  0.10660592479E+01 -0.61428785337E+00 -0.37626187366E+02  0.37646298723E+02  0.00000000000E+00 0.  1.
          3    1    3    3  501    0  0.32659607271E+02 -0.21265591531E+01 -0.74737446798E+03  0.74809074823E+03  0.00000000000E+00 0.  1.
         -3    1    1    2    0  502 -0.33725666519E+02  0.27408470065E+01 -0.21329754370E+03  0.21596475400E+03  0.00000000000E+00 0. -1.
<mgrwt>
<rscale>  1 0.30000000E+03</rscale>
<asrwt>0</asrwt>
<pdfrwt beam="1">  1       21 0.61883802E-02 0.30000000E+03</pdfrwt>
<pdfrwt beam="2">0</pdfrwt>
<totfact> 0.19976956E+04</totfact>
</mgrwt>
</event>
<event>
 6    1  0.1295671E-001  0.3000000E+03  0.7818608E-02  0.1093470E+00
         21   -1    0    0  501  502  0.00000000000E+00  0.00000000000E+00  0.13680925256E+01  0.13680925256E+01  0.00000000000E+00 0. -1.
         13   -1    0    0    0    0 -0.00000000000E+00 -0.00000000000E+00 -0.10000000000E+04  0.10000000000E+04  0.00000000000E+00 0.  1.
    9000005    2    1    2  501    0  0.29670622507E+02  0.21900690231E+02 -0.52075938559E+03  0.52207472387E+03  0.34195823131E+01 0.  0.
         13    1    3    3    0    0  0.46098220200E+01  0.49671920126E+01 -0.10101135795E+03  0.10123842102E+03  0.00000000000E+00 0.  1.
          3    1    3    3  501    0  0.25060800487E+02  0.16933498218E+02 -0.41974802764E+03  0.42083630284E+03  0.00000000000E+00 0.  1.
         -1    1    1    2    0  502 -0.29670622507E+02 -0.21900690231E+02 -0.47787252188E+03  0.47929336866E+03  0.00000000000E+00 0. -1.
<mgrwt>
<rscale>  1 0.30000000E+03</rscale>
<asrwt>0</asrwt>
<pdfrwt beam="1">  1       21 0.49748924E-02 0.30000000E+03</pdfrwt>
<pdfrwt beam="2">0</pdfrwt>
<totfact> 0.29052886E+04</totfact>
</mgrwt>
</event>
<event>
 6    1  0.1295671E-001  0.3000000E+03  0.7818608E-02  0.1093470E+00
         21   -1    0    0  501  502  0.00000000000E+00  0.00000000000E+00  0.11049596315E+01  0.11049596315E+01  0.00000000000E+00 0. -1.
         13   -1    0    0    0    0 -0.00000000000E+00 -0.00000000000E+00 -0.10000000000E+04  0.10000000000E+04  0.00000000000E+00 0.  1.
    9000005    2    1    2  501    0 -0.12731378121E+02  0.27229138113E+02 -0.70786978470E+03  0.70853152716E+03  0.58119650136E+01 0.  0.
         13    1    3    3    0    0 -0.92420787693E+01  0.19139983847E+02 -0.55635387114E+03  0.55675971921E+03  0.00000000000E+00 0.  1.
          3    1    3    3  501    0 -0.34892993518E+01  0.80891542652E+01 -0.15151591356E+03  0.15177180795E+03  0.00000000000E+00 0.  1.
         -3    1    1    2    0  502  0.12731378121E+02 -0.27229138113E+02 -0.29102525567E+03  0.29257343247E+03  0.00000000000E+00 0. -1.
<mgrwt>
<rscale>  1 0.30000000E+03</rscale>
<asrwt>0</asrwt>
<pdfrwt beam="1">  1       21 0.40180435E-02 0.30000000E+03</pdfrwt>
<pdfrwt beam="2">0</pdfrwt>
<totfact> 0.41729800E+04</totfact>
</mgrwt>
</event>
<event>
 6    1  0.1295671E-001  0.3000000E+03  0.7818608E-02  0.1093470E+00
         21   -1    0    0  501  502  0.00000000000E+00  0.00000000000E+00  0.49817383350E+01  0.49817383350E+01  0.00000000000E+00 0. -1.
         13   -1    0    0    0    0 -0.00000000000E+00 -0.00000000000E+00 -0.10000000000E+04  0.10000000000E+04  0.00000000000E+00 0.  1.
    9000005    2    1    2  501    0  0.30315977364E+02  0.10879761584E+02 -0.94459049809E+03  0.94514540293E+03  0.33460273290E+01 0.  0.
         13    1    3    3    0    0  0.49293951207E+01  0.93220196415E+00 -0.17572009557E+03  0.17579169469E+03  0.00000000000E+00 0.  1.
          3    1    3    3  501    0  0.25386582243E+02  0.99475596195E+01 -0.76887040253E+03  0.76935370824E+03  0.00000000000E+00 0.  1.
         -1    1    1    2    0  502 -0.30315977364E+02 -0.10879761584E+02 -0.50427763570E+02  0.59836335402E+02  0.00000000000E+00 0. -1.
<mgrwt>
<rscale>  1 0.30000000E+03</rscale>
<asrwt>0</asrwt>
<pdfrwt beam="1">  1       21 0.18115450E-01 0.30000000E+03</pdfrwt>
<pdfrwt beam="2">0</pdfrwt>
<totfact> 0.28944756E+03</totfact>
</mgrwt>
</event>
<event>
 6    1  0.1295671E-001  0.3000000E+03  0.7818608E-02  0.1093470E+00
         21   -1    0    0  501  502  0.00000000000E+00  0.00000000000E+00  0.17495838940E+01  0.17495838940E+01  0.00000000000E+00 0. -1.
         13   -1    0    0    0    0 -0.00000000000E+00 -0.00000000000E+00 -0.10000000000E+04  0.10000000000E+04  0.00000000000E+00 0.  1.
    9000005    2    1    2  501    0  0.30430248377E+02  0.13263282899E+02 -0.80332114675E+03  0.80401406674E+03  0.34409334117E+01 0.  0.
         13    1    3    3    0    0  0.17558385007E+02  0.59176000120E+01 -0.43116978641E+03  0.43156772306E+03  0.00000000000E+00 0.  1.
          3    1    3    3  501    0  0.12871863370E+02  0.73456828866E+01 -0.37215136034E+03  0.37244634368E+03  0.00000000000E+00 0.  1.
         -3    1    1    2    0  502 -0.30430248377E+02 -0.13263282899E+02 -0.19492926936E+03  0.19773551715E+03  0.00000000000E+00 0. -1.
<mgrwt>
<rscale>  1 0.30000000E+03</rscale>
<asrwt>0</asrwt>
<pdfrwt beam="1">  1       21 0.63621367E-02 0.30000000E+03</pdfrwt>
<pdfrwt beam="2">0</pdfrwt>
<totfact> 0.19043519E+04</totfact>
</mgrwt>
</event>
<event>
 6    1  0.1295671E-001  0.3000000E+03  0.7818608E-02  0.1093470E+00
         21   -1    0    0  501  502  0.00000000000E+00  0.00000000000E+00  0.14719754178E+01  0.14719754178E+01  0.00000000000E+00 0. -1.
         13   -1    0    0    0    0 -0.00000000000E+00 -0.00000000000E+00 -0.10000000000E+04  0.10000000000E+04  0.00000000000E+00 0.  1.
    9000005    2    1    2  501    0  0.61166326756E+01  0.33201783797E+02 -0.73619124836E+03  0.73697177541E+03  0.31736342873E+01 0.  0.
         13    1    3    3    0    0  0.57406815239E+01  0.27728932206E+02 -0.59356361225E+03  0.59423868176E+03  0.00000000000E+00 0.  1.
          3    1    3    3  501    0  0.37595115170E+00  0.54728515909E+01 -0.14262763610E+03  0.14273309366E+03  0.00000000000E+00 0.  1.
         -3    1    1    2    0  502 -0.61166326756E+01 -0.33201783797E+02 -0.26233677623E+03  0.26450020001E+03  0.00000000000E+00 0. -1.
<mgrwt>
<rscale>  1 0.30000000E+03</rscale>
<asrwt>0</asrwt>
<pdfrwt beam="1">  1       21 0.53526492E-02 0.30000000E+03</pdfrwt>
<pdfrwt beam="2">0</pdfrwt>
<totfact> 0.25639572E+04</totfact>
</mgrwt>
</event>
<event>
 6    1  0.1295671E-001  0.3000000E+03  0.7818608E-02  0.1093470E+00
         21   -1    0    0  501  502  0.00000000000E+00  0.00000000000E+00  0.28771496580E+01  0.28771496580E+01  0.00000000000E+00 0. -1.
         13   -1    0    0    0    0 -0.00000000000E+00 -0.00000000000E+00 -0.10000000000E+04  0.10000000000E+04  0.00000000000E+00 0.  1.
    9000005    2    1    2  501    0  0.11111148116E+02 -0.36081857114E+02 -0.85453327223E+03  0.85537411304E+03  0.35216312020E+01 0.  0.
         13    1    3    3    0    0  0.79059553674E+01 -0.28983574676E+02 -0.70089021639E+03  0.70153378191E+03  0.00000000000E+00 0.  1.
          1    1    3    3  501    0  0.32051927484E+01 -0.70982824380E+01 -0.15364305584E+03  0.15384033113E+03  0.00000000000E+00 0.  1.
         -3    1    1    2    0  502 -0.11111148116E+02  0.36081857114E+02 -0.14258957811E+03  0.14750303662E+03  0.00000000000E+00 0. -1.
<mgrwt>
<rscale>  1 0.30000000E+03</rscale>
<asrwt>0</asrwt>
<pdfrwt beam="1">  1       21 0.10462384E-01 0.30000000E+03</pdfrwt>
<pdfrwt beam="2">0</pdfrwt>
<totfact> 0.79347447E+03</totfact>
</mgrwt>
</event>
<event>
 6    1  0.1295671E-001  0.3000000E+03  0.7818608E-02  0.1093470E+00
         21   -1    0    0  501  502  0.00000000000E+00  0.00000000000E+00  0.43093265655E+01  0.43093265655E+01  0.00000000000E+00 0. -1.
         13   -1    0    0    0    0 -0.00000000000E+00 -0.00000000000E+00 -0.10000000000E+04  0.10000000000E+04  0.00000000000E+00 0.  1.
    9000005    2    1    2  501    0 -0.42925508329E+02 -0.74076894744E+01 -0.12544504994E+03  0.13297419107E+03  0.69427522628E+01 0.  0.
         13    1    3    3    0    0 -0.33938576757E+02 -0.30138361558E+01 -0.94729323580E+02  0.10067052670E+03  0.00000000000E+00 0.  1.
          1    1    3    3  501    0 -0.89869315713E+01 -0.43938533187E+01 -0.30715726359E+02  0.32303664371E+02  0.00000000000E+00 0.  1.
         -3    1    1    2    0  502  0.42925508329E+02  0.74076894744E+01 -0.87024562350E+03  0.87133513549E+03  0.00000000000E+00 0. -1.
<mgrwt>
<rscale>  1 0.30000000E+03</rscale>
<asrwt>0</asrwt>
<pdfrwt beam="1">  1       21 0.15670311E-01 0.30000000E+03</pdfrwt>
<pdfrwt beam="2">0</pdfrwt>
<totfact> 0.37970964E+03</totfact>
</mgrwt>
</event>
<event>
 6    1  0.1295671E-001  0.3000000E+03  0.7818608E-02  0.1093470E+00
         21   -1    0    0  501  502  0.00000000000E+00  0.00000000000E+00  0.28041216729E+01  0.28041216729E+01  0.00000000000E+00 0. -1.
         13   -1    0    0    0    0 -0.00000000000E+00 -0.00000000000E+00 -0.10000000000E+04  0.10000000000E+04  0.00000000000E+00 0.  1.
    9000005    2    1    2  501    0 -0.20512875595E+02  0.24362845980E+02 -0.89904709861E+03  0.89961735271E+03  0.33718607157E+01 0.  0.
         13    1    3    3    0    0 -0.14935745064E+02  0.18037845276E+02 -0.70022033003E+03  0.70061184042E+03  0.00000000000E+00 0.  1.
          1    1    3    3  501    0 -0.55771305309E+01  0.63250007047E+01 -0.19882676858E+03  0.19900551229E+03  0.00000000000E+00 0.  1.
         -3    1    1    2    0  502  0.20512875595E+02 -0.24362845980E+02 -0.98148779714E+02  0.10318676896E+03  0.00000000000E+00 0. -1.
<mgrwt>
<rscale>  1 0.30000000E+03</rscale>
<asrwt>0</asrwt>
<pdfrwt beam="1">  1       21 0.10196828E-01 0.30000000E+03</pdfrwt>
<pdfrwt beam="2">0</pdfrwt>
<totfact> 0.83085492E+03</totfact>
</mgrwt>
</event>
<event>
 6    1  0.1295671E-001  0.3000000E+03  0.7818608E-02  0.1093470E+00
         21   -1    0    0  501  502  0.00000000000E+00  0.00000000000E+00  0.29796983490E+01  0.29796983490E+01  0.00000000000E+00 0. -1.
         13   -1    0    0    0    0 -0.00000000000E+00 -0.00000000000E+00 -0.10000000000E+04  0.10000000000E+04  0.00000000000E+00 0.  1.
    9000005    2    1    2  501    0  0.83367878252E+01  0.43949436794E+02 -0.78559704225E+03  0.78687590467E+03  0.31498469900E+01 0.  0.
         13    1    3    3    0    0  0.42367851033E+01  0.18450242742E+02 -0.30833888589E+03  0.30891945610E+03  0.00000000000E+00 0.  1.
          1    1    3    3  501    0  0.41000027219E+01  0.25499194052E+02 -0.47725815636E+03  0.47795644857E+03  0.00000000000E+00 0.  1.
         -1    1    1    2    0  502 -0.83367878252E+01 -0.43949436794E+02 -0.21142325940E+03  0.21610379368E+03  0.00000000000E+00 0. -1.
<mgrwt>
<rscale>  1 0.30000000E+03</rscale>
<asrwt>0</asrwt>
<pdfrwt beam="1">  1       21 0.10835290E-01 0.30000000E+03</pdfrwt>
<pdfrwt beam="2">0</pdfrwt>
<totfact> 0.74514345E+03</totfact>
</mgrwt>
</event>
<event>
 6    1  0.1295671E-001  0.3000000E+03  0.7818608E-02  0.1093470E+00
         21   -1    0    0  501  502  0.00000000000E+00  0.00000000000E+00  0.33366628372E+01  0.33366628372E+01  0.00000000000E+00 0. -1.
         13   -1    0    0    0    0 -0.00000000000E+00 -0.00000000000E+00 -0.10000000000E+04  0.10000000000E+04  0.00000000000E+00 0.  1.
    9000005    2    1    2  501    0  0.31803936363E+02  0.31787442762E+01 -0.91612562246E+03  0.91668841835E+03  0.31472883738E+01 0.  0.
         13    1    3    3    0    0  0.28570985133E+02  0.29028005477E+01 -0.79230630470E+03  0.79282659385E+03  0.00000000000E+00 0.  1.
          1    1    3    3  501    0  0.32329512305E+01  0.27594372854E+00 -0.12381931776E+03  0.12386182450E+03  0.00000000000E+00 0.  1.
         -1    1    1    2    0  502 -0.31803936363E+02 -0.31787442762E+01 -0.80537714705E+02  0.86648244490E+02  0.00000000000E+00 0. -1.
<mgrwt>
<rscale>  1 0.30000000E+03</rscale>
<asrwt>0</asrwt>
<pdfrwt beam="1">  1       21 0.12133345E-01 0.30000000E+03</pdfrwt>
<pdfrwt beam="2">0</pdfrwt>
<totfact> 0.60739871E+03</totfact>
</mgrwt>
</event>
<event>
 6    1  0.1295671E-001  0.3000000E+03  0.7818608E-02  0.1093470E+00
         21   -1    0    0  501  502  0.00000000000E+00  0.00000000000E+00  0.11767242396E+01  0.11767242396E+01  0.00000000000E+00 0. -1.
         13   -1    0    0    0    0 -0.00000000000E+00 -0.00000000000E+00 -0.10000000000E+04  0.10000000000E+04  0.00000000000E+00 0.  1.
    9000005    2    1    2  501    0 -0.27445394400E+02 -0.13765556241E+02 -0.71823060733E+03  0.71890914589E+03  0.56933752226E+01 0.  0.
         13    1    3    3    0    0 -0.10517399956E+02 -0.81657674910E+01 -0.28156002102E+03  0.28187469006E+03  0.00000000000E+00 0.  1.
          1    1    3    3  501    0 -0.16927994444E+02 -0.55997887497E+01 -0.43667058631E+03  0.43703445583E+03  0.00000000000E+00 0.  1.
         -3    1    1    2    0  502  0.27445394400E+02  0.13765556241E+02 -0.28059266843E+03  0.28226757835E+03  0.00000000000E+00 0. -1.
<mgrwt>
<rscale>  1 0.30000000E+03</rscale>
<asrwt>0</asrwt>
<pdfrwt beam="1">  1       21 0.42790063E-02 0.30000000E+03</pdfrwt>
<pdfrwt beam="2">0</pdfrwt>
<totfact> 0.37526020E+04</totfact>
</mgrwt>
</event>
<event>
 6    1  0.1295671E-001  0.3000000E+03  0.7818608E-02  0.1093470E+00
         21   -1    0    0  501  502  0.00000000000E+00  0.00000000000E+00  0.19188420438E+01  0.19188420438E+01  0.00000000000E+00 0. -1.
         13   -1    0    0    0    0 -0.00000000000E+00 -0.00000000000E+00 -0.10000000000E+04  0.10000000000E+04  0.00000000000E+00 0.  1.
    9000005    2    1    2  501    0 -0.19630618567E+02 -0.33786146464E+02 -0.72516006413E+03  0.72621467389E+03  0.19414160089E+01 0.  0.
         13    1    3    3    0    0 -0.69373644503E+01 -0.12715616879E+02 -0.28477832078E+03  0.28514646399E+03  0.00000000000E+00 0.  1.
          1    1    3    3  501    0 -0.12693254117E+02 -0.21070529585E+02 -0.44038174335E+03  0.44106820991E+03  0.00000000000E+00 0.  1.
         -1    1    1    2    0  502  0.19630618567E+02  0.33786146464E+02 -0.27292109383E+03  0.27570416815E+03  0.00000000000E+00 0. -1.
<mgrwt>
<rscale>  1 0.30000000E+03</rscale>
<asrwt>0</asrwt>
<pdfrwt beam="1">  1       21 0.69776221E-02 0.30000000E+03</pdfrwt>
<pdfrwt beam="2">0</pdfrwt>
<totfact> 0.16225439E+04</totfact>
</mgrwt>
</event>
<event>
 6    1  0.1295671E-001  0.3000000E+03  0.7818608E-02  0.1093470E+00
         21   -1    0    0  501  502  0.00000000000E+00  0.00000000000E+00  0.31929862651E+01  0.31929862651E+01  0.00000000000E+00 0. -1.
         13   -1    0    0    0    0 -0.00000000000E+00 -0.00000000000E+00 -0.10000000000E+04  0.10000000000E+04  0.00000000000E+00 0.  1.
    9000005    2    1    2  501    0  0.24954599599E+02  0.23594222504E+02 -0.89657807753E+03  0.89724366333E+03  0.38108935721E+01 0.  0.
         13    1    3    3    0    0  0.57280051415E+01  0.73497397379E+01 -0.21858308115E+03  0.21878160819E+03  0.00000000000E+00 0.  1.
          1    1    3    3  501    0  0.19226594457E+02  0.16244482766E+02 -0.67799499638E+03  0.67846205515E+03  0.00000000000E+00 0.  1.
         -3    1    1    2    0  502 -0.24954599599E+02 -0.23594222504E+02 -0.10022893621E+03  0.10594932293E+03  0.00000000000E+00 0. -1.
<mgrwt>
<rscale>  1 0.30000000E+03</rscale>
<asrwt>0</asrwt>
<pdfrwt beam="1">  1       21 0.11610884E-01 0.30000000E+03</pdfrwt>
<pdfrwt beam="2">0</pdfrwt>
<totfact> 0.65784608E+03</totfact>
</mgrwt>
</event>
<event>
 6    1  0.1295671E-001  0.3000000E+03  0.7818608E-02  0.1093470E+00
         21   -1    0    0  501  502  0.00000000000E+00  0.00000000000E+00  0.11817353191E+01  0.11817353191E+01  0.00000000000E+00 0. -1.
         13   -1    0    0    0    0 -0.00000000000E+00 -0.00000000000E+00 -0.10000000000E+04  0.10000000000E+04  0.00000000000E+00 0.  1.
    9000005    2    1    2  501    0  0.20094725424E+02  0.25299496208E+02 -0.66804330948E+03  0.66883262145E+03  0.33689290273E+01 0.  0.
         13    1    3    3    0    0  0.60034041680E+01  0.61569660311E+01 -0.15373231111E+03  0.15397263578E+03  0.00000000000E+00 0.  1.
          3    1    3    3  501    0  0.14091321256E+02  0.19142530177E+02 -0.51431099837E+03  0.51485998567E+03  0.00000000000E+00 0.  1.
         -1    1    1    2    0  502 -0.20094725424E+02 -0.25299496208E+02 -0.33077495521E+03  0.33234911387E+03  0.00000000000E+00 0. -1.
<mgrwt>
<rscale>  1 0.30000000E+03</rscale>
<asrwt>0</asrwt>
<pdfrwt beam="1">  1       21 0.42972284E-02 0.30000000E+03</pdfrwt>
<pdfrwt beam="2">0</pdfrwt>
<totfact> 0.37257348E+04</totfact>
</mgrwt>
</event>
<event>
 6    1  0.1295671E-001  0.3000000E+03  0.7818608E-02  0.1093470E+00
         21   -1    0    0  501  502  0.00000000000E+00  0.00000000000E+00  0.19533465734E+01  0.19533465734E+01  0.00000000000E+00 0. -1.
         13   -1    0    0    0    0 -0.00000000000E+00 -0.00000000000E+00 -0.10000000000E+04  0.10000000000E+04  0.00000000000E+00 0.  1.
    9000005    2    1    2  501    0  0.33984690726E+02  0.26713757057E+02 -0.59844275096E+03  0.60001819896E+03  0.44191501102E+01 0.  0.
         13    1    3    3    0    0  0.35294384516E+01  0.42326119017E+01 -0.89647940176E+02  0.89817176069E+02  0.00000000000E+00 0.  1.
          3    1    3    3  501    0  0.30455252275E+02  0.22481145155E+02 -0.50879481078E+03  0.51020102289E+03  0.00000000000E+00 0.  1.
         -3    1    1    2    0  502 -0.33984690726E+02 -0.26713757057E+02 -0.39960390247E+03  0.40193514762E+03  0.00000000000E+00 0. -1.
<mgrwt>
<rscale>  1 0.30000000E+03</rscale>
<asrwt>0</asrwt>
<pdfrwt beam="1">  1       21 0.71030934E-02 0.30000000E+03</pdfrwt>
<pdfrwt beam="2">0</pdfrwt>
<totfact> 0.15729677E+04</totfact>
</mgrwt>
</event>
<event>
 6    1  0.1295671E-001  0.3000000E+03  0.7818608E-02  0.1093470E+00
         21   -1    0    0  501  502  0.00000000000E+00  0.00000000000E+00  0.13860960615E+01  0.13860960615E+01  0.00000000000E+00 0. -1.
         13   -1    0    0    0    0 -0.00000000000E+00 -0.00000000000E+00 -0.10000000000E+04  0.10000000000E+04  0.00000000000E+00 0.  1.
    9000005    2    1    2  501    0  0.44667418281E+01 -0.36211206394E+02 -0.40371576544E+03  0.40537015799E+03  0.27096991918E+01 0.  0.
         13    1    3    3    0    0  0.28499958900E+01 -0.12595860394E+02 -0.14090906596E+03  0.14149962207E+03  0.00000000000E+00 0.  1.
          3    1    3    3  501    0  0.16167459381E+01 -0.23615346000E+02 -0.26280669948E+03  0.26387053592E+03  0.00000000000E+00 0.  1.
         -3    1    1    2    0  502 -0.44667418281E+01  0.36211206394E+02 -0.59489813850E+03  0.59601593807E+03  0.00000000000E+00 0. -1.
<mgrwt>
<rscale>  1 0.30000000E+03</rscale>
<asrwt>0</asrwt>
<pdfrwt beam="1">  1       21 0.50403599E-02 0.30000000E+03</pdfrwt>
<pdfrwt beam="2">0</pdfrwt>
<totfact> 0.28412494E+04</totfact>
</mgrwt>
</event>
<event>
 6    1  0.1295671E-001  0.3000000E+03  0.7818608E-02  0.1093470E+00
         21   -1    0    0  501  502  0.00000000000E+00  0.00000000000E+00  0.16178430957E+01  0.16178430957E+01  0.00000000000E+00 0. -1.
         13   -1    0    0    0    0 -0.00000000000E+00 -0.00000000000E+00 -0.10000000000E+04  0.10000000000E+04  0.00000000000E+00 0.  1.
    9000005    2    1    2  501    0  0.16925070280E+01 -0.34849796190E+02 -0.74725771541E+03  0.74808114360E+03  0.37324654333E+01 0.  0.
         13    1    3    3    0    0 -0.11743552616E+01 -0.11778898121E+02 -0.24659773834E+03  0.24688168443E+03  0.00000000000E+00 0.  1.
          3    1    3    3  501    0  0.28668622896E+01 -0.23070898069E+02 -0.50065997707E+03  0.50119945918E+03  0.00000000000E+00 0.  1.
         -1    1    1    2    0  502 -0.16925070280E+01  0.34849796190E+02 -0.25112444149E+03  0.25353669949E+03  0.00000000000E+00 0. -1.
<mgrwt>
<rscale>  1 0.30000000E+03</rscale>
<asrwt>0</asrwt>
<pdfrwt beam="1">  1       21 0.58830782E-02 0.30000000E+03</pdfrwt>
<pdfrwt beam="2">0</pdfrwt>
<totfact> 0.21798830E+04</totfact>
</mgrwt>
</event>
<event>
 6    1  0.1295671E-001  0.3000000E+03  0.7818608E-02  0.1093470E+00
         21   -1    0    0  501  502  0.00000000000E+00  0.00000000000E+00  0.17503157251E+01  0.17503157251E+01  0.00000000000E+00 0. -1.
         13   -1    0    0    0    0 -0.00000000000E+00 -0.00000000000E+00 -0.10000000000E+04  0.10000000000E+04  0.00000000000E+00 0.  1.
    9000005    2    1    2  501    0 -0.26268564265E+02  0.22637028456E+02 -0.77899134072E+03  0.77976677186E+03  0.24974113543E+01 0.  0.
         13    1    3    3    0    0 -0.10697054761E+02  0.93882014891E+01 -0.29266846663E+03  0.29301432843E+03  0.00000000000E+00 0.  1.
          3    1    3    3  501    0 -0.15571509505E+02  0.13248826967E+02 -0.48632287409E+03  0.48675244343E+03  0.00000000000E+00 0.  1.
         -3    1    1    2    0  502  0.26268564265E+02 -0.22637028456E+02 -0.21925834356E+03  0.22198354386E+03  0.00000000000E+00 0. -1.
<mgrwt>
<rscale>  1 0.30000000E+03</rscale>
<asrwt>0</asrwt>
<pdfrwt beam="1">  1       21 0.63647979E-02 0.30000000E+03</pdfrwt>
<pdfrwt beam="2">0</pdfrwt>
<totfact> 0.19029751E+04</totfact>
</mgrwt>
</event>
<event>
 6    1  0.1295671E-001  0.3000000E+03  0.7818608E-02  0.1093470E+00
         21   -1    0    0  501  502  0.00000000000E+00  0.00000000000E+00  0.29319048851E+01  0.29319048851E+01  0.00000000000E+00 0. -1.
         13   -1    0    0    0    0 -0.00000000000E+00 -0.00000000000E+00 -0.10000000000E+04  0.10000000000E+04  0.00000000000E+00 0.  1.
    9000005    2    1    2  501    0 -0.32934416018E+02  0.27641204760E+01 -0.89561677250E+03  0.89623285624E+03  0.34078305177E+01 0.  0.
         13    1    3    3    0    0 -0.21530924109E+02  0.27688189341E+01 -0.62143549333E+03  0.62181453781E+03  0.00000000000E+00 0.  1.
          3    1    3    3  501    0 -0.11403491908E+02 -0.46984581130E-02 -0.27418127917E+03  0.27441831844E+03  0.00000000000E+00 0.  1.
         -3    1    1    2    0  502  0.32934416018E+02 -0.27641204760E+01 -0.10145132261E+03  0.10669904864E+03  0.00000000000E+00 0. -1.
<mgrwt>
<rscale>  1 0.30000000E+03</rscale>
<asrwt>0</asrwt>
<pdfrwt beam="1">  1       21 0.10661495E-01 0.30000000E+03</pdfrwt>
<pdfrwt beam="2">0</pdfrwt>
<totfact> 0.76709684E+03</totfact>
</mgrwt>
</event>
<event>
 6    1  0.1295671E-001  0.3000000E+03  0.7818608E-02  0.1093470E+00
         21   -1    0    0  501  502  0.00000000000E+00  0.00000000000E+00  0.26726988513E+01  0.26726988513E+01  0.00000000000E+00 0. -1.
         13   -1    0    0    0    0 -0.00000000000E+00 -0.00000000000E+00 -0.10000000000E+04  0.10000000000E+04  0.00000000000E+00 0.  1.
    9000005    2    1    2  501    0  0.33370703467E+02 -0.38814887694E+02 -0.43228495017E+03  0.43531649878E+03  0.31585775904E+01 0.  0.
         13    1    3    3    0    0  0.13048820943E+02 -0.17563313378E+02 -0.18319208121E+03  0.18449412002E+03  0.00000000000E+00 0.  1.
          3    1    3    3  501    0  0.20321882524E+02 -0.21251574316E+02 -0.24909286896E+03  0.25082237876E+03  0.00000000000E+00 0.  1.
         -3    1    1    2    0  502 -0.33370703467E+02  0.38814887694E+02 -0.56504235098E+03  0.56735620007E+03  0.00000000000E+00 0. -1.
<mgrwt>
<rscale>  1 0.30000000E+03</rscale>
<asrwt>0</asrwt>
<pdfrwt beam="1">  1       21 0.97189254E-02 0.30000000E+03</pdfrwt>
<pdfrwt beam="2">0</pdfrwt>
<totfact> 0.90524471E+03</totfact>
</mgrwt>
</event>
<event>
 6    1  0.1295671E-001  0.3000000E+03  0.7818608E-02  0.1093470E+00
         21   -1    0    0  501  502  0.00000000000E+00  0.00000000000E+00  0.19512798395E+01  0.19512798395E+01  0.00000000000E+00 0. -1.
         13   -1    0    0    0    0 -0.00000000000E+00 -0.00000000000E+00 -0.10000000000E+04  0.10000000000E+04  0.00000000000E+00 0.  1.
    9000005    2    1    2  501    0 -0.14380797919E+02  0.31898698188E+02 -0.80438420056E+03  0.80515117708E+03  0.31845791886E+01 0.  0.
         13    1    3    3    0    0 -0.30036573149E+01  0.97140207949E+01 -0.24975587030E+03  0.24996275504E+03  0.00000000000E+00 0.  1.
          3    1    3    3  501    0 -0.11377140604E+02  0.22184677393E+02 -0.55462833026E+03  0.55518842204E+03  0.00000000000E+00 0.  1.
         -1    1    1    2    0  502  0.14380797919E+02 -0.31898698188E+02 -0.19366451960E+03  0.19680010276E+03  0.00000000000E+00 0. -1.
<mgrwt>
<rscale>  1 0.30000000E+03</rscale>
<asrwt>0</asrwt>
<pdfrwt beam="1">  1       21 0.70955780E-02 0.30000000E+03</pdfrwt>
<pdfrwt beam="2">0</pdfrwt>
<totfact> 0.15758717E+04</totfact>
</mgrwt>
</event>
<event>
 6    1  0.1295671E-001  0.3000000E+03  0.7818608E-02  0.1093470E+00
         21   -1    0    0  501  502  0.00000000000E+00  0.00000000000E+00  0.10816783318E+01  0.10816783318E+01  0.00000000000E+00 0. -1.
         13   -1    0    0    0    0 -0.00000000000E+00 -0.00000000000E+00 -0.10000000000E+04  0.10000000000E+04  0.00000000000E+00 0.  1.
    9000005    2    1    2  501    0 -0.22717102613E+02  0.23565999824E+02 -0.53213339115E+03  0.53315049273E+03  0.34754602013E+01 0.  0.
         13    1    3    3    0    0 -0.49023030809E+01  0.53959179772E+01 -0.96896832328E+02  0.97170698369E+02  0.00000000000E+00 0.  1.
          3    1    3    3  501    0 -0.17814799533E+02  0.18170081847E+02 -0.43523655882E+03  0.43597979436E+03  0.00000000000E+00 0.  1.
         -1    1    1    2    0  502  0.22717102613E+02 -0.23565999824E+02 -0.46678493052E+03  0.46793118560E+03  0.00000000000E+00 0. -1.
<mgrwt>
<rscale>  1 0.30000000E+03</rscale>
<asrwt>0</asrwt>
<pdfrwt beam="1">  1       21 0.39333840E-02 0.30000000E+03</pdfrwt>
<pdfrwt beam="2">0</pdfrwt>
<totfact> 0.43252976E+04</totfact>
</mgrwt>
</event>
<event>
 6    1  0.1295671E-001  0.3000000E+03  0.7818608E-02  0.1093470E+00
         21   -1    0    0  501  502  0.00000000000E+00  0.00000000000E+00  0.21547364154E+01  0.21547364154E+01  0.00000000000E+00 0. -1.
         13   -1    0    0    0    0 -0.00000000000E+00 -0.00000000000E+00 -0.10000000000E+04  0.10000000000E+04  0.00000000000E+00 0.  1.
    9000005    2    1    2  501    0 -0.30463663275E+02  0.29541300796E+02 -0.29764319152E+03  0.30066798319E+03  0.30072283017E+01 0.  0.
         13    1    3    3    0    0 -0.19604307601E+02  0.18426705095E+02 -0.17868911265E+03  0.18070326869E+03  0.00000000000E+00 0.  1.
          1    1    3    3  501    0 -0.10859355674E+02  0.11114595701E+02 -0.11895407887E+03  0.11996471449E+03  0.00000000000E+00 0.  1.
         -1    1    1    2    0  502  0.30463663275E+02 -0.29541300796E+02 -0.70020207206E+03  0.70148675323E+03  0.00000000000E+00 0. -1.
<mgrwt>
<rscale>  1 0.30000000E+03</rscale>
<asrwt>0</asrwt>
<pdfrwt beam="1">  1       21 0.78354217E-02 0.30000000E+03</pdfrwt>
<pdfrwt beam="2">0</pdfrwt>
<totfact> 0.13248600E+04</totfact>
</mgrwt>
</event>
<event>
 6    1  0.1295671E-001  0.3000000E+03  0.7818608E-02  0.1093470E+00
         21   -1    0    0  501  502  0.00000000000E+00  0.00000000000E+00  0.35890061040E+01  0.35890061040E+01  0.00000000000E+00 0. -1.
         13   -1    0    0    0    0 -0.00000000000E+00 -0.00000000000E+00 -0.10000000000E+04  0.10000000000E+04  0.00000000000E+00 0.  1.
    9000005    2    1    2  501    0 -0.58481793656E+02  0.13801192802E+01 -0.60457960635E+03  0.60741497719E+03  0.37985765632E+01 0.  0.
         13    1    3    3    0    0 -0.51385230363E+02  0.48724466104E+00 -0.51959118917E+03  0.52212611807E+03  0.00000000000E+00 0.  1.
          3    1    3    3  501    0 -0.70965632931E+01  0.89287461918E+00 -0.84988417174E+02  0.85288859117E+02  0.00000000000E+00 0.  1.
         -3    1    1    2    0  502  0.58481793656E+02 -0.13801192802E+01 -0.39183138755E+03  0.39617402892E+03  0.00000000000E+00 0. -1.
<mgrwt>
<rscale>  1 0.30000000E+03</rscale>
<asrwt>0</asrwt>
<pdfrwt beam="1">  1       21 0.13050959E-01 0.30000000E+03</pdfrwt>
<pdfrwt beam="2">0</pdfrwt>
<totfact> 0.53183866E+03</totfact>
</mgrwt>
</event>
<event>
 6    1  0.1295671E-001  0.3000000E+03  0.7818608E-02  0.1093470E+00
         21   -1    0    0  501  502  0.00000000000E+00  0.00000000000E+00  0.13780466906E+01  0.13780466906E+01  0.00000000000E+00 0. -1.
         13   -1    0    0    0    0 -0.00000000000E+00 -0.00000000000E+00 -0.10000000000E+04  0.10000000000E+04  0.00000000000E+00 0.  1.
    9000005    2    1    2  501    0 -0.12738934564E+02 -0.30538944986E+02 -0.72358616076E+03  0.72435892316E+03  0.48999911446E+01 0.  0.
         13    1    3    3    0    0 -0.91318523747E+01 -0.19691710700E+02 -0.42485276276E+03  0.42540689254E+03  0.00000000000E+00 0.  1.
          1    1    3    3  501    0 -0.36070821896E+01 -0.10847234285E+02 -0.29873339800E+03  0.29895203063E+03  0.00000000000E+00 0.  1.
         -1    1    1    2    0  502  0.12738934564E+02  0.30538944986E+02 -0.27503579255E+03  0.27701912353E+03  0.00000000000E+00 0. -1.
<mgrwt>
<rscale>  1 0.30000000E+03</rscale>
<asrwt>0</asrwt>
<pdfrwt beam="1">  1       21 0.50110894E-02 0.30000000E+03</pdfrwt>
<pdfrwt beam="2">0</pdfrwt>
<totfact> 0.28696068E+04</totfact>
</mgrwt>
</event>
<event>
 6    1  0.1295671E-001  0.3000000E+03  0.7818608E-02  0.1093470E+00
         21   -1    0    0  501  502  0.00000000000E+00  0.00000000000E+00  0.16715775848E+01  0.16715775848E+01  0.00000000000E+00 0. -1.
         13   -1    0    0    0    0 -0.00000000000E+00 -0.00000000000E+00 -0.10000000000E+04  0.10000000000E+04  0.00000000000E+00 0.  1.
    9000005    2    1    2  501    0  0.35039894131E+02  0.40356921322E+01 -0.24813886607E+03  0.25065330122E+03  0.31779810974E+01 0.  0.
         13    1    3    3    0    0  0.15906049530E+02  0.38628786062E+00 -0.10690223553E+03  0.10807978346E+03  0.00000000000E+00 0.  1.
          3    1    3    3  501    0  0.19133844601E+02  0.36494042716E+01 -0.14123663054E+03  0.14257351776E+03  0.00000000000E+00 0.  1.
         -1    1    1    2    0  502 -0.35039894131E+02 -0.40356921322E+01 -0.75018955635E+03  0.75101827637E+03  0.00000000000E+00 0. -1.
<mgrwt>
<rscale>  1 0.30000000E+03</rscale>
<asrwt>0</asrwt>
<pdfrwt beam="1">  1       21 0.60784768E-02 0.30000000E+03</pdfrwt>
<pdfrwt beam="2">0</pdfrwt>
<totfact> 0.20604556E+04</totfact>
</mgrwt>
</event>
<event>
 6    1  0.1295671E-001  0.3000000E+03  0.7818608E-02  0.1093470E+00
         21   -1    0    0  501  502  0.00000000000E+00  0.00000000000E+00  0.51793385785E+01  0.51793385785E+01  0.00000000000E+00 0. -1.
         13   -1    0    0    0    0 -0.00000000000E+00 -0.00000000000E+00 -0.10000000000E+04  0.10000000000E+04  0.00000000000E+00 0.  1.
    9000005    2    1    2  501    0 -0.63179741426E+01 -0.32461426213E+02 -0.94375921742E+03  0.94434405233E+03  0.32508033641E+01 0.  0.
         13    1    3    3    0    0  0.21166534593E+00 -0.46415534965E+01 -0.12511012760E+03  0.12519637714E+03  0.00000000000E+00 0.  1.
          3    1    3    3  501    0 -0.65296394885E+01 -0.27819872717E+02 -0.81864908982E+03  0.81914767519E+03  0.00000000000E+00 0.  1.
         -3    1    1    2    0  502  0.63179741426E+01  0.32461426213E+02 -0.51061444002E+02  0.60835286246E+02  0.00000000000E+00 0. -1.
<mgrwt>
<rscale>  1 0.30000000E+03</rscale>
<asrwt>0</asrwt>
<pdfrwt beam="1">  1       21 0.18833998E-01 0.30000000E+03</pdfrwt>
<pdfrwt beam="2">0</pdfrwt>
<totfact> 0.26894269E+03</totfact>
</mgrwt>
</event>
<event>
 6    1  0.1295671E-001  0.3000000E+03  0.7818608E-02  0.1093470E+00
         21   -1    0    0  501  502  0.00000000000E+00  0.00000000000E+00  0.10515711092E+01  0.10515711092E+01  0.00000000000E+00 0. -1.
         13   -1    0    0    0    0 -0.00000000000E+00 -0.00000000000E+00 -0.10000000000E+04  0.10000000000E+04  0.00000000000E+00 0.  1.
    9000005    2    1    2  501    0  0.25813018783E+02  0.18110902639E+02 -0.61060330579E+03  0.61142835392E+03  0.37307114737E+01 0.  0.
         13    1    3    3    0    0  0.69822606478E+01  0.56117294618E+01 -0.14449848349E+03  0.14477587922E+03  0.00000000000E+00 0.  1.
          3    1    3    3  501    0  0.18830758135E+02  0.12499173178E+02 -0.46610482230E+03  0.46665247471E+03  0.00000000000E+00 0.  1.
         -1    1    1    2    0  502 -0.25813018783E+02 -0.18110902639E+02 -0.38834512310E+03  0.38962321718E+03  0.00000000000E+00 0. -1.
<mgrwt>
<rscale>  1 0.30000000E+03</rscale>
<asrwt>0</asrwt>
<pdfrwt beam="1">  1       21 0.38239030E-02 0.30000000E+03</pdfrwt>
<pdfrwt beam="2">0</pdfrwt>
<totfact> 0.45355653E+04</totfact>
</mgrwt>
</event>
<event>
 6    1  0.1295671E-001  0.3000000E+03  0.7818608E-02  0.1093470E+00
         21   -1    0    0  501  502  0.00000000000E+00  0.00000000000E+00  0.12111067023E+01  0.12111067023E+01  0.00000000000E+00 0. -1.
         13   -1    0    0    0    0 -0.00000000000E+00 -0.00000000000E+00 -0.10000000000E+04  0.10000000000E+04  0.00000000000E+00 0.  1.
    9000005    2    1    2  501    0 -0.32294899221E+02  0.10483108133E+02 -0.60393652216E+03  0.60490156724E+03  0.37050215817E+01 0.  0.
         13    1    3    3    0    0 -0.11300312297E+02  0.55097863943E+01 -0.21619233579E+03  0.21655756938E+03  0.00000000000E+00 0.  1.
          1    1    3    3  501    0 -0.20994586924E+02  0.49733217383E+01 -0.38774418637E+03  0.38834399786E+03  0.00000000000E+00 0.  1.
         -3    1    1    2    0  502  0.32294899221E+02 -0.10483108133E+02 -0.39485237114E+03  0.39630953946E+03  0.00000000000E+00 0. -1.
<mgrwt>
<rscale>  1 0.30000000E+03</rscale>
<asrwt>0</asrwt>
<pdfrwt beam="1">  1       21 0.44040337E-02 0.30000000E+03</pdfrwt>
<pdfrwt beam="2">0</pdfrwt>
<totfact> 0.35740882E+04</totfact>
</mgrwt>
</event>
<event>
 6    1  0.1295671E-001  0.3000000E+03  0.7818608E-02  0.1093470E+00
         21   -1    0    0  501  502  0.00000000000E+00  0.00000000000E+00  0.11620478263E+01  0.11620478263E+01  0.00000000000E+00 0. -1.
         13   -1    0    0    0    0 -0.00000000000E+00 -0.00000000000E+00 -0.10000000000E+04  0.10000000000E+04  0.00000000000E+00 0.  1.
    9000005    2    1    2  501    0 -0.31897315392E+02  0.11839916935E+02 -0.51481935625E+03  0.51594908060E+03  0.26195119194E+01 0.  0.
         13    1    3    3    0    0 -0.10813045738E+02  0.27830761333E+01 -0.17496359871E+03  0.17531950361E+03  0.00000000000E+00 0.  1.
          3    1    3    3  501    0 -0.21084269653E+02  0.90568408017E+01 -0.33985575753E+03  0.34062957699E+03  0.00000000000E+00 0.  1.
         -1    1    1    2    0  502  0.31897315392E+02 -0.11839916935E+02 -0.48401859593E+03  0.48521296723E+03  0.00000000000E+00 0. -1.
<mgrwt>
<rscale>  1 0.30000000E+03</rscale>
<asrwt>0</asrwt>
<pdfrwt beam="1">  1       21 0.42256374E-02 0.30000000E+03</pdfrwt>
<pdfrwt beam="2">0</pdfrwt>
<totfact> 0.38330455E+04</totfact>
</mgrwt>
</event>
<event>
 6    1  0.1295671E-001  0.3000000E+03  0.7818608E-02  0.1093470E+00
         21   -1    0    0  501  502  0.00000000000E+00  0.00000000000E+00  0.36491506148E+01  0.36491506148E+01  0.00000000000E+00 0. -1.
         13   -1    0    0    0    0 -0.00000000000E+00 -0.00000000000E+00 -0.10000000000E+04  0.10000000000E+04  0.00000000000E+00 0.  1.
    9000005    2    1    2  501    0  0.14285999971E+02 -0.35796085213E+02 -0.88444214688E+03  0.88528949867E+03  0.37597564593E+01 0.  0.
         13    1    3    3    0    0  0.21849078668E+01 -0.78819818520E+01 -0.16035888621E+03  0.16056734365E+03  0.00000000000E+00 0.  1.
          3    1    3    3  501    0  0.12101092104E+02 -0.27914103361E+02 -0.72408326067E+03  0.72472215503E+03  0.00000000000E+00 0.  1.
         -3    1    1    2    0  502 -0.14285999971E+02  0.35796085213E+02 -0.11190870251E+03  0.11835965194E+03  0.00000000000E+00 0. -1.
<mgrwt>
<rscale>  1 0.30000000E+03</rscale>
<asrwt>0</asrwt>
<pdfrwt beam="1">  1       21 0.13269667E-01 0.30000000E+03</pdfrwt>
<pdfrwt beam="2">0</pdfrwt>
<totfact> 0.51592631E+03</totfact>
</mgrwt>
</event>
<event>
 6    1  0.1295671E-001  0.3000000E+03  0.7818608E-02  0.1093470E+00
         21   -1    0    0  501  502  0.00000000000E+00  0.00000000000E+00  0.78859815665E+01  0.78859815665E+01  0.00000000000E+00 0. -1.
         13   -1    0    0    0    0 -0.00000000000E+00 -0.00000000000E+00 -0.10000000000E+04  0.10000000000E+04  0.00000000000E+00 0.  1.
    9000005    2    1    2  501    0  0.81344109216E+02 -0.28231446767E+02 -0.61869695387E+03  0.62467039890E+03  0.36479917761E+01 0.  0.
         13    1    3    3    0    0  0.70605936947E+02 -0.25792106061E+02 -0.53979559186E+03  0.54500432297E+03  0.00000000000E+00 0.  1.
          1    1    3    3  501    0  0.10738172269E+02 -0.24393407057E+01 -0.78901362011E+02  0.79666075930E+02  0.00000000000E+00 0.  1.
         -3    1    1    2    0  502 -0.81344109216E+02  0.28231446767E+02 -0.37341706456E+03  0.38321558267E+03  0.00000000000E+00 0. -1.
<mgrwt>
<rscale>  1 0.30000000E+03</rscale>
<asrwt>0</asrwt>
<pdfrwt beam="1">  1       21 0.28676357E-01 0.30000000E+03</pdfrwt>
<pdfrwt beam="2">0</pdfrwt>
<totfact> 0.11896616E+03</totfact>
</mgrwt>
</event>
<event>
 6    1  0.1295671E-001  0.3000000E+03  0.7818608E-02  0.1093470E+00
         21   -1    0    0  501  502  0.00000000000E+00  0.00000000000E+00  0.14683594365E+01  0.14683594365E+01  0.00000000000E+00 0. -1.
         13   -1    0    0    0    0 -0.00000000000E+00 -0.00000000000E+00 -0.10000000000E+04  0.10000000000E+04  0.00000000000E+00 0.  1.
    9000005    2    1    2  501    0 -0.35397750685E+02  0.55198511667E+01 -0.32431555650E+03  0.32630112273E+03  0.28936131875E+01 0.  0.
         13    1    3    3    0    0 -0.10005048881E+02  0.14710279940E+01 -0.10380590898E+03  0.10429732339E+03  0.00000000000E+00 0.  1.
          3    1    3    3  501    0 -0.25392701803E+02  0.40488231727E+01 -0.22050964752E+03  0.22200379934E+03  0.00000000000E+00 0.  1.
         -1    1    1    2    0  502  0.35397750685E+02 -0.55198511667E+01 -0.67421608406E+03  0.67516723670E+03  0.00000000000E+00 0. -1.
<mgrwt>
<rscale>  1 0.30000000E+03</rscale>
<asrwt>0</asrwt>
<pdfrwt beam="1">  1       21 0.53395001E-02 0.30000000E+03</pdfrwt>
<pdfrwt beam="2">0</pdfrwt>
<totfact> 0.25747717E+04</totfact>
</mgrwt>
</event>
<event>
 6    1  0.1295671E-001  0.3000000E+03  0.7818608E-02  0.1093470E+00
         21   -1    0    0  501  502  0.00000000000E+00  0.00000000000E+00  0.36395983905E+01  0.36395983905E+01  0.00000000000E+00 0. -1.
         13   -1    0    0    0    0 -0.00000000000E+00 -0.00000000000E+00 -0.10000000000E+04  0.10000000000E+04  0.00000000000E+00 0.  1.
    9000005    2    1    2  501    0 -0.28302532089E+02  0.16227390286E+02 -0.92023672485E+03  0.92081945783E+03  0.29124986398E+01 0.  0.
         13    1    3    3    0    0 -0.22056121125E+02  0.11557626657E+02 -0.67732039665E+03  0.67777796581E+03  0.00000000000E+00 0.  1.
          3    1    3    3  501    0 -0.62464109638E+01  0.46697636290E+01 -0.24291632819E+03  0.24304149203E+03  0.00000000000E+00 0.  1.
         -3    1    1    2    0  502  0.28302532089E+02 -0.16227390286E+02 -0.76123676762E+02  0.82820140558E+02  0.00000000000E+00 0. -1.
<mgrwt>
<rscale>  1 0.30000000E+03</rscale>
<asrwt>0</asrwt>
<pdfrwt beam="1">  1       21 0.13234931E-01 0.30000000E+03</pdfrwt>
<pdfrwt beam="2">0</pdfrwt>
<totfact> 0.51840525E+03</totfact>
</mgrwt>
</event>
<event>
 6    1  0.1295671E-001  0.3000000E+03  0.7818608E-02  0.1093470E+00
         21   -1    0    0  501  502  0.00000000000E+00  0.00000000000E+00  0.22554313361E+01  0.22554313361E+01  0.00000000000E+00 0. -1.
         13   -1    0    0    0    0 -0.00000000000E+00 -0.00000000000E+00 -0.10000000000E+04  0.10000000000E+04  0.00000000000E+00 0.  1.
    9000005    2    1    2  501    0 -0.28166135202E+02 -0.23660105400E+02 -0.81546591892E+03  0.81630210947E+03  0.33670831338E+01 0.  0.
         13    1    3    3    0    0 -0.86161441368E+01 -0.74700132842E+01 -0.21984276910E+03  0.22013832507E+03  0.00000000000E+00 0.  1.
          1    1    3    3  501    0 -0.19549991065E+02 -0.16190092116E+02 -0.59562314982E+03  0.59616378441E+03  0.00000000000E+00 0.  1.
         -1    1    1    2    0  502  0.28166135202E+02  0.23660105400E+02 -0.18227864974E+03  0.18595332186E+03  0.00000000000E+00 0. -1.
<mgrwt>
<rscale>  1 0.30000000E+03</rscale>
<asrwt>0</asrwt>
<pdfrwt beam="1">  1       21 0.82015858E-02 0.30000000E+03</pdfrwt>
<pdfrwt beam="2">0</pdfrwt>
<totfact> 0.12227143E+04</totfact>
</mgrwt>
</event>
<event>
 6    1  0.1295671E-001  0.3000000E+03  0.7818608E-02  0.1093470E+00
         21   -1    0    0  501  502  0.00000000000E+00  0.00000000000E+00  0.41729326404E+01  0.41729326404E+01  0.00000000000E+00 0. -1.
         13   -1    0    0    0    0 -0.00000000000E+00 -0.00000000000E+00 -0.10000000000E+04  0.10000000000E+04  0.00000000000E+00 0.  1.
    9000005    2    1    2  501    0 -0.31106016490E+02  0.13492253268E+02 -0.92517096759E+03  0.92580259645E+03  0.44162382057E+01 0.  0.
         13    1    3    3    0    0 -0.11279165582E+02  0.70713585325E+01 -0.38251273000E+03  0.38274431714E+03  0.00000000000E+00 0.  1.
          1    1    3    3  501    0 -0.19826850908E+02  0.64208947360E+01 -0.54265823759E+03  0.54305827931E+03  0.00000000000E+00 0.  1.
         -1    1    1    2    0  502  0.31106016490E+02 -0.13492253268E+02 -0.70656099770E+02  0.78370336192E+02  0.00000000000E+00 0. -1.
<mgrwt>
<rscale>  1 0.30000000E+03</rscale>
<asrwt>0</asrwt>
<pdfrwt beam="1">  1       21 0.15174333E-01 0.30000000E+03</pdfrwt>
<pdfrwt beam="2">0</pdfrwt>
<totfact> 0.40308370E+03</totfact>
</mgrwt>
</event>
<event>
 6    1  0.1295671E-001  0.3000000E+03  0.7818608E-02  0.1093470E+00
         21   -1    0    0  501  502  0.00000000000E+00  0.00000000000E+00  0.37818128076E+01  0.37818128076E+01  0.00000000000E+00 0. -1.
         13   -1    0    0    0    0 -0.00000000000E+00 -0.00000000000E+00 -0.10000000000E+04  0.10000000000E+04  0.00000000000E+00 0.  1.
    9000005    2    1    2  501    0  0.53928638468E+02  0.86874116171E+01 -0.72816553813E+03  0.73022013450E+03  0.35531317728E+01 0.  0.
         13    1    3    3    0    0  0.99922239377E+01  0.29957295240E+01 -0.14234418288E+03  0.14272590982E+03  0.00000000000E+00 0.  1.
          1    1    3    3  501    0  0.43936414531E+02  0.56916820932E+01 -0.58582135525E+03  0.58749422468E+03  0.00000000000E+00 0.  1.
         -3    1    1    2    0  502 -0.53928638468E+02 -0.86874116171E+01 -0.26805264906E+03  0.27356167831E+03  0.00000000000E+00 0. -1.
<mgrwt>
<rscale>  1 0.30000000E+03</rscale>
<asrwt>0</asrwt>
<pdfrwt beam="1">  1       21 0.13752076E-01 0.30000000E+03</pdfrwt>
<pdfrwt beam="2">0</pdfrwt>
<totfact> 0.48326240E+03</totfact>
</mgrwt>
</event>
<event>
 6    1  0.1295671E-001  0.3000000E+03  0.7818608E-02  0.1093470E+00
         21   -1    0    0  501  502  0.00000000000E+00  0.00000000000E+00  0.32950938886E+02  0.32950938886E+02  0.00000000000E+00 0. -1.
         13   -1    0    0    0    0 -0.00000000000E+00 -0.00000000000E+00 -0.10000000000E+04  0.10000000000E+04  0.00000000000E+00 0.  1.
    9000005    2    1    2  501    0 -0.48779055671E+02  0.15849008391E+02 -0.97895068772E+03  0.98029891086E+03  0.33042881795E+01 0.  0.
         13    1    3    3    0    0 -0.44393731758E+02  0.14025839284E+02 -0.90377419084E+03  0.90497254964E+03  0.00000000000E+00 0.  1.
          1    1    3    3  501    0 -0.43853239129E+01  0.18231691078E+01 -0.75176496880E+02  0.75326361220E+02  0.00000000000E+00 0.  1.
         -3    1    1    2    0  502  0.48779055671E+02 -0.15849008391E+02  0.11901626603E+02  0.52652028023E+02  0.00000000000E+00 0. -1.
<mgrwt>
<rscale>  1 0.30000000E+03</rscale>
<asrwt>0</asrwt>
<pdfrwt beam="1">  1       21 0.11982185E+00 0.30000000E+03</pdfrwt>
<pdfrwt beam="2">0</pdfrwt>
<totfact> 0.45583696E+01</totfact>
</mgrwt>
</event>
<event>
 6    1  0.1295671E-001  0.3000000E+03  0.7818608E-02  0.1093470E+00
         21   -1    0    0  501  502  0.00000000000E+00  0.00000000000E+00  0.47961598638E+01  0.47961598638E+01  0.00000000000E+00 0. -1.
         13   -1    0    0    0    0 -0.00000000000E+00 -0.00000000000E+00 -0.10000000000E+04  0.10000000000E+04  0.00000000000E+00 0.  1.
    9000005    2    1    2  501    0 -0.28237680013E+02  0.17906414507E+02 -0.93749817354E+03  0.93810320513E+03  0.40977851441E+01 0.  0.
         13    1    3    3    0    0 -0.65401791909E+01  0.48713333750E+01 -0.27760819602E+03  0.27772795021E+03  0.00000000000E+00 0.  1.
          3    1    3    3  501    0 -0.21697500823E+02  0.13035081132E+02 -0.65988997752E+03  0.66037525492E+03  0.00000000000E+00 0.  1.
         -1    1    1    2    0  502  0.28237680013E+02 -0.17906414507E+02 -0.57705666601E+02  0.66692954732E+02  0.00000000000E+00 0. -1.
<mgrwt>
<rscale>  1 0.30000000E+03</rscale>
<asrwt>0</asrwt>
<pdfrwt beam="1">  1       21 0.17440618E-01 0.30000000E+03</pdfrwt>
<pdfrwt beam="2">0</pdfrwt>
<totfact> 0.31087222E+03</totfact>
</mgrwt>
</event>
<event>
 6    1  0.1295671E-001  0.3000000E+03  0.7818608E-02  0.1093470E+00
         21   -1    0    0  501  502  0.00000000000E+00  0.00000000000E+00  0.27226149397E+01  0.27226149397E+01  0.00000000000E+00 0. -1.
         13   -1    0    0    0    0 -0.00000000000E+00 -0.00000000000E+00 -0.10000000000E+04  0.10000000000E+04  0.00000000000E+00 0.  1.
    9000005    2    1    2  501    0 -0.33250331550E+02 -0.11219414893E+02 -0.86945971918E+03  0.87017520632E+03  0.36368409855E+01 0.  0.
         13    1    3    3    0    0 -0.12665485801E+02 -0.58799744746E+01 -0.32217491619E+03  0.32247738719E+03  0.00000000000E+00 0.  1.
          3    1    3    3  501    0 -0.20584845749E+02 -0.53394404179E+01 -0.54728480299E+03  0.54769781913E+03  0.00000000000E+00 0.  1.
         -1    1    1    2    0  502  0.33250331550E+02  0.11219414893E+02 -0.12781766588E+03  0.13254740862E+03  0.00000000000E+00 0. -1.
<mgrwt>
<rscale>  1 0.30000000E+03</rscale>
<asrwt>0</asrwt>
<pdfrwt beam="1">  1       21 0.99004388E-02 0.30000000E+03</pdfrwt>
<pdfrwt beam="2">0</pdfrwt>
<totfact> 0.87583524E+03</totfact>
</mgrwt>
</event>
<event>
 6    1  0.1295671E-001  0.3000000E+03  0.7818608E-02  0.1093470E+00
         21   -1    0    0  501  502  0.00000000000E+00  0.00000000000E+00  0.11619573146E+01  0.11619573146E+01  0.00000000000E+00 0. -1.
         13   -1    0    0    0    0 -0.00000000000E+00 -0.00000000000E+00 -0.10000000000E+04  0.10000000000E+04  0.00000000000E+00 0.  1.
    9000005    2    1    2  501    0 -0.26893462436E+02 -0.20070378781E+02 -0.42000152122E+03  0.42135354326E+03  0.33841046979E+01 0.  0.
         13    1    3    3    0    0 -0.18613236001E+02 -0.12511058995E+02 -0.29401390587E+03  0.29486803149E+03  0.00000000000E+00 0.  1.
          3    1    3    3  501    0 -0.82802264357E+01 -0.75593197852E+01 -0.12598761534E+03  0.12648551176E+03  0.00000000000E+00 0.  1.
         -3    1    1    2    0  502  0.26893462436E+02  0.20070378781E+02 -0.57883652147E+03  0.57980841406E+03  0.00000000000E+00 0. -1.
<mgrwt>
<rscale>  1 0.30000000E+03</rscale>
<asrwt>0</asrwt>
<pdfrwt beam="1">  1       21 0.42253082E-02 0.30000000E+03</pdfrwt>
<pdfrwt beam="2">0</pdfrwt>
<totfact> 0.38335499E+04</totfact>
</mgrwt>
</event>
<event>
 6    1  0.1295671E-001  0.3000000E+03  0.7818608E-02  0.1093470E+00
         21   -1    0    0  501  502  0.00000000000E+00  0.00000000000E+00  0.16297332315E+01  0.16297332315E+01  0.00000000000E+00 0. -1.
         13   -1    0    0    0    0 -0.00000000000E+00 -0.00000000000E+00 -0.10000000000E+04  0.10000000000E+04  0.00000000000E+00 0.  1.
    9000005    2    1    2  501    0  0.29599096772E+02  0.26886703706E+02 -0.43655437782E+03  0.43839257675E+03  0.30537174484E+01 0.  0.
         13    1    3    3    0    0  0.42480936715E+01  0.48217054950E+01 -0.80049439813E+02  0.80306960832E+02  0.00000000000E+00 0.  1.
          3    1    3    3  501    0  0.25351003101E+02  0.22064998210E+02 -0.35650493801E+03  0.35808561592E+03  0.00000000000E+00 0.  1.
         -3    1    1    2    0  502 -0.29599096772E+02 -0.26886703706E+02 -0.56181588895E+03  0.56323715648E+03  0.00000000000E+00 0. -1.
<mgrwt>
<rscale>  1 0.30000000E+03</rscale>
<asrwt>0</asrwt>
<pdfrwt beam="1">  1       21 0.59263152E-02 0.30000000E+03</pdfrwt>
<pdfrwt beam="2">0</pdfrwt>
<totfact> 0.21525435E+04</totfact>
</mgrwt>
</event>
<event>
 6    1  0.1295671E-001  0.3000000E+03  0.7818608E-02  0.1093470E+00
         21   -1    0    0  501  502  0.00000000000E+00  0.00000000000E+00  0.19197039619E+01  0.19197039619E+01  0.00000000000E+00 0. -1.
         13   -1    0    0    0    0 -0.00000000000E+00 -0.00000000000E+00 -0.10000000000E+04  0.10000000000E+04  0.00000000000E+00 0.  1.
    9000005    2    1    2  501    0 -0.35544299148E+02  0.23861864078E+02 -0.60316449114E+03  0.60469020012E+03  0.31700153509E+01 0.  0.
         13    1    3    3    0    0 -0.18020860372E+02  0.10252865311E+02 -0.28568697090E+03  0.28643833193E+03  0.00000000000E+00 0.  1.
          3    1    3    3  501    0 -0.17523438777E+02  0.13608998766E+02 -0.31747752024E+03  0.31825186819E+03  0.00000000000E+00 0.  1.
         -3    1    1    2    0  502  0.35544299148E+02 -0.23861864078E+02 -0.39491580490E+03  0.39722950384E+03  0.00000000000E+00 0. -1.
<mgrwt>
<rscale>  1 0.30000000E+03</rscale>
<asrwt>0</asrwt>
<pdfrwt beam="1">  1       21 0.69807564E-02 0.30000000E+03</pdfrwt>
<pdfrwt beam="2">0</pdfrwt>
<totfact> 0.16212766E+04</totfact>
</mgrwt>
</event>
<event>
 6    1  0.1295671E-001  0.3000000E+03  0.7818608E-02  0.1093470E+00
         21   -1    0    0  501  502  0.00000000000E+00  0.00000000000E+00  0.16115041409E+01  0.16115041409E+01  0.00000000000E+00 0. -1.
         13   -1    0    0    0    0 -0.00000000000E+00 -0.00000000000E+00 -0.10000000000E+04  0.10000000000E+04  0.00000000000E+00 0.  1.
    9000005    2    1    2  501    0 -0.30020120907E+02  0.57501700217E+01 -0.82346232769E+03  0.82403493918E+03  0.30172409155E+01 0.  0.
         13    1    3    3    0    0 -0.51793205366E+01 -0.13455511822E+00 -0.13343161229E+03  0.13353216326E+03  0.00000000000E+00 0.  1.
          1    1    3    3  501    0 -0.24840800370E+02  0.58847251399E+01 -0.69003071540E+03  0.69050277592E+03  0.00000000000E+00 0.  1.
         -3    1    1    2    0  502  0.30020120907E+02 -0.57501700217E+01 -0.17492616817E+03  0.17757656496E+03  0.00000000000E+00 0. -1.
<mgrwt>
<rscale>  1 0.30000000E+03</rscale>
<asrwt>0</asrwt>
<pdfrwt beam="1">  1       21 0.58600274E-02 0.30000000E+03</pdfrwt>
<pdfrwt beam="2">0</pdfrwt>
<totfact> 0.21946804E+04</totfact>
</mgrwt>
</event>
<event>
 6    1  0.1295671E-001  0.3000000E+03  0.7818608E-02  0.1093470E+00
         21   -1    0    0  501  502  0.00000000000E+00  0.00000000000E+00  0.17143012333E+01  0.17143012333E+01  0.00000000000E+00 0. -1.
         13   -1    0    0    0    0 -0.00000000000E+00 -0.00000000000E+00 -0.10000000000E+04  0.10000000000E+04  0.00000000000E+00 0.  1.
    9000005    2    1    2  501    0  0.26710705632E+02  0.17327921412E+02 -0.81884063046E+03  0.81946652705E+03  0.34193865746E+01 0.  0.
         13    1    3    3    0    0  0.26562011581E+02  0.17388342128E+02 -0.80615685778E+03  0.80678173891E+03  0.00000000000E+00 0.  1.
          1    1    3    3  501    0  0.14869405093E+00 -0.60420716281E-01 -0.12683772682E+02  0.12684788135E+02  0.00000000000E+00 0.  1.
         -1    1    1    2    0  502 -0.26710705632E+02 -0.17327921412E+02 -0.17944506831E+03  0.18224777419E+03  0.00000000000E+00 0. -1.
<mgrwt>
<rscale>  1 0.30000000E+03</rscale>
<asrwt>0</asrwt>
<pdfrwt beam="1">  1       21 0.62338358E-02 0.30000000E+03</pdfrwt>
<pdfrwt beam="2">0</pdfrwt>
<totfact> 0.19726023E+04</totfact>
</mgrwt>
</event>
<event>
 6    1  0.1295671E-001  0.3000000E+03  0.7818608E-02  0.1093470E+00
         21   -1    0    0  501  502  0.00000000000E+00  0.00000000000E+00  0.13299735713E+01  0.13299735713E+01  0.00000000000E+00 0. -1.
         13   -1    0    0    0    0 -0.00000000000E+00 -0.00000000000E+00 -0.10000000000E+04  0.10000000000E+04  0.00000000000E+00 0.  1.
    9000005    2    1    2  501    0 -0.33786832350E+02  0.11838113484E+02 -0.59048125644E+03  0.59157423790E+03  0.32052719568E+01 0.  0.
         13    1    3    3    0    0 -0.22136049865E+02  0.79189261321E+01 -0.41194847244E+03  0.41261878053E+03  0.00000000000E+00 0.  1.
          1    1    3    3  501    0 -0.11650782485E+02  0.39191873515E+01 -0.17853278399E+03  0.17895545737E+03  0.00000000000E+00 0.  1.
         -1    1    1    2    0  502  0.33786832350E+02 -0.11838113484E+02 -0.40818876999E+03  0.40975573567E+03  0.00000000000E+00 0. -1.
<mgrwt>
<rscale>  1 0.30000000E+03</rscale>
<asrwt>0</asrwt>
<pdfrwt beam="1">  1       21 0.48362777E-02 0.30000000E+03</pdfrwt>
<pdfrwt beam="2">0</pdfrwt>
<totfact> 0.30485385E+04</totfact>
</mgrwt>
</event>
<event>
 6    1  0.1295671E-001  0.3000000E+03  0.7818608E-02  0.1093470E+00
         21   -1    0    0  501  502  0.00000000000E+00  0.00000000000E+00  0.17520563588E+01  0.17520563588E+01  0.00000000000E+00 0. -1.
         13   -1    0    0    0    0 -0.00000000000E+00 -0.00000000000E+00 -0.10000000000E+04  0.10000000000E+04  0.00000000000E+00 0.  1.
    9000005    2    1    2  501    0  0.32634072036E+02  0.17439217529E+01 -0.81149165032E+03  0.81215791875E+03  0.37097880667E+01 0.  0.
         13    1    3    3    0    0  0.37154542640E+01  0.13095926720E+01 -0.10894699094E+03  0.10901819329E+03  0.00000000000E+00 0.  1.
          3    1    3    3  501    0  0.28918617772E+02  0.43432908094E+00 -0.70254465938E+03  0.70313972546E+03  0.00000000000E+00 0.  1.
         -3    1    1    2    0  502 -0.32634072036E+02 -0.17439217529E+01 -0.18675629332E+03  0.18959413761E+03  0.00000000000E+00 0. -1.
<mgrwt>
<rscale>  1 0.30000000E+03</rscale>
<asrwt>0</asrwt>
<pdfrwt beam="1">  1       21 0.63711275E-02 0.30000000E+03</pdfrwt>
<pdfrwt beam="2">0</pdfrwt>
<totfact> 0.18997068E+04</totfact>
</mgrwt>
</event>
<event>
 6    1  0.1295671E-001  0.3000000E+03  0.7818608E-02  0.1093470E+00
         21   -1    0    0  501  502  0.00000000000E+00  0.00000000000E+00  0.64134336738E+01  0.64134336738E+01  0.00000000000E+00 0. -1.
         13   -1    0    0    0    0 -0.00000000000E+00 -0.00000000000E+00 -0.10000000000E+04  0.10000000000E+04  0.00000000000E+00 0.  1.
    9000005    2    1    2  501    0 -0.25920550342E+02 -0.19126485254E+02 -0.95747602133E+03  0.95802264087E+03  0.30580436401E+01 0.  0.
         13    1    3    3    0    0 -0.22774778033E+02 -0.17563216798E+02 -0.87299645964E+03  0.87347007713E+03  0.00000000000E+00 0.  1.
          1    1    3    3  501    0 -0.31457723092E+01 -0.15632684560E+01 -0.84479561688E+02  0.84552563739E+02  0.00000000000E+00 0.  1.
         -1    1    1    2    0  502  0.25920550342E+02  0.19126485254E+02 -0.36110544998E+02  0.48390792804E+02  0.00000000000E+00 0. -1.
<mgrwt>
<rscale>  1 0.30000000E+03</rscale>
<asrwt>0</asrwt>
<pdfrwt beam="1">  1       21 0.23321626E-01 0.30000000E+03</pdfrwt>
<pdfrwt beam="2">0</pdfrwt>
<totfact> 0.17856069E+03</totfact>
</mgrwt>
</event>
<event>
 6    1  0.1295671E-001  0.3000000E+03  0.7818608E-02  0.1093470E+00
         21   -1    0    0  501  502  0.00000000000E+00  0.00000000000E+00  0.11084958586E+01  0.11084958586E+01  0.00000000000E+00 0. -1.
         13   -1    0    0    0    0 -0.00000000000E+00 -0.00000000000E+00 -0.10000000000E+04  0.10000000000E+04  0.00000000000E+00 0.  1.
    9000005    2    1    2  501    0  0.16054459620E+02 -0.26765810263E+02 -0.67068082025E+03  0.67141711397E+03  0.37448637765E+01 0.  0.
         13    1    3    3    0    0 -0.14753360115E+00 -0.86564059521E+00 -0.16564777117E+02  0.16588036073E+02  0.00000000000E+00 0.  1.
          3    1    3    3  501    0  0.16201993221E+02 -0.25900169668E+02 -0.65411604313E+03  0.65482907790E+03  0.00000000000E+00 0.  1.
         -3    1    1    2    0  502 -0.16054459620E+02  0.26765810263E+02 -0.32821068389E+03  0.32969138189E+03  0.00000000000E+00 0. -1.
<mgrwt>
<rscale>  1 0.30000000E+03</rscale>
<asrwt>0</asrwt>
<pdfrwt beam="1">  1       21 0.40309025E-02 0.30000000E+03</pdfrwt>
<pdfrwt beam="2">0</pdfrwt>
<totfact> 0.41505792E+04</totfact>
</mgrwt>
</event>
<event>
 6    1  0.1295671E-001  0.3000000E+03  0.7818608E-02  0.1093470E+00
         21   -1    0    0  501  502  0.00000000000E+00  0.00000000000E+00  0.78617834376E+01  0.78617834376E+01  0.00000000000E+00 0. -1.
         13   -1    0    0    0    0 -0.00000000000E+00 -0.00000000000E+00 -0.10000000000E+04  0.10000000000E+04  0.00000000000E+00 0.  1.
    9000005    2    1    2  501    0  0.21080408945E+02 -0.77386557036E+02 -0.71048478074E+03  0.71501076199E+03  0.43247254714E+01 0.  0.
         13    1    3    3    0    0  0.20719257728E+02 -0.72163126587E+02 -0.66155955381E+03  0.66580616377E+03  0.00000000000E+00 0.  1.
          1    1    3    3  501    0  0.36115121723E+00 -0.52234304491E+01 -0.48925226930E+02  0.49204598220E+02  0.00000000000E+00 0.  1.
         -3    1    1    2    0  502 -0.21080408945E+02  0.77386557036E+02 -0.28165343583E+03  0.29285102145E+03  0.00000000000E+00 0. -1.
<mgrwt>
<rscale>  1 0.30000000E+03</rscale>
<asrwt>0</asrwt>
<pdfrwt beam="1">  1       21 0.28588364E-01 0.30000000E+03</pdfrwt>
<pdfrwt beam="2">0</pdfrwt>
<totfact> 0.11969523E+03</totfact>
</mgrwt>
</event>
<event>
 6    1  0.1295671E-001  0.3000000E+03  0.7818608E-02  0.1093470E+00
         21   -1    0    0  501  502  0.00000000000E+00  0.00000000000E+00  0.27623357670E+01  0.27623357670E+01  0.00000000000E+00 0. -1.
         13   -1    0    0    0    0 -0.00000000000E+00 -0.00000000000E+00 -0.10000000000E+04  0.10000000000E+04  0.00000000000E+00 0.  1.
    9000005    2    1    2  501    0  0.42682663713E+02 -0.14645963504E+02 -0.75454526053E+03  0.75591032171E+03  0.50547256627E+01 0.  0.
         13    1    3    3    0    0  0.29108983969E+02 -0.92359166943E+01 -0.47128137906E+03  0.47226980991E+03  0.00000000000E+00 0.  1.
          1    1    3    3  501    0  0.13573679744E+02 -0.54100468097E+01 -0.28326388147E+03  0.28364051180E+03  0.00000000000E+00 0.  1.
         -3    1    1    2    0  502 -0.42682663713E+02  0.14645963504E+02 -0.24269240370E+03  0.24685201405E+03  0.00000000000E+00 0. -1.
<mgrwt>
<rscale>  1 0.30000000E+03</rscale>
<asrwt>0</asrwt>
<pdfrwt beam="1">  1       21 0.10044879E-01 0.30000000E+03</pdfrwt>
<pdfrwt beam="2">0</pdfrwt>
<totfact> 0.85346280E+03</totfact>
</mgrwt>
</event>
<event>
 6    1  0.1295671E-001  0.3000000E+03  0.7818608E-02  0.1093470E+00
         21   -1    0    0  501  502  0.00000000000E+00  0.00000000000E+00  0.39537830589E+01  0.39537830589E+01  0.00000000000E+00 0. -1.
         13   -1    0    0    0    0 -0.00000000000E+00 -0.00000000000E+00 -0.10000000000E+04  0.10000000000E+04  0.00000000000E+00 0.  1.
    9000005    2    1    2  501    0 -0.30845461566E+02  0.33637335956E+02 -0.84314916686E+03  0.84439056426E+03  0.34633174487E+01 0.  0.
         13    1    3    3    0    0 -0.50870646742E+01  0.67576338887E+01 -0.13733580734E+03  0.13759603126E+03  0.00000000000E+00 0.  1.
          1    1    3    3  501    0 -0.25758396892E+02  0.26879702068E+02 -0.70581335952E+03  0.70679453300E+03  0.00000000000E+00 0.  1.
         -3    1    1    2    0  502  0.30845461566E+02 -0.33637335956E+02 -0.15289705008E+03  0.15956321880E+03  0.00000000000E+00 0. -1.
<mgrwt>
<rscale>  1 0.30000000E+03</rscale>
<asrwt>0</asrwt>
<pdfrwt beam="1">  1       21 0.14377423E-01 0.30000000E+03</pdfrwt>
<pdfrwt beam="2">0</pdfrwt>
<totfact> 0.44533117E+03</totfact>
</mgrwt>
</event>
<event>
 6    1  0.1295671E-001  0.3000000E+03  0.7818608E-02  0.1093470E+00
         21   -1    0    0  501  502  0.00000000000E+00  0.00000000000E+00  0.44905066749E+01  0.44905066749E+01  0.00000000000E+00 0. -1.
         13   -1    0    0    0    0 -0.00000000000E+00 -0.00000000000E+00 -0.10000000000E+04  0.10000000000E+04  0.00000000000E+00 0.  1.
    9000005    2    1    2  501    0  0.12809624103E+02 -0.28340089721E+02 -0.94258217973E+03  0.94310200873E+03  0.36036341626E+01 0.  0.
         13    1    3    3    0    0  0.38912557366E+01 -0.63782899290E+01 -0.26519816589E+03  0.26530339547E+03  0.00000000000E+00 0.  1.
          1    1    3    3  501    0  0.89183683666E+01 -0.21961799792E+02 -0.67738401383E+03  0.67779861326E+03  0.00000000000E+00 0.  1.
         -1    1    1    2    0  502 -0.12809624103E+02  0.28340089721E+02 -0.52927313598E+02  0.61388497944E+02  0.00000000000E+00 0. -1.
<mgrwt>
<rscale>  1 0.30000000E+03</rscale>
<asrwt>0</asrwt>
<pdfrwt beam="1">  1       21 0.16329150E-01 0.30000000E+03</pdfrwt>
<pdfrwt beam="2">0</pdfrwt>
<totfact> 0.35165255E+03</totfact>
</mgrwt>
</event>
<event>
 6    1  0.1295671E-001  0.3000000E+03  0.7818608E-02  0.1093470E+00
         21   -1    0    0  501  502  0.00000000000E+00  0.00000000000E+00  0.84797037504E+01  0.84797037504E+01  0.00000000000E+00 0. -1.
         13   -1    0    0    0    0 -0.00000000000E+00 -0.00000000000E+00 -0.10000000000E+04  0.10000000000E+04  0.00000000000E+00 0.  1.
    9000005    2    1    2  501    0  0.21314398399E+02 -0.49991259212E+02 -0.90261681364E+03  0.90428153296E+03  0.73857297429E+01 0.  0.
         13    1    3    3    0    0  0.57603753070E+01 -0.72563595739E+01 -0.13310200690E+03  0.13342406424E+03  0.00000000000E+00 0.  1.
          1    1    3    3  501    0  0.15554023092E+02 -0.42734899638E+02 -0.76951480674E+03  0.77085746872E+03  0.00000000000E+00 0.  1.
         -1    1    1    2    0  502 -0.21314398399E+02  0.49991259212E+02 -0.88903482611E+02  0.10419817079E+03  0.00000000000E+00 0. -1.
<mgrwt>
<rscale>  1 0.30000000E+03</rscale>
<asrwt>0</asrwt>
<pdfrwt beam="1">  1       21 0.30835351E-01 0.30000000E+03</pdfrwt>
<pdfrwt beam="2">0</pdfrwt>
<totfact> 0.10290383E+03</totfact>
</mgrwt>
</event>
<event>
 6    1  0.1295671E-001  0.3000000E+03  0.7818608E-02  0.1093470E+00
         21   -1    0    0  501  502  0.00000000000E+00  0.00000000000E+00  0.15995513892E+01  0.15995513892E+01  0.00000000000E+00 0. -1.
         13   -1    0    0    0    0 -0.00000000000E+00 -0.00000000000E+00 -0.10000000000E+04  0.10000000000E+04  0.00000000000E+00 0.  1.
    9000005    2    1    2  501    0  0.31651521080E+02 -0.50576384755E+01 -0.79814117177E+03  0.79879132558E+03  0.32944285443E+01 0.  0.
         13    1    3    3    0    0  0.86561779785E+01 -0.50368046355E+00 -0.18755613833E+03  0.18775645964E+03  0.00000000000E+00 0.  1.
          1    1    3    3  501    0  0.22995343102E+02 -0.45539580120E+01 -0.61058503343E+03  0.61103486593E+03  0.00000000000E+00 0.  1.
         -1    1    1    2    0  502 -0.31651521080E+02  0.50576384755E+01 -0.20025927685E+03  0.20280822581E+03  0.00000000000E+00 0. -1.
<mgrwt>
<rscale>  1 0.30000000E+03</rscale>
<asrwt>0</asrwt>
<pdfrwt beam="1">  1       21 0.58165628E-02 0.30000000E+03</pdfrwt>
<pdfrwt beam="2">0</pdfrwt>
<totfact> 0.22230121E+04</totfact>
</mgrwt>
</event>
<event>
 6    1  0.1295671E-001  0.3000000E+03  0.7818608E-02  0.1093470E+00
         21   -1    0    0  501  502  0.00000000000E+00  0.00000000000E+00  0.28550887896E+01  0.28550887896E+01  0.00000000000E+00 0. -1.
         13   -1    0    0    0    0 -0.00000000000E+00 -0.00000000000E+00 -0.10000000000E+04  0.10000000000E+04  0.00000000000E+00 0.  1.
    9000005    2    1    2  501    0  0.48838650252E+02 -0.21117526957E+02 -0.45987273161E+03  0.46295458066E+03  0.35847977436E+01 0.  0.
         13    1    3    3    0    0  0.26867596987E+02 -0.10015759725E+02 -0.23859378482E+03  0.24031058521E+03  0.00000000000E+00 0.  1.
          1    1    3    3  501    0  0.21971053265E+02 -0.11101767232E+02 -0.22127894679E+03  0.22264399545E+03  0.00000000000E+00 0.  1.
         -3    1    1    2    0  502 -0.48838650252E+02  0.21117526957E+02 -0.53727217960E+03  0.53990050813E+03  0.00000000000E+00 0. -1.
<mgrwt>
<rscale>  1 0.30000000E+03</rscale>
<asrwt>0</asrwt>
<pdfrwt beam="1">  1       21 0.10382163E-01 0.30000000E+03</pdfrwt>
<pdfrwt beam="2">0</pdfrwt>
<totfact> 0.80449257E+03</totfact>
</mgrwt>
</event>
<event>
 6    1  0.1295671E-001  0.3000000E+03  0.7818608E-02  0.1093470E+00
         21   -1    0    0  501  502  0.00000000000E+00  0.00000000000E+00  0.21938348666E+01  0.21938348666E+01  0.00000000000E+00 0. -1.
         13   -1    0    0    0    0 -0.00000000000E+00 -0.00000000000E+00 -0.10000000000E+04  0.10000000000E+04  0.00000000000E+00 0.  1.
    9000005    2    1    2  501    0  0.36220594163E+02  0.68203010019E+01 -0.19068296305E+03  0.19422953412E+03  0.25829397656E+01 0.  0.
         13    1    3    3    0    0  0.21540825883E+02  0.34575459711E+01 -0.10682797107E+03  0.10903291800E+03  0.00000000000E+00 0.  1.
          3    1    3    3  501    0  0.14679768280E+02  0.33627550307E+01 -0.83854991982E+02  0.85196616120E+02  0.00000000000E+00 0.  1.
         -1    1    1    2    0  502 -0.36220594163E+02 -0.68203010019E+01 -0.80712320208E+03  0.80796430075E+03  0.00000000000E+00 0. -1.
<mgrwt>
<rscale>  1 0.30000000E+03</rscale>
<asrwt>0</asrwt>
<pdfrwt beam="1">  1       21 0.79775982E-02 0.30000000E+03</pdfrwt>
<pdfrwt beam="2">0</pdfrwt>
<totfact> 0.12836935E+04</totfact>
</mgrwt>
</event>
<event>
 6    1  0.1295671E-001  0.3000000E+03  0.7818608E-02  0.1093470E+00
         21   -1    0    0  501  502  0.00000000000E+00  0.00000000000E+00  0.13668305243E+01  0.13668305243E+01  0.00000000000E+00 0. -1.
         13   -1    0    0    0    0 -0.00000000000E+00 -0.00000000000E+00 -0.10000000000E+04  0.10000000000E+04  0.00000000000E+00 0.  1.
    9000005    2    1    2  501    0 -0.18212917109E+02 -0.31915882077E+02 -0.54020251023E+03  0.54146575071E+03  0.40091463249E+01 0.  0.
         13    1    3    3    0    0 -0.14845581206E+02 -0.24496821451E+02 -0.44096076050E+03  0.44189011965E+03  0.00000000000E+00 0.  1.
          3    1    3    3  501    0 -0.33673359029E+01 -0.74190606259E+01 -0.99241749729E+02  0.99575631060E+02  0.00000000000E+00 0.  1.
         -1    1    1    2    0  502  0.18212917109E+02  0.31915882077E+02 -0.45843065924E+03  0.45990107981E+03  0.00000000000E+00 0. -1.
<mgrwt>
<rscale>  1 0.30000000E+03</rscale>
<asrwt>0</asrwt>
<pdfrwt beam="1">  1       21 0.49703033E-02 0.30000000E+03</pdfrwt>
<pdfrwt beam="2">0</pdfrwt>
<totfact> 0.29098617E+04</totfact>
</mgrwt>
</event>
<event>
 6    1  0.1295671E-001  0.3000000E+03  0.7818608E-02  0.1093470E+00
         21   -1    0    0  501  502  0.00000000000E+00  0.00000000000E+00  0.20203187219E+01  0.20203187219E+01  0.00000000000E+00 0. -1.
         13   -1    0    0    0    0 -0.00000000000E+00 -0.00000000000E+00 -0.10000000000E+04  0.10000000000E+04  0.00000000000E+00 0.  1.
    9000005    2    1    2  501    0  0.13118211246E+02 -0.42426016444E+02 -0.57093362064E+03  0.57267151851E+03  0.39261427310E+01 0.  0.
         13    1    3    3    0    0  0.11805672965E+02 -0.37282025249E+02 -0.48499789036E+03  0.48657196485E+03  0.00000000000E+00 0.  1.
          3    1    3    3  501    0  0.13125382819E+01 -0.51439911958E+01 -0.85935730282E+02  0.86099553665E+02  0.00000000000E+00 0.  1.
         -1    1    1    2    0  502 -0.13118211246E+02  0.42426016444E+02 -0.42704606064E+03  0.42934880021E+03  0.00000000000E+00 0. -1.
<mgrwt>
<rscale>  1 0.30000000E+03</rscale>
<asrwt>0</asrwt>
<pdfrwt beam="1">  1       21 0.73466290E-02 0.30000000E+03</pdfrwt>
<pdfrwt beam="2">0</pdfrwt>
<totfact> 0.14831008E+04</totfact>
</mgrwt>
</event>
<event>
 6    1  0.1295671E-001  0.3000000E+03  0.7818608E-02  0.1093470E+00
         21   -1    0    0  501  502  0.00000000000E+00  0.00000000000E+00  0.16588175245E+01  0.16588175245E+01  0.00000000000E+00 0. -1.
         13   -1    0    0    0    0 -0.00000000000E+00 -0.00000000000E+00 -0.10000000000E+04  0.10000000000E+04  0.00000000000E+00 0.  1.
    9000005    2    1    2  501    0 -0.26144694125E+02 -0.24777597818E+02 -0.73174600604E+03  0.73264122984E+03  0.36715013712E+01 0.  0.
         13    1    3    3    0    0 -0.20646323022E+02 -0.21062071749E+02 -0.61491051916E+03  0.61561743648E+03  0.00000000000E+00 0.  1.
          1    1    3    3  501    0 -0.54983711032E+01 -0.37155260697E+01 -0.11683548688E+03  0.11702379336E+03  0.00000000000E+00 0.  1.
         -1    1    1    2    0  502  0.26144694125E+02  0.24777597818E+02 -0.26659517643E+03  0.26901758768E+03  0.00000000000E+00 0. -1.
<mgrwt>
<rscale>  1 0.30000000E+03</rscale>
<asrwt>0</asrwt>
<pdfrwt beam="1">  1       21 0.60320764E-02 0.30000000E+03</pdfrwt>
<pdfrwt beam="2">0</pdfrwt>
<totfact> 0.20878768E+04</totfact>
</mgrwt>
</event>
<event>
 6    1  0.1295671E-001  0.3000000E+03  0.7818608E-02  0.1093470E+00
         21   -1    0    0  501  502  0.00000000000E+00  0.00000000000E+00  0.19877810623E+01  0.19877810623E+01  0.00000000000E+00 0. -1.
         13   -1    0    0    0    0 -0.00000000000E+00 -0.00000000000E+00 -0.10000000000E+04  0.10000000000E+04  0.00000000000E+00 0.  1.
    9000005    2    1    2  501    0  0.22899359243E+02 -0.21201327287E+02 -0.85641300291E+03  0.85699048829E+03  0.39482311154E+01 0.  0.
         13    1    3    3    0    0  0.17689112533E+02 -0.16147912179E+02 -0.60831452407E+03  0.60878585723E+03  0.00000000000E+00 0.  1.
          3    1    3    3  501    0  0.52102467099E+01 -0.50534151077E+01 -0.24809847884E+03  0.24820463106E+03  0.00000000000E+00 0.  1.
         -1    1    1    2    0  502 -0.22899359243E+02  0.21201327287E+02 -0.14159921602E+03  0.14499729277E+03  0.00000000000E+00 0. -1.
<mgrwt>
<rscale>  1 0.30000000E+03</rscale>
<asrwt>0</asrwt>
<pdfrwt beam="1">  1       21 0.72283100E-02 0.30000000E+03</pdfrwt>
<pdfrwt beam="2">0</pdfrwt>
<totfact> 0.15257584E+04</totfact>
</mgrwt>
</event>
<event>
 6    1  0.1295671E-001  0.3000000E+03  0.7818608E-02  0.1093470E+00
         21   -1    0    0  501  502  0.00000000000E+00  0.00000000000E+00  0.13523377741E+01  0.13523377741E+01  0.00000000000E+00 0. -1.
         13   -1    0    0    0    0 -0.00000000000E+00 -0.00000000000E+00 -0.10000000000E+04  0.10000000000E+04  0.00000000000E+00 0.  1.
    9000005    2    1    2  501    0 -0.15174820624E+02  0.31912191541E+02 -0.63519359830E+03  0.63618454109E+03  0.33466180386E+01 0.  0.
         13    1    3    3    0    0 -0.25186596016E+00 -0.13022728546E-01 -0.50406008254E+01  0.50469062538E+01  0.00000000000E+00 0.  1.
          3    1    3    3  501    0 -0.14922954664E+02  0.31925214270E+02 -0.63015299747E+03  0.63113763484E+03  0.00000000000E+00 0.  1.
         -1    1    1    2    0  502  0.15174820624E+02 -0.31912191541E+02 -0.36345406393E+03  0.36516779668E+03  0.00000000000E+00 0. -1.
<mgrwt>
<rscale>  1 0.30000000E+03</rscale>
<asrwt>0</asrwt>
<pdfrwt beam="1">  1       21 0.49176023E-02 0.30000000E+03</pdfrwt>
<pdfrwt beam="2">0</pdfrwt>
<totfact> 0.29631940E+04</totfact>
</mgrwt>
</event>
<event>
 6    1  0.1295671E-001  0.3000000E+03  0.7818608E-02  0.1093470E+00
         21   -1    0    0  501  502  0.00000000000E+00  0.00000000000E+00  0.97279437320E+00  0.97279437320E+00  0.00000000000E+00 0. -1.
         13   -1    0    0    0    0 -0.00000000000E+00 -0.00000000000E+00 -0.10000000000E+04  0.10000000000E+04  0.00000000000E+00 0.  1.
    9000005    2    1    2  501    0  0.29836336862E+02 -0.85997644949E+01 -0.46632478406E+03  0.46736616690E+03  0.28577581645E+01 0.  0.
         13    1    3    3    0    0  0.16286412510E+00  0.14753852774E+00 -0.53407082426E+01  0.53452274856E+01  0.00000000000E+00 0.  1.
          1    1    3    3  501    0  0.29673472737E+02 -0.87473030226E+01 -0.46098407582E+03  0.46202093941E+03  0.00000000000E+00 0.  1.
         -3    1    1    2    0  502 -0.29836336862E+02  0.85997644949E+01 -0.53270242156E+03  0.53360662748E+03  0.00000000000E+00 0. -1.
<mgrwt>
<rscale>  1 0.30000000E+03</rscale>
<asrwt>0</asrwt>
<pdfrwt beam="1">  1       21 0.35374415E-02 0.30000000E+03</pdfrwt>
<pdfrwt beam="2">0</pdfrwt>
<totfact> 0.51687242E+04</totfact>
</mgrwt>
</event>
<event>
 6    1  0.1295671E-001  0.3000000E+03  0.7818608E-02  0.1093470E+00
         21   -1    0    0  501  502  0.00000000000E+00  0.00000000000E+00  0.28921345025E+01  0.28921345025E+01  0.00000000000E+00 0. -1.
         13   -1    0    0    0    0 -0.00000000000E+00 -0.00000000000E+00 -0.10000000000E+04  0.10000000000E+04  0.00000000000E+00 0.  1.
    9000005    2    1    2  501    0  0.30817108883E+02 -0.15263219843E+02 -0.88390171141E+03  0.88457775074E+03  0.35918804897E+01 0.  0.
         13    1    3    3    0    0  0.73093427836E+01 -0.51770532442E+01 -0.21114794902E+03  0.21133784505E+03  0.00000000000E+00 0.  1.
          3    1    3    3  501    0  0.23507766099E+02 -0.10086166599E+02 -0.67275376238E+03  0.67323990570E+03  0.00000000000E+00 0.  1.
         -1    1    1    2    0  502 -0.30817108883E+02  0.15263219843E+02 -0.11320615409E+03  0.11831438376E+03  0.00000000000E+00 0. -1.
<mgrwt>
<rscale>  1 0.30000000E+03</rscale>
<asrwt>0</asrwt>
<pdfrwt beam="1">  1       21 0.10516875E-01 0.30000000E+03</pdfrwt>
<pdfrwt beam="2">0</pdfrwt>
<totfact> 0.78612058E+03</totfact>
</mgrwt>
</event>
<event>
 6    1  0.1295671E-001  0.3000000E+03  0.7818608E-02  0.1093470E+00
         21   -1    0    0  501  502  0.00000000000E+00  0.00000000000E+00  0.20851031513E+01  0.20851031513E+01  0.00000000000E+00 0. -1.
         13   -1    0    0    0    0 -0.00000000000E+00 -0.00000000000E+00 -0.10000000000E+04  0.10000000000E+04  0.00000000000E+00 0.  1.
    9000005    2    1    2  501    0  0.25005137222E+02 -0.28010760364E+02 -0.78074679005E+03  0.78169488968E+03  0.84552228897E+01 0.  0.
         13    1    3    3    0    0  0.13803232677E+02 -0.10254694329E+02 -0.30380221780E+03  0.30428847420E+03  0.00000000000E+00 0.  1.
          1    1    3    3  501    0  0.11201904545E+02 -0.17756066035E+02 -0.47694457225E+03  0.47740641548E+03  0.00000000000E+00 0.  1.
         -1    1    1    2    0  502 -0.25005137222E+02  0.28010760364E+02 -0.21716810680E+03  0.22039021347E+03  0.00000000000E+00 0. -1.
<mgrwt>
<rscale>  1 0.30000000E+03</rscale>
<asrwt>0</asrwt>
<pdfrwt beam="1">  1       21 0.75822093E-02 0.30000000E+03</pdfrwt>
<pdfrwt beam="2">0</pdfrwt>
<totfact> 0.14033956E+04</totfact>
</mgrwt>
</event>
<event>
 6    1  0.1295671E-001  0.3000000E+03  0.7818608E-02  0.1093470E+00
         21   -1    0    0  501  502  0.00000000000E+00  0.00000000000E+00  0.15343296283E+01  0.15343296283E+01  0.00000000000E+00 0. -1.
         13   -1    0    0    0    0 -0.00000000000E+00 -0.00000000000E+00 -0.10000000000E+04  0.10000000000E+04  0.00000000000E+00 0.  1.
    9000005    2    1    2  501    0  0.27275994154E+02  0.18769429202E+02 -0.23409147471E+03  0.23644336619E+03  0.32211111977E+01 0.  0.
         13    1    3    3    0    0  0.24632415068E+02  0.17907599461E+02 -0.21144602861E+03  0.21362785634E+03  0.00000000000E+00 0.  1.
          1    1    3    3  501    0  0.26435790868E+01  0.86182974048E+00 -0.22645446095E+02  0.22815509851E+02  0.00000000000E+00 0.  1.
         -3    1    1    2    0  502 -0.27275994154E+02 -0.18769429202E+02 -0.76437419567E+03  0.76509096343E+03  0.00000000000E+00 0. -1.
<mgrwt>
<rscale>  1 0.30000000E+03</rscale>
<asrwt>0</asrwt>
<pdfrwt beam="1">  1       21 0.55793922E-02 0.30000000E+03</pdfrwt>
<pdfrwt beam="2">0</pdfrwt>
<totfact> 0.23879727E+04</totfact>
</mgrwt>
</event>
<event>
 6    1  0.1295671E-001  0.3000000E+03  0.7818608E-02  0.1093470E+00
         21   -1    0    0  501  502  0.00000000000E+00  0.00000000000E+00  0.12689625355E+01  0.12689625355E+01  0.00000000000E+00 0. -1.
         13   -1    0    0    0    0 -0.00000000000E+00 -0.00000000000E+00 -0.10000000000E+04  0.10000000000E+04  0.00000000000E+00 0.  1.
    9000005    2    1    2  501    0 -0.23093549326E+02 -0.23612035663E+02 -0.68235902597E+03  0.68317763931E+03  0.51967580390E+01 0.  0.
         13    1    3    3    0    0 -0.17504743227E+02 -0.19971833483E+02 -0.57338294889E+03  0.57399764481E+03  0.00000000000E+00 0.  1.
          1    1    3    3  501    0 -0.55888060994E+01 -0.36402021801E+01 -0.10897607708E+03  0.10917999451E+03  0.00000000000E+00 0.  1.
         -1    1    1    2    0  502  0.23093549326E+02  0.23612035663E+02 -0.31637201150E+03  0.31809132322E+03  0.00000000000E+00 0. -1.
<mgrwt>
<rscale>  1 0.30000000E+03</rscale>
<asrwt>0</asrwt>
<pdfrwt beam="1">  1       21 0.46144190E-02 0.30000000E+03</pdfrwt>
<pdfrwt beam="2">0</pdfrwt>
<totfact> 0.33019736E+04</totfact>
</mgrwt>
</event>
<event>
 6    1  0.1295671E-001  0.3000000E+03  0.7818608E-02  0.1093470E+00
         21   -1    0    0  501  502  0.00000000000E+00  0.00000000000E+00  0.12127105405E+01  0.12127105405E+01  0.00000000000E+00 0. -1.
         13   -1    0    0    0    0 -0.00000000000E+00 -0.00000000000E+00 -0.10000000000E+04  0.10000000000E+04  0.00000000000E+00 0.  1.
    9000005    2    1    2  501    0 -0.26935774340E+02  0.21837187921E+02 -0.47135425829E+03  0.47264104929E+03  0.35108323464E+01 0.  0.
         13    1    3    3    0    0 -0.92192692212E+01  0.68942997258E+01 -0.17875401537E+03  0.17912432639E+03  0.00000000000E+00 0.  1.
          1    1    3    3  501    0 -0.17716505119E+02  0.14942888196E+02 -0.29260024293E+03  0.29351672290E+03  0.00000000000E+00 0.  1.
         -1    1    1    2    0  502  0.26935774340E+02 -0.21837187921E+02 -0.52743303117E+03  0.52857166125E+03  0.00000000000E+00 0. -1.
<mgrwt>
<rscale>  1 0.30000000E+03</rscale>
<asrwt>0</asrwt>
<pdfrwt beam="1">  1       21 0.44098658E-02 0.30000000E+03</pdfrwt>
<pdfrwt beam="2">0</pdfrwt>
<totfact> 0.35660839E+04</totfact>
</mgrwt>
</event>
<event>
 6    1  0.1295671E-001  0.3000000E+03  0.7818608E-02  0.1093470E+00
         21   -1    0    0  501  502  0.00000000000E+00  0.00000000000E+00  0.94483898588E+00  0.94483898588E+00  0.00000000000E+00 0. -1.
         13   -1    0    0    0    0 -0.00000000000E+00 -0.00000000000E+00 -0.10000000000E+04  0.10000000000E+04  0.00000000000E+00 0.  1.
    9000005    2    1    2  501    0 -0.27323242520E+02 -0.13773658202E+02 -0.47018618574E+03  0.47119143763E+03  0.31699198363E+01 0.  0.
         13    1    3    3    0    0 -0.26777617598E+02 -0.12877537824E+02 -0.45404778805E+03  0.45501897281E+03  0.00000000000E+00 0.  1.
          3    1    3    3  501    0 -0.54562492217E+00 -0.89612037757E+00 -0.16138397695E+02  0.16172464823E+02  0.00000000000E+00 0.  1.
         -3    1    1    2    0  502  0.27323242520E+02  0.13773658202E+02 -0.52886897527E+03  0.52975340135E+03  0.00000000000E+00 0. -1.
<mgrwt>
<rscale>  1 0.30000000E+03</rscale>
<asrwt>0</asrwt>
<pdfrwt beam="1">  1       21 0.34357854E-02 0.30000000E+03</pdfrwt>
<pdfrwt beam="2">0</pdfrwt>
<totfact> 0.54272734E+04</totfact>
</mgrwt>
</event>
<event>
 6    1  0.1295671E-001  0.3000000E+03  0.7818608E-02  0.1093470E+00
         21   -1    0    0  501  502  0.00000000000E+00  0.00000000000E+00  0.61213345143E+01  0.61213345143E+01  0.00000000000E+00 0. -1.
         13   -1    0    0    0    0 -0.00000000000E+00 -0.00000000000E+00 -0.10000000000E+04  0.10000000000E+04  0.00000000000E+00 0.  1.
    9000005    2    1    2  501    0  0.31561349181E+02  0.53673344665E+02 -0.80137458180E+03  0.80379790798E+03  0.35930244971E+01 0.  0.
         13    1    3    3    0    0  0.22868937377E+02  0.40210130475E+02 -0.57633060358E+03  0.57818406024E+03  0.00000000000E+00 0.  1.
          1    1    3    3  501    0  0.86924118031E+01  0.13463214191E+02 -0.22504397822E+03  0.22561384774E+03  0.00000000000E+00 0.  1.
         -1    1    1    2    0  502 -0.31561349181E+02 -0.53673344665E+02 -0.19250408368E+03  0.20232342653E+03  0.00000000000E+00 0. -1.
<mgrwt>
<rscale>  1 0.30000000E+03</rscale>
<asrwt>0</asrwt>
<pdfrwt beam="1">  1       21 0.22259445E-01 0.30000000E+03</pdfrwt>
<pdfrwt beam="2">0</pdfrwt>
<totfact> 0.19539572E+03</totfact>
</mgrwt>
</event>
<event>
 6    1  0.1295671E-001  0.3000000E+03  0.7818608E-02  0.1093470E+00
         21   -1    0    0  501  502  0.00000000000E+00  0.00000000000E+00  0.95083177918E+01  0.95083177918E+01  0.00000000000E+00 0. -1.
         13   -1    0    0    0    0 -0.00000000000E+00 -0.00000000000E+00 -0.10000000000E+04  0.10000000000E+04  0.00000000000E+00 0.  1.
    9000005    2    1    2  501    0  0.62350579288E+02  0.43643731649E+02 -0.81071829940E+03  0.81428834132E+03  0.29952909273E+01 0.  0.
         13    1    3    3    0    0  0.60968777023E+02  0.42322855943E+02 -0.79394365173E+03  0.79740512792E+03  0.00000000000E+00 0.  1.
          1    1    3    3  501    0  0.13818022649E+01  0.13208757059E+01 -0.16774647671E+02  0.16883213397E+02  0.00000000000E+00 0.  1.
         -3    1    1    2    0  502 -0.62350579288E+02 -0.43643731649E+02 -0.17977338281E+03  0.19521997648E+03  0.00000000000E+00 0. -1.
<mgrwt>
<rscale>  1 0.30000000E+03</rscale>
<asrwt>0</asrwt>
<pdfrwt beam="1">  1       21 0.34575774E-01 0.30000000E+03</pdfrwt>
<pdfrwt beam="2">0</pdfrwt>
<totfact> 0.81587968E+02</totfact>
</mgrwt>
</event>
<event>
 6    1  0.1295671E-001  0.3000000E+03  0.7818608E-02  0.1093470E+00
         21   -1    0    0  501  502  0.00000000000E+00  0.00000000000E+00  0.73912588267E+01  0.73912588267E+01  0.00000000000E+00 0. -1.
         13   -1    0    0    0    0 -0.00000000000E+00 -0.00000000000E+00 -0.10000000000E+04  0.10000000000E+04  0.00000000000E+00 0.  1.
    9000005    2    1    2  501    0 -0.37633879830E+02 -0.71740108106E+02 -0.66401562587E+03  0.66895900940E+03  0.51432330335E+01 0.  0.
         13    1    3    3    0    0  0.10708875058E-03 -0.66801574590E+00 -0.90301241807E+01  0.90547991566E+01  0.00000000000E+00 0.  1.
          1    1    3    3  501    0 -0.37633986919E+02 -0.71072092360E+02 -0.65498550169E+03  0.65990421025E+03  0.00000000000E+00 0.  1.
         -1    1    1    2    0  502  0.37633879830E+02  0.71740108106E+02 -0.32859311531E+03  0.33843224942E+03  0.00000000000E+00 0. -1.
<mgrwt>
<rscale>  1 0.30000000E+03</rscale>
<asrwt>0</asrwt>
<pdfrwt beam="1">  1       21 0.26877362E-01 0.30000000E+03</pdfrwt>
<pdfrwt beam="2">0</pdfrwt>
<totfact> 0.13525818E+03</totfact>
</mgrwt>
</event>
<event>
 6    1  0.1295671E-001  0.3000000E+03  0.7818608E-02  0.1093470E+00
         21   -1    0    0  501  502  0.00000000000E+00  0.00000000000E+00  0.11613443448E+01  0.11613443448E+01  0.00000000000E+00 0. -1.
         13   -1    0    0    0    0 -0.00000000000E+00 -0.00000000000E+00 -0.10000000000E+04  0.10000000000E+04  0.00000000000E+00 0.  1.
    9000005    2    1    2  501    0 -0.27953616191E+02  0.17728863819E+02 -0.38648887897E+03  0.38791753779E+03  0.32627117007E+01 0.  0.
         13    1    3    3    0    0 -0.81640636451E+01  0.61016115040E+01 -0.13439776995E+03  0.13478368657E+03  0.00000000000E+00 0.  1.
          3    1    3    3  501    0 -0.19789552546E+02  0.11627252315E+02 -0.25209110902E+03  0.25313385122E+03  0.00000000000E+00 0.  1.
         -3    1    1    2    0  502  0.27953616191E+02 -0.17728863819E+02 -0.61234977668E+03  0.61324380655E+03  0.00000000000E+00 0. -1.
<mgrwt>
<rscale>  1 0.30000000E+03</rscale>
<asrwt>0</asrwt>
<pdfrwt beam="1">  1       21 0.42230792E-02 0.30000000E+03</pdfrwt>
<pdfrwt beam="2">0</pdfrwt>
<totfact> 0.38369685E+04</totfact>
</mgrwt>
</event>
<event>
 6    1  0.1295671E-001  0.3000000E+03  0.7818608E-02  0.1093470E+00
         21   -1    0    0  501  502  0.00000000000E+00  0.00000000000E+00  0.17434096689E+01  0.17434096689E+01  0.00000000000E+00 0. -1.
         13   -1    0    0    0    0 -0.00000000000E+00 -0.00000000000E+00 -0.10000000000E+04  0.10000000000E+04  0.00000000000E+00 0.  1.
    9000005    2    1    2  501    0 -0.27154532270E+02 -0.13745586853E+02 -0.84167384532E+03  0.84223019449E+03  0.32448171500E+01 0.  0.
         13    1    3    3    0    0 -0.17047642584E+02 -0.92833477023E+01 -0.49544073771E+03  0.49582086205E+03  0.00000000000E+00 0.  1.
          3    1    3    3  501    0 -0.10106889686E+02 -0.44622391507E+01 -0.34623310761E+03  0.34640933244E+03  0.00000000000E+00 0.  1.
         -1    1    1    2    0  502  0.27154532270E+02  0.13745586853E+02 -0.15658274501E+03  0.15951321518E+03  0.00000000000E+00 0. -1.
<mgrwt>
<rscale>  1 0.30000000E+03</rscale>
<asrwt>0</asrwt>
<pdfrwt beam="1">  1       21 0.63396849E-02 0.30000000E+03</pdfrwt>
<pdfrwt beam="2">0</pdfrwt>
<totfact> 0.19160287E+04</totfact>
</mgrwt>
</event>
<event>
 6    1  0.1295671E-001  0.3000000E+03  0.7818608E-02  0.1093470E+00
         21   -1    0    0  501  502  0.00000000000E+00  0.00000000000E+00  0.24743956386E+01  0.24743956386E+01  0.00000000000E+00 0. -1.
         13   -1    0    0    0    0 -0.00000000000E+00 -0.00000000000E+00 -0.10000000000E+04  0.10000000000E+04  0.00000000000E+00 0.  1.
    9000005    2    1    2  501    0 -0.48035106119E+02  0.12424445130E+02 -0.47394545823E+03  0.47654863312E+03  0.35445868752E+01 0.  0.
         13    1    3    3    0    0 -0.31086738050E+02  0.97142364242E+01 -0.31477405941E+03  0.31645451514E+03  0.00000000000E+00 0.  1.
          1    1    3    3  501    0 -0.16948368069E+02  0.27102087061E+01 -0.15917139882E+03  0.16009411798E+03  0.00000000000E+00 0.  1.
         -1    1    1    2    0  502  0.48035106119E+02 -0.12424445130E+02 -0.52358014613E+03  0.52592576252E+03  0.00000000000E+00 0. -1.
<mgrwt>
<rscale>  1 0.30000000E+03</rscale>
<asrwt>0</asrwt>
<pdfrwt beam="1">  1       21 0.89978213E-02 0.30000000E+03</pdfrwt>
<pdfrwt beam="2">0</pdfrwt>
<totfact> 0.10382542E+04</totfact>
</mgrwt>
</event>
<event>
 6    1  0.1295671E-001  0.3000000E+03  0.7818608E-02  0.1093470E+00
         21   -1    0    0  501  502  0.00000000000E+00  0.00000000000E+00  0.11471308848E+01  0.11471308848E+01  0.00000000000E+00 0. -1.
         13   -1    0    0    0    0 -0.00000000000E+00 -0.00000000000E+00 -0.10000000000E+04  0.10000000000E+04  0.00000000000E+00 0.  1.
    9000005    2    1    2  501    0 -0.33433560550E+02 -0.47851528429E+01 -0.50557198931E+03  0.50671136454E+03  0.35594832836E+01 0.  0.
         13    1    3    3    0    0 -0.22581034752E+01  0.56956779592E+00 -0.35372062892E+02  0.35448642739E+02  0.00000000000E+00 0.  1.
          3    1    3    3  501    0 -0.31175457075E+02 -0.53547206388E+01 -0.47019992641E+03  0.47126272180E+03  0.00000000000E+00 0.  1.
         -1    1    1    2    0  502  0.33433560550E+02  0.47851528429E+01 -0.49328087981E+03  0.49443576635E+03  0.00000000000E+00 0. -1.
<mgrwt>
<rscale>  1 0.30000000E+03</rscale>
<asrwt>0</asrwt>
<pdfrwt beam="1">  1       21 0.41713938E-02 0.30000000E+03</pdfrwt>
<pdfrwt beam="2">0</pdfrwt>
<totfact> 0.39175881E+04</totfact>
</mgrwt>
</event>
<event>
 6    1  0.1295671E-001  0.3000000E+03  0.7818608E-02  0.1093470E+00
         21   -1    0    0  501  502  0.00000000000E+00  0.00000000000E+00  0.19434135501E+01  0.19434135501E+01  0.00000000000E+00 0. -1.
         13   -1    0    0    0    0 -0.00000000000E+00 -0.00000000000E+00 -0.10000000000E+04  0.10000000000E+04  0.00000000000E+00 0.  1.
    9000005    2    1    2  501    0 -0.41704702670E+02  0.13052334129E+02 -0.56079802882E+03  0.56250662416E+03  0.31028119078E+01 0.  0.
         13    1    3    3    0    0 -0.96654724274E+01  0.34715399616E+01 -0.11643426287E+03  0.11688631449E+03  0.00000000000E+00 0.  1.
          3    1    3    3  501    0 -0.32039230242E+02  0.95807941675E+01 -0.44436376595E+03  0.44562030966E+03  0.00000000000E+00 0.  1.
         -3    1    1    2    0  502  0.41704702670E+02 -0.13052334129E+02 -0.43725855763E+03  0.43943678939E+03  0.00000000000E+00 0. -1.
<mgrwt>
<rscale>  1 0.30000000E+03</rscale>
<asrwt>0</asrwt>
<pdfrwt beam="1">  1       21 0.70669733E-02 0.30000000E+03</pdfrwt>
<pdfrwt beam="2">0</pdfrwt>
<totfact> 0.15869999E+04</totfact>
</mgrwt>
</event>
<event>
 6    1  0.1295671E-001  0.3000000E+03  0.7818608E-02  0.1093470E+00
         21   -1    0    0  501  502  0.00000000000E+00  0.00000000000E+00  0.28630714661E+01  0.28630714661E+01  0.00000000000E+00 0. -1.
         13   -1    0    0    0    0 -0.00000000000E+00 -0.00000000000E+00 -0.10000000000E+04  0.10000000000E+04  0.00000000000E+00 0.  1.
    9000005    2    1    2  501    0  0.26342435428E+02 -0.37174412158E+02 -0.76067672732E+03  0.76205342136E+03  0.45246773101E+01 0.  0.
         13    1    3    3    0    0  0.90591436154E+01 -0.16242124009E+02 -0.32554828806E+03  0.32607907406E+03  0.00000000000E+00 0.  1.
          3    1    3    3  501    0  0.17283291812E+02 -0.20932288150E+02 -0.43512843925E+03  0.43597434731E+03  0.00000000000E+00 0.  1.
         -3    1    1    2    0  502 -0.26342435428E+02  0.37174412158E+02 -0.23646020122E+03  0.24080965010E+03  0.00000000000E+00 0. -1.
<mgrwt>
<rscale>  1 0.30000000E+03</rscale>
<asrwt>0</asrwt>
<pdfrwt beam="1">  1       21 0.10411191E-01 0.30000000E+03</pdfrwt>
<pdfrwt beam="2">0</pdfrwt>
<totfact> 0.80047901E+03</totfact>
</mgrwt>
</event>
<event>
 6    1  0.1295671E-001  0.3000000E+03  0.7818608E-02  0.1093470E+00
         21   -1    0    0  501  502  0.00000000000E+00  0.00000000000E+00  0.67090877188E+01  0.67090877188E+01  0.00000000000E+00 0. -1.
         13   -1    0    0    0    0 -0.00000000000E+00 -0.00000000000E+00 -0.10000000000E+04  0.10000000000E+04  0.00000000000E+00 0.  1.
    9000005    2    1    2  501    0 -0.15584336389E+02 -0.59519175069E+02 -0.82882737689E+03  0.83111393341E+03  0.31852618601E+01 0.  0.
         13    1    3    3    0    0 -0.13573868402E+02 -0.50583374373E+02 -0.71943468506E+03  0.72133847376E+03  0.00000000000E+00 0.  1.
          3    1    3    3  501    0 -0.20104679868E+01 -0.89358006955E+01 -0.10939269183E+03  0.10977545965E+03  0.00000000000E+00 0.  1.
         -1    1    1    2    0  502  0.15584336389E+02  0.59519175069E+02 -0.16446353539E+03  0.17559515431E+03  0.00000000000E+00 0. -1.
<mgrwt>
<rscale>  1 0.30000000E+03</rscale>
<asrwt>0</asrwt>
<pdfrwt beam="1">  1       21 0.24396734E-01 0.30000000E+03</pdfrwt>
<pdfrwt beam="2">0</pdfrwt>
<totfact> 0.16358257E+03</totfact>
</mgrwt>
</event>
<event>
 6    1  0.1295671E-001  0.3000000E+03  0.7818608E-02  0.1093470E+00
         21   -1    0    0  501  502  0.00000000000E+00  0.00000000000E+00  0.42670835340E+01  0.42670835340E+01  0.00000000000E+00 0. -1.
         13   -1    0    0    0    0 -0.00000000000E+00 -0.00000000000E+00 -0.10000000000E+04  0.10000000000E+04  0.00000000000E+00 0.  1.
    9000005    2    1    2  501    0 -0.55769131786E+02 -0.17637319426E+02 -0.72121938050E+03  0.72359119835E+03  0.23572060799E+01 0.  0.
         13    1    3    3    0    0 -0.30370200864E+02 -0.96906955974E+01 -0.37854734291E+03  0.37988728527E+03  0.00000000000E+00 0.  1.
          1    1    3    3  501    0 -0.25398930921E+02 -0.79466238288E+01 -0.34267203759E+03  0.34370391308E+03  0.00000000000E+00 0.  1.
         -1    1    1    2    0  502  0.55769131786E+02  0.17637319426E+02 -0.27451353596E+03  0.28067588519E+03  0.00000000000E+00 0. -1.
<mgrwt>
<rscale>  1 0.30000000E+03</rscale>
<asrwt>0</asrwt>
<pdfrwt beam="1">  1       21 0.15516700E-01 0.30000000E+03</pdfrwt>
<pdfrwt beam="2">0</pdfrwt>
<totfact> 0.38673155E+03</totfact>
</mgrwt>
</event>
<event>
 6    1  0.1295671E-001  0.3000000E+03  0.7818608E-02  0.1093470E+00
         21   -1    0    0  501  502  0.00000000000E+00  0.00000000000E+00  0.17830596346E+01  0.17830596346E+01  0.00000000000E+00 0. -1.
         13   -1    0    0    0    0 -0.00000000000E+00 -0.00000000000E+00 -0.10000000000E+04  0.10000000000E+04  0.00000000000E+00 0.  1.
    9000005    2    1    2  501    0 -0.13885820192E+02  0.33206553232E+02 -0.76025590410E+03  0.76111535103E+03  0.34708340372E+01 0.  0.
         13    1    3    3    0    0 -0.60077548547E+01  0.17750545130E+02 -0.41875739103E+03  0.41917648731E+03  0.00000000000E+00 0.  1.
          3    1    3    3  501    0 -0.78780653374E+01  0.15456008103E+02 -0.34149851306E+03  0.34193886372E+03  0.00000000000E+00 0.  1.
         -1    1    1    2    0  502  0.13885820192E+02 -0.33206553232E+02 -0.23796103627E+03  0.24066770860E+03  0.00000000000E+00 0. -1.
<mgrwt>
<rscale>  1 0.30000000E+03</rscale>
<asrwt>0</asrwt>
<pdfrwt beam="1">  1       21 0.64838669E-02 0.30000000E+03</pdfrwt>
<pdfrwt beam="2">0</pdfrwt>
<totfact> 0.18429164E+04</totfact>
</mgrwt>
</event>
<event>
 6    1  0.1295671E-001  0.3000000E+03  0.7818608E-02  0.1093470E+00
         21   -1    0    0  501  502  0.00000000000E+00  0.00000000000E+00  0.20055096027E+01  0.20055096027E+01  0.00000000000E+00 0. -1.
         13   -1    0    0    0    0 -0.00000000000E+00 -0.00000000000E+00 -0.10000000000E+04  0.10000000000E+04  0.00000000000E+00 0.  1.
    9000005    2    1    2  501    0  0.40922034800E+02 -0.11403145675E+02 -0.65538346070E+03  0.65677086138E+03  0.39798410504E+01 0.  0.
         13    1    3    3    0    0  0.39678109474E+02 -0.11091227541E+02 -0.62211965311E+03  0.62348234176E+03  0.00000000000E+00 0.  1.
          3    1    3    3  501    0  0.12439253267E+01 -0.31191813407E+00 -0.33263807588E+02  0.33288519619E+02  0.00000000000E+00 0.  1.
         -1    1    1    2    0  502 -0.40922034800E+02  0.11403145675E+02 -0.34261102969E+03  0.34523464822E+03  0.00000000000E+00 0. -1.
<mgrwt>
<rscale>  1 0.30000000E+03</rscale>
<asrwt>0</asrwt>
<pdfrwt beam="1">  1       21 0.72927776E-02 0.30000000E+03</pdfrwt>
<pdfrwt beam="2">0</pdfrwt>
<totfact> 0.15022884E+04</totfact>
</mgrwt>
</event>
<event>
 6    1  0.1295671E-001  0.3000000E+03  0.7818608E-02  0.1093470E+00
         21   -1    0    0  501  502  0.00000000000E+00  0.00000000000E+00  0.17175638163E+01  0.17175638163E+01  0.00000000000E+00 0. -1.
         13   -1    0    0    0    0 -0.00000000000E+00 -0.00000000000E+00 -0.10000000000E+04  0.10000000000E+04  0.00000000000E+00 0.  1.
    9000005    2    1    2  501    0  0.32719333890E+02 -0.23896197409E+02 -0.60164262321E+03  0.60301375859E+03  0.31880923703E+01 0.  0.
         13    1    3    3    0    0  0.31342854698E+01 -0.15827438713E+01 -0.63263050023E+02  0.63360416048E+02  0.00000000000E+00 0.  1.
          3    1    3    3  501    0  0.29585048420E+02 -0.22313453538E+02 -0.53837957318E+03  0.53965334254E+03  0.00000000000E+00 0.  1.
         -1    1    1    2    0  502 -0.32719333890E+02  0.23896197409E+02 -0.39663981298E+03  0.39870380522E+03  0.00000000000E+00 0. -1.
<mgrwt>
<rscale>  1 0.30000000E+03</rscale>
<asrwt>0</asrwt>
<pdfrwt beam="1">  1       21 0.62456998E-02 0.30000000E+03</pdfrwt>
<pdfrwt beam="2">0</pdfrwt>
<totfact> 0.19661333E+04</totfact>
</mgrwt>
</event>
<event>
 6    1  0.1295671E-001  0.3000000E+03  0.7818608E-02  0.1093470E+00
         21   -1    0    0  501  502  0.00000000000E+00  0.00000000000E+00  0.16030673321E+01  0.16030673321E+01  0.00000000000E+00 0. -1.
         13   -1    0    0    0    0 -0.00000000000E+00 -0.00000000000E+00 -0.10000000000E+04  0.10000000000E+04  0.00000000000E+00 0.  1.
    9000005    2    1    2  501    0 -0.11200741863E+02  0.30682706836E+02 -0.78823510691E+03  0.78891814045E+03  0.32192310019E+01 0.  0.
         13    1    3    3    0    0 -0.79832815255E+01  0.20731902567E+02 -0.56955290841E+03  0.56998601741E+03  0.00000000000E+00 0.  1.
          1    1    3    3  501    0 -0.32174603370E+01  0.99508042699E+01 -0.21868219850E+03  0.21893212304E+03  0.00000000000E+00 0.  1.
         -3    1    1    2    0  502  0.11200741863E+02 -0.30682706836E+02 -0.21016182576E+03  0.21268492688E+03  0.00000000000E+00 0. -1.
<mgrwt>
<rscale>  1 0.30000000E+03</rscale>
<asrwt>0</asrwt>
<pdfrwt beam="1">  1       21 0.58293480E-02 0.30000000E+03</pdfrwt>
<pdfrwt beam="2">0</pdfrwt>
<totfact> 0.22146193E+04</totfact>
</mgrwt>
</event>
<event>
 6    1  0.1295671E-001  0.3000000E+03  0.7818608E-02  0.1093470E+00
         21   -1    0    0  501  502  0.00000000000E+00  0.00000000000E+00  0.14967200019E+01  0.14967200019E+01  0.00000000000E+00 0. -1.
         13   -1    0    0    0    0 -0.00000000000E+00 -0.00000000000E+00 -0.10000000000E+04  0.10000000000E+04  0.00000000000E+00 0.  1.
    9000005    2    1    2  501    0  0.21513662795E+02 -0.22198626441E+02 -0.79972600848E+03  0.80033007173E+03  0.33042974168E+01 0.  0.
         13    1    3    3    0    0  0.19709733103E+01 -0.12321475380E+01 -0.79504094499E+02  0.79538066141E+02  0.00000000000E+00 0.  1.
          3    1    3    3  501    0  0.19542689485E+02 -0.20966478903E+02 -0.72022191398E+03  0.72079200559E+03  0.00000000000E+00 0.  1.
         -1    1    1    2    0  502 -0.21513662795E+02  0.22198626441E+02 -0.19877727152E+03  0.20116664827E+03  0.00000000000E+00 0. -1.
<mgrwt>
<rscale>  1 0.30000000E+03</rscale>
<asrwt>0</asrwt>
<pdfrwt beam="1">  1       21 0.54426297E-02 0.30000000E+03</pdfrwt>
<pdfrwt beam="2">0</pdfrwt>
<totfact> 0.24917995E+04</totfact>
</mgrwt>
</event>
<event>
 6    1  0.1295671E-001  0.3000000E+03  0.7818608E-02  0.1093470E+00
         21   -1    0    0  501  502  0.00000000000E+00  0.00000000000E+00  0.11526835064E+01  0.11526835064E+01  0.00000000000E+00 0. -1.
         13   -1    0    0    0    0 -0.00000000000E+00 -0.00000000000E+00 -0.10000000000E+04  0.10000000000E+04  0.00000000000E+00 0.  1.
    9000005    2    1    2  501    0 -0.32034133511E+02  0.91632577537E+01 -0.41181592994E+03  0.41317649368E+03  0.35076738486E+01 0.  0.
         13    1    3    3    0    0 -0.22099123878E+02  0.56775882594E+01 -0.29968967395E+03  0.30055699452E+03  0.00000000000E+00 0.  1.
          1    1    3    3  501    0 -0.99350096326E+01  0.34856694943E+01 -0.11212625600E+03  0.11261949917E+03  0.00000000000E+00 0.  1.
         -1    1    1    2    0  502  0.32034133511E+02 -0.91632577537E+01 -0.58703138655E+03  0.58797618982E+03  0.00000000000E+00 0. -1.
<mgrwt>
<rscale>  1 0.30000000E+03</rscale>
<asrwt>0</asrwt>
<pdfrwt beam="1">  1       21 0.41915852E-02 0.30000000E+03</pdfrwt>
<pdfrwt beam="2">0</pdfrwt>
<totfact> 0.38857824E+04</totfact>
</mgrwt>
</event>
<event>
 6    1  0.1295671E-001  0.3000000E+03  0.7818608E-02  0.1093470E+00
         21   -1    0    0  501  502  0.00000000000E+00  0.00000000000E+00  0.13131700715E+01  0.13131700715E+01  0.00000000000E+00 0. -1.
         13   -1    0    0    0    0 -0.00000000000E+00 -0.00000000000E+00 -0.10000000000E+04  0.10000000000E+04  0.00000000000E+00 0.  1.
    9000005    2    1    2  501    0  0.32423505754E+02 -0.13683632593E+02 -0.61492073699E+03  0.61593680907E+03  0.34805841075E+01 0.  0.
         13    1    3    3    0    0  0.15394087117E+02 -0.47393167226E+01 -0.26949897895E+03  0.26997988572E+03  0.00000000000E+00 0.  1.
          3    1    3    3  501    0  0.17029418637E+02 -0.89443158709E+01 -0.34542175804E+03  0.34595692335E+03  0.00000000000E+00 0.  1.
         -3    1    1    2    0  502 -0.32423505754E+02  0.13683632593E+02 -0.38376609294E+03  0.38537636100E+03  0.00000000000E+00 0. -1.
<mgrwt>
<rscale>  1 0.30000000E+03</rscale>
<asrwt>0</asrwt>
<pdfrwt beam="1">  1       21 0.47751740E-02 0.30000000E+03</pdfrwt>
<pdfrwt beam="2">0</pdfrwt>
<totfact> 0.31152181E+04</totfact>
</mgrwt>
</event>
<event>
 6    1  0.1295671E-001  0.3000000E+03  0.7818608E-02  0.1093470E+00
         21   -1    0    0  501  502  0.00000000000E+00  0.00000000000E+00  0.12660135231E+01  0.12660135231E+01  0.00000000000E+00 0. -1.
         13   -1    0    0    0    0 -0.00000000000E+00 -0.00000000000E+00 -0.10000000000E+04  0.10000000000E+04  0.00000000000E+00 0.  1.
    9000005    2    1    2  501    0  0.29183168751E+02  0.96987664329E+01 -0.75016930110E+03  0.75080618396E+03  0.31972096706E+01 0.  0.
         13    1    3    3    0    0  0.13266190233E+02  0.56229277618E+01 -0.32382686741E+03  0.32414726464E+03  0.00000000000E+00 0.  1.
          1    1    3    3  501    0  0.15916978519E+02  0.40758386711E+01 -0.42634243369E+03  0.42665891931E+03  0.00000000000E+00 0.  1.
         -3    1    1    2    0  502 -0.29183168751E+02 -0.96987664329E+01 -0.24856468538E+03  0.25045982957E+03  0.00000000000E+00 0. -1.
<mgrwt>
<rscale>  1 0.30000000E+03</rscale>
<asrwt>0</asrwt>
<pdfrwt beam="1">  1       21 0.46036952E-02 0.30000000E+03</pdfrwt>
<pdfrwt beam="2">0</pdfrwt>
<totfact> 0.33150527E+04</totfact>
</mgrwt>
</event>
<event>
 6    1  0.1295671E-001  0.3000000E+03  0.7818608E-02  0.1093470E+00
         21   -1    0    0  501  502  0.00000000000E+00  0.00000000000E+00  0.11599853155E+01  0.11599853155E+01  0.00000000000E+00 0. -1.
         13   -1    0    0    0    0 -0.00000000000E+00 -0.00000000000E+00 -0.10000000000E+04  0.10000000000E+04  0.00000000000E+00 0.  1.
    9000005    2    1    2  501    0 -0.25964138807E+02 -0.15837939659E+02 -0.72295280646E+03  0.72360147167E+03  0.36541201614E+01 0.  0.
         13    1    3    3    0    0 -0.61449163930E+01 -0.49258481036E+01 -0.15877516958E+03  0.15897036973E+03  0.00000000000E+00 0.  1.
          3    1    3    3  501    0 -0.19819222414E+02 -0.10912091555E+02 -0.56417763689E+03  0.56463110195E+03  0.00000000000E+00 0.  1.
         -1    1    1    2    0  502  0.25964138807E+02  0.15837939659E+02 -0.27588720822E+03  0.27755851364E+03  0.00000000000E+00 0. -1.
<mgrwt>
<rscale>  1 0.30000000E+03</rscale>
<asrwt>0</asrwt>
<pdfrwt beam="1">  1       21 0.42181373E-02 0.30000000E+03</pdfrwt>
<pdfrwt beam="2">0</pdfrwt>
<totfact> 0.38445649E+04</totfact>
</mgrwt>
</event>
<event>
 6    1  0.1295671E-001  0.3000000E+03  0.7818608E-02  0.1093470E+00
         21   -1    0    0  501  502  0.00000000000E+00  0.00000000000E+00  0.14604493255E+01  0.14604493255E+01  0.00000000000E+00 0. -1.
         13   -1    0    0    0    0 -0.00000000000E+00 -0.00000000000E+00 -0.10000000000E+04  0.10000000000E+04  0.00000000000E+00 0.  1.
    9000005    2    1    2  501    0  0.16333805544E+02  0.32147482910E+02 -0.33672055590E+03  0.33865984907E+03  0.30833005635E+01 0.  0.
         13    1    3    3    0    0  0.17392164585E+01  0.54397776399E+01 -0.59601903256E+02  0.59874893957E+02  0.00000000000E+00 0.  1.
          3    1    3    3  501    0  0.14594589086E+02  0.26707705270E+02 -0.27711865265E+03  0.27878495511E+03  0.00000000000E+00 0.  1.
         -3    1    1    2    0  502 -0.16333805544E+02 -0.32147482910E+02 -0.66181899477E+03  0.66280060026E+03  0.00000000000E+00 0. -1.
<mgrwt>
<rscale>  1 0.30000000E+03</rscale>
<asrwt>0</asrwt>
<pdfrwt beam="1">  1       21 0.53107360E-02 0.30000000E+03</pdfrwt>
<pdfrwt beam="2">0</pdfrwt>
<totfact> 0.25986762E+04</totfact>
</mgrwt>
</event>
<event>
 6    1  0.1295671E-001  0.3000000E+03  0.7818608E-02  0.1093470E+00
         21   -1    0    0  501  502  0.00000000000E+00  0.00000000000E+00  0.13684923252E+01  0.13684923252E+01  0.00000000000E+00 0. -1.
         13   -1    0    0    0    0 -0.00000000000E+00 -0.00000000000E+00 -0.10000000000E+04  0.10000000000E+04  0.00000000000E+00 0.  1.
    9000005    2    1    2  501    0 -0.30536586537E+02 -0.13395316408E+02 -0.71439716749E+03  0.71518484891E+03  0.37599961833E+01 0.  0.
         13    1    3    3    0    0 -0.17966187619E+02 -0.98744281132E+01 -0.43302094743E+03  0.43350597360E+03  0.00000000000E+00 0.  1.
          1    1    3    3  501    0 -0.12570398918E+02 -0.35208882945E+01 -0.28137622006E+03  0.28167887531E+03  0.00000000000E+00 0.  1.
         -3    1    1    2    0  502  0.30536586537E+02  0.13395316408E+02 -0.28423434018E+03  0.28618364342E+03  0.00000000000E+00 0. -1.
<mgrwt>
<rscale>  1 0.30000000E+03</rscale>
<asrwt>0</asrwt>
<pdfrwt beam="1">  1       21 0.49763462E-02 0.30000000E+03</pdfrwt>
<pdfrwt beam="2">0</pdfrwt>
<totfact> 0.29038422E+04</totfact>
</mgrwt>
</event>
<event>
 6    1  0.1295671E-001  0.3000000E+03  0.7818608E-02  0.1093470E+00
         21   -1    0    0  501  502  0.00000000000E+00  0.00000000000E+00  0.12544889112E+01  0.12544889112E+01  0.00000000000E+00 0. -1.
         13   -1    0    0    0    0 -0.00000000000E+00 -0.00000000000E+00 -0.10000000000E+04  0.10000000000E+04  0.00000000000E+00 0.  1.
    9000005    2    1    2  501    0 -0.32921232599E+02 -0.82240618943E+01 -0.63986347616E+03  0.64077181562E+03  0.34363959432E+01 0.  0.
         13    1    3    3    0    0 -0.17760221364E+00 -0.27214622299E+00 -0.12396939213E+02  0.12401197844E+02  0.00000000000E+00 0.  1.
          3    1    3    3  501    0 -0.32743630385E+02 -0.79519156713E+01 -0.62746653695E+03  0.62837061778E+03  0.00000000000E+00 0.  1.
         -1    1    1    2    0  502  0.32921232599E+02  0.82240618943E+01 -0.35888203492E+03  0.36048267329E+03  0.00000000000E+00 0. -1.
<mgrwt>
<rscale>  1 0.30000000E+03</rscale>
<asrwt>0</asrwt>
<pdfrwt beam="1">  1       21 0.45617875E-02 0.30000000E+03</pdfrwt>
<pdfrwt beam="2">0</pdfrwt>
<totfact> 0.33669533E+04</totfact>
</mgrwt>
</event>
<event>
 6    1  0.1295671E-001  0.3000000E+03  0.7818608E-02  0.1093470E+00
         21   -1    0    0  501  502  0.00000000000E+00  0.00000000000E+00  0.23859233315E+01  0.23859233315E+01  0.00000000000E+00 0. -1.
         13   -1    0    0    0    0 -0.00000000000E+00 -0.00000000000E+00 -0.10000000000E+04  0.10000000000E+04  0.00000000000E+00 0.  1.
    9000005    2    1    2  501    0 -0.30432521963E+02  0.27711408016E+02 -0.76670401861E+03  0.76783632210E+03  0.65958206109E+01 0.  0.
         13    1    3    3    0    0 -0.27929972022E+02  0.25962306175E+02 -0.67015584942E+03  0.67123988796E+03  0.00000000000E+00 0.  1.
          1    1    3    3  501    0 -0.25025499406E+01  0.17491018411E+01 -0.96548169197E+02  0.96596434141E+02  0.00000000000E+00 0.  1.
         -3    1    1    2    0  502  0.30432521963E+02 -0.27711408016E+02 -0.23091005805E+03  0.23454960123E+03  0.00000000000E+00 0. -1.
<mgrwt>
<rscale>  1 0.30000000E+03</rscale>
<asrwt>0</asrwt>
<pdfrwt beam="1">  1       21 0.86761031E-02 0.30000000E+03</pdfrwt>
<pdfrwt beam="2">0</pdfrwt>
<totfact> 0.11073204E+04</totfact>
</mgrwt>
</event>
<event>
 6    1  0.1295671E-001  0.3000000E+03  0.7818608E-02  0.1093470E+00
         21   -1    0    0  501  502  0.00000000000E+00  0.00000000000E+00  0.40481387616E+01  0.40481387616E+01  0.00000000000E+00 0. -1.
         13   -1    0    0    0    0 -0.00000000000E+00 -0.00000000000E+00 -0.10000000000E+04  0.10000000000E+04  0.00000000000E+00 0.  1.
    9000005    2    1    2  501    0 -0.41222988476E+02 -0.19220197044E+02 -0.84754159926E+03  0.84882456899E+03  0.10374761912E+02 0.  0.
         13    1    3    3    0    0 -0.39560081054E+02 -0.17587016449E+02 -0.83006343504E+03  0.83119168027E+03  0.00000000000E+00 0.  1.
          3    1    3    3  501    0 -0.16629074220E+01 -0.16331805955E+01 -0.17478164228E+02  0.17632888724E+02  0.00000000000E+00 0.  1.
         -1    1    1    2    0  502  0.41222988476E+02  0.19220197044E+02 -0.14841026197E+03  0.15522356977E+03  0.00000000000E+00 0. -1.
<mgrwt>
<rscale>  1 0.30000000E+03</rscale>
<asrwt>0</asrwt>
<pdfrwt beam="1">  1       21 0.14720536E-01 0.30000000E+03</pdfrwt>
<pdfrwt beam="2">0</pdfrwt>
<totfact> 0.42637418E+03</totfact>
</mgrwt>
</event>
<event>
 6    1  0.1295671E-001  0.3000000E+03  0.7818608E-02  0.1093470E+00
         21   -1    0    0  501  502  0.00000000000E+00  0.00000000000E+00  0.73612358083E+01  0.73612358083E+01  0.00000000000E+00 0. -1.
         13   -1    0    0    0    0 -0.00000000000E+00 -0.00000000000E+00 -0.10000000000E+04  0.10000000000E+04  0.00000000000E+00 0.  1.
    9000005    2    1    2  501    0  0.42256097231E+02 -0.79238121459E+01 -0.93211637615E+03  0.93312294376E+03  0.53967517332E+01 0.  0.
         13    1    3    3    0    0  0.84172246841E+01 -0.23327688303E+01 -0.14889577524E+03  0.14915174611E+03  0.00000000000E+00 0.  1.
          1    1    3    3  501    0  0.33838872547E+02 -0.55910433156E+01 -0.78322060091E+03  0.78397119766E+03  0.00000000000E+00 0.  1.
         -1    1    1    2    0  502 -0.42256097231E+02  0.79238121459E+01 -0.60522388037E+02  0.74238292046E+02  0.00000000000E+00 0. -1.
<mgrwt>
<rscale>  1 0.30000000E+03</rscale>
<asrwt>0</asrwt>
<pdfrwt beam="1">  1       21 0.26768187E-01 0.30000000E+03</pdfrwt>
<pdfrwt beam="2">0</pdfrwt>
<totfact> 0.13634916E+03</totfact>
</mgrwt>
</event>
<event>
 6    1  0.1295671E-001  0.3000000E+03  0.7818608E-02  0.1093470E+00
         21   -1    0    0  501  502  0.00000000000E+00  0.00000000000E+00  0.32633540301E+01  0.32633540301E+01  0.00000000000E+00 0. -1.
         13   -1    0    0    0    0 -0.00000000000E+00 -0.00000000000E+00 -0.10000000000E+04  0.10000000000E+04  0.00000000000E+00 0.  1.
    9000005    2    1    2  501    0  0.23817694718E+02  0.24202630319E+02 -0.90159166757E+03  0.90224050112E+03  0.41637635448E+01 0.  0.
         13    1    3    3    0    0  0.22970904913E+02  0.23821815772E+02 -0.85612312094E+03  0.85676247560E+03  0.00000000000E+00 0.  1.
          3    1    3    3  501    0  0.84678980557E+00  0.38081454741E+00 -0.45468546634E+02  0.45478025525E+02  0.00000000000E+00 0.  1.
         -3    1    1    2    0  502 -0.23817694718E+02 -0.24202630319E+02 -0.95144978395E+02  0.10102285291E+03  0.00000000000E+00 0. -1.
<mgrwt>
<rscale>  1 0.30000000E+03</rscale>
<asrwt>0</asrwt>
<pdfrwt beam="1">  1       21 0.11866767E-01 0.30000000E+03</pdfrwt>
<pdfrwt beam="2">0</pdfrwt>
<totfact> 0.63238929E+03</totfact>
</mgrwt>
</event>
<event>
 6    1  0.1295671E-001  0.3000000E+03  0.7818608E-02  0.1093470E+00
         21   -1    0    0  501  502  0.00000000000E+00  0.00000000000E+00  0.16455994966E+01  0.16455994966E+01  0.00000000000E+00 0. -1.
         13   -1    0    0    0    0 -0.00000000000E+00 -0.00000000000E+00 -0.10000000000E+04  0.10000000000E+04  0.00000000000E+00 0.  1.
    9000005    2    1    2  501    0 -0.39445281053E+02  0.67321598630E+01 -0.57484915819E+03  0.57625408284E+03  0.39951405491E+01 0.  0.
         13    1    3    3    0    0 -0.10213359428E+02  0.30938800362E+01 -0.17004074735E+03  0.17037529329E+03  0.00000000000E+00 0.  1.
          3    1    3    3  501    0 -0.29231921625E+02  0.36382798268E+01 -0.40480841084E+03  0.40587878955E+03  0.00000000000E+00 0.  1.
         -1    1    1    2    0  502  0.39445281053E+02 -0.67321598630E+01 -0.42350524231E+03  0.42539151665E+03  0.00000000000E+00 0. -1.
<mgrwt>
<rscale>  1 0.30000000E+03</rscale>
<asrwt>0</asrwt>
<pdfrwt beam="1">  1       21 0.59840108E-02 0.30000000E+03</pdfrwt>
<pdfrwt beam="2">0</pdfrwt>
<totfact> 0.21168857E+04</totfact>
</mgrwt>
</event>
<event>
 6    1  0.1295671E-001  0.3000000E+03  0.7818608E-02  0.1093470E+00
         21   -1    0    0  501  502  0.00000000000E+00  0.00000000000E+00  0.39638598366E+01  0.39638598366E+01  0.00000000000E+00 0. -1.
         13   -1    0    0    0    0 -0.00000000000E+00 -0.00000000000E+00 -0.10000000000E+04  0.10000000000E+04  0.00000000000E+00 0.  1.
    9000005    2    1    2  501    0  0.10211188550E+02 -0.54882472110E+02 -0.72988887554E+03  0.73202504212E+03  0.25568598548E+01 0.  0.
         13    1    3    3    0    0  0.65329754019E+01 -0.40309328314E+02 -0.52531771064E+03  0.52690247564E+03  0.00000000000E+00 0.  1.
          3    1    3    3  501    0  0.36782131482E+01 -0.14573143796E+02 -0.20457116490E+03  0.20512256648E+03  0.00000000000E+00 0.  1.
         -3    1    1    2    0  502 -0.10211188550E+02  0.54882472110E+02 -0.26614726462E+03  0.27193881772E+03  0.00000000000E+00 0. -1.
<mgrwt>
<rscale>  1 0.30000000E+03</rscale>
<asrwt>0</asrwt>
<pdfrwt beam="1">  1       21 0.14414066E-01 0.30000000E+03</pdfrwt>
<pdfrwt beam="2">0</pdfrwt>
<totfact> 0.44324760E+03</totfact>
</mgrwt>
</event>
<event>
 6    1  0.1295671E-001  0.3000000E+03  0.7818608E-02  0.1093470E+00
         21   -1    0    0  501  502  0.00000000000E+00  0.00000000000E+00  0.16936487048E+01  0.16936487048E+01  0.00000000000E+00 0. -1.
         13   -1    0    0    0    0 -0.00000000000E+00 -0.00000000000E+00 -0.10000000000E+04  0.10000000000E+04  0.00000000000E+00 0.  1.
    9000005    2    1    2  501    0  0.14489205363E+02 -0.27957939541E+02 -0.82106560746E+03  0.82167735853E+03  0.36559951896E+01 0.  0.
         13    1    3    3    0    0  0.43727615266E+01 -0.11473109083E+02 -0.29062743794E+03  0.29088668061E+03  0.00000000000E+00 0.  1.
          3    1    3    3  501    0  0.10116443837E+02 -0.16484830458E+02 -0.53043816952E+03  0.53079067791E+03  0.00000000000E+00 0.  1.
         -3    1    1    2    0  502 -0.14489205363E+02  0.27957939541E+02 -0.17724074383E+03  0.18001629018E+03  0.00000000000E+00 0. -1.
<mgrwt>
<rscale>  1 0.30000000E+03</rscale>
<asrwt>0</asrwt>
<pdfrwt beam="1">  1       21 0.61587356E-02 0.30000000E+03</pdfrwt>
<pdfrwt beam="2">0</pdfrwt>
<totfact> 0.20143286E+04</totfact>
</mgrwt>
</event>
<event>
 6    1  0.1295671E-001  0.3000000E+03  0.7818608E-02  0.1093470E+00
         21   -1    0    0  501  502  0.00000000000E+00  0.00000000000E+00  0.12541390455E+01  0.12541390455E+01  0.00000000000E+00 0. -1.
         13   -1    0    0    0    0 -0.00000000000E+00 -0.00000000000E+00 -0.10000000000E+04  0.10000000000E+04  0.00000000000E+00 0.  1.
    9000005    2    1    2  501    0  0.33606189094E+02 -0.58394376363E+01 -0.62946834284E+03  0.63040462730E+03  0.40155330726E+01 0.  0.
         13    1    3    3    0    0  0.29683533221E+02 -0.53707166551E+01 -0.57684940927E+03  0.57763760067E+03  0.00000000000E+00 0.  1.
          1    1    3    3  501    0  0.39226558732E+01 -0.46872098124E+00 -0.52618933569E+02  0.52767026621E+02  0.00000000000E+00 0.  1.
         -3    1    1    2    0  502 -0.33606189094E+02  0.58394376363E+01 -0.36927751812E+03  0.37084951175E+03  0.00000000000E+00 0. -1.
<mgrwt>
<rscale>  1 0.30000000E+03</rscale>
<asrwt>0</asrwt>
<pdfrwt beam="1">  1       21 0.45605152E-02 0.30000000E+03</pdfrwt>
<pdfrwt beam="2">0</pdfrwt>
<totfact> 0.33685488E+04</totfact>
</mgrwt>
</event>
<event>
 6    1  0.1295671E-001  0.3000000E+03  0.7818608E-02  0.1093470E+00
         21   -1    0    0  501  502  0.00000000000E+00  0.00000000000E+00  0.13955149491E+01  0.13955149491E+01  0.00000000000E+00 0. -1.
         13   -1    0    0    0    0 -0.00000000000E+00 -0.00000000000E+00 -0.10000000000E+04  0.10000000000E+04  0.00000000000E+00 0.  1.
    9000005    2    1    2  501    0  0.19195703639E+02 -0.27884776905E+02 -0.29041242115E+03  0.29239478491E+03  0.30496006466E+01 0.  0.
         13    1    3    3    0    0  0.46400147519E+01 -0.81028905534E+01 -0.90011372179E+02  0.90494384874E+02  0.00000000000E+00 0.  1.
          1    1    3    3  501    0  0.14555688887E+02 -0.19781886352E+02 -0.20040104897E+03  0.20190040004E+03  0.00000000000E+00 0.  1.
         -3    1    1    2    0  502 -0.19195703639E+02  0.27884776905E+02 -0.70819206390E+03  0.70900073004E+03  0.00000000000E+00 0. -1.
<mgrwt>
<rscale>  1 0.30000000E+03</rscale>
<asrwt>0</asrwt>
<pdfrwt beam="1">  1       21 0.50746105E-02 0.30000000E+03</pdfrwt>
<pdfrwt beam="2">0</pdfrwt>
<totfact> 0.28086174E+04</totfact>
</mgrwt>
</event>
<event>
 6    1  0.1295671E-001  0.3000000E+03  0.7818608E-02  0.1093470E+00
         21   -1    0    0  501  502  0.00000000000E+00  0.00000000000E+00  0.10703570783E+01  0.10703570783E+01  0.00000000000E+00 0. -1.
         13   -1    0    0    0    0 -0.00000000000E+00 -0.00000000000E+00 -0.10000000000E+04  0.10000000000E+04  0.00000000000E+00 0.  1.
    9000005    2    1    2  501    0  0.27133241016E+02  0.17391570212E+02 -0.57826971117E+03  0.57917764836E+03  0.34942851623E+01 0.  0.
         13    1    3    3    0    0  0.81543857744E+01  0.52210306171E+01 -0.14642179865E+03  0.14674159700E+03  0.00000000000E+00 0.  1.
          3    1    3    3  501    0  0.18978855242E+02  0.12170539595E+02 -0.43184791251E+03  0.43243605137E+03  0.00000000000E+00 0.  1.
         -1    1    1    2    0  502 -0.27133241016E+02 -0.17391570212E+02 -0.42065993175E+03  0.42189270871E+03  0.00000000000E+00 0. -1.
<mgrwt>
<rscale>  1 0.30000000E+03</rscale>
<asrwt>0</asrwt>
<pdfrwt beam="1">  1       21 0.38922158E-02 0.30000000E+03</pdfrwt>
<pdfrwt beam="2">0</pdfrwt>
<totfact> 0.44025362E+04</totfact>
</mgrwt>
</event>
<event>
 6    1  0.1295671E-001  0.3000000E+03  0.7818608E-02  0.1093470E+00
         21   -1    0    0  501  502  0.00000000000E+00  0.00000000000E+00  0.45171138057E+01  0.45171138057E+01  0.00000000000E+00 0. -1.
         13   -1    0    0    0    0 -0.00000000000E+00 -0.00000000000E+00 -0.10000000000E+04  0.10000000000E+04  0.00000000000E+00 0.  1.
    9000005    2    1    2  501    0  0.16181403463E+02 -0.59087527643E+02 -0.70390466241E+03  0.70657243047E+03  0.31067669593E+01 0.  0.
         13    1    3    3    0    0  0.15103964931E+02 -0.52870361932E+02 -0.63939314342E+03  0.64175306527E+03  0.00000000000E+00 0.  1.
          3    1    3    3  501    0  0.10774385319E+01 -0.62171657113E+01 -0.64511518989E+02  0.64819365205E+02  0.00000000000E+00 0.  1.
         -1    1    1    2    0  502 -0.16181403463E+02  0.59087527643E+02 -0.29157822378E+03  0.29794468333E+03  0.00000000000E+00 0. -1.
<mgrwt>
<rscale>  1 0.30000000E+03</rscale>
<asrwt>0</asrwt>
<pdfrwt beam="1">  1       21 0.16425903E-01 0.30000000E+03</pdfrwt>
<pdfrwt beam="2">0</pdfrwt>
<totfact> 0.34779491E+03</totfact>
</mgrwt>
</event>
<event>
 6    1  0.1295671E-001  0.3000000E+03  0.7818608E-02  0.1093470E+00
         21   -1    0    0  501  502  0.00000000000E+00  0.00000000000E+00  0.19825883374E+01  0.19825883374E+01  0.00000000000E+00 0. -1.
         13   -1    0    0    0    0 -0.00000000000E+00 -0.00000000000E+00 -0.10000000000E+04  0.10000000000E+04  0.00000000000E+00 0.  1.
    9000005    2    1    2  501    0  0.15400857869E+02 -0.31837029127E+02 -0.80050736331E+03  0.80133114417E+03  0.82934344216E+01 0.  0.
         13    1    3    3    0    0  0.14842582744E+02 -0.22717838712E+02 -0.61706002150E+03  0.61765643572E+03  0.00000000000E+00 0.  1.
          1    1    3    3  501    0  0.55827512558E+00 -0.91191904147E+01 -0.18344734181E+03  0.18367470845E+03  0.00000000000E+00 0.  1.
         -3    1    1    2    0  502 -0.15400857869E+02  0.31837029127E+02 -0.19751004835E+03  0.20065144417E+03  0.00000000000E+00 0. -1.
<mgrwt>
<rscale>  1 0.30000000E+03</rscale>
<asrwt>0</asrwt>
<pdfrwt beam="1">  1       21 0.72094273E-02 0.30000000E+03</pdfrwt>
<pdfrwt beam="2">0</pdfrwt>
<totfact> 0.15327384E+04</totfact>
</mgrwt>
</event>
<event>
 6    1  0.1295671E-001  0.3000000E+03  0.7818608E-02  0.1093470E+00
         21   -1    0    0  501  502  0.00000000000E+00  0.00000000000E+00  0.50802934139E+01  0.50802934139E+01  0.00000000000E+00 0. -1.
         13   -1    0    0    0    0 -0.00000000000E+00 -0.00000000000E+00 -0.10000000000E+04  0.10000000000E+04  0.00000000000E+00 0.  1.
    9000005    2    1    2  501    0  0.25348291842E+02  0.40347873154E+02 -0.87104285542E+03  0.87235516006E+03  0.41692383503E+01 0.  0.
         13    1    3    3    0    0  0.17690544843E+01  0.50230914699E+01 -0.10801746877E+03  0.10814866879E+03  0.00000000000E+00 0.  1.
          1    1    3    3  501    0  0.23579237358E+02  0.35324781684E+02 -0.76302538664E+03  0.76420649127E+03  0.00000000000E+00 0.  1.
         -1    1    1    2    0  502 -0.25348291842E+02 -0.40347873154E+02 -0.12387685117E+03  0.13272513335E+03  0.00000000000E+00 0. -1.
<mgrwt>
<rscale>  1 0.30000000E+03</rscale>
<asrwt>0</asrwt>
<pdfrwt beam="1">  1       21 0.18473833E-01 0.30000000E+03</pdfrwt>
<pdfrwt beam="2">0</pdfrwt>
<totfact> 0.27894422E+03</totfact>
</mgrwt>
</event>
<event>
 6    1  0.1295671E-001  0.3000000E+03  0.7818608E-02  0.1093470E+00
         21   -1    0    0  501  502  0.00000000000E+00  0.00000000000E+00  0.36049365972E+01  0.36049365972E+01  0.00000000000E+00 0. -1.
         13   -1    0    0    0    0 -0.00000000000E+00 -0.00000000000E+00 -0.10000000000E+04  0.10000000000E+04  0.00000000000E+00 0.  1.
    9000005    2    1    2  501    0  0.37391477014E+02  0.18318285841E+02 -0.85956488368E+03  0.86057983310E+03  0.34896591046E+01 0.  0.
         13    1    3    3    0    0  0.21099672247E+02  0.84747604702E+01 -0.45811468589E+03  0.45867862732E+03  0.00000000000E+00 0.  1.
          1    1    3    3  501    0  0.16291804767E+02  0.98435253706E+01 -0.40145019779E+03  0.40190120577E+03  0.00000000000E+00 0.  1.
         -3    1    1    2    0  502 -0.37391477014E+02 -0.18318285841E+02 -0.13683017972E+03  0.14302510350E+03  0.00000000000E+00 0. -1.
<mgrwt>
<rscale>  1 0.30000000E+03</rscale>
<asrwt>0</asrwt>
<pdfrwt beam="1">  1       21 0.13108888E-01 0.30000000E+03</pdfrwt>
<pdfrwt beam="2">0</pdfrwt>
<totfact> 0.52755273E+03</totfact>
</mgrwt>
</event>
<event>
 6    1  0.1295671E-001  0.3000000E+03  0.7818608E-02  0.1093470E+00
         21   -1    0    0  501  502  0.00000000000E+00  0.00000000000E+00  0.20258622075E+01  0.20258622075E+01  0.00000000000E+00 0. -1.
         13   -1    0    0    0    0 -0.00000000000E+00 -0.00000000000E+00 -0.10000000000E+04  0.10000000000E+04  0.00000000000E+00 0.  1.
    9000005    2    1    2  501    0 -0.13400723475E+02  0.41394984805E+02 -0.37505774119E+03  0.37759174934E+03  0.37544355578E+01 0.  0.
         13    1    3    3    0    0 -0.22396686691E+01  0.11684163828E+02 -0.95496345304E+02  0.96234545599E+02  0.00000000000E+00 0.  1.
          1    1    3    3  501    0 -0.11161054806E+02  0.29710820976E+02 -0.27956139589E+03  0.28135720375E+03  0.00000000000E+00 0.  1.
         -3    1    1    2    0  502  0.13400723475E+02 -0.41394984805E+02 -0.62291639660E+03  0.62443411286E+03  0.00000000000E+00 0. -1.
<mgrwt>
<rscale>  1 0.30000000E+03</rscale>
<asrwt>0</asrwt>
<pdfrwt beam="1">  1       21 0.73667872E-02 0.30000000E+03</pdfrwt>
<pdfrwt beam="2">0</pdfrwt>
<totfact> 0.14760139E+04</totfact>
</mgrwt>
</event>
<event>
 6    1  0.1295671E-001  0.3000000E+03  0.7818608E-02  0.1093470E+00
         21   -1    0    0  501  502  0.00000000000E+00  0.00000000000E+00  0.71568593646E+01  0.71568593646E+01  0.00000000000E+00 0. -1.
         13   -1    0    0    0    0 -0.00000000000E+00 -0.00000000000E+00 -0.10000000000E+04  0.10000000000E+04  0.00000000000E+00 0.  1.
    9000005    2    1    2  501    0  0.49056012270E+02 -0.46567358709E+02 -0.79874297168E+03  0.80160908675E+03  0.34324802101E+01 0.  0.
         13    1    3    3    0    0  0.99101215784E+01 -0.98507771462E+01 -0.18157761871E+03  0.18211446932E+03  0.00000000000E+00 0.  1.
          3    1    3    3  501    0  0.39145890692E+02 -0.36716581563E+02 -0.61716535297E+03  0.61949461743E+03  0.00000000000E+00 0.  1.
         -3    1    1    2    0  502 -0.49056012270E+02  0.46567358709E+02 -0.19410016896E+03  0.20554777262E+03  0.00000000000E+00 0. -1.
<mgrwt>
<rscale>  1 0.30000000E+03</rscale>
<asrwt>0</asrwt>
<pdfrwt beam="1">  1       21 0.26024998E-01 0.30000000E+03</pdfrwt>
<pdfrwt beam="2">0</pdfrwt>
<totfact> 0.14412880E+03</totfact>
</mgrwt>
</event>
<event>
 6    1  0.1295671E-001  0.3000000E+03  0.7818608E-02  0.1093470E+00
         21   -1    0    0  501  502  0.00000000000E+00  0.00000000000E+00  0.13053009888E+01  0.13053009888E+01  0.00000000000E+00 0. -1.
         13   -1    0    0    0    0 -0.00000000000E+00 -0.00000000000E+00 -0.10000000000E+04  0.10000000000E+04  0.00000000000E+00 0.  1.
    9000005    2    1    2  501    0 -0.33151628719E+02  0.87246213049E+01 -0.65504613493E+03  0.65595115653E+03  0.33662078456E+01 0.  0.
         13    1    3    3    0    0 -0.36959557247E+00  0.48148500928E+00 -0.16203200401E+02  0.16214565425E+02  0.00000000000E+00 0.  1.
          3    1    3    3  501    0 -0.32782033147E+02  0.82431362956E+01 -0.63884293453E+03  0.63973659110E+03  0.00000000000E+00 0.  1.
         -1    1    1    2    0  502  0.33151628719E+02 -0.87246213049E+01 -0.34364856408E+03  0.34535414446E+03  0.00000000000E+00 0. -1.
<mgrwt>
<rscale>  1 0.30000000E+03</rscale>
<asrwt>0</asrwt>
<pdfrwt beam="1">  1       21 0.47465591E-02 0.30000000E+03</pdfrwt>
<pdfrwt beam="2">0</pdfrwt>
<totfact> 0.31472318E+04</totfact>
</mgrwt>
</event>
<event>
 6    1  0.1295671E-001  0.3000000E+03  0.7818608E-02  0.1093470E+00
         21   -1    0    0  501  502  0.00000000000E+00  0.00000000000E+00  0.15408925539E+01  0.15408925539E+01  0.00000000000E+00 0. -1.
         13   -1    0    0    0    0 -0.00000000000E+00 -0.00000000000E+00 -0.10000000000E+04  0.10000000000E+04  0.00000000000E+00 0.  1.
    9000005    2    1    2  501    0  0.29335926868E+02 -0.70072034267E+01 -0.81924858681E+03  0.81981002503E+03  0.32454030940E+01 0.  0.
         13    1    3    3    0    0  0.26420689890E+02 -0.60664001955E+01 -0.70661713333E+03  0.70713692251E+03  0.00000000000E+00 0.  1.
          3    1    3    3  501    0  0.29152369778E+01 -0.94080323118E+00 -0.11263145348E+03  0.11267310252E+03  0.00000000000E+00 0.  1.
         -3    1    1    2    0  502 -0.29335926868E+02  0.70072034267E+01 -0.17921052063E+03  0.18173086752E+03  0.00000000000E+00 0. -1.
<mgrwt>
<rscale>  1 0.30000000E+03</rscale>
<asrwt>0</asrwt>
<pdfrwt beam="1">  1       21 0.56032575E-02 0.30000000E+03</pdfrwt>
<pdfrwt beam="2">0</pdfrwt>
<totfact> 0.23705379E+04</totfact>
</mgrwt>
</event>
<event>
 6    1  0.1295671E-001  0.3000000E+03  0.7818608E-02  0.1093470E+00
         21   -1    0    0  501  502  0.00000000000E+00  0.00000000000E+00  0.16163794371E+02  0.16163794371E+02  0.00000000000E+00 0. -1.
         13   -1    0    0    0    0 -0.00000000000E+00 -0.00000000000E+00 -0.10000000000E+04  0.10000000000E+04  0.00000000000E+00 0.  1.
    9000005    2    1    2  501    0  0.64108937666E-01  0.44744218725E+02 -0.96748629119E+03  0.96852590062E+03  0.32630211554E+01 0.  0.
         13    1    3    3    0    0 -0.15724302256E+01  0.18426133584E+02 -0.40210454236E+03  0.40252957398E+03  0.00000000000E+00 0.  1.
          1    1    3    3  501    0  0.16365391633E+01  0.26318085141E+02 -0.56538174882E+03  0.56599632664E+03  0.00000000000E+00 0.  1.
         -3    1    1    2    0  502 -0.64108937666E-01 -0.44744218725E+02 -0.16349914441E+02  0.47637893756E+02  0.00000000000E+00 0. -1.
<mgrwt>
<rscale>  1 0.30000000E+03</rscale>
<asrwt>0</asrwt>
<pdfrwt beam="1">  1       21 0.58777558E-01 0.30000000E+03</pdfrwt>
<pdfrwt beam="2">0</pdfrwt>
<totfact> 0.26298047E+02</totfact>
</mgrwt>
</event>
<event>
 6    1  0.1295671E-001  0.3000000E+03  0.7818608E-02  0.1093470E+00
         21   -1    0    0  501  502  0.00000000000E+00  0.00000000000E+00  0.17426804854E+01  0.17426804854E+01  0.00000000000E+00 0. -1.
         13   -1    0    0    0    0 -0.00000000000E+00 -0.00000000000E+00 -0.10000000000E+04  0.10000000000E+04  0.00000000000E+00 0.  1.
    9000005    2    1    2  501    0  0.25703334863E+02  0.17599168290E+02 -0.83073114497E+03  0.83134487737E+03  0.70482455733E+01 0.  0.
         13    1    3    3    0    0  0.19468629740E+01  0.37519812702E+01 -0.81854604370E+02  0.81963674243E+02  0.00000000000E+00 0.  1.
          3    1    3    3  501    0  0.23756471889E+02  0.13847187019E+02 -0.74887654060E+03  0.74938120313E+03  0.00000000000E+00 0.  1.
         -1    1    1    2    0  502 -0.25703334863E+02 -0.17599168290E+02 -0.16752617455E+03  0.17039780311E+03  0.00000000000E+00 0. -1.
<mgrwt>
<rscale>  1 0.30000000E+03</rscale>
<asrwt>0</asrwt>
<pdfrwt beam="1">  1       21 0.63370333E-02 0.30000000E+03</pdfrwt>
<pdfrwt beam="2">0</pdfrwt>
<totfact> 0.19174151E+04</totfact>
</mgrwt>
</event>
<event>
 6    1  0.1295671E-001  0.3000000E+03  0.7818608E-02  0.1093470E+00
         21   -1    0    0  501  502  0.00000000000E+00  0.00000000000E+00  0.33943318142E+01  0.33943318142E+01  0.00000000000E+00 0. -1.
         13   -1    0    0    0    0 -0.00000000000E+00 -0.00000000000E+00 -0.10000000000E+04  0.10000000000E+04  0.00000000000E+00 0.  1.
    9000005    2    1    2  501    0  0.44851799676E+02  0.27170853400E+02 -0.28116610727E+03  0.28603549237E+03  0.34617637167E+01 0.  0.
         13    1    3    3    0    0  0.24540356754E+02  0.12868962112E+02 -0.14683147968E+03  0.14942330046E+03  0.00000000000E+00 0.  1.
          1    1    3    3  501    0  0.20311442922E+02  0.14301891288E+02 -0.13433462760E+03  0.13661219191E+03  0.00000000000E+00 0.  1.
         -1    1    1    2    0  502 -0.44851799676E+02 -0.27170853400E+02 -0.71543956091E+03  0.71735883944E+03  0.00000000000E+00 0. -1.
<mgrwt>
<rscale>  1 0.30000000E+03</rscale>
<asrwt>0</asrwt>
<pdfrwt beam="1">  1       21 0.12343051E-01 0.30000000E+03</pdfrwt>
<pdfrwt beam="2">0</pdfrwt>
<totfact> 0.58875923E+03</totfact>
</mgrwt>
</event>
<event>
 6    1  0.1295671E-001  0.3000000E+03  0.7818608E-02  0.1093470E+00
         21   -1    0    0  501  502  0.00000000000E+00  0.00000000000E+00  0.13879140969E+02  0.13879140969E+02  0.00000000000E+00 0. -1.
         13   -1    0    0    0    0 -0.00000000000E+00 -0.00000000000E+00 -0.10000000000E+04  0.10000000000E+04  0.00000000000E+00 0.  1.
    9000005    2    1    2  501    0  0.30941771849E+02  0.29445849100E+02 -0.96550386425E+03  0.96645012297E+03  0.19175602052E+01 0.  0.
         13    1    3    3    0    0  0.15502196457E+02  0.14280395448E+02 -0.45613877772E+03  0.45662548366E+03  0.00000000000E+00 0.  1.
          1    1    3    3  501    0  0.15439575393E+02  0.15165453652E+02 -0.50936508653E+03  0.50982463931E+03  0.00000000000E+00 0.  1.
         -1    1    1    2    0  502 -0.30941771849E+02 -0.29445849100E+02 -0.20616994782E+02  0.47429017998E+02  0.00000000000E+00 0. -1.
<mgrwt>
<rscale>  1 0.30000000E+03</rscale>
<asrwt>0</asrwt>
<pdfrwt beam="1">  1       21 0.50469710E-01 0.30000000E+03</pdfrwt>
<pdfrwt beam="2">0</pdfrwt>
<totfact> 0.36817799E+02</totfact>
</mgrwt>
</event>
<event>
 6    1  0.1295671E-001  0.3000000E+03  0.7818608E-02  0.1093470E+00
         21   -1    0    0  501  502  0.00000000000E+00  0.00000000000E+00  0.61935446641E+01  0.61935446641E+01  0.00000000000E+00 0. -1.
         13   -1    0    0    0    0 -0.00000000000E+00 -0.00000000000E+00 -0.10000000000E+04  0.10000000000E+04  0.00000000000E+00 0.  1.
    9000005    2    1    2  501    0  0.16312409072E+02 -0.75797169754E+02 -0.41185688798E+03  0.41910189545E+03  0.29994932472E+01 0.  0.
         13    1    3    3    0    0  0.11941167918E+02 -0.48671026868E+02 -0.26623705967E+03  0.27091259160E+03  0.00000000000E+00 0.  1.
          3    1    3    3  501    0  0.43712411547E+01 -0.27126142887E+02 -0.14561982831E+03  0.14818930384E+03  0.00000000000E+00 0.  1.
         -3    1    1    2    0  502 -0.16312409072E+02  0.75797169754E+02 -0.58194956736E+03  0.58709164922E+03  0.00000000000E+00 0. -1.
<mgrwt>
<rscale>  1 0.30000000E+03</rscale>
<asrwt>0</asrwt>
<pdfrwt beam="1">  1       21 0.22522028E-01 0.30000000E+03</pdfrwt>
<pdfrwt beam="2">0</pdfrwt>
<totfact> 0.19102511E+03</totfact>
</mgrwt>
</event>
<event>
 6    1  0.1295671E-001  0.3000000E+03  0.7818608E-02  0.1093470E+00
         21   -1    0    0  501  502  0.00000000000E+00  0.00000000000E+00  0.19165899057E+01  0.19165899057E+01  0.00000000000E+00 0. -1.
         13   -1    0    0    0    0 -0.00000000000E+00 -0.00000000000E+00 -0.10000000000E+04  0.10000000000E+04  0.00000000000E+00 0.  1.
    9000005    2    1    2  501    0 -0.16334687376E+02 -0.35066568979E+02 -0.73222099260E+03  0.73325451348E+03  0.42559685241E+01 0.  0.
         13    1    3    3    0    0 -0.14559972422E+02 -0.28864703820E+02 -0.63173522904E+03  0.63256190490E+03  0.00000000000E+00 0.  1.
          1    1    3    3  501    0 -0.17747149547E+01 -0.62018651586E+01 -0.10048576356E+03  0.10069260858E+03  0.00000000000E+00 0.  1.
         -1    1    1    2    0  502  0.16334687376E+02  0.35066568979E+02 -0.26586241749E+03  0.26866207642E+03  0.00000000000E+00 0. -1.
<mgrwt>
<rscale>  1 0.30000000E+03</rscale>
<asrwt>0</asrwt>
<pdfrwt beam="1">  1       21 0.69694325E-02 0.30000000E+03</pdfrwt>
<pdfrwt beam="2">0</pdfrwt>
<totfact> 0.16258625E+04</totfact>
</mgrwt>
</event>
<event>
 6    1  0.1295671E-001  0.3000000E+03  0.7818608E-02  0.1093470E+00
         21   -1    0    0  501  502  0.00000000000E+00  0.00000000000E+00  0.14946771149E+01  0.14946771149E+01  0.00000000000E+00 0. -1.
         13   -1    0    0    0    0 -0.00000000000E+00 -0.00000000000E+00 -0.10000000000E+04  0.10000000000E+04  0.00000000000E+00 0.  1.
    9000005    2    1    2  501    0 -0.18249692655E+02 -0.32917340595E+02 -0.60543124013E+03  0.60662275215E+03  0.52511240150E+01 0.  0.
         13    1    3    3    0    0 -0.69012473092E+01 -0.17852582778E+02 -0.30238157813E+03  0.30298673357E+03  0.00000000000E+00 0.  1.
          3    1    3    3  501    0 -0.11348445346E+02 -0.15064757817E+02 -0.30304966200E+03  0.30363601858E+03  0.00000000000E+00 0.  1.
         -1    1    1    2    0  502  0.18249692655E+02  0.32917340595E+02 -0.39307408275E+03  0.39487192497E+03  0.00000000000E+00 0. -1.
<mgrwt>
<rscale>  1 0.30000000E+03</rscale>
<asrwt>0</asrwt>
<pdfrwt beam="1">  1       21 0.54352010E-02 0.30000000E+03</pdfrwt>
<pdfrwt beam="2">0</pdfrwt>
<totfact> 0.24976373E+04</totfact>
</mgrwt>
</event>
<event>
 6    1  0.1295671E-001  0.3000000E+03  0.7818608E-02  0.1093470E+00
         21   -1    0    0  501  502  0.00000000000E+00  0.00000000000E+00  0.16372633722E+01  0.16372633722E+01  0.00000000000E+00 0. -1.
         13   -1    0    0    0    0 -0.00000000000E+00 -0.00000000000E+00 -0.10000000000E+04  0.10000000000E+04  0.00000000000E+00 0.  1.
    9000005    2    1    2  501    0 -0.18722714616E+01 -0.31819443362E+02 -0.80681498203E+03  0.80745558384E+03  0.42570251109E+01 0.  0.
         13    1    3    3    0    0 -0.32343127097E+00 -0.40212657370E+00 -0.29345027080E+02  0.29349564356E+02  0.00000000000E+00 0.  1.
          3    1    3    3  501    0 -0.15488401906E+01 -0.31417316788E+02 -0.77746995495E+03  0.77810601948E+03  0.00000000000E+00 0.  1.
         -1    1    1    2    0  502  0.18722714616E+01  0.31819443362E+02 -0.19154775460E+03  0.19418167954E+03  0.00000000000E+00 0. -1.
<mgrwt>
<rscale>  1 0.30000000E+03</rscale>
<asrwt>0</asrwt>
<pdfrwt beam="1">  1       21 0.59536975E-02 0.30000000E+03</pdfrwt>
<pdfrwt beam="2">0</pdfrwt>
<totfact> 0.21355046E+04</totfact>
</mgrwt>
</event>
<event>
 6    1  0.1295671E-001  0.3000000E+03  0.7818608E-02  0.1093470E+00
         21   -1    0    0  501  502  0.00000000000E+00  0.00000000000E+00  0.35574454700E+01  0.35574454700E+01  0.00000000000E+00 0. -1.
         13   -1    0    0    0    0 -0.00000000000E+00 -0.00000000000E+00 -0.10000000000E+04  0.10000000000E+04  0.00000000000E+00 0.  1.
    9000005    2    1    2  501    0  0.14492039288E+02 -0.51495000183E+02 -0.27733976968E+03  0.28246759710E+03  0.29734352939E+01 0.  0.
         13    1    3    3    0    0  0.13992550978E+02 -0.49020075640E+02 -0.26709034307E+03  0.27191176999E+03  0.00000000000E+00 0.  1.
          3    1    3    3  501    0  0.49948830972E+00 -0.24749245432E+01 -0.10249426614E+02  0.10555827111E+02  0.00000000000E+00 0.  1.
         -1    1    1    2    0  502 -0.14492039288E+02  0.51495000183E+02 -0.71910278485E+03  0.72108984837E+03  0.00000000000E+00 0. -1.
<mgrwt>
<rscale>  1 0.30000000E+03</rscale>
<asrwt>0</asrwt>
<pdfrwt beam="1">  1       21 0.12936193E-01 0.30000000E+03</pdfrwt>
<pdfrwt beam="2">0</pdfrwt>
<totfact> 0.54048624E+03</totfact>
</mgrwt>
</event>
<event>
 6    1  0.1295671E-001  0.3000000E+03  0.7818608E-02  0.1093470E+00
         21   -1    0    0  501  502  0.00000000000E+00  0.00000000000E+00  0.14614030317E+01  0.14614030317E+01  0.00000000000E+00 0. -1.
         13   -1    0    0    0    0 -0.00000000000E+00 -0.00000000000E+00 -0.10000000000E+04  0.10000000000E+04  0.00000000000E+00 0.  1.
    9000005    2    1    2  501    0 -0.27858285783E+02  0.24222011546E+02 -0.62532605926E+03  0.62642755358E+03  0.40011957742E+01 0.  0.
         13    1    3    3    0    0 -0.66840516131E+01  0.36785193668E+01 -0.12981799189E+03  0.13004198964E+03  0.00000000000E+00 0.  1.
          1    1    3    3  501    0 -0.21174234170E+02  0.20543492179E+02 -0.49550806737E+03  0.49638556394E+03  0.00000000000E+00 0.  1.
         -3    1    1    2    0  502  0.27858285783E+02 -0.24222011546E+02 -0.37321253771E+03  0.37503384945E+03  0.00000000000E+00 0. -1.
<mgrwt>
<rscale>  1 0.30000000E+03</rscale>
<asrwt>0</asrwt>
<pdfrwt beam="1">  1       21 0.53142040E-02 0.30000000E+03</pdfrwt>
<pdfrwt beam="2">0</pdfrwt>
<totfact> 0.25957759E+04</totfact>
</mgrwt>
</event>
<event>
 6    1  0.1295671E-001  0.3000000E+03  0.7818608E-02  0.1093470E+00
         21   -1    0    0  501  502  0.00000000000E+00  0.00000000000E+00  0.33407560632E+01  0.33407560632E+01  0.00000000000E+00 0. -1.
         13   -1    0    0    0    0 -0.00000000000E+00 -0.00000000000E+00 -0.10000000000E+04  0.10000000000E+04  0.00000000000E+00 0.  1.
    9000005    2    1    2  501    0 -0.34714101817E+02  0.16257319543E+02 -0.87366844033E+03  0.87451487716E+03  0.32182976314E+01 0.  0.
         13    1    3    3    0    0 -0.17868944826E+02  0.10089965127E+02 -0.45743852042E+03  0.45789857671E+03  0.00000000000E+00 0.  1.
          3    1    3    3  501    0 -0.16845156990E+02  0.61673544156E+01 -0.41622991991E+03  0.41661630045E+03  0.00000000000E+00 0.  1.
         -1    1    1    2    0  502  0.34714101817E+02 -0.16257319543E+02 -0.12299080361E+03  0.12882587890E+03  0.00000000000E+00 0. -1.
<mgrwt>
<rscale>  1 0.30000000E+03</rscale>
<asrwt>0</asrwt>
<pdfrwt beam="1">  1       21 0.12148229E-01 0.30000000E+03</pdfrwt>
<pdfrwt beam="2">0</pdfrwt>
<totfact> 0.60604683E+03</totfact>
</mgrwt>
</event>
<event>
 6    1  0.1295671E-001  0.3000000E+03  0.7818608E-02  0.1093470E+00
         21   -1    0    0  501  502  0.00000000000E+00  0.00000000000E+00  0.18312015889E+01  0.18312015889E+01  0.00000000000E+00 0. -1.
         13   -1    0    0    0    0 -0.00000000000E+00 -0.00000000000E+00 -0.10000000000E+04  0.10000000000E+04  0.00000000000E+00 0.  1.
    9000005    2    1    2  501    0  0.58842746884E+01 -0.42069726519E+02 -0.54998434667E+03  0.55163814372E+03  0.41681456564E+01 0.  0.
         13    1    3    3    0    0  0.22421444600E+01 -0.69188148853E+01 -0.82484133041E+02  0.82804163028E+02  0.00000000000E+00 0.  1.
          1    1    3    3  501    0  0.36421302283E+01 -0.35150911633E+02 -0.46750021363E+03  0.46883398069E+03  0.00000000000E+00 0.  1.
         -1    1    1    2    0  502 -0.58842746884E+01  0.42069726519E+02 -0.44818445174E+03  0.45019305787E+03  0.00000000000E+00 0. -1.
<mgrwt>
<rscale>  1 0.30000000E+03</rscale>
<asrwt>0</asrwt>
<pdfrwt beam="1">  1       21 0.66589289E-02 0.30000000E+03</pdfrwt>
<pdfrwt beam="2">0</pdfrwt>
<totfact> 0.17597852E+04</totfact>
</mgrwt>
</event>
<event>
 6    1  0.1295671E-001  0.3000000E+03  0.7818608E-02  0.1093470E+00
         21   -1    0    0  501  502  0.00000000000E+00  0.00000000000E+00  0.12992673260E+01  0.12992673260E+01  0.00000000000E+00 0. -1.
         13   -1    0    0    0    0 -0.00000000000E+00 -0.00000000000E+00 -0.10000000000E+04  0.10000000000E+04  0.00000000000E+00 0.  1.
    9000005    2    1    2  501    0  0.24906986781E+00 -0.34026422595E+02 -0.66229485868E+03  0.66317684641E+03  0.33451914574E+01 0.  0.
         13    1    3    3    0    0  0.68123646856E+00 -0.25314128823E+01 -0.63573692732E+02  0.63627718346E+02  0.00000000000E+00 0.  1.
          3    1    3    3  501    0 -0.43216660075E+00 -0.31495009713E+02 -0.59872116595E+03  0.59954912806E+03  0.00000000000E+00 0.  1.
         -1    1    1    2    0  502 -0.24906986781E+00  0.34026422595E+02 -0.33640587399E+03  0.33812242092E+03  0.00000000000E+00 0. -1.
<mgrwt>
<rscale>  1 0.30000000E+03</rscale>
<asrwt>0</asrwt>
<pdfrwt beam="1">  1       21 0.47246184E-02 0.30000000E+03</pdfrwt>
<pdfrwt beam="2">0</pdfrwt>
<totfact> 0.31721287E+04</totfact>
</mgrwt>
</event>
<event>
 6    1  0.1295671E-001  0.3000000E+03  0.7818608E-02  0.1093470E+00
         21   -1    0    0  501  502  0.00000000000E+00  0.00000000000E+00  0.83243471433E+01  0.83243471433E+01  0.00000000000E+00 0. -1.
         13   -1    0    0    0    0 -0.00000000000E+00 -0.00000000000E+00 -0.10000000000E+04  0.10000000000E+04  0.00000000000E+00 0.  1.
    9000005    2    1    2  501    0 -0.64627184648E+02  0.53581146488E+02 -0.69271326309E+03  0.69779878821E+03  0.48858689382E+01 0.  0.
         13    1    3    3    0    0 -0.47308260418E+01  0.55355152779E+01 -0.64992750927E+02  0.65399390804E+02  0.00000000000E+00 0.  1.
          1    1    3    3  501    0 -0.59896358606E+02  0.48045631210E+02 -0.62772051217E+03  0.63239939741E+03  0.00000000000E+00 0.  1.
         -1    1    1    2    0  502  0.64627184648E+02 -0.53581146488E+02 -0.29896238976E+03  0.31052555893E+03  0.00000000000E+00 0. -1.
<mgrwt>
<rscale>  1 0.30000000E+03</rscale>
<asrwt>0</asrwt>
<pdfrwt beam="1">  1       21 0.30270417E-01 0.30000000E+03</pdfrwt>
<pdfrwt beam="2">0</pdfrwt>
<totfact> 0.10679232E+03</totfact>
</mgrwt>
</event>
<event>
 6    1  0.1295671E-001  0.3000000E+03  0.7818608E-02  0.1093470E+00
         21   -1    0    0  501  502  0.00000000000E+00  0.00000000000E+00  0.12439030749E+01  0.12439030749E+01  0.00000000000E+00 0. -1.
         13   -1    0    0    0    0 -0.00000000000E+00 -0.00000000000E+00 -0.10000000000E+04  0.10000000000E+04  0.00000000000E+00 0.  1.
    9000005    2    1    2  501    0  0.28702474691E+01  0.35063589952E+02 -0.48664501123E+03  0.48792581675E+03  0.32468493950E+01 0.  0.
         13    1    3    3    0    0  0.41295409106E+00  0.23339172434E+02 -0.32660143050E+03  0.32743454598E+03  0.00000000000E+00 0.  1.
          1    1    3    3  501    0  0.24572933781E+01  0.11724417518E+02 -0.16004358074E+03  0.16049127076E+03  0.00000000000E+00 0.  1.
         -3    1    1    2    0  502 -0.28702474691E+01 -0.35063589952E+02 -0.51211108569E+03  0.51331808633E+03  0.00000000000E+00 0. -1.
<mgrwt>
<rscale>  1 0.30000000E+03</rscale>
<asrwt>0</asrwt>
<pdfrwt beam="1">  1       21 0.45232934E-02 0.30000000E+03</pdfrwt>
<pdfrwt beam="2">0</pdfrwt>
<totfact> 0.34157555E+04</totfact>
</mgrwt>
</event>
<event>
 6    1  0.1295671E-001  0.3000000E+03  0.7818608E-02  0.1093470E+00
         21   -1    0    0  501  502  0.00000000000E+00  0.00000000000E+00  0.12942977355E+01  0.12942977355E+01  0.00000000000E+00 0. -1.
         13   -1    0    0    0    0 -0.00000000000E+00 -0.00000000000E+00 -0.10000000000E+04  0.10000000000E+04  0.00000000000E+00 0.  1.
    9000005    2    1    2  501    0  0.70905650515E+01 -0.35144758129E+02 -0.47782216495E+03  0.47917832443E+03  0.35235136192E+01 0.  0.
         13    1    3    3    0    0  0.53141357944E+01 -0.31774602075E+02 -0.42712623528E+03  0.42833945211E+03  0.00000000000E+00 0.  1.
          1    1    3    3  501    0  0.17764292571E+01 -0.33701560541E+01 -0.50695929673E+02  0.50838872314E+02  0.00000000000E+00 0.  1.
         -1    1    1    2    0  502 -0.70905650515E+01  0.35144758129E+02 -0.52088353732E+03  0.52211597331E+03  0.00000000000E+00 0. -1.
<mgrwt>
<rscale>  1 0.30000000E+03</rscale>
<asrwt>0</asrwt>
<pdfrwt beam="1">  1       21 0.47065471E-02 0.30000000E+03</pdfrwt>
<pdfrwt beam="2">0</pdfrwt>
<totfact> 0.31928673E+04</totfact>
</mgrwt>
</event>
<event>
 6    1  0.1295671E-001  0.3000000E+03  0.7818608E-02  0.1093470E+00
         21   -1    0    0  501  502  0.00000000000E+00  0.00000000000E+00  0.21024366457E+01  0.21024366457E+01  0.00000000000E+00 0. -1.
         13   -1    0    0    0    0 -0.00000000000E+00 -0.00000000000E+00 -0.10000000000E+04  0.10000000000E+04  0.00000000000E+00 0.  1.
    9000005    2    1    2  501    0  0.20865772961E+02  0.22957770898E+02 -0.86768561208E+03  0.86824582687E+03  0.31709212146E+01 0.  0.
         13    1    3    3    0    0  0.16438263110E+01  0.27574648660E+01 -0.11175501953E+03  0.11180111882E+03  0.00000000000E+00 0.  1.
          1    1    3    3  501    0  0.19221946650E+02  0.20200306032E+02 -0.75593059255E+03  0.75644470806E+03  0.00000000000E+00 0.  1.
         -3    1    1    2    0  502 -0.20865772961E+02 -0.22957770898E+02 -0.13021195127E+03  0.13385660978E+03  0.00000000000E+00 0. -1.
<mgrwt>
<rscale>  1 0.30000000E+03</rscale>
<asrwt>0</asrwt>
<pdfrwt beam="1">  1       21 0.76452403E-02 0.30000000E+03</pdfrwt>
<pdfrwt beam="2">0</pdfrwt>
<totfact> 0.13831871E+04</totfact>
</mgrwt>
</event>
<event>
 6    1  0.1295671E-001  0.3000000E+03  0.7818608E-02  0.1093470E+00
         21   -1    0    0  501  502  0.00000000000E+00  0.00000000000E+00  0.44935656863E+01  0.44935656863E+01  0.00000000000E+00 0. -1.
         13   -1    0    0    0    0 -0.00000000000E+00 -0.00000000000E+00 -0.10000000000E+04  0.10000000000E+04  0.00000000000E+00 0.  1.
    9000005    2    1    2  501    0 -0.35542595112E+02  0.36283080347E+02 -0.82536864470E+03  0.82693623567E+03  0.32249385530E+01 0.  0.
         13    1    3    3    0    0 -0.21708621043E+02  0.23351156959E+02 -0.53893118480E+03  0.53987346916E+03  0.00000000000E+00 0.  1.
          1    1    3    3  501    0 -0.13833974070E+02  0.12931923388E+02 -0.28643745990E+03  0.28706276651E+03  0.00000000000E+00 0.  1.
         -1    1    1    2    0  502  0.35542595112E+02 -0.36283080347E+02 -0.17013778962E+03  0.17755733002E+03  0.00000000000E+00 0. -1.
<mgrwt>
<rscale>  1 0.30000000E+03</rscale>
<asrwt>0</asrwt>
<pdfrwt beam="1">  1       21 0.16340273E-01 0.30000000E+03</pdfrwt>
<pdfrwt beam="2">0</pdfrwt>
<totfact> 0.35120580E+03</totfact>
</mgrwt>
</event>
<event>
 6    1  0.1295671E-001  0.3000000E+03  0.7818608E-02  0.1093470E+00
         21   -1    0    0  501  502  0.00000000000E+00  0.00000000000E+00  0.11894981129E+01  0.11894981129E+01  0.00000000000E+00 0. -1.
         13   -1    0    0    0    0 -0.00000000000E+00 -0.00000000000E+00 -0.10000000000E+04  0.10000000000E+04  0.00000000000E+00 0.  1.
    9000005    2    1    2  501    0 -0.33816990204E+02 -0.19496804461E+01 -0.58369906787E+03  0.58469833046E+03  0.44883996443E+01 0.  0.
         13    1    3    3    0    0 -0.29054761511E+02 -0.30222743092E+01 -0.48549753422E+03  0.48637554322E+03  0.00000000000E+00 0.  1.
          1    1    3    3  501    0 -0.47622286924E+01  0.10725938631E+01 -0.98201533653E+02  0.98322787245E+02  0.00000000000E+00 0.  1.
         -3    1    1    2    0  502  0.33816990204E+02  0.19496804461E+01 -0.41511143402E+03  0.41649116765E+03  0.00000000000E+00 0. -1.
<mgrwt>
<rscale>  1 0.30000000E+03</rscale>
<asrwt>0</asrwt>
<pdfrwt beam="1">  1       21 0.43254568E-02 0.30000000E+03</pdfrwt>
<pdfrwt beam="2">0</pdfrwt>
<totfact> 0.36846992E+04</totfact>
</mgrwt>
</event>
<event>
 6    1  0.1295671E-001  0.3000000E+03  0.7818608E-02  0.1093470E+00
         21   -1    0    0  501  502  0.00000000000E+00  0.00000000000E+00  0.29644919768E+01  0.29644919768E+01  0.00000000000E+00 0. -1.
         13   -1    0    0    0    0 -0.00000000000E+00 -0.00000000000E+00 -0.10000000000E+04  0.10000000000E+04  0.00000000000E+00 0.  1.
    9000005    2    1    2  501    0  0.21101806446E+02 -0.32328707034E+02 -0.85193125170E+03  0.85281231338E+03  0.33989260695E+01 0.  0.
         13    1    3    3    0    0  0.21100882587E+02 -0.32405238164E+02 -0.85089605761E+03  0.85177429379E+03  0.00000000000E+00 0.  1.
          1    1    3    3  501    0  0.92385945831E-03  0.76531129218E-01 -0.10351940894E+01  0.10380195904E+01  0.00000000000E+00 0.  1.
         -1    1    1    2    0  502 -0.21101806446E+02  0.32328707034E+02 -0.14510425633E+03  0.15015217860E+03  0.00000000000E+00 0. -1.
<mgrwt>
<rscale>  1 0.30000000E+03</rscale>
<asrwt>0</asrwt>
<pdfrwt beam="1">  1       21 0.10779994E-01 0.30000000E+03</pdfrwt>
<pdfrwt beam="2">0</pdfrwt>
<totfact> 0.75202410E+03</totfact>
</mgrwt>
</event>
<event>
 6    1  0.1295671E-001  0.3000000E+03  0.7818608E-02  0.1093470E+00
         21   -1    0    0  501  502  0.00000000000E+00  0.00000000000E+00  0.11854989174E+01  0.11854989174E+01  0.00000000000E+00 0. -1.
         13   -1    0    0    0    0 -0.00000000000E+00 -0.00000000000E+00 -0.10000000000E+04  0.10000000000E+04  0.00000000000E+00 0.  1.
    9000005    2    1    2  501    0  0.25653121241E+02  0.15553737289E+02 -0.74408674074E+03  0.74469722772E+03  0.29802440197E+01 0.  0.
         13    1    3    3    0    0  0.81031300828E+00  0.20884811016E+00 -0.34136018586E+02  0.34146273437E+02  0.00000000000E+00 0.  1.
          3    1    3    3  501    0  0.24842808233E+02  0.15344889179E+02 -0.70995072215E+03  0.71055095428E+03  0.00000000000E+00 0.  1.
         -3    1    1    2    0  502 -0.25653121241E+02 -0.15553737289E+02 -0.25472776034E+03  0.25648827120E+03  0.00000000000E+00 0. -1.
<mgrwt>
<rscale>  1 0.30000000E+03</rscale>
<asrwt>0</asrwt>
<pdfrwt beam="1">  1       21 0.43109142E-02 0.30000000E+03</pdfrwt>
<pdfrwt beam="2">0</pdfrwt>
<totfact> 0.37057517E+04</totfact>
</mgrwt>
</event>
<event>
 6    1  0.1295671E-001  0.3000000E+03  0.7818608E-02  0.1093470E+00
         21   -1    0    0  501  502  0.00000000000E+00  0.00000000000E+00  0.18731379557E+01  0.18731379557E+01  0.00000000000E+00 0. -1.
         13   -1    0    0    0    0 -0.00000000000E+00 -0.00000000000E+00 -0.10000000000E+04  0.10000000000E+04  0.00000000000E+00 0.  1.
    9000005    2    1    2  501    0  0.41966137211E+02 -0.21011055270E+01 -0.61667879355E+03  0.61811774676E+03  0.33530767116E+01 0.  0.
         13    1    3    3    0    0  0.22126628429E+02 -0.26276677605E+01 -0.33648496533E+03  0.33722192132E+03  0.00000000000E+00 0.  1.
          1    1    3    3  501    0  0.19839508782E+02  0.52656223352E+00 -0.28019382822E+03  0.28089582544E+03  0.00000000000E+00 0.  1.
         -1    1    1    2    0  502 -0.41966137211E+02  0.21011055270E+01 -0.38144806849E+03  0.38375539120E+03  0.00000000000E+00 0. -1.
<mgrwt>
<rscale>  1 0.30000000E+03</rscale>
<asrwt>0</asrwt>
<pdfrwt beam="1">  1       21 0.68114251E-02 0.30000000E+03</pdfrwt>
<pdfrwt beam="2">0</pdfrwt>
<totfact> 0.16919798E+04</totfact>
</mgrwt>
</event>
<event>
 6    1  0.1295671E-001  0.3000000E+03  0.7818608E-02  0.1093470E+00
         21   -1    0    0  501  502  0.00000000000E+00  0.00000000000E+00  0.59423306225E+01  0.59423306225E+01  0.00000000000E+00 0. -1.
         13   -1    0    0    0    0 -0.00000000000E+00 -0.00000000000E+00 -0.10000000000E+04  0.10000000000E+04  0.00000000000E+00 0.  1.
    9000005    2    1    2  501    0 -0.97372376613E+01  0.62040274872E+02 -0.78847548441E+03  0.79098223135E+03  0.39358977748E+01 0.  0.
         13    1    3    3    0    0 -0.31113857922E+01  0.30078891510E+02 -0.36465531618E+03  0.36590698279E+03  0.00000000000E+00 0.  1.
          1    1    3    3  501    0 -0.66258518691E+01  0.31961383362E+02 -0.42382016824E+03  0.42507524856E+03  0.00000000000E+00 0.  1.
         -1    1    1    2    0  502  0.97372376613E+01 -0.62040274872E+02 -0.20558218497E+03  0.21496009927E+03  0.00000000000E+00 0. -1.
<mgrwt>
<rscale>  1 0.30000000E+03</rscale>
<asrwt>0</asrwt>
<pdfrwt beam="1">  1       21 0.21608521E-01 0.30000000E+03</pdfrwt>
<pdfrwt beam="2">0</pdfrwt>
<totfact> 0.20688275E+03</totfact>
</mgrwt>
</event>
<event>
 6    1  0.1295671E-001  0.3000000E+03  0.7818608E-02  0.1093470E+00
         21   -1    0    0  501  502  0.00000000000E+00  0.00000000000E+00  0.11744998980E+02  0.11744998980E+02  0.00000000000E+00 0. -1.
         13   -1    0    0    0    0 -0.00000000000E+00 -0.00000000000E+00 -0.10000000000E+04  0.10000000000E+04  0.00000000000E+00 0.  1.
    9000005    2    1    2  501    0 -0.85157527343E+02  0.31719237764E+02 -0.76964571994E+03  0.77500055388E+03  0.36619392229E+01 0.  0.
         13    1    3    3    0    0 -0.24390233222E+02  0.10775224543E+02 -0.22127353230E+03  0.22287432566E+03  0.00000000000E+00 0.  1.
          1    1    3    3  501    0 -0.60767294120E+02  0.20944013221E+02 -0.54837218764E+03  0.55212622823E+03  0.00000000000E+00 0.  1.
         -1    1    1    2    0  502  0.85157527343E+02 -0.31719237764E+02 -0.21860928108E+03  0.23674444510E+03  0.00000000000E+00 0. -1.
<mgrwt>
<rscale>  1 0.30000000E+03</rscale>
<asrwt>0</asrwt>
<pdfrwt beam="1">  1       21 0.42709177E-01 0.30000000E+03</pdfrwt>
<pdfrwt beam="2">0</pdfrwt>
<totfact> 0.52629988E+02</totfact>
</mgrwt>
</event>
<event>
 6    1  0.1295671E-001  0.3000000E+03  0.7818608E-02  0.1093470E+00
         21   -1    0    0  501  502  0.00000000000E+00  0.00000000000E+00  0.18540498649E+01  0.18540498649E+01  0.00000000000E+00 0. -1.
         13   -1    0    0    0    0 -0.00000000000E+00 -0.00000000000E+00 -0.10000000000E+04  0.10000000000E+04  0.00000000000E+00 0.  1.
    9000005    2    1    2  501    0 -0.18424015877E+02 -0.32313005921E+02 -0.75068857146E+03  0.75161670459E+03  0.32809413025E+01 0.  0.
         13    1    3    3    0    0 -0.20903618236E+01 -0.22780467883E+01 -0.75060032238E+02  0.75123681681E+02  0.00000000000E+00 0.  1.
          1    1    3    3  501    0 -0.16333654053E+02 -0.30034959132E+02 -0.67562853922E+03  0.67649302291E+03  0.00000000000E+00 0.  1.
         -1    1    1    2    0  502  0.18424015877E+02  0.32313005921E+02 -0.24745737867E+03  0.25023734528E+03  0.00000000000E+00 0. -1.
<mgrwt>
<rscale>  1 0.30000000E+03</rscale>
<asrwt>0</asrwt>
<pdfrwt beam="1">  1       21 0.67420137E-02 0.30000000E+03</pdfrwt>
<pdfrwt beam="2">0</pdfrwt>
<totfact> 0.17223357E+04</totfact>
</mgrwt>
</event>
<event>
 6    1  0.1295671E-001  0.3000000E+03  0.7818608E-02  0.1093470E+00
         21   -1    0    0  501  502  0.00000000000E+00  0.00000000000E+00  0.93474944280E+00  0.93474944280E+00  0.00000000000E+00 0. -1.
         13   -1    0    0    0    0 -0.00000000000E+00 -0.00000000000E+00 -0.10000000000E+04  0.10000000000E+04  0.00000000000E+00 0.  1.
    9000005    2    1    2  501    0  0.28770292061E+02  0.10015070075E+02 -0.49011053437E+03  0.49106914513E+03  0.35409126865E+01 0.  0.
         13    1    3    3    0    0  0.24433905346E+02  0.93982617435E+01 -0.40402670091E+03  0.40487395335E+03  0.00000000000E+00 0.  1.
          1    1    3    3  501    0  0.43363867148E+01  0.61680833179E+00 -0.86083833462E+02  0.86195191779E+02  0.00000000000E+00 0.  1.
         -1    1    1    2    0  502 -0.28770292061E+02 -0.10015070075E+02 -0.50895471619E+03  0.50986560432E+03  0.00000000000E+00 0. -1.
<mgrwt>
<rscale>  1 0.30000000E+03</rscale>
<asrwt>0</asrwt>
<pdfrwt beam="1">  1       21 0.33990961E-02 0.30000000E+03</pdfrwt>
<pdfrwt beam="2">0</pdfrwt>
<totfact> 0.55255568E+04</totfact>
</mgrwt>
</event>
<event>
 6    1  0.1295671E-001  0.3000000E+03  0.7818608E-02  0.1093470E+00
         21   -1    0    0  501  502  0.00000000000E+00  0.00000000000E+00  0.29642333983E+01  0.29642333983E+01  0.00000000000E+00 0. -1.
         13   -1    0    0    0    0 -0.00000000000E+00 -0.00000000000E+00 -0.10000000000E+04  0.10000000000E+04  0.00000000000E+00 0.  1.
    9000005    2    1    2  501    0 -0.53066419747E+02 -0.54229046590E+01 -0.58977397543E+03  0.59222390259E+03  0.70961898966E+01 0.  0.
         13    1    3    3    0    0 -0.13793343492E+02 -0.38694560106E+01 -0.18009536109E+03  0.18066424134E+03  0.00000000000E+00 0.  1.
          3    1    3    3  501    0 -0.39273076255E+02 -0.15534486484E+01 -0.40967861434E+03  0.41155966125E+03  0.00000000000E+00 0.  1.
         -1    1    1    2    0  502  0.53066419747E+02  0.54229046590E+01 -0.40726179118E+03  0.41074033081E+03  0.00000000000E+00 0. -1.
<mgrwt>
<rscale>  1 0.30000000E+03</rscale>
<asrwt>0</asrwt>
<pdfrwt beam="1">  1       21 0.10779053E-01 0.30000000E+03</pdfrwt>
<pdfrwt beam="2">0</pdfrwt>
<totfact> 0.75214193E+03</totfact>
</mgrwt>
</event>
<event>
 6    1  0.1295671E-001  0.3000000E+03  0.7818608E-02  0.1093470E+00
         21   -1    0    0  501  502  0.00000000000E+00  0.00000000000E+00  0.32638285480E+01  0.32638285480E+01  0.00000000000E+00 0. -1.
         13   -1    0    0    0    0 -0.00000000000E+00 -0.00000000000E+00 -0.10000000000E+04  0.10000000000E+04  0.00000000000E+00 0.  1.
    9000005    2    1    2  501    0 -0.28154584190E+02  0.15891377061E+02 -0.91180368221E+03  0.91238619541E+03  0.41711159114E+01 0.  0.
         13    1    3    3    0    0 -0.16136707528E+02  0.11039290226E+02 -0.51542367665E+03  0.51579436379E+03  0.00000000000E+00 0.  1.
          3    1    3    3  501    0 -0.12017876662E+02  0.48520868355E+01 -0.39638000556E+03  0.39659183162E+03  0.00000000000E+00 0.  1.
         -3    1    1    2    0  502  0.28154584190E+02 -0.15891377061E+02 -0.84932489241E+02  0.90877633137E+02  0.00000000000E+00 0. -1.
<mgrwt>
<rscale>  1 0.30000000E+03</rscale>
<asrwt>0</asrwt>
<pdfrwt beam="1">  1       21 0.11868492E-01 0.30000000E+03</pdfrwt>
<pdfrwt beam="2">0</pdfrwt>
<totfact> 0.63222264E+03</totfact>
</mgrwt>
</event>
<event>
 6    1  0.1295671E-001  0.3000000E+03  0.7818608E-02  0.1093470E+00
         21   -1    0    0  501  502  0.00000000000E+00  0.00000000000E+00  0.10449398882E+01  0.10449398882E+01  0.00000000000E+00 0. -1.
         13   -1    0    0    0    0 -0.00000000000E+00 -0.00000000000E+00 -0.10000000000E+04  0.10000000000E+04  0.00000000000E+00 0.  1.
    9000005    2    1    2  501    0  0.67466274403E+01 -0.29977013416E+02 -0.65240974933E+03  0.65314008114E+03  0.30571648122E+01 0.  0.
         13    1    3    3    0    0  0.20767045993E+01 -0.99815907346E+01 -0.18725634838E+03  0.18753368995E+03  0.00000000000E+00 0.  1.
          1    1    3    3  501    0  0.46699228411E+01 -0.19995422681E+02 -0.46515340095E+03  0.46560639119E+03  0.00000000000E+00 0.  1.
         -3    1    1    2    0  502 -0.67466274403E+01  0.29977013416E+02 -0.34654531078E+03  0.34790485875E+03  0.00000000000E+00 0. -1.
<mgrwt>
<rscale>  1 0.30000000E+03</rscale>
<asrwt>0</asrwt>
<pdfrwt beam="1">  1       21 0.37997894E-02 0.30000000E+03</pdfrwt>
<pdfrwt beam="2">0</pdfrwt>
<totfact> 0.45840349E+04</totfact>
</mgrwt>
</event>
<event>
 6    1  0.1295671E-001  0.3000000E+03  0.7818608E-02  0.1093470E+00
         21   -1    0    0  501  502  0.00000000000E+00  0.00000000000E+00  0.12748277984E+01  0.12748277984E+01  0.00000000000E+00 0. -1.
         13   -1    0    0    0    0 -0.00000000000E+00 -0.00000000000E+00 -0.10000000000E+04  0.10000000000E+04  0.00000000000E+00 0.  1.
    9000005    2    1    2  501    0 -0.20715243479E+02 -0.26890670957E+02 -0.65199902156E+03  0.65289105517E+03  0.34316613736E+01 0.  0.
         13    1    3    3    0    0 -0.14741017894E+02 -0.17395356731E+02 -0.41311264110E+03  0.41374140509E+03  0.00000000000E+00 0.  1.
          3    1    3    3  501    0 -0.59742255846E+01 -0.94953142258E+01 -0.23888638046E+03  0.23914965008E+03  0.00000000000E+00 0.  1.
         -3    1    1    2    0  502  0.20715243479E+02  0.26890670957E+02 -0.34672615064E+03  0.34838377263E+03  0.00000000000E+00 0. -1.
<mgrwt>
<rscale>  1 0.30000000E+03</rscale>
<asrwt>0</asrwt>
<pdfrwt beam="1">  1       21 0.46357472E-02 0.30000000E+03</pdfrwt>
<pdfrwt beam="2">0</pdfrwt>
<totfact> 0.32762001E+04</totfact>
</mgrwt>
</event>
<event>
 6    1  0.1295671E-001  0.3000000E+03  0.7818608E-02  0.1093470E+00
         21   -1    0    0  501  502  0.00000000000E+00  0.00000000000E+00  0.19523251694E+01  0.19523251694E+01  0.00000000000E+00 0. -1.
         13   -1    0    0    0    0 -0.00000000000E+00 -0.00000000000E+00 -0.10000000000E+04  0.10000000000E+04  0.00000000000E+00 0.  1.
    9000005    2    1    2  501    0 -0.26600517752E+02  0.14821646428E+02 -0.85887967546E+03  0.85949180153E+03  0.11162044033E+02 0.  0.
         13    1    3    3    0    0 -0.20768035128E+02  0.11635230944E+02 -0.51726932294E+03  0.51781680384E+03  0.00000000000E+00 0.  1.
          3    1    3    3  501    0 -0.58324826244E+01  0.31864154840E+01 -0.34161035252E+03  0.34167499769E+03  0.00000000000E+00 0.  1.
         -1    1    1    2    0  502  0.26600517752E+02 -0.14821646428E+02 -0.13916799937E+03  0.14246052364E+03  0.00000000000E+00 0. -1.
<mgrwt>
<rscale>  1 0.30000000E+03</rscale>
<asrwt>0</asrwt>
<pdfrwt beam="1">  1       21 0.70993792E-02 0.30000000E+03</pdfrwt>
<pdfrwt beam="2">0</pdfrwt>
<totfact> 0.15744019E+04</totfact>
</mgrwt>
</event>
<event>
 6    1  0.1295671E-001  0.3000000E+03  0.7818608E-02  0.1093470E+00
         21   -1    0    0  501  502  0.00000000000E+00  0.00000000000E+00  0.23165238077E+01  0.23165238077E+01  0.00000000000E+00 0. -1.
         13   -1    0    0    0    0 -0.00000000000E+00 -0.00000000000E+00 -0.10000000000E+04  0.10000000000E+04  0.00000000000E+00 0.  1.
    9000005    2    1    2  501    0 -0.33958647178E+02 -0.27917545332E+01 -0.85189300421E+03  0.85259730215E+03  0.62837416105E+01 0.  0.
         13    1    3    3    0    0 -0.27408297183E+02 -0.42017734891E+01 -0.64480020390E+03  0.64539613619E+03  0.00000000000E+00 0.  1.
          3    1    3    3  501    0 -0.65503499943E+01  0.14100189559E+01 -0.20709280030E+03  0.20720116596E+03  0.00000000000E+00 0.  1.
         -1    1    1    2    0  502  0.33958647178E+02  0.27917545332E+01 -0.14579047199E+03  0.14971922166E+03  0.00000000000E+00 0. -1.
<mgrwt>
<rscale>  1 0.30000000E+03</rscale>
<asrwt>0</asrwt>
<pdfrwt beam="1">  1       21 0.84237407E-02 0.30000000E+03</pdfrwt>
<pdfrwt beam="2">0</pdfrwt>
<totfact> 0.11665117E+04</totfact>
</mgrwt>
</event>
<event>
 6    1  0.1295671E-001  0.3000000E+03  0.7818608E-02  0.1093470E+00
         21   -1    0    0  501  502  0.00000000000E+00  0.00000000000E+00  0.22272136024E+01  0.22272136024E+01  0.00000000000E+00 0. -1.
         13   -1    0    0    0    0 -0.00000000000E+00 -0.00000000000E+00 -0.10000000000E+04  0.10000000000E+04  0.00000000000E+00 0.  1.
    9000005    2    1    2  501    0  0.39086029174E+02 -0.13371733334E+02 -0.74062240269E+03  0.74177982780E+03  0.30411576352E+01 0.  0.
         13    1    3    3    0    0  0.30156452985E+02 -0.97102700624E+01 -0.54619764336E+03  0.54711567937E+03  0.00000000000E+00 0.  1.
          1    1    3    3  501    0  0.89295761892E+01 -0.36614632712E+01 -0.19442475933E+03  0.19466414843E+03  0.00000000000E+00 0.  1.
         -1    1    1    2    0  502 -0.39086029174E+02  0.13371733334E+02 -0.25715038371E+03  0.26044738580E+03  0.00000000000E+00 0. -1.
<mgrwt>
<rscale>  1 0.30000000E+03</rscale>
<asrwt>0</asrwt>
<pdfrwt beam="1">  1       21 0.80989756E-02 0.30000000E+03</pdfrwt>
<pdfrwt beam="2">0</pdfrwt>
<totfact> 0.12500847E+04</totfact>
</mgrwt>
</event>
<event>
 6    1  0.1295671E-001  0.3000000E+03  0.7818608E-02  0.1093470E+00
         21   -1    0    0  501  502  0.00000000000E+00  0.00000000000E+00  0.26731486299E+01  0.26731486299E+01  0.00000000000E+00 0. -1.
         13   -1    0    0    0    0 -0.00000000000E+00 -0.00000000000E+00 -0.10000000000E+04  0.10000000000E+04  0.00000000000E+00 0.  1.
    9000005    2    1    2  501    0 -0.36079694802E+01  0.47965992441E+02 -0.68149813894E+03  0.68320244658E+03  0.34807695090E+01 0.  0.
         13    1    3    3    0    0 -0.36019298056E+01  0.39472268434E+02 -0.54378442506E+03  0.54522704886E+03  0.00000000000E+00 0.  1.
          1    1    3    3  501    0 -0.60396745888E-02  0.84937240067E+01 -0.13771371388E+03  0.13797539772E+03  0.00000000000E+00 0.  1.
         -3    1    1    2    0  502  0.36079694802E+01 -0.47965992441E+02 -0.31582871243E+03  0.31947070205E+03  0.00000000000E+00 0. -1.
<mgrwt>
<rscale>  1 0.30000000E+03</rscale>
<asrwt>0</asrwt>
<pdfrwt beam="1">  1       21 0.97205610E-02 0.30000000E+03</pdfrwt>
<pdfrwt beam="2">0</pdfrwt>
<totfact> 0.90497301E+03</totfact>
</mgrwt>
</event>
<event>
 6    1  0.1295671E-001  0.3000000E+03  0.7818608E-02  0.1093470E+00
         21   -1    0    0  501  502  0.00000000000E+00  0.00000000000E+00  0.15180759946E+01  0.15180759946E+01  0.00000000000E+00 0. -1.
         13   -1    0    0    0    0 -0.00000000000E+00 -0.00000000000E+00 -0.10000000000E+04  0.10000000000E+04  0.00000000000E+00 0.  1.
    9000005    2    1    2  501    0 -0.60118745105E+01  0.29852549149E+02 -0.81117225783E+03  0.81174919454E+03  0.30009394128E+01 0.  0.
         13    1    3    3    0    0 -0.13863351335E+01  0.95330341307E+01 -0.29200748203E+03  0.29216633999E+03  0.00000000000E+00 0.  1.
          3    1    3    3  501    0 -0.46255393770E+01  0.20319515018E+02 -0.51916477580E+03  0.51958285455E+03  0.00000000000E+00 0.  1.
         -3    1    1    2    0  502  0.60118745105E+01 -0.29852549149E+02 -0.18730966617E+03  0.18976888145E+03  0.00000000000E+00 0. -1.
<mgrwt>
<rscale>  1 0.30000000E+03</rscale>
<asrwt>0</asrwt>
<pdfrwt beam="1">  1       21 0.55202880E-02 0.30000000E+03</pdfrwt>
<pdfrwt beam="2">0</pdfrwt>
<totfact> 0.24320102E+04</totfact>
</mgrwt>
</event>
<event>
 6    1  0.1295671E-001  0.3000000E+03  0.7818608E-02  0.1093470E+00
         21   -1    0    0  501  502  0.00000000000E+00  0.00000000000E+00  0.11021215370E+01  0.11021215370E+01  0.00000000000E+00 0. -1.
         13   -1    0    0    0    0 -0.00000000000E+00 -0.00000000000E+00 -0.10000000000E+04  0.10000000000E+04  0.00000000000E+00 0.  1.
    9000005    2    1    2  501    0 -0.59337203859E+01 -0.32304968683E+02 -0.43766594096E+03  0.43890988776E+03  0.34049468585E+01 0.  0.
         13    1    3    3    0    0 -0.63478869433E+01 -0.31090939946E+02 -0.42224628900E+03  0.42343697381E+03  0.00000000000E+00 0.  1.
          3    1    3    3  501    0  0.41416655738E+00 -0.12140287364E+01 -0.15419651956E+02  0.15472913952E+02  0.00000000000E+00 0.  1.
         -1    1    1    2    0  502  0.59337203859E+01  0.32304968683E+02 -0.56123193751E+03  0.56219223378E+03  0.00000000000E+00 0. -1.
<mgrwt>
<rscale>  1 0.30000000E+03</rscale>
<asrwt>0</asrwt>
<pdfrwt beam="1">  1       21 0.40077231E-02 0.30000000E+03</pdfrwt>
<pdfrwt beam="2">0</pdfrwt>
<totfact> 0.41910953E+04</totfact>
</mgrwt>
</event>
<event>
 6    1  0.1295671E-001  0.3000000E+03  0.7818608E-02  0.1093470E+00
         21   -1    0    0  501  502  0.00000000000E+00  0.00000000000E+00  0.14821522174E+01  0.14821522174E+01  0.00000000000E+00 0. -1.
         13   -1    0    0    0    0 -0.00000000000E+00 -0.00000000000E+00 -0.10000000000E+04  0.10000000000E+04  0.00000000000E+00 0.  1.
    9000005    2    1    2  501    0 -0.20067958446E+02  0.25388946493E+02 -0.76976976751E+03  0.77045616712E+03  0.31446662637E+01 0.  0.
         13    1    3    3    0    0 -0.63835748773E+01  0.90969704165E+01 -0.29709361533E+03  0.29730139786E+03  0.00000000000E+00 0.  1.
          1    1    3    3  501    0 -0.13684383568E+02  0.16291976077E+02 -0.47267615218E+03  0.47315476927E+03  0.00000000000E+00 0.  1.
         -1    1    1    2    0  502  0.20067958446E+02 -0.25388946493E+02 -0.22874808027E+03  0.23102598509E+03  0.00000000000E+00 0. -1.
<mgrwt>
<rscale>  1 0.30000000E+03</rscale>
<asrwt>0</asrwt>
<pdfrwt beam="1">  1       21 0.53896558E-02 0.30000000E+03</pdfrwt>
<pdfrwt beam="2">0</pdfrwt>
<totfact> 0.25338949E+04</totfact>
</mgrwt>
</event>
<event>
 6    1  0.1295671E-001  0.3000000E+03  0.7818608E-02  0.1093470E+00
         21   -1    0    0  501  502  0.00000000000E+00  0.00000000000E+00  0.95080154541E+00  0.95080154541E+00  0.00000000000E+00 0. -1.
         13   -1    0    0    0    0 -0.00000000000E+00 -0.00000000000E+00 -0.10000000000E+04  0.10000000000E+04  0.00000000000E+00 0.  1.
    9000005    2    1    2  501    0  0.20986236539E+02  0.22096318000E+02 -0.43383237769E+03  0.43491306087E+03  0.31889167870E+01 0.  0.
         13    1    3    3    0    0  0.67309577931E+01  0.50471798950E+01 -0.11608115239E+03  0.11638562522E+03  0.00000000000E+00 0.  1.
          3    1    3    3  501    0  0.14255278746E+02  0.17049138105E+02 -0.31775122530E+03  0.31852743565E+03  0.00000000000E+00 0.  1.
         -3    1    1    2    0  502 -0.20986236539E+02 -0.22096318000E+02 -0.56521682076E+03  0.56603774067E+03  0.00000000000E+00 0. -1.
<mgrwt>
<rscale>  1 0.30000000E+03</rscale>
<asrwt>0</asrwt>
<pdfrwt beam="1">  1       21 0.34574675E-02 0.30000000E+03</pdfrwt>
<pdfrwt beam="2">0</pdfrwt>
<totfact> 0.53704653E+04</totfact>
</mgrwt>
</event>
<event>
 6    1  0.1295671E-001  0.3000000E+03  0.7818608E-02  0.1093470E+00
         21   -1    0    0  501  502  0.00000000000E+00  0.00000000000E+00  0.12716254760E+01  0.12716254760E+01  0.00000000000E+00 0. -1.
         13   -1    0    0    0    0 -0.00000000000E+00 -0.00000000000E+00 -0.10000000000E+04  0.10000000000E+04  0.00000000000E+00 0.  1.
    9000005    2    1    2  501    0  0.12791895083E+02  0.29410820680E+02 -0.71427827666E+03  0.71501913705E+03  0.55028076720E+01 0.  0.
         13    1    3    3    0    0  0.10797318274E+02  0.23690556016E+02 -0.52671475688E+03  0.52735780988E+03  0.00000000000E+00 0.  1.
          1    1    3    3  501    0  0.19945768086E+01  0.57202646640E+01 -0.18756351978E+03  0.18766132717E+03  0.00000000000E+00 0.  1.
         -1    1    1    2    0  502 -0.12791895083E+02 -0.29410820680E+02 -0.28445009787E+03  0.28625248843E+03  0.00000000000E+00 0. -1.
<mgrwt>
<rscale>  1 0.30000000E+03</rscale>
<asrwt>0</asrwt>
<pdfrwt beam="1">  1       21 0.46241024E-02 0.30000000E+03</pdfrwt>
<pdfrwt beam="2">0</pdfrwt>
<totfact> 0.32902327E+04</totfact>
</mgrwt>
</event>
<event>
 6    1  0.1295671E-001  0.3000000E+03  0.7818608E-02  0.1093470E+00
         21   -1    0    0  501  502  0.00000000000E+00  0.00000000000E+00  0.24626669272E+01  0.24626669272E+01  0.00000000000E+00 0. -1.
         13   -1    0    0    0    0 -0.00000000000E+00 -0.00000000000E+00 -0.10000000000E+04  0.10000000000E+04  0.00000000000E+00 0.  1.
    9000005    2    1    2  501    0  0.20626680997E+02 -0.25092161128E+02 -0.87748650899E+03  0.87809515958E+03  0.36686935403E+01 0.  0.
         13    1    3    3    0    0  0.34232878166E+01 -0.47907187812E+01 -0.19879642315E+03  0.19888360351E+03  0.00000000000E+00 0.  1.
          1    1    3    3  501    0  0.17203393180E+02 -0.20301442346E+02 -0.67869008583E+03  0.67921155608E+03  0.00000000000E+00 0.  1.
         -3    1    1    2    0  502 -0.20626680997E+02  0.25092161128E+02 -0.12005082409E+03  0.12436750734E+03  0.00000000000E+00 0. -1.
<mgrwt>
<rscale>  1 0.30000000E+03</rscale>
<asrwt>0</asrwt>
<pdfrwt beam="1">  1       21 0.89551713E-02 0.30000000E+03</pdfrwt>
<pdfrwt beam="2">0</pdfrwt>
<totfact> 0.10470287E+04</totfact>
</mgrwt>
</event>
<event>
 6    1  0.1295671E-001  0.3000000E+03  0.7818608E-02  0.1093470E+00
         21   -1    0    0  501  502  0.00000000000E+00  0.00000000000E+00  0.21007013824E+01  0.21007013824E+01  0.00000000000E+00 0. -1.
         13   -1    0    0    0    0 -0.00000000000E+00 -0.00000000000E+00 -0.10000000000E+04  0.10000000000E+04  0.00000000000E+00 0.  1.
    9000005    2    1    2  501    0  0.18537505192E+02 -0.33146884656E+02 -0.77891382454E+03  0.77984635853E+03  0.33528774614E+01 0.  0.
         13    1    3    3    0    0  0.61431209844E+00 -0.25913879455E+01 -0.64112609513E+02  0.64167899836E+02  0.00000000000E+00 0.  1.
          1    1    3    3  501    0  0.17923193093E+02 -0.30555496710E+02 -0.71480121503E+03  0.71567845869E+03  0.00000000000E+00 0.  1.
         -3    1    1    2    0  502 -0.18537505192E+02  0.33146884656E+02 -0.21898547408E+03  0.22225434286E+03  0.00000000000E+00 0. -1.
<mgrwt>
<rscale>  1 0.30000000E+03</rscale>
<asrwt>0</asrwt>
<pdfrwt beam="1">  1       21 0.76389302E-02 0.30000000E+03</pdfrwt>
<pdfrwt beam="2">0</pdfrwt>
<totfact> 0.13851898E+04</totfact>
</mgrwt>
</event>
<event>
 6    1  0.1295671E-001  0.3000000E+03  0.7818608E-02  0.1093470E+00
         21   -1    0    0  501  502  0.00000000000E+00  0.00000000000E+00  0.19228772002E+01  0.19228772002E+01  0.00000000000E+00 0. -1.
         13   -1    0    0    0    0 -0.00000000000E+00 -0.00000000000E+00 -0.10000000000E+04  0.10000000000E+04  0.00000000000E+00 0.  1.
    9000005    2    1    2  501    0  0.29187794004E+02  0.12443731126E+02 -0.15594976130E+03  0.15919797146E+03  0.41100249656E+01 0.  0.
         13    1    3    3    0    0  0.10286224108E+02  0.46329849217E+01 -0.65538634504E+02  0.66502507985E+02  0.00000000000E+00 0.  1.
          3    1    3    3  501    0  0.18901569896E+02  0.78107462048E+01 -0.90411126793E+02  0.92695463474E+02  0.00000000000E+00 0.  1.
         -1    1    1    2    0  502 -0.29187794004E+02 -0.12443731126E+02 -0.84212736150E+03  0.84272490574E+03  0.00000000000E+00 0. -1.
<mgrwt>
<rscale>  1 0.30000000E+03</rscale>
<asrwt>0</asrwt>
<pdfrwt beam="1">  1       21 0.69922955E-02 0.30000000E+03</pdfrwt>
<pdfrwt beam="2">0</pdfrwt>
<totfact> 0.16166239E+04</totfact>
</mgrwt>
</event>
<event>
 6    1  0.1295671E-001  0.3000000E+03  0.7818608E-02  0.1093470E+00
         21   -1    0    0  501  502  0.00000000000E+00  0.00000000000E+00  0.18400967821E+01  0.18400967821E+01  0.00000000000E+00 0. -1.
         13   -1    0    0    0    0 -0.00000000000E+00 -0.00000000000E+00 -0.10000000000E+04  0.10000000000E+04  0.00000000000E+00 0.  1.
    9000005    2    1    2  501    0  0.30955494915E+02  0.94317338913E+01 -0.82746565774E+03  0.82810545513E+03  0.34684020226E+01 0.  0.
         13    1    3    3    0    0  0.18762474586E+02  0.74705358042E+01 -0.51667947693E+03  0.51707399977E+03  0.00000000000E+00 0.  1.
          1    1    3    3  501    0  0.12193020329E+02  0.19611980871E+01 -0.31078618081E+03  0.31103145536E+03  0.00000000000E+00 0.  1.
         -1    1    1    2    0  502 -0.30955494915E+02 -0.94317338913E+01 -0.17069424548E+03  0.17373464165E+03  0.00000000000E+00 0. -1.
<mgrwt>
<rscale>  1 0.30000000E+03</rscale>
<asrwt>0</asrwt>
<pdfrwt beam="1">  1       21 0.66912751E-02 0.30000000E+03</pdfrwt>
<pdfrwt beam="2">0</pdfrwt>
<totfact> 0.17450580E+04</totfact>
</mgrwt>
</event>
<event>
 6    1  0.1295671E-001  0.3000000E+03  0.7818608E-02  0.1093470E+00
         21   -1    0    0  501  502  0.00000000000E+00  0.00000000000E+00  0.13570171405E+01  0.13570171405E+01  0.00000000000E+00 0. -1.
         13   -1    0    0    0    0 -0.00000000000E+00 -0.00000000000E+00 -0.10000000000E+04  0.10000000000E+04  0.00000000000E+00 0.  1.
    9000005    2    1    2  501    0  0.59264157774E+01  0.35959686689E+02 -0.56321314482E+03  0.56440465666E+03  0.39177155866E+01 0.  0.
         13    1    3    3    0    0  0.45952498956E+01  0.20436691746E+02 -0.29940228941E+03  0.30013414599E+03  0.00000000000E+00 0.  1.
          3    1    3    3  501    0  0.13311658818E+01  0.15522994943E+02 -0.26381085541E+03  0.26427051066E+03  0.00000000000E+00 0.  1.
         -3    1    1    2    0  502 -0.59264157774E+01 -0.35959686689E+02 -0.43542983804E+03  0.43695236048E+03  0.00000000000E+00 0. -1.
<mgrwt>
<rscale>  1 0.30000000E+03</rscale>
<asrwt>0</asrwt>
<pdfrwt beam="1">  1       21 0.49346182E-02 0.30000000E+03</pdfrwt>
<pdfrwt beam="2">0</pdfrwt>
<totfact> 0.29458088E+04</totfact>
</mgrwt>
</event>
<event>
 6    1  0.1295671E-001  0.3000000E+03  0.7818608E-02  0.1093470E+00
         21   -1    0    0  501  502  0.00000000000E+00  0.00000000000E+00  0.23782924910E+01  0.23782924910E+01  0.00000000000E+00 0. -1.
         13   -1    0    0    0    0 -0.00000000000E+00 -0.00000000000E+00 -0.10000000000E+04  0.10000000000E+04  0.00000000000E+00 0.  1.
    9000005    2    1    2  501    0 -0.33850363436E+02  0.10280019469E+02 -0.84365075603E+03  0.84439544594E+03  0.23547970384E+01 0.  0.
         13    1    3    3    0    0 -0.17408099176E+02  0.57477576520E+01 -0.46296716182E+03  0.46332998129E+03  0.00000000000E+00 0.  1.
          1    1    3    3  501    0 -0.16442264260E+02  0.45322618172E+01 -0.38068359420E+03  0.38106546465E+03  0.00000000000E+00 0.  1.
         -3    1    1    2    0  502  0.33850363436E+02 -0.10280019469E+02 -0.15397095148E+03  0.15798284656E+03  0.00000000000E+00 0. -1.
<mgrwt>
<rscale>  1 0.30000000E+03</rscale>
<asrwt>0</asrwt>
<pdfrwt beam="1">  1       21 0.86483546E-02 0.30000000E+03</pdfrwt>
<pdfrwt beam="2">0</pdfrwt>
<totfact> 0.11136021E+04</totfact>
</mgrwt>
</event>
<event>
 6    1  0.1295671E-001  0.3000000E+03  0.7818608E-02  0.1093470E+00
         21   -1    0    0  501  502  0.00000000000E+00  0.00000000000E+00  0.19181801370E+01  0.19181801370E+01  0.00000000000E+00 0. -1.
         13   -1    0    0    0    0 -0.00000000000E+00 -0.00000000000E+00 -0.10000000000E+04  0.10000000000E+04  0.00000000000E+00 0.  1.
    9000005    2    1    2  501    0 -0.31039020646E+02 -0.22349066267E+02 -0.74226853883E+03  0.74326138761E+03  0.34648253094E+01 0.  0.
         13    1    3    3    0    0 -0.30661383666E+02 -0.21448981531E+02 -0.72582568636E+03  0.72678958870E+03  0.00000000000E+00 0.  1.
          1    1    3    3  501    0 -0.37763698027E+00 -0.90008473678E+00 -0.16442852467E+02  0.16471798914E+02  0.00000000000E+00 0.  1.
         -3    1    1    2    0  502  0.31039020646E+02  0.22349066267E+02 -0.25581328103E+03  0.25865679252E+03  0.00000000000E+00 0. -1.
<mgrwt>
<rscale>  1 0.30000000E+03</rscale>
<asrwt>0</asrwt>
<pdfrwt beam="1">  1       21 0.69752152E-02 0.30000000E+03</pdfrwt>
<pdfrwt beam="2">0</pdfrwt>
<totfact> 0.16235182E+04</totfact>
</mgrwt>
</event>
<event>
 6    1  0.1295671E-001  0.3000000E+03  0.7818608E-02  0.1093470E+00
         21   -1    0    0  501  502  0.00000000000E+00  0.00000000000E+00  0.12443939055E+01  0.12443939055E+01  0.00000000000E+00 0. -1.
         13   -1    0    0    0    0 -0.00000000000E+00 -0.00000000000E+00 -0.10000000000E+04  0.10000000000E+04  0.00000000000E+00 0.  1.
    9000005    2    1    2  501    0 -0.27638754509E+01  0.34970049086E+02 -0.46954453652E+03  0.47087197804E+03  0.42195492721E+01 0.  0.
         13    1    3    3    0    0 -0.10430377738E+01  0.18048808573E+02 -0.26947424200E+03  0.27008001503E+03  0.00000000000E+00 0.  1.
          3    1    3    3  501    0 -0.17208376771E+01  0.16921240513E+02 -0.20007029452E+03  0.20079196301E+03  0.00000000000E+00 0.  1.
         -3    1    1    2    0  502  0.27638754509E+01 -0.34970049086E+02 -0.52921106958E+03  0.53037241586E+03  0.00000000000E+00 0. -1.
<mgrwt>
<rscale>  1 0.30000000E+03</rscale>
<asrwt>0</asrwt>
<pdfrwt beam="1">  1       21 0.45250783E-02 0.30000000E+03</pdfrwt>
<pdfrwt beam="2">0</pdfrwt>
<totfact> 0.34134686E+04</totfact>
</mgrwt>
</event>
<event>
 6    1  0.1295671E-001  0.3000000E+03  0.7818608E-02  0.1093470E+00
         21   -1    0    0  501  502  0.00000000000E+00  0.00000000000E+00  0.22741312515E+01  0.22741312515E+01  0.00000000000E+00 0. -1.
         13   -1    0    0    0    0 -0.00000000000E+00 -0.00000000000E+00 -0.10000000000E+04  0.10000000000E+04  0.00000000000E+00 0.  1.
    9000005    2    1    2  501    0 -0.36274297563E+02 -0.27401589416E+02 -0.34963263311E+03  0.35258842735E+03  0.29915219365E+01 0.  0.
         13    1    3    3    0    0 -0.93767612067E+01 -0.63520965087E+01 -0.96309184963E+02  0.96972840986E+02  0.00000000000E+00 0.  1.
          1    1    3    3  501    0 -0.26897536356E+02 -0.21049492907E+02 -0.25332344814E+03  0.25561558637E+03  0.00000000000E+00 0.  1.
         -1    1    1    2    0  502  0.36274297563E+02  0.27401589416E+02 -0.64809323564E+03  0.64968570390E+03  0.00000000000E+00 0. -1.
<mgrwt>
<rscale>  1 0.30000000E+03</rscale>
<asrwt>0</asrwt>
<pdfrwt beam="1">  1       21 0.82695856E-02 0.30000000E+03</pdfrwt>
<pdfrwt beam="2">0</pdfrwt>
<totfact> 0.12050786E+04</totfact>
</mgrwt>
</event>
<event>
 6    1  0.1295671E-001  0.3000000E+03  0.7818608E-02  0.1093470E+00
         21   -1    0    0  501  502  0.00000000000E+00  0.00000000000E+00  0.16341268072E+01  0.16341268072E+01  0.00000000000E+00 0. -1.
         13   -1    0    0    0    0 -0.00000000000E+00 -0.00000000000E+00 -0.10000000000E+04  0.10000000000E+04  0.00000000000E+00 0.  1.
    9000005    2    1    2  501    0  0.23963479731E+02 -0.21155863474E+02 -0.80521475405E+03  0.80585574765E+03  0.32965067884E+01 0.  0.
         13    1    3    3    0    0  0.85030927138E+01 -0.54690672840E+01 -0.25145410459E+03  0.25165726693E+03  0.00000000000E+00 0.  1.
          1    1    3    3  501    0  0.15460387017E+02 -0.15686796190E+02 -0.55376064946E+03  0.55419848072E+03  0.00000000000E+00 0.  1.
         -1    1    1    2    0  502 -0.23963479731E+02  0.21155863474E+02 -0.19315111914E+03  0.19577837916E+03  0.00000000000E+00 0. -1.
<mgrwt>
<rscale>  1 0.30000000E+03</rscale>
<asrwt>0</asrwt>
<pdfrwt beam="1">  1       21 0.59422918E-02 0.30000000E+03</pdfrwt>
<pdfrwt beam="2">0</pdfrwt>
<totfact> 0.21425763E+04</totfact>
</mgrwt>
</event>
<event>
 6    1  0.1295671E-001  0.3000000E+03  0.7818608E-02  0.1093470E+00
         21   -1    0    0  501  502  0.00000000000E+00  0.00000000000E+00  0.53142734631E+01  0.53142734631E+01  0.00000000000E+00 0. -1.
         13   -1    0    0    0    0 -0.00000000000E+00 -0.00000000000E+00 -0.10000000000E+04  0.10000000000E+04  0.00000000000E+00 0.  1.
    9000005    2    1    2  501    0 -0.18112282976E+02 -0.63598683184E+02 -0.70864827166E+03  0.71173247415E+03  0.28097207806E+01 0.  0.
         13    1    3    3    0    0 -0.13124897720E+02 -0.48218453636E+02 -0.52379761757E+03  0.52617604124E+03  0.00000000000E+00 0.  1.
          1    1    3    3  501    0 -0.49873852559E+01 -0.15380229548E+02 -0.18485065409E+03  0.18555643290E+03  0.00000000000E+00 0.  1.
         -3    1    1    2    0  502  0.18112282976E+02  0.63598683184E+02 -0.28603745488E+03  0.29358179932E+03  0.00000000000E+00 0. -1.
<mgrwt>
<rscale>  1 0.30000000E+03</rscale>
<asrwt>0</asrwt>
<pdfrwt beam="1">  1       21 0.19324672E-01 0.30000000E+03</pdfrwt>
<pdfrwt beam="2">0</pdfrwt>
<totfact> 0.25614005E+03</totfact>
</mgrwt>
</event>
<event>
 6    1  0.1295671E-001  0.3000000E+03  0.7818608E-02  0.1093470E+00
         21   -1    0    0  501  502  0.00000000000E+00  0.00000000000E+00  0.44148584067E+01  0.44148584067E+01  0.00000000000E+00 0. -1.
         13   -1    0    0    0    0 -0.00000000000E+00 -0.00000000000E+00 -0.10000000000E+04  0.10000000000E+04  0.00000000000E+00 0.  1.
    9000005    2    1    2  501    0  0.60236685562E+02  0.19184889134E+02 -0.65171302632E+03  0.65477997753E+03  0.32298682870E+01 0.  0.
         13    1    3    3    0    0  0.72830286438E+01  0.15587318172E+01 -0.84793779957E+02  0.85120251823E+02  0.00000000000E+00 0.  1.
          3    1    3    3  501    0  0.52953656918E+02  0.17626157316E+02 -0.56691924636E+03  0.56965972571E+03  0.00000000000E+00 0.  1.
         -3    1    1    2    0  502 -0.60236685562E+02 -0.19184889134E+02 -0.34387211528E+03  0.34963488087E+03  0.00000000000E+00 0. -1.
<mgrwt>
<rscale>  1 0.30000000E+03</rscale>
<asrwt>0</asrwt>
<pdfrwt beam="1">  1       21 0.16054064E-01 0.30000000E+03</pdfrwt>
<pdfrwt beam="2">0</pdfrwt>
<totfact> 0.36297673E+03</totfact>
</mgrwt>
</event>
<event>
 6    1  0.1295671E-001  0.3000000E+03  0.7818608E-02  0.1093470E+00
         21   -1    0    0  501  502  0.00000000000E+00  0.00000000000E+00  0.10732681884E+01  0.10732681884E+01  0.00000000000E+00 0. -1.
         13   -1    0    0    0    0 -0.00000000000E+00 -0.00000000000E+00 -0.10000000000E+04  0.10000000000E+04  0.00000000000E+00 0.  1.
    9000005    2    1    2  501    0 -0.20096944438E+01  0.31802312621E+02 -0.61094979698E+03  0.61178991648E+03  0.34382424375E+01 0.  0.
         13    1    3    3    0    0 -0.25377365518E+01  0.17835170860E+02 -0.36225608739E+03  0.36270374450E+03  0.00000000000E+00 0.  1.
          1    1    3    3  501    0  0.52804210798E+00  0.13967141761E+02 -0.24869370960E+03  0.24908617198E+03  0.00000000000E+00 0.  1.
         -3    1    1    2    0  502  0.20096944438E+01 -0.31802312621E+02 -0.38797693483E+03  0.38928335171E+03  0.00000000000E+00 0. -1.
<mgrwt>
<rscale>  1 0.30000000E+03</rscale>
<asrwt>0</asrwt>
<pdfrwt beam="1">  1       21 0.39028016E-02 0.30000000E+03</pdfrwt>
<pdfrwt beam="2">0</pdfrwt>
<totfact> 0.43824701E+04</totfact>
</mgrwt>
</event>
<event>
 6    1  0.1295671E-001  0.3000000E+03  0.7818608E-02  0.1093470E+00
         21   -1    0    0  501  502  0.00000000000E+00  0.00000000000E+00  0.44149589124E+01  0.44149589124E+01  0.00000000000E+00 0. -1.
         13   -1    0    0    0    0 -0.00000000000E+00 -0.00000000000E+00 -0.10000000000E+04  0.10000000000E+04  0.00000000000E+00 0.  1.
    9000005    2    1    2  501    0 -0.20255714154E+02  0.36978738266E+02 -0.88586228216E+03  0.88687005317E+03  0.29643235711E+01 0.  0.
         13    1    3    3    0    0 -0.18619335959E+02  0.35361484640E+02 -0.83977736187E+03  0.84072773939E+03  0.00000000000E+00 0.  1.
          3    1    3    3  501    0 -0.16363781947E+01  0.16172536262E+01 -0.46084920289E+02  0.46142313780E+02  0.00000000000E+00 0.  1.
         -1    1    1    2    0  502  0.20255714154E+02 -0.36978738266E+02 -0.10972275893E+03  0.11754490575E+03  0.00000000000E+00 0. -1.
<mgrwt>
<rscale>  1 0.30000000E+03</rscale>
<asrwt>0</asrwt>
<pdfrwt beam="1">  1       21 0.16054430E-01 0.30000000E+03</pdfrwt>
<pdfrwt beam="2">0</pdfrwt>
<totfact> 0.36296132E+03</totfact>
</mgrwt>
</event>
<event>
 6    1  0.1295671E-001  0.3000000E+03  0.7818608E-02  0.1093470E+00
         21   -1    0    0  501  502  0.00000000000E+00  0.00000000000E+00  0.34948593818E+01  0.34948593818E+01  0.00000000000E+00 0. -1.
         13   -1    0    0    0    0 -0.00000000000E+00 -0.00000000000E+00 -0.10000000000E+04  0.10000000000E+04  0.00000000000E+00 0.  1.
    9000005    2    1    2  501    0  0.50377860764E+02  0.29714013720E+02 -0.56753864151E+03  0.57055940366E+03  0.41318310423E+01 0.  0.
         13    1    3    3    0    0  0.74710206484E+01  0.36744809992E+01 -0.94225373543E+02  0.94592489022E+02  0.00000000000E+00 0.  1.
          1    1    3    3  501    0  0.42906840116E+02  0.26039532721E+02 -0.47331326797E+03  0.47596691464E+03  0.00000000000E+00 0.  1.
         -3    1    1    2    0  502 -0.50377860764E+02 -0.29714013720E+02 -0.42896649911E+03  0.43293545572E+03  0.00000000000E+00 0. -1.
<mgrwt>
<rscale>  1 0.30000000E+03</rscale>
<asrwt>0</asrwt>
<pdfrwt beam="1">  1       21 0.12708606E-01 0.30000000E+03</pdfrwt>
<pdfrwt beam="2">0</pdfrwt>
<totfact> 0.55827481E+03</totfact>
</mgrwt>
</event>
<event>
 6    1  0.1295671E-001  0.3000000E+03  0.7818608E-02  0.1093470E+00
         21   -1    0    0  501  502  0.00000000000E+00  0.00000000000E+00  0.24742256785E+01  0.24742256785E+01  0.00000000000E+00 0. -1.
         13   -1    0    0    0    0 -0.00000000000E+00 -0.00000000000E+00 -0.10000000000E+04  0.10000000000E+04  0.00000000000E+00 0.  1.
    9000005    2    1    2  501    0 -0.29935666385E+02  0.70423591017E+01 -0.89256947517E+03  0.89310529191E+03  0.33249775703E+01 0.  0.
         13    1    3    3    0    0 -0.26261674832E+02  0.52366355006E+01 -0.75410477051E+03  0.75458008377E+03  0.00000000000E+00 0.  1.
          3    1    3    3  501    0 -0.36739915532E+01  0.18057236011E+01 -0.13846470466E+03  0.13852520814E+03  0.00000000000E+00 0.  1.
         -3    1    1    2    0  502  0.29935666385E+02 -0.70423591017E+01 -0.10495629915E+03  0.10936893377E+03  0.00000000000E+00 0. -1.
<mgrwt>
<rscale>  1 0.30000000E+03</rscale>
<asrwt>0</asrwt>
<pdfrwt beam="1">  1       21 0.89972033E-02 0.30000000E+03</pdfrwt>
<pdfrwt beam="2">0</pdfrwt>
<totfact> 0.10383806E+04</totfact>
</mgrwt>
</event>
<event>
 6    1  0.1295671E-001  0.3000000E+03  0.7818608E-02  0.1093470E+00
         21   -1    0    0  501  502  0.00000000000E+00  0.00000000000E+00  0.15447536776E+01  0.15447536776E+01  0.00000000000E+00 0. -1.
         13   -1    0    0    0    0 -0.00000000000E+00 -0.00000000000E+00 -0.10000000000E+04  0.10000000000E+04  0.00000000000E+00 0.  1.
    9000005    2    1    2  501    0  0.14983474773E+02  0.30811284320E+02 -0.73361691487E+03  0.73449947369E+03  0.11038990359E+02 0.  0.
         13    1    3    3    0    0  0.13081729734E+02  0.30990318335E+02 -0.65884569653E+03  0.65970386032E+03  0.00000000000E+00 0.  1.
          3    1    3    3  501    0  0.19017450386E+01 -0.17903401457E+00 -0.74771218340E+02  0.74795613370E+02  0.00000000000E+00 0.  1.
         -3    1    1    2    0  502 -0.14983474773E+02 -0.30811284320E+02 -0.26483833145E+03  0.26704527999E+03  0.00000000000E+00 0. -1.
<mgrwt>
<rscale>  1 0.30000000E+03</rscale>
<asrwt>0</asrwt>
<pdfrwt beam="1">  1       21 0.56172979E-02 0.30000000E+03</pdfrwt>
<pdfrwt beam="2">0</pdfrwt>
<totfact> 0.23603718E+04</totfact>
</mgrwt>
</event>
<event>
 6    1  0.1295671E-001  0.3000000E+03  0.7818608E-02  0.1093470E+00
         21   -1    0    0  501  502  0.00000000000E+00  0.00000000000E+00  0.76259110620E+01  0.76259110620E+01  0.00000000000E+00 0. -1.
         13   -1    0    0    0    0 -0.00000000000E+00 -0.00000000000E+00 -0.10000000000E+04  0.10000000000E+04  0.00000000000E+00 0.  1.
    9000005    2    1    2  501    0 -0.47052069706E+02  0.24201125089E+02 -0.89693618347E+03  0.89850219449E+03  0.34762854003E+01 0.  0.
         13    1    3    3    0    0 -0.37869118113E+02  0.17924221660E+02 -0.71381213256E+03  0.71504063410E+03  0.00000000000E+00 0.  1.
          3    1    3    3  501    0 -0.91829515930E+01  0.62769034292E+01 -0.18312405091E+03  0.18346156038E+03  0.00000000000E+00 0.  1.
         -3    1    1    2    0  502  0.47052069706E+02 -0.24201125089E+02 -0.95437905469E+02  0.10912371658E+03  0.00000000000E+00 0. -1.
<mgrwt>
<rscale>  1 0.30000000E+03</rscale>
<asrwt>0</asrwt>
<pdfrwt beam="1">  1       21 0.27730644E-01 0.30000000E+03</pdfrwt>
<pdfrwt beam="2">0</pdfrwt>
<totfact> 0.12715247E+03</totfact>
</mgrwt>
</event>
<event>
 6    1  0.1295671E-001  0.3000000E+03  0.7818608E-02  0.1093470E+00
         21   -1    0    0  501  502  0.00000000000E+00  0.00000000000E+00  0.59561619363E+01  0.59561619363E+01  0.00000000000E+00 0. -1.
         13   -1    0    0    0    0 -0.00000000000E+00 -0.00000000000E+00 -0.10000000000E+04  0.10000000000E+04  0.00000000000E+00 0.  1.
    9000005    2    1    2  501    0 -0.37181177871E+02  0.27503538011E+02 -0.89931495905E+03  0.90054057907E+03  0.81886749425E+01 0.  0.
         13    1    3    3    0    0 -0.45218906832E+01  0.11141334073E+01 -0.12663639453E+03  0.12672199970E+03  0.00000000000E+00 0.  1.
          1    1    3    3  501    0 -0.32659287187E+02  0.26389404604E+02 -0.77267856452E+03  0.77381857937E+03  0.00000000000E+00 0.  1.
         -3    1    1    2    0  502  0.37181177871E+02 -0.27503538011E+02 -0.94728879017E+02  0.10541558287E+03  0.00000000000E+00 0. -1.
<mgrwt>
<rscale>  1 0.30000000E+03</rscale>
<asrwt>0</asrwt>
<pdfrwt beam="1">  1       21 0.21658816E-01 0.30000000E+03</pdfrwt>
<pdfrwt beam="2">0</pdfrwt>
<totfact> 0.20596030E+03</totfact>
</mgrwt>
</event>
<event>
 6    1  0.1295671E-001  0.3000000E+03  0.7818608E-02  0.1093470E+00
         21   -1    0    0  501  502  0.00000000000E+00  0.00000000000E+00  0.15499033530E+01  0.15499033530E+01  0.00000000000E+00 0. -1.
         13   -1    0    0    0    0 -0.00000000000E+00 -0.00000000000E+00 -0.10000000000E+04  0.10000000000E+04  0.00000000000E+00 0.  1.
    9000005    2    1    2  501    0 -0.30276567299E+02 -0.25995285645E+01 -0.18290681387E+03  0.18544067404E+03  0.31484845074E+01 0.  0.
         13    1    3    3    0    0 -0.21919876805E+02 -0.24586743727E+01 -0.12448653255E+03  0.12642556255E+03  0.00000000000E+00 0.  1.
          1    1    3    3  501    0 -0.83566904934E+01 -0.14085419174E+00 -0.58420281313E+02  0.59015111494E+02  0.00000000000E+00 0.  1.
         -1    1    1    2    0  502  0.30276567299E+02  0.25995285645E+01 -0.81554328278E+03  0.81610922931E+03  0.00000000000E+00 0. -1.
<mgrwt>
<rscale>  1 0.30000000E+03</rscale>
<asrwt>0</asrwt>
<pdfrwt beam="1">  1       21 0.56360241E-02 0.30000000E+03</pdfrwt>
<pdfrwt beam="2">0</pdfrwt>
<totfact> 0.23469168E+04</totfact>
</mgrwt>
</event>
<event>
 6    1  0.1295671E-001  0.3000000E+03  0.7818608E-02  0.1093470E+00
         21   -1    0    0  501  502  0.00000000000E+00  0.00000000000E+00  0.28468395510E+01  0.28468395510E+01  0.00000000000E+00 0. -1.
         13   -1    0    0    0    0 -0.00000000000E+00 -0.00000000000E+00 -0.10000000000E+04  0.10000000000E+04  0.00000000000E+00 0.  1.
    9000005    2    1    2  501    0 -0.18483917335E+02  0.35047610775E+02 -0.16381467270E+03  0.16856689530E+03  0.30920829594E+01 0.  0.
         13    1    3    3    0    0 -0.34653659581E+01  0.43258881199E+01 -0.21973421898E+02  0.22661715274E+02  0.00000000000E+00 0.  1.
          1    1    3    3  501    0 -0.15018551377E+02  0.30721722655E+02 -0.14184125080E+03  0.14590518002E+03  0.00000000000E+00 0.  1.
         -1    1    1    2    0  502  0.18483917335E+02 -0.35047610775E+02 -0.83333848775E+03  0.83427994425E+03  0.00000000000E+00 0. -1.
<mgrwt>
<rscale>  1 0.30000000E+03</rscale>
<asrwt>0</asrwt>
<pdfrwt beam="1">  1       21 0.10352166E-01 0.30000000E+03</pdfrwt>
<pdfrwt beam="2">0</pdfrwt>
<totfact> 0.80867238E+03</totfact>
</mgrwt>
</event>
<event>
 6    1  0.1295671E-001  0.3000000E+03  0.7818608E-02  0.1093470E+00
         21   -1    0    0  501  502  0.00000000000E+00  0.00000000000E+00  0.37782644598E+01  0.37782644598E+01  0.00000000000E+00 0. -1.
         13   -1    0    0    0    0 -0.00000000000E+00 -0.00000000000E+00 -0.10000000000E+04  0.10000000000E+04  0.00000000000E+00 0.  1.
    9000005    2    1    2  501    0 -0.43402358461E+01 -0.59224620909E+02 -0.62188256829E+03  0.62475820496E+03  0.76480420595E+01 0.  0.
         13    1    3    3    0    0  0.51979326226E-01 -0.82531480462E+00 -0.23994484250E+02  0.24008730096E+02  0.00000000000E+00 0.  1.
          1    1    3    3  501    0 -0.43922151724E+01 -0.58399306105E+02 -0.59788808404E+03  0.60074947486E+03  0.00000000000E+00 0.  1.
         -1    1    1    2    0  502  0.43402358461E+01  0.59224620909E+02 -0.37433916725E+03  0.37902005950E+03  0.00000000000E+00 0. -1.
<mgrwt>
<rscale>  1 0.30000000E+03</rscale>
<asrwt>0</asrwt>
<pdfrwt beam="1">  1       21 0.13739172E-01 0.30000000E+03</pdfrwt>
<pdfrwt beam="2">0</pdfrwt>
<totfact> 0.48409522E+03</totfact>
</mgrwt>
</event>
<event>
 6    1  0.1295671E-001  0.3000000E+03  0.7818608E-02  0.1093470E+00
         21   -1    0    0  501  502  0.00000000000E+00  0.00000000000E+00  0.22452542836E+01  0.22452542836E+01  0.00000000000E+00 0. -1.
         13   -1    0    0    0    0 -0.00000000000E+00 -0.00000000000E+00 -0.10000000000E+04  0.10000000000E+04  0.00000000000E+00 0.  1.
    9000005    2    1    2  501    0  0.29589225730E+02  0.36090432408E+02 -0.58288867720E+03  0.58476244458E+03  0.31408587932E+01 0.  0.
         13    1    3    3    0    0  0.39757231948E+01  0.44016065018E+01 -0.62356334095E+02  0.62637791440E+02  0.00000000000E+00 0.  1.
          3    1    3    3  501    0  0.25613502535E+02  0.31688825907E+02 -0.52053234311E+03  0.52212465314E+03  0.00000000000E+00 0.  1.
         -3    1    1    2    0  502 -0.29589225730E+02 -0.36090432408E+02 -0.41486606851E+03  0.41748280970E+03  0.00000000000E+00 0. -1.
<mgrwt>
<rscale>  1 0.30000000E+03</rscale>
<asrwt>0</asrwt>
<pdfrwt beam="1">  1       21 0.81645782E-02 0.30000000E+03</pdfrwt>
<pdfrwt beam="2">0</pdfrwt>
<totfact> 0.12324788E+04</totfact>
</mgrwt>
</event>
<event>
 6    1  0.1295671E-001  0.3000000E+03  0.7818608E-02  0.1093470E+00
         21   -1    0    0  501  502  0.00000000000E+00  0.00000000000E+00  0.38770050685E+01  0.38770050685E+01  0.00000000000E+00 0. -1.
         13   -1    0    0    0    0 -0.00000000000E+00 -0.00000000000E+00 -0.10000000000E+04  0.10000000000E+04  0.00000000000E+00 0.  1.
    9000005    2    1    2  501    0  0.96808098257E+01  0.31782681290E+02 -0.92250563409E+03  0.92310960616E+03  0.32928940102E+01 0.  0.
         13    1    3    3    0    0  0.43552425854E+01  0.10120905538E+02 -0.33206788909E+03  0.33225063406E+03  0.00000000000E+00 0.  1.
          1    1    3    3  501    0  0.53255672403E+01  0.21661775752E+02 -0.59043774500E+03  0.59085897210E+03  0.00000000000E+00 0.  1.
         -3    1    1    2    0  502 -0.96808098257E+01 -0.31782681290E+02 -0.73617360839E+02  0.80767398904E+02  0.00000000000E+00 0. -1.
<mgrwt>
<rscale>  1 0.30000000E+03</rscale>
<asrwt>0</asrwt>
<pdfrwt beam="1">  1       21 0.14098230E-01 0.30000000E+03</pdfrwt>
<pdfrwt beam="2">0</pdfrwt>
<totfact> 0.46169623E+03</totfact>
</mgrwt>
</event>
<event>
 6    1  0.1295671E-001  0.3000000E+03  0.7818608E-02  0.1093470E+00
         21   -1    0    0  501  502  0.00000000000E+00  0.00000000000E+00  0.14604109698E+01  0.14604109698E+01  0.00000000000E+00 0. -1.
         13   -1    0    0    0    0 -0.00000000000E+00 -0.00000000000E+00 -0.10000000000E+04  0.10000000000E+04  0.00000000000E+00 0.  1.
    9000005    2    1    2  501    0  0.36098042493E+01  0.37736026185E+02 -0.55752396530E+03  0.55881854814E+03  0.28564834887E+01 0.  0.
         13    1    3    3    0    0  0.15006041830E+01  0.13286289153E+02 -0.17729675672E+03  0.17780021720E+03  0.00000000000E+00 0.  1.
          3    1    3    3  501    0  0.21092000663E+01  0.24449737033E+02 -0.38022720858E+03  0.38101833094E+03  0.00000000000E+00 0.  1.
         -3    1    1    2    0  502 -0.36098042493E+01 -0.37736026185E+02 -0.44101562373E+03  0.44264186283E+03  0.00000000000E+00 0. -1.
<mgrwt>
<rscale>  1 0.30000000E+03</rscale>
<asrwt>0</asrwt>
<pdfrwt beam="1">  1       21 0.53105965E-02 0.30000000E+03</pdfrwt>
<pdfrwt beam="2">0</pdfrwt>
<totfact> 0.25987929E+04</totfact>
</mgrwt>
</event>
<event>
 6    1  0.1295671E-001  0.3000000E+03  0.7818608E-02  0.1093470E+00
         21   -1    0    0  501  502  0.00000000000E+00  0.00000000000E+00  0.16840580974E+01  0.16840580974E+01  0.00000000000E+00 0. -1.
         13   -1    0    0    0    0 -0.00000000000E+00 -0.00000000000E+00 -0.10000000000E+04  0.10000000000E+04  0.00000000000E+00 0.  1.
    9000005    2    1    2  501    0  0.38166155618E+02  0.61749785536E+01 -0.66525476719E+03  0.66638638156E+03  0.34811573029E+01 0.  0.
         13    1    3    3    0    0  0.45417271553E+01  0.41302621759E+00 -0.61745124849E+02  0.61913312937E+02  0.00000000000E+00 0.  1.
          3    1    3    3  501    0  0.33624428463E+02  0.57619523360E+01 -0.60350964234E+03  0.60447306862E+03  0.00000000000E+00 0.  1.
         -3    1    1    2    0  502 -0.38166155618E+02 -0.61749785536E+01 -0.33306117471E+03  0.33529767654E+03  0.00000000000E+00 0. -1.
<mgrwt>
<rscale>  1 0.30000000E+03</rscale>
<asrwt>0</asrwt>
<pdfrwt beam="1">  1       21 0.61238605E-02 0.30000000E+03</pdfrwt>
<pdfrwt beam="2">0</pdfrwt>
<totfact> 0.20341731E+04</totfact>
</mgrwt>
</event>
<event>
 6    1  0.1295671E-001  0.3000000E+03  0.7818608E-02  0.1093470E+00
         21   -1    0    0  501  502  0.00000000000E+00  0.00000000000E+00  0.27499326765E+01  0.27499326765E+01  0.00000000000E+00 0. -1.
         13   -1    0    0    0    0 -0.00000000000E+00 -0.00000000000E+00 -0.10000000000E+04  0.10000000000E+04  0.00000000000E+00 0.  1.
    9000005    2    1    2  501    0  0.30957488830E+02  0.32108733692E+02 -0.76189222563E+03  0.76320317202E+03  0.31593375216E+01 0.  0.
         13    1    3    3    0    0  0.30513095428E+02  0.32032746901E+02 -0.75630793548E+03  0.75760071221E+03  0.00000000000E+00 0.  1.
          1    1    3    3  501    0  0.44439340126E+00  0.75986790950E-01 -0.55842901481E+01  0.56024598121E+01  0.00000000000E+00 0.  1.
         -1    1    1    2    0  502 -0.30957488830E+02 -0.32108733692E+02 -0.23535784169E+03  0.23954676065E+03  0.00000000000E+00 0. -1.
<mgrwt>
<rscale>  1 0.30000000E+03</rscale>
<asrwt>0</asrwt>
<pdfrwt beam="1">  1       21 0.99997763E-02 0.30000000E+03</pdfrwt>
<pdfrwt beam="2">0</pdfrwt>
<totfact> 0.86035416E+03</totfact>
</mgrwt>
</event>
<event>
 6    1  0.1295671E-001  0.3000000E+03  0.7818608E-02  0.1093470E+00
         21   -1    0    0  501  502  0.00000000000E+00  0.00000000000E+00  0.28101260235E+01  0.28101260235E+01  0.00000000000E+00 0. -1.
         13   -1    0    0    0    0 -0.00000000000E+00 -0.00000000000E+00 -0.10000000000E+04  0.10000000000E+04  0.00000000000E+00 0.  1.
    9000005    2    1    2  501    0  0.55550961981E+01 -0.51870274460E+02 -0.57767259118E+03  0.58006181434E+03  0.66859096827E+01 0.  0.
         13    1    3    3    0    0  0.43259194763E+01 -0.26577747878E+02 -0.26450517222E+03  0.26587229339E+03  0.00000000000E+00 0.  1.
          3    1    3    3  501    0  0.12291767218E+01 -0.25292526582E+02 -0.31316741896E+03  0.31418952095E+03  0.00000000000E+00 0.  1.
         -3    1    1    2    0  502 -0.55550961981E+01  0.51870274460E+02 -0.41951728280E+03  0.42274831169E+03  0.00000000000E+00 0. -1.
<mgrwt>
<rscale>  1 0.30000000E+03</rscale>
<asrwt>0</asrwt>
<pdfrwt beam="1">  1       21 0.10218662E-01 0.30000000E+03</pdfrwt>
<pdfrwt beam="2">0</pdfrwt>
<totfact> 0.82768143E+03</totfact>
</mgrwt>
</event>
<event>
 6    1  0.1295671E-001  0.3000000E+03  0.7818608E-02  0.1093470E+00
         21   -1    0    0  501  502  0.00000000000E+00  0.00000000000E+00  0.16580846186E+01  0.16580846186E+01  0.00000000000E+00 0. -1.
         13   -1    0    0    0    0 -0.00000000000E+00 -0.00000000000E+00 -0.10000000000E+04  0.10000000000E+04  0.00000000000E+00 0.  1.
    9000005    2    1    2  501    0 -0.40617658475E+02  0.54299835119E+00 -0.47964867388E+03  0.48137665327E+03  0.32469879969E+01 0.  0.
         13    1    3    3    0    0 -0.34297536175E+01  0.42986972481E+00 -0.51570235608E+02  0.51685947786E+02  0.00000000000E+00 0.  1.
          1    1    3    3  501    0 -0.37187904857E+02  0.11312862638E+00 -0.42807843827E+03  0.42969070548E+03  0.00000000000E+00 0.  1.
         -1    1    1    2    0  502  0.40617658475E+02 -0.54299835119E+00 -0.51869324150E+03  0.52028143135E+03  0.00000000000E+00 0. -1.
<mgrwt>
<rscale>  1 0.30000000E+03</rscale>
<asrwt>0</asrwt>
<pdfrwt beam="1">  1       21 0.60294113E-02 0.30000000E+03</pdfrwt>
<pdfrwt beam="2">0</pdfrwt>
<totfact> 0.20894691E+04</totfact>
</mgrwt>
</event>
<event>
 6    1  0.1295671E-001  0.3000000E+03  0.7818608E-02  0.1093470E+00
         21   -1    0    0  501  502  0.00000000000E+00  0.00000000000E+00  0.19293542597E+01  0.19293542597E+01  0.00000000000E+00 0. -1.
         13   -1    0    0    0    0 -0.00000000000E+00 -0.00000000000E+00 -0.10000000000E+04  0.10000000000E+04  0.00000000000E+00 0.  1.
    9000005    2    1    2  501    0 -0.20364479601E+02 -0.26077330308E+02 -0.82810876650E+03  0.82877687931E+03  0.34996204777E+01 0.  0.
         13    1    3    3    0    0 -0.61200646611E+01 -0.59881348715E+01 -0.18912023199E+03  0.18931395907E+03  0.00000000000E+00 0.  1.
          3    1    3    3  501    0 -0.14244414939E+02 -0.20089195437E+02 -0.63898853452E+03  0.63946292025E+03  0.00000000000E+00 0.  1.
         -1    1    1    2    0  502  0.20364479601E+02  0.26077330308E+02 -0.16996187924E+03  0.17315247494E+03  0.00000000000E+00 0. -1.
<mgrwt>
<rscale>  1 0.30000000E+03</rscale>
<asrwt>0</asrwt>
<pdfrwt beam="1">  1       21 0.70158485E-02 0.30000000E+03</pdfrwt>
<pdfrwt beam="2">0</pdfrwt>
<totfact> 0.16071901E+04</totfact>
</mgrwt>
</event>
<event>
 6    1  0.1295671E-001  0.3000000E+03  0.7818608E-02  0.1093470E+00
         21   -1    0    0  501  502  0.00000000000E+00  0.00000000000E+00  0.26675876274E+01  0.26675876274E+01  0.00000000000E+00 0. -1.
         13   -1    0    0    0    0 -0.00000000000E+00 -0.00000000000E+00 -0.10000000000E+04  0.10000000000E+04  0.00000000000E+00 0.  1.
    9000005    2    1    2  501    0 -0.36387865992E+02  0.26524342063E+02 -0.74359436295E+03  0.74496501636E+03  0.35611058429E+01 0.  0.
         13    1    3    3    0    0 -0.90823829724E+01  0.49447840126E+01 -0.16010024755E+03  0.16043387995E+03  0.00000000000E+00 0.  1.
          1    1    3    3  501    0 -0.27305483020E+02  0.21579558051E+02 -0.58349411540E+03  0.58453113642E+03  0.00000000000E+00 0.  1.
         -3    1    1    2    0  502  0.36387865992E+02 -0.26524342063E+02 -0.25373804942E+03  0.25770257126E+03  0.00000000000E+00 0. -1.
<mgrwt>
<rscale>  1 0.30000000E+03</rscale>
<asrwt>0</asrwt>
<pdfrwt beam="1">  1       21 0.97003391E-02 0.30000000E+03</pdfrwt>
<pdfrwt beam="2">0</pdfrwt>
<totfact> 0.90834117E+03</totfact>
</mgrwt>
</event>
<event>
 6    1  0.1295671E-001  0.3000000E+03  0.7818608E-02  0.1093470E+00
         21   -1    0    0  501  502  0.00000000000E+00  0.00000000000E+00  0.12762591019E+01  0.12762591019E+01  0.00000000000E+00 0. -1.
         13   -1    0    0    0    0 -0.00000000000E+00 -0.00000000000E+00 -0.10000000000E+04  0.10000000000E+04  0.00000000000E+00 0.  1.
    9000005    2    1    2  501    0  0.28563985295E+02 -0.10713904313E+02 -0.24273919666E+03  0.24467641762E+03  0.36800466334E+01 0.  0.
         13    1    3    3    0    0  0.12632379150E+02 -0.53801241177E+01 -0.95550199054E+02  0.96531669817E+02  0.00000000000E+00 0.  1.
          3    1    3    3  501    0  0.15931606145E+02 -0.53337801956E+01 -0.14718899760E+03  0.14814474780E+03  0.00000000000E+00 0.  1.
         -1    1    1    2    0  502 -0.28563985295E+02  0.10713904313E+02 -0.75598454424E+03  0.75659984149E+03  0.00000000000E+00 0. -1.
<mgrwt>
<rscale>  1 0.30000000E+03</rscale>
<asrwt>0</asrwt>
<pdfrwt beam="1">  1       21 0.46409520E-02 0.30000000E+03</pdfrwt>
<pdfrwt beam="2">0</pdfrwt>
<totfact> 0.32699585E+04</totfact>
</mgrwt>
</event>
<event>
 6    1  0.1295671E-001  0.3000000E+03  0.7818608E-02  0.1093470E+00
         21   -1    0    0  501  502  0.00000000000E+00  0.00000000000E+00  0.28542433435E+01  0.28542433435E+01  0.00000000000E+00 0. -1.
         13   -1    0    0    0    0 -0.00000000000E+00 -0.00000000000E+00 -0.10000000000E+04  0.10000000000E+04  0.00000000000E+00 0.  1.
    9000005    2    1    2  501    0  0.18592648680E+02 -0.48886948661E+02 -0.59884557459E+03  0.60113462051E+03  0.33450615849E+01 0.  0.
         13    1    3    3    0    0  0.12287335022E+02 -0.29363810574E+02 -0.34960991048E+03  0.35105598055E+03  0.00000000000E+00 0.  1.
          1    1    3    3  501    0  0.63053136576E+01 -0.19523138086E+02 -0.24923566410E+03  0.25007863996E+03  0.00000000000E+00 0.  1.
         -1    1    1    2    0  502 -0.18592648680E+02  0.48886948661E+02 -0.39830018207E+03  0.40171962284E+03  0.00000000000E+00 0. -1.
<mgrwt>
<rscale>  1 0.30000000E+03</rscale>
<asrwt>0</asrwt>
<pdfrwt beam="1">  1       21 0.10379089E-01 0.30000000E+03</pdfrwt>
<pdfrwt beam="2">0</pdfrwt>
<totfact> 0.80491944E+03</totfact>
</mgrwt>
</event>
<event>
 6    1  0.1295671E-001  0.3000000E+03  0.7818608E-02  0.1093470E+00
         21   -1    0    0  501  502  0.00000000000E+00  0.00000000000E+00  0.12492010615E+01  0.12492010615E+01  0.00000000000E+00 0. -1.
         13   -1    0    0    0    0 -0.00000000000E+00 -0.00000000000E+00 -0.10000000000E+04  0.10000000000E+04  0.00000000000E+00 0.  1.
    9000005    2    1    2  501    0 -0.15388885973E+02 -0.30354038891E+02 -0.63078382735E+03  0.63171181774E+03  0.36603748299E+01 0.  0.
         13    1    3    3    0    0 -0.12461212144E+02 -0.24721031311E+02 -0.53724728358E+03  0.53796008673E+03  0.00000000000E+00 0.  1.
          1    1    3    3  501    0 -0.29276738287E+01 -0.56330075794E+01 -0.93536543763E+02  0.93751731011E+02  0.00000000000E+00 0.  1.
         -1    1    1    2    0  502  0.15388885973E+02  0.30354038891E+02 -0.36796697159E+03  0.36953738332E+03  0.00000000000E+00 0. -1.
<mgrwt>
<rscale>  1 0.30000000E+03</rscale>
<asrwt>0</asrwt>
<pdfrwt beam="1">  1       21 0.45425589E-02 0.30000000E+03</pdfrwt>
<pdfrwt beam="2">0</pdfrwt>
<totfact> 0.33911950E+04</totfact>
</mgrwt>
</event>
<event>
 6    1  0.1295671E-001  0.3000000E+03  0.7818608E-02  0.1093470E+00
         21   -1    0    0  501  502  0.00000000000E+00  0.00000000000E+00  0.21235951149E+01  0.21235951149E+01  0.00000000000E+00 0. -1.
         13   -1    0    0    0    0 -0.00000000000E+00 -0.00000000000E+00 -0.10000000000E+04  0.10000000000E+04  0.00000000000E+00 0.  1.
    9000005    2    1    2  501    0  0.30280867082E+02  0.27402396742E+02 -0.72436146721E+03  0.72557659479E+03  0.96972917386E+01 0.  0.
         13    1    3    3    0    0  0.28151744715E+02  0.20858337085E+02 -0.61866895097E+03  0.61966027939E+03  0.00000000000E+00 0.  1.
          3    1    3    3  501    0  0.21291223675E+01  0.65440596564E+01 -0.10569251624E+03  0.10591631540E+03  0.00000000000E+00 0.  1.
         -3    1    1    2    0  502 -0.30280867082E+02 -0.27402396742E+02 -0.27351493767E+03  0.27654700033E+03  0.00000000000E+00 0. -1.
<mgrwt>
<rscale>  1 0.30000000E+03</rscale>
<asrwt>0</asrwt>
<pdfrwt beam="1">  1       21 0.77221803E-02 0.30000000E+03</pdfrwt>
<pdfrwt beam="2">0</pdfrwt>
<totfact> 0.13591220E+04</totfact>
</mgrwt>
</event>
<event>
 6    1  0.1295671E-001  0.3000000E+03  0.7818608E-02  0.1093470E+00
         21   -1    0    0  501  502  0.00000000000E+00  0.00000000000E+00  0.54465400666E+01  0.54465400666E+01  0.00000000000E+00 0. -1.
         13   -1    0    0    0    0 -0.00000000000E+00 -0.00000000000E+00 -0.10000000000E+04  0.10000000000E+04  0.00000000000E+00 0.  1.
    9000005    2    1    2  501    0 -0.37098591301E+00  0.36436126370E+02 -0.93439592247E+03  0.93511405647E+03  0.38509402605E+01 0.  0.
         13    1    3    3    0    0 -0.17470658885E+01  0.13460304748E+02 -0.37071601698E+03  0.37096441513E+03  0.00000000000E+00 0.  1.
          3    1    3    3  501    0  0.13760799755E+01  0.22975821621E+02 -0.56367990549E+03  0.56414964134E+03  0.00000000000E+00 0.  1.
         -1    1    1    2    0  502  0.37098591301E+00 -0.36436126370E+02 -0.60157537461E+02  0.70332483596E+02  0.00000000000E+00 0. -1.
<mgrwt>
<rscale>  1 0.30000000E+03</rscale>
<asrwt>0</asrwt>
<pdfrwt beam="1">  1       21 0.19805642E-01 0.30000000E+03</pdfrwt>
<pdfrwt beam="2">0</pdfrwt>
<totfact> 0.24443352E+03</totfact>
</mgrwt>
</event>
<event>
 6    1  0.1295671E-001  0.3000000E+03  0.7818608E-02  0.1093470E+00
         21   -1    0    0  501  502  0.00000000000E+00  0.00000000000E+00  0.40899315181E+01  0.40899315181E+01  0.00000000000E+00 0. -1.
         13   -1    0    0    0    0 -0.00000000000E+00 -0.00000000000E+00 -0.10000000000E+04  0.10000000000E+04  0.00000000000E+00 0.  1.
    9000005    2    1    2  501    0 -0.23916585574E+02  0.39446743089E+02 -0.84554283543E+03  0.84680562403E+03  0.30049523351E+01 0.  0.
         13    1    3    3    0    0 -0.19977377646E+01  0.25584462090E+01 -0.72882997114E+02  0.72955245675E+02  0.00000000000E+00 0.  1.
          3    1    3    3  501    0 -0.21918847809E+02  0.36888296880E+02 -0.77265983832E+03  0.77385037836E+03  0.00000000000E+00 0.  1.
         -1    1    1    2    0  502  0.23916585574E+02 -0.39446743089E+02 -0.15036723305E+03  0.15728430749E+03  0.00000000000E+00 0. -1.
<mgrwt>
<rscale>  1 0.30000000E+03</rscale>
<asrwt>0</asrwt>
<pdfrwt beam="1">  1       21 0.14872510E-01 0.30000000E+03</pdfrwt>
<pdfrwt beam="2">0</pdfrwt>
<totfact> 0.41835785E+03</totfact>
</mgrwt>
</event>
<event>
 6    1  0.1295671E-001  0.3000000E+03  0.7818608E-02  0.1093470E+00
         21   -1    0    0  501  502  0.00000000000E+00  0.00000000000E+00  0.15896178122E+01  0.15896178122E+01  0.00000000000E+00 0. -1.
         13   -1    0    0    0    0 -0.00000000000E+00 -0.00000000000E+00 -0.10000000000E+04  0.10000000000E+04  0.00000000000E+00 0.  1.
    9000005    2    1    2  501    0  0.33699548235E+02  0.56993723740E+01 -0.75616860706E+03  0.75694861550E+03  0.34787646048E+01 0.  0.
         13    1    3    3    0    0  0.21179288217E+01  0.11961057349E+01 -0.47127290995E+02  0.47190018520E+02  0.00000000000E+00 0.  1.
          1    1    3    3  501    0  0.31581619413E+02  0.45032666390E+01 -0.70904131607E+03  0.70975859698E+03  0.00000000000E+00 0.  1.
         -3    1    1    2    0  502 -0.33699548235E+02 -0.56993723740E+01 -0.24224177512E+03  0.24464100231E+03  0.00000000000E+00 0. -1.
<mgrwt>
<rscale>  1 0.30000000E+03</rscale>
<asrwt>0</asrwt>
<pdfrwt beam="1">  1       21 0.57804406E-02 0.30000000E+03</pdfrwt>
<pdfrwt beam="2">0</pdfrwt>
<totfact> 0.22469891E+04</totfact>
</mgrwt>
</event>
<event>
 6    1  0.1295671E-001  0.3000000E+03  0.7818608E-02  0.1093470E+00
         21   -1    0    0  501  502  0.00000000000E+00  0.00000000000E+00  0.33812969229E+01  0.33812969229E+01  0.00000000000E+00 0. -1.
         13   -1    0    0    0    0 -0.00000000000E+00 -0.00000000000E+00 -0.10000000000E+04  0.10000000000E+04  0.00000000000E+00 0.  1.
    9000005    2    1    2  501    0 -0.55236774949E+02  0.16937579207E+02 -0.55086663782E+03  0.55390061149E+03  0.37218073209E+01 0.  0.
         13    1    3    3    0    0 -0.40358553719E+02  0.12761600441E+02 -0.38767063185E+03  0.38997460187E+03  0.00000000000E+00 0.  1.
          1    1    3    3  501    0 -0.14878221230E+02  0.41759787662E+01 -0.16319600597E+03  0.16392600962E+03  0.00000000000E+00 0.  1.
         -3    1    1    2    0  502  0.55236774949E+02 -0.16937579207E+02 -0.44575206525E+03  0.44948068543E+03  0.00000000000E+00 0. -1.
<mgrwt>
<rscale>  1 0.30000000E+03</rscale>
<asrwt>0</asrwt>
<pdfrwt beam="1">  1       21 0.12295651E-01 0.30000000E+03</pdfrwt>
<pdfrwt beam="2">0</pdfrwt>
<totfact> 0.59289606E+03</totfact>
</mgrwt>
</event>
<event>
 6    1  0.1295671E-001  0.3000000E+03  0.7818608E-02  0.1093470E+00
         21   -1    0    0  501  502  0.00000000000E+00  0.00000000000E+00  0.34203321964E+01  0.34203321964E+01  0.00000000000E+00 0. -1.
         13   -1    0    0    0    0 -0.00000000000E+00 -0.00000000000E+00 -0.10000000000E+04  0.10000000000E+04  0.00000000000E+00 0.  1.
    9000005    2    1    2  501    0 -0.36636477196E+02 -0.21337522011E+02 -0.84370172963E+03  0.84477234044E+03  0.31901867486E+01 0.  0.
         13    1    3    3    0    0 -0.31713358770E+02 -0.18705565657E+02 -0.75204933730E+03  0.75295009200E+03  0.00000000000E+00 0.  1.
          3    1    3    3  501    0 -0.49231184259E+01 -0.26319563543E+01 -0.91652392328E+02  0.91822248441E+02  0.00000000000E+00 0.  1.
         -1    1    1    2    0  502  0.36636477196E+02  0.21337522011E+02 -0.15287793817E+03  0.15864799175E+03  0.00000000000E+00 0. -1.
<mgrwt>
<rscale>  1 0.30000000E+03</rscale>
<asrwt>0</asrwt>
<pdfrwt beam="1">  1       21 0.12437598E-01 0.30000000E+03</pdfrwt>
<pdfrwt beam="2">0</pdfrwt>
<totfact> 0.58063730E+03</totfact>
</mgrwt>
</event>
<event>
 6    1  0.1295671E-001  0.3000000E+03  0.7818608E-02  0.1093470E+00
         21   -1    0    0  501  502  0.00000000000E+00  0.00000000000E+00  0.75732090937E+01  0.75732090937E+01  0.00000000000E+00 0. -1.
         13   -1    0    0    0    0 -0.00000000000E+00 -0.00000000000E+00 -0.10000000000E+04  0.10000000000E+04  0.00000000000E+00 0.  1.
    9000005    2    1    2  501    0  0.49393370780E+02  0.17531695940E+02 -0.89832565885E+03  0.89986021780E+03  0.35152222357E+01 0.  0.
         13    1    3    3    0    0  0.11585926153E+02  0.56323369861E+01 -0.21219467864E+03  0.21258536768E+03  0.00000000000E+00 0.  1.
          3    1    3    3  501    0  0.37807444628E+02  0.11899358954E+02 -0.68613098021E+03  0.68727485012E+03  0.00000000000E+00 0.  1.
         -3    1    1    2    0  502 -0.49393370780E+02 -0.17531695940E+02 -0.94101132055E+02  0.10771299129E+03  0.00000000000E+00 0. -1.
<mgrwt>
<rscale>  1 0.30000000E+03</rscale>
<asrwt>0</asrwt>
<pdfrwt beam="1">  1       21 0.27539000E-01 0.30000000E+03</pdfrwt>
<pdfrwt beam="2">0</pdfrwt>
<totfact> 0.12891033E+03</totfact>
</mgrwt>
</event>
<event>
 6    1  0.1295671E-001  0.3000000E+03  0.7818608E-02  0.1093470E+00
         21   -1    0    0  501  502  0.00000000000E+00  0.00000000000E+00  0.41735049832E+01  0.41735049832E+01  0.00000000000E+00 0. -1.
         13   -1    0    0    0    0 -0.00000000000E+00 -0.00000000000E+00 -0.10000000000E+04  0.10000000000E+04  0.00000000000E+00 0.  1.
    9000005    2    1    2  501    0  0.31192377146E+02  0.35842756518E+02 -0.83795711320E+03  0.83930868369E+03  0.30455472040E+01 0.  0.
         13    1    3    3    0    0  0.26678430384E+02  0.30941457371E+02 -0.73764444210E+03  0.73877495585E+03  0.00000000000E+00 0.  1.
          1    1    3    3  501    0  0.45139467620E+01  0.49012991468E+01 -0.10031267110E+03  0.10053372784E+03  0.00000000000E+00 0.  1.
         -3    1    1    2    0  502 -0.31192377146E+02 -0.35842756518E+02 -0.15786938181E+03  0.16486482130E+03  0.00000000000E+00 0. -1.
<mgrwt>
<rscale>  1 0.30000000E+03</rscale>
<asrwt>0</asrwt>
<pdfrwt beam="1">  1       21 0.15176414E-01 0.30000000E+03</pdfrwt>
<pdfrwt beam="2">0</pdfrwt>
<totfact> 0.40298125E+03</totfact>
</mgrwt>
</event>
<event>
 6    1  0.1295671E-001  0.3000000E+03  0.7818608E-02  0.1093470E+00
         21   -1    0    0  501  502  0.00000000000E+00  0.00000000000E+00  0.15949140558E+01  0.15949140558E+01  0.00000000000E+00 0. -1.
         13   -1    0    0    0    0 -0.00000000000E+00 -0.00000000000E+00 -0.10000000000E+04  0.10000000000E+04  0.00000000000E+00 0.  1.
    9000005    2    1    2  501    0 -0.34676030364E+02  0.16318077885E+02 -0.36397957507E+03  0.36601294799E+03  0.39547788954E+01 0.  0.
         13    1    3    3    0    0 -0.10197747880E+02  0.29779338222E+01 -0.94507667027E+02  0.95102898371E+02  0.00000000000E+00 0.  1.
          1    1    3    3  501    0 -0.24478282484E+02  0.13340144063E+02 -0.26947190804E+03  0.27091004961E+03  0.00000000000E+00 0.  1.
         -1    1    1    2    0  502  0.34676030364E+02 -0.16318077885E+02 -0.63442551087E+03  0.63558196607E+03  0.00000000000E+00 0. -1.
<mgrwt>
<rscale>  1 0.30000000E+03</rscale>
<asrwt>0</asrwt>
<pdfrwt beam="1">  1       21 0.57996997E-02 0.30000000E+03</pdfrwt>
<pdfrwt beam="2">0</pdfrwt>
<totfact> 0.22341565E+04</totfact>
</mgrwt>
</event>
<event>
 6    1  0.1295671E-001  0.3000000E+03  0.7818608E-02  0.1093470E+00
         21   -1    0    0  501  502  0.00000000000E+00  0.00000000000E+00  0.19488161717E+01  0.19488161717E+01  0.00000000000E+00 0. -1.
         13   -1    0    0    0    0 -0.00000000000E+00 -0.00000000000E+00 -0.10000000000E+04  0.10000000000E+04  0.00000000000E+00 0.  1.
    9000005    2    1    2  501    0  0.64040492452E+01 -0.41462556506E+02 -0.65343651612E+03  0.65478973932E+03  0.31885239353E+01 0.  0.
         13    1    3    3    0    0  0.79770219675E+00 -0.62627746339E+01 -0.82012448469E+02  0.82255093330E+02  0.00000000000E+00 0.  1.
          3    1    3    3  501    0  0.56063470484E+01 -0.35199781872E+02 -0.57142406765E+03  0.57253464599E+03  0.00000000000E+00 0.  1.
         -1    1    1    2    0  502 -0.64040492452E+01  0.41462556506E+02 -0.34461466771E+03  0.34715907685E+03  0.00000000000E+00 0. -1.
<mgrwt>
<rscale>  1 0.30000000E+03</rscale>
<asrwt>0</asrwt>
<pdfrwt beam="1">  1       21 0.70866192E-02 0.30000000E+03</pdfrwt>
<pdfrwt beam="2">0</pdfrwt>
<totfact> 0.15793441E+04</totfact>
</mgrwt>
</event>
<event>
 6    1  0.1295671E-001  0.3000000E+03  0.7818608E-02  0.1093470E+00
         21   -1    0    0  501  502  0.00000000000E+00  0.00000000000E+00  0.58840048647E+01  0.58840048647E+01  0.00000000000E+00 0. -1.
         13   -1    0    0    0    0 -0.00000000000E+00 -0.00000000000E+00 -0.10000000000E+04  0.10000000000E+04  0.00000000000E+00 0.  1.
    9000005    2    1    2  501    0 -0.59582256272E+02 -0.43295686169E+02 -0.63724659315E+03  0.64149364855E+03  0.25137507468E+01 0.  0.
         13    1    3    3    0    0 -0.49142386635E+02 -0.35104832357E+02 -0.51502364064E+03  0.51855247935E+03  0.00000000000E+00 0.  1.
          1    1    3    3  501    0 -0.10439869637E+02 -0.81908538127E+01 -0.12222295251E+03  0.12294116920E+03  0.00000000000E+00 0.  1.
         -3    1    1    2    0  502  0.59582256272E+02  0.43295686169E+02 -0.35686940198E+03  0.36439035632E+03  0.00000000000E+00 0. -1.
<mgrwt>
<rscale>  1 0.30000000E+03</rscale>
<asrwt>0</asrwt>
<pdfrwt beam="1">  1       21 0.21396426E-01 0.30000000E+03</pdfrwt>
<pdfrwt beam="2">0</pdfrwt>
<totfact> 0.21084028E+03</totfact>
</mgrwt>
</event>
<event>
 6    1  0.1295671E-001  0.3000000E+03  0.7818608E-02  0.1093470E+00
         21   -1    0    0  501  502  0.00000000000E+00  0.00000000000E+00  0.18760932892E+01  0.18760932892E+01  0.00000000000E+00 0. -1.
         13   -1    0    0    0    0 -0.00000000000E+00 -0.00000000000E+00 -0.10000000000E+04  0.10000000000E+04  0.00000000000E+00 0.  1.
    9000005    2    1    2  501    0  0.14052704368E+02 -0.40802805192E+02 -0.53384075634E+03  0.53559164027E+03  0.31787706874E+01 0.  0.
         13    1    3    3    0    0  0.66784609341E+01 -0.18836278270E+02 -0.22782843361E+03  0.22870330645E+03  0.00000000000E+00 0.  1.
          1    1    3    3  501    0  0.73742434337E+01 -0.21966526922E+02 -0.30601232273E+03  0.30688833382E+03  0.00000000000E+00 0.  1.
         -3    1    1    2    0  502 -0.14052704368E+02  0.40802805192E+02 -0.46428315037E+03  0.46628445302E+03  0.00000000000E+00 0. -1.
<mgrwt>
<rscale>  1 0.30000000E+03</rscale>
<asrwt>0</asrwt>
<pdfrwt beam="1">  1       21 0.68221718E-02 0.30000000E+03</pdfrwt>
<pdfrwt beam="2">0</pdfrwt>
<totfact> 0.16873533E+04</totfact>
</mgrwt>
</event>
<event>
 6    1  0.1295671E-001  0.3000000E+03  0.7818608E-02  0.1093470E+00
         21   -1    0    0  501  502  0.00000000000E+00  0.00000000000E+00  0.16974617364E+01  0.16974617364E+01  0.00000000000E+00 0. -1.
         13   -1    0    0    0    0 -0.00000000000E+00 -0.00000000000E+00 -0.10000000000E+04  0.10000000000E+04  0.00000000000E+00 0.  1.
    9000005    2    1    2  501    0 -0.22808693703E+02 -0.22873515419E+02 -0.80952082158E+03  0.81017208282E+03  0.33777195071E+01 0.  0.
         13    1    3    3    0    0 -0.49899306265E+01 -0.71172936887E+01 -0.21804333880E+03  0.21821652749E+03  0.00000000000E+00 0.  1.
          3    1    3    3  501    0 -0.17818763076E+02 -0.15756221730E+02 -0.59147748279E+03  0.59195555533E+03  0.00000000000E+00 0.  1.
         -3    1    1    2    0  502  0.22808693703E+02  0.22873515419E+02 -0.18878171668E+03  0.19152537891E+03  0.00000000000E+00 0. -1.
<mgrwt>
<rscale>  1 0.30000000E+03</rscale>
<asrwt>0</asrwt>
<pdfrwt beam="1">  1       21 0.61726011E-02 0.30000000E+03</pdfrwt>
<pdfrwt beam="2">0</pdfrwt>
<totfact> 0.20065222E+04</totfact>
</mgrwt>
</event>
<event>
 6    1  0.1295671E-001  0.3000000E+03  0.7818608E-02  0.1093470E+00
         21   -1    0    0  501  502  0.00000000000E+00  0.00000000000E+00  0.26244610702E+01  0.26244610702E+01  0.00000000000E+00 0. -1.
         13   -1    0    0    0    0 -0.00000000000E+00 -0.00000000000E+00 -0.10000000000E+04  0.10000000000E+04  0.00000000000E+00 0.  1.
    9000005    2    1    2  501    0 -0.28120913085E+02 -0.29774214213E+02 -0.79953474308E+03  0.80058914216E+03  0.31431778954E+01 0.  0.
         13    1    3    3    0    0 -0.12836971048E+02 -0.15871401990E+02 -0.40007616517E+03  0.40059658905E+03  0.00000000000E+00 0.  1.
          1    1    3    3  501    0 -0.15283942037E+02 -0.13902812223E+02 -0.39945857791E+03  0.39999255310E+03  0.00000000000E+00 0.  1.
         -3    1    1    2    0  502  0.28120913085E+02  0.29774214213E+02 -0.19784079585E+03  0.20203531891E+03  0.00000000000E+00 0. -1.
<mgrwt>
<rscale>  1 0.30000000E+03</rscale>
<asrwt>0</asrwt>
<pdfrwt beam="1">  1       21 0.95435149E-02 0.30000000E+03</pdfrwt>
<pdfrwt beam="2">0</pdfrwt>
<totfact> 0.93512656E+03</totfact>
</mgrwt>
</event>
<event>
 6    1  0.1295671E-001  0.3000000E+03  0.7818608E-02  0.1093470E+00
         21   -1    0    0  501  502  0.00000000000E+00  0.00000000000E+00  0.26172880824E+01  0.26172880824E+01  0.00000000000E+00 0. -1.
         13   -1    0    0    0    0 -0.00000000000E+00 -0.00000000000E+00 -0.10000000000E+04  0.10000000000E+04  0.00000000000E+00 0.  1.
    9000005    2    1    2  501    0  0.23839656425E+02  0.35591566998E+02 -0.77234723805E+03  0.77354076515E+03  0.31575886780E+01 0.  0.
         13    1    3    3    0    0  0.19373325208E+02  0.29752634075E+02 -0.65849025952E+03  0.65944671266E+03  0.00000000000E+00 0.  1.
          1    1    3    3  501    0  0.44663312166E+01  0.58389329226E+01 -0.11385697853E+03  0.11409405249E+03  0.00000000000E+00 0.  1.
         -1    1    1    2    0  502 -0.23839656425E+02 -0.35591566998E+02 -0.22503547387E+03  0.22907652293E+03  0.00000000000E+00 0. -1.
<mgrwt>
<rscale>  1 0.30000000E+03</rscale>
<asrwt>0</asrwt>
<pdfrwt beam="1">  1       21 0.95174313E-02 0.30000000E+03</pdfrwt>
<pdfrwt beam="2">0</pdfrwt>
<totfact> 0.93969840E+03</totfact>
</mgrwt>
</event>
<event>
 6    1  0.1295671E-001  0.3000000E+03  0.7818608E-02  0.1093470E+00
         21   -1    0    0  501  502  0.00000000000E+00  0.00000000000E+00  0.51829578039E+01  0.51829578039E+01  0.00000000000E+00 0. -1.
         13   -1    0    0    0    0 -0.00000000000E+00 -0.00000000000E+00 -0.10000000000E+04  0.10000000000E+04  0.00000000000E+00 0.  1.
    9000005    2    1    2  501    0 -0.22839845877E+02 -0.52426275680E+02 -0.80255075726E+03  0.80459258599E+03  0.33672703955E+01 0.  0.
         13    1    3    3    0    0 -0.54182487176E+01 -0.11712967789E+02 -0.16247079910E+03  0.16298254996E+03  0.00000000000E+00 0.  1.
          1    1    3    3  501    0 -0.17421597159E+02 -0.40713307891E+02 -0.64007995816E+03  0.64161003602E+03  0.00000000000E+00 0.  1.
         -3    1    1    2    0  502  0.22839845877E+02  0.52426275680E+02 -0.19226628494E+03  0.20059037182E+03  0.00000000000E+00 0. -1.
<mgrwt>
<rscale>  1 0.30000000E+03</rscale>
<asrwt>0</asrwt>
<pdfrwt beam="1">  1       21 0.18847159E-01 0.30000000E+03</pdfrwt>
<pdfrwt beam="2">0</pdfrwt>
<totfact> 0.26858722E+03</totfact>
</mgrwt>
</event>
<event>
 6    1  0.1295671E-001  0.3000000E+03  0.7818608E-02  0.1093470E+00
         21   -1    0    0  501  502  0.00000000000E+00  0.00000000000E+00  0.85547491260E+01  0.85547491260E+01  0.00000000000E+00 0. -1.
         13   -1    0    0    0    0 -0.00000000000E+00 -0.00000000000E+00 -0.10000000000E+04  0.10000000000E+04  0.00000000000E+00 0.  1.
    9000005    2    1    2  501    0  0.48147648300E+02 -0.56819763251E+02 -0.79451942558E+03  0.79801624386E+03  0.47038605958E+01 0.  0.
         13    1    3    3    0    0  0.12510132882E+02 -0.17131909858E+02 -0.24211291148E+03  0.24304046507E+03  0.00000000000E+00 0.  1.
          1    1    3    3  501    0  0.35637515418E+02 -0.39687853392E+02 -0.55240651411E+03  0.55497577879E+03  0.00000000000E+00 0.  1.
         -1    1    1    2    0  502 -0.48147648300E+02  0.56819763251E+02 -0.19692582529E+03  0.21053850526E+03  0.00000000000E+00 0. -1.
<mgrwt>
<rscale>  1 0.30000000E+03</rscale>
<asrwt>0</asrwt>
<pdfrwt beam="1">  1       21 0.31108244E-01 0.30000000E+03</pdfrwt>
<pdfrwt beam="2">0</pdfrwt>
<totfact> 0.10109724E+03</totfact>
</mgrwt>
</event>
<event>
 6    1  0.1295671E-001  0.3000000E+03  0.7818608E-02  0.1093470E+00
         21   -1    0    0  501  502  0.00000000000E+00  0.00000000000E+00  0.11220724520E+01  0.11220724520E+01  0.00000000000E+00 0. -1.
         13   -1    0    0    0    0 -0.00000000000E+00 -0.00000000000E+00 -0.10000000000E+04  0.10000000000E+04  0.00000000000E+00 0.  1.
    9000005    2    1    2  501    0  0.11472089596E+02 -0.30892137145E+02 -0.58275010871E+03  0.58369148590E+03  0.34826046690E+01 0.  0.
         13    1    3    3    0    0  0.10671621946E+02 -0.26847722945E+02 -0.52505764179E+03  0.52585189070E+03  0.00000000000E+00 0.  1.
          3    1    3    3  501    0  0.80046764949E+00 -0.40444141995E+01 -0.57692466914E+02  0.57839595203E+02  0.00000000000E+00 0.  1.
         -3    1    1    2    0  502 -0.11472089596E+02  0.30892137145E+02 -0.41612781884E+03  0.41743058655E+03  0.00000000000E+00 0. -1.
<mgrwt>
<rscale>  1 0.30000000E+03</rscale>
<asrwt>0</asrwt>
<pdfrwt beam="1">  1       21 0.40802721E-02 0.30000000E+03</pdfrwt>
<pdfrwt beam="2">0</pdfrwt>
<totfact> 0.40662973E+04</totfact>
</mgrwt>
</event>
<event>
 6    1  0.1295671E-001  0.3000000E+03  0.7818608E-02  0.1093470E+00
         21   -1    0    0  501  502  0.00000000000E+00  0.00000000000E+00  0.48918289378E+01  0.48918289378E+01  0.00000000000E+00 0. -1.
         13   -1    0    0    0    0 -0.00000000000E+00 -0.00000000000E+00 -0.10000000000E+04  0.10000000000E+04  0.00000000000E+00 0.  1.
    9000005    2    1    2  501    0 -0.65484161486E+02  0.24478458367E+02 -0.49405793621E+03  0.49898797624E+03  0.28958193671E+01 0.  0.
         13    1    3    3    0    0 -0.67440354356E+00  0.57693657611E+00 -0.56044134183E+01  0.56742511150E+01  0.00000000000E+00 0.  1.
          3    1    3    3  501    0 -0.64809757943E+02  0.23901521791E+02 -0.48845352279E+03  0.49331372512E+03  0.00000000000E+00 0.  1.
         -1    1    1    2    0  502  0.65484161486E+02 -0.24478458367E+02 -0.50105023486E+03  0.50590385270E+03  0.00000000000E+00 0. -1.
<mgrwt>
<rscale>  1 0.30000000E+03</rscale>
<asrwt>0</asrwt>
<pdfrwt beam="1">  1       21 0.17788506E-01 0.30000000E+03</pdfrwt>
<pdfrwt beam="2">0</pdfrwt>
<totfact> 0.29954550E+03</totfact>
</mgrwt>
</event>
<event>
 6    1  0.1295671E-001  0.3000000E+03  0.7818608E-02  0.1093470E+00
         21   -1    0    0  501  502  0.00000000000E+00  0.00000000000E+00  0.11968539735E+01  0.11968539735E+01  0.00000000000E+00 0. -1.
         13   -1    0    0    0    0 -0.00000000000E+00 -0.00000000000E+00 -0.10000000000E+04  0.10000000000E+04  0.00000000000E+00 0.  1.
    9000005    2    1    2  501    0 -0.26581491614E+02  0.14584560494E+02 -0.73529676501E+03  0.73595187676E+03  0.66743665858E+01 0.  0.
         13    1    3    3    0    0 -0.19105021209E+02  0.13653651308E+02 -0.56998258858E+03  0.57046610357E+03  0.00000000000E+00 0.  1.
          1    1    3    3  501    0 -0.74764704048E+01  0.93090918646E+00 -0.16531417642E+03  0.16548577319E+03  0.00000000000E+00 0.  1.
         -1    1    1    2    0  502  0.26581491614E+02 -0.14584560494E+02 -0.26350638102E+03  0.26524497722E+03  0.00000000000E+00 0. -1.
<mgrwt>
<rscale>  1 0.30000000E+03</rscale>
<asrwt>0</asrwt>
<pdfrwt beam="1">  1       21 0.43522054E-02 0.30000000E+03</pdfrwt>
<pdfrwt beam="2">0</pdfrwt>
<totfact> 0.36464576E+04</totfact>
</mgrwt>
</event>
<event>
 6    1  0.1295671E-001  0.3000000E+03  0.7818608E-02  0.1093470E+00
         21   -1    0    0  501  502  0.00000000000E+00  0.00000000000E+00  0.33974524913E+01  0.33974524913E+01  0.00000000000E+00 0. -1.
         13   -1    0    0    0    0 -0.00000000000E+00 -0.00000000000E+00 -0.10000000000E+04  0.10000000000E+04  0.00000000000E+00 0.  1.
    9000005    2    1    2  501    0  0.25553962204E+02  0.21239632266E+02 -0.91039915160E+03  0.91101156380E+03  0.33655875146E+01 0.  0.
         13    1    3    3    0    0  0.18409750587E+02  0.13535675542E+02 -0.60213781796E+03  0.60257122836E+03  0.00000000000E+00 0.  1.
          3    1    3    3  501    0  0.71442116171E+01  0.77039567237E+01 -0.30826133364E+03  0.30844033544E+03  0.00000000000E+00 0.  1.
         -3    1    1    2    0  502 -0.25553962204E+02 -0.21239632266E+02 -0.86203395906E+02  0.92385888689E+02  0.00000000000E+00 0. -1.
<mgrwt>
<rscale>  1 0.30000000E+03</rscale>
<asrwt>0</asrwt>
<pdfrwt beam="1">  1       21 0.12354399E-01 0.30000000E+03</pdfrwt>
<pdfrwt beam="2">0</pdfrwt>
<totfact> 0.58777534E+03</totfact>
</mgrwt>
</event>
<event>
 6    1  0.1295671E-001  0.3000000E+03  0.7818608E-02  0.1093470E+00
         21   -1    0    0  501  502  0.00000000000E+00  0.00000000000E+00  0.16808547962E+01  0.16808547962E+01  0.00000000000E+00 0. -1.
         13   -1    0    0    0    0 -0.00000000000E+00 -0.00000000000E+00 -0.10000000000E+04  0.10000000000E+04  0.00000000000E+00 0.  1.
    9000005    2    1    2  501    0 -0.13238060453E+02 -0.35374384287E+02 -0.69247792675E+03  0.69351621664E+03  0.35313440074E+01 0.  0.
         13    1    3    3    0    0 -0.67577290276E+01 -0.19129135161E+02 -0.34021633844E+03  0.34082069722E+03  0.00000000000E+00 0.  1.
          3    1    3    3  501    0 -0.64803314250E+01 -0.16245249125E+02 -0.35226158831E+03  0.35269551941E+03  0.00000000000E+00 0.  1.
         -1    1    1    2    0  502  0.13238060453E+02  0.35374384287E+02 -0.30584121845E+03  0.30816463816E+03  0.00000000000E+00 0. -1.
<mgrwt>
<rscale>  1 0.30000000E+03</rscale>
<asrwt>0</asrwt>
<pdfrwt beam="1">  1       21 0.61122121E-02 0.30000000E+03</pdfrwt>
<pdfrwt beam="2">0</pdfrwt>
<totfact> 0.20408690E+04</totfact>
</mgrwt>
</event>
<event>
 6    1  0.1295671E-001  0.3000000E+03  0.7818608E-02  0.1093470E+00
         21   -1    0    0  501  502  0.00000000000E+00  0.00000000000E+00  0.11419445772E+01  0.11419445772E+01  0.00000000000E+00 0. -1.
         13   -1    0    0    0    0 -0.00000000000E+00 -0.00000000000E+00 -0.10000000000E+04  0.10000000000E+04  0.00000000000E+00 0.  1.
    9000005    2    1    2  501    0  0.21022603498E+01 -0.33626043545E+02 -0.51310634712E+03  0.51422321171E+03  0.35010995571E+01 0.  0.
         13    1    3    3    0    0  0.13505439857E+01 -0.67281283104E+01 -0.12128417740E+03  0.12147816004E+03  0.00000000000E+00 0.  1.
          3    1    3    3  501    0  0.75171636413E+00 -0.26897915234E+02 -0.39182216973E+03  0.39274505167E+03  0.00000000000E+00 0.  1.
         -3    1    1    2    0  502 -0.21022603498E+01  0.33626043545E+02 -0.48575170830E+03  0.48691873287E+03  0.00000000000E+00 0. -1.
<mgrwt>
<rscale>  1 0.30000000E+03</rscale>
<asrwt>0</asrwt>
<pdfrwt beam="1">  1       21 0.41525345E-02 0.30000000E+03</pdfrwt>
<pdfrwt beam="2">0</pdfrwt>
<totfact> 0.39476631E+04</totfact>
</mgrwt>
</event>
<event>
 6    1  0.1295671E-001  0.3000000E+03  0.7818608E-02  0.1093470E+00
         21   -1    0    0  501  502  0.00000000000E+00  0.00000000000E+00  0.18276579066E+01  0.18276579066E+01  0.00000000000E+00 0. -1.
         13   -1    0    0    0    0 -0.00000000000E+00 -0.00000000000E+00 -0.10000000000E+04  0.10000000000E+04  0.00000000000E+00 0.  1.
    9000005    2    1    2  501    0  0.32057399750E+02  0.19436186799E+02 -0.73045495749E+03  0.73149815479E+03  0.10939072374E+02 0.  0.
         13    1    3    3    0    0  0.13132782595E+02  0.21767426467E+01 -0.27859590042E+03  0.27891375713E+03  0.00000000000E+00 0.  1.
          3    1    3    3  501    0  0.18924617154E+02  0.17259444153E+02 -0.45185905707E+03  0.45258439766E+03  0.00000000000E+00 0.  1.
         -3    1    1    2    0  502 -0.32057399750E+02 -0.19436186799E+02 -0.26771738460E+03  0.27032950312E+03  0.00000000000E+00 0. -1.
<mgrwt>
<rscale>  1 0.30000000E+03</rscale>
<asrwt>0</asrwt>
<pdfrwt beam="1">  1       21 0.66460428E-02 0.30000000E+03</pdfrwt>
<pdfrwt beam="2">0</pdfrwt>
<totfact> 0.17657056E+04</totfact>
</mgrwt>
</event>
<event>
 6    1  0.1295671E-001  0.3000000E+03  0.7818608E-02  0.1093470E+00
         21   -1    0    0  501  502  0.00000000000E+00  0.00000000000E+00  0.50961870415E+01  0.50961870415E+01  0.00000000000E+00 0. -1.
         13   -1    0    0    0    0 -0.00000000000E+00 -0.00000000000E+00 -0.10000000000E+04  0.10000000000E+04  0.00000000000E+00 0.  1.
    9000005    2    1    2  501    0  0.14297942095E+02 -0.49438373183E+02 -0.84562020662E+03  0.84719058546E+03  0.31257555019E+01 0.  0.
         13    1    3    3    0    0  0.53359867284E+01 -0.13405955723E+02 -0.23758597443E+03  0.23802371237E+03  0.00000000000E+00 0.  1.
          1    1    3    3  501    0  0.89619553669E+01 -0.36032417459E+02 -0.60803423219E+03  0.60916687309E+03  0.00000000000E+00 0.  1.
         -1    1    1    2    0  502 -0.14297942095E+02  0.49438373183E+02 -0.14928360634E+03  0.15790560159E+03  0.00000000000E+00 0. -1.
<mgrwt>
<rscale>  1 0.30000000E+03</rscale>
<asrwt>0</asrwt>
<pdfrwt beam="1">  1       21 0.18531628E-01 0.30000000E+03</pdfrwt>
<pdfrwt beam="2">0</pdfrwt>
<totfact> 0.27730295E+03</totfact>
</mgrwt>
</event>
<event>
 6    1  0.1295671E-001  0.3000000E+03  0.7818608E-02  0.1093470E+00
         21   -1    0    0  501  502  0.00000000000E+00  0.00000000000E+00  0.12251928445E+01  0.12251928445E+01  0.00000000000E+00 0. -1.
         13   -1    0    0    0    0 -0.00000000000E+00 -0.00000000000E+00 -0.10000000000E+04  0.10000000000E+04  0.00000000000E+00 0.  1.
    9000005    2    1    2  501    0 -0.18346264988E+02  0.29036209382E+02 -0.59080364495E+03  0.59181078654E+03  0.33724309561E+01 0.  0.
         13    1    3    3    0    0 -0.12703625554E+02  0.19910938236E+02 -0.37843929323E+03  0.37917558759E+03  0.00000000000E+00 0.  1.
          3    1    3    3  501    0 -0.56426394346E+01  0.91252711458E+01 -0.21236435172E+03  0.21263519896E+03  0.00000000000E+00 0.  1.
         -3    1    1    2    0  502  0.18346264988E+02 -0.29036209382E+02 -0.40797116221E+03  0.40941440630E+03  0.00000000000E+00 0. -1.
<mgrwt>
<rscale>  1 0.30000000E+03</rscale>
<asrwt>0</asrwt>
<pdfrwt beam="1">  1       21 0.44552561E-02 0.30000000E+03</pdfrwt>
<pdfrwt beam="2">0</pdfrwt>
<totfact> 0.35047239E+04</totfact>
</mgrwt>
</event>
<event>
 6    1  0.1295671E-001  0.3000000E+03  0.7818608E-02  0.1093470E+00
         21   -1    0    0  501  502  0.00000000000E+00  0.00000000000E+00  0.27853977361E+01  0.27853977361E+01  0.00000000000E+00 0. -1.
         13   -1    0    0    0    0 -0.00000000000E+00 -0.00000000000E+00 -0.10000000000E+04  0.10000000000E+04  0.00000000000E+00 0.  1.
    9000005    2    1    2  501    0 -0.46268417397E+02 -0.23946536586E+02 -0.42181413380E+03  0.42503120938E+03  0.31878526520E+01 0.  0.
         13    1    3    3    0    0 -0.18478943124E+02 -0.11179682418E+02 -0.17980374407E+03  0.18109622585E+03  0.00000000000E+00 0.  1.
          1    1    3    3  501    0 -0.27789474273E+02 -0.12766854169E+02 -0.24201038974E+03  0.24393498352E+03  0.00000000000E+00 0.  1.
         -1    1    1    2    0  502  0.46268417397E+02  0.23946536586E+02 -0.57540046846E+03  0.57775418836E+03  0.00000000000E+00 0. -1.
<mgrwt>
<rscale>  1 0.30000000E+03</rscale>
<asrwt>0</asrwt>
<pdfrwt beam="1">  1       21 0.10128740E-01 0.30000000E+03</pdfrwt>
<pdfrwt beam="2">0</pdfrwt>
<totfact> 0.84087104E+03</totfact>
</mgrwt>
</event>
<event>
 6    1  0.1295671E-001  0.3000000E+03  0.7818608E-02  0.1093470E+00
         21   -1    0    0  501  502  0.00000000000E+00  0.00000000000E+00  0.42150326602E+01  0.42150326602E+01  0.00000000000E+00 0. -1.
         13   -1    0    0    0    0 -0.00000000000E+00 -0.00000000000E+00 -0.10000000000E+04  0.10000000000E+04  0.00000000000E+00 0.  1.
    9000005    2    1    2  501    0  0.42894482555E+02  0.48469286100E+02 -0.53204862092E+03  0.53598367178E+03  0.36814472867E+01 0.  0.
         13    1    3    3    0    0  0.26395516115E+02  0.30279560460E+02 -0.31542591027E+03  0.31797339499E+03  0.00000000000E+00 0.  1.
          3    1    3    3  501    0  0.16498966440E+02  0.18189725640E+02 -0.21662271065E+03  0.21801027678E+03  0.00000000000E+00 0.  1.
         -3    1    1    2    0  502 -0.42894482555E+02 -0.48469286100E+02 -0.46373634642E+03  0.46823136088E+03  0.00000000000E+00 0. -1.
<mgrwt>
<rscale>  1 0.30000000E+03</rscale>
<asrwt>0</asrwt>
<pdfrwt beam="1">  1       21 0.15327424E-01 0.30000000E+03</pdfrwt>
<pdfrwt beam="2">0</pdfrwt>
<totfact> 0.39564862E+03</totfact>
</mgrwt>
</event>
<event>
 6    1  0.1295671E-001  0.3000000E+03  0.7818608E-02  0.1093470E+00
         21   -1    0    0  501  502  0.00000000000E+00  0.00000000000E+00  0.15608387804E+01  0.15608387804E+01  0.00000000000E+00 0. -1.
         13   -1    0    0    0    0 -0.00000000000E+00 -0.00000000000E+00 -0.10000000000E+04  0.10000000000E+04  0.00000000000E+00 0.  1.
    9000005    2    1    2  501    0  0.36607420265E+02 -0.10940723708E+02 -0.62365621363E+03  0.62483539438E+03  0.35205992094E+01 0.  0.
         13    1    3    3    0    0  0.14362701787E+01 -0.84868346285E+00 -0.19015741958E+02  0.19088781466E+02  0.00000000000E+00 0.  1.
          1    1    3    3  501    0  0.35171150086E+02 -0.10092040245E+02 -0.60464047167E+03  0.60574661291E+03  0.00000000000E+00 0.  1.
         -3    1    1    2    0  502 -0.36607420265E+02  0.10940723708E+02 -0.37478294759E+03  0.37672544440E+03  0.00000000000E+00 0. -1.
<mgrwt>
<rscale>  1 0.30000000E+03</rscale>
<asrwt>0</asrwt>
<pdfrwt beam="1">  1       21 0.56757894E-02 0.30000000E+03</pdfrwt>
<pdfrwt beam="2">0</pdfrwt>
<totfact> 0.23187324E+04</totfact>
</mgrwt>
</event>
<event>
 6    1  0.1295671E-001  0.3000000E+03  0.7818608E-02  0.1093470E+00
         21   -1    0    0  501  502  0.00000000000E+00  0.00000000000E+00  0.15035825594E+01  0.15035825594E+01  0.00000000000E+00 0. -1.
         13   -1    0    0    0    0 -0.00000000000E+00 -0.00000000000E+00 -0.10000000000E+04  0.10000000000E+04  0.00000000000E+00 0.  1.
    9000005    2    1    2  501    0  0.33340942210E+02  0.18442504648E+02 -0.41376700319E+03  0.41553410187E+03  0.37030374133E+01 0.  0.
         13    1    3    3    0    0  0.31538475069E+02  0.16497250821E+02 -0.38936806921E+03  0.39099146795E+03  0.00000000000E+00 0.  1.
          3    1    3    3  501    0  0.18024671407E+01  0.19452538271E+01 -0.24398933984E+02  0.24542633921E+02  0.00000000000E+00 0.  1.
         -1    1    1    2    0  502 -0.33340942210E+02 -0.18442504648E+02 -0.58472941425E+03  0.58596948069E+03  0.00000000000E+00 0. -1.
<mgrwt>
<rscale>  1 0.30000000E+03</rscale>
<asrwt>0</asrwt>
<pdfrwt beam="1">  1       21 0.54675845E-02 0.30000000E+03</pdfrwt>
<pdfrwt beam="2">0</pdfrwt>
<totfact> 0.24723420E+04</totfact>
</mgrwt>
</event>
<event>
 6    1  0.1295671E-001  0.3000000E+03  0.7818608E-02  0.1093470E+00
         21   -1    0    0  501  502  0.00000000000E+00  0.00000000000E+00  0.16041809267E+01  0.16041809267E+01  0.00000000000E+00 0. -1.
         13   -1    0    0    0    0 -0.00000000000E+00 -0.00000000000E+00 -0.10000000000E+04  0.10000000000E+04  0.00000000000E+00 0.  1.
    9000005    2    1    2  501    0 -0.20623792064E+02  0.25602628033E+02 -0.78460978141E+03  0.78530507029E+03  0.32724580879E+01 0.  0.
         13    1    3    3    0    0 -0.73876015264E+01  0.87226445225E+01 -0.23744082247E+03  0.23771580797E+03  0.00000000000E+00 0.  1.
          1    1    3    3  501    0 -0.13236190537E+02  0.16879983511E+02 -0.54716895894E+03  0.54758926232E+03  0.00000000000E+00 0.  1.
         -3    1    1    2    0  502  0.20623792064E+02 -0.25602628033E+02 -0.21378603766E+03  0.21629911063E+03  0.00000000000E+00 0. -1.
<mgrwt>
<rscale>  1 0.30000000E+03</rscale>
<asrwt>0</asrwt>
<pdfrwt beam="1">  1       21 0.58333975E-02 0.30000000E+03</pdfrwt>
<pdfrwt beam="2">0</pdfrwt>
<totfact> 0.22119714E+04</totfact>
</mgrwt>
</event>
<event>
 6    1  0.1295671E-001  0.3000000E+03  0.7818608E-02  0.1093470E+00
         21   -1    0    0  501  502  0.00000000000E+00  0.00000000000E+00  0.30979028719E+01  0.30979028719E+01  0.00000000000E+00 0. -1.
         13   -1    0    0    0    0 -0.00000000000E+00 -0.00000000000E+00 -0.10000000000E+04  0.10000000000E+04  0.00000000000E+00 0.  1.
    9000005    2    1    2  501    0 -0.38566151847E+02  0.29277387317E+02 -0.74511672022E+03  0.74669901539E+03  0.39974190606E+01 0.  0.
         13    1    3    3    0    0 -0.55747886356E+01  0.56380725022E+01 -0.13730558219E+03  0.13753431947E+03  0.00000000000E+00 0.  1.
          3    1    3    3  501    0 -0.32991363211E+02  0.23639314815E+02 -0.60781113802E+03  0.60916469592E+03  0.00000000000E+00 0.  1.
         -1    1    1    2    0  502  0.38566151847E+02 -0.29277387317E+02 -0.25178537691E+03  0.25639888748E+03  0.00000000000E+00 0. -1.
<mgrwt>
<rscale>  1 0.30000000E+03</rscale>
<asrwt>0</asrwt>
<pdfrwt beam="1">  1       21 0.11265125E-01 0.30000000E+03</pdfrwt>
<pdfrwt beam="2">0</pdfrwt>
<totfact> 0.69475325E+03</totfact>
</mgrwt>
</event>
<event>
 6    1  0.1295671E-001  0.3000000E+03  0.7818608E-02  0.1093470E+00
         21   -1    0    0  501  502  0.00000000000E+00  0.00000000000E+00  0.22924156000E+01  0.22924156000E+01  0.00000000000E+00 0. -1.
         13   -1    0    0    0    0 -0.00000000000E+00 -0.00000000000E+00 -0.10000000000E+04  0.10000000000E+04  0.00000000000E+00 0.  1.
    9000005    2    1    2  501    0  0.38353052086E+02  0.84293046423E+01 -0.78521018505E+03  0.78619717152E+03  0.29913254137E+01 0.  0.
         13    1    3    3    0    0  0.26230430292E+02  0.64802470446E+01 -0.51532535733E+03  0.51603318981E+03  0.00000000000E+00 0.  1.
          1    1    3    3  501    0  0.12122621794E+02  0.19490575977E+01 -0.26988482772E+03  0.27016398171E+03  0.00000000000E+00 0.  1.
         -1    1    1    2    0  502 -0.38353052086E+02 -0.84293046423E+01 -0.21249739935E+03  0.21609524408E+03  0.00000000000E+00 0. -1.
<mgrwt>
<rscale>  1 0.30000000E+03</rscale>
<asrwt>0</asrwt>
<pdfrwt beam="1">  1       21 0.83360743E-02 0.30000000E+03</pdfrwt>
<pdfrwt beam="2">0</pdfrwt>
<totfact> 0.11882087E+04</totfact>
</mgrwt>
</event>
<event>
 6    1  0.1295671E-001  0.3000000E+03  0.7818608E-02  0.1093470E+00
         21   -1    0    0  501  502  0.00000000000E+00  0.00000000000E+00  0.23446858103E+01  0.23446858103E+01  0.00000000000E+00 0. -1.
         13   -1    0    0    0    0 -0.00000000000E+00 -0.00000000000E+00 -0.10000000000E+04  0.10000000000E+04  0.00000000000E+00 0.  1.
    9000005    2    1    2  501    0 -0.44778652608E+02  0.43075934096E+01 -0.68346089895E+03  0.68494617659E+03  0.29633317052E+01 0.  0.
         13    1    3    3    0    0 -0.31160543340E+02  0.43637587175E+01 -0.47733140103E+03  0.47836731521E+03  0.00000000000E+00 0.  1.
          3    1    3    3  501    0 -0.13618109268E+02 -0.56165307888E-01 -0.20612949793E+03  0.20657886138E+03  0.00000000000E+00 0.  1.
         -3    1    1    2    0  502  0.44778652608E+02 -0.43075934096E+01 -0.31419441524E+03  0.31739850922E+03  0.00000000000E+00 0. -1.
<mgrwt>
<rscale>  1 0.30000000E+03</rscale>
<asrwt>0</asrwt>
<pdfrwt beam="1">  1       21 0.85261482E-02 0.30000000E+03</pdfrwt>
<pdfrwt beam="2">0</pdfrwt>
<totfact> 0.11419237E+04</totfact>
</mgrwt>
</event>
<event>
 6    1  0.1295671E-001  0.3000000E+03  0.7818608E-02  0.1093470E+00
         21   -1    0    0  501  502  0.00000000000E+00  0.00000000000E+00  0.53566614217E+01  0.53566614217E+01  0.00000000000E+00 0. -1.
         13   -1    0    0    0    0 -0.00000000000E+00 -0.00000000000E+00 -0.10000000000E+04  0.10000000000E+04  0.00000000000E+00 0.  1.
    9000005    2    1    2  501    0  0.53275368708E+02  0.49885934054E+02 -0.46308725449E+03  0.46881333432E+03  0.30439836709E+01 0.  0.
         13    1    3    3    0    0  0.15934853682E+02  0.15996024284E+02 -0.15082156855E+03  0.15250225537E+03  0.00000000000E+00 0.  1.
          3    1    3    3  501    0  0.37340515026E+02  0.33889909770E+02 -0.31226568595E+03  0.31631107895E+03  0.00000000000E+00 0.  1.
         -1    1    1    2    0  502 -0.53275368708E+02 -0.49885934054E+02 -0.53155608409E+03  0.53654332710E+03  0.00000000000E+00 0. -1.
<mgrwt>
<rscale>  1 0.30000000E+03</rscale>
<asrwt>0</asrwt>
<pdfrwt beam="1">  1       21 0.19478810E-01 0.30000000E+03</pdfrwt>
<pdfrwt beam="2">0</pdfrwt>
<totfact> 0.25230138E+03</totfact>
</mgrwt>
</event>
<event>
 6    1  0.1295671E-001  0.3000000E+03  0.7818608E-02  0.1093470E+00
         21   -1    0    0  501  502  0.00000000000E+00  0.00000000000E+00  0.22898054929E+01  0.22898054929E+01  0.00000000000E+00 0. -1.
         13   -1    0    0    0    0 -0.00000000000E+00 -0.00000000000E+00 -0.10000000000E+04  0.10000000000E+04  0.00000000000E+00 0.  1.
    9000005    2    1    2  501    0  0.19354018987E+02  0.37016128215E+02 -0.74129210575E+03  0.74249179156E+03  0.59416071390E+01 0.  0.
         13    1    3    3    0    0  0.94940743360E+01  0.13979095601E+02 -0.26103076224E+03  0.26157716146E+03  0.00000000000E+00 0.  1.
          1    1    3    3  501    0  0.98599446509E+01  0.23037032614E+02 -0.48026134351E+03  0.48091463010E+03  0.00000000000E+00 0.  1.
         -3    1    1    2    0  502 -0.19354018987E+02 -0.37016128215E+02 -0.25641808876E+03  0.25979801393E+03  0.00000000000E+00 0. -1.
<mgrwt>
<rscale>  1 0.30000000E+03</rscale>
<asrwt>0</asrwt>
<pdfrwt beam="1">  1       21 0.83265830E-02 0.30000000E+03</pdfrwt>
<pdfrwt beam="2">0</pdfrwt>
<totfact> 0.11905947E+04</totfact>
</mgrwt>
</event>
<event>
 6    1  0.1295671E-001  0.3000000E+03  0.7818608E-02  0.1093470E+00
         21   -1    0    0  501  502  0.00000000000E+00  0.00000000000E+00  0.17534038912E+01  0.17534038912E+01  0.00000000000E+00 0. -1.
         13   -1    0    0    0    0 -0.00000000000E+00 -0.00000000000E+00 -0.10000000000E+04  0.10000000000E+04  0.00000000000E+00 0.  1.
    9000005    2    1    2  501    0  0.36061945928E+01  0.39844401230E+02 -0.64495776140E+03  0.64620652699E+03  0.34322845494E+01 0.  0.
         13    1    3    3    0    0  0.93757642456E+00  0.16008518906E+02 -0.23305281033E+03  0.23360386154E+03  0.00000000000E+00 0.  1.
          3    1    3    3  501    0  0.26686181682E+01  0.23835882324E+02 -0.41190495107E+03  0.41260266544E+03  0.00000000000E+00 0.  1.
         -1    1    1    2    0  502 -0.36061945928E+01 -0.39844401230E+02 -0.35328883471E+03  0.35554687691E+03  0.00000000000E+00 0. -1.
<mgrwt>
<rscale>  1 0.30000000E+03</rscale>
<asrwt>0</asrwt>
<pdfrwt beam="1">  1       21 0.63760276E-02 0.30000000E+03</pdfrwt>
<pdfrwt beam="2">0</pdfrwt>
<totfact> 0.18971825E+04</totfact>
</mgrwt>
</event>
<event>
 6    1  0.1295671E-001  0.3000000E+03  0.7818608E-02  0.1093470E+00
         21   -1    0    0  501  502  0.00000000000E+00  0.00000000000E+00  0.24847792597E+01  0.24847792597E+01  0.00000000000E+00 0. -1.
         13   -1    0    0    0    0 -0.00000000000E+00 -0.00000000000E+00 -0.10000000000E+04  0.10000000000E+04  0.00000000000E+00 0.  1.
    9000005    2    1    2  501    0 -0.32459596900E+02  0.20189134915E+02 -0.82021134238E+03  0.82110701910E+03  0.29772545287E+01 0.  0.
         13    1    3    3    0    0 -0.70456026365E+00  0.10020582823E+01 -0.30602417989E+02  0.30626924637E+02  0.00000000000E+00 0.  1.
          1    1    3    3  501    0 -0.31755036636E+02  0.19187076633E+02 -0.78960892439E+03  0.79048009446E+03  0.00000000000E+00 0.  1.
         -1    1    1    2    0  502  0.32459596900E+02 -0.20189134915E+02 -0.17730387836E+03  0.18137776016E+03  0.00000000000E+00 0. -1.
<mgrwt>
<rscale>  1 0.30000000E+03</rscale>
<asrwt>0</asrwt>
<pdfrwt beam="1">  1       21 0.90355800E-02 0.30000000E+03</pdfrwt>
<pdfrwt beam="2">0</pdfrwt>
<totfact> 0.10305785E+04</totfact>
</mgrwt>
</event>
<event>
 6    1  0.1295671E-001  0.3000000E+03  0.7818608E-02  0.1093470E+00
         21   -1    0    0  501  502  0.00000000000E+00  0.00000000000E+00  0.21736813891E+01  0.21736813891E+01  0.00000000000E+00 0. -1.
         13   -1    0    0    0    0 -0.00000000000E+00 -0.00000000000E+00 -0.10000000000E+04  0.10000000000E+04  0.00000000000E+00 0.  1.
    9000005    2    1    2  501    0  0.31752128201E+02  0.44349490880E+01 -0.13703602031E+03  0.14078654191E+03  0.37567406895E+01 0.  0.
         13    1    3    3    0    0  0.30600547567E+01  0.13210247672E+00 -0.18481579748E+02  0.18733664248E+02  0.00000000000E+00 0.  1.
          1    1    3    3  501    0  0.28692073444E+02  0.43028466113E+01 -0.11855444056E+03  0.12205287766E+03  0.00000000000E+00 0.  1.
         -3    1    1    2    0  502 -0.31752128201E+02 -0.44349490880E+01 -0.86079029830E+03  0.86138713948E+03  0.00000000000E+00 0. -1.
<mgrwt>
<rscale>  1 0.30000000E+03</rscale>
<asrwt>0</asrwt>
<pdfrwt beam="1">  1       21 0.79043126E-02 0.30000000E+03</pdfrwt>
<pdfrwt beam="2">0</pdfrwt>
<totfact> 0.13046632E+04</totfact>
</mgrwt>
</event>
<event>
 6    1  0.1295671E-001  0.3000000E+03  0.7818608E-02  0.1093470E+00
         21   -1    0    0  501  502  0.00000000000E+00  0.00000000000E+00  0.98221443188E+00  0.98221443188E+00  0.00000000000E+00 0. -1.
         13   -1    0    0    0    0 -0.00000000000E+00 -0.00000000000E+00 -0.10000000000E+04  0.10000000000E+04  0.00000000000E+00 0.  1.
    9000005    2    1    2  501    0 -0.70676055714E+01 -0.30290008292E+02 -0.45922868827E+03  0.46029773600E+03  0.39474028666E+01 0.  0.
         13    1    3    3    0    0 -0.48390685004E+01 -0.25553073864E+02 -0.39568895774E+03  0.39654271831E+03  0.00000000000E+00 0.  1.
          1    1    3    3  501    0 -0.22285370710E+01 -0.47369344286E+01 -0.63539730529E+02  0.63755017692E+02  0.00000000000E+00 0.  1.
         -3    1    1    2    0  502  0.70676055714E+01  0.30290008292E+02 -0.53978909730E+03  0.54068447843E+03  0.00000000000E+00 0. -1.
<mgrwt>
<rscale>  1 0.30000000E+03</rscale>
<asrwt>0</asrwt>
<pdfrwt beam="1">  1       21 0.35716964E-02 0.30000000E+03</pdfrwt>
<pdfrwt beam="2">0</pdfrwt>
<totfact> 0.50858992E+04</totfact>
</mgrwt>
</event>
<event>
 6    1  0.1295671E-001  0.3000000E+03  0.7818608E-02  0.1093470E+00
         21   -1    0    0  501  502  0.00000000000E+00  0.00000000000E+00  0.42295103923E+01  0.42295103923E+01  0.00000000000E+00 0. -1.
         13   -1    0    0    0    0 -0.00000000000E+00 -0.00000000000E+00 -0.10000000000E+04  0.10000000000E+04  0.00000000000E+00 0.  1.
    9000005    2    1    2  501    0 -0.34053630122E+02 -0.17713386651E+02 -0.90316267776E+03  0.90398171437E+03  0.25891378147E+01 0.  0.
         13    1    3    3    0    0 -0.17995332758E+02 -0.88794778790E+01 -0.44326740304E+03  0.44372138525E+03  0.00000000000E+00 0.  1.
          3    1    3    3  501    0 -0.16058297364E+02 -0.88339087715E+01 -0.45989527472E+03  0.46026032912E+03  0.00000000000E+00 0.  1.
         -3    1    1    2    0  502  0.34053630122E+02  0.17713386651E+02 -0.92607811848E+02  0.10024779602E+03  0.00000000000E+00 0. -1.
<mgrwt>
<rscale>  1 0.30000000E+03</rscale>
<asrwt>0</asrwt>
<pdfrwt beam="1">  1       21 0.15380070E-01 0.30000000E+03</pdfrwt>
<pdfrwt beam="2">0</pdfrwt>
<totfact> 0.39313832E+03</totfact>
</mgrwt>
</event>
<event>
 6    1  0.1295671E-001  0.3000000E+03  0.7818608E-02  0.1093470E+00
         21   -1    0    0  501  502  0.00000000000E+00  0.00000000000E+00  0.20564563369E+01  0.20564563369E+01  0.00000000000E+00 0. -1.
         13   -1    0    0    0    0 -0.00000000000E+00 -0.00000000000E+00 -0.10000000000E+04  0.10000000000E+04  0.00000000000E+00 0.  1.
    9000005    2    1    2  501    0 -0.27717001989E+02  0.33190975598E+02 -0.35496280165E+03  0.35762328862E+03  0.50944032125E+01 0.  0.
         13    1    3    3    0    0 -0.19690650778E+02  0.20137162335E+02 -0.23817058077E+03  0.23983004936E+03  0.00000000000E+00 0.  1.
          3    1    3    3  501    0 -0.80263512113E+01  0.13053813264E+02 -0.11679222089E+03  0.11779323926E+03  0.00000000000E+00 0.  1.
         -1    1    1    2    0  502  0.27717001989E+02 -0.33190975598E+02 -0.64298074201E+03  0.64443316772E+03  0.00000000000E+00 0. -1.
<mgrwt>
<rscale>  1 0.30000000E+03</rscale>
<asrwt>0</asrwt>
<pdfrwt beam="1">  1       21 0.74780388E-02 0.30000000E+03</pdfrwt>
<pdfrwt beam="2">0</pdfrwt>
<totfact> 0.14378091E+04</totfact>
</mgrwt>
</event>
<event>
 6    1  0.1295671E-001  0.3000000E+03  0.7818608E-02  0.1093470E+00
         21   -1    0    0  501  502  0.00000000000E+00  0.00000000000E+00  0.20727548166E+01  0.20727548166E+01  0.00000000000E+00 0. -1.
         13   -1    0    0    0    0 -0.00000000000E+00 -0.00000000000E+00 -0.10000000000E+04  0.10000000000E+04  0.00000000000E+00 0.  1.
    9000005    2    1    2  501    0  0.16373037292E+02 -0.33910405159E+02 -0.77661375511E+03  0.77757853927E+03  0.90259719293E+01 0.  0.
         13    1    3    3    0    0  0.56230428992E+01 -0.56154296315E+01 -0.21868691522E+03  0.21883125588E+03  0.00000000000E+00 0.  1.
          1    1    3    3  501    0  0.10749994393E+02 -0.28294975528E+02 -0.55792683989E+03  0.55874728339E+03  0.00000000000E+00 0.  1.
         -3    1    1    2    0  502 -0.16373037292E+02  0.33910405159E+02 -0.22131349007E+03  0.22449421555E+03  0.00000000000E+00 0. -1.
<mgrwt>
<rscale>  1 0.30000000E+03</rscale>
<asrwt>0</asrwt>
<pdfrwt beam="1">  1       21 0.75373061E-02 0.30000000E+03</pdfrwt>
<pdfrwt beam="2">0</pdfrwt>
<totfact> 0.14180718E+04</totfact>
</mgrwt>
</event>
<event>
 6    1  0.1295671E-001  0.3000000E+03  0.7818608E-02  0.1093470E+00
         21   -1    0    0  501  502  0.00000000000E+00  0.00000000000E+00  0.41279927141E+01  0.41279927141E+01  0.00000000000E+00 0. -1.
         13   -1    0    0    0    0 -0.00000000000E+00 -0.00000000000E+00 -0.10000000000E+04  0.10000000000E+04  0.00000000000E+00 0.  1.
    9000005    2    1    2  501    0 -0.37286112712E+02  0.36992406696E+02 -0.78547048183E+03  0.78726975729E+03  0.84321155783E+01 0.  0.
         13    1    3    3    0    0 -0.15635062378E+02  0.13821672865E+02 -0.25516123379E+03  0.25601318139E+03  0.00000000000E+00 0.  1.
          3    1    3    3  501    0 -0.21651050334E+02  0.23170733831E+02 -0.53030924804E+03  0.53125657590E+03  0.00000000000E+00 0.  1.
         -3    1    1    2    0  502  0.37286112712E+02 -0.36992406696E+02 -0.21040152546E+03  0.21685823542E+03  0.00000000000E+00 0. -1.
<mgrwt>
<rscale>  1 0.30000000E+03</rscale>
<asrwt>0</asrwt>
<pdfrwt beam="1">  1       21 0.15010914E-01 0.30000000E+03</pdfrwt>
<pdfrwt beam="2">0</pdfrwt>
<totfact> 0.41124956E+03</totfact>
</mgrwt>
</event>
<event>
 6    1  0.1295671E-001  0.3000000E+03  0.7818608E-02  0.1093470E+00
         21   -1    0    0  501  502  0.00000000000E+00  0.00000000000E+00  0.37738589402E+01  0.37738589402E+01  0.00000000000E+00 0. -1.
         13   -1    0    0    0    0 -0.00000000000E+00 -0.00000000000E+00 -0.10000000000E+04  0.10000000000E+04  0.00000000000E+00 0.  1.
    9000005    2    1    2  501    0 -0.56413420354E+02  0.23189697180E+02 -0.44154282188E+03  0.44574713859E+03  0.31956147817E+01 0.  0.
         13    1    3    3    0    0 -0.24467339866E+01  0.51805694446E+00 -0.21608407831E+02  0.21752659129E+02  0.00000000000E+00 0.  1.
          1    1    3    3  501    0 -0.53966686367E+02  0.22671640236E+02 -0.41993441405E+03  0.42399447946E+03  0.00000000000E+00 0.  1.
         -3    1    1    2    0  502  0.56413420354E+02 -0.23189697180E+02 -0.55468331918E+03  0.55802672035E+03  0.00000000000E+00 0. -1.
<mgrwt>
<rscale>  1 0.30000000E+03</rscale>
<asrwt>0</asrwt>
<pdfrwt beam="1">  1       21 0.13723152E-01 0.30000000E+03</pdfrwt>
<pdfrwt beam="2">0</pdfrwt>
<totfact> 0.48513222E+03</totfact>
</mgrwt>
</event>
<event>
 6    1  0.1295671E-001  0.3000000E+03  0.7818608E-02  0.1093470E+00
         21   -1    0    0  501  502  0.00000000000E+00  0.00000000000E+00  0.10621018427E+02  0.10621018427E+02  0.00000000000E+00 0. -1.
         13   -1    0    0    0    0 -0.00000000000E+00 -0.00000000000E+00 -0.10000000000E+04  0.10000000000E+04  0.00000000000E+00 0.  1.
    9000005    2    1    2  501    0 -0.19690020517E+02 -0.55661436826E+02 -0.90880004717E+03  0.91072678873E+03  0.44570747072E+01 0.  0.
         13    1    3    3    0    0 -0.73266004082E+01 -0.14729435804E+02 -0.25218194344E+03  0.25271796127E+03  0.00000000000E+00 0.  1.
          1    1    3    3  501    0 -0.12363420108E+02 -0.40932001022E+02 -0.65661810373E+03  0.65800882746E+03  0.00000000000E+00 0.  1.
         -1    1    1    2    0  502  0.19690020517E+02  0.55661436826E+02 -0.80578934403E+02  0.99894229698E+02  0.00000000000E+00 0. -1.
<mgrwt>
<rscale>  1 0.30000000E+03</rscale>
<asrwt>0</asrwt>
<pdfrwt beam="1">  1       21 0.38621967E-01 0.30000000E+03</pdfrwt>
<pdfrwt beam="2">0</pdfrwt>
<totfact> 0.64973550E+02</totfact>
</mgrwt>
</event>
<event>
 6    1  0.1295671E-001  0.3000000E+03  0.7818608E-02  0.1093470E+00
         21   -1    0    0  501  502  0.00000000000E+00  0.00000000000E+00  0.20033607126E+01  0.20033607126E+01  0.00000000000E+00 0. -1.
         13   -1    0    0    0    0 -0.00000000000E+00 -0.00000000000E+00 -0.10000000000E+04  0.10000000000E+04  0.00000000000E+00 0.  1.
    9000005    2    1    2  501    0 -0.20822391817E+02 -0.34092198898E+02 -0.72414276390E+03  0.72525113382E+03  0.32580006254E+01 0.  0.
         13    1    3    3    0    0 -0.18469260627E+02 -0.31590408959E+02 -0.67167954153E+03  0.67267560833E+03  0.00000000000E+00 0.  1.
          3    1    3    3  501    0 -0.23531311899E+01 -0.25017899390E+01 -0.52463222366E+02  0.52575525488E+02  0.00000000000E+00 0.  1.
         -1    1    1    2    0  502  0.20822391817E+02  0.34092198898E+02 -0.27385387539E+03  0.27675222689E+03  0.00000000000E+00 0. -1.
<mgrwt>
<rscale>  1 0.30000000E+03</rscale>
<asrwt>0</asrwt>
<pdfrwt beam="1">  1       21 0.72849634E-02 0.30000000E+03</pdfrwt>
<pdfrwt beam="2">0</pdfrwt>
<totfact> 0.15051039E+04</totfact>
</mgrwt>
</event>
<event>
 6    1  0.1295671E-001  0.3000000E+03  0.7818608E-02  0.1093470E+00
         21   -1    0    0  501  502  0.00000000000E+00  0.00000000000E+00  0.18473454963E+01  0.18473454963E+01  0.00000000000E+00 0. -1.
         13   -1    0    0    0    0 -0.00000000000E+00 -0.00000000000E+00 -0.10000000000E+04  0.10000000000E+04  0.00000000000E+00 0.  1.
    9000005    2    1    2  501    0 -0.27794231679E+02  0.15260082229E+02 -0.83688040606E+03  0.83748759512E+03  0.33568609851E+01 0.  0.
         13    1    3    3    0    0 -0.11286861643E+02  0.78943028415E+01 -0.38154600820E+03  0.38179453851E+03  0.00000000000E+00 0.  1.
          1    1    3    3  501    0 -0.16507370036E+02  0.73657793879E+01 -0.45533439786E+03  0.45569305661E+03  0.00000000000E+00 0.  1.
         -3    1    1    2    0  502  0.27794231679E+02 -0.15260082229E+02 -0.16127224844E+03  0.16435975037E+03  0.00000000000E+00 0. -1.
<mgrwt>
<rscale>  1 0.30000000E+03</rscale>
<asrwt>0</asrwt>
<pdfrwt beam="1">  1       21 0.67176342E-02 0.30000000E+03</pdfrwt>
<pdfrwt beam="2">0</pdfrwt>
<totfact> 0.17331965E+04</totfact>
</mgrwt>
</event>
<event>
 6    1  0.1295671E-001  0.3000000E+03  0.7818608E-02  0.1093470E+00
         21   -1    0    0  501  502  0.00000000000E+00  0.00000000000E+00  0.46879711359E+01  0.46879711359E+01  0.00000000000E+00 0. -1.
         13   -1    0    0    0    0 -0.00000000000E+00 -0.00000000000E+00 -0.10000000000E+04  0.10000000000E+04  0.00000000000E+00 0.  1.
    9000005    2    1    2  501    0  0.16678701753E+02 -0.45941040402E+02 -0.14667212228E+03  0.15464182572E+03  0.35531005168E+01 0.  0.
         13    1    3    3    0    0  0.42805284059E+01 -0.82026914449E+01 -0.29836404797E+02  0.31238087675E+02  0.00000000000E+00 0.  1.
          3    1    3    3  501    0  0.12398173347E+02 -0.37738348957E+02 -0.11683571748E+03  0.12340373805E+03  0.00000000000E+00 0.  1.
         -3    1    1    2    0  502 -0.16678701753E+02  0.45941040402E+02 -0.84863990658E+03  0.85004614541E+03  0.00000000000E+00 0. -1.
<mgrwt>
<rscale>  1 0.30000000E+03</rscale>
<asrwt>0</asrwt>
<pdfrwt beam="1">  1       21 0.17047204E-01 0.30000000E+03</pdfrwt>
<pdfrwt beam="2">0</pdfrwt>
<totfact> 0.32446244E+03</totfact>
</mgrwt>
</event>
<event>
 6    1  0.1295671E-001  0.3000000E+03  0.7818608E-02  0.1093470E+00
         21   -1    0    0  501  502  0.00000000000E+00  0.00000000000E+00  0.14814432662E+01  0.14814432662E+01  0.00000000000E+00 0. -1.
         13   -1    0    0    0    0 -0.00000000000E+00 -0.00000000000E+00 -0.10000000000E+04  0.10000000000E+04  0.00000000000E+00 0.  1.
    9000005    2    1    2  501    0 -0.31666447721E+02  0.13653323441E+01 -0.78275981451E+03  0.78340699981E+03  0.29953451427E+01 0.  0.
         13    1    3    3    0    0 -0.24196518181E+02 -0.18079647167E+00 -0.60403194359E+03  0.60451641256E+03  0.00000000000E+00 0.  1.
          1    1    3    3  501    0 -0.74699295396E+01  0.15461288157E+01 -0.17872787092E+03  0.17889058725E+03  0.00000000000E+00 0.  1.
         -3    1    1    2    0  502  0.31666447721E+02 -0.13653323441E+01 -0.21575874223E+03  0.21807444346E+03  0.00000000000E+00 0. -1.
<mgrwt>
<rscale>  1 0.30000000E+03</rscale>
<asrwt>0</asrwt>
<pdfrwt beam="1">  1       21 0.53870778E-02 0.30000000E+03</pdfrwt>
<pdfrwt beam="2">0</pdfrwt>
<totfact> 0.25359715E+04</totfact>
</mgrwt>
</event>
<event>
 6    1  0.1295671E-001  0.3000000E+03  0.7818608E-02  0.1093470E+00
         21   -1    0    0  501  502  0.00000000000E+00  0.00000000000E+00  0.99739619518E+00  0.99739619518E+00  0.00000000000E+00 0. -1.
         13   -1    0    0    0    0 -0.00000000000E+00 -0.00000000000E+00 -0.10000000000E+04  0.10000000000E+04  0.00000000000E+00 0.  1.
    9000005    2    1    2  501    0 -0.30554593380E+02  0.48419337507E+01 -0.59286288309E+03  0.59368117967E+03  0.37306103908E+01 0.  0.
         13    1    3    3    0    0 -0.20346314877E+02  0.34031448932E+01 -0.36054300272E+03  0.36113267747E+03  0.00000000000E+00 0.  1.
          3    1    3    3  501    0 -0.10208278503E+02  0.14387888574E+01 -0.23231988037E+03  0.23254850221E+03  0.00000000000E+00 0.  1.
         -3    1    1    2    0  502  0.30554593380E+02 -0.48419337507E+01 -0.40613972071E+03  0.40731621652E+03  0.00000000000E+00 0. -1.
<mgrwt>
<rscale>  1 0.30000000E+03</rscale>
<asrwt>0</asrwt>
<pdfrwt beam="1">  1       21 0.36269029E-02 0.30000000E+03</pdfrwt>
<pdfrwt beam="2">0</pdfrwt>
<totfact> 0.49567494E+04</totfact>
</mgrwt>
</event>
<event>
 6    1  0.1295671E-001  0.3000000E+03  0.7818608E-02  0.1093470E+00
         21   -1    0    0  501  502  0.00000000000E+00  0.00000000000E+00  0.13041037370E+01  0.13041037370E+01  0.00000000000E+00 0. -1.
         13   -1    0    0    0    0 -0.00000000000E+00 -0.00000000000E+00 -0.10000000000E+04  0.10000000000E+04  0.00000000000E+00 0.  1.
    9000005    2    1    2  501    0 -0.28631416961E+02  0.16466963764E+02 -0.69995139566E+03  0.70073930943E+03  0.35643469658E+01 0.  0.
         13    1    3    3    0    0 -0.14296992674E+02  0.92597442776E+01 -0.39279391381E+03  0.39316307760E+03  0.00000000000E+00 0.  1.
          3    1    3    3  501    0 -0.14334424287E+02  0.72072194866E+01 -0.30715748184E+03  0.30757623183E+03  0.00000000000E+00 0.  1.
         -3    1    1    2    0  502  0.28631416961E+02 -0.16466963764E+02 -0.29874450061E+03  0.30056479431E+03  0.00000000000E+00 0. -1.
<mgrwt>
<rscale>  1 0.30000000E+03</rscale>
<asrwt>0</asrwt>
<pdfrwt beam="1">  1       21 0.47422054E-02 0.30000000E+03</pdfrwt>
<pdfrwt beam="2">0</pdfrwt>
<totfact> 0.31521477E+04</totfact>
</mgrwt>
</event>
<event>
 6    1  0.1295671E-001  0.3000000E+03  0.7818608E-02  0.1093470E+00
         21   -1    0    0  501  502  0.00000000000E+00  0.00000000000E+00  0.73288919674E+01  0.73288919674E+01  0.00000000000E+00 0. -1.
         13   -1    0    0    0    0 -0.00000000000E+00 -0.00000000000E+00 -0.10000000000E+04  0.10000000000E+04  0.00000000000E+00 0.  1.
    9000005    2    1    2  501    0 -0.46944372544E+02 -0.13536509328E+02 -0.90987547863E+03  0.91119290782E+03  0.34810151444E+01 0.  0.
         13    1    3    3    0    0 -0.14291004017E+02 -0.58028847946E+01 -0.28644260752E+03  0.28685758430E+03  0.00000000000E+00 0.  1.
          1    1    3    3  501    0 -0.32653368526E+02 -0.77336245337E+01 -0.62343287110E+03  0.62433532352E+03  0.00000000000E+00 0.  1.
         -1    1    1    2    0  502  0.46944372544E+02  0.13536509328E+02 -0.82795629407E+02  0.96135984144E+02  0.00000000000E+00 0. -1.
<mgrwt>
<rscale>  1 0.30000000E+03</rscale>
<asrwt>0</asrwt>
<pdfrwt beam="1">  1       21 0.26650572E-01 0.30000000E+03</pdfrwt>
<pdfrwt beam="2">0</pdfrwt>
<totfact> 0.13753889E+03</totfact>
</mgrwt>
</event>
<event>
 6    1  0.1295671E-001  0.3000000E+03  0.7818608E-02  0.1093470E+00
         21   -1    0    0  501  502  0.00000000000E+00  0.00000000000E+00  0.38827283428E+01  0.38827283428E+01  0.00000000000E+00 0. -1.
         13   -1    0    0    0    0 -0.00000000000E+00 -0.00000000000E+00 -0.10000000000E+04  0.10000000000E+04  0.00000000000E+00 0.  1.
    9000005    2    1    2  501    0 -0.59885752430E+02 -0.75673537103E+01 -0.37492333221E+03  0.37976296532E+03  0.29726434428E+01 0.  0.
         13    1    3    3    0    0 -0.22827059540E+02 -0.39523465392E+01 -0.13767036288E+03  0.13960596157E+03  0.00000000000E+00 0.  1.
          3    1    3    3  501    0 -0.37058692890E+02 -0.36150071711E+01 -0.23725296933E+03  0.24015700376E+03  0.00000000000E+00 0.  1.
         -3    1    1    2    0  502  0.59885752430E+02  0.75673537103E+01 -0.62119393945E+03  0.62411976302E+03  0.00000000000E+00 0. -1.
<mgrwt>
<rscale>  1 0.30000000E+03</rscale>
<asrwt>0</asrwt>
<pdfrwt beam="1">  1       21 0.14119042E-01 0.30000000E+03</pdfrwt>
<pdfrwt beam="2">0</pdfrwt>
<totfact> 0.46044567E+03</totfact>
</mgrwt>
</event>
<event>
 6    1  0.1295671E-001  0.3000000E+03  0.7818608E-02  0.1093470E+00
         21   -1    0    0  501  502  0.00000000000E+00  0.00000000000E+00  0.17696625138E+01  0.17696625138E+01  0.00000000000E+00 0. -1.
         13   -1    0    0    0    0 -0.00000000000E+00 -0.00000000000E+00 -0.10000000000E+04  0.10000000000E+04  0.00000000000E+00 0.  1.
    9000005    2    1    2  501    0 -0.34165250752E+02  0.22959367780E+02 -0.59967666717E+03  0.60109594857E+03  0.31364477057E+01 0.  0.
         13    1    3    3    0    0 -0.31284667189E+02  0.21606282455E+02 -0.54239612107E+03  0.54372705836E+03  0.00000000000E+00 0.  1.
          1    1    3    3  501    0 -0.28805835627E+01  0.13530853247E+01 -0.57280546107E+02  0.57368890209E+02  0.00000000000E+00 0.  1.
         -1    1    1    2    0  502  0.34165250752E+02 -0.22959367780E+02 -0.39855367031E+03  0.40067371395E+03  0.00000000000E+00 0. -1.
<mgrwt>
<rscale>  1 0.30000000E+03</rscale>
<asrwt>0</asrwt>
<pdfrwt beam="1">  1       21 0.64351500E-02 0.30000000E+03</pdfrwt>
<pdfrwt beam="2">0</pdfrwt>
<totfact> 0.18671303E+04</totfact>
</mgrwt>
</event>
<event>
 6    1  0.1295671E-001  0.3000000E+03  0.7818608E-02  0.1093470E+00
         21   -1    0    0  501  502  0.00000000000E+00  0.00000000000E+00  0.11730579811E+01  0.11730579811E+01  0.00000000000E+00 0. -1.
         13   -1    0    0    0    0 -0.00000000000E+00 -0.00000000000E+00 -0.10000000000E+04  0.10000000000E+04  0.00000000000E+00 0.  1.
    9000005    2    1    2  501    0  0.30568941527E+01 -0.30598394270E+02 -0.71820705644E+03  0.71887334754E+03  0.34507313650E+01 0.  0.
         13    1    3    3    0    0  0.74566131994E+00 -0.21443346913E+02 -0.51620709698E+03  0.51665282358E+03  0.00000000000E+00 0.  1.
          3    1    3    3  501    0  0.23112328328E+01 -0.91550473564E+01 -0.20199995945E+03  0.20222052395E+03  0.00000000000E+00 0.  1.
         -1    1    1    2    0  502 -0.30568941527E+01  0.30598394270E+02 -0.28061988558E+03  0.28229971044E+03  0.00000000000E+00 0. -1.
<mgrwt>
<rscale>  1 0.30000000E+03</rscale>
<asrwt>0</asrwt>
<pdfrwt beam="1">  1       21 0.42656744E-02 0.30000000E+03</pdfrwt>
<pdfrwt beam="2">0</pdfrwt>
<totfact> 0.37724499E+04</totfact>
</mgrwt>
</event>
<event>
 6    1  0.1295671E-001  0.3000000E+03  0.7818608E-02  0.1093470E+00
         21   -1    0    0  501  502  0.00000000000E+00  0.00000000000E+00  0.52234620941E+01  0.52234620941E+01  0.00000000000E+00 0. -1.
         13   -1    0    0    0    0 -0.00000000000E+00 -0.00000000000E+00 -0.10000000000E+04  0.10000000000E+04  0.00000000000E+00 0.  1.
    9000005    2    1    2  501    0 -0.49112686489E+02 -0.21333206727E+02 -0.83483093254E+03  0.83655290047E+03  0.33026764324E+01 0.  0.
         13    1    3    3    0    0 -0.11383968099E+02 -0.64003880988E+01 -0.19596855437E+03  0.19640324335E+03  0.00000000000E+00 0.  1.
          1    1    3    3  501    0 -0.37728718390E+02 -0.14932818629E+02 -0.63886237817E+03  0.64014965712E+03  0.00000000000E+00 0.  1.
         -1    1    1    2    0  502  0.49112686489E+02  0.21333206727E+02 -0.15994560536E+03  0.16867056162E+03  0.00000000000E+00 0. -1.
<mgrwt>
<rscale>  1 0.30000000E+03</rscale>
<asrwt>0</asrwt>
<pdfrwt beam="1">  1       21 0.18994448E-01 0.30000000E+03</pdfrwt>
<pdfrwt beam="2">0</pdfrwt>
<totfact> 0.26465545E+03</totfact>
</mgrwt>
</event>
<event>
 6    1  0.1295671E-001  0.3000000E+03  0.7818608E-02  0.1093470E+00
         21   -1    0    0  501  502  0.00000000000E+00  0.00000000000E+00  0.12122722729E+01  0.12122722729E+01  0.00000000000E+00 0. -1.
         13   -1    0    0    0    0 -0.00000000000E+00 -0.00000000000E+00 -0.10000000000E+04  0.10000000000E+04  0.00000000000E+00 0.  1.
    9000005    2    1    2  501    0  0.32453257504E+02 -0.49615679312E+01 -0.66404709595E+03  0.66486554397E+03  0.31328640292E+01 0.  0.
         13    1    3    3    0    0  0.21992069571E+02 -0.44621497270E+01 -0.47187760986E+03  0.47241088112E+03  0.00000000000E+00 0.  1.
          1    1    3    3  501    0  0.10461187933E+02 -0.49941820423E+00 -0.19216948609E+03  0.19245466286E+03  0.00000000000E+00 0.  1.
         -1    1    1    2    0  502 -0.32453257504E+02  0.49615679312E+01 -0.33474063177E+03  0.33634672830E+03  0.00000000000E+00 0. -1.
<mgrwt>
<rscale>  1 0.30000000E+03</rscale>
<asrwt>0</asrwt>
<pdfrwt beam="1">  1       21 0.44082721E-02 0.30000000E+03</pdfrwt>
<pdfrwt beam="2">0</pdfrwt>
<totfact> 0.35682684E+04</totfact>
</mgrwt>
</event>
<event>
 6    1  0.1295671E-001  0.3000000E+03  0.7818608E-02  0.1093470E+00
         21   -1    0    0  501  502  0.00000000000E+00  0.00000000000E+00  0.10200062013E+01  0.10200062013E+01  0.00000000000E+00 0. -1.
         13   -1    0    0    0    0 -0.00000000000E+00 -0.00000000000E+00 -0.10000000000E+04  0.10000000000E+04  0.00000000000E+00 0.  1.
    9000005    2    1    2  501    0  0.16003020860E+02 -0.26806705071E+02 -0.60114451138E+03  0.60196140501E+03  0.28484111517E+01 0.  0.
         13    1    3    3    0    0  0.10416517749E+02 -0.15821971864E+02 -0.38527036862E+03  0.38573578466E+03  0.00000000000E+00 0.  1.
          3    1    3    3  501    0  0.55865031103E+01 -0.10984733207E+02 -0.21587414276E+03  0.21622562035E+03  0.00000000000E+00 0.  1.
         -3    1    1    2    0  502 -0.16003020860E+02  0.26806705071E+02 -0.39783548242E+03  0.39905860119E+03  0.00000000000E+00 0. -1.
<mgrwt>
<rscale>  1 0.30000000E+03</rscale>
<asrwt>0</asrwt>
<pdfrwt beam="1">  1       21 0.37091213E-02 0.30000000E+03</pdfrwt>
<pdfrwt beam="2">0</pdfrwt>
<totfact> 0.47737737E+04</totfact>
</mgrwt>
</event>
<event>
 6    1  0.1295671E-001  0.3000000E+03  0.7818608E-02  0.1093470E+00
         21   -1    0    0  501  502  0.00000000000E+00  0.00000000000E+00  0.27531703391E+01  0.27531703391E+01  0.00000000000E+00 0. -1.
         13   -1    0    0    0    0 -0.00000000000E+00 -0.00000000000E+00 -0.10000000000E+04  0.10000000000E+04  0.00000000000E+00 0.  1.
    9000005    2    1    2  501    0  0.16317769062E+02 -0.33386158262E+02 -0.85208926993E+03  0.85291451612E+03  0.51129962489E+01 0.  0.
         13    1    3    3    0    0  0.11462597210E+02 -0.23029533345E+02 -0.64038482362E+03  0.64090129729E+03  0.00000000000E+00 0.  1.
          1    1    3    3  501    0  0.48551718525E+01 -0.10356624916E+02 -0.21170444631E+03  0.21201321883E+03  0.00000000000E+00 0.  1.
         -3    1    1    2    0  502 -0.16317769062E+02  0.33386158262E+02 -0.14515755973E+03  0.14983865422E+03  0.00000000000E+00 0. -1.
<mgrwt>
<rscale>  1 0.30000000E+03</rscale>
<asrwt>0</asrwt>
<pdfrwt beam="1">  1       21 0.10011550E-01 0.30000000E+03</pdfrwt>
<pdfrwt beam="2">0</pdfrwt>
<totfact> 0.85854709E+03</totfact>
</mgrwt>
</event>
<event>
 6    1  0.1295671E-001  0.3000000E+03  0.7818608E-02  0.1093470E+00
         21   -1    0    0  501  502  0.00000000000E+00  0.00000000000E+00  0.61701950662E+01  0.61701950662E+01  0.00000000000E+00 0. -1.
         13   -1    0    0    0    0 -0.00000000000E+00 -0.00000000000E+00 -0.10000000000E+04  0.10000000000E+04  0.00000000000E+00 0.  1.
    9000005    2    1    2  501    0 -0.64213034323E+02  0.41814366635E+02 -0.60667612005E+03  0.61150612177E+03  0.34737998789E+01 0.  0.
         13    1    3    3    0    0 -0.35963917227E+02  0.21357488024E+02 -0.33150981462E+03  0.33413814932E+03  0.00000000000E+00 0.  1.
          3    1    3    3  501    0 -0.28249117096E+02  0.20456878611E+02 -0.27516630543E+03  0.27736797245E+03  0.00000000000E+00 0.  1.
         -1    1    1    2    0  502  0.64213034323E+02 -0.41814366635E+02 -0.38715368488E+03  0.39466407330E+03  0.00000000000E+00 0. -1.
<mgrwt>
<rscale>  1 0.30000000E+03</rscale>
<asrwt>0</asrwt>
<pdfrwt beam="1">  1       21 0.22437120E-01 0.30000000E+03</pdfrwt>
<pdfrwt beam="2">0</pdfrwt>
<totfact> 0.19242260E+03</totfact>
</mgrwt>
</event>
<event>
 6    1  0.1295671E-001  0.3000000E+03  0.7818608E-02  0.1093470E+00
         21   -1    0    0  501  502  0.00000000000E+00  0.00000000000E+00  0.14401059032E+01  0.14401059032E+01  0.00000000000E+00 0. -1.
         13   -1    0    0    0    0 -0.00000000000E+00 -0.00000000000E+00 -0.10000000000E+04  0.10000000000E+04  0.00000000000E+00 0.  1.
    9000005    2    1    2  501    0 -0.26977570050E+02  0.19958481834E+02 -0.72965403326E+03  0.73044842287E+03  0.58103297694E+01 0.  0.
         13    1    3    3    0    0 -0.15260474035E+01  0.29579993862E+01 -0.92115516951E+02  0.92175631509E+02  0.00000000000E+00 0.  1.
          3    1    3    3  501    0 -0.25451522646E+02  0.17000482448E+02 -0.63753851631E+03  0.63827279136E+03  0.00000000000E+00 0.  1.
         -1    1    1    2    0  502  0.26977570050E+02 -0.19958481834E+02 -0.26890586083E+03  0.27099168304E+03  0.00000000000E+00 0. -1.
<mgrwt>
<rscale>  1 0.30000000E+03</rscale>
<asrwt>0</asrwt>
<pdfrwt beam="1">  1       21 0.52367598E-02 0.30000000E+03</pdfrwt>
<pdfrwt beam="2">0</pdfrwt>
<totfact> 0.26617564E+04</totfact>
</mgrwt>
</event>
<event>
 6    1  0.1295671E-001  0.3000000E+03  0.7818608E-02  0.1093470E+00
         21   -1    0    0  501  502  0.00000000000E+00  0.00000000000E+00  0.14263352668E+01  0.14263352668E+01  0.00000000000E+00 0. -1.
         13   -1    0    0    0    0 -0.00000000000E+00 -0.00000000000E+00 -0.10000000000E+04  0.10000000000E+04  0.00000000000E+00 0.  1.
    9000005    2    1    2  501    0 -0.31431715022E+02  0.18984717415E+02 -0.38941627319E+03  0.39116319540E+03  0.39037684713E+01 0.  0.
         13    1    3    3    0    0 -0.16474555038E+02  0.10230664060E+02 -0.22600810653E+03  0.22683858064E+03  0.00000000000E+00 0.  1.
          1    1    3    3  501    0 -0.14957159984E+02  0.87540533543E+01 -0.16340816666E+03  0.16432461476E+03  0.00000000000E+00 0.  1.
         -1    1    1    2    0  502  0.31431715022E+02 -0.18984717415E+02 -0.60915739155E+03  0.61026313987E+03  0.00000000000E+00 0. -1.
<mgrwt>
<rscale>  1 0.30000000E+03</rscale>
<asrwt>0</asrwt>
<pdfrwt beam="1">  1       21 0.51866846E-02 0.30000000E+03</pdfrwt>
<pdfrwt beam="2">0</pdfrwt>
<totfact> 0.27058131E+04</totfact>
</mgrwt>
</event>
<event>
 6    1  0.1295671E-001  0.3000000E+03  0.7818608E-02  0.1093470E+00
         21   -1    0    0  501  502  0.00000000000E+00  0.00000000000E+00  0.46627863255E+01  0.46627863255E+01  0.00000000000E+00 0. -1.
         13   -1    0    0    0    0 -0.00000000000E+00 -0.00000000000E+00 -0.10000000000E+04  0.10000000000E+04  0.00000000000E+00 0.  1.
    9000005    2    1    2  501    0  0.44742418833E+02  0.20309120732E+02 -0.84634582718E+03  0.84777818645E+03  0.34999729490E+01 0.  0.
         13    1    3    3    0    0  0.43835896254E+02  0.19511300537E+02 -0.81728441260E+03  0.81869169272E+03  0.00000000000E+00 0.  1.
          3    1    3    3  501    0  0.90652257907E+00  0.79782019452E+00 -0.29061414577E+02  0.29086493730E+02  0.00000000000E+00 0.  1.
         -3    1    1    2    0  502 -0.44742418833E+02 -0.20309120732E+02 -0.14899138649E+03  0.15688459987E+03  0.00000000000E+00 0. -1.
<mgrwt>
<rscale>  1 0.30000000E+03</rscale>
<asrwt>0</asrwt>
<pdfrwt beam="1">  1       21 0.16955622E-01 0.30000000E+03</pdfrwt>
<pdfrwt beam="2">0</pdfrwt>
<totfact> 0.32775254E+03</totfact>
</mgrwt>
</event>
<event>
 6    1  0.1295671E-001  0.3000000E+03  0.7818608E-02  0.1093470E+00
         21   -1    0    0  501  502  0.00000000000E+00  0.00000000000E+00  0.12780028503E+01  0.12780028503E+01  0.00000000000E+00 0. -1.
         13   -1    0    0    0    0 -0.00000000000E+00 -0.00000000000E+00 -0.10000000000E+04  0.10000000000E+04  0.00000000000E+00 0.  1.
    9000005    2    1    2  501    0  0.20347127218E+02  0.24593704647E+02 -0.72366369537E+03  0.72437382218E+03  0.30715419369E+01 0.  0.
         13    1    3    3    0    0  0.16468448525E+01  0.33278587067E+01 -0.73585245368E+02  0.73678864523E+02  0.00000000000E+00 0.  1.
          3    1    3    3  501    0  0.18700282366E+02  0.21265845940E+02 -0.65007845000E+03  0.65069495766E+03  0.00000000000E+00 0.  1.
         -1    1    1    2    0  502 -0.20347127218E+02 -0.24593704647E+02 -0.27505830178E+03  0.27690418067E+03  0.00000000000E+00 0. -1.
<mgrwt>
<rscale>  1 0.30000000E+03</rscale>
<asrwt>0</asrwt>
<pdfrwt beam="1">  1       21 0.46472929E-02 0.30000000E+03</pdfrwt>
<pdfrwt beam="2">0</pdfrwt>
<totfact> 0.32623796E+04</totfact>
</mgrwt>
</event>
<event>
 6    1  0.1295671E-001  0.3000000E+03  0.7818608E-02  0.1093470E+00
         21   -1    0    0  501  502  0.00000000000E+00  0.00000000000E+00  0.66146621130E+01  0.66146621130E+01  0.00000000000E+00 0. -1.
         13   -1    0    0    0    0 -0.00000000000E+00 -0.00000000000E+00 -0.10000000000E+04  0.10000000000E+04  0.00000000000E+00 0.  1.
    9000005    2    1    2  501    0  0.76891382215E+02  0.20306768744E+02 -0.60141460197E+03  0.60665753025E+03  0.30308457402E+01 0.  0.
         13    1    3    3    0    0  0.38377492454E+02  0.93404244883E+01 -0.28868650676E+03  0.29137600217E+03  0.00000000000E+00 0.  1.
          1    1    3    3  501    0  0.38513889761E+02  0.10966344255E+02 -0.31272809522E+03  0.31528152808E+03  0.00000000000E+00 0.  1.
         -3    1    1    2    0  502 -0.76891382215E+02 -0.20306768744E+02 -0.39197073591E+03  0.39995713186E+03  0.00000000000E+00 0. -1.
<mgrwt>
<rscale>  1 0.30000000E+03</rscale>
<asrwt>0</asrwt>
<pdfrwt beam="1">  1       21 0.24053367E-01 0.30000000E+03</pdfrwt>
<pdfrwt beam="2">0</pdfrwt>
<totfact> 0.16816239E+03</totfact>
</mgrwt>
</event>
<event>
 6    1  0.1295671E-001  0.3000000E+03  0.7818608E-02  0.1093470E+00
         21   -1    0    0  501  502  0.00000000000E+00  0.00000000000E+00  0.41297613530E+01  0.41297613530E+01  0.00000000000E+00 0. -1.
         13   -1    0    0    0    0 -0.00000000000E+00 -0.00000000000E+00 -0.10000000000E+04  0.10000000000E+04  0.00000000000E+00 0.  1.
    9000005    2    1    2  501    0 -0.11583978066E+02 -0.62841145270E+02 -0.54854827962E+03  0.55226680301E+03  0.31950831155E+01 0.  0.
         13    1    3    3    0    0 -0.40612689528E+01 -0.20746023634E+02 -0.19451647172E+03  0.19566182350E+03  0.00000000000E+00 0.  1.
          1    1    3    3  501    0 -0.75227091132E+01 -0.42095121636E+02 -0.35403180789E+03  0.35660497952E+03  0.00000000000E+00 0.  1.
         -1    1    1    2    0  502  0.11583978066E+02  0.62841145270E+02 -0.44732195903E+03  0.45186295834E+03  0.00000000000E+00 0. -1.
<mgrwt>
<rscale>  1 0.30000000E+03</rscale>
<asrwt>0</asrwt>
<pdfrwt beam="1">  1       21 0.15017346E-01 0.30000000E+03</pdfrwt>
<pdfrwt beam="2">0</pdfrwt>
<totfact> 0.41092360E+03</totfact>
</mgrwt>
</event>
<event>
 6    1  0.1295671E-001  0.3000000E+03  0.7818608E-02  0.1093470E+00
         21   -1    0    0  501  502  0.00000000000E+00  0.00000000000E+00  0.10638150107E+01  0.10638150107E+01  0.00000000000E+00 0. -1.
         13   -1    0    0    0    0 -0.00000000000E+00 -0.00000000000E+00 -0.10000000000E+04  0.10000000000E+04  0.00000000000E+00 0.  1.
    9000005    2    1    2  501    0 -0.32409498783E+02  0.18533236331E+01 -0.48227079973E+03  0.48337961519E+03  0.41131117469E+01 0.  0.
         13    1    3    3    0    0 -0.15834447422E+02 -0.11206622396E+01 -0.23942402023E+03  0.23994967613E+03  0.00000000000E+00 0.  1.
          3    1    3    3  501    0 -0.16575051361E+02  0.29739858726E+01 -0.24284677950E+03  0.24342993906E+03  0.00000000000E+00 0.  1.
         -1    1    1    2    0  502  0.32409498783E+02 -0.18533236331E+01 -0.51666538526E+03  0.51768419982E+03  0.00000000000E+00 0. -1.
<mgrwt>
<rscale>  1 0.30000000E+03</rscale>
<asrwt>0</asrwt>
<pdfrwt beam="1">  1       21 0.38684264E-02 0.30000000E+03</pdfrwt>
<pdfrwt beam="2">0</pdfrwt>
<totfact> 0.44481597E+04</totfact>
</mgrwt>
</event>
<event>
 6    1  0.1295671E-001  0.3000000E+03  0.7818608E-02  0.1093470E+00
         21   -1    0    0  501  502  0.00000000000E+00  0.00000000000E+00  0.13836005742E+01  0.13836005742E+01  0.00000000000E+00 0. -1.
         13   -1    0    0    0    0 -0.00000000000E+00 -0.00000000000E+00 -0.10000000000E+04  0.10000000000E+04  0.00000000000E+00 0.  1.
    9000005    2    1    2  501    0  0.12148094130E+02  0.33251940139E+02 -0.65054889651E+03  0.65152040689E+03  0.34214207955E+01 0.  0.
         13    1    3    3    0    0  0.33075647057E+00  0.40380732069E+01 -0.72298525991E+02  0.72411962379E+02  0.00000000000E+00 0.  1.
          1    1    3    3  501    0  0.11817337659E+02  0.29213866932E+02 -0.57825037052E+03  0.57910844451E+03  0.00000000000E+00 0.  1.
         -1    1    1    2    0  502 -0.12148094130E+02 -0.33251940139E+02 -0.34806750291E+03  0.34986319369E+03  0.00000000000E+00 0. -1.
<mgrwt>
<rscale>  1 0.30000000E+03</rscale>
<asrwt>0</asrwt>
<pdfrwt beam="1">  1       21 0.50312854E-02 0.30000000E+03</pdfrwt>
<pdfrwt beam="2">0</pdfrwt>
<totfact> 0.28499940E+04</totfact>
</mgrwt>
</event>
<event>
 6    1  0.1295671E-001  0.3000000E+03  0.7818608E-02  0.1093470E+00
         21   -1    0    0  501  502  0.00000000000E+00  0.00000000000E+00  0.97747821357E+00  0.97747821357E+00  0.00000000000E+00 0. -1.
         13   -1    0    0    0    0 -0.00000000000E+00 -0.00000000000E+00 -0.10000000000E+04  0.10000000000E+04  0.00000000000E+00 0.  1.
    9000005    2    1    2  501    0 -0.29794160570E+02 -0.89038474077E+01 -0.53749770452E+03  0.53840626482E+03  0.32485590848E+01 0.  0.
         13    1    3    3    0    0 -0.64689605264E+01 -0.12951387106E+01 -0.94887266632E+02  0.95116340360E+02  0.00000000000E+00 0.  1.
          1    1    3    3  501    0 -0.23325200043E+02 -0.76087086971E+01 -0.44261043789E+03  0.44328992446E+03  0.00000000000E+00 0.  1.
         -3    1    1    2    0  502  0.29794160570E+02  0.89038474077E+01 -0.46152481727E+03  0.46257121339E+03  0.00000000000E+00 0. -1.
<mgrwt>
<rscale>  1 0.30000000E+03</rscale>
<asrwt>0</asrwt>
<pdfrwt beam="1">  1       21 0.35544737E-02 0.30000000E+03</pdfrwt>
<pdfrwt beam="2">0</pdfrwt>
<totfact> 0.51272793E+04</totfact>
</mgrwt>
</event>
<event>
 6    1  0.1295671E-001  0.3000000E+03  0.7818608E-02  0.1093470E+00
         21   -1    0    0  501  502  0.00000000000E+00  0.00000000000E+00  0.10725289149E+01  0.10725289149E+01  0.00000000000E+00 0. -1.
         13   -1    0    0    0    0 -0.00000000000E+00 -0.00000000000E+00 -0.10000000000E+04  0.10000000000E+04  0.00000000000E+00 0.  1.
    9000005    2    1    2  501    0  0.29005872767E+02  0.12338574036E+02 -0.63112496117E+03  0.63192179092E+03  0.35849909602E+01 0.  0.
         13    1    3    3    0    0  0.16556963228E+01  0.30441806421E-01 -0.24532142222E+02  0.24587969803E+02  0.00000000000E+00 0.  1.
          3    1    3    3  501    0  0.27350176444E+02  0.12308132230E+02 -0.60659281895E+03  0.60733382112E+03  0.00000000000E+00 0.  1.
         -1    1    1    2    0  502 -0.29005872767E+02 -0.12338574036E+02 -0.36780250991E+03  0.36915073799E+03  0.00000000000E+00 0. -1.
<mgrwt>
<rscale>  1 0.30000000E+03</rscale>
<asrwt>0</asrwt>
<pdfrwt beam="1">  1       21 0.39001134E-02 0.30000000E+03</pdfrwt>
<pdfrwt beam="2">0</pdfrwt>
<totfact> 0.43875522E+04</totfact>
</mgrwt>
</event>
<event>
 6    1  0.1295671E-001  0.3000000E+03  0.7818608E-02  0.1093470E+00
         21   -1    0    0  501  502  0.00000000000E+00  0.00000000000E+00  0.11259936065E+01  0.11259936065E+01  0.00000000000E+00 0. -1.
         13   -1    0    0    0    0 -0.00000000000E+00 -0.00000000000E+00 -0.10000000000E+04  0.10000000000E+04  0.00000000000E+00 0.  1.
    9000005    2    1    2  501    0  0.19109113264E+01  0.32891412189E+02 -0.58859911349E+03  0.58953033726E+03  0.34066946658E+01 0.  0.
         13    1    3    3    0    0  0.43429858097E+00  0.13816734674E+02 -0.27657361859E+03  0.27691886406E+03  0.00000000000E+00 0.  1.
          1    1    3    3  501    0  0.14766127454E+01  0.19074677515E+02 -0.31202549490E+03  0.31261147320E+03  0.00000000000E+00 0.  1.
         -1    1    1    2    0  502 -0.19109113264E+01 -0.32891412189E+02 -0.41027489290E+03  0.41159565635E+03  0.00000000000E+00 0. -1.
<mgrwt>
<rscale>  1 0.30000000E+03</rscale>
<asrwt>0</asrwt>
<pdfrwt beam="1">  1       21 0.40945308E-02 0.30000000E+03</pdfrwt>
<pdfrwt beam="2">0</pdfrwt>
<totfact> 0.40424520E+04</totfact>
</mgrwt>
</event>
<event>
 6    1  0.1295671E-001  0.3000000E+03  0.7818608E-02  0.1093470E+00
         21   -1    0    0  501  502  0.00000000000E+00  0.00000000000E+00  0.33571872699E+01  0.33571872699E+01  0.00000000000E+00 0. -1.
         13   -1    0    0    0    0 -0.00000000000E+00 -0.00000000000E+00 -0.10000000000E+04  0.10000000000E+04  0.00000000000E+00 0.  1.
    9000005    2    1    2  501    0  0.35475866133E+02  0.10420348754E+02 -0.88443224561E+03  0.88521180175E+03  0.35236541375E+01 0.  0.
         13    1    3    3    0    0  0.45641291866E+01  0.15855650307E+01 -0.14626499142E+03  0.14634477444E+03  0.00000000000E+00 0.  1.
          3    1    3    3  501    0  0.30911736946E+02  0.88347837230E+01 -0.73816725419E+03  0.73886702731E+03  0.00000000000E+00 0.  1.
         -1    1    1    2    0  502 -0.35475866133E+02 -0.10420348754E+02 -0.11221056712E+03  0.11814538552E+03  0.00000000000E+00 0. -1.
<mgrwt>
<rscale>  1 0.30000000E+03</rscale>
<asrwt>0</asrwt>
<pdfrwt beam="1">  1       21 0.12207979E-01 0.30000000E+03</pdfrwt>
<pdfrwt beam="2">0</pdfrwt>
<totfact> 0.60066474E+03</totfact>
</mgrwt>
</event>
<event>
 6    1  0.1295671E-001  0.3000000E+03  0.7818608E-02  0.1093470E+00
         21   -1    0    0  501  502  0.00000000000E+00  0.00000000000E+00  0.12334227596E+01  0.12334227596E+01  0.00000000000E+00 0. -1.
         13   -1    0    0    0    0 -0.00000000000E+00 -0.00000000000E+00 -0.10000000000E+04  0.10000000000E+04  0.00000000000E+00 0.  1.
    9000005    2    1    2  501    0 -0.76531949984E+01  0.29279970801E+02 -0.75193022484E+03  0.75254873697E+03  0.38275830158E+01 0.  0.
         13    1    3    3    0    0 -0.59977311405E+01  0.15613657989E+02 -0.42315469511E+03  0.42348512971E+03  0.00000000000E+00 0.  1.
          3    1    3    3  501    0 -0.16554638579E+01  0.13666312813E+02 -0.32877552973E+03  0.32906360725E+03  0.00000000000E+00 0.  1.
         -3    1    1    2    0  502  0.76531949984E+01 -0.29279970801E+02 -0.24683635240E+03  0.24868468579E+03  0.00000000000E+00 0. -1.
<mgrwt>
<rscale>  1 0.30000000E+03</rscale>
<asrwt>0</asrwt>
<pdfrwt beam="1">  1       21 0.44851831E-02 0.30000000E+03</pdfrwt>
<pdfrwt beam="2">0</pdfrwt>
<totfact> 0.34651549E+04</totfact>
</mgrwt>
</event>
<event>
 6    1  0.1295671E-001  0.3000000E+03  0.7818608E-02  0.1093470E+00
         21   -1    0    0  501  502  0.00000000000E+00  0.00000000000E+00  0.54235865812E+01  0.54235865812E+01  0.00000000000E+00 0. -1.
         13   -1    0    0    0    0 -0.00000000000E+00 -0.00000000000E+00 -0.10000000000E+04  0.10000000000E+04  0.00000000000E+00 0.  1.
    9000005    2    1    2  501    0 -0.48246803598E+02  0.47844789724E+01 -0.87560673906E+03  0.87695402320E+03  0.32483897142E+01 0.  0.
         13    1    3    3    0    0 -0.10303209704E+02  0.13081196702E+01 -0.21213598040E+03  0.21239006918E+03  0.00000000000E+00 0.  1.
          3    1    3    3  501    0 -0.37943593894E+02  0.34763593023E+01 -0.66347075866E+03  0.66456395402E+03  0.00000000000E+00 0.  1.
         -1    1    1    2    0  502  0.48246803598E+02 -0.47844789724E+01 -0.11896967436E+03  0.12846956338E+03  0.00000000000E+00 0. -1.
<mgrwt>
<rscale>  1 0.30000000E+03</rscale>
<asrwt>0</asrwt>
<pdfrwt beam="1">  1       21 0.19722175E-01 0.30000000E+03</pdfrwt>
<pdfrwt beam="2">0</pdfrwt>
<totfact> 0.24640865E+03</totfact>
</mgrwt>
</event>
<event>
 6    1  0.1295671E-001  0.3000000E+03  0.7818608E-02  0.1093470E+00
         21   -1    0    0  501  502  0.00000000000E+00  0.00000000000E+00  0.36235241514E+01  0.36235241514E+01  0.00000000000E+00 0. -1.
         13   -1    0    0    0    0 -0.00000000000E+00 -0.00000000000E+00 -0.10000000000E+04  0.10000000000E+04  0.00000000000E+00 0.  1.
    9000005    2    1    2  501    0  0.24888685128E+02 -0.23199726794E+02 -0.91207414215E+03  0.91271391279E+03  0.31259961963E+01 0.  0.
         13    1    3    3    0    0  0.72405579973E+01 -0.64666117544E+01 -0.22447827969E+03  0.22468809670E+03  0.00000000000E+00 0.  1.
          1    1    3    3  501    0  0.17648127131E+02 -0.16733115039E+02 -0.68759586247E+03  0.68802581609E+03  0.00000000000E+00 0.  1.
         -3    1    1    2    0  502 -0.24888685128E+02  0.23199726794E+02 -0.84302333695E+02  0.90909611357E+02  0.00000000000E+00 0. -1.
<mgrwt>
<rscale>  1 0.30000000E+03</rscale>
<asrwt>0</asrwt>
<pdfrwt beam="1">  1       21 0.13176479E-01 0.30000000E+03</pdfrwt>
<pdfrwt beam="2">0</pdfrwt>
<totfact> 0.52261740E+03</totfact>
</mgrwt>
</event>
<event>
 6    1  0.1295671E-001  0.3000000E+03  0.7818608E-02  0.1093470E+00
         21   -1    0    0  501  502  0.00000000000E+00  0.00000000000E+00  0.47967893894E+01  0.47967893894E+01  0.00000000000E+00 0. -1.
         13   -1    0    0    0    0 -0.00000000000E+00 -0.00000000000E+00 -0.10000000000E+04  0.10000000000E+04  0.00000000000E+00 0.  1.
    9000005    2    1    2  501    0  0.86748995134E+00 -0.51309643757E+02 -0.83481782850E+03  0.83640170966E+03  0.36852495756E+01 0.  0.
         13    1    3    3    0    0  0.75006350674E+00 -0.11659661674E+02 -0.21450287068E+03  0.21482083660E+03  0.00000000000E+00 0.  1.
          3    1    3    3  501    0  0.11742644460E+00 -0.39649982083E+02 -0.62031495782E+03  0.62158087306E+03  0.00000000000E+00 0.  1.
         -1    1    1    2    0  502 -0.86748995134E+00  0.51309643757E+02 -0.16038538211E+03  0.16839507973E+03  0.00000000000E+00 0. -1.
<mgrwt>
<rscale>  1 0.30000000E+03</rscale>
<asrwt>0</asrwt>
<pdfrwt beam="1">  1       21 0.17442907E-01 0.30000000E+03</pdfrwt>
<pdfrwt beam="2">0</pdfrwt>
<totfact> 0.31079563E+03</totfact>
</mgrwt>
</event>
<event>
 6    1  0.1295671E-001  0.3000000E+03  0.7818608E-02  0.1093470E+00
         21   -1    0    0  501  502  0.00000000000E+00  0.00000000000E+00  0.12854453021E+01  0.12854453021E+01  0.00000000000E+00 0. -1.
         13   -1    0    0    0    0 -0.00000000000E+00 -0.00000000000E+00 -0.10000000000E+04  0.10000000000E+04  0.00000000000E+00 0.  1.
    9000005    2    1    2  501    0  0.63465953324E+01  0.35187792337E+02 -0.50808827732E+03  0.50935800751E+03  0.36636402354E+01 0.  0.
         13    1    3    3    0    0  0.68133445501E+01  0.31738709646E+02 -0.45811972627E+03  0.45926838663E+03  0.00000000000E+00 0.  1.
          3    1    3    3  501    0 -0.46674921768E+00  0.34490826912E+01 -0.49968551044E+02  0.50089620878E+02  0.00000000000E+00 0.  1.
         -1    1    1    2    0  502 -0.63465953324E+01 -0.35187792337E+02 -0.49062627738E+03  0.49192743780E+03  0.00000000000E+00 0. -1.
<mgrwt>
<rscale>  1 0.30000000E+03</rscale>
<asrwt>0</asrwt>
<pdfrwt beam="1">  1       21 0.46743564E-02 0.30000000E+03</pdfrwt>
<pdfrwt beam="2">0</pdfrwt>
<totfact> 0.32303396E+04</totfact>
</mgrwt>
</event>
<event>
 6    1  0.1295671E-001  0.3000000E+03  0.7818608E-02  0.1093470E+00
         21   -1    0    0  501  502  0.00000000000E+00  0.00000000000E+00  0.17710881062E+01  0.17710881062E+01  0.00000000000E+00 0. -1.
         13   -1    0    0    0    0 -0.00000000000E+00 -0.00000000000E+00 -0.10000000000E+04  0.10000000000E+04  0.00000000000E+00 0.  1.
    9000005    2    1    2  501    0  0.11033732021E+02  0.28094655159E+02 -0.84765953911E+03  0.84820615425E+03  0.39916120331E+01 0.  0.
         13    1    3    3    0    0  0.19517358836E+01  0.98264993795E+01 -0.29615174027E+03  0.29632114779E+03  0.00000000000E+00 0.  1.
          1    1    3    3  501    0  0.90819961375E+01  0.18268155779E+02 -0.55150779884E+03  0.55188500646E+03  0.00000000000E+00 0.  1.
         -1    1    1    2    0  502 -0.11033732021E+02 -0.28094655159E+02 -0.15056937278E+03  0.15356493386E+03  0.00000000000E+00 0. -1.
<mgrwt>
<rscale>  1 0.30000000E+03</rscale>
<asrwt>0</asrwt>
<pdfrwt beam="1">  1       21 0.64403340E-02 0.30000000E+03</pdfrwt>
<pdfrwt beam="2">0</pdfrwt>
<totfact> 0.18645303E+04</totfact>
</mgrwt>
</event>
<event>
 6    1  0.1295671E-001  0.3000000E+03  0.7818608E-02  0.1093470E+00
         21   -1    0    0  501  502  0.00000000000E+00  0.00000000000E+00  0.16598722243E+01  0.16598722243E+01  0.00000000000E+00 0. -1.
         13   -1    0    0    0    0 -0.00000000000E+00 -0.00000000000E+00 -0.10000000000E+04  0.10000000000E+04  0.00000000000E+00 0.  1.
    9000005    2    1    2  501    0 -0.25896669456E+02 -0.16146987892E+02 -0.83045322833E+03  0.83102173547E+03  0.36328619080E+01 0.  0.
         13    1    3    3    0    0 -0.23796300212E+00 -0.22926905584E+00 -0.25874638416E+02  0.25876748325E+02  0.00000000000E+00 0.  1.
          1    1    3    3  501    0 -0.25658706454E+02 -0.15917718836E+02 -0.80457858991E+03  0.80514498715E+03  0.00000000000E+00 0.  1.
         -1    1    1    2    0  502  0.25896669456E+02  0.16146987892E+02 -0.16788689945E+03  0.17063813675E+03  0.00000000000E+00 0. -1.
<mgrwt>
<rscale>  1 0.30000000E+03</rscale>
<asrwt>0</asrwt>
<pdfrwt beam="1">  1       21 0.60359117E-02 0.30000000E+03</pdfrwt>
<pdfrwt beam="2">0</pdfrwt>
<totfact> 0.20855888E+04</totfact>
</mgrwt>
</event>
<event>
 6    1  0.1295671E-001  0.3000000E+03  0.7818608E-02  0.1093470E+00
         21   -1    0    0  501  502  0.00000000000E+00  0.00000000000E+00  0.16478668238E+01  0.16478668238E+01  0.00000000000E+00 0. -1.
         13   -1    0    0    0    0 -0.00000000000E+00 -0.00000000000E+00 -0.10000000000E+04  0.10000000000E+04  0.00000000000E+00 0.  1.
    9000005    2    1    2  501    0 -0.17895843116E+02  0.36175932871E+02 -0.45520998202E+03  0.45700821010E+03  0.33789115175E+01 0.  0.
         13    1    3    3    0    0 -0.23734728196E+01  0.38579502926E+01 -0.63223103042E+02  0.63385155297E+02  0.00000000000E+00 0.  1.
          1    1    3    3  501    0 -0.15522370296E+02  0.32317982578E+02 -0.39198687898E+03  0.39362305480E+03  0.00000000000E+00 0.  1.
         -1    1    1    2    0  502  0.17895843116E+02 -0.36175932871E+02 -0.54314215115E+03  0.54463965673E+03  0.00000000000E+00 0. -1.
<mgrwt>
<rscale>  1 0.30000000E+03</rscale>
<asrwt>0</asrwt>
<pdfrwt beam="1">  1       21 0.59922556E-02 0.30000000E+03</pdfrwt>
<pdfrwt beam="2">0</pdfrwt>
<totfact> 0.21118653E+04</totfact>
</mgrwt>
</event>
<event>
 6    1  0.1295671E-001  0.3000000E+03  0.7818608E-02  0.1093470E+00
         21   -1    0    0  501  502  0.00000000000E+00  0.00000000000E+00  0.11524077015E+01  0.11524077015E+01  0.00000000000E+00 0. -1.
         13   -1    0    0    0    0 -0.00000000000E+00 -0.00000000000E+00 -0.10000000000E+04  0.10000000000E+04  0.00000000000E+00 0.  1.
    9000005    2    1    2  501    0 -0.31624223687E+02  0.62248055287E+01 -0.65407823965E+03  0.65487976042E+03  0.32120554592E+01 0.  0.
         13    1    3    3    0    0 -0.64771847936E+01  0.59813580549E-01 -0.12159636646E+03  0.12176877201E+03  0.00000000000E+00 0.  1.
          1    1    3    3  501    0 -0.25147038894E+02  0.61649919481E+01 -0.53248187319E+03  0.53311098841E+03  0.00000000000E+00 0.  1.
         -3    1    1    2    0  502  0.31624223687E+02 -0.62248055287E+01 -0.34476935265E+03  0.34627264728E+03  0.00000000000E+00 0. -1.
<mgrwt>
<rscale>  1 0.30000000E+03</rscale>
<asrwt>0</asrwt>
<pdfrwt beam="1">  1       21 0.41905823E-02 0.30000000E+03</pdfrwt>
<pdfrwt beam="2">0</pdfrwt>
<totfact> 0.38873527E+04</totfact>
</mgrwt>
</event>
<event>
 6    1  0.1295671E-001  0.3000000E+03  0.7818608E-02  0.1093470E+00
         21   -1    0    0  501  502  0.00000000000E+00  0.00000000000E+00  0.24439656733E+01  0.24439656733E+01  0.00000000000E+00 0. -1.
         13   -1    0    0    0    0 -0.00000000000E+00 -0.00000000000E+00 -0.10000000000E+04  0.10000000000E+04  0.00000000000E+00 0.  1.
    9000005    2    1    2  501    0 -0.41688941922E+02 -0.29278680910E+01 -0.76603000248E+03  0.76717636545E+03  0.33272694859E+01 0.  0.
         13    1    3    3    0    0 -0.10137178821E+02 -0.92218412028E+00 -0.16189805065E+03  0.16221772906E+03  0.00000000000E+00 0.  1.
          3    1    3    3  501    0 -0.31551763100E+02 -0.20056839707E+01 -0.60413195183E+03  0.60495863639E+03  0.00000000000E+00 0.  1.
         -1    1    1    2    0  502  0.41688941922E+02  0.29278680910E+01 -0.23152603185E+03  0.23526760022E+03  0.00000000000E+00 0. -1.
<mgrwt>
<rscale>  1 0.30000000E+03</rscale>
<asrwt>0</asrwt>
<pdfrwt beam="1">  1       21 0.88871666E-02 0.30000000E+03</pdfrwt>
<pdfrwt beam="2">0</pdfrwt>
<totfact> 0.10612536E+04</totfact>
</mgrwt>
</event>
<event>
 6    1  0.1295671E-001  0.3000000E+03  0.7818608E-02  0.1093470E+00
         21   -1    0    0  501  502  0.00000000000E+00  0.00000000000E+00  0.10389375783E+01  0.10389375783E+01  0.00000000000E+00 0. -1.
         13   -1    0    0    0    0 -0.00000000000E+00 -0.00000000000E+00 -0.10000000000E+04  0.10000000000E+04  0.00000000000E+00 0.  1.
    9000005    2    1    2  501    0  0.29973219839E+02  0.98755947732E+01 -0.40470871759E+03  0.40594922113E+03  0.31149263970E+01 0.  0.
         13    1    3    3    0    0  0.20132190930E+02  0.54703522495E+01 -0.25400032678E+03  0.25485563731E+03  0.00000000000E+00 0.  1.
          3    1    3    3  501    0  0.98410289091E+01  0.44052425236E+01 -0.15070839081E+03  0.15109358382E+03  0.00000000000E+00 0.  1.
         -1    1    1    2    0  502 -0.29973219839E+02 -0.98755947732E+01 -0.59425234483E+03  0.59508971644E+03  0.00000000000E+00 0. -1.
<mgrwt>
<rscale>  1 0.30000000E+03</rscale>
<asrwt>0</asrwt>
<pdfrwt beam="1">  1       21 0.37779628E-02 0.30000000E+03</pdfrwt>
<pdfrwt beam="2">0</pdfrwt>
<totfact> 0.46286132E+04</totfact>
</mgrwt>
</event>
<event>
 6    1  0.1295671E-001  0.3000000E+03  0.7818608E-02  0.1093470E+00
         21   -1    0    0  501  502  0.00000000000E+00  0.00000000000E+00  0.54593190036E+01  0.54593190036E+01  0.00000000000E+00 0. -1.
         13   -1    0    0    0    0 -0.00000000000E+00 -0.00000000000E+00 -0.10000000000E+04  0.10000000000E+04  0.00000000000E+00 0.  1.
    9000005    2    1    2  501    0 -0.27486339209E+02 -0.27219930717E+02 -0.92553952515E+03  0.92635443306E+03  0.35636458041E+01 0.  0.
         13    1    3    3    0    0 -0.60005866563E+01 -0.65838767341E+01 -0.24909226821E+03  0.24925150462E+03  0.00000000000E+00 0.  1.
          3    1    3    3  501    0 -0.21485752553E+02 -0.20636053983E+02 -0.67644725694E+03  0.67710292844E+03  0.00000000000E+00 0.  1.
         -1    1    1    2    0  502  0.27486339209E+02  0.27219930717E+02 -0.69001155848E+02  0.79104885941E+02  0.00000000000E+00 0. -1.
<mgrwt>
<rscale>  1 0.30000000E+03</rscale>
<asrwt>0</asrwt>
<pdfrwt beam="1">  1       21 0.19852111E-01 0.30000000E+03</pdfrwt>
<pdfrwt beam="2">0</pdfrwt>
<totfact> 0.24334383E+03</totfact>
</mgrwt>
</event>
<event>
 6    1  0.1295671E-001  0.3000000E+03  0.7818608E-02  0.1093470E+00
         21   -1    0    0  501  502  0.00000000000E+00  0.00000000000E+00  0.11850915542E+01  0.11850915542E+01  0.00000000000E+00 0. -1.
         13   -1    0    0    0    0 -0.00000000000E+00 -0.00000000000E+00 -0.10000000000E+04  0.10000000000E+04  0.00000000000E+00 0.  1.
    9000005    2    1    2  501    0  0.12490348372E+02  0.31334847950E+02 -0.40747315470E+03  0.40888200088E+03  0.34981915745E+01 0.  0.
         13    1    3    3    0    0  0.10300138200E+02  0.23395069456E+02 -0.32192737622E+03  0.32294064111E+03  0.00000000000E+00 0.  1.
          3    1    3    3  501    0  0.21902101719E+01  0.79397784946E+01 -0.85545778483E+02  0.85941359771E+02  0.00000000000E+00 0.  1.
         -1    1    1    2    0  502 -0.12490348372E+02 -0.31334847950E+02 -0.59134175374E+03  0.59230309067E+03  0.00000000000E+00 0. -1.
<mgrwt>
<rscale>  1 0.30000000E+03</rscale>
<asrwt>0</asrwt>
<pdfrwt beam="1">  1       21 0.43094329E-02 0.30000000E+03</pdfrwt>
<pdfrwt beam="2">0</pdfrwt>
<totfact> 0.37079066E+04</totfact>
</mgrwt>
</event>
<event>
 6    1  0.1295671E-001  0.3000000E+03  0.7818608E-02  0.1093470E+00
         21   -1    0    0  501  502  0.00000000000E+00  0.00000000000E+00  0.79292775922E+01  0.79292775922E+01  0.00000000000E+00 0. -1.
         13   -1    0    0    0    0 -0.00000000000E+00 -0.00000000000E+00 -0.10000000000E+04  0.10000000000E+04  0.00000000000E+00 0.  1.
    9000005    2    1    2  501    0 -0.85418324421E+02 -0.23288027293E+02 -0.54842080164E+03  0.55553136142E+03  0.33309885030E+01 0.  0.
         13    1    3    3    0    0 -0.61317196552E+02 -0.18102596218E+02 -0.39160048685E+03  0.39678513567E+03  0.00000000000E+00 0.  1.
          3    1    3    3  501    0 -0.24101127869E+02 -0.51854310748E+01 -0.15682031479E+03  0.15874622575E+03  0.00000000000E+00 0.  1.
         -3    1    1    2    0  502  0.85418324421E+02  0.23288027293E+02 -0.44364992077E+03  0.45239791618E+03  0.00000000000E+00 0. -1.
<mgrwt>
<rscale>  1 0.30000000E+03</rscale>
<asrwt>0</asrwt>
<pdfrwt beam="1">  1       21 0.28833798E-01 0.30000000E+03</pdfrwt>
<pdfrwt beam="2">0</pdfrwt>
<totfact> 0.11767757E+03</totfact>
</mgrwt>
</event>
<event>
 6    1  0.1295671E-001  0.3000000E+03  0.7818608E-02  0.1093470E+00
         21   -1    0    0  501  502  0.00000000000E+00  0.00000000000E+00  0.15447282240E+01  0.15447282240E+01  0.00000000000E+00 0. -1.
         13   -1    0    0    0    0 -0.00000000000E+00 -0.00000000000E+00 -0.10000000000E+04  0.10000000000E+04  0.00000000000E+00 0.  1.
    9000005    2    1    2  501    0  0.21987481662E+02  0.32426945506E+02 -0.47548869024E+03  0.47711265298E+03  0.34688528003E+01 0.  0.
         13    1    3    3    0    0  0.19083291938E+02  0.29287817200E+02 -0.43330480067E+03  0.43471254704E+03  0.00000000000E+00 0.  1.
          3    1    3    3  501    0  0.29041897238E+01  0.31391283059E+01 -0.42183889571E+02  0.42400105941E+02  0.00000000000E+00 0.  1.
         -3    1    1    2    0  502 -0.21987481662E+02 -0.32426945506E+02 -0.52296658153E+03  0.52443207525E+03  0.00000000000E+00 0. -1.
<mgrwt>
<rscale>  1 0.30000000E+03</rscale>
<asrwt>0</asrwt>
<pdfrwt beam="1">  1       21 0.56172054E-02 0.30000000E+03</pdfrwt>
<pdfrwt beam="2">0</pdfrwt>
<totfact> 0.23604386E+04</totfact>
</mgrwt>
</event>
<event>
 6    1  0.1295671E-001  0.3000000E+03  0.7818608E-02  0.1093470E+00
         21   -1    0    0  501  502  0.00000000000E+00  0.00000000000E+00  0.13583073748E+01  0.13583073748E+01  0.00000000000E+00 0. -1.
         13   -1    0    0    0    0 -0.00000000000E+00 -0.00000000000E+00 -0.10000000000E+04  0.10000000000E+04  0.00000000000E+00 0.  1.
    9000005    2    1    2  501    0 -0.26023912437E+02  0.21529342964E+02 -0.69822217249E+03  0.69904614304E+03  0.32482786818E+01 0.  0.
         13    1    3    3    0    0 -0.34928999057E+01  0.32260350232E+01 -0.77691674023E+02  0.77837034015E+02  0.00000000000E+00 0.  1.
          1    1    3    3  501    0 -0.22531012532E+02  0.18303307941E+02 -0.62053049847E+03  0.62120910902E+03  0.00000000000E+00 0.  1.
         -1    1    1    2    0  502  0.26023912437E+02 -0.21529342964E+02 -0.30041952013E+03  0.30231216433E+03  0.00000000000E+00 0. -1.
<mgrwt>
<rscale>  1 0.30000000E+03</rscale>
<asrwt>0</asrwt>
<pdfrwt beam="1">  1       21 0.49393100E-02 0.30000000E+03</pdfrwt>
<pdfrwt beam="2">0</pdfrwt>
<totfact> 0.29410432E+04</totfact>
</mgrwt>
</event>
<event>
 6    1  0.1295671E-001  0.3000000E+03  0.7818608E-02  0.1093470E+00
         21   -1    0    0  501  502  0.00000000000E+00  0.00000000000E+00  0.12355584649E+01  0.12355584649E+01  0.00000000000E+00 0. -1.
         13   -1    0    0    0    0 -0.00000000000E+00 -0.00000000000E+00 -0.10000000000E+04  0.10000000000E+04  0.00000000000E+00 0.  1.
    9000005    2    1    2  501    0  0.17370860418E+02 -0.29049668122E+02 -0.63162394927E+03  0.63253816077E+03  0.31751415005E+01 0.  0.
         13    1    3    3    0    0  0.12713051539E+01 -0.41383343022E+01 -0.76687168512E+02  0.76809269245E+02  0.00000000000E+00 0.  1.
          3    1    3    3  501    0  0.16099555264E+02 -0.24911333820E+02 -0.55493678076E+03  0.55572889152E+03  0.00000000000E+00 0.  1.
         -3    1    1    2    0  502 -0.17370860418E+02  0.29049668122E+02 -0.36714049226E+03  0.36869739770E+03  0.00000000000E+00 0. -1.
<mgrwt>
<rscale>  1 0.30000000E+03</rscale>
<asrwt>0</asrwt>
<pdfrwt beam="1">  1       21 0.44929493E-02 0.30000000E+03</pdfrwt>
<pdfrwt beam="2">0</pdfrwt>
<totfact> 0.34549992E+04</totfact>
</mgrwt>
</event>
<event>
 6    1  0.1295671E-001  0.3000000E+03  0.7818608E-02  0.1093470E+00
         21   -1    0    0  501  502  0.00000000000E+00  0.00000000000E+00  0.24129478189E+01  0.24129478189E+01  0.00000000000E+00 0. -1.
         13   -1    0    0    0    0 -0.00000000000E+00 -0.00000000000E+00 -0.10000000000E+04  0.10000000000E+04  0.00000000000E+00 0.  1.
    9000005    2    1    2  501    0  0.36456094859E+02  0.21382690812E+02 -0.75365681750E+03  0.75484835885E+03  0.33436475003E+01 0.  0.
         13    1    3    3    0    0  0.19280075815E+02  0.94626538596E+01 -0.37281955551E+03  0.37343765760E+03  0.00000000000E+00 0.  1.
          3    1    3    3  501    0  0.17176019045E+02  0.11920036952E+02 -0.38083726198E+03  0.38141070125E+03  0.00000000000E+00 0.  1.
         -3    1    1    2    0  502 -0.36456094859E+02 -0.21382690812E+02 -0.24393023468E+03  0.24756458897E+03  0.00000000000E+00 0. -1.
<mgrwt>
<rscale>  1 0.30000000E+03</rscale>
<asrwt>0</asrwt>
<pdfrwt beam="1">  1       21 0.87743742E-02 0.30000000E+03</pdfrwt>
<pdfrwt beam="2">0</pdfrwt>
<totfact> 0.10855015E+04</totfact>
</mgrwt>
</event>
<event>
 6    1  0.1295671E-001  0.3000000E+03  0.7818608E-02  0.1093470E+00
         21   -1    0    0  501  502  0.00000000000E+00  0.00000000000E+00  0.19999135079E+01  0.19999135079E+01  0.00000000000E+00 0. -1.
         13   -1    0    0    0    0 -0.00000000000E+00 -0.00000000000E+00 -0.10000000000E+04  0.10000000000E+04  0.00000000000E+00 0.  1.
    9000005    2    1    2  501    0 -0.30434356551E+02 -0.32540188151E+02 -0.50250566467E+03  0.50450635982E+03  0.54415228054E+01 0.  0.
         13    1    3    3    0    0 -0.13352581815E+02 -0.15608919730E+02 -0.26045227148E+03  0.26126101036E+03  0.00000000000E+00 0.  1.
          1    1    3    3  501    0 -0.17081774735E+02 -0.16931268421E+02 -0.24205339319E+03  0.24324534946E+03  0.00000000000E+00 0.  1.
         -3    1    1    2    0  502  0.30434356551E+02  0.32540188151E+02 -0.49549442183E+03  0.49749355369E+03  0.00000000000E+00 0. -1.
<mgrwt>
<rscale>  1 0.30000000E+03</rscale>
<asrwt>0</asrwt>
<pdfrwt beam="1">  1       21 0.72724281E-02 0.30000000E+03</pdfrwt>
<pdfrwt beam="2">0</pdfrwt>
<totfact> 0.15096372E+04</totfact>
</mgrwt>
</event>
<event>
 6    1  0.1295671E-001  0.3000000E+03  0.7818608E-02  0.1093470E+00
         21   -1    0    0  501  502  0.00000000000E+00  0.00000000000E+00  0.29878661572E+01  0.29878661572E+01  0.00000000000E+00 0. -1.
         13   -1    0    0    0    0 -0.00000000000E+00 -0.00000000000E+00 -0.10000000000E+04  0.10000000000E+04  0.00000000000E+00 0.  1.
    9000005    2    1    2  501    0  0.42085251328E+02  0.18323382565E+02 -0.22883955145E+03  0.23344512461E+03  0.47086270183E+01 0.  0.
         13    1    3    3    0    0  0.38910517865E+02  0.16446495286E+02 -0.21570827004E+03  0.21980576282E+03  0.00000000000E+00 0.  1.
          1    1    3    3  501    0  0.31747334630E+01  0.18768872791E+01 -0.13131281415E+02  0.13639361789E+02  0.00000000000E+00 0.  1.
         -1    1    1    2    0  502 -0.42085251328E+02 -0.18323382565E+02 -0.76817258239E+03  0.76954274154E+03  0.00000000000E+00 0. -1.
<mgrwt>
<rscale>  1 0.30000000E+03</rscale>
<asrwt>0</asrwt>
<pdfrwt beam="1">  1       21 0.10864991E-01 0.30000000E+03</pdfrwt>
<pdfrwt beam="2">0</pdfrwt>
<totfact> 0.74148686E+03</totfact>
</mgrwt>
</event>
<event>
 6    1  0.1295671E-001  0.3000000E+03  0.7818608E-02  0.1093470E+00
         21   -1    0    0  501  502  0.00000000000E+00  0.00000000000E+00  0.17448988056E+01  0.17448988056E+01  0.00000000000E+00 0. -1.
         13   -1    0    0    0    0 -0.00000000000E+00 -0.00000000000E+00 -0.10000000000E+04  0.10000000000E+04  0.00000000000E+00 0.  1.
    9000005    2    1    2  501    0  0.11663292652E+02 -0.32655837361E+02 -0.77800060787E+03  0.77877746186E+03  0.26368813431E+01 0.  0.
         13    1    3    3    0    0  0.35898628043E+01 -0.12498698093E+02 -0.31357963836E+03  0.31384915830E+03  0.00000000000E+00 0.  1.
          1    1    3    3  501    0  0.80734298480E+01 -0.20157139268E+02 -0.46442096951E+03  0.46492830356E+03  0.00000000000E+00 0.  1.
         -1    1    1    2    0  502 -0.11663292652E+02  0.32655837361E+02 -0.22025449332E+03  0.22296743695E+03  0.00000000000E+00 0. -1.
<mgrwt>
<rscale>  1 0.30000000E+03</rscale>
<asrwt>0</asrwt>
<pdfrwt beam="1">  1       21 0.63450999E-02 0.30000000E+03</pdfrwt>
<pdfrwt beam="2">0</pdfrwt>
<totfact> 0.19132023E+04</totfact>
</mgrwt>
</event>
<event>
 6    1  0.1295671E-001  0.3000000E+03  0.7818608E-02  0.1093470E+00
         21   -1    0    0  501  502  0.00000000000E+00  0.00000000000E+00  0.10452723682E+01  0.10452723682E+01  0.00000000000E+00 0. -1.
         13   -1    0    0    0    0 -0.00000000000E+00 -0.00000000000E+00 -0.10000000000E+04  0.10000000000E+04  0.00000000000E+00 0.  1.
    9000005    2    1    2  501    0  0.11126209449E+02 -0.29218070241E+02 -0.60357747196E+03  0.60443379691E+03  0.75473187220E+01 0.  0.
         13    1    3    3    0    0  0.11899680815E+02 -0.26948585254E+02 -0.57577679777E+03  0.57652992073E+03  0.00000000000E+00 0.  1.
          1    1    3    3  501    0 -0.77347136629E+00 -0.22694849872E+01 -0.27800674193E+02  0.27903876176E+02  0.00000000000E+00 0.  1.
         -1    1    1    2    0  502 -0.11126209449E+02  0.29218070241E+02 -0.39537725567E+03  0.39661147546E+03  0.00000000000E+00 0. -1.
<mgrwt>
<rscale>  1 0.30000000E+03</rscale>
<asrwt>0</asrwt>
<pdfrwt beam="1">  1       21 0.38009984E-02 0.30000000E+03</pdfrwt>
<pdfrwt beam="2">0</pdfrwt>
<totfact> 0.45815853E+04</totfact>
</mgrwt>
</event>
<event>
 6    1  0.1295671E-001  0.3000000E+03  0.7818608E-02  0.1093470E+00
         21   -1    0    0  501  502  0.00000000000E+00  0.00000000000E+00  0.95864710100E+00  0.95864710100E+00  0.00000000000E+00 0. -1.
         13   -1    0    0    0    0 -0.00000000000E+00 -0.00000000000E+00 -0.10000000000E+04  0.10000000000E+04  0.00000000000E+00 0.  1.
    9000005    2    1    2  501    0  0.98319317824E+01 -0.28979450047E+02 -0.53699734253E+03  0.53790234067E+03  0.60255129571E+01 0.  0.
         13    1    3    3    0    0  0.67465348468E+00 -0.73208468403E+01 -0.16379828243E+03  0.16396318881E+03  0.00000000000E+00 0.  1.
          3    1    3    3  501    0  0.91572782978E+01 -0.21658603207E+02 -0.37319906010E+03  0.37393915186E+03  0.00000000000E+00 0.  1.
         -3    1    1    2    0  502 -0.98319317824E+01  0.28979450047E+02 -0.46204401037E+03  0.46305630643E+03  0.00000000000E+00 0. -1.
<mgrwt>
<rscale>  1 0.30000000E+03</rscale>
<asrwt>0</asrwt>
<pdfrwt beam="1">  1       21 0.34859968E-02 0.30000000E+03</pdfrwt>
<pdfrwt beam="2">0</pdfrwt>
<totfact> 0.52971152E+04</totfact>
</mgrwt>
</event>
<event>
 6    1  0.1295671E-001  0.3000000E+03  0.7818608E-02  0.1093470E+00
         21   -1    0    0  501  502  0.00000000000E+00  0.00000000000E+00  0.27829952016E+01  0.27829952016E+01  0.00000000000E+00 0. -1.
         13   -1    0    0    0    0 -0.00000000000E+00 -0.00000000000E+00 -0.10000000000E+04  0.10000000000E+04  0.00000000000E+00 0.  1.
    9000005    2    1    2  501    0  0.23631037204E+02 -0.28881059727E+02 -0.85284352975E+03  0.85366478093E+03  0.29883828307E+01 0.  0.
         13    1    3    3    0    0  0.55607187162E+01 -0.84687503938E+01 -0.24978244803E+03  0.24998782504E+03  0.00000000000E+00 0.  1.
          3    1    3    3  501    0  0.18070318488E+02 -0.20412309333E+02 -0.60306108172E+03  0.60367695588E+03  0.00000000000E+00 0.  1.
         -1    1    1    2    0  502 -0.23631037204E+02  0.28881059727E+02 -0.14437347505E+03  0.14911821427E+03  0.00000000000E+00 0. -1.
<mgrwt>
<rscale>  1 0.30000000E+03</rscale>
<asrwt>0</asrwt>
<pdfrwt beam="1">  1       21 0.10120004E-01 0.30000000E+03</pdfrwt>
<pdfrwt beam="2">0</pdfrwt>
<totfact> 0.84216956E+03</totfact>
</mgrwt>
</event>
<event>
 6    1  0.1295671E-001  0.3000000E+03  0.7818608E-02  0.1093470E+00
         21   -1    0    0  501  502  0.00000000000E+00  0.00000000000E+00  0.16784839042E+01  0.16784839042E+01  0.00000000000E+00 0. -1.
         13   -1    0    0    0    0 -0.00000000000E+00 -0.00000000000E+00 -0.10000000000E+04  0.10000000000E+04  0.00000000000E+00 0.  1.
    9000005    2    1    2  501    0 -0.54208018316E+01  0.33206166055E+02 -0.78429919784E+03  0.78502764206E+03  0.33365435007E+01 0.  0.
         13    1    3    3    0    0 -0.38556994754E+01  0.13795947490E+02 -0.32173206408E+03  0.32205079668E+03  0.00000000000E+00 0.  1.
          1    1    3    3  501    0 -0.15651023563E+01  0.19410218566E+02 -0.46256713375E+03  0.46297684538E+03  0.00000000000E+00 0.  1.
         -1    1    1    2    0  502  0.54208018316E+01 -0.33206166055E+02 -0.21402231826E+03  0.21665084184E+03  0.00000000000E+00 0. -1.
<mgrwt>
<rscale>  1 0.30000000E+03</rscale>
<asrwt>0</asrwt>
<pdfrwt beam="1">  1       21 0.61035907E-02 0.30000000E+03</pdfrwt>
<pdfrwt beam="2">0</pdfrwt>
<totfact> 0.20458469E+04</totfact>
</mgrwt>
</event>
<event>
 6    1  0.1295671E-001  0.3000000E+03  0.7818608E-02  0.1093470E+00
         21   -1    0    0  501  502  0.00000000000E+00  0.00000000000E+00  0.95175417059E+00  0.95175417059E+00  0.00000000000E+00 0. -1.
         13   -1    0    0    0    0 -0.00000000000E+00 -0.00000000000E+00 -0.10000000000E+04  0.10000000000E+04  0.00000000000E+00 0.  1.
    9000005    2    1    2  501    0  0.19588458988E+02  0.23303781946E+02 -0.42858786722E+03  0.42967964953E+03  0.32042647581E+01 0.  0.
         13    1    3    3    0    0  0.17057351552E+02  0.19792285424E+02 -0.35101479417E+03  0.35198589962E+03  0.00000000000E+00 0.  1.
          1    1    3    3  501    0  0.25311074354E+01  0.35114965223E+01 -0.77573073054E+02  0.77693749914E+02  0.00000000000E+00 0.  1.
         -1    1    1    2    0  502 -0.19588458988E+02 -0.23303781946E+02 -0.57046037861E+03  0.57127210464E+03  0.00000000000E+00 0. -1.
<mgrwt>
<rscale>  1 0.30000000E+03</rscale>
<asrwt>0</asrwt>
<pdfrwt beam="1">  1       21 0.34609316E-02 0.30000000E+03</pdfrwt>
<pdfrwt beam="2">0</pdfrwt>
<totfact> 0.53614750E+04</totfact>
</mgrwt>
</event>
<event>
 6    1  0.1295671E-001  0.3000000E+03  0.7818608E-02  0.1093470E+00
         21   -1    0    0  501  502  0.00000000000E+00  0.00000000000E+00  0.11357721281E+01  0.11357721281E+01  0.00000000000E+00 0. -1.
         13   -1    0    0    0    0 -0.00000000000E+00 -0.00000000000E+00 -0.10000000000E+04  0.10000000000E+04  0.00000000000E+00 0.  1.
    9000005    2    1    2  501    0 -0.21660235516E+02  0.21179533492E+02 -0.71691571259E+03  0.71756443417E+03  0.35832647038E+01 0.  0.
         13    1    3    3    0    0 -0.48289603970E+01  0.48740019326E+01 -0.20034271354E+03  0.20046016468E+03  0.00000000000E+00 0.  1.
          1    1    3    3  501    0 -0.16831275119E+02  0.16305531559E+02 -0.51657299905E+03  0.51710426949E+03  0.00000000000E+00 0.  1.
         -3    1    1    2    0  502  0.21660235516E+02 -0.21179533492E+02 -0.28194851528E+03  0.28357133796E+03  0.00000000000E+00 0. -1.
<mgrwt>
<rscale>  1 0.30000000E+03</rscale>
<asrwt>0</asrwt>
<pdfrwt beam="1">  1       21 0.41300892E-02 0.30000000E+03</pdfrwt>
<pdfrwt beam="2">0</pdfrwt>
<totfact> 0.39839279E+04</totfact>
</mgrwt>
</event>
<event>
 6    1  0.1295671E-001  0.3000000E+03  0.7818608E-02  0.1093470E+00
         21   -1    0    0  501  502  0.00000000000E+00  0.00000000000E+00  0.28270069227E+01  0.28270069227E+01  0.00000000000E+00 0. -1.
         13   -1    0    0    0    0 -0.00000000000E+00 -0.00000000000E+00 -0.10000000000E+04  0.10000000000E+04  0.00000000000E+00 0.  1.
    9000005    2    1    2  501    0  0.11679901386E+02  0.30802458008E+02 -0.89204091699E+03  0.89265457417E+03  0.31590647964E+01 0.  0.
         13    1    3    3    0    0  0.10554417619E+02  0.26944073449E+02 -0.75377050045E+03  0.75432575601E+03  0.00000000000E+00 0.  1.
          1    1    3    3  501    0  0.11254837673E+01  0.38583845592E+01 -0.13827041654E+03  0.13832881817E+03  0.00000000000E+00 0.  1.
         -1    1    1    2    0  502 -0.11679901386E+02 -0.30802458008E+02 -0.10513207609E+03  0.11017243275E+03  0.00000000000E+00 0. -1.
<mgrwt>
<rscale>  1 0.30000000E+03</rscale>
<asrwt>0</asrwt>
<pdfrwt beam="1">  1       21 0.10280047E-01 0.30000000E+03</pdfrwt>
<pdfrwt beam="2">0</pdfrwt>
<totfact> 0.81885755E+03</totfact>
</mgrwt>
</event>
<event>
 6    1  0.1295671E-001  0.3000000E+03  0.7818608E-02  0.1093470E+00
         21   -1    0    0  501  502  0.00000000000E+00  0.00000000000E+00  0.10858114350E+01  0.10858114350E+01  0.00000000000E+00 0. -1.
         13   -1    0    0    0    0 -0.00000000000E+00 -0.00000000000E+00 -0.10000000000E+04  0.10000000000E+04  0.00000000000E+00 0.  1.
    9000005    2    1    2  501    0 -0.76332259150E+01 -0.29916811561E+02 -0.32953607016E+03  0.33099600615E+03  0.33245746764E+01 0.  0.
         13    1    3    3    0    0 -0.32004557337E+01 -0.71288306143E+01 -0.88804655627E+02  0.89147798649E+02  0.00000000000E+00 0.  1.
          1    1    3    3  501    0 -0.44327701813E+01 -0.22787980947E+02 -0.24073141453E+03  0.24184820750E+03  0.00000000000E+00 0.  1.
         -3    1    1    2    0  502  0.76332259150E+01  0.29916811561E+02 -0.66937811840E+03  0.67008980529E+03  0.00000000000E+00 0. -1.
<mgrwt>
<rscale>  1 0.30000000E+03</rscale>
<asrwt>0</asrwt>
<pdfrwt beam="1">  1       21 0.39484135E-02 0.30000000E+03</pdfrwt>
<pdfrwt beam="2">0</pdfrwt>
<totfact> 0.42976278E+04</totfact>
</mgrwt>
</event>
<event>
 6    1  0.1295671E-001  0.3000000E+03  0.7818608E-02  0.1093470E+00
         21   -1    0    0  501  502  0.00000000000E+00  0.00000000000E+00  0.25423334890E+01  0.25423334890E+01  0.00000000000E+00 0. -1.
         13   -1    0    0    0    0 -0.00000000000E+00 -0.00000000000E+00 -0.10000000000E+04  0.10000000000E+04  0.00000000000E+00 0.  1.
    9000005    2    1    2  501    0 -0.30893782191E+02  0.19022822472E+02 -0.84659262851E+03  0.84737612182E+03  0.33044862753E+01 0.  0.
         13    1    3    3    0    0 -0.30066418687E+02  0.17767435376E+02 -0.81395655866E+03  0.81470543798E+03  0.00000000000E+00 0.  1.
          3    1    3    3  501    0 -0.82736350328E+00  0.12553870960E+01 -0.32636069849E+02  0.32670683836E+02  0.00000000000E+00 0.  1.
         -1    1    1    2    0  502  0.30893782191E+02 -0.19022822472E+02 -0.15086503800E+03  0.15516621167E+03  0.00000000000E+00 0. -1.
<mgrwt>
<rscale>  1 0.30000000E+03</rscale>
<asrwt>0</asrwt>
<pdfrwt beam="1">  1       21 0.92448685E-02 0.30000000E+03</pdfrwt>
<pdfrwt beam="2">0</pdfrwt>
<totfact> 0.98954787E+03</totfact>
</mgrwt>
</event>
<event>
 6    1  0.1295671E-001  0.3000000E+03  0.7818608E-02  0.1093470E+00
         21   -1    0    0  501  502  0.00000000000E+00  0.00000000000E+00  0.22527079597E+01  0.22527079597E+01  0.00000000000E+00 0. -1.
         13   -1    0    0    0    0 -0.00000000000E+00 -0.00000000000E+00 -0.10000000000E+04  0.10000000000E+04  0.00000000000E+00 0.  1.
    9000005    2    1    2  501    0 -0.29656977904E+02  0.29252177914E+02 -0.27259836008E+03  0.27590829945E+03  0.89608892171E+01 0.  0.
         13    1    3    3    0    0 -0.10190153307E+02  0.10786011345E+02 -0.71146966671E+02  0.72677837968E+02  0.00000000000E+00 0.  1.
          1    1    3    3  501    0 -0.19466824597E+02  0.18466166569E+02 -0.20145139340E+03  0.20323046148E+03  0.00000000000E+00 0.  1.
         -1    1    1    2    0  502  0.29656977904E+02 -0.29252177914E+02 -0.72514893196E+03  0.72634440851E+03  0.00000000000E+00 0. -1.
<mgrwt>
<rscale>  1 0.30000000E+03</rscale>
<asrwt>0</asrwt>
<pdfrwt beam="1">  1       21 0.81916826E-02 0.30000000E+03</pdfrwt>
<pdfrwt beam="2">0</pdfrwt>
<totfact> 0.12253156E+04</totfact>
</mgrwt>
</event>
<event>
 6    1  0.1295671E-001  0.3000000E+03  0.7818608E-02  0.1093470E+00
         21   -1    0    0  501  502  0.00000000000E+00  0.00000000000E+00  0.17349242590E+01  0.17349242590E+01  0.00000000000E+00 0. -1.
         13   -1    0    0    0    0 -0.00000000000E+00 -0.00000000000E+00 -0.10000000000E+04  0.10000000000E+04  0.00000000000E+00 0.  1.
    9000005    2    1    2  501    0  0.14738961383E+02  0.36013429918E+02 -0.67604634275E+03  0.67717504379E+03  0.36301893780E+01 0.  0.
         13    1    3    3    0    0  0.32870037523E+01  0.66304822139E+01 -0.15300517319E+03  0.15318404196E+03  0.00000000000E+00 0.  1.
          3    1    3    3  501    0  0.11451957630E+02  0.29382947704E+02 -0.52304116956E+03  0.52399100184E+03  0.00000000000E+00 0.  1.
         -1    1    1    2    0  502 -0.14738961383E+02 -0.36013429918E+02 -0.32221873299E+03  0.32455988047E+03  0.00000000000E+00 0. -1.
<mgrwt>
<rscale>  1 0.30000000E+03</rscale>
<asrwt>0</asrwt>
<pdfrwt beam="1">  1       21 0.63088288E-02 0.30000000E+03</pdfrwt>
<pdfrwt beam="2">0</pdfrwt>
<totfact> 0.19322582E+04</totfact>
</mgrwt>
</event>
<event>
 6    1  0.1295671E-001  0.3000000E+03  0.7818608E-02  0.1093470E+00
         21   -1    0    0  501  502  0.00000000000E+00  0.00000000000E+00  0.19277934817E+01  0.19277934817E+01  0.00000000000E+00 0. -1.
         13   -1    0    0    0    0 -0.00000000000E+00 -0.00000000000E+00 -0.10000000000E+04  0.10000000000E+04  0.00000000000E+00 0.  1.
    9000005    2    1    2  501    0 -0.15393551327E+02 -0.27135545279E+02 -0.85124573629E+03  0.85182345777E+03  0.32558276236E+01 0.  0.
         13    1    3    3    0    0 -0.14573462933E+02 -0.24013296795E+02 -0.77701307184E+03  0.77752063513E+03  0.00000000000E+00 0.  1.
          3    1    3    3  501    0 -0.82008839418E+00 -0.31222484841E+01 -0.74232664453E+02  0.74302822641E+02  0.00000000000E+00 0.  1.
         -1    1    1    2    0  502  0.15393551327E+02  0.27135545279E+02 -0.14682647022E+03  0.15010433571E+03  0.00000000000E+00 0. -1.
<mgrwt>
<rscale>  1 0.30000000E+03</rscale>
<asrwt>0</asrwt>
<pdfrwt beam="1">  1       21 0.70101729E-02 0.30000000E+03</pdfrwt>
<pdfrwt beam="2">0</pdfrwt>
<totfact> 0.16094557E+04</totfact>
</mgrwt>
</event>
<event>
 6    1  0.1295671E-001  0.3000000E+03  0.7818608E-02  0.1093470E+00
         21   -1    0    0  501  502  0.00000000000E+00  0.00000000000E+00  0.59912950205E+01  0.59912950205E+01  0.00000000000E+00 0. -1.
         13   -1    0    0    0    0 -0.00000000000E+00 -0.00000000000E+00 -0.10000000000E+04  0.10000000000E+04  0.00000000000E+00 0.  1.
    9000005    2    1    2  501    0 -0.33120528335E+02  0.10845602659E+01 -0.95154572544E+03  0.95212803946E+03  0.32233920226E+01 0.  0.
         13    1    3    3    0    0 -0.63587694636E+01  0.79461357995E+00 -0.21834874168E+03  0.21844275761E+03  0.00000000000E+00 0.  1.
          3    1    3    3  501    0 -0.26761758871E+02  0.28994668597E+00 -0.73319698376E+03  0.73368528185E+03  0.00000000000E+00 0.  1.
         -3    1    1    2    0  502  0.33120528335E+02 -0.10845602659E+01 -0.42462979541E+02  0.53863255561E+02  0.00000000000E+00 0. -1.
<mgrwt>
<rscale>  1 0.30000000E+03</rscale>
<asrwt>0</asrwt>
<pdfrwt beam="1">  1       21 0.21786573E-01 0.30000000E+03</pdfrwt>
<pdfrwt beam="2">0</pdfrwt>
<totfact> 0.20364416E+03</totfact>
</mgrwt>
</event>
<event>
 6    1  0.1295671E-001  0.3000000E+03  0.7818608E-02  0.1093470E+00
         21   -1    0    0  501  502  0.00000000000E+00  0.00000000000E+00  0.10693646160E+01  0.10693646160E+01  0.00000000000E+00 0. -1.
         13   -1    0    0    0    0 -0.00000000000E+00 -0.00000000000E+00 -0.10000000000E+04  0.10000000000E+04  0.00000000000E+00 0.  1.
    9000005    2    1    2  501    0  0.17553239013E+02  0.26779847267E+02 -0.40433588164E+03  0.40561307100E+03  0.30301435952E+01 0.  0.
         13    1    3    3    0    0  0.54432613413E+01  0.59166940719E+01 -0.10175880517E+03  0.10207590701E+03  0.00000000000E+00 0.  1.
          3    1    3    3  501    0  0.12109977671E+02  0.20863153195E+02 -0.30257707647E+03  0.30353716399E+03  0.00000000000E+00 0.  1.
         -1    1    1    2    0  502 -0.17553239013E+02 -0.26779847267E+02 -0.59459475375E+03  0.59545629361E+03  0.00000000000E+00 0. -1.
<mgrwt>
<rscale>  1 0.30000000E+03</rscale>
<asrwt>0</asrwt>
<pdfrwt beam="1">  1       21 0.38886068E-02 0.30000000E+03</pdfrwt>
<pdfrwt beam="2">0</pdfrwt>
<totfact> 0.44094102E+04</totfact>
</mgrwt>
</event>
<event>
 6    1  0.1295671E-001  0.3000000E+03  0.7818608E-02  0.1093470E+00
         21   -1    0    0  501  502  0.00000000000E+00  0.00000000000E+00  0.31292808990E+01  0.31292808990E+01  0.00000000000E+00 0. -1.
         13   -1    0    0    0    0 -0.00000000000E+00 -0.00000000000E+00 -0.10000000000E+04  0.10000000000E+04  0.00000000000E+00 0.  1.
    9000005    2    1    2  501    0 -0.39882359518E+02  0.27042737471E+02 -0.75272528019E+03  0.75427408688E+03  0.34840272881E+01 0.  0.
         13    1    3    3    0    0 -0.28782630736E+01  0.30917403628E+01 -0.61840360585E+02  0.61984461392E+02  0.00000000000E+00 0.  1.
          3    1    3    3  501    0 -0.37004096444E+02  0.23950997109E+02 -0.69088491961E+03  0.69228962549E+03  0.00000000000E+00 0.  1.
         -1    1    1    2    0  502  0.39882359518E+02 -0.27042737471E+02 -0.24414543891E+03  0.24885519402E+03  0.00000000000E+00 0. -1.
<mgrwt>
<rscale>  1 0.30000000E+03</rscale>
<asrwt>0</asrwt>
<pdfrwt beam="1">  1       21 0.11379227E-01 0.30000000E+03</pdfrwt>
<pdfrwt beam="2">0</pdfrwt>
<totfact> 0.68223765E+03</totfact>
</mgrwt>
</event>
<event>
 6    1  0.1295671E-001  0.3000000E+03  0.7818608E-02  0.1093470E+00
         21   -1    0    0  501  502  0.00000000000E+00  0.00000000000E+00  0.39800069676E+01  0.39800069676E+01  0.00000000000E+00 0. -1.
         13   -1    0    0    0    0 -0.00000000000E+00 -0.00000000000E+00 -0.10000000000E+04  0.10000000000E+04  0.00000000000E+00 0.  1.
    9000005    2    1    2  501    0  0.36971592160E+02  0.17359744608E+02 -0.88055322881E+03  0.88150211916E+03  0.19333835468E+01 0.  0.
         13    1    3    3    0    0  0.10835598500E+02  0.54065573080E+01 -0.24340047014E+03  0.24370151809E+03  0.00000000000E+00 0.  1.
          3    1    3    3  501    0  0.26135993660E+02  0.11953187300E+02 -0.63715275867E+03  0.63780060107E+03  0.00000000000E+00 0.  1.
         -1    1    1    2    0  502 -0.36971592160E+02 -0.17359744608E+02 -0.11546676423E+03  0.12247788780E+03  0.00000000000E+00 0. -1.
<mgrwt>
<rscale>  1 0.30000000E+03</rscale>
<asrwt>0</asrwt>
<pdfrwt beam="1">  1       21 0.14472783E-01 0.30000000E+03</pdfrwt>
<pdfrwt beam="2">0</pdfrwt>
<totfact> 0.43993894E+03</totfact>
</mgrwt>
</event>
<event>
 6    1  0.1295671E-001  0.3000000E+03  0.7818608E-02  0.1093470E+00
         21   -1    0    0  501  502  0.00000000000E+00  0.00000000000E+00  0.13169843910E+01  0.13169843910E+01  0.00000000000E+00 0. -1.
         13   -1    0    0    0    0 -0.00000000000E+00 -0.00000000000E+00 -0.10000000000E+04  0.10000000000E+04  0.00000000000E+00 0.  1.
    9000005    2    1    2  501    0 -0.10843846720E+02  0.32106317653E+02 -0.32320642119E+03  0.32499085430E+03  0.28740269485E+01 0.  0.
         13    1    3    3    0    0 -0.10403808051E+02  0.28131980084E+02 -0.28837823368E+03  0.28993387726E+03  0.00000000000E+00 0.  1.
          1    1    3    3  501    0 -0.44003866923E+00  0.39743375695E+01 -0.34828187514E+02  0.35056977033E+02  0.00000000000E+00 0.  1.
         -1    1    1    2    0  502  0.10843846720E+02 -0.32106317653E+02 -0.67547659442E+03  0.67632613010E+03  0.00000000000E+00 0. -1.
<mgrwt>
<rscale>  1 0.30000000E+03</rscale>
<asrwt>0</asrwt>
<pdfrwt beam="1">  1       21 0.47890442E-02 0.30000000E+03</pdfrwt>
<pdfrwt beam="2">0</pdfrwt>
<totfact> 0.30998834E+04</totfact>
</mgrwt>
</event>
<event>
 6    1  0.1295671E-001  0.3000000E+03  0.7818608E-02  0.1093470E+00
         21   -1    0    0  501  502  0.00000000000E+00  0.00000000000E+00  0.10145030191E+01  0.10145030191E+01  0.00000000000E+00 0. -1.
         13   -1    0    0    0    0 -0.00000000000E+00 -0.00000000000E+00 -0.10000000000E+04  0.10000000000E+04  0.00000000000E+00 0.  1.
    9000005    2    1    2  501    0 -0.23819388442E+02 -0.18511096562E+02 -0.65627998963E+03  0.65698385216E+03  0.37859277649E+01 0.  0.
         13    1    3    3    0    0 -0.14623593848E+02 -0.98001906212E+01 -0.35092393341E+03  0.35136519502E+03  0.00000000000E+00 0.  1.
          1    1    3    3  501    0 -0.91957945931E+01 -0.87109059405E+01 -0.30535605622E+03  0.30561865714E+03  0.00000000000E+00 0.  1.
         -3    1    1    2    0  502  0.23819388442E+02  0.18511096562E+02 -0.34270550735E+03  0.34403065086E+03  0.00000000000E+00 0. -1.
<mgrwt>
<rscale>  1 0.30000000E+03</rscale>
<asrwt>0</asrwt>
<pdfrwt beam="1">  1       21 0.36891097E-02 0.30000000E+03</pdfrwt>
<pdfrwt beam="2">0</pdfrwt>
<totfact> 0.48173177E+04</totfact>
</mgrwt>
</event>
<event>
 6    1  0.1295671E-001  0.3000000E+03  0.7818608E-02  0.1093470E+00
         21   -1    0    0  501  502  0.00000000000E+00  0.00000000000E+00  0.12918624247E+01  0.12918624247E+01  0.00000000000E+00 0. -1.
         13   -1    0    0    0    0 -0.00000000000E+00 -0.00000000000E+00 -0.10000000000E+04  0.10000000000E+04  0.00000000000E+00 0.  1.
    9000005    2    1    2  501    0  0.61221848591E+01 -0.35326070214E+02 -0.52041706695E+03  0.52165891879E+03  0.29481504913E+01 0.  0.
         13    1    3    3    0    0  0.55546066967E+01 -0.34517273871E+02 -0.50263472063E+03  0.50384914234E+03  0.00000000000E+00 0.  1.
          1    1    3    3  501    0  0.56757816240E+00 -0.80879634361E+00 -0.17782346322E+02  0.17809776451E+02  0.00000000000E+00 0.  1.
         -3    1    1    2    0  502 -0.61221848591E+01  0.35326070214E+02 -0.47829107062E+03  0.47963294364E+03  0.00000000000E+00 0. -1.
<mgrwt>
<rscale>  1 0.30000000E+03</rscale>
<asrwt>0</asrwt>
<pdfrwt beam="1">  1       21 0.46976915E-02 0.30000000E+03</pdfrwt>
<pdfrwt beam="2">0</pdfrwt>
<totfact> 0.32031078E+04</totfact>
</mgrwt>
</event>
<event>
 6    1  0.1295671E-001  0.3000000E+03  0.7818608E-02  0.1093470E+00
         21   -1    0    0  501  502  0.00000000000E+00  0.00000000000E+00  0.31494158680E+01  0.31494158680E+01  0.00000000000E+00 0. -1.
         13   -1    0    0    0    0 -0.00000000000E+00 -0.00000000000E+00 -0.10000000000E+04  0.10000000000E+04  0.00000000000E+00 0.  1.
    9000005    2    1    2  501    0 -0.41747310408E+02  0.24723201813E+02 -0.74879563293E+03  0.75039393432E+03  0.64870750497E+01 0.  0.
         13    1    3    3    0    0 -0.38067088694E+02  0.22247865047E+02 -0.70396171279E+03  0.70534116838E+03  0.00000000000E+00 0.  1.
          1    1    3    3  501    0 -0.36802217146E+01  0.24753367660E+01 -0.44833920138E+02  0.45052765941E+02  0.00000000000E+00 0.  1.
         -1    1    1    2    0  502  0.41747310408E+02 -0.24723201813E+02 -0.24805495120E+03  0.25275548154E+03  0.00000000000E+00 0. -1.
<mgrwt>
<rscale>  1 0.30000000E+03</rscale>
<asrwt>0</asrwt>
<pdfrwt beam="1">  1       21 0.11452445E-01 0.30000000E+03</pdfrwt>
<pdfrwt beam="2">0</pdfrwt>
<totfact> 0.67438391E+03</totfact>
</mgrwt>
</event>
<event>
 6    1  0.1295671E-001  0.3000000E+03  0.7818608E-02  0.1093470E+00
         21   -1    0    0  501  502  0.00000000000E+00  0.00000000000E+00  0.73474882637E+01  0.73474882637E+01  0.00000000000E+00 0. -1.
         13   -1    0    0    0    0 -0.00000000000E+00 -0.00000000000E+00 -0.10000000000E+04  0.10000000000E+04  0.00000000000E+00 0.  1.
    9000005    2    1    2  501    0  0.14812502369E+02  0.66808641290E+02 -0.79944538739E+03  0.80237969158E+03  0.41757958135E+01 0.  0.
         13    1    3    3    0    0  0.76211560251E+01  0.34271248659E+02 -0.43454148813E+03  0.43595745826E+03  0.00000000000E+00 0.  1.
          1    1    3    3  501    0  0.71913463442E+01  0.32537392631E+02 -0.36490389926E+03  0.36642223333E+03  0.00000000000E+00 0.  1.
         -1    1    1    2    0  502 -0.14812502369E+02 -0.66808641290E+02 -0.19320712435E+03  0.20496779668E+03  0.00000000000E+00 0. -1.
<mgrwt>
<rscale>  1 0.30000000E+03</rscale>
<asrwt>0</asrwt>
<pdfrwt beam="1">  1       21 0.26718195E-01 0.30000000E+03</pdfrwt>
<pdfrwt beam="2">0</pdfrwt>
<totfact> 0.13685301E+03</totfact>
</mgrwt>
</event>
<event>
 6    1  0.1295671E-001  0.3000000E+03  0.7818608E-02  0.1093470E+00
         21   -1    0    0  501  502  0.00000000000E+00  0.00000000000E+00  0.20432266403E+01  0.20432266403E+01  0.00000000000E+00 0. -1.
         13   -1    0    0    0    0 -0.00000000000E+00 -0.00000000000E+00 -0.10000000000E+04  0.10000000000E+04  0.00000000000E+00 0.  1.
    9000005    2    1    2  501    0 -0.27706501168E+02  0.29880927312E+02 -0.71489421632E+03  0.71606257831E+03  0.33697919604E+01 0.  0.
         13    1    3    3    0    0 -0.24882305135E+02  0.25285239404E+02 -0.62777805614E+03  0.62877957999E+03  0.00000000000E+00 0.  1.
          3    1    3    3  501    0 -0.28241960330E+01  0.45956879083E+01 -0.87116160186E+02  0.87282998322E+02  0.00000000000E+00 0.  1.
         -3    1    1    2    0  502  0.27706501168E+02 -0.29880927312E+02 -0.28306255704E+03  0.28598064833E+03  0.00000000000E+00 0. -1.
<mgrwt>
<rscale>  1 0.30000000E+03</rscale>
<asrwt>0</asrwt>
<pdfrwt beam="1">  1       21 0.74299307E-02 0.30000000E+03</pdfrwt>
<pdfrwt beam="2">0</pdfrwt>
<totfact> 0.14541436E+04</totfact>
</mgrwt>
</event>
<event>
 6    1  0.1295671E-001  0.3000000E+03  0.7818608E-02  0.1093470E+00
         21   -1    0    0  501  502  0.00000000000E+00  0.00000000000E+00  0.20066840693E+01  0.20066840693E+01  0.00000000000E+00 0. -1.
         13   -1    0    0    0    0 -0.00000000000E+00 -0.00000000000E+00 -0.10000000000E+04  0.10000000000E+04  0.00000000000E+00 0.  1.
    9000005    2    1    2  501    0 -0.28191019198E+02  0.26998948652E+02 -0.74427315881E+03  0.74530141548E+03  0.28263405765E+01 0.  0.
         13    1    3    3    0    0 -0.97815969242E+01  0.11211405137E+02 -0.28932379021E+03  0.28970611113E+03  0.00000000000E+00 0.  1.
          3    1    3    3  501    0 -0.18409422273E+02  0.15787543515E+02 -0.45494936860E+03  0.45559530436E+03  0.00000000000E+00 0.  1.
         -1    1    1    2    0  502  0.28191019198E+02 -0.26998948652E+02 -0.25372015712E+03  0.25670526859E+03  0.00000000000E+00 0. -1.
<mgrwt>
<rscale>  1 0.30000000E+03</rscale>
<asrwt>0</asrwt>
<pdfrwt beam="1">  1       21 0.72970484E-02 0.30000000E+03</pdfrwt>
<pdfrwt beam="2">0</pdfrwt>
<totfact> 0.15007530E+04</totfact>
</mgrwt>
</event>
<event>
 6    1  0.1295671E-001  0.3000000E+03  0.7818608E-02  0.1093470E+00
         21   -1    0    0  501  502  0.00000000000E+00  0.00000000000E+00  0.13131549581E+01  0.13131549581E+01  0.00000000000E+00 0. -1.
         13   -1    0    0    0    0 -0.00000000000E+00 -0.00000000000E+00 -0.10000000000E+04  0.10000000000E+04  0.00000000000E+00 0.  1.
    9000005    2    1    2  501    0 -0.29786040888E+02  0.11663687701E+02 -0.73350202868E+03  0.73420599168E+03  0.31563122099E+01 0.  0.
         13    1    3    3    0    0 -0.36427713691E+01  0.20455351015E+01 -0.77036925576E+02  0.77150125724E+02  0.00000000000E+00 0.  1.
          1    1    3    3  501    0 -0.26143269519E+02  0.96181525996E+01 -0.65646510310E+03  0.65705586596E+03  0.00000000000E+00 0.  1.
         -1    1    1    2    0  502  0.29786040888E+02 -0.11663687701E+02 -0.26518481636E+03  0.26710716327E+03  0.00000000000E+00 0. -1.
<mgrwt>
<rscale>  1 0.30000000E+03</rscale>
<asrwt>0</asrwt>
<pdfrwt beam="1">  1       21 0.47751190E-02 0.30000000E+03</pdfrwt>
<pdfrwt beam="2">0</pdfrwt>
<totfact> 0.31152791E+04</totfact>
</mgrwt>
</event>
<event>
 6    1  0.1295671E-001  0.3000000E+03  0.7818608E-02  0.1093470E+00
         21   -1    0    0  501  502  0.00000000000E+00  0.00000000000E+00  0.32726961505E+01  0.32726961505E+01  0.00000000000E+00 0. -1.
         13   -1    0    0    0    0 -0.00000000000E+00 -0.00000000000E+00 -0.10000000000E+04  0.10000000000E+04  0.00000000000E+00 0.  1.
    9000005    2    1    2  501    0 -0.36318090971E+02  0.30632034234E+01 -0.88489074556E+03  0.88564700714E+03  0.32561813574E+01 0.  0.
         13    1    3    3    0    0 -0.34862009656E+02  0.34206149183E+01 -0.83672204217E+03  0.83745497561E+03  0.00000000000E+00 0.  1.
          3    1    3    3  501    0 -0.14560813150E+01 -0.35741149490E+00 -0.48168703393E+02  0.48192031523E+02  0.00000000000E+00 0.  1.
         -1    1    1    2    0  502  0.36318090971E+02 -0.30632034234E+01 -0.11183655829E+03  0.11762568902E+03  0.00000000000E+00 0. -1.
<mgrwt>
<rscale>  1 0.30000000E+03</rscale>
<asrwt>0</asrwt>
<pdfrwt beam="1">  1       21 0.11900738E-01 0.30000000E+03</pdfrwt>
<pdfrwt beam="2">0</pdfrwt>
<totfact> 0.62912045E+03</totfact>
</mgrwt>
</event>
<event>
 6    1  0.1295671E-001  0.3000000E+03  0.7818608E-02  0.1093470E+00
         21   -1    0    0  501  502  0.00000000000E+00  0.00000000000E+00  0.14134279272E+01  0.14134279272E+01  0.00000000000E+00 0. -1.
         13   -1    0    0    0    0 -0.00000000000E+00 -0.00000000000E+00 -0.10000000000E+04  0.10000000000E+04  0.00000000000E+00 0.  1.
    9000005    2    1    2  501    0 -0.36234374817E+02  0.95318920273E+01 -0.51754417187E+03  0.51891412464E+03  0.40139788059E+01 0.  0.
         13    1    3    3    0    0 -0.21277335220E+02  0.38950276301E+01 -0.31273571990E+03  0.31348289704E+03  0.00000000000E+00 0.  1.
          1    1    3    3  501    0 -0.14957039596E+02  0.56368643973E+01 -0.20480845197E+03  0.20543122760E+03  0.00000000000E+00 0.  1.
         -3    1    1    2    0  502  0.36234374817E+02 -0.95318920273E+01 -0.48104240020E+03  0.48249930329E+03  0.00000000000E+00 0. -1.
<mgrwt>
<rscale>  1 0.30000000E+03</rscale>
<asrwt>0</asrwt>
<pdfrwt beam="1">  1       21 0.51397488E-02 0.30000000E+03</pdfrwt>
<pdfrwt beam="2">0</pdfrwt>
<totfact> 0.27481437E+04</totfact>
</mgrwt>
</event>
<event>
 6    1  0.1295671E-001  0.3000000E+03  0.7818608E-02  0.1093470E+00
         21   -1    0    0  501  502  0.00000000000E+00  0.00000000000E+00  0.30689754577E+01  0.30689754577E+01  0.00000000000E+00 0. -1.
         13   -1    0    0    0    0 -0.00000000000E+00 -0.00000000000E+00 -0.10000000000E+04  0.10000000000E+04  0.00000000000E+00 0.  1.
    9000005    2    1    2  501    0 -0.31201232673E+02 -0.31726909230E+01 -0.91177614644E+03  0.91232242647E+03  0.35896714007E+01 0.  0.
         13    1    3    3    0    0 -0.19711370853E+02 -0.20007049084E+01 -0.62451449840E+03  0.62482869626E+03  0.00000000000E+00 0.  1.
          1    1    3    3  501    0 -0.11489861820E+02 -0.11719860146E+01 -0.28726164804E+03  0.28749373021E+03  0.00000000000E+00 0.  1.
         -3    1    1    2    0  502  0.31201232673E+02  0.31726909230E+01 -0.85154878103E+02  0.90746548985E+02  0.00000000000E+00 0. -1.
<mgrwt>
<rscale>  1 0.30000000E+03</rscale>
<asrwt>0</asrwt>
<pdfrwt beam="1">  1       21 0.11159934E-01 0.30000000E+03</pdfrwt>
<pdfrwt beam="2">0</pdfrwt>
<totfact> 0.70659960E+03</totfact>
</mgrwt>
</event>
<event>
 6    1  0.1295671E-001  0.3000000E+03  0.7818608E-02  0.1093470E+00
         21   -1    0    0  501  502  0.00000000000E+00  0.00000000000E+00  0.15993311600E+01  0.15993311600E+01  0.00000000000E+00 0. -1.
         13   -1    0    0    0    0 -0.00000000000E+00 -0.00000000000E+00 -0.10000000000E+04  0.10000000000E+04  0.00000000000E+00 0.  1.
    9000005    2    1    2  501    0 -0.32623401524E+02  0.22538269130E+02 -0.55829354584E+03  0.55970959421E+03  0.32994888838E+01 0.  0.
         13    1    3    3    0    0 -0.25229296934E+02  0.17671651470E+02 -0.45177975604E+03  0.45282861290E+03  0.00000000000E+00 0.  1.
          3    1    3    3  501    0 -0.73941045896E+01  0.48666176601E+01 -0.10651378980E+03  0.10688098132E+03  0.00000000000E+00 0.  1.
         -1    1    1    2    0  502  0.32623401524E+02 -0.22538269130E+02 -0.44010712300E+03  0.44188973695E+03  0.00000000000E+00 0. -1.
<mgrwt>
<rscale>  1 0.30000000E+03</rscale>
<asrwt>0</asrwt>
<pdfrwt beam="1">  1       21 0.58157619E-02 0.30000000E+03</pdfrwt>
<pdfrwt beam="2">0</pdfrwt>
<totfact> 0.22235394E+04</totfact>
</mgrwt>
</event>
<event>
 6    1  0.1295671E-001  0.3000000E+03  0.7818608E-02  0.1093470E+00
         21   -1    0    0  501  502  0.00000000000E+00  0.00000000000E+00  0.16870139908E+01  0.16870139908E+01  0.00000000000E+00 0. -1.
         13   -1    0    0    0    0 -0.00000000000E+00 -0.00000000000E+00 -0.10000000000E+04  0.10000000000E+04  0.00000000000E+00 0.  1.
    9000005    2    1    2  501    0 -0.30163253117E+02  0.87834584903E+01 -0.82136558803E+03  0.82197237176E+03  0.31905720473E+01 0.  0.
         13    1    3    3    0    0 -0.73598628723E+01  0.35684513217E+01 -0.20570607301E+03  0.20586862292E+03  0.00000000000E+00 0.  1.
          1    1    3    3  501    0 -0.22803390245E+02  0.52150071686E+01 -0.61565951502E+03  0.61610374884E+03  0.00000000000E+00 0.  1.
         -1    1    1    2    0  502  0.30163253117E+02 -0.87834584903E+01 -0.17694739798E+03  0.17971464223E+03  0.00000000000E+00 0. -1.
<mgrwt>
<rscale>  1 0.30000000E+03</rscale>
<asrwt>0</asrwt>
<pdfrwt beam="1">  1       21 0.61346093E-02 0.30000000E+03</pdfrwt>
<pdfrwt beam="2">0</pdfrwt>
<totfact> 0.20280246E+04</totfact>
</mgrwt>
</event>
<event>
 6    1  0.1295671E-001  0.3000000E+03  0.7818608E-02  0.1093470E+00
         21   -1    0    0  501  502  0.00000000000E+00  0.00000000000E+00  0.14202011725E+01  0.14202011725E+01  0.00000000000E+00 0. -1.
         13   -1    0    0    0    0 -0.00000000000E+00 -0.00000000000E+00 -0.10000000000E+04  0.10000000000E+04  0.00000000000E+00 0.  1.
    9000005    2    1    2  501    0 -0.18649642844E+02 -0.27162313717E+02 -0.74116159405E+03  0.74190193088E+03  0.35165443483E+01 0.  0.
         13    1    3    3    0    0 -0.16288472976E+02 -0.21780242197E+02 -0.59135111501E+03  0.59197621111E+03  0.00000000000E+00 0.  1.
          1    1    3    3  501    0 -0.23611698684E+01 -0.53820715200E+01 -0.14981047905E+03  0.14992571977E+03  0.00000000000E+00 0.  1.
         -3    1    1    2    0  502  0.18649642844E+02  0.27162313717E+02 -0.25741820477E+03  0.25951827029E+03  0.00000000000E+00 0. -1.
<mgrwt>
<rscale>  1 0.30000000E+03</rscale>
<asrwt>0</asrwt>
<pdfrwt beam="1">  1       21 0.51643788E-02 0.30000000E+03</pdfrwt>
<pdfrwt beam="2">0</pdfrwt>
<totfact> 0.27258032E+04</totfact>
</mgrwt>
</event>
<event>
 6    1  0.1295671E-001  0.3000000E+03  0.7818608E-02  0.1093470E+00
         21   -1    0    0  501  502  0.00000000000E+00  0.00000000000E+00  0.34817925026E+01  0.34817925026E+01  0.00000000000E+00 0. -1.
         13   -1    0    0    0    0 -0.00000000000E+00 -0.00000000000E+00 -0.10000000000E+04  0.10000000000E+04  0.00000000000E+00 0.  1.
    9000005    2    1    2  501    0 -0.41544145394E+02  0.14763809211E+02 -0.16575393580E+03  0.17154840502E+03  0.32560640053E+01 0.  0.
         13    1    3    3    0    0 -0.25771940376E+02  0.95711475015E+01 -0.10916785923E+03  0.11257629086E+03  0.00000000000E+00 0.  1.
          1    1    3    3  501    0 -0.15772205018E+02  0.51926617099E+01 -0.56586076564E+02  0.58972114153E+02  0.00000000000E+00 0.  1.
         -3    1    1    2    0  502  0.41544145394E+02 -0.14763809211E+02 -0.83076427170E+03  0.83193338749E+03  0.00000000000E+00 0. -1.
<mgrwt>
<rscale>  1 0.30000000E+03</rscale>
<asrwt>0</asrwt>
<pdfrwt beam="1">  1       21 0.12661090E-01 0.30000000E+03</pdfrwt>
<pdfrwt beam="2">0</pdfrwt>
<totfact> 0.56210035E+03</totfact>
</mgrwt>
</event>
<event>
 6    1  0.1295671E-001  0.3000000E+03  0.7818608E-02  0.1093470E+00
         21   -1    0    0  501  502  0.00000000000E+00  0.00000000000E+00  0.11631295887E+01  0.11631295887E+01  0.00000000000E+00 0. -1.
         13   -1    0    0    0    0 -0.00000000000E+00 -0.00000000000E+00 -0.10000000000E+04  0.10000000000E+04  0.00000000000E+00 0.  1.
    9000005    2    1    2  501    0 -0.31456531871E+02  0.64694674199E+01 -0.63770937069E+03  0.63861045968E+03  0.10895427272E+02 0.  0.
         13    1    3    3    0    0 -0.18255517805E+02  0.79386616913E+01 -0.31547735027E+03  0.31610480036E+03  0.00000000000E+00 0.  1.
          3    1    3    3  501    0 -0.13201014066E+02 -0.14691942713E+01 -0.32223202042E+03  0.32250565932E+03  0.00000000000E+00 0.  1.
         -1    1    1    2    0  502  0.31456531871E+02 -0.64694674199E+01 -0.36112749972E+03  0.36255266991E+03  0.00000000000E+00 0. -1.
<mgrwt>
<rscale>  1 0.30000000E+03</rscale>
<asrwt>0</asrwt>
<pdfrwt beam="1">  1       21 0.42295711E-02 0.30000000E+03</pdfrwt>
<pdfrwt beam="2">0</pdfrwt>
<totfact> 0.38270252E+04</totfact>
</mgrwt>
</event>
<event>
 6    1  0.1295671E-001  0.3000000E+03  0.7818608E-02  0.1093470E+00
         21   -1    0    0  501  502  0.00000000000E+00  0.00000000000E+00  0.29355073001E+01  0.29355073001E+01  0.00000000000E+00 0. -1.
         13   -1    0    0    0    0 -0.00000000000E+00 -0.00000000000E+00 -0.10000000000E+04  0.10000000000E+04  0.00000000000E+00 0.  1.
    9000005    2    1    2  501    0 -0.24223220874E+02 -0.44236655599E+02 -0.31754736730E+03  0.32154929534E+03  0.37380116131E+01 0.  0.
         13    1    3    3    0    0 -0.75678399553E+01 -0.11218318786E+02 -0.78341576664E+02  0.79501732762E+02  0.00000000000E+00 0.  1.
          3    1    3    3  501    0 -0.16655380918E+02 -0.33018336813E+02 -0.23920579063E+03  0.24204756258E+03  0.00000000000E+00 0.  1.
         -1    1    1    2    0  502  0.24223220874E+02  0.44236655599E+02 -0.67951712540E+03  0.68138621196E+03  0.00000000000E+00 0. -1.
<mgrwt>
<rscale>  1 0.30000000E+03</rscale>
<asrwt>0</asrwt>
<pdfrwt beam="1">  1       21 0.10674595E-01 0.30000000E+03</pdfrwt>
<pdfrwt beam="2">0</pdfrwt>
<totfact> 0.76540821E+03</totfact>
</mgrwt>
</event>
<event>
 6    1  0.1295671E-001  0.3000000E+03  0.7818608E-02  0.1093470E+00
         21   -1    0    0  501  502  0.00000000000E+00  0.00000000000E+00  0.15267636185E+01  0.15267636185E+01  0.00000000000E+00 0. -1.
         13   -1    0    0    0    0 -0.00000000000E+00 -0.00000000000E+00 -0.10000000000E+04  0.10000000000E+04  0.00000000000E+00 0.  1.
    9000005    2    1    2  501    0  0.56198979435E+01 -0.38506729921E+02 -0.46760342123E+03  0.46923256664E+03  0.34482667849E+01 0.  0.
         13    1    3    3    0    0  0.11808583978E+01 -0.34203428440E+01 -0.35318992416E+02  0.35503864536E+02  0.00000000000E+00 0.  1.
          3    1    3    3  501    0  0.44390395457E+01 -0.35086387077E+02 -0.43228442882E+03  0.43372870210E+03  0.00000000000E+00 0.  1.
         -3    1    1    2    0  502 -0.56198979435E+01  0.38506729921E+02 -0.53086981515E+03  0.53229419698E+03  0.00000000000E+00 0. -1.
<mgrwt>
<rscale>  1 0.30000000E+03</rscale>
<asrwt>0</asrwt>
<pdfrwt beam="1">  1       21 0.55518794E-02 0.30000000E+03</pdfrwt>
<pdfrwt beam="2">0</pdfrwt>
<totfact> 0.24083181E+04</totfact>
</mgrwt>
</event>
<event>
 6    1  0.1295671E-001  0.3000000E+03  0.7818608E-02  0.1093470E+00
         21   -1    0    0  501  502  0.00000000000E+00  0.00000000000E+00  0.14906797391E+01  0.14906797391E+01  0.00000000000E+00 0. -1.
         13   -1    0    0    0    0 -0.00000000000E+00 -0.00000000000E+00 -0.10000000000E+04  0.10000000000E+04  0.00000000000E+00 0.  1.
    9000005    2    1    2  501    0 -0.32978592294E+02  0.89392194190E+01 -0.72496554724E+03  0.72582114397E+03  0.85901777182E+01 0.  0.
         13    1    3    3    0    0 -0.36378595449E+01  0.32406456283E+01 -0.15017958040E+03  0.15025858437E+03  0.00000000000E+00 0.  1.
          1    1    3    3  501    0 -0.29340732749E+02  0.56985737907E+01 -0.57478596683E+03  0.57556255960E+03  0.00000000000E+00 0.  1.
         -3    1    1    2    0  502  0.32978592294E+02 -0.89392194190E+01 -0.27354377302E+03  0.27566953577E+03  0.00000000000E+00 0. -1.
<mgrwt>
<rscale>  1 0.30000000E+03</rscale>
<asrwt>0</asrwt>
<pdfrwt beam="1">  1       21 0.54206650E-02 0.30000000E+03</pdfrwt>
<pdfrwt beam="2">0</pdfrwt>
<totfact> 0.25091216E+04</totfact>
</mgrwt>
</event>
<event>
 6    1  0.1295671E-001  0.3000000E+03  0.7818608E-02  0.1093470E+00
         21   -1    0    0  501  502  0.00000000000E+00  0.00000000000E+00  0.14499420814E+01  0.14499420814E+01  0.00000000000E+00 0. -1.
         13   -1    0    0    0    0 -0.00000000000E+00 -0.00000000000E+00 -0.10000000000E+04  0.10000000000E+04  0.00000000000E+00 0.  1.
    9000005    2    1    2  501    0 -0.19382738268E+01 -0.32887504879E+02 -0.74943403363E+03  0.75016496752E+03  0.32806782505E+01 0.  0.
         13    1    3    3    0    0  0.53898577768E+00 -0.27084335882E+01 -0.50765683065E+02  0.50840738539E+02  0.00000000000E+00 0.  1.
          1    1    3    3  501    0 -0.24772596045E+01 -0.30179071291E+02 -0.69866835057E+03  0.69932422898E+03  0.00000000000E+00 0.  1.
         -1    1    1    2    0  502  0.19382738268E+01  0.32887504879E+02 -0.24911602429E+03  0.25128497456E+03  0.00000000000E+00 0. -1.
<mgrwt>
<rscale>  1 0.30000000E+03</rscale>
<asrwt>0</asrwt>
<pdfrwt beam="1">  1       21 0.52725278E-02 0.30000000E+03</pdfrwt>
<pdfrwt beam="2">0</pdfrwt>
<totfact> 0.26309641E+04</totfact>
</mgrwt>
</event>
<event>
 6    1  0.1295671E-001  0.3000000E+03  0.7818608E-02  0.1093470E+00
         21   -1    0    0  501  502  0.00000000000E+00  0.00000000000E+00  0.25614927710E+01  0.25614927710E+01  0.00000000000E+00 0. -1.
         13   -1    0    0    0    0 -0.00000000000E+00 -0.00000000000E+00 -0.10000000000E+04  0.10000000000E+04  0.00000000000E+00 0.  1.
    9000005    2    1    2  501    0 -0.21260126190E+02  0.25329535370E+02 -0.87803102446E+03  0.87865941342E+03  0.32103799552E+01 0.  0.
         13    1    3    3    0    0 -0.81211365766E+01  0.74867929382E+01 -0.27764138732E+03  0.27786101720E+03  0.00000000000E+00 0.  1.
          1    1    3    3  501    0 -0.13138989613E+02  0.17842742432E+02 -0.60038963714E+03  0.60079839621E+03  0.00000000000E+00 0.  1.
         -3    1    1    2    0  502  0.21260126190E+02 -0.25329535370E+02 -0.11940748277E+03  0.12390207935E+03  0.00000000000E+00 0. -1.
<mgrwt>
<rscale>  1 0.30000000E+03</rscale>
<asrwt>0</asrwt>
<pdfrwt beam="1">  1       21 0.93145388E-02 0.30000000E+03</pdfrwt>
<pdfrwt beam="2">0</pdfrwt>
<totfact> 0.97643422E+03</totfact>
</mgrwt>
</event>
<event>
 6    1  0.1295671E-001  0.3000000E+03  0.7818608E-02  0.1093470E+00
         21   -1    0    0  501  502  0.00000000000E+00  0.00000000000E+00  0.11626072876E+01  0.11626072876E+01  0.00000000000E+00 0. -1.
         13   -1    0    0    0    0 -0.00000000000E+00 -0.00000000000E+00 -0.10000000000E+04  0.10000000000E+04  0.00000000000E+00 0.  1.
    9000005    2    1    2  501    0  0.20047136790E+02  0.26049873323E+02 -0.37071368510E+03  0.37217939951E+03  0.28957745421E+01 0.  0.
         13    1    3    3    0    0  0.13437267860E+02  0.19546290630E+02 -0.26955848845E+03  0.27060006714E+03  0.00000000000E+00 0.  1.
          3    1    3    3  501    0  0.66098689295E+01  0.65035826932E+01 -0.10115519665E+03  0.10157933237E+03  0.00000000000E+00 0.  1.
         -3    1    1    2    0  502 -0.20047136790E+02 -0.26049873323E+02 -0.62812370761E+03  0.62898320777E+03  0.00000000000E+00 0. -1.
<mgrwt>
<rscale>  1 0.30000000E+03</rscale>
<asrwt>0</asrwt>
<pdfrwt beam="1">  1       21 0.42276718E-02 0.30000000E+03</pdfrwt>
<pdfrwt beam="2">0</pdfrwt>
<totfact> 0.38299301E+04</totfact>
</mgrwt>
</event>
<event>
 6    1  0.1295671E-001  0.3000000E+03  0.7818608E-02  0.1093470E+00
         21   -1    0    0  501  502  0.00000000000E+00  0.00000000000E+00  0.10121098921E+01  0.10121098921E+01  0.00000000000E+00 0. -1.
         13   -1    0    0    0    0 -0.00000000000E+00 -0.00000000000E+00 -0.10000000000E+04  0.10000000000E+04  0.00000000000E+00 0.  1.
    9000005    2    1    2  501    0 -0.40011258578E+01 -0.31432737618E+02 -0.51898011979E+03  0.51995963296E+03  0.36917695586E+01 0.  0.
         13    1    3    3    0    0 -0.25077296177E+01 -0.28162270837E+02 -0.45268903181E+03  0.45357112092E+03  0.00000000000E+00 0.  1.
          3    1    3    3  501    0 -0.14933962401E+01 -0.32704667811E+01 -0.66291087981E+02  0.66388512041E+02  0.00000000000E+00 0.  1.
         -3    1    1    2    0  502  0.40011258578E+01  0.31432737618E+02 -0.48000777031E+03  0.48105247693E+03  0.00000000000E+00 0. -1.
<mgrwt>
<rscale>  1 0.30000000E+03</rscale>
<asrwt>0</asrwt>
<pdfrwt beam="1">  1       21 0.36804074E-02 0.30000000E+03</pdfrwt>
<pdfrwt beam="2">0</pdfrwt>
<totfact> 0.48364488E+04</totfact>
</mgrwt>
</event>
<event>
 6    1  0.1295671E-001  0.3000000E+03  0.7818608E-02  0.1093470E+00
         21   -1    0    0  501  502  0.00000000000E+00  0.00000000000E+00  0.62412520587E+01  0.62412520587E+01  0.00000000000E+00 0. -1.
         13   -1    0    0    0    0 -0.00000000000E+00 -0.00000000000E+00 -0.10000000000E+04  0.10000000000E+04  0.00000000000E+00 0.  1.
    9000005    2    1    2  501    0  0.45750213304E+02  0.99740203324E+00 -0.90695576839E+03  0.90811462933E+03  0.30557108919E+01 0.  0.
         13    1    3    3    0    0  0.19887141636E+02  0.10667912236E+01 -0.36752749101E+03  0.36806669653E+03  0.00000000000E+00 0.  1.
          1    1    3    3  501    0  0.25863071668E+02 -0.69389190337E-01 -0.53942827738E+03  0.54004793281E+03  0.00000000000E+00 0.  1.
         -1    1    1    2    0  502 -0.45750213304E+02 -0.99740203324E+00 -0.86802979553E+02  0.98126622725E+02  0.00000000000E+00 0. -1.
<mgrwt>
<rscale>  1 0.30000000E+03</rscale>
<asrwt>0</asrwt>
<pdfrwt beam="1">  1       21 0.22695510E-01 0.30000000E+03</pdfrwt>
<pdfrwt beam="2">0</pdfrwt>
<totfact> 0.18821547E+03</totfact>
</mgrwt>
</event>
<event>
 6    1  0.1295671E-001  0.3000000E+03  0.7818608E-02  0.1093470E+00
         21   -1    0    0  501  502  0.00000000000E+00  0.00000000000E+00  0.27668358713E+01  0.27668358713E+01  0.00000000000E+00 0. -1.
         13   -1    0    0    0    0 -0.00000000000E+00 -0.00000000000E+00 -0.10000000000E+04  0.10000000000E+04  0.00000000000E+00 0.  1.
    9000005    2    1    2  501    0  0.26699584357E+02  0.24057475848E+02 -0.86456036335E+03  0.86531247248E+03  0.30697236993E+01 0.  0.
         13    1    3    3    0    0  0.59897339747E+01  0.59985204778E+01 -0.17589664576E+03  0.17610079259E+03  0.00000000000E+00 0.  1.
          3    1    3    3  501    0  0.20709850382E+02  0.18058955370E+02 -0.68866371759E+03  0.68921167989E+03  0.00000000000E+00 0.  1.
         -1    1    1    2    0  502 -0.26699584357E+02 -0.24057475848E+02 -0.13267280078E+03  0.13745436339E+03  0.00000000000E+00 0. -1.
<mgrwt>
<rscale>  1 0.30000000E+03</rscale>
<asrwt>0</asrwt>
<pdfrwt beam="1">  1       21 0.10061243E-01 0.30000000E+03</pdfrwt>
<pdfrwt beam="2">0</pdfrwt>
<totfact> 0.85098327E+03</totfact>
</mgrwt>
</event>
<event>
 6    1  0.1295671E-001  0.3000000E+03  0.7818608E-02  0.1093470E+00
         21   -1    0    0  501  502  0.00000000000E+00  0.00000000000E+00  0.16897153145E+01  0.16897153145E+01  0.00000000000E+00 0. -1.
         13   -1    0    0    0    0 -0.00000000000E+00 -0.00000000000E+00 -0.10000000000E+04  0.10000000000E+04  0.00000000000E+00 0.  1.
    9000005    2    1    2  501    0  0.37726845956E+02 -0.17638873642E+01 -0.30350054643E+03  0.30585424727E+03  0.27951188791E+01 0.  0.
         13    1    3    3    0    0  0.14200605679E+02 -0.26843100464E+00 -0.12475602644E+03  0.12556191855E+03  0.00000000000E+00 0.  1.
          3    1    3    3  501    0  0.23526240277E+02 -0.14954563596E+01 -0.17874451999E+03  0.18029232873E+03  0.00000000000E+00 0.  1.
         -1    1    1    2    0  502 -0.37726845956E+02  0.17638873642E+01 -0.69480973826E+03  0.69583546804E+03  0.00000000000E+00 0. -1.
<mgrwt>
<rscale>  1 0.30000000E+03</rscale>
<asrwt>0</asrwt>
<pdfrwt beam="1">  1       21 0.61444323E-02 0.30000000E+03</pdfrwt>
<pdfrwt beam="2">0</pdfrwt>
<totfact> 0.20224309E+04</totfact>
</mgrwt>
</event>
<event>
 6    1  0.1295671E-001  0.3000000E+03  0.7818608E-02  0.1093470E+00
         21   -1    0    0  501  502  0.00000000000E+00  0.00000000000E+00  0.15166053137E+01  0.15166053137E+01  0.00000000000E+00 0. -1.
         13   -1    0    0    0    0 -0.00000000000E+00 -0.00000000000E+00 -0.10000000000E+04  0.10000000000E+04  0.00000000000E+00 0.  1.
    9000005    2    1    2  501    0 -0.13866013025E+01 -0.30676008536E+02 -0.80660634006E+03  0.80719793855E+03  0.34327834881E+01 0.  0.
         13    1    3    3    0    0  0.10929045219E+01 -0.13035632240E+02 -0.34751125973E+03  0.34775738351E+03  0.00000000000E+00 0.  1.
          1    1    3    3  501    0 -0.24795058244E+01 -0.17640376297E+02 -0.45909508034E+03  0.45944055504E+03  0.00000000000E+00 0.  1.
         -1    1    1    2    0  502  0.13866013025E+01  0.30676008536E+02 -0.19187705462E+03  0.19431866677E+03  0.00000000000E+00 0. -1.
<mgrwt>
<rscale>  1 0.30000000E+03</rscale>
<asrwt>0</asrwt>
<pdfrwt beam="1">  1       21 0.55149400E-02 0.30000000E+03</pdfrwt>
<pdfrwt beam="2">0</pdfrwt>
<totfact> 0.24360564E+04</totfact>
</mgrwt>
</event>
<event>
 6    1  0.1295671E-001  0.3000000E+03  0.7818608E-02  0.1093470E+00
         21   -1    0    0  501  502  0.00000000000E+00  0.00000000000E+00  0.14210615949E+01  0.14210615949E+01  0.00000000000E+00 0. -1.
         13   -1    0    0    0    0 -0.00000000000E+00 -0.00000000000E+00 -0.10000000000E+04  0.10000000000E+04  0.00000000000E+00 0.  1.
    9000005    2    1    2  501    0 -0.18695219164E+02 -0.29695230103E+02 -0.68083514969E+03  0.68174554928E+03  0.30290248058E+01 0.  0.
         13    1    3    3    0    0 -0.15071804657E+02 -0.21511847178E+02 -0.51258292039E+03  0.51325546187E+03  0.00000000000E+00 0.  1.
          1    1    3    3  501    0 -0.36234145067E+01 -0.81833829254E+01 -0.16825222931E+03  0.16849008741E+03  0.00000000000E+00 0.  1.
         -1    1    1    2    0  502  0.18695219164E+02  0.29695230103E+02 -0.31774378871E+03  0.31967551232E+03  0.00000000000E+00 0. -1.
<mgrwt>
<rscale>  1 0.30000000E+03</rscale>
<asrwt>0</asrwt>
<pdfrwt beam="1">  1       21 0.51675076E-02 0.30000000E+03</pdfrwt>
<pdfrwt beam="2">0</pdfrwt>
<totfact> 0.27229854E+04</totfact>
</mgrwt>
</event>
<event>
 6    1  0.1295671E-001  0.3000000E+03  0.7818608E-02  0.1093470E+00
         21   -1    0    0  501  502  0.00000000000E+00  0.00000000000E+00  0.12958619261E+01  0.12958619261E+01  0.00000000000E+00 0. -1.
         13   -1    0    0    0    0 -0.00000000000E+00 -0.00000000000E+00 -0.10000000000E+04  0.10000000000E+04  0.00000000000E+00 0.  1.
    9000005    2    1    2  501    0  0.32511327894E+02  0.11577459536E+01 -0.28806567032E+03  0.28991315292E+03  0.30787990611E+01 0.  0.
         13    1    3    3    0    0  0.26048170047E+02  0.16726519178E+01 -0.22157608197E+03  0.22310819130E+03  0.00000000000E+00 0.  1.
          1    1    3    3  501    0  0.64631578465E+01 -0.51490596428E+00 -0.66489588353E+02  0.66804961619E+02  0.00000000000E+00 0.  1.
         -3    1    1    2    0  502 -0.32511327894E+02 -0.11577459536E+01 -0.71063846775E+03  0.71138270900E+03  0.00000000000E+00 0. -1.
<mgrwt>
<rscale>  1 0.30000000E+03</rscale>
<asrwt>0</asrwt>
<pdfrwt beam="1">  1       21 0.47122351E-02 0.30000000E+03</pdfrwt>
<pdfrwt beam="2">0</pdfrwt>
<totfact> 0.31863170E+04</totfact>
</mgrwt>
</event>
<event>
 6    1  0.1295671E-001  0.3000000E+03  0.7818608E-02  0.1093470E+00
         21   -1    0    0  501  502  0.00000000000E+00  0.00000000000E+00  0.42928812253E+01  0.42928812253E+01  0.00000000000E+00 0. -1.
         13   -1    0    0    0    0 -0.00000000000E+00 -0.00000000000E+00 -0.10000000000E+04  0.10000000000E+04  0.00000000000E+00 0.  1.
    9000005    2    1    2  501    0  0.24605009778E+02 -0.60506713435E+02 -0.53347202411E+03  0.53746555596E+03  0.32178340509E+01 0.  0.
         13    1    3    3    0    0  0.50787959332E+01 -0.10255868712E+02 -0.86342556356E+02  0.87097727004E+02  0.00000000000E+00 0.  1.
          1    1    3    3  501    0  0.19526213844E+02 -0.50250844723E+02 -0.44712946776E+03  0.45036782896E+03  0.00000000000E+00 0.  1.
         -3    1    1    2    0  502 -0.24605009778E+02  0.60506713435E+02 -0.46223509466E+03  0.46682732526E+03  0.00000000000E+00 0. -1.
<mgrwt>
<rscale>  1 0.30000000E+03</rscale>
<asrwt>0</asrwt>
<pdfrwt beam="1">  1       21 0.15610510E-01 0.30000000E+03</pdfrwt>
<pdfrwt beam="2">0</pdfrwt>
<totfact> 0.38242091E+03</totfact>
</mgrwt>
</event>
<event>
 6    1  0.1295671E-001  0.3000000E+03  0.7818608E-02  0.1093470E+00
         21   -1    0    0  501  502  0.00000000000E+00  0.00000000000E+00  0.15807168008E+01  0.15807168008E+01  0.00000000000E+00 0. -1.
         13   -1    0    0    0    0 -0.00000000000E+00 -0.00000000000E+00 -0.10000000000E+04  0.10000000000E+04  0.00000000000E+00 0.  1.
    9000005    2    1    2  501    0 -0.27601695163E+02 -0.15252142660E+02 -0.80337476880E+03  0.80400327874E+03  0.39713544620E+01 0.  0.
         13    1    3    3    0    0 -0.10684638791E+02 -0.81426808748E+01 -0.33727515915E+03  0.33754258656E+03  0.00000000000E+00 0.  1.
          3    1    3    3  501    0 -0.16917056372E+02 -0.71094617848E+01 -0.46609960965E+03  0.46646069219E+03  0.00000000000E+00 0.  1.
         -3    1    1    2    0  502  0.27601695163E+02  0.15252142660E+02 -0.19504451440E+03  0.19757743806E+03  0.00000000000E+00 0. -1.
<mgrwt>
<rscale>  1 0.30000000E+03</rscale>
<asrwt>0</asrwt>
<pdfrwt beam="1">  1       21 0.57480732E-02 0.30000000E+03</pdfrwt>
<pdfrwt beam="2">0</pdfrwt>
<totfact> 0.22688112E+04</totfact>
</mgrwt>
</event>
<event>
 6    1  0.1295671E-001  0.3000000E+03  0.7818608E-02  0.1093470E+00
         21   -1    0    0  501  502  0.00000000000E+00  0.00000000000E+00  0.15925544704E+01  0.15925544704E+01  0.00000000000E+00 0. -1.
         13   -1    0    0    0    0 -0.00000000000E+00 -0.00000000000E+00 -0.10000000000E+04  0.10000000000E+04  0.00000000000E+00 0.  1.
    9000005    2    1    2  501    0  0.29977819342E+02 -0.61672782131E+01 -0.82006741112E+03  0.82064539962E+03  0.34070769407E+01 0.  0.
         13    1    3    3    0    0  0.26499574121E+02 -0.43180492008E+01 -0.70945007103E+03  0.70995793979E+03  0.00000000000E+00 0.  1.
          1    1    3    3  501    0  0.34782452212E+01 -0.18492290123E+01 -0.11061734008E+03  0.11068745984E+03  0.00000000000E+00 0.  1.
         -3    1    1    2    0  502 -0.29977819342E+02  0.61672782131E+01 -0.17834003441E+03  0.18094715485E+03  0.00000000000E+00 0. -1.
<mgrwt>
<rscale>  1 0.30000000E+03</rscale>
<asrwt>0</asrwt>
<pdfrwt beam="1">  1       21 0.57911194E-02 0.30000000E+03</pdfrwt>
<pdfrwt beam="2">0</pdfrwt>
<totfact> 0.22398598E+04</totfact>
</mgrwt>
</event>
<event>
 6    1  0.1295671E-001  0.3000000E+03  0.7818608E-02  0.1093470E+00
         21   -1    0    0  501  502  0.00000000000E+00  0.00000000000E+00  0.30465335298E+01  0.30465335298E+01  0.00000000000E+00 0. -1.
         13   -1    0    0    0    0 -0.00000000000E+00 -0.00000000000E+00 -0.10000000000E+04  0.10000000000E+04  0.00000000000E+00 0.  1.
    9000005    2    1    2  501    0 -0.16518989255E+02  0.51107484795E+02 -0.61256143067E+03  0.61492015051E+03  0.32300391346E+01 0.  0.
         13    1    3    3    0    0 -0.41134132720E+01  0.17200471880E+02 -0.19416530793E+03  0.19496908270E+03  0.00000000000E+00 0.  1.
          1    1    3    3  501    0 -0.12405575983E+02  0.33907012915E+02 -0.41839612273E+03  0.41995106781E+03  0.00000000000E+00 0.  1.
         -3    1    1    2    0  502  0.16518989255E+02 -0.51107484795E+02 -0.38439203580E+03  0.38812638302E+03  0.00000000000E+00 0. -1.
<mgrwt>
<rscale>  1 0.30000000E+03</rscale>
<asrwt>0</asrwt>
<pdfrwt beam="1">  1       21 0.11078327E-01 0.30000000E+03</pdfrwt>
<pdfrwt beam="2">0</pdfrwt>
<totfact> 0.71600068E+03</totfact>
</mgrwt>
</event>
<event>
 6    1  0.1295671E-001  0.3000000E+03  0.7818608E-02  0.1093470E+00
         21   -1    0    0  501  502  0.00000000000E+00  0.00000000000E+00  0.14269129428E+01  0.14269129428E+01  0.00000000000E+00 0. -1.
         13   -1    0    0    0    0 -0.00000000000E+00 -0.00000000000E+00 -0.10000000000E+04  0.10000000000E+04  0.00000000000E+00 0.  1.
    9000005    2    1    2  501    0 -0.76929726783E+01 -0.33892867982E+02 -0.69240077513E+03  0.69328831926E+03  0.46852840945E+01 0.  0.
         13    1    3    3    0    0 -0.66873042072E+01 -0.24311608359E+02 -0.46423996887E+03  0.46492421214E+03  0.00000000000E+00 0.  1.
          3    1    3    3  501    0 -0.10056684711E+01 -0.95812596225E+01 -0.22816080626E+03  0.22836410712E+03  0.00000000000E+00 0.  1.
         -1    1    1    2    0  502  0.76929726783E+01  0.33892867982E+02 -0.30617231193E+03  0.30813859369E+03  0.00000000000E+00 0. -1.
<mgrwt>
<rscale>  1 0.30000000E+03</rscale>
<asrwt>0</asrwt>
<pdfrwt beam="1">  1       21 0.51887853E-02 0.30000000E+03</pdfrwt>
<pdfrwt beam="2">0</pdfrwt>
<totfact> 0.27039423E+04</totfact>
</mgrwt>
</event>
<event>
 6    1  0.1295671E-001  0.3000000E+03  0.7818608E-02  0.1093470E+00
         21   -1    0    0  501  502  0.00000000000E+00  0.00000000000E+00  0.15781341538E+01  0.15781341538E+01  0.00000000000E+00 0. -1.
         13   -1    0    0    0    0 -0.00000000000E+00 -0.00000000000E+00 -0.10000000000E+04  0.10000000000E+04  0.00000000000E+00 0.  1.
    9000005    2    1    2  501    0  0.12580336328E+02  0.35766590805E+02 -0.35190439807E+03  0.35394988429E+03  0.25102448060E+01 0.  0.
         13    1    3    3    0    0  0.52855838161E+01  0.12973688696E+02 -0.13940382974E+03  0.14010596611E+03  0.00000000000E+00 0.  1.
          3    1    3    3  501    0  0.72947525119E+01  0.22792902109E+02 -0.21250056833E+03  0.21384391818E+03  0.00000000000E+00 0.  1.
         -3    1    1    2    0  502 -0.12580336328E+02 -0.35766590805E+02 -0.64651746777E+03  0.64762824986E+03  0.00000000000E+00 0. -1.
<mgrwt>
<rscale>  1 0.30000000E+03</rscale>
<asrwt>0</asrwt>
<pdfrwt beam="1">  1       21 0.57386818E-02 0.30000000E+03</pdfrwt>
<pdfrwt beam="2">0</pdfrwt>
<totfact> 0.22752037E+04</totfact>
</mgrwt>
</event>
<event>
 6    1  0.1295671E-001  0.3000000E+03  0.7818608E-02  0.1093470E+00
         21   -1    0    0  501  502  0.00000000000E+00  0.00000000000E+00  0.16654285364E+01  0.16654285364E+01  0.00000000000E+00 0. -1.
         13   -1    0    0    0    0 -0.00000000000E+00 -0.00000000000E+00 -0.10000000000E+04  0.10000000000E+04  0.00000000000E+00 0.  1.
    9000005    2    1    2  501    0 -0.63666507520E+00 -0.31004068806E+02 -0.82413466145E+03  0.82472683390E+03  0.38409267512E+01 0.  0.
         13    1    3    3    0    0 -0.16657421121E+01 -0.28210192587E+02 -0.75173925047E+03  0.75227022429E+03  0.00000000000E+00 0.  1.
          1    1    3    3  501    0  0.10290770369E+01 -0.27938762188E+01 -0.72395410983E+02  0.72456609604E+02  0.00000000000E+00 0.  1.
         -3    1    1    2    0  502  0.63666507520E+00  0.31004068806E+02 -0.17419991001E+03  0.17693859464E+03  0.00000000000E+00 0. -1.
<mgrwt>
<rscale>  1 0.30000000E+03</rscale>
<asrwt>0</asrwt>
<pdfrwt beam="1">  1       21 0.60561165E-02 0.30000000E+03</pdfrwt>
<pdfrwt beam="2">0</pdfrwt>
<totfact> 0.20735995E+04</totfact>
</mgrwt>
</event>
<event>
 6    1  0.1295671E-001  0.3000000E+03  0.7818608E-02  0.1093470E+00
         21   -1    0    0  501  502  0.00000000000E+00  0.00000000000E+00  0.31432917050E+01  0.31432917050E+01  0.00000000000E+00 0. -1.
         13   -1    0    0    0    0 -0.00000000000E+00 -0.00000000000E+00 -0.10000000000E+04  0.10000000000E+04  0.00000000000E+00 0.  1.
    9000005    2    1    2  501    0  0.35741752033E+02 -0.34494817266E+02 -0.73061013174E+03  0.73230273938E+03  0.29617976824E+01 0.  0.
         13    1    3    3    0    0  0.51275431258E+00 -0.56487420403E+00 -0.17900765086E+02  0.17917013996E+02  0.00000000000E+00 0.  1.
          3    1    3    3  501    0  0.35228997720E+02 -0.33929943062E+02 -0.71270936665E+03  0.71438572538E+03  0.00000000000E+00 0.  1.
         -3    1    1    2    0  502 -0.35741752033E+02  0.34494817266E+02 -0.26624657656E+03  0.27084055233E+03  0.00000000000E+00 0. -1.
<mgrwt>
<rscale>  1 0.30000000E+03</rscale>
<asrwt>0</asrwt>
<pdfrwt beam="1">  1       21 0.11430176E-01 0.30000000E+03</pdfrwt>
<pdfrwt beam="2">0</pdfrwt>
<totfact> 0.67675826E+03</totfact>
</mgrwt>
</event>
<event>
 6    1  0.1295671E-001  0.3000000E+03  0.7818608E-02  0.1093470E+00
         21   -1    0    0  501  502  0.00000000000E+00  0.00000000000E+00  0.13393487725E+01  0.13393487725E+01  0.00000000000E+00 0. -1.
         13   -1    0    0    0    0 -0.00000000000E+00 -0.00000000000E+00 -0.10000000000E+04  0.10000000000E+04  0.00000000000E+00 0.  1.
    9000005    2    1    2  501    0 -0.98608028233E+01  0.30933525474E+02 -0.72535815944E+03  0.72611513027E+03  0.66786613116E+01 0.  0.
         13    1    3    3    0    0  0.99572706694E+00  0.24562250015E+01 -0.51541635910E+02  0.51609734992E+02  0.00000000000E+00 0.  1.
          1    1    3    3  501    0 -0.10856529890E+02  0.28477300473E+02 -0.67381652353E+03  0.67450539528E+03  0.00000000000E+00 0.  1.
         -3    1    1    2    0  502  0.98608028233E+01 -0.30933525474E+02 -0.27330249179E+03  0.27522421850E+03  0.00000000000E+00 0. -1.
<mgrwt>
<rscale>  1 0.30000000E+03</rscale>
<asrwt>0</asrwt>
<pdfrwt beam="1">  1       21 0.48703694E-02 0.30000000E+03</pdfrwt>
<pdfrwt beam="2">0</pdfrwt>
<totfact> 0.30123002E+04</totfact>
</mgrwt>
</event>
<event>
 6    1  0.1295671E-001  0.3000000E+03  0.7818608E-02  0.1093470E+00
         21   -1    0    0  501  502  0.00000000000E+00  0.00000000000E+00  0.35482706363E+01  0.35482706363E+01  0.00000000000E+00 0. -1.
         13   -1    0    0    0    0 -0.00000000000E+00 -0.00000000000E+00 -0.10000000000E+04  0.10000000000E+04  0.00000000000E+00 0.  1.
    9000005    2    1    2  501    0 -0.28322281732E+02 -0.25612433210E+02 -0.88322751976E+03  0.88405822914E+03  0.31547524920E+01 0.  0.
         13    1    3    3    0    0 -0.21279313908E+02 -0.20425385737E+02 -0.65737250709E+03  0.65803390388E+03  0.00000000000E+00 0.  1.
          3    1    3    3  501    0 -0.70429678247E+01 -0.51870474733E+01 -0.22585501267E+03  0.22602432525E+03  0.00000000000E+00 0.  1.
         -1    1    1    2    0  502  0.28322281732E+02  0.25612433210E+02 -0.11322420960E+03  0.11949004150E+03  0.00000000000E+00 0. -1.
<mgrwt>
<rscale>  1 0.30000000E+03</rscale>
<asrwt>0</asrwt>
<pdfrwt beam="1">  1       21 0.12902830E-01 0.30000000E+03</pdfrwt>
<pdfrwt beam="2">0</pdfrwt>
<totfact> 0.54303996E+03</totfact>
</mgrwt>
</event>
<event>
 6    1  0.1295671E-001  0.3000000E+03  0.7818608E-02  0.1093470E+00
         21   -1    0    0  501  502  0.00000000000E+00  0.00000000000E+00  0.12252584484E+01  0.12252584484E+01  0.00000000000E+00 0. -1.
         13   -1    0    0    0    0 -0.00000000000E+00 -0.00000000000E+00 -0.10000000000E+04  0.10000000000E+04  0.00000000000E+00 0.  1.
    9000005    2    1    2  501    0  0.25456306139E+02 -0.19196345494E+02 -0.70454412792E+03  0.70527226016E+03  0.31637874388E+01 0.  0.
         13    1    3    3    0    0  0.24278783658E+02 -0.17320319345E+02 -0.65715877119E+03  0.65783516427E+03  0.00000000000E+00 0.  1.
          3    1    3    3  501    0  0.11775224809E+01 -0.18760261485E+01 -0.47385356734E+02  0.47437095886E+02  0.00000000000E+00 0.  1.
         -3    1    1    2    0  502 -0.25456306139E+02  0.19196345494E+02 -0.29423061363E+03  0.29595299829E+03  0.00000000000E+00 0. -1.
<mgrwt>
<rscale>  1 0.30000000E+03</rscale>
<asrwt>0</asrwt>
<pdfrwt beam="1">  1       21 0.44554947E-02 0.30000000E+03</pdfrwt>
<pdfrwt beam="2">0</pdfrwt>
<totfact> 0.35044058E+04</totfact>
</mgrwt>
</event>
<event>
 6    1  0.1295671E-001  0.3000000E+03  0.7818608E-02  0.1093470E+00
         21   -1    0    0  501  502  0.00000000000E+00  0.00000000000E+00  0.22628747665E+01  0.22628747665E+01  0.00000000000E+00 0. -1.
         13   -1    0    0    0    0 -0.00000000000E+00 -0.00000000000E+00 -0.10000000000E+04  0.10000000000E+04  0.00000000000E+00 0.  1.
    9000005    2    1    2  501    0  0.15676857557E+02  0.30667102571E+02 -0.84426705019E+03  0.84497556130E+03  0.32576246960E+01 0.  0.
         13    1    3    3    0    0  0.46734905354E+01  0.99121845350E+01 -0.30593202724E+03  0.30612823818E+03  0.00000000000E+00 0.  1.
          3    1    3    3  501    0  0.11003367021E+02  0.20754918036E+02 -0.53833502295E+03  0.53884732313E+03  0.00000000000E+00 0.  1.
         -3    1    1    2    0  502 -0.15676857557E+02 -0.30667102571E+02 -0.15347007504E+03  0.15728731346E+03  0.00000000000E+00 0. -1.
<mgrwt>
<rscale>  1 0.30000000E+03</rscale>
<asrwt>0</asrwt>
<pdfrwt beam="1">  1       21 0.82286529E-02 0.30000000E+03</pdfrwt>
<pdfrwt beam="2">0</pdfrwt>
<totfact> 0.12156474E+04</totfact>
</mgrwt>
</event>
<event>
 6    1  0.1295671E-001  0.3000000E+03  0.7818608E-02  0.1093470E+00
         21   -1    0    0  501  502  0.00000000000E+00  0.00000000000E+00  0.33275126789E+01  0.33275126789E+01  0.00000000000E+00 0. -1.
         13   -1    0    0    0    0 -0.00000000000E+00 -0.00000000000E+00 -0.10000000000E+04  0.10000000000E+04  0.00000000000E+00 0.  1.
    9000005    2    1    2  501    0  0.26618358403E+02 -0.51028178738E+02 -0.52600893312E+03  0.52915814074E+03  0.32447130463E+01 0.  0.
         13    1    3    3    0    0  0.17269966428E+02 -0.29826245213E+02 -0.31891185927E+03  0.32076881180E+03  0.00000000000E+00 0.  1.
          3    1    3    3  501    0  0.93483919751E+01 -0.21201933525E+02 -0.20709707385E+03  0.20838932894E+03  0.00000000000E+00 0.  1.
         -1    1    1    2    0  502 -0.26618358403E+02  0.51028178738E+02 -0.47066355420E+03  0.47416937194E+03  0.00000000000E+00 0. -1.
<mgrwt>
<rscale>  1 0.30000000E+03</rscale>
<asrwt>0</asrwt>
<pdfrwt beam="1">  1       21 0.12100072E-01 0.30000000E+03</pdfrwt>
<pdfrwt beam="2">0</pdfrwt>
<totfact> 0.61043698E+03</totfact>
</mgrwt>
</event>
<event>
 6    1  0.1295671E-001  0.3000000E+03  0.7818608E-02  0.1093470E+00
         21   -1    0    0  501  502  0.00000000000E+00  0.00000000000E+00  0.20001514689E+01  0.20001514689E+01  0.00000000000E+00 0. -1.
         13   -1    0    0    0    0 -0.00000000000E+00 -0.00000000000E+00 -0.10000000000E+04  0.10000000000E+04  0.00000000000E+00 0.  1.
    9000005    2    1    2  501    0 -0.14760210278E+02 -0.40799296844E+02 -0.61854665210E+03  0.62007453736E+03  0.31661693045E+01 0.  0.
         13    1    3    3    0    0 -0.23152106389E+01 -0.71052245079E+01 -0.12428084352E+03  0.12450531106E+03  0.00000000000E+00 0.  1.
          1    1    3    3  501    0 -0.12444999639E+02 -0.33694072336E+02 -0.49426580858E+03  0.49556922630E+03  0.00000000000E+00 0.  1.
         -3    1    1    2    0  502  0.14760210278E+02  0.40799296844E+02 -0.37945319643E+03  0.38192561411E+03  0.00000000000E+00 0. -1.
<mgrwt>
<rscale>  1 0.30000000E+03</rscale>
<asrwt>0</asrwt>
<pdfrwt beam="1">  1       21 0.72732934E-02 0.30000000E+03</pdfrwt>
<pdfrwt beam="2">0</pdfrwt>
<totfact> 0.15093236E+04</totfact>
</mgrwt>
</event>
<event>
 6    1  0.1295671E-001  0.3000000E+03  0.7818608E-02  0.1093470E+00
         21   -1    0    0  501  502  0.00000000000E+00  0.00000000000E+00  0.30053816139E+01  0.30053816139E+01  0.00000000000E+00 0. -1.
         13   -1    0    0    0    0 -0.00000000000E+00 -0.00000000000E+00 -0.10000000000E+04  0.10000000000E+04  0.00000000000E+00 0.  1.
    9000005    2    1    2  501    0  0.26137321531E+02 -0.47368826980E+02 -0.57786902448E+03  0.58040246064E+03  0.27279150195E+01 0.  0.
         13    1    3    3    0    0  0.51362687711E+01 -0.73128761984E+01 -0.98670666474E+02  0.99074516590E+02  0.00000000000E+00 0.  1.
          3    1    3    3  501    0  0.21001052760E+02 -0.40055950781E+02 -0.47919835800E+03  0.48132794405E+03  0.00000000000E+00 0.  1.
         -1    1    1    2    0  502 -0.26137321531E+02  0.47368826980E+02 -0.41912559391E+03  0.42260292097E+03  0.00000000000E+00 0. -1.
<mgrwt>
<rscale>  1 0.30000000E+03</rscale>
<asrwt>0</asrwt>
<pdfrwt beam="1">  1       21 0.10928683E-01 0.30000000E+03</pdfrwt>
<pdfrwt beam="2">0</pdfrwt>
<totfact> 0.73373631E+03</totfact>
</mgrwt>
</event>
<event>
 6    1  0.1295671E-001  0.3000000E+03  0.7818608E-02  0.1093470E+00
         21   -1    0    0  501  502  0.00000000000E+00  0.00000000000E+00  0.27419466853E+01  0.27419466853E+01  0.00000000000E+00 0. -1.
         13   -1    0    0    0    0 -0.00000000000E+00 -0.00000000000E+00 -0.10000000000E+04  0.10000000000E+04  0.00000000000E+00 0.  1.
    9000005    2    1    2  501    0  0.40028849395E+02  0.30297744339E+02 -0.63975828018E+03  0.64173453694E+03  0.35066727126E+01 0.  0.
         13    1    3    3    0    0  0.35248239381E+02  0.25168013677E+02 -0.55216076448E+03  0.55385682006E+03  0.00000000000E+00 0.  1.
          1    1    3    3  501    0  0.47806100141E+01  0.51297306627E+01 -0.87597515693E+02  0.87877716882E+02  0.00000000000E+00 0.  1.
         -3    1    1    2    0  502 -0.40028849395E+02 -0.30297744339E+02 -0.35749977314E+03  0.36100740974E+03  0.00000000000E+00 0. -1.
<mgrwt>
<rscale>  1 0.30000000E+03</rscale>
<asrwt>0</asrwt>
<pdfrwt beam="1">  1       21 0.99707362E-02 0.30000000E+03</pdfrwt>
<pdfrwt beam="2">0</pdfrwt>
<totfact> 0.86483636E+03</totfact>
</mgrwt>
</event>
<event>
 6    1  0.1295671E-001  0.3000000E+03  0.7818608E-02  0.1093470E+00
         21   -1    0    0  501  502  0.00000000000E+00  0.00000000000E+00  0.24243746235E+01  0.24243746235E+01  0.00000000000E+00 0. -1.
         13   -1    0    0    0    0 -0.00000000000E+00 -0.00000000000E+00 -0.10000000000E+04  0.10000000000E+04  0.00000000000E+00 0.  1.
    9000005    2    1    2  501    0  0.20005360608E+02  0.34806112880E+02 -0.78851996364E+03  0.78954894239E+03  0.34812949877E+01 0.  0.
         13    1    3    3    0    0  0.90217869024E+01  0.14748846330E+02 -0.37235467848E+03  0.37275585534E+03  0.00000000000E+00 0.  1.
          3    1    3    3  501    0  0.10983573706E+02  0.20057266550E+02 -0.41616528516E+03  0.41679308704E+03  0.00000000000E+00 0.  1.
         -3    1    1    2    0  502 -0.20005360608E+02 -0.34806112880E+02 -0.20905566173E+03  0.21287543224E+03  0.00000000000E+00 0. -1.
<mgrwt>
<rscale>  1 0.30000000E+03</rscale>
<asrwt>0</asrwt>
<pdfrwt beam="1">  1       21 0.88159263E-02 0.30000000E+03</pdfrwt>
<pdfrwt beam="2">0</pdfrwt>
<totfact> 0.10764718E+04</totfact>
</mgrwt>
</event>
<event>
 6    1  0.1295671E-001  0.3000000E+03  0.7818608E-02  0.1093470E+00
         21   -1    0    0  501  502  0.00000000000E+00  0.00000000000E+00  0.97072456483E+01  0.97072456483E+01  0.00000000000E+00 0. -1.
         13   -1    0    0    0    0 -0.00000000000E+00 -0.00000000000E+00 -0.10000000000E+04  0.10000000000E+04  0.00000000000E+00 0.  1.
    9000005    2    1    2  501    0 -0.16744343706E+02  0.32154254741E+02 -0.96456921702E+03  0.96525536698E+03  0.31432341568E+01 0.  0.
         13    1    3    3    0    0 -0.12086793683E+02  0.20095505452E+02 -0.63334384378E+03  0.63377783519E+03  0.00000000000E+00 0.  1.
          1    1    3    3  501    0 -0.46575500224E+01  0.12058749290E+02 -0.33122537324E+03  0.33147753179E+03  0.00000000000E+00 0.  1.
         -1    1    1    2    0  502  0.16744343706E+02 -0.32154254741E+02 -0.25723537332E+02  0.44451878666E+02  0.00000000000E+00 0. -1.
<mgrwt>
<rscale>  1 0.30000000E+03</rscale>
<asrwt>0</asrwt>
<pdfrwt beam="1">  1       21 0.35299150E-01 0.30000000E+03</pdfrwt>
<pdfrwt beam="2">0</pdfrwt>
<totfact> 0.78205354E+02</totfact>
</mgrwt>
</event>
<event>
 6    1  0.1295671E-001  0.3000000E+03  0.7818608E-02  0.1093470E+00
         21   -1    0    0  501  502  0.00000000000E+00  0.00000000000E+00  0.14215543056E+01  0.14215543056E+01  0.00000000000E+00 0. -1.
         13   -1    0    0    0    0 -0.00000000000E+00 -0.00000000000E+00 -0.10000000000E+04  0.10000000000E+04  0.00000000000E+00 0.  1.
    9000005    2    1    2  501    0 -0.28468245491E+02  0.24559031506E+02 -0.47925890247E+03  0.48074279057E+03  0.33087851278E+01 0.  0.
         13    1    3    3    0    0 -0.24711219567E+02  0.19734202962E+02 -0.40409669674E+03  0.40533223836E+03  0.00000000000E+00 0.  1.
          3    1    3    3  501    0 -0.37570259238E+01  0.48248285433E+01 -0.75162205734E+02  0.75410552213E+02  0.00000000000E+00 0.  1.
         -3    1    1    2    0  502  0.28468245491E+02 -0.24559031506E+02 -0.51931954322E+03  0.52067876373E+03  0.00000000000E+00 0. -1.
<mgrwt>
<rscale>  1 0.30000000E+03</rscale>
<asrwt>0</asrwt>
<pdfrwt beam="1">  1       21 0.51692993E-02 0.30000000E+03</pdfrwt>
<pdfrwt beam="2">0</pdfrwt>
<totfact> 0.27213739E+04</totfact>
</mgrwt>
</event>
<event>
 6    1  0.1295671E-001  0.3000000E+03  0.7818608E-02  0.1093470E+00
         21   -1    0    0  501  502  0.00000000000E+00  0.00000000000E+00  0.26400970809E+01  0.26400970809E+01  0.00000000000E+00 0. -1.
         13   -1    0    0    0    0 -0.00000000000E+00 -0.00000000000E+00 -0.10000000000E+04  0.10000000000E+04  0.00000000000E+00 0.  1.
    9000005    2    1    2  501    0  0.18753499597E+02 -0.47738471772E+02 -0.48537361695E+03  0.48809115631E+03  0.38436176529E+01 0.  0.
         13    1    3    3    0    0  0.61043633592E+01 -0.11114025631E+02 -0.11639476686E+03  0.11708341715E+03  0.00000000000E+00 0.  1.
          3    1    3    3  501    0  0.12649136238E+02 -0.36624446141E+02 -0.36897885009E+03  0.37100773916E+03  0.00000000000E+00 0.  1.
         -3    1    1    2    0  502 -0.18753499597E+02  0.47738471772E+02 -0.51198628596E+03  0.51454894077E+03  0.00000000000E+00 0. -1.
<mgrwt>
<rscale>  1 0.30000000E+03</rscale>
<asrwt>0</asrwt>
<pdfrwt beam="1">  1       21 0.96003733E-02 0.30000000E+03</pdfrwt>
<pdfrwt beam="2">0</pdfrwt>
<totfact> 0.92527701E+03</totfact>
</mgrwt>
</event>
<event>
 6    1  0.1295671E-001  0.3000000E+03  0.7818608E-02  0.1093470E+00
         21   -1    0    0  501  502  0.00000000000E+00  0.00000000000E+00  0.26943136596E+01  0.26943136596E+01  0.00000000000E+00 0. -1.
         13   -1    0    0    0    0 -0.00000000000E+00 -0.00000000000E+00 -0.10000000000E+04  0.10000000000E+04  0.00000000000E+00 0.  1.
    9000005    2    1    2  501    0 -0.43206823922E+02 -0.98717145720E+01 -0.75920433807E+03  0.76050320641E+03  0.31015537155E+01 0.  0.
         13    1    3    3    0    0 -0.39305370092E+02 -0.81538402690E+01 -0.67870822216E+03  0.67989429182E+03  0.00000000000E+00 0.  1.
          1    1    3    3  501    0 -0.39014538306E+01 -0.17178743029E+01 -0.80496115909E+02  0.80608914585E+02  0.00000000000E+00 0.  1.
         -3    1    1    2    0  502  0.43206823922E+02  0.98717145720E+01 -0.23810134827E+03  0.24219110725E+03  0.00000000000E+00 0. -1.
<mgrwt>
<rscale>  1 0.30000000E+03</rscale>
<asrwt>0</asrwt>
<pdfrwt beam="1">  1       21 0.97975249E-02 0.30000000E+03</pdfrwt>
<pdfrwt beam="2">0</pdfrwt>
<totfact> 0.89232710E+03</totfact>
</mgrwt>
</event>
<event>
 6    1  0.1295671E-001  0.3000000E+03  0.7818608E-02  0.1093470E+00
         21   -1    0    0  501  502  0.00000000000E+00  0.00000000000E+00  0.13166440817E+02  0.13166440817E+02  0.00000000000E+00 0. -1.
         13   -1    0    0    0    0 -0.00000000000E+00 -0.00000000000E+00 -0.10000000000E+04  0.10000000000E+04  0.00000000000E+00 0.  1.
    9000005    2    1    2  501    0  0.10449045965E+03  0.29075665168E+01 -0.70221417728E+03  0.70995875184E+03  0.31572834599E+01 0.  0.
         13    1    3    3    0    0  0.64824733918E+02  0.32485422518E+01 -0.43930846481E+03  0.44407738786E+03  0.00000000000E+00 0.  1.
          3    1    3    3  501    0  0.39665725732E+02 -0.34097573500E+00 -0.26290571246E+03  0.26588136397E+03  0.00000000000E+00 0.  1.
         -1    1    1    2    0  502 -0.10449045965E+03 -0.29075665168E+01 -0.28461938191E+03  0.30320768898E+03  0.00000000000E+00 0. -1.
<mgrwt>
<rscale>  1 0.30000000E+03</rscale>
<asrwt>0</asrwt>
<pdfrwt beam="1">  1       21 0.47878068E-01 0.30000000E+03</pdfrwt>
<pdfrwt beam="2">0</pdfrwt>
<totfact> 0.41259511E+02</totfact>
</mgrwt>
</event>
<event>
 6    1  0.1295671E-001  0.3000000E+03  0.7818608E-02  0.1093470E+00
         21   -1    0    0  501  502  0.00000000000E+00  0.00000000000E+00  0.13596513839E+01  0.13596513839E+01  0.00000000000E+00 0. -1.
         13   -1    0    0    0    0 -0.00000000000E+00 -0.00000000000E+00 -0.10000000000E+04  0.10000000000E+04  0.00000000000E+00 0.  1.
    9000005    2    1    2  501    0  0.36736892186E+02  0.16533778758E+01 -0.47906335101E+03  0.48048290075E+03  0.31290141780E+01 0.  0.
         13    1    3    3    0    0  0.20506854523E+02 -0.93668385281E-01 -0.28194567555E+03  0.28269047352E+03  0.00000000000E+00 0.  1.
          1    1    3    3  501    0  0.16230037662E+02  0.17470462611E+01 -0.19711767546E+03  0.19779242723E+03  0.00000000000E+00 0.  1.
         -3    1    1    2    0  502 -0.36736892186E+02 -0.16533778758E+01 -0.51957699761E+03  0.52087675063E+03  0.00000000000E+00 0. -1.
<mgrwt>
<rscale>  1 0.30000000E+03</rscale>
<asrwt>0</asrwt>
<pdfrwt beam="1">  1       21 0.49441973E-02 0.30000000E+03</pdfrwt>
<pdfrwt beam="2">0</pdfrwt>
<totfact> 0.29360917E+04</totfact>
</mgrwt>
</event>
<event>
 6    1  0.1295671E-001  0.3000000E+03  0.7818608E-02  0.1093470E+00
         21   -1    0    0  501  502  0.00000000000E+00  0.00000000000E+00  0.11532153352E+01  0.11532153352E+01  0.00000000000E+00 0. -1.
         13   -1    0    0    0    0 -0.00000000000E+00 -0.00000000000E+00 -0.10000000000E+04  0.10000000000E+04  0.00000000000E+00 0.  1.
    9000005    2    1    2  501    0  0.35327797784E+01 -0.31361721904E+02 -0.68173298224E+03  0.68247280831E+03  0.36382515482E+01 0.  0.
         13    1    3    3    0    0  0.13275249406E+01 -0.16555024438E+02 -0.39564053989E+03  0.39598897454E+03  0.00000000000E+00 0.  1.
          1    1    3    3  501    0  0.22052548378E+01 -0.14806697465E+02 -0.28609244235E+03  0.28648383377E+03  0.00000000000E+00 0.  1.
         -3    1    1    2    0  502 -0.35327797784E+01  0.31361721904E+02 -0.31711380242E+03  0.31868040702E+03  0.00000000000E+00 0. -1.
<mgrwt>
<rscale>  1 0.30000000E+03</rscale>
<asrwt>0</asrwt>
<pdfrwt beam="1">  1       21 0.41935192E-02 0.30000000E+03</pdfrwt>
<pdfrwt beam="2">0</pdfrwt>
<totfact> 0.38827571E+04</totfact>
</mgrwt>
</event>
<event>
 6    1  0.1295671E-001  0.3000000E+03  0.7818608E-02  0.1093470E+00
         21   -1    0    0  501  502  0.00000000000E+00  0.00000000000E+00  0.18979223183E+01  0.18979223183E+01  0.00000000000E+00 0. -1.
         13   -1    0    0    0    0 -0.00000000000E+00 -0.00000000000E+00 -0.10000000000E+04  0.10000000000E+04  0.00000000000E+00 0.  1.
    9000005    2    1    2  501    0  0.19185143270E+02  0.26486754169E+02 -0.82929130173E+03  0.82994823216E+03  0.45152041847E+01 0.  0.
         13    1    3    3    0    0  0.17712952673E+02  0.25340612072E+02 -0.80027683550E+03  0.80087384072E+03  0.00000000000E+00 0.  1.
          1    1    3    3  501    0  0.14721905970E+01  0.11461420970E+01 -0.29014466238E+02  0.29074391446E+02  0.00000000000E+00 0.  1.
         -1    1    1    2    0  502 -0.19185143270E+02 -0.26486754169E+02 -0.16881077595E+03  0.17194969016E+03  0.00000000000E+00 0. -1.
<mgrwt>
<rscale>  1 0.30000000E+03</rscale>
<asrwt>0</asrwt>
<pdfrwt beam="1">  1       21 0.69015503E-02 0.30000000E+03</pdfrwt>
<pdfrwt beam="2">0</pdfrwt>
<totfact> 0.16537739E+04</totfact>
</mgrwt>
</event>
<event>
 6    1  0.1295671E-001  0.3000000E+03  0.7818608E-02  0.1093470E+00
         21   -1    0    0  501  502  0.00000000000E+00  0.00000000000E+00  0.15876934550E+01  0.15876934550E+01  0.00000000000E+00 0. -1.
         13   -1    0    0    0    0 -0.00000000000E+00 -0.00000000000E+00 -0.10000000000E+04  0.10000000000E+04  0.00000000000E+00 0.  1.
    9000005    2    1    2  501    0 -0.61885667896E+01  0.34446567162E+02 -0.73774252034E+03  0.73857894495E+03  0.31570972314E+01 0.  0.
         13    1    3    3    0    0 -0.38793056434E+01  0.28393510871E+02 -0.60612819894E+03  0.60680526862E+03  0.00000000000E+00 0.  1.
          1    1    3    3  501    0 -0.23092611462E+01  0.60530562910E+01 -0.13161432140E+03  0.13177367634E+03  0.00000000000E+00 0.  1.
         -1    1    1    2    0  502  0.61885667896E+01 -0.34446567162E+02 -0.26066978620E+03  0.26300874850E+03  0.00000000000E+00 0. -1.
<mgrwt>
<rscale>  1 0.30000000E+03</rscale>
<asrwt>0</asrwt>
<pdfrwt beam="1">  1       21 0.57734429E-02 0.30000000E+03</pdfrwt>
<pdfrwt beam="2">0</pdfrwt>
<totfact> 0.22516796E+04</totfact>
</mgrwt>
</event>
<event>
 6    1  0.1295671E-001  0.3000000E+03  0.7818608E-02  0.1093470E+00
         21   -1    0    0  501  502  0.00000000000E+00  0.00000000000E+00  0.53531049239E+01  0.53531049239E+01  0.00000000000E+00 0. -1.
         13   -1    0    0    0    0 -0.00000000000E+00 -0.00000000000E+00 -0.10000000000E+04  0.10000000000E+04  0.00000000000E+00 0.  1.
    9000005    2    1    2  501    0 -0.42954739772E+02  0.49795391823E+02 -0.71744284923E+03  0.72045527455E+03  0.26210697729E+01 0.  0.
         13    1    3    3    0    0 -0.14945018616E+02  0.17805748960E+02 -0.26703338351E+03  0.26804332894E+03  0.00000000000E+00 0.  1.
          1    1    3    3  501    0 -0.28009721156E+02  0.31989642862E+02 -0.45040946572E+03  0.45241194562E+03  0.00000000000E+00 0.  1.
         -1    1    1    2    0  502  0.42954739772E+02 -0.49795391823E+02 -0.27720404585E+03  0.28489783037E+03  0.00000000000E+00 0. -1.
<mgrwt>
<rscale>  1 0.30000000E+03</rscale>
<asrwt>0</asrwt>
<pdfrwt beam="1">  1       21 0.19465877E-01 0.30000000E+03</pdfrwt>
<pdfrwt beam="2">0</pdfrwt>
<totfact> 0.25262024E+03</totfact>
</mgrwt>
</event>
<event>
 6    1  0.1295671E-001  0.3000000E+03  0.7818608E-02  0.1093470E+00
         21   -1    0    0  501  502  0.00000000000E+00  0.00000000000E+00  0.12654670633E+01  0.12654670633E+01  0.00000000000E+00 0. -1.
         13   -1    0    0    0    0 -0.00000000000E+00 -0.00000000000E+00 -0.10000000000E+04  0.10000000000E+04  0.00000000000E+00 0.  1.
    9000005    2    1    2  501    0 -0.16930769620E+02  0.31038293691E+02 -0.54053387063E+03  0.54170276887E+03  0.38727076542E+01 0.  0.
         13    1    3    3    0    0 -0.49286181014E+00  0.85034831500E+00 -0.28198285556E+02  0.28215409147E+02  0.00000000000E+00 0.  1.
          1    1    3    3  501    0 -0.16437907810E+02  0.30187945376E+02 -0.51233558508E+03  0.51348735972E+03  0.00000000000E+00 0.  1.
         -1    1    1    2    0  502  0.16930769620E+02 -0.31038293691E+02 -0.45820066230E+03  0.45956269819E+03  0.00000000000E+00 0. -1.
<mgrwt>
<rscale>  1 0.30000000E+03</rscale>
<asrwt>0</asrwt>
<pdfrwt beam="1">  1       21 0.46017081E-02 0.30000000E+03</pdfrwt>
<pdfrwt beam="2">0</pdfrwt>
<totfact> 0.33174852E+04</totfact>
</mgrwt>
</event>
<event>
 6    1  0.1295671E-001  0.3000000E+03  0.7818608E-02  0.1093470E+00
         21   -1    0    0  501  502  0.00000000000E+00  0.00000000000E+00  0.12417312607E+02  0.12417312607E+02  0.00000000000E+00 0. -1.
         13   -1    0    0    0    0 -0.00000000000E+00 -0.00000000000E+00 -0.10000000000E+04  0.10000000000E+04  0.00000000000E+00 0.  1.
    9000005    2    1    2  501    0  0.93356052747E+02  0.39637569051E+02 -0.70322941055E+03  0.71051786658E+03  0.41887219958E+01 0.  0.
         13    1    3    3    0    0  0.77621941275E+02  0.32672196478E+02 -0.57268330584E+03  0.57884264440E+03  0.00000000000E+00 0.  1.
          1    1    3    3  501    0  0.15734111472E+02  0.69653725728E+01 -0.13054610471E+03  0.13167522217E+03  0.00000000000E+00 0.  1.
         -1    1    1    2    0  502 -0.93356052747E+02 -0.39637569051E+02 -0.28435327684E+03  0.30189944603E+03  0.00000000000E+00 0. -1.
<mgrwt>
<rscale>  1 0.30000000E+03</rscale>
<asrwt>0</asrwt>
<pdfrwt beam="1">  1       21 0.45153959E-01 0.30000000E+03</pdfrwt>
<pdfrwt beam="2">0</pdfrwt>
<totfact> 0.46767970E+02</totfact>
</mgrwt>
</event>
<event>
 6    1  0.1295671E-001  0.3000000E+03  0.7818608E-02  0.1093470E+00
         21   -1    0    0  501  502  0.00000000000E+00  0.00000000000E+00  0.17775562123E+01  0.17775562123E+01  0.00000000000E+00 0. -1.
         13   -1    0    0    0    0 -0.00000000000E+00 -0.00000000000E+00 -0.10000000000E+04  0.10000000000E+04  0.00000000000E+00 0.  1.
    9000005    2    1    2  501    0 -0.31854984269E+02 -0.15744702829E+01 -0.82624396291E+03  0.82686667358E+03  0.34915106550E+01 0.  0.
         13    1    3    3    0    0 -0.14471409899E+02 -0.62748910946E+00 -0.33094430814E+03  0.33126115156E+03  0.00000000000E+00 0.  1.
          1    1    3    3  501    0 -0.17383574370E+02 -0.94698117340E+00 -0.49529965477E+03  0.49560552201E+03  0.00000000000E+00 0.  1.
         -3    1    1    2    0  502  0.31854984269E+02  0.15744702829E+01 -0.17197848088E+03  0.17491088263E+03  0.00000000000E+00 0. -1.
<mgrwt>
<rscale>  1 0.30000000E+03</rscale>
<asrwt>0</asrwt>
<pdfrwt beam="1">  1       21 0.64638544E-02 0.30000000E+03</pdfrwt>
<pdfrwt beam="2">0</pdfrwt>
<totfact> 0.18528042E+04</totfact>
</mgrwt>
</event>
<event>
 6    1  0.1295671E-001  0.3000000E+03  0.7818608E-02  0.1093470E+00
         21   -1    0    0  501  502  0.00000000000E+00  0.00000000000E+00  0.47223037000E+01  0.47223037000E+01  0.00000000000E+00 0. -1.
         13   -1    0    0    0    0 -0.00000000000E+00 -0.00000000000E+00 -0.10000000000E+04  0.10000000000E+04  0.00000000000E+00 0.  1.
    9000005    2    1    2  501    0 -0.41651015565E+02  0.40228276968E+02 -0.22811108225E+03  0.23537340036E+03  0.35847432232E+01 0.  0.
         13    1    3    3    0    0 -0.50645040102E+01  0.49929950809E+01 -0.23566883969E+02  0.24616604574E+02  0.00000000000E+00 0.  1.
          1    1    3    3  501    0 -0.36586511555E+02  0.35235281887E+02 -0.20454419828E+03  0.21075679578E+03  0.00000000000E+00 0.  1.
         -3    1    1    2    0  502  0.41651015565E+02 -0.40228276968E+02 -0.76716661405E+03  0.76934890334E+03  0.00000000000E+00 0. -1.
<mgrwt>
<rscale>  1 0.30000000E+03</rscale>
<asrwt>0</asrwt>
<pdfrwt beam="1">  1       21 0.17172050E-01 0.30000000E+03</pdfrwt>
<pdfrwt beam="2">0</pdfrwt>
<totfact> 0.32005577E+03</totfact>
</mgrwt>
</event>
<event>
 6    1  0.1295671E-001  0.3000000E+03  0.7818608E-02  0.1093470E+00
         21   -1    0    0  501  502  0.00000000000E+00  0.00000000000E+00  0.15316985563E+01  0.15316985563E+01  0.00000000000E+00 0. -1.
         13   -1    0    0    0    0 -0.00000000000E+00 -0.00000000000E+00 -0.10000000000E+04  0.10000000000E+04  0.00000000000E+00 0.  1.
    9000005    2    1    2  501    0  0.28988307703E+02 -0.22566070879E+02 -0.33317561835E+03  0.33522553491E+03  0.45406004734E+01 0.  0.
         13    1    3    3    0    0  0.35476361889E+01 -0.21855071227E+01 -0.27015488167E+02  0.27334936708E+02  0.00000000000E+00 0.  1.
          3    1    3    3  501    0  0.25440671514E+02 -0.20380563757E+02 -0.30616013018E+03  0.30789059820E+03  0.00000000000E+00 0.  1.
         -1    1    1    2    0  502 -0.28988307703E+02  0.22566070879E+02 -0.66529268309E+03  0.66630616365E+03  0.00000000000E+00 0. -1.
<mgrwt>
<rscale>  1 0.30000000E+03</rscale>
<asrwt>0</asrwt>
<pdfrwt beam="1">  1       21 0.55698247E-02 0.30000000E+03</pdfrwt>
<pdfrwt beam="2">0</pdfrwt>
<totfact> 0.23950177E+04</totfact>
</mgrwt>
</event>
<event>
 6    1  0.1295671E-001  0.3000000E+03  0.7818608E-02  0.1093470E+00
         21   -1    0    0  501  502  0.00000000000E+00  0.00000000000E+00  0.14177977982E+01  0.14177977982E+01  0.00000000000E+00 0. -1.
         13   -1    0    0    0    0 -0.00000000000E+00 -0.00000000000E+00 -0.10000000000E+04  0.10000000000E+04  0.00000000000E+00 0.  1.
    9000005    2    1    2  501    0 -0.14618697077E+02 -0.33981659408E+02 -0.57860005680E+03  0.57980961247E+03  0.57185227192E+01 0.  0.
         13    1    3    3    0    0 -0.69756274891E+01 -0.17887822482E+02 -0.25681454353E+03  0.25753124731E+03  0.00000000000E+00 0.  1.
          1    1    3    3  501    0 -0.76430695879E+01 -0.16093836925E+02 -0.32178551327E+03  0.32227836516E+03  0.00000000000E+00 0.  1.
         -3    1    1    2    0  502  0.14618697077E+02  0.33981659408E+02 -0.41998214540E+03  0.42160818533E+03  0.00000000000E+00 0. -1.
<mgrwt>
<rscale>  1 0.30000000E+03</rscale>
<asrwt>0</asrwt>
<pdfrwt beam="1">  1       21 0.51556392E-02 0.30000000E+03</pdfrwt>
<pdfrwt beam="2">0</pdfrwt>
<totfact> 0.27336980E+04</totfact>
</mgrwt>
</event>
<event>
 6    1  0.1295671E-001  0.3000000E+03  0.7818608E-02  0.1093470E+00
         21   -1    0    0  501  502  0.00000000000E+00  0.00000000000E+00  0.22053634107E+01  0.22053634107E+01  0.00000000000E+00 0. -1.
         13   -1    0    0    0    0 -0.00000000000E+00 -0.00000000000E+00 -0.10000000000E+04  0.10000000000E+04  0.00000000000E+00 0.  1.
    9000005    2    1    2  501    0  0.12823833374E+02  0.30652618582E+02 -0.85279883971E+03  0.85345115392E+03  0.29962292438E+01 0.  0.
         13    1    3    3    0    0  0.24466996744E+01  0.62805239080E+01 -0.14439572966E+03  0.14455295938E+03  0.00000000000E+00 0.  1.
          1    1    3    3  501    0  0.10377133699E+02  0.24372094674E+02 -0.70840311005E+03  0.70889819454E+03  0.00000000000E+00 0.  1.
         -3    1    1    2    0  502 -0.12823833374E+02 -0.30652618582E+02 -0.14499579688E+03  0.14875420949E+03  0.00000000000E+00 0. -1.
<mgrwt>
<rscale>  1 0.30000000E+03</rscale>
<asrwt>0</asrwt>
<pdfrwt beam="1">  1       21 0.80195202E-02 0.30000000E+03</pdfrwt>
<pdfrwt beam="2">0</pdfrwt>
<totfact> 0.12719302E+04</totfact>
</mgrwt>
</event>
<event>
 6    1  0.1295671E-001  0.3000000E+03  0.7818608E-02  0.1093470E+00
         21   -1    0    0  501  502  0.00000000000E+00  0.00000000000E+00  0.88873913192E+01  0.88873913192E+01  0.00000000000E+00 0. -1.
         13   -1    0    0    0    0 -0.00000000000E+00 -0.00000000000E+00 -0.10000000000E+04  0.10000000000E+04  0.00000000000E+00 0.  1.
    9000005    2    1    2  501    0  0.63250453533E+02  0.26777587730E+02 -0.84101117290E+03  0.84381740586E+03  0.32190697259E+01 0.  0.
         13    1    3    3    0    0  0.22499870007E+02  0.10678620701E+02 -0.31874111431E+03  0.31971264448E+03  0.00000000000E+00 0.  1.
          3    1    3    3  501    0  0.40750583526E+02  0.16098967028E+02 -0.52227005859E+03  0.52410476137E+03  0.00000000000E+00 0.  1.
         -1    1    1    2    0  502 -0.63250453533E+02 -0.26777587730E+02 -0.15010143578E+03  0.16506998546E+03  0.00000000000E+00 0. -1.
<mgrwt>
<rscale>  1 0.30000000E+03</rscale>
<asrwt>0</asrwt>
<pdfrwt beam="1">  1       21 0.32317855E-01 0.30000000E+03</pdfrwt>
<pdfrwt beam="2">0</pdfrwt>
<totfact> 0.93606035E+02</totfact>
</mgrwt>
</event>
<event>
 6    1  0.1295671E-001  0.3000000E+03  0.7818608E-02  0.1093470E+00
         21   -1    0    0  501  502  0.00000000000E+00  0.00000000000E+00  0.42198924361E+01  0.42198924361E+01  0.00000000000E+00 0. -1.
         13   -1    0    0    0    0 -0.00000000000E+00 -0.00000000000E+00 -0.10000000000E+04  0.10000000000E+04  0.00000000000E+00 0.  1.
    9000005    2    1    2  501    0  0.34825357113E+02 -0.82273930222E+01 -0.91689199493E+03  0.91759524347E+03  0.30991891420E+01 0.  0.
         13    1    3    3    0    0  0.50463297152E+01 -0.23402855356E+01 -0.14225528024E+03  0.14236399522E+03  0.00000000000E+00 0.  1.
          3    1    3    3  501    0  0.29779027398E+02 -0.58871074866E+01 -0.77463671469E+03  0.77523124825E+03  0.00000000000E+00 0.  1.
         -1    1    1    2    0  502 -0.34825357113E+02  0.82273930222E+01 -0.78888112631E+02  0.86624648966E+02  0.00000000000E+00 0. -1.
<mgrwt>
<rscale>  1 0.30000000E+03</rscale>
<asrwt>0</asrwt>
<pdfrwt beam="1">  1       21 0.15345096E-01 0.30000000E+03</pdfrwt>
<pdfrwt beam="2">0</pdfrwt>
<totfact> 0.39480336E+03</totfact>
</mgrwt>
</event>
<event>
 6    1  0.1295671E-001  0.3000000E+03  0.7818608E-02  0.1093470E+00
         21   -1    0    0  501  502  0.00000000000E+00  0.00000000000E+00  0.13111382993E+01  0.13111382993E+01  0.00000000000E+00 0. -1.
         13   -1    0    0    0    0 -0.00000000000E+00 -0.00000000000E+00 -0.10000000000E+04  0.10000000000E+04  0.00000000000E+00 0.  1.
    9000005    2    1    2  501    0 -0.11502778413E+02 -0.30131189559E+02 -0.72565153131E+03  0.72637553441E+03  0.33271025155E+01 0.  0.
         13    1    3    3    0    0 -0.42698439866E+01 -0.15453334083E+02 -0.34410846859E+03  0.34448174880E+03  0.00000000000E+00 0.  1.
          3    1    3    3  501    0 -0.72329344265E+01 -0.14677855476E+02 -0.38154306272E+03  0.38189378561E+03  0.00000000000E+00 0.  1.
         -1    1    1    2    0  502  0.11502778413E+02  0.30131189559E+02 -0.27303733039E+03  0.27493560389E+03  0.00000000000E+00 0. -1.
<mgrwt>
<rscale>  1 0.30000000E+03</rscale>
<asrwt>0</asrwt>
<pdfrwt beam="1">  1       21 0.47677857E-02 0.30000000E+03</pdfrwt>
<pdfrwt beam="2">0</pdfrwt>
<totfact> 0.31234350E+04</totfact>
</mgrwt>
</event>
<event>
 6    1  0.1295671E-001  0.3000000E+03  0.7818608E-02  0.1093470E+00
         21   -1    0    0  501  502  0.00000000000E+00  0.00000000000E+00  0.11862193026E+01  0.11862193026E+01  0.00000000000E+00 0. -1.
         13   -1    0    0    0    0 -0.00000000000E+00 -0.00000000000E+00 -0.10000000000E+04  0.10000000000E+04  0.00000000000E+00 0.  1.
    9000005    2    1    2  501    0 -0.25728585976E+02 -0.19142916519E+02 -0.68005733355E+03  0.68082067186E+03  0.32247371860E+01 0.  0.
         13    1    3    3    0    0 -0.14980173012E+02 -0.12437703591E+02 -0.43666057861E+03  0.43709445542E+03  0.00000000000E+00 0.  1.
          1    1    3    3  501    0 -0.10748412964E+02 -0.67052129280E+01 -0.24339675494E+03  0.24372621644E+03  0.00000000000E+00 0.  1.
         -1    1    1    2    0  502  0.25728585976E+02  0.19142916519E+02 -0.31875644715E+03  0.32036554744E+03  0.00000000000E+00 0. -1.
<mgrwt>
<rscale>  1 0.30000000E+03</rscale>
<asrwt>0</asrwt>
<pdfrwt beam="1">  1       21 0.43135338E-02 0.30000000E+03</pdfrwt>
<pdfrwt beam="2">0</pdfrwt>
<totfact> 0.37019457E+04</totfact>
</mgrwt>
</event>
<event>
 6    1  0.1295671E-001  0.3000000E+03  0.7818608E-02  0.1093470E+00
         21   -1    0    0  501  502  0.00000000000E+00  0.00000000000E+00  0.12763800157E+01  0.12763800157E+01  0.00000000000E+00 0. -1.
         13   -1    0    0    0    0 -0.00000000000E+00 -0.00000000000E+00 -0.10000000000E+04  0.10000000000E+04  0.00000000000E+00 0.  1.
    9000005    2    1    2  501    0 -0.21277176327E+02 -0.21416579293E+02 -0.76618462762E+03  0.76678593016E+03  0.32235070827E+01 0.  0.
         13    1    3    3    0    0 -0.16952489222E+02 -0.15203640411E+02 -0.58666995338E+03  0.58711172001E+03  0.00000000000E+00 0.  1.
          1    1    3    3  501    0 -0.43246871057E+01 -0.62129388817E+01 -0.17951467424E+03  0.17967421016E+03  0.00000000000E+00 0.  1.
         -1    1    1    2    0  502  0.21277176327E+02  0.21416579293E+02 -0.23253899237E+03  0.23449044985E+03  0.00000000000E+00 0. -1.
<mgrwt>
<rscale>  1 0.30000000E+03</rscale>
<asrwt>0</asrwt>
<pdfrwt beam="1">  1       21 0.46413917E-02 0.30000000E+03</pdfrwt>
<pdfrwt beam="2">0</pdfrwt>
<totfact> 0.32694321E+04</totfact>
</mgrwt>
</event>
<event>
 6    1  0.1295671E-001  0.3000000E+03  0.7818608E-02  0.1093470E+00
         21   -1    0    0  501  502  0.00000000000E+00  0.00000000000E+00  0.18206369136E+01  0.18206369136E+01  0.00000000000E+00 0. -1.
         13   -1    0    0    0    0 -0.00000000000E+00 -0.00000000000E+00 -0.10000000000E+04  0.10000000000E+04  0.00000000000E+00 0.  1.
    9000005    2    1    2  501    0 -0.15970659945E+02 -0.32978274759E+02 -0.75506508560E+03  0.75596055373E+03  0.32321384537E+01 0.  0.
         13    1    3    3    0    0 -0.67909416978E+01 -0.10919024371E+02 -0.24920675409E+03  0.24953827014E+03  0.00000000000E+00 0.  1.
          1    1    3    3  501    0 -0.91797182476E+01 -0.22059250387E+02 -0.50585833152E+03  0.50642228359E+03  0.00000000000E+00 0.  1.
         -3    1    1    2    0  502  0.15970659945E+02  0.32978274759E+02 -0.24311427748E+03  0.24586008318E+03  0.00000000000E+00 0. -1.
<mgrwt>
<rscale>  1 0.30000000E+03</rscale>
<asrwt>0</asrwt>
<pdfrwt beam="1">  1       21 0.66205118E-02 0.30000000E+03</pdfrwt>
<pdfrwt beam="2">0</pdfrwt>
<totfact> 0.17775263E+04</totfact>
</mgrwt>
</event>
<event>
 6    1  0.1295671E-001  0.3000000E+03  0.7818608E-02  0.1093470E+00
         21   -1    0    0  501  502  0.00000000000E+00  0.00000000000E+00  0.20796312226E+01  0.20796312226E+01  0.00000000000E+00 0. -1.
         13   -1    0    0    0    0 -0.00000000000E+00 -0.00000000000E+00 -0.10000000000E+04  0.10000000000E+04  0.00000000000E+00 0.  1.
    9000005    2    1    2  501    0  0.26396993867E+02  0.28283808293E+02 -0.23560619522E+03  0.23878435788E+03  0.33038230251E+01 0.  0.
         13    1    3    3    0    0  0.17516615179E+02  0.19470593869E+02 -0.16820704577E+03  0.17023379829E+03  0.00000000000E+00 0.  1.
          1    1    3    3  501    0  0.88803786874E+01  0.88132144242E+01 -0.67399149448E+02  0.68550559592E+02  0.00000000000E+00 0.  1.
         -1    1    1    2    0  502 -0.26396993867E+02 -0.28283808293E+02 -0.76231417356E+03  0.76329527334E+03  0.00000000000E+00 0. -1.
<mgrwt>
<rscale>  1 0.30000000E+03</rscale>
<asrwt>0</asrwt>
<pdfrwt beam="1">  1       21 0.75623113E-02 0.30000000E+03</pdfrwt>
<pdfrwt beam="2">0</pdfrwt>
<totfact> 0.14098700E+04</totfact>
</mgrwt>
</event>
<event>
 6    1  0.1295671E-001  0.3000000E+03  0.7818608E-02  0.1093470E+00
         21   -1    0    0  501  502  0.00000000000E+00  0.00000000000E+00  0.10403522869E+01  0.10403522869E+01  0.00000000000E+00 0. -1.
         13   -1    0    0    0    0 -0.00000000000E+00 -0.00000000000E+00 -0.10000000000E+04  0.10000000000E+04  0.00000000000E+00 0.  1.
    9000005    2    1    2  501    0 -0.15935398928E+02 -0.27487205286E+02 -0.42294668343E+03  0.42415178557E+03  0.33699820783E+01 0.  0.
         13    1    3    3    0    0 -0.53396055215E+01 -0.12452979768E+02 -0.17466901515E+03  0.17519375830E+03  0.00000000000E+00 0.  1.
          3    1    3    3  501    0 -0.10595793407E+02 -0.15034225517E+02 -0.24827766828E+03  0.24895802727E+03  0.00000000000E+00 0.  1.
         -1    1    1    2    0  502  0.15935398928E+02  0.27487205286E+02 -0.57601296428E+03  0.57688856672E+03  0.00000000000E+00 0. -1.
<mgrwt>
<rscale>  1 0.30000000E+03</rscale>
<asrwt>0</asrwt>
<pdfrwt beam="1">  1       21 0.37831072E-02 0.30000000E+03</pdfrwt>
<pdfrwt beam="2">0</pdfrwt>
<totfact> 0.46180452E+04</totfact>
</mgrwt>
</event>
<event>
 6    1  0.1295671E-001  0.3000000E+03  0.7818608E-02  0.1093470E+00
         21   -1    0    0  501  502  0.00000000000E+00  0.00000000000E+00  0.10034509444E+01  0.10034509444E+01  0.00000000000E+00 0. -1.
         13   -1    0    0    0    0 -0.00000000000E+00 -0.00000000000E+00 -0.10000000000E+04  0.10000000000E+04  0.00000000000E+00 0.  1.
    9000005    2    1    2  501    0 -0.20728246296E+02  0.23827957869E+02 -0.51265622780E+03  0.51363876218E+03  0.33073170210E+01 0.  0.
         13    1    3    3    0    0 -0.14596560184E+02  0.16168862645E+02 -0.37638509462E+03  0.37701489512E+03  0.00000000000E+00 0.  1.
          3    1    3    3  501    0 -0.61316861122E+01  0.76590952241E+01 -0.13627113318E+03  0.13662386707E+03  0.00000000000E+00 0.  1.
         -1    1    1    2    0  502  0.20728246296E+02 -0.23827957869E+02 -0.48634032126E+03  0.48736468876E+03  0.00000000000E+00 0. -1.
<mgrwt>
<rscale>  1 0.30000000E+03</rscale>
<asrwt>0</asrwt>
<pdfrwt beam="1">  1       21 0.36489202E-02 0.30000000E+03</pdfrwt>
<pdfrwt beam="2">0</pdfrwt>
<totfact> 0.49066801E+04</totfact>
</mgrwt>
</event>
<event>
 6    1  0.1295671E-001  0.3000000E+03  0.7818608E-02  0.1093470E+00
         21   -1    0    0  501  502  0.00000000000E+00  0.00000000000E+00  0.10707365613E+01  0.10707365613E+01  0.00000000000E+00 0. -1.
         13   -1    0    0    0    0 -0.00000000000E+00 -0.00000000000E+00 -0.10000000000E+04  0.10000000000E+04  0.00000000000E+00 0.  1.
    9000005    2    1    2  501    0 -0.46065394287E+01  0.30549614592E+02 -0.66209096976E+03  0.66281855956E+03  0.30808283423E+01 0.  0.
         13    1    3    3    0    0 -0.32873401090E+01  0.27719536789E+02 -0.58973551977E+03  0.59039576777E+03  0.00000000000E+00 0.  1.
          1    1    3    3  501    0 -0.13191993196E+01  0.28300778034E+01 -0.72355449993E+02  0.72422791792E+02  0.00000000000E+00 0.  1.
         -1    1    1    2    0  502  0.46065394287E+01 -0.30549614592E+02 -0.33683829368E+03  0.33825217700E+03  0.00000000000E+00 0. -1.
<mgrwt>
<rscale>  1 0.30000000E+03</rscale>
<asrwt>0</asrwt>
<pdfrwt beam="1">  1       21 0.38935957E-02 0.30000000E+03</pdfrwt>
<pdfrwt beam="2">0</pdfrwt>
<totfact> 0.43999123E+04</totfact>
</mgrwt>
</event>
<event>
 6    1  0.1295671E-001  0.3000000E+03  0.7818608E-02  0.1093470E+00
         21   -1    0    0  501  502  0.00000000000E+00  0.00000000000E+00  0.16173117232E+01  0.16173117232E+01  0.00000000000E+00 0. -1.
         13   -1    0    0    0    0 -0.00000000000E+00 -0.00000000000E+00 -0.10000000000E+04  0.10000000000E+04  0.00000000000E+00 0.  1.
    9000005    2    1    2  501    0 -0.30740341532E+02 -0.74581506087E+01 -0.80780893749E+03  0.80843618662E+03  0.36325936302E+01 0.  0.
         13    1    3    3    0    0 -0.21086316796E+02 -0.34064190084E+01 -0.55177915331E+03  0.55219242161E+03  0.00000000000E+00 0.  1.
          1    1    3    3  501    0 -0.96540247357E+01 -0.40517316004E+01 -0.25602978418E+03  0.25624376501E+03  0.00000000000E+00 0.  1.
         -1    1    1    2    0  502  0.30740341532E+02  0.74581506087E+01 -0.19057375078E+03  0.19318112510E+03  0.00000000000E+00 0. -1.
<mgrwt>
<rscale>  1 0.30000000E+03</rscale>
<asrwt>0</asrwt>
<pdfrwt beam="1">  1       21 0.58811459E-02 0.30000000E+03</pdfrwt>
<pdfrwt beam="2">0</pdfrwt>
<totfact> 0.21811174E+04</totfact>
</mgrwt>
</event>
<event>
 6    1  0.1295671E-001  0.3000000E+03  0.7818608E-02  0.1093470E+00
         21   -1    0    0  501  502  0.00000000000E+00  0.00000000000E+00  0.22887279398E+01  0.22887279398E+01  0.00000000000E+00 0. -1.
         13   -1    0    0    0    0 -0.00000000000E+00 -0.00000000000E+00 -0.10000000000E+04  0.10000000000E+04  0.00000000000E+00 0.  1.
    9000005    2    1    2  501    0 -0.13855523354E+02 -0.28985810462E+02 -0.12913756044E+03  0.13312105410E+03  0.35429919464E+01 0.  0.
         13    1    3    3    0    0 -0.72771573870E+01 -0.13253511389E+02 -0.67113461822E+02  0.68795561932E+02  0.00000000000E+00 0.  1.
          3    1    3    3  501    0 -0.65783659665E+01 -0.15732299073E+02 -0.62024098617E+02  0.64325492165E+02  0.00000000000E+00 0.  1.
         -3    1    1    2    0  502  0.13855523354E+02  0.28985810462E+02 -0.86857371162E+03  0.86916767384E+03  0.00000000000E+00 0. -1.
<mgrwt>
<rscale>  1 0.30000000E+03</rscale>
<asrwt>0</asrwt>
<pdfrwt beam="1">  1       21 0.83226646E-02 0.30000000E+03</pdfrwt>
<pdfrwt beam="2">0</pdfrwt>
<totfact> 0.11915819E+04</totfact>
</mgrwt>
</event>
<event>
 6    1  0.1295671E-001  0.3000000E+03  0.7818608E-02  0.1093470E+00
         21   -1    0    0  501  502  0.00000000000E+00  0.00000000000E+00  0.11611822178E+01  0.11611822178E+01  0.00000000000E+00 0. -1.
         13   -1    0    0    0    0 -0.00000000000E+00 -0.00000000000E+00 -0.10000000000E+04  0.10000000000E+04  0.00000000000E+00 0.  1.
    9000005    2    1    2  501    0  0.16092532510E+02  0.27948073634E+02 -0.65758644097E+03  0.65838829954E+03  0.38937379458E+01 0.  0.
         13    1    3    3    0    0  0.57190711216E+01  0.94470701244E+01 -0.26376458451E+03  0.26399566464E+03  0.00000000000E+00 0.  1.
          1    1    3    3  501    0  0.10373461388E+02  0.18501003509E+02 -0.39382185647E+03  0.39439263490E+03  0.00000000000E+00 0.  1.
         -3    1    1    2    0  502 -0.16092532510E+02 -0.27948073634E+02 -0.34125237681E+03  0.34277288268E+03  0.00000000000E+00 0. -1.
<mgrwt>
<rscale>  1 0.30000000E+03</rscale>
<asrwt>0</asrwt>
<pdfrwt beam="1">  1       21 0.42224897E-02 0.30000000E+03</pdfrwt>
<pdfrwt beam="2">0</pdfrwt>
<totfact> 0.38378735E+04</totfact>
</mgrwt>
</event>
<event>
 6    1  0.1295671E-001  0.3000000E+03  0.7818608E-02  0.1093470E+00
         21   -1    0    0  501  502  0.00000000000E+00  0.00000000000E+00  0.94974738500E+00  0.94974738500E+00  0.00000000000E+00 0. -1.
         13   -1    0    0    0    0 -0.00000000000E+00 -0.00000000000E+00 -0.10000000000E+04  0.10000000000E+04  0.00000000000E+00 0.  1.
    9000005    2    1    2  501    0  0.30439920098E+02 -0.11553790223E+01 -0.43816924983E+03  0.43924215182E+03  0.36678056019E+01 0.  0.
         13    1    3    3    0    0  0.10473552112E+02  0.97224734897E+00 -0.13558242580E+03  0.13598983324E+03  0.00000000000E+00 0.  1.
          1    1    3    3  501    0  0.19966367987E+02 -0.21276263713E+01 -0.30258682403E+03  0.30325231858E+03  0.00000000000E+00 0.  1.
         -3    1    1    2    0  502 -0.30439920098E+02  0.11553790223E+01 -0.56088100278E+03  0.56170759557E+03  0.00000000000E+00 0. -1.
<mgrwt>
<rscale>  1 0.30000000E+03</rscale>
<asrwt>0</asrwt>
<pdfrwt beam="1">  1       21 0.34536341E-02 0.30000000E+03</pdfrwt>
<pdfrwt beam="2">0</pdfrwt>
<totfact> 0.53804412E+04</totfact>
</mgrwt>
</event>
<event>
 6    1  0.1295671E-001  0.3000000E+03  0.7818608E-02  0.1093470E+00
         21   -1    0    0  501  502  0.00000000000E+00  0.00000000000E+00  0.16523046501E+02  0.16523046501E+02  0.00000000000E+00 0. -1.
         13   -1    0    0    0    0 -0.00000000000E+00 -0.00000000000E+00 -0.10000000000E+04  0.10000000000E+04  0.00000000000E+00 0.  1.
    9000005    2    1    2  501    0  0.10326564499E+03  0.68325205107E+02 -0.62796544504E+03  0.64006513420E+03  0.32632447592E+01 0.  0.
         13    1    3    3    0    0  0.26771210026E+02  0.17855204347E+02 -0.17067075930E+03  0.17367790328E+03  0.00000000000E+00 0.  1.
          1    1    3    3  501    0  0.76494434959E+02  0.50470000760E+02 -0.45729468574E+03  0.46638723092E+03  0.00000000000E+00 0.  1.
         -1    1    1    2    0  502 -0.10326564499E+03 -0.68325205107E+02 -0.35551150846E+03  0.37645791230E+03  0.00000000000E+00 0. -1.
<mgrwt>
<rscale>  1 0.30000000E+03</rscale>
<asrwt>0</asrwt>
<pdfrwt beam="1">  1       21 0.60083932E-01 0.30000000E+03</pdfrwt>
<pdfrwt beam="2">0</pdfrwt>
<totfact> 0.25032353E+02</totfact>
</mgrwt>
</event>
<event>
 6    1  0.1295671E-001  0.3000000E+03  0.7818608E-02  0.1093470E+00
         21   -1    0    0  501  502  0.00000000000E+00  0.00000000000E+00  0.33407951969E+01  0.33407951969E+01  0.00000000000E+00 0. -1.
         13   -1    0    0    0    0 -0.00000000000E+00 -0.00000000000E+00 -0.10000000000E+04  0.10000000000E+04  0.00000000000E+00 0.  1.
    9000005    2    1    2  501    0 -0.93111241411E+01  0.29270605164E+02 -0.92323576248E+03  0.92375142881E+03  0.29939514444E+01 0.  0.
         13    1    3    3    0    0 -0.94300292979E+01  0.27247317607E+02 -0.86017331606E+03  0.86065642124E+03  0.00000000000E+00 0.  1.
          3    1    3    3  501    0  0.11890515684E+00  0.20232875565E+01 -0.63062446424E+02  0.63095007567E+02  0.00000000000E+00 0.  1.
         -3    1    1    2    0  502  0.93111241411E+01 -0.29270605164E+02 -0.73423442322E+02  0.79589366386E+02  0.00000000000E+00 0. -1.
<mgrwt>
<rscale>  1 0.30000000E+03</rscale>
<asrwt>0</asrwt>
<pdfrwt beam="1">  1       21 0.12148372E-01 0.30000000E+03</pdfrwt>
<pdfrwt beam="2">0</pdfrwt>
<totfact> 0.60603393E+03</totfact>
</mgrwt>
</event>
<event>
 6    1  0.1295671E-001  0.3000000E+03  0.7818608E-02  0.1093470E+00
         21   -1    0    0  501  502  0.00000000000E+00  0.00000000000E+00  0.27459896038E+01  0.27459896038E+01  0.00000000000E+00 0. -1.
         13   -1    0    0    0    0 -0.00000000000E+00 -0.00000000000E+00 -0.10000000000E+04  0.10000000000E+04  0.00000000000E+00 0.  1.
    9000005    2    1    2  501    0 -0.13103845529E+02 -0.38939444893E+02 -0.80843223859E+03  0.80950610592E+03  0.70327805194E+01 0.  0.
         13    1    3    3    0    0 -0.13824532668E+02 -0.38084122006E+02 -0.77943941538E+03  0.78049171699E+03  0.00000000000E+00 0.  1.
          3    1    3    3  501    0  0.72068713912E+00 -0.85532288699E+00 -0.28992823211E+02  0.29014388929E+02  0.00000000000E+00 0.  1.
         -1    1    1    2    0  502  0.13103845529E+02  0.38939444893E+02 -0.18882177181E+03  0.19323988368E+03  0.00000000000E+00 0. -1.
<mgrwt>
<rscale>  1 0.30000000E+03</rscale>
<asrwt>0</asrwt>
<pdfrwt beam="1">  1       21 0.99854378E-02 0.30000000E+03</pdfrwt>
<pdfrwt beam="2">0</pdfrwt>
<totfact> 0.86256279E+03</totfact>
</mgrwt>
</event>
<event>
 6    1  0.1295671E-001  0.3000000E+03  0.7818608E-02  0.1093470E+00
         21   -1    0    0  501  502  0.00000000000E+00  0.00000000000E+00  0.11438746446E+01  0.11438746446E+01  0.00000000000E+00 0. -1.
         13   -1    0    0    0    0 -0.00000000000E+00 -0.00000000000E+00 -0.10000000000E+04  0.10000000000E+04  0.00000000000E+00 0.  1.
    9000005    2    1    2  501    0  0.15956017451E+02 -0.26933529129E+02 -0.68678720121E+03  0.68750869979E+03  0.33975089163E+01 0.  0.
         13    1    3    3    0    0  0.52350957462E+00 -0.79410064660E+00 -0.11366471604E+02  0.11406197212E+02  0.00000000000E+00 0.  1.
          1    1    3    3  501    0  0.15432507877E+02 -0.26139428483E+02 -0.67542072960E+03  0.67610250258E+03  0.00000000000E+00 0.  1.
         -1    1    1    2    0  502 -0.15956017451E+02  0.26933529129E+02 -0.31206892415E+03  0.31363517485E+03  0.00000000000E+00 0. -1.
<mgrwt>
<rscale>  1 0.30000000E+03</rscale>
<asrwt>0</asrwt>
<pdfrwt beam="1">  1       21 0.41595529E-02 0.30000000E+03</pdfrwt>
<pdfrwt beam="2">0</pdfrwt>
<totfact> 0.39364289E+04</totfact>
</mgrwt>
</event>
<event>
 6    1  0.1295671E-001  0.3000000E+03  0.7818608E-02  0.1093470E+00
         21   -1    0    0  501  502  0.00000000000E+00  0.00000000000E+00  0.25268132401E+01  0.25268132401E+01  0.00000000000E+00 0. -1.
         13   -1    0    0    0    0 -0.00000000000E+00 -0.00000000000E+00 -0.10000000000E+04  0.10000000000E+04  0.00000000000E+00 0.  1.
    9000005    2    1    2  501    0  0.26958691429E+01  0.33692757184E+02 -0.86959322968E+03  0.87025530073E+03  0.30714424450E+01 0.  0.
         13    1    3    3    0    0  0.18212702100E+01  0.29376273059E+02 -0.73160159664E+03  0.73219340249E+03  0.00000000000E+00 0.  1.
          1    1    3    3  501    0  0.87459893291E+00  0.43164841250E+01 -0.13799163303E+03  0.13806189824E+03  0.00000000000E+00 0.  1.
         -3    1    1    2    0  502 -0.26958691429E+01 -0.33692757184E+02 -0.12787995708E+03  0.13227151251E+03  0.00000000000E+00 0. -1.
<mgrwt>
<rscale>  1 0.30000000E+03</rscale>
<asrwt>0</asrwt>
<pdfrwt beam="1">  1       21 0.91884312E-02 0.30000000E+03</pdfrwt>
<pdfrwt beam="2">0</pdfrwt>
<totfact> 0.10003662E+04</totfact>
</mgrwt>
</event>
<event>
 6    1  0.1295671E-001  0.3000000E+03  0.7818608E-02  0.1093470E+00
         21   -1    0    0  501  502  0.00000000000E+00  0.00000000000E+00  0.25220669978E+01  0.25220669978E+01  0.00000000000E+00 0. -1.
         13   -1    0    0    0    0 -0.00000000000E+00 -0.00000000000E+00 -0.10000000000E+04  0.10000000000E+04  0.00000000000E+00 0.  1.
    9000005    2    1    2  501    0  0.43169148668E+02  0.25336112684E+02 -0.53199498872E+03  0.53435557373E+03  0.34230320606E+01 0.  0.
         13    1    3    3    0    0  0.41160084851E+02  0.24931525785E+02 -0.50986567834E+03  0.51213156856E+03  0.00000000000E+00 0.  1.
          3    1    3    3  501    0  0.20090638173E+01  0.40458689857E+00 -0.22129310382E+02  0.22224005174E+02  0.00000000000E+00 0.  1.
         -1    1    1    2    0  502 -0.43169148668E+02 -0.25336112684E+02 -0.46548294428E+03  0.46816649327E+03  0.00000000000E+00 0. -1.
<mgrwt>
<rscale>  1 0.30000000E+03</rscale>
<asrwt>0</asrwt>
<pdfrwt beam="1">  1       21 0.91711721E-02 0.30000000E+03</pdfrwt>
<pdfrwt beam="2">0</pdfrwt>
<totfact> 0.10037102E+04</totfact>
</mgrwt>
</event>
<event>
 6    1  0.1295671E-001  0.3000000E+03  0.7818608E-02  0.1093470E+00
         21   -1    0    0  501  502  0.00000000000E+00  0.00000000000E+00  0.94397317712E+00  0.94397317712E+00  0.00000000000E+00 0. -1.
         13   -1    0    0    0    0 -0.00000000000E+00 -0.00000000000E+00 -0.10000000000E+04  0.10000000000E+04  0.00000000000E+00 0.  1.
    9000005    2    1    2  501    0 -0.25843321537E+02  0.15917443328E+02 -0.56929172447E+03  0.57010920457E+03  0.31930090652E+01 0.  0.
         13    1    3    3    0    0 -0.18407636032E+02  0.10955301872E+02 -0.37392644797E+03  0.37453951486E+03  0.00000000000E+00 0.  1.
          3    1    3    3  501    0 -0.74356855050E+01  0.49621414563E+01 -0.19536527650E+03  0.19556968970E+03  0.00000000000E+00 0.  1.
         -3    1    1    2    0  502  0.25843321537E+02 -0.15917443328E+02 -0.42976430235E+03  0.43083476861E+03  0.00000000000E+00 0. -1.
<mgrwt>
<rscale>  1 0.30000000E+03</rscale>
<asrwt>0</asrwt>
<pdfrwt beam="1">  1       21 0.34326370E-02 0.30000000E+03</pdfrwt>
<pdfrwt beam="2">0</pdfrwt>
<totfact> 0.54356001E+04</totfact>
</mgrwt>
</event>
<event>
 6    1  0.1295671E-001  0.3000000E+03  0.7818608E-02  0.1093470E+00
         21   -1    0    0  501  502  0.00000000000E+00  0.00000000000E+00  0.13365003201E+01  0.13365003201E+01  0.00000000000E+00 0. -1.
         13   -1    0    0    0    0 -0.00000000000E+00 -0.00000000000E+00 -0.10000000000E+04  0.10000000000E+04  0.00000000000E+00 0.  1.
    9000005    2    1    2  501    0  0.20509785856E+02  0.29526755515E+02 -0.58407115269E+03  0.58518833586E+03  0.37143513970E+01 0.  0.
         13    1    3    3    0    0  0.13255138519E+02  0.17076377391E+02 -0.37299129844E+03  0.37361719724E+03  0.00000000000E+00 0.  1.
          1    1    3    3  501    0  0.72546473366E+01  0.12450378124E+02 -0.21107985426E+03  0.21157113862E+03  0.00000000000E+00 0.  1.
         -3    1    1    2    0  502 -0.20509785856E+02 -0.29526755515E+02 -0.41459234699E+03  0.41614816446E+03  0.00000000000E+00 0. -1.
<mgrwt>
<rscale>  1 0.30000000E+03</rscale>
<asrwt>0</asrwt>
<pdfrwt beam="1">  1       21 0.48600114E-02 0.30000000E+03</pdfrwt>
<pdfrwt beam="2">0</pdfrwt>
<totfact> 0.30232389E+04</totfact>
</mgrwt>
</event>
<event>
 6    1  0.1295671E-001  0.3000000E+03  0.7818608E-02  0.1093470E+00
         21   -1    0    0  501  502  0.00000000000E+00  0.00000000000E+00  0.17761531957E+01  0.17761531957E+01  0.00000000000E+00 0. -1.
         13   -1    0    0    0    0 -0.00000000000E+00 -0.00000000000E+00 -0.10000000000E+04  0.10000000000E+04  0.00000000000E+00 0.  1.
    9000005    2    1    2  501    0 -0.20596866837E+02 -0.25929641186E+02 -0.80841934997E+03  0.80910460824E+03  0.34415781703E+01 0.  0.
         13    1    3    3    0    0 -0.15643065518E+02 -0.17472142160E+02 -0.55170454638E+03  0.55220275964E+03  0.00000000000E+00 0.  1.
          1    1    3    3  501    0 -0.49538013197E+01 -0.84574990265E+01 -0.25671480358E+03  0.25690184860E+03  0.00000000000E+00 0.  1.
         -3    1    1    2    0  502  0.20596866837E+02  0.25929641186E+02 -0.18980449684E+03  0.19267154496E+03  0.00000000000E+00 0. -1.
<mgrwt>
<rscale>  1 0.30000000E+03</rscale>
<asrwt>0</asrwt>
<pdfrwt beam="1">  1       21 0.64587525E-02 0.30000000E+03</pdfrwt>
<pdfrwt beam="2">0</pdfrwt>
<totfact> 0.18553381E+04</totfact>
</mgrwt>
</event>
<event>
 6    1  0.1295671E-001  0.3000000E+03  0.7818608E-02  0.1093470E+00
         21   -1    0    0  501  502  0.00000000000E+00  0.00000000000E+00  0.11064547577E+01  0.11064547577E+01  0.00000000000E+00 0. -1.
         13   -1    0    0    0    0 -0.00000000000E+00 -0.00000000000E+00 -0.10000000000E+04  0.10000000000E+04  0.00000000000E+00 0.  1.
    9000005    2    1    2  501    0 -0.25120256111E+02 -0.18896637921E+02 -0.34115077156E+03  0.34261297224E+03  0.34190081750E+01 0.  0.
         13    1    3    3    0    0 -0.87222453765E+01 -0.53019063286E+01 -0.12442526448E+03  0.12484323857E+03  0.00000000000E+00 0.  1.
          3    1    3    3  501    0 -0.16398010735E+02 -0.13594731592E+02 -0.21672550708E+03  0.21776973367E+03  0.00000000000E+00 0.  1.
         -3    1    1    2    0  502  0.25120256111E+02  0.18896637921E+02 -0.65774277368E+03  0.65849348252E+03  0.00000000000E+00 0. -1.
<mgrwt>
<rscale>  1 0.30000000E+03</rscale>
<asrwt>0</asrwt>
<pdfrwt beam="1">  1       21 0.40234803E-02 0.30000000E+03</pdfrwt>
<pdfrwt beam="2">0</pdfrwt>
<totfact> 0.41634859E+04</totfact>
</mgrwt>
</event>
<event>
 6    1  0.1295671E-001  0.3000000E+03  0.7818608E-02  0.1093470E+00
         21   -1    0    0  501  502  0.00000000000E+00  0.00000000000E+00  0.26466279132E+01  0.26466279132E+01  0.00000000000E+00 0. -1.
         13   -1    0    0    0    0 -0.00000000000E+00 -0.00000000000E+00 -0.10000000000E+04  0.10000000000E+04  0.00000000000E+00 0.  1.
    9000005    2    1    2  501    0 -0.48127168639E+02 -0.17244331921E+02 -0.44861336678E+03  0.45153032007E+03  0.34764559356E+01 0.  0.
         13    1    3    3    0    0 -0.15442841019E+02 -0.66563879756E+01 -0.15859469387E+03  0.15948374765E+03  0.00000000000E+00 0.  1.
          1    1    3    3  501    0 -0.32684327620E+02 -0.10587943945E+02 -0.29001867290E+03  0.29204657242E+03  0.00000000000E+00 0.  1.
         -3    1    1    2    0  502  0.48127168639E+02  0.17244331921E+02 -0.54874000531E+03  0.55111630785E+03  0.00000000000E+00 0. -1.
<mgrwt>
<rscale>  1 0.30000000E+03</rscale>
<asrwt>0</asrwt>
<pdfrwt beam="1">  1       21 0.96241218E-02 0.30000000E+03</pdfrwt>
<pdfrwt beam="2">0</pdfrwt>
<totfact> 0.92121007E+03</totfact>
</mgrwt>
</event>
<event>
 6    1  0.1295671E-001  0.3000000E+03  0.7818608E-02  0.1093470E+00
         21   -1    0    0  501  502  0.00000000000E+00  0.00000000000E+00  0.28324504915E+01  0.28324504915E+01  0.00000000000E+00 0. -1.
         13   -1    0    0    0    0 -0.00000000000E+00 -0.00000000000E+00 -0.10000000000E+04  0.10000000000E+04  0.00000000000E+00 0.  1.
    9000005    2    1    2  501    0  0.30099790008E+02 -0.13375288071E+02 -0.89230204731E+03  0.89291580370E+03  0.32852978828E+01 0.  0.
         13    1    3    3    0    0  0.12806828046E+02 -0.42415032623E+01 -0.38943303926E+03  0.38966664889E+03  0.00000000000E+00 0.  1.
          3    1    3    3  501    0  0.17292961963E+02 -0.91337848086E+01 -0.50286900805E+03  0.50324915481E+03  0.00000000000E+00 0.  1.
         -3    1    1    2    0  502 -0.30099790008E+02  0.13375288071E+02 -0.10486550220E+03  0.10991664679E+03  0.00000000000E+00 0. -1.
<mgrwt>
<rscale>  1 0.30000000E+03</rscale>
<asrwt>0</asrwt>
<pdfrwt beam="1">  1       21 0.10299842E-01 0.30000000E+03</pdfrwt>
<pdfrwt beam="2">0</pdfrwt>
<totfact> 0.81604262E+03</totfact>
</mgrwt>
</event>
<event>
 6    1  0.1295671E-001  0.3000000E+03  0.7818608E-02  0.1093470E+00
         21   -1    0    0  501  502  0.00000000000E+00  0.00000000000E+00  0.26563407521E+01  0.26563407521E+01  0.00000000000E+00 0. -1.
         13   -1    0    0    0    0 -0.00000000000E+00 -0.00000000000E+00 -0.10000000000E+04  0.10000000000E+04  0.00000000000E+00 0.  1.
    9000005    2    1    2  501    0  0.49265849355E+02 -0.12875004871E+02 -0.57288461327E+03  0.57515385961E+03  0.35060589300E+01 0.  0.
         13    1    3    3    0    0  0.38512765992E+02 -0.10802462014E+02 -0.46327708479E+03  0.46500062755E+03  0.00000000000E+00 0.  1.
          3    1    3    3  501    0  0.10753083363E+02 -0.20725428563E+01 -0.10960752847E+03  0.11015323206E+03  0.00000000000E+00 0.  1.
         -3    1    1    2    0  502 -0.49265849355E+02  0.12875004871E+02 -0.42445904598E+03  0.42750248114E+03  0.00000000000E+00 0. -1.
<mgrwt>
<rscale>  1 0.30000000E+03</rscale>
<asrwt>0</asrwt>
<pdfrwt beam="1">  1       21 0.96594413E-02 0.30000000E+03</pdfrwt>
<pdfrwt beam="2">0</pdfrwt>
<totfact> 0.91521207E+03</totfact>
</mgrwt>
</event>
<event>
 6    1  0.1295671E-001  0.3000000E+03  0.7818608E-02  0.1093470E+00
         21   -1    0    0  501  502  0.00000000000E+00  0.00000000000E+00  0.13842244549E+01  0.13842244549E+01  0.00000000000E+00 0. -1.
         13   -1    0    0    0    0 -0.00000000000E+00 -0.00000000000E+00 -0.10000000000E+04  0.10000000000E+04  0.00000000000E+00 0.  1.
    9000005    2    1    2  501    0  0.45931413427E+01 -0.31717269876E+02 -0.75294759352E+03  0.75363447609E+03  0.27861813933E+01 0.  0.
         13    1    3    3    0    0  0.49652937880E+01 -0.29879610580E+02 -0.71197347690E+03  0.71261748300E+03  0.00000000000E+00 0.  1.
          3    1    3    3  501    0 -0.37215244533E+00 -0.18376592955E+01 -0.40974116626E+02  0.41016993093E+02  0.00000000000E+00 0.  1.
         -1    1    1    2    0  502 -0.45931413427E+01  0.31717269876E+02 -0.24566818202E+03  0.24774974836E+03  0.00000000000E+00 0. -1.
<mgrwt>
<rscale>  1 0.30000000E+03</rscale>
<asrwt>0</asrwt>
<pdfrwt beam="1">  1       21 0.50335541E-02 0.30000000E+03</pdfrwt>
<pdfrwt beam="2">0</pdfrwt>
<totfact> 0.28478039E+04</totfact>
</mgrwt>
</event>
<event>
 6    1  0.1295671E-001  0.3000000E+03  0.7818608E-02  0.1093470E+00
         21   -1    0    0  501  502  0.00000000000E+00  0.00000000000E+00  0.29848482140E+01  0.29848482140E+01  0.00000000000E+00 0. -1.
         13   -1    0    0    0    0 -0.00000000000E+00 -0.00000000000E+00 -0.10000000000E+04  0.10000000000E+04  0.00000000000E+00 0.  1.
    9000005    2    1    2  501    0  0.78864347388E+01  0.53831087471E+02 -0.46263520497E+03  0.46584249335E+03  0.42324816132E+01 0.  0.
         13    1    3    3    0    0  0.53085840335E+01  0.44149661804E+02 -0.38711961259E+03  0.38966520008E+03  0.00000000000E+00 0.  1.
          3    1    3    3  501    0  0.25778507053E+01  0.96814256664E+01 -0.75515592381E+02  0.76177293269E+02  0.00000000000E+00 0.  1.
         -3    1    1    2    0  502 -0.78864347388E+01 -0.53831087471E+02 -0.53437994682E+03  0.53714235487E+03  0.00000000000E+00 0. -1.
<mgrwt>
<rscale>  1 0.30000000E+03</rscale>
<asrwt>0</asrwt>
<pdfrwt beam="1">  1       21 0.10854016E-01 0.30000000E+03</pdfrwt>
<pdfrwt beam="2">0</pdfrwt>
<totfact> 0.74283478E+03</totfact>
</mgrwt>
</event>
<event>
 6    1  0.1295671E-001  0.3000000E+03  0.7818608E-02  0.1093470E+00
         21   -1    0    0  501  502  0.00000000000E+00  0.00000000000E+00  0.29459859269E+01  0.29459859269E+01  0.00000000000E+00 0. -1.
         13   -1    0    0    0    0 -0.00000000000E+00 -0.00000000000E+00 -0.10000000000E+04  0.10000000000E+04  0.00000000000E+00 0.  1.
    9000005    2    1    2  501    0  0.42260641688E+02  0.27153875163E+01 -0.81195579100E+03  0.81306526719E+03  0.30962878120E+01 0.  0.
         13    1    3    3    0    0  0.26203553956E+02  0.31721689502E+01 -0.50057508073E+03  0.50127048621E+03  0.00000000000E+00 0.  1.
          3    1    3    3  501    0  0.16057087732E+02 -0.45678143383E+00 -0.31138071027E+03  0.31179478098E+03  0.00000000000E+00 0.  1.
         -3    1    1    2    0  502 -0.42260641688E+02 -0.27153875163E+01 -0.18509822307E+03  0.18988071874E+03  0.00000000000E+00 0. -1.
<mgrwt>
<rscale>  1 0.30000000E+03</rscale>
<asrwt>0</asrwt>
<pdfrwt beam="1">  1       21 0.10712699E-01 0.30000000E+03</pdfrwt>
<pdfrwt beam="2">0</pdfrwt>
<totfact> 0.76052823E+03</totfact>
</mgrwt>
</event>
<event>
 6    1  0.1295671E-001  0.3000000E+03  0.7818608E-02  0.1093470E+00
         21   -1    0    0  501  502  0.00000000000E+00  0.00000000000E+00  0.15983469053E+01  0.15983469053E+01  0.00000000000E+00 0. -1.
         13   -1    0    0    0    0 -0.00000000000E+00 -0.00000000000E+00 -0.10000000000E+04  0.10000000000E+04  0.00000000000E+00 0.  1.
    9000005    2    1    2  501    0 -0.28220012386E+02  0.28151068394E+02 -0.52642828943E+03  0.52794477333E+03  0.31761650740E+01 0.  0.
         13    1    3    3    0    0 -0.14688031324E+02  0.12753596278E+02 -0.26748575556E+03  0.26819213618E+03  0.00000000000E+00 0.  1.
          3    1    3    3  501    0 -0.13531981062E+02  0.15397472116E+02 -0.25894253388E+03  0.25975263716E+03  0.00000000000E+00 0.  1.
         -1    1    1    2    0  502  0.28220012386E+02 -0.28151068394E+02 -0.47197336366E+03  0.47365357357E+03  0.00000000000E+00 0. -1.
<mgrwt>
<rscale>  1 0.30000000E+03</rscale>
<asrwt>0</asrwt>
<pdfrwt beam="1">  1       21 0.58121828E-02 0.30000000E+03</pdfrwt>
<pdfrwt beam="2">0</pdfrwt>
<totfact> 0.22258985E+04</totfact>
</mgrwt>
</event>
<event>
 6    1  0.1295671E-001  0.3000000E+03  0.7818608E-02  0.1093470E+00
         21   -1    0    0  501  502  0.00000000000E+00  0.00000000000E+00  0.10616132934E+01  0.10616132934E+01  0.00000000000E+00 0. -1.
         13   -1    0    0    0    0 -0.00000000000E+00 -0.00000000000E+00 -0.10000000000E+04  0.10000000000E+04  0.00000000000E+00 0.  1.
    9000005    2    1    2  501    0  0.27919829906E+02 -0.11286167779E+02 -0.68790830591E+03  0.68857704464E+03  0.36897943644E+01 0.  0.
         13    1    3    3    0    0  0.12427750727E+02 -0.54941547877E+01 -0.35120901472E+03  0.35147177233E+03  0.00000000000E+00 0.  1.
          3    1    3    3  501    0  0.15492079179E+02 -0.57920129917E+01 -0.33669929119E+03  0.33710527231E+03  0.00000000000E+00 0.  1.
         -3    1    1    2    0  502 -0.27919829906E+02  0.11286167779E+02 -0.31103008080E+03  0.31248456865E+03  0.00000000000E+00 0. -1.
<mgrwt>
<rscale>  1 0.30000000E+03</rscale>
<asrwt>0</asrwt>
<pdfrwt beam="1">  1       21 0.38604201E-02 0.30000000E+03</pdfrwt>
<pdfrwt beam="2">0</pdfrwt>
<totfact> 0.44636811E+04</totfact>
</mgrwt>
</event>
<event>
 6    1  0.1295671E-001  0.3000000E+03  0.7818608E-02  0.1093470E+00
         21   -1    0    0  501  502  0.00000000000E+00  0.00000000000E+00  0.58120559111E+01  0.58120559111E+01  0.00000000000E+00 0. -1.
         13   -1    0    0    0    0 -0.00000000000E+00 -0.00000000000E+00 -0.10000000000E+04  0.10000000000E+04  0.00000000000E+00 0.  1.
    9000005    2    1    2  501    0  0.81509665429E+01  0.68089786760E+02 -0.71586918359E+03  0.71916943912E+03  0.57738055362E+01 0.  0.
         13    1    3    3    0    0  0.24108411203E+01  0.36830141901E+02 -0.40635030409E+03  0.40802308898E+03  0.00000000000E+00 0.  1.
          3    1    3    3  501    0  0.57401254227E+01  0.31259644859E+02 -0.30951887950E+03  0.31114635014E+03  0.00000000000E+00 0.  1.
         -3    1    1    2    0  502 -0.81509665429E+01 -0.68089786760E+02 -0.27831876050E+03  0.28664261680E+03  0.00000000000E+00 0. -1.
<mgrwt>
<rscale>  1 0.30000000E+03</rscale>
<asrwt>0</asrwt>
<pdfrwt beam="1">  1       21 0.21134793E-01 0.30000000E+03</pdfrwt>
<pdfrwt beam="2">0</pdfrwt>
<totfact> 0.21587756E+03</totfact>
</mgrwt>
</event>
<event>
 6    1  0.1295671E-001  0.3000000E+03  0.7818608E-02  0.1093470E+00
         21   -1    0    0  501  502  0.00000000000E+00  0.00000000000E+00  0.10639655926E+01  0.10639655926E+01  0.00000000000E+00 0. -1.
         13   -1    0    0    0    0 -0.00000000000E+00 -0.00000000000E+00 -0.10000000000E+04  0.10000000000E+04  0.00000000000E+00 0.  1.
    9000005    2    1    2  501    0 -0.26714640770E+02 -0.18197461999E+02 -0.44611634219E+03  0.44730008833E+03  0.35719180707E+01 0.  0.
         13    1    3    3    0    0 -0.37297724366E+01 -0.39553903694E+01 -0.66367097340E+02  0.66589397991E+02  0.00000000000E+00 0.  1.
          3    1    3    3  501    0 -0.22984868333E+02 -0.14242071629E+02 -0.37974924485E+03  0.38071069034E+03  0.00000000000E+00 0.  1.
         -1    1    1    2    0  502  0.26714640770E+02  0.18197461999E+02 -0.55281969222E+03  0.55376387726E+03  0.00000000000E+00 0. -1.
<mgrwt>
<rscale>  1 0.30000000E+03</rscale>
<asrwt>0</asrwt>
<pdfrwt beam="1">  1       21 0.38689739E-02 0.30000000E+03</pdfrwt>
<pdfrwt beam="2">0</pdfrwt>
<totfact> 0.44471012E+04</totfact>
</mgrwt>
</event>
<event>
 6    1  0.1295671E-001  0.3000000E+03  0.7818608E-02  0.1093470E+00
         21   -1    0    0  501  502  0.00000000000E+00  0.00000000000E+00  0.13787715022E+01  0.13787715022E+01  0.00000000000E+00 0. -1.
         13   -1    0    0    0    0 -0.00000000000E+00 -0.00000000000E+00 -0.10000000000E+04  0.10000000000E+04  0.00000000000E+00 0.  1.
    9000005    2    1    2  501    0 -0.13467444424E+02  0.32880271273E+02 -0.64138947520E+03  0.64238432884E+03  0.38318067685E+01 0.  0.
         13    1    3    3    0    0 -0.99632913592E+01  0.23932391936E+02 -0.49677580273E+03  0.49745173106E+03  0.00000000000E+00 0.  1.
          3    1    3    3  501    0 -0.35041530651E+01  0.89478793366E+01 -0.14461367248E+03  0.14493259778E+03  0.00000000000E+00 0.  1.
         -1    1    1    2    0  502  0.13467444424E+02 -0.32880271273E+02 -0.35723175329E+03  0.35899444266E+03  0.00000000000E+00 0. -1.
<mgrwt>
<rscale>  1 0.30000000E+03</rscale>
<asrwt>0</asrwt>
<pdfrwt beam="1">  1       21 0.50137251E-02 0.30000000E+03</pdfrwt>
<pdfrwt beam="2">0</pdfrwt>
<totfact> 0.28670353E+04</totfact>
</mgrwt>
</event>
<event>
 6    1  0.1295671E-001  0.3000000E+03  0.7818608E-02  0.1093470E+00
         21   -1    0    0  501  502  0.00000000000E+00  0.00000000000E+00  0.17097170076E+01  0.17097170076E+01  0.00000000000E+00 0. -1.
         13   -1    0    0    0    0 -0.00000000000E+00 -0.00000000000E+00 -0.10000000000E+04  0.10000000000E+04  0.00000000000E+00 0.  1.
    9000005    2    1    2  501    0  0.22587667595E+02 -0.33477344233E+02 -0.39982186801E+03  0.40188025872E+03  0.43910023204E+01 0.  0.
         13    1    3    3    0    0  0.12468938034E+02 -0.21542627948E+02 -0.25795708347E+03  0.25915519702E+03  0.00000000000E+00 0.  1.
          3    1    3    3  501    0  0.10118729562E+02 -0.11934716284E+02 -0.14186478455E+03  0.14272506169E+03  0.00000000000E+00 0.  1.
         -1    1    1    2    0  502 -0.22587667595E+02  0.33477344233E+02 -0.59846841498E+03  0.59982945829E+03  0.00000000000E+00 0. -1.
<mgrwt>
<rscale>  1 0.30000000E+03</rscale>
<asrwt>0</asrwt>
<pdfrwt beam="1">  1       21 0.62171659E-02 0.30000000E+03</pdfrwt>
<pdfrwt beam="2">0</pdfrwt>
<totfact> 0.19817477E+04</totfact>
</mgrwt>
</event>
<event>
 6    1  0.1295671E-001  0.3000000E+03  0.7818608E-02  0.1093470E+00
         21   -1    0    0  501  502  0.00000000000E+00  0.00000000000E+00  0.16932357414E+01  0.16932357414E+01  0.00000000000E+00 0. -1.
         13   -1    0    0    0    0 -0.00000000000E+00 -0.00000000000E+00 -0.10000000000E+04  0.10000000000E+04  0.00000000000E+00 0.  1.
    9000005    2    1    2  501    0  0.34211143631E+01  0.39776768105E+02 -0.61759492573E+03  0.61889381137E+03  0.34874286215E+01 0.  0.
         13    1    3    3    0    0  0.39770184667E+01  0.28794370808E+02 -0.45461013725E+03  0.45553848284E+03  0.00000000000E+00 0.  1.
          1    1    3    3  501    0 -0.55590410363E+00  0.10982397297E+02 -0.16298478849E+03  0.16335532853E+03  0.00000000000E+00 0.  1.
         -1    1    1    2    0  502 -0.34211143631E+01 -0.39776768105E+02 -0.38071183853E+03  0.38279942437E+03  0.00000000000E+00 0. -1.
<mgrwt>
<rscale>  1 0.30000000E+03</rscale>
<asrwt>0</asrwt>
<pdfrwt beam="1">  1       21 0.61572339E-02 0.30000000E+03</pdfrwt>
<pdfrwt beam="2">0</pdfrwt>
<totfact> 0.20151769E+04</totfact>
</mgrwt>
</event>
<event>
 6    1  0.1295671E-001  0.3000000E+03  0.7818608E-02  0.1093470E+00
         21   -1    0    0  501  502  0.00000000000E+00  0.00000000000E+00  0.14929546040E+01  0.14929546040E+01  0.00000000000E+00 0. -1.
         13   -1    0    0    0    0 -0.00000000000E+00 -0.00000000000E+00 -0.10000000000E+04  0.10000000000E+04  0.00000000000E+00 0.  1.
    9000005    2    1    2  501    0  0.17181910616E+01  0.34002136931E+02 -0.73525759629E+03  0.73605111549E+03  0.29007273078E+01 0.  0.
         13    1    3    3    0    0  0.20754677865E+01  0.14961503422E+02 -0.31272967638E+03  0.31309424243E+03  0.00000000000E+00 0.  1.
          1    1    3    3  501    0 -0.35727672494E+00  0.19040633509E+02 -0.42252791991E+03  0.42295687306E+03  0.00000000000E+00 0.  1.
         -1    1    1    2    0  502 -0.17181910616E+01 -0.34002136931E+02 -0.26324944911E+03  0.26544183911E+03  0.00000000000E+00 0. -1.
<mgrwt>
<rscale>  1 0.30000000E+03</rscale>
<asrwt>0</asrwt>
<pdfrwt beam="1">  1       21 0.54289373E-02 0.30000000E+03</pdfrwt>
<pdfrwt beam="2">0</pdfrwt>
<totfact> 0.25025761E+04</totfact>
</mgrwt>
</event>
<event>
 6    1  0.1295671E-001  0.3000000E+03  0.7818608E-02  0.1093470E+00
         21   -1    0    0  501  502  0.00000000000E+00  0.00000000000E+00  0.14592193019E+01  0.14592193019E+01  0.00000000000E+00 0. -1.
         13   -1    0    0    0    0 -0.00000000000E+00 -0.00000000000E+00 -0.10000000000E+04  0.10000000000E+04  0.00000000000E+00 0.  1.
    9000005    2    1    2  501    0  0.25452273869E+02 -0.25092268714E+02 -0.67402224160E+03  0.67497840453E+03  0.35248005572E+01 0.  0.
         13    1    3    3    0    0  0.23296875579E+01 -0.38541140051E+01 -0.78281119029E+02  0.78410555637E+02  0.00000000000E+00 0.  1.
          1    1    3    3  501    0  0.23122586311E+02 -0.21238154709E+02 -0.59574112257E+03  0.59656784890E+03  0.00000000000E+00 0.  1.
         -1    1    1    2    0  502 -0.25452273869E+02  0.25092268714E+02 -0.32451853910E+03  0.32648081477E+03  0.00000000000E+00 0. -1.
<mgrwt>
<rscale>  1 0.30000000E+03</rscale>
<asrwt>0</asrwt>
<pdfrwt beam="1">  1       21 0.53062632E-02 0.30000000E+03</pdfrwt>
<pdfrwt beam="2">0</pdfrwt>
<totfact> 0.26024241E+04</totfact>
</mgrwt>
</event>
<event>
 6    1  0.1295671E-001  0.3000000E+03  0.7818608E-02  0.1093470E+00
         21   -1    0    0  501  502  0.00000000000E+00  0.00000000000E+00  0.30458066212E+02  0.30458066212E+02  0.00000000000E+00 0. -1.
         13   -1    0    0    0    0 -0.00000000000E+00 -0.00000000000E+00 -0.10000000000E+04  0.10000000000E+04  0.00000000000E+00 0.  1.
    9000005    2    1    2  501    0 -0.42438798366E+02 -0.16872104959E+03 -0.44468836004E+03  0.47752125422E+03  0.33115699181E+01 0.  0.
         13    1    3    3    0    0 -0.15503909317E+02 -0.57758761969E+02 -0.15631274772E+03  0.16736224451E+03  0.00000000000E+00 0.  1.
          1    1    3    3  501    0 -0.26934889049E+02 -0.11096228762E+03 -0.28837561231E+03  0.31015900970E+03  0.00000000000E+00 0.  1.
         -1    1    1    2    0  502  0.42438798366E+02  0.16872104959E+03 -0.52485357375E+03  0.55293681200E+03  0.00000000000E+00 0. -1.
<mgrwt>
<rscale>  1 0.30000000E+03</rscale>
<asrwt>0</asrwt>
<pdfrwt beam="1">  1       21 0.11075684E+00 0.30000000E+03</pdfrwt>
<pdfrwt beam="2">0</pdfrwt>
<totfact> 0.56390083E+01</totfact>
</mgrwt>
</event>
<event>
 6    1  0.1295671E-001  0.3000000E+03  0.7818608E-02  0.1093470E+00
         21   -1    0    0  501  502  0.00000000000E+00  0.00000000000E+00  0.13938929215E+01  0.13938929215E+01  0.00000000000E+00 0. -1.
         13   -1    0    0    0    0 -0.00000000000E+00 -0.00000000000E+00 -0.10000000000E+04  0.10000000000E+04  0.00000000000E+00 0.  1.
    9000005    2    1    2  501    0 -0.29413221874E+02  0.22491591770E+02 -0.53599695257E+03  0.53730528160E+03  0.57639528049E+01 0.  0.
         13    1    3    3    0    0 -0.19183990171E+02  0.17981486199E+02 -0.37590489043E+03  0.37682336177E+03  0.00000000000E+00 0.  1.
          1    1    3    3  501    0 -0.10229231703E+02  0.45101055713E+01 -0.16009206214E+03  0.16048191983E+03  0.00000000000E+00 0.  1.
         -1    1    1    2    0  502  0.29413221874E+02 -0.22491591770E+02 -0.46260915451E+03  0.46408861132E+03  0.00000000000E+00 0. -1.
<mgrwt>
<rscale>  1 0.30000000E+03</rscale>
<asrwt>0</asrwt>
<pdfrwt beam="1">  1       21 0.50687122E-02 0.30000000E+03</pdfrwt>
<pdfrwt beam="2">0</pdfrwt>
<totfact> 0.28141953E+04</totfact>
</mgrwt>
</event>
<event>
 6    1  0.1295671E-001  0.3000000E+03  0.7818608E-02  0.1093470E+00
         21   -1    0    0  501  502  0.00000000000E+00  0.00000000000E+00  0.14184340594E+01  0.14184340594E+01  0.00000000000E+00 0. -1.
         13   -1    0    0    0    0 -0.00000000000E+00 -0.00000000000E+00 -0.10000000000E+04  0.10000000000E+04  0.00000000000E+00 0.  1.
    9000005    2    1    2  501    0  0.62826579789E+01 -0.29376132349E+02 -0.80054606048E+03  0.80111743464E+03  0.35665390117E+01 0.  0.
         13    1    3    3    0    0  0.18236258623E+01 -0.50634591481E+01 -0.17648440655E+03  0.17656644637E+03  0.00000000000E+00 0.  1.
          1    1    3    3  501    0  0.44590321166E+01 -0.24312673201E+02 -0.62406165393E+03  0.62455098827E+03  0.00000000000E+00 0.  1.
         -1    1    1    2    0  502 -0.62826579789E+01  0.29376132349E+02 -0.19803550546E+03  0.20030099942E+03  0.00000000000E+00 0. -1.
<mgrwt>
<rscale>  1 0.30000000E+03</rscale>
<asrwt>0</asrwt>
<pdfrwt beam="1">  1       21 0.51579529E-02 0.30000000E+03</pdfrwt>
<pdfrwt beam="2">0</pdfrwt>
<totfact> 0.27316045E+04</totfact>
</mgrwt>
</event>
<event>
 6    1  0.1295671E-001  0.3000000E+03  0.7818608E-02  0.1093470E+00
         21   -1    0    0  501  502  0.00000000000E+00  0.00000000000E+00  0.16326108673E+01  0.16326108673E+01  0.00000000000E+00 0. -1.
         13   -1    0    0    0    0 -0.00000000000E+00 -0.00000000000E+00 -0.10000000000E+04  0.10000000000E+04  0.00000000000E+00 0.  1.
    9000005    2    1    2  501    0  0.10560157022E+02 -0.33435328298E+02 -0.74712449826E+03  0.74795480673E+03  0.34552749342E+01 0.  0.
         13    1    3    3    0    0  0.63025418929E+01 -0.15779090857E+02 -0.33605821083E+03  0.33648747794E+03  0.00000000000E+00 0.  1.
          1    1    3    3  501    0  0.42576151291E+01 -0.17656237441E+02 -0.41106628742E+03  0.41146732879E+03  0.00000000000E+00 0.  1.
         -1    1    1    2    0  502 -0.10560157022E+02  0.33435328298E+02 -0.25124289088E+03  0.25367780413E+03  0.00000000000E+00 0. -1.
<mgrwt>
<rscale>  1 0.30000000E+03</rscale>
<asrwt>0</asrwt>
<pdfrwt beam="1">  1       21 0.59367793E-02 0.30000000E+03</pdfrwt>
<pdfrwt beam="2">0</pdfrwt>
<totfact> 0.21460072E+04</totfact>
</mgrwt>
</event>
<event>
 6    1  0.1295671E-001  0.3000000E+03  0.7818608E-02  0.1093470E+00
         21   -1    0    0  501  502  0.00000000000E+00  0.00000000000E+00  0.28686549467E+01  0.28686549467E+01  0.00000000000E+00 0. -1.
         13   -1    0    0    0    0 -0.00000000000E+00 -0.00000000000E+00 -0.10000000000E+04  0.10000000000E+04  0.00000000000E+00 0.  1.
    9000005    2    1    2  501    0  0.41880107085E+02 -0.14605251354E+02 -0.21874602648E+03  0.22322068252E+03  0.32237040764E+01 0.  0.
         13    1    3    3    0    0  0.30509193319E+02 -0.11847443117E+02 -0.15679850340E+03  0.16017784945E+03  0.00000000000E+00 0.  1.
          3    1    3    3  501    0  0.11370913766E+02 -0.27578082371E+01 -0.61947523075E+02  0.63042833068E+02  0.00000000000E+00 0.  1.
         -3    1    1    2    0  502 -0.41880107085E+02  0.14605251354E+02 -0.77838531858E+03  0.77964797243E+03  0.00000000000E+00 0. -1.
<mgrwt>
<rscale>  1 0.30000000E+03</rscale>
<asrwt>0</asrwt>
<pdfrwt beam="1">  1       21 0.10431495E-01 0.30000000E+03</pdfrwt>
<pdfrwt beam="2">0</pdfrwt>
<totfact> 0.79768978E+03</totfact>
</mgrwt>
</event>
<event>
 6    1  0.1295671E-001  0.3000000E+03  0.7818608E-02  0.1093470E+00
         21   -1    0    0  501  502  0.00000000000E+00  0.00000000000E+00  0.11848684534E+02  0.11848684534E+02  0.00000000000E+00 0. -1.
         13   -1    0    0    0    0 -0.00000000000E+00 -0.00000000000E+00 -0.10000000000E+04  0.10000000000E+04  0.00000000000E+00 0.  1.
    9000005    2    1    2  501    0  0.84502132965E+01 -0.54558514258E+02 -0.93008399657E+03  0.93172471118E+03  0.25805343495E+01 0.  0.
         13    1    3    3    0    0  0.93028824311E+00 -0.12908140651E+02 -0.21314462594E+03  0.21353715624E+03  0.00000000000E+00 0.  1.
          3    1    3    3  501    0  0.75199250534E+01 -0.41650373607E+02 -0.71693937064E+03  0.71818755493E+03  0.00000000000E+00 0.  1.
         -3    1    1    2    0  502 -0.84502132965E+01  0.54558514258E+02 -0.58067318895E+02  0.80123973357E+02  0.00000000000E+00 0. -1.
<mgrwt>
<rscale>  1 0.30000000E+03</rscale>
<asrwt>0</asrwt>
<pdfrwt beam="1">  1       21 0.43086216E-01 0.30000000E+03</pdfrwt>
<pdfrwt beam="2">0</pdfrwt>
<totfact> 0.51660657E+02</totfact>
</mgrwt>
</event>
<event>
 6    1  0.1295671E-001  0.3000000E+03  0.7818608E-02  0.1093470E+00
         21   -1    0    0  501  502  0.00000000000E+00  0.00000000000E+00  0.10979325016E+01  0.10979325016E+01  0.00000000000E+00 0. -1.
         13   -1    0    0    0    0 -0.00000000000E+00 -0.00000000000E+00 -0.10000000000E+04  0.10000000000E+04  0.00000000000E+00 0.  1.
    9000005    2    1    2  501    0 -0.19533161028E+02  0.24632268900E+02 -0.34602815030E+03  0.34746757457E+03  0.31530187350E+01 0.  0.
         13    1    3    3    0    0 -0.18048190775E+02  0.21370281101E+02 -0.30091995314E+03  0.30221721378E+03  0.00000000000E+00 0.  1.
          3    1    3    3  501    0 -0.14849702522E+01  0.32619877990E+01 -0.45108197163E+02  0.45250360798E+02  0.00000000000E+00 0.  1.
         -1    1    1    2    0  502  0.19533161028E+02 -0.24632268900E+02 -0.65287391720E+03  0.65363035793E+03  0.00000000000E+00 0. -1.
<mgrwt>
<rscale>  1 0.30000000E+03</rscale>
<asrwt>0</asrwt>
<pdfrwt beam="1">  1       21 0.39924902E-02 0.30000000E+03</pdfrwt>
<pdfrwt beam="2">0</pdfrwt>
<totfact> 0.42180593E+04</totfact>
</mgrwt>
</event>
<event>
 6    1  0.1295671E-001  0.3000000E+03  0.7818608E-02  0.1093470E+00
         21   -1    0    0  501  502  0.00000000000E+00  0.00000000000E+00  0.30773171363E+01  0.30773171363E+01  0.00000000000E+00 0. -1.
         13   -1    0    0    0    0 -0.00000000000E+00 -0.00000000000E+00 -0.10000000000E+04  0.10000000000E+04  0.00000000000E+00 0.  1.
    9000005    2    1    2  501    0  0.30601534459E+02  0.45786509105E+02 -0.55548599391E+03  0.55821867815E+03  0.32472876074E+01 0.  0.
         13    1    3    3    0    0  0.11703170670E+02  0.20332441989E+02 -0.23276804488E+03  0.23394729132E+03  0.00000000000E+00 0.  1.
          1    1    3    3  501    0  0.18898363789E+02  0.25454067117E+02 -0.32271794903E+03  0.32427138683E+03  0.00000000000E+00 0.  1.
         -1    1    1    2    0  502 -0.30601534459E+02 -0.45786509105E+02 -0.44143668895E+03  0.44485863899E+03  0.00000000000E+00 0. -1.
<mgrwt>
<rscale>  1 0.30000000E+03</rscale>
<asrwt>0</asrwt>
<pdfrwt beam="1">  1       21 0.11190268E-01 0.30000000E+03</pdfrwt>
<pdfrwt beam="2">0</pdfrwt>
<totfact> 0.70315254E+03</totfact>
</mgrwt>
</event>
<event>
 6    1  0.1295671E-001  0.3000000E+03  0.7818608E-02  0.1093470E+00
         21   -1    0    0  501  502  0.00000000000E+00  0.00000000000E+00  0.18528894578E+01  0.18528894578E+01  0.00000000000E+00 0. -1.
         13   -1    0    0    0    0 -0.00000000000E+00 -0.00000000000E+00 -0.10000000000E+04  0.10000000000E+04  0.00000000000E+00 0.  1.
    9000005    2    1    2  501    0  0.25132952547E+01 -0.40460815366E+02 -0.66595989049E+03  0.66720121473E+03  0.33898319666E+01 0.  0.
         13    1    3    3    0    0  0.18130063473E+01 -0.32672792917E+02 -0.51444093687E+03  0.51548062613E+03  0.00000000000E+00 0.  1.
          3    1    3    3  501    0  0.70028890738E+00 -0.77880224485E+01 -0.15151895362E+03  0.15172058859E+03  0.00000000000E+00 0.  1.
         -1    1    1    2    0  502 -0.25132952547E+01  0.40460815366E+02 -0.33218722005E+03  0.33465167473E+03  0.00000000000E+00 0. -1.
<mgrwt>
<rscale>  1 0.30000000E+03</rscale>
<asrwt>0</asrwt>
<pdfrwt beam="1">  1       21 0.67377941E-02 0.30000000E+03</pdfrwt>
<pdfrwt beam="2">0</pdfrwt>
<totfact> 0.17242080E+04</totfact>
</mgrwt>
</event>
<event>
 6    1  0.1295671E-001  0.3000000E+03  0.7818608E-02  0.1093470E+00
         21   -1    0    0  501  502  0.00000000000E+00  0.00000000000E+00  0.17129583363E+01  0.17129583363E+01  0.00000000000E+00 0. -1.
         13   -1    0    0    0    0 -0.00000000000E+00 -0.00000000000E+00 -0.10000000000E+04  0.10000000000E+04  0.00000000000E+00 0.  1.
    9000005    2    1    2  501    0 -0.92594710263E+00  0.34771176454E+02 -0.76997019466E+03  0.77076171951E+03  0.31041111236E+01 0.  0.
         13    1    3    3    0    0  0.10607140233E+01  0.78212872918E+01 -0.16823227309E+03  0.16841732500E+03  0.00000000000E+00 0.  1.
          1    1    3    3  501    0 -0.19866611259E+01  0.26949889163E+02 -0.60173792157E+03  0.60234439452E+03  0.00000000000E+00 0.  1.
         -1    1    1    2    0  502  0.92594710263E+00 -0.34771176454E+02 -0.22831684700E+03  0.23095123882E+03  0.00000000000E+00 0. -1.
<mgrwt>
<rscale>  1 0.30000000E+03</rscale>
<asrwt>0</asrwt>
<pdfrwt beam="1">  1       21 0.62289525E-02 0.30000000E+03</pdfrwt>
<pdfrwt beam="2">0</pdfrwt>
<totfact> 0.19752745E+04</totfact>
</mgrwt>
</event>
<event>
 6    1  0.1295671E-001  0.3000000E+03  0.7818608E-02  0.1093470E+00
         21   -1    0    0  501  502  0.00000000000E+00  0.00000000000E+00  0.11750229726E+01  0.11750229726E+01  0.00000000000E+00 0. -1.
         13   -1    0    0    0    0 -0.00000000000E+00 -0.00000000000E+00 -0.10000000000E+04  0.10000000000E+04  0.00000000000E+00 0.  1.
    9000005    2    1    2  501    0 -0.29808962836E+02 -0.16171982301E+02 -0.43345125353E+03  0.43478509148E+03  0.28247669188E+01 0.  0.
         13    1    3    3    0    0 -0.14272946323E+02 -0.64229660447E+01 -0.20979692430E+03  0.21037994423E+03  0.00000000000E+00 0.  1.
          1    1    3    3  501    0 -0.15536016513E+02 -0.97490162560E+01 -0.22365432923E+03  0.22440514725E+03  0.00000000000E+00 0.  1.
         -3    1    1    2    0  502  0.29808962836E+02  0.16171982301E+02 -0.56537372350E+03  0.56638993149E+03  0.00000000000E+00 0. -1.
<mgrwt>
<rscale>  1 0.30000000E+03</rscale>
<asrwt>0</asrwt>
<pdfrwt beam="1">  1       21 0.42728198E-02 0.30000000E+03</pdfrwt>
<pdfrwt beam="2">0</pdfrwt>
<totfact> 0.37617919E+04</totfact>
</mgrwt>
</event>
<event>
 6    1  0.1295671E-001  0.3000000E+03  0.7818608E-02  0.1093470E+00
         21   -1    0    0  501  502  0.00000000000E+00  0.00000000000E+00  0.40326300750E+01  0.40326300750E+01  0.00000000000E+00 0. -1.
         13   -1    0    0    0    0 -0.00000000000E+00 -0.00000000000E+00 -0.10000000000E+04  0.10000000000E+04  0.00000000000E+00 0.  1.
    9000005    2    1    2  501    0  0.47782966055E+02  0.39682059363E+02 -0.60144315149E+03  0.60464905929E+03  0.29568136646E+01 0.  0.
         13    1    3    3    0    0  0.40157339171E+02  0.34605799987E+02 -0.51666877337E+03  0.51938116510E+03  0.00000000000E+00 0.  1.
          1    1    3    3  501    0  0.76256268849E+01  0.50762593759E+01 -0.84774378115E+02  0.85267894189E+02  0.00000000000E+00 0.  1.
         -3    1    1    2    0  502 -0.47782966055E+02 -0.39682059363E+02 -0.39452421844E+03  0.39938357079E+03  0.00000000000E+00 0. -1.
<mgrwt>
<rscale>  1 0.30000000E+03</rscale>
<asrwt>0</asrwt>
<pdfrwt beam="1">  1       21 0.14664140E-01 0.30000000E+03</pdfrwt>
<pdfrwt beam="2">0</pdfrwt>
<totfact> 0.42940684E+03</totfact>
</mgrwt>
</event>
<event>
 6    1  0.1295671E-001  0.3000000E+03  0.7818608E-02  0.1093470E+00
         21   -1    0    0  501  502  0.00000000000E+00  0.00000000000E+00  0.25977888721E+01  0.25977888721E+01  0.00000000000E+00 0. -1.
         13   -1    0    0    0    0 -0.00000000000E+00 -0.00000000000E+00 -0.10000000000E+04  0.10000000000E+04  0.00000000000E+00 0.  1.
    9000005    2    1    2  501    0 -0.14537619129E+02  0.48569388341E+02 -0.54654125264E+03  0.54889531837E+03  0.28985917678E+01 0.  0.
         13    1    3    3    0    0 -0.12054314318E+02  0.42188468314E+02 -0.46339700252E+03  0.46546960727E+03  0.00000000000E+00 0.  1.
          3    1    3    3  501    0 -0.24833048117E+01  0.63809200267E+01 -0.83144250125E+02  0.83425711097E+02  0.00000000000E+00 0.  1.
         -1    1    1    2    0  502  0.14537619129E+02 -0.48569388341E+02 -0.45086095849E+03  0.45370247050E+03  0.00000000000E+00 0. -1.
<mgrwt>
<rscale>  1 0.30000000E+03</rscale>
<asrwt>0</asrwt>
<pdfrwt beam="1">  1       21 0.94465249E-02 0.30000000E+03</pdfrwt>
<pdfrwt beam="2">0</pdfrwt>
<totfact> 0.95229731E+03</totfact>
</mgrwt>
</event>
<event>
 6    1  0.1295671E-001  0.3000000E+03  0.7818608E-02  0.1093470E+00
         21   -1    0    0  501  502  0.00000000000E+00  0.00000000000E+00  0.17244587730E+01  0.17244587730E+01  0.00000000000E+00 0. -1.
         13   -1    0    0    0    0 -0.00000000000E+00 -0.00000000000E+00 -0.10000000000E+04  0.10000000000E+04  0.00000000000E+00 0.  1.
    9000005    2    1    2  501    0  0.42881793887E+01  0.36130784621E+02 -0.73962694825E+03  0.74052928897E+03  0.34326613582E+01 0.  0.
         13    1    3    3    0    0  0.12241196766E+01  0.26575942285E+01 -0.55456025413E+02  0.55533161540E+02  0.00000000000E+00 0.  1.
          3    1    3    3  501    0  0.30640597122E+01  0.33473190393E+02 -0.68417092284E+03  0.68499612743E+03  0.00000000000E+00 0.  1.
         -1    1    1    2    0  502 -0.42881793887E+01 -0.36130784621E+02 -0.25864859298E+03  0.26119516981E+03  0.00000000000E+00 0. -1.
<mgrwt>
<rscale>  1 0.30000000E+03</rscale>
<asrwt>0</asrwt>
<pdfrwt beam="1">  1       21 0.62707724E-02 0.30000000E+03</pdfrwt>
<pdfrwt beam="2">0</pdfrwt>
<totfact> 0.19525700E+04</totfact>
</mgrwt>
</event>
<event>
 6    1  0.1295671E-001  0.3000000E+03  0.7818608E-02  0.1093470E+00
         21   -1    0    0  501  502  0.00000000000E+00  0.00000000000E+00  0.12743936536E+01  0.12743936536E+01  0.00000000000E+00 0. -1.
         13   -1    0    0    0    0 -0.00000000000E+00 -0.00000000000E+00 -0.10000000000E+04  0.10000000000E+04  0.00000000000E+00 0.  1.
    9000005    2    1    2  501    0  0.22529301451E+02 -0.22754851971E+02 -0.28106529400E+03  0.28290006460E+03  0.30650208436E+01 0.  0.
         13    1    3    3    0    0  0.11494875312E+02 -0.94434423775E+01 -0.12903527597E+03  0.12989000426E+03  0.00000000000E+00 0.  1.
          1    1    3    3  501    0  0.11034426139E+02 -0.13311409593E+02 -0.15203001803E+03  0.15301006035E+03  0.00000000000E+00 0.  1.
         -1    1    1    2    0  502 -0.22529301451E+02  0.22754851971E+02 -0.71766031235E+03  0.71837432905E+03  0.00000000000E+00 0. -1.
<mgrwt>
<rscale>  1 0.30000000E+03</rscale>
<asrwt>0</asrwt>
<pdfrwt beam="1">  1       21 0.46341685E-02 0.30000000E+03</pdfrwt>
<pdfrwt beam="2">0</pdfrwt>
<totfact> 0.32780971E+04</totfact>
</mgrwt>
</event>
<event>
 6    1  0.1295671E-001  0.3000000E+03  0.7818608E-02  0.1093470E+00
         21   -1    0    0  501  502  0.00000000000E+00  0.00000000000E+00  0.27595602086E+01  0.27595602086E+01  0.00000000000E+00 0. -1.
         13   -1    0    0    0    0 -0.00000000000E+00 -0.00000000000E+00 -0.10000000000E+04  0.10000000000E+04  0.00000000000E+00 0.  1.
    9000005    2    1    2  501    0 -0.12018036334E+02  0.29589733820E+02 -0.89657799523E+03  0.89715220587E+03  0.31612380064E+01 0.  0.
         13    1    3    3    0    0 -0.16595234784E+01  0.29517262991E+01 -0.12232533605E+03  0.12237219679E+03  0.00000000000E+00 0.  1.
          3    1    3    3  501    0 -0.10358512856E+02  0.26638007521E+02 -0.77425265917E+03  0.77478000908E+03  0.00000000000E+00 0.  1.
         -1    1    1    2    0  502  0.12018036334E+02 -0.29589733820E+02 -0.10066244456E+03  0.10560735434E+03  0.00000000000E+00 0. -1.
<mgrwt>
<rscale>  1 0.30000000E+03</rscale>
<asrwt>0</asrwt>
<pdfrwt beam="1">  1       21 0.10034786E-01 0.30000000E+03</pdfrwt>
<pdfrwt beam="2">0</pdfrwt>
<totfact> 0.85499761E+03</totfact>
</mgrwt>
</event>
<event>
 6    1  0.1295671E-001  0.3000000E+03  0.7818608E-02  0.1093470E+00
         21   -1    0    0  501  502  0.00000000000E+00  0.00000000000E+00  0.11700997411E+02  0.11700997411E+02  0.00000000000E+00 0. -1.
         13   -1    0    0    0    0 -0.00000000000E+00 -0.00000000000E+00 -0.10000000000E+04  0.10000000000E+04  0.00000000000E+00 0.  1.
    9000005    2    1    2  501    0  0.53930839964E+01 -0.98912112365E+02 -0.69678988322E+03  0.70382073172E+03  0.58982805142E+01 0.  0.
         13    1    3    3    0    0  0.40839955885E+01 -0.33966559358E+02 -0.22845134253E+03  0.23099874909E+03  0.00000000000E+00 0.  1.
          1    1    3    3  501    0  0.13090884079E+01 -0.64945553007E+02 -0.46833854069E+03  0.47282198263E+03  0.00000000000E+00 0.  1.
         -3    1    1    2    0  502 -0.53930839964E+01  0.98912112365E+02 -0.29150911937E+03  0.30788026569E+03  0.00000000000E+00 0. -1.
<mgrwt>
<rscale>  1 0.30000000E+03</rscale>
<asrwt>0</asrwt>
<pdfrwt beam="1">  1       21 0.42549171E-01 0.30000000E+03</pdfrwt>
<pdfrwt beam="2">0</pdfrwt>
<totfact> 0.53049142E+02</totfact>
</mgrwt>
</event>
<event>
 6    1  0.1295671E-001  0.3000000E+03  0.7818608E-02  0.1093470E+00
         21   -1    0    0  501  502  0.00000000000E+00  0.00000000000E+00  0.16807985814E+01  0.16807985814E+01  0.00000000000E+00 0. -1.
         13   -1    0    0    0    0 -0.00000000000E+00 -0.00000000000E+00 -0.10000000000E+04  0.10000000000E+04  0.00000000000E+00 0.  1.
    9000005    2    1    2  501    0  0.49413967292E+00 -0.33289968835E+02 -0.79067401273E+03  0.79138341252E+03  0.37208876277E+01 0.  0.
         13    1    3    3    0    0 -0.18669070944E+00 -0.31895871637E+02 -0.76229451333E+03  0.76296153673E+03  0.00000000000E+00 0.  1.
          1    1    3    3  501    0  0.68083038236E+00 -0.13940971980E+01 -0.28379499401E+02  0.28421875787E+02  0.00000000000E+00 0.  1.
         -1    1    1    2    0  502 -0.49413967292E+00  0.33289968835E+02 -0.20764518869E+03  0.21029738606E+03  0.00000000000E+00 0. -1.
<mgrwt>
<rscale>  1 0.30000000E+03</rscale>
<asrwt>0</asrwt>
<pdfrwt beam="1">  1       21 0.61120077E-02 0.30000000E+03</pdfrwt>
<pdfrwt beam="2">0</pdfrwt>
<totfact> 0.20409868E+04</totfact>
</mgrwt>
</event>
<event>
 6    1  0.1295671E-001  0.3000000E+03  0.7818608E-02  0.1093470E+00
         21   -1    0    0  501  502  0.00000000000E+00  0.00000000000E+00  0.87035550104E+01  0.87035550104E+01  0.00000000000E+00 0. -1.
         13   -1    0    0    0    0 -0.00000000000E+00 -0.00000000000E+00 -0.10000000000E+04  0.10000000000E+04  0.00000000000E+00 0.  1.
    9000005    2    1    2  501    0 -0.50691518477E+02  0.14786543251E+02 -0.91138804649E+03  0.91292451733E+03  0.38381198653E+01 0.  0.
         13    1    3    3    0    0 -0.33818074262E+02  0.80525935489E+01 -0.60784336777E+03  0.60883664981E+03  0.00000000000E+00 0.  1.
          3    1    3    3  501    0 -0.16873444215E+02  0.67339497023E+01 -0.30354467872E+03  0.30408786753E+03  0.00000000000E+00 0.  1.
         -1    1    1    2    0  502  0.50691518477E+02 -0.14786543251E+02 -0.79908398502E+02  0.95779037675E+02  0.00000000000E+00 0. -1.
<mgrwt>
<rscale>  1 0.30000000E+03</rscale>
<asrwt>0</asrwt>
<pdfrwt beam="1">  1       21 0.31649358E-01 0.30000000E+03</pdfrwt>
<pdfrwt beam="2">0</pdfrwt>
<totfact> 0.97645380E+02</totfact>
</mgrwt>
</event>
<event>
 6    1  0.1295671E-001  0.3000000E+03  0.7818608E-02  0.1093470E+00
         21   -1    0    0  501  502  0.00000000000E+00  0.00000000000E+00  0.28413450283E+01  0.28413450283E+01  0.00000000000E+00 0. -1.
         13   -1    0    0    0    0 -0.00000000000E+00 -0.00000000000E+00 -0.10000000000E+04  0.10000000000E+04  0.00000000000E+00 0.  1.
    9000005    2    1    2  501    0  0.11838030185E+02 -0.51355617742E+02 -0.42667320896E+03  0.42992670693E+03  0.30671905807E+01 0.  0.
         13    1    3    3    0    0  0.47913289531E+01 -0.18816699610E+02 -0.16884727697E+03  0.16996007754E+03  0.00000000000E+00 0.  1.
          1    1    3    3  501    0  0.70467012323E+01 -0.32538918132E+02 -0.25782593198E+03  0.25996662939E+03  0.00000000000E+00 0.  1.
         -3    1    1    2    0  502 -0.11838030185E+02  0.51355617742E+02 -0.57048544602E+03  0.57291463810E+03  0.00000000000E+00 0. -1.
<mgrwt>
<rscale>  1 0.30000000E+03</rscale>
<asrwt>0</asrwt>
<pdfrwt beam="1">  1       21 0.10332186E-01 0.30000000E+03</pdfrwt>
<pdfrwt beam="2">0</pdfrwt>
<totfact> 0.81147474E+03</totfact>
</mgrwt>
</event>
<event>
 6    1  0.1295671E-001  0.3000000E+03  0.7818608E-02  0.1093470E+00
         21   -1    0    0  501  502  0.00000000000E+00  0.00000000000E+00  0.10936744946E+02  0.10936744946E+02  0.00000000000E+00 0. -1.
         13   -1    0    0    0    0 -0.00000000000E+00 -0.00000000000E+00 -0.10000000000E+04  0.10000000000E+04  0.00000000000E+00 0.  1.
    9000005    2    1    2  501    0 -0.64418054599E+02 -0.18833650744E+02 -0.88213626865E+03  0.88469185364E+03  0.32995871256E+01 0.  0.
         13    1    3    3    0    0 -0.18017881056E+02 -0.65480280087E+01 -0.24081976960E+03  0.24158162624E+03  0.00000000000E+00 0.  1.
          3    1    3    3  501    0 -0.46400173543E+02 -0.12285622736E+02 -0.64131649906E+03  0.64311022740E+03  0.00000000000E+00 0.  1.
         -1    1    1    2    0  502  0.64418054599E+02  0.18833650744E+02 -0.10692698640E+03  0.12624489130E+03  0.00000000000E+00 0. -1.
<mgrwt>
<rscale>  1 0.30000000E+03</rscale>
<asrwt>0</asrwt>
<pdfrwt beam="1">  1       21 0.39770065E-01 0.30000000E+03</pdfrwt>
<pdfrwt beam="2">0</pdfrwt>
<totfact> 0.61132876E+02</totfact>
</mgrwt>
</event>
<event>
 6    1  0.1295671E-001  0.3000000E+03  0.7818608E-02  0.1093470E+00
         21   -1    0    0  501  502  0.00000000000E+00  0.00000000000E+00  0.13303405011E+01  0.13303405011E+01  0.00000000000E+00 0. -1.
         13   -1    0    0    0    0 -0.00000000000E+00 -0.00000000000E+00 -0.10000000000E+04  0.10000000000E+04  0.00000000000E+00 0.  1.
    9000005    2    1    2  501    0  0.14837328881E+02 -0.27135862346E+02 -0.23681150221E+03  0.23884469920E+03  0.32559800718E+01 0.  0.
         13    1    3    3    0    0  0.86734798281E+01 -0.17922487171E+02 -0.14262049806E+03  0.14400365018E+03  0.00000000000E+00 0.  1.
          1    1    3    3  501    0  0.61638490530E+01 -0.92133751749E+01 -0.94191004148E+02  0.94841049022E+02  0.00000000000E+00 0.  1.
         -1    1    1    2    0  502 -0.14837328881E+02  0.27135862346E+02 -0.76185815729E+03  0.76248564130E+03  0.00000000000E+00 0. -1.
<mgrwt>
<rscale>  1 0.30000000E+03</rscale>
<asrwt>0</asrwt>
<pdfrwt beam="1">  1       21 0.48376120E-02 0.30000000E+03</pdfrwt>
<pdfrwt beam="2">0</pdfrwt>
<totfact> 0.30471074E+04</totfact>
</mgrwt>
</event>
<event>
 6    1  0.1295671E-001  0.3000000E+03  0.7818608E-02  0.1093470E+00
         21   -1    0    0  501  502  0.00000000000E+00  0.00000000000E+00  0.22053617479E+01  0.22053617479E+01  0.00000000000E+00 0. -1.
         13   -1    0    0    0    0 -0.00000000000E+00 -0.00000000000E+00 -0.10000000000E+04  0.10000000000E+04  0.00000000000E+00 0.  1.
    9000005    2    1    2  501    0  0.12234672770E+02  0.35727139772E+02 -0.79569923737E+03  0.79661191149E+03  0.52101277718E+01 0.  0.
         13    1    3    3    0    0  0.12387268576E+02  0.34461853165E+02 -0.74829290191E+03  0.74918844812E+03  0.00000000000E+00 0.  1.
          3    1    3    3  501    0 -0.15259580570E+00  0.12652866068E+01 -0.47406335461E+02  0.47423463365E+02  0.00000000000E+00 0.  1.
         -1    1    1    2    0  502 -0.12234672770E+02 -0.35727139772E+02 -0.20209540088E+03  0.20559345026E+03  0.00000000000E+00 0. -1.
<mgrwt>
<rscale>  1 0.30000000E+03</rscale>
<asrwt>0</asrwt>
<pdfrwt beam="1">  1       21 0.80195142E-02 0.30000000E+03</pdfrwt>
<pdfrwt beam="2">0</pdfrwt>
<totfact> 0.12719319E+04</totfact>
</mgrwt>
</event>
<event>
 6    1  0.1295671E-001  0.3000000E+03  0.7818608E-02  0.1093470E+00
         21   -1    0    0  501  502  0.00000000000E+00  0.00000000000E+00  0.15387874574E+01  0.15387874574E+01  0.00000000000E+00 0. -1.
         13   -1    0    0    0    0 -0.00000000000E+00 -0.00000000000E+00 -0.10000000000E+04  0.10000000000E+04  0.00000000000E+00 0.  1.
    9000005    2    1    2  501    0  0.34717624836E+02 -0.15096502715E+01 -0.72982294575E+03  0.73066222719E+03  0.42621095136E+01 0.  0.
         13    1    3    3    0    0  0.24733627752E+02 -0.13681230649E+01 -0.55775529801E+03  0.55830511064E+03  0.00000000000E+00 0.  1.
          1    1    3    3  501    0  0.99839970843E+01 -0.14152720656E+00 -0.17206764774E+03  0.17235711655E+03  0.00000000000E+00 0.  1.
         -3    1    1    2    0  502 -0.34717624836E+02  0.15096502715E+01 -0.26863826679E+03  0.27087656027E+03  0.00000000000E+00 0. -1.
<mgrwt>
<rscale>  1 0.30000000E+03</rscale>
<asrwt>0</asrwt>
<pdfrwt beam="1">  1       21 0.55956026E-02 0.30000000E+03</pdfrwt>
<pdfrwt beam="2">0</pdfrwt>
<totfact> 0.23761088E+04</totfact>
</mgrwt>
</event>
<event>
 6    1  0.1295671E-001  0.3000000E+03  0.7818608E-02  0.1093470E+00
         21   -1    0    0  501  502  0.00000000000E+00  0.00000000000E+00  0.24310879190E+01  0.24310879190E+01  0.00000000000E+00 0. -1.
         13   -1    0    0    0    0 -0.00000000000E+00 -0.00000000000E+00 -0.10000000000E+04  0.10000000000E+04  0.00000000000E+00 0.  1.
    9000005    2    1    2  501    0  0.60365675445E+00  0.48681219231E+02 -0.57583447908E+03  0.57789586266E+03  0.28381815409E+01 0.  0.
         13    1    3    3    0    0  0.19521910771E+00  0.11915755465E+01 -0.10216031530E+02  0.10287140662E+02  0.00000000000E+00 0.  1.
          1    1    3    3  501    0  0.40843764673E+00  0.47489643685E+02 -0.56561844755E+03  0.56760872200E+03  0.00000000000E+00 0.  1.
         -1    1    1    2    0  502 -0.60365675445E+00 -0.48681219231E+02 -0.42173443300E+03  0.42453522526E+03  0.00000000000E+00 0. -1.
<mgrwt>
<rscale>  1 0.30000000E+03</rscale>
<asrwt>0</asrwt>
<pdfrwt beam="1">  1       21 0.88403383E-02 0.30000000E+03</pdfrwt>
<pdfrwt beam="2">0</pdfrwt>
<totfact> 0.10712199E+04</totfact>
</mgrwt>
</event>
<event>
 6    1  0.1295671E-001  0.3000000E+03  0.7818608E-02  0.1093470E+00
         21   -1    0    0  501  502  0.00000000000E+00  0.00000000000E+00  0.21336540125E+01  0.21336540125E+01  0.00000000000E+00 0. -1.
         13   -1    0    0    0    0 -0.00000000000E+00 -0.00000000000E+00 -0.10000000000E+04  0.10000000000E+04  0.00000000000E+00 0.  1.
    9000005    2    1    2  501    0  0.19938809735E+02 -0.35677811162E+02 -0.73174899280E+03  0.73289601175E+03  0.30843530726E+01 0.  0.
         13    1    3    3    0    0  0.77910979154E+01 -0.16924201858E+02 -0.34151717165E+03  0.34202501129E+03  0.00000000000E+00 0.  1.
          1    1    3    3  501    0  0.12147711820E+02 -0.18753609304E+02 -0.39023182115E+03  0.39087100046E+03  0.00000000000E+00 0.  1.
         -3    1    1    2    0  502 -0.19938809735E+02  0.35677811162E+02 -0.26611735319E+03  0.26923764226E+03  0.00000000000E+00 0. -1.
<mgrwt>
<rscale>  1 0.30000000E+03</rscale>
<asrwt>0</asrwt>
<pdfrwt beam="1">  1       21 0.77587582E-02 0.30000000E+03</pdfrwt>
<pdfrwt beam="2">0</pdfrwt>
<totfact> 0.13479072E+04</totfact>
</mgrwt>
</event>
<event>
 6    1  0.1295671E-001  0.3000000E+03  0.7818608E-02  0.1093470E+00
         21   -1    0    0  501  502  0.00000000000E+00  0.00000000000E+00  0.10654449367E+02  0.10654449367E+02  0.00000000000E+00 0. -1.
         13   -1    0    0    0    0 -0.00000000000E+00 -0.00000000000E+00 -0.10000000000E+04  0.10000000000E+04  0.00000000000E+00 0.  1.
    9000005    2    1    2  501    0  0.48130871120E+02  0.67364638745E+02 -0.79636803792E+03  0.80066660277E+03  0.32220570973E+01 0.  0.
         13    1    3    3    0    0  0.24475139961E+02  0.32875112612E+02 -0.40766110432E+03  0.40971622067E+03  0.00000000000E+00 0.  1.
          3    1    3    3  501    0  0.23655731159E+02  0.34489526133E+02 -0.38870693360E+03  0.39095038210E+03  0.00000000000E+00 0.  1.
         -3    1    1    2    0  502 -0.48130871120E+02 -0.67364638745E+02 -0.19297751271E+03  0.20998784660E+03  0.00000000000E+00 0. -1.
<mgrwt>
<rscale>  1 0.30000000E+03</rscale>
<asrwt>0</asrwt>
<pdfrwt beam="1">  1       21 0.38743534E-01 0.30000000E+03</pdfrwt>
<pdfrwt beam="2">0</pdfrwt>
<totfact> 0.64551189E+02</totfact>
</mgrwt>
</event>
<event>
 6    1  0.1295671E-001  0.3000000E+03  0.7818608E-02  0.1093470E+00
         21   -1    0    0  501  502  0.00000000000E+00  0.00000000000E+00  0.20732243684E+01  0.20732243684E+01  0.00000000000E+00 0. -1.
         13   -1    0    0    0    0 -0.00000000000E+00 -0.00000000000E+00 -0.10000000000E+04  0.10000000000E+04  0.00000000000E+00 0.  1.
    9000005    2    1    2  501    0  0.39716629606E+02 -0.20586231497E+02 -0.59016918205E+03  0.59186905725E+03  0.28484906314E+01 0.  0.
         13    1    3    3    0    0  0.88118666206E+00 -0.32926785396E+00 -0.81711639709E+01  0.82251339134E+01  0.00000000000E+00 0.  1.
          3    1    3    3  501    0  0.38835442944E+02 -0.20256963643E+02 -0.58199801808E+03  0.58364392334E+03  0.00000000000E+00 0.  1.
         -1    1    1    2    0  502 -0.39716629606E+02  0.20586231497E+02 -0.40775759358E+03  0.41020416711E+03  0.00000000000E+00 0. -1.
<mgrwt>
<rscale>  1 0.30000000E+03</rscale>
<asrwt>0</asrwt>
<pdfrwt beam="1">  1       21 0.75390136E-02 0.30000000E+03</pdfrwt>
<pdfrwt beam="2">0</pdfrwt>
<totfact> 0.14175094E+04</totfact>
</mgrwt>
</event>
<event>
 6    1  0.1295671E-001  0.3000000E+03  0.7818608E-02  0.1093470E+00
         21   -1    0    0  501  502  0.00000000000E+00  0.00000000000E+00  0.16929336958E+01  0.16929336958E+01  0.00000000000E+00 0. -1.
         13   -1    0    0    0    0 -0.00000000000E+00 -0.00000000000E+00 -0.10000000000E+04  0.10000000000E+04  0.00000000000E+00 0.  1.
    9000005    2    1    2  501    0  0.36058266457E+01 -0.40909290314E+02 -0.51780262795E+03  0.51943668719E+03  0.28876396562E+01 0.  0.
         13    1    3    3    0    0 -0.11276107250E+00 -0.57695668962E+01 -0.63286968391E+02  0.63549516012E+02  0.00000000000E+00 0.  1.
          1    1    3    3  501    0  0.37185877182E+01 -0.35139723418E+02 -0.45451565956E+03  0.45588717117E+03  0.00000000000E+00 0.  1.
         -3    1    1    2    0  502 -0.36058266457E+01  0.40909290314E+02 -0.48050443835E+03  0.48225624651E+03  0.00000000000E+00 0. -1.
<mgrwt>
<rscale>  1 0.30000000E+03</rscale>
<asrwt>0</asrwt>
<pdfrwt beam="1">  1       21 0.61561355E-02 0.30000000E+03</pdfrwt>
<pdfrwt beam="2">0</pdfrwt>
<totfact> 0.20157977E+04</totfact>
</mgrwt>
</event>
<event>
 6    1  0.1295671E-001  0.3000000E+03  0.7818608E-02  0.1093470E+00
         21   -1    0    0  501  502  0.00000000000E+00  0.00000000000E+00  0.98642299471E+00  0.98642299471E+00  0.00000000000E+00 0. -1.
         13   -1    0    0    0    0 -0.00000000000E+00 -0.00000000000E+00 -0.10000000000E+04  0.10000000000E+04  0.00000000000E+00 0.  1.
    9000005    2    1    2  501    0  0.21527998289E+02  0.22690505356E+02 -0.46393338992E+03  0.46499284061E+03  0.24161528435E+01 0.  0.
         13    1    3    3    0    0  0.43713768816E+01  0.32942980522E+01 -0.83100045806E+02  0.83280123370E+02  0.00000000000E+00 0.  1.
          1    1    3    3  501    0  0.17156621408E+02  0.19396207304E+02 -0.38083334411E+03  0.38171271724E+03  0.00000000000E+00 0.  1.
         -3    1    1    2    0  502 -0.21527998289E+02 -0.22690505356E+02 -0.53508018708E+03  0.53599358238E+03  0.00000000000E+00 0. -1.
<mgrwt>
<rscale>  1 0.30000000E+03</rscale>
<asrwt>0</asrwt>
<pdfrwt beam="1">  1       21 0.35870003E-02 0.30000000E+03</pdfrwt>
<pdfrwt beam="2">0</pdfrwt>
<totfact> 0.50495699E+04</totfact>
</mgrwt>
</event>
<event>
 6    1  0.1295671E-001  0.3000000E+03  0.7818608E-02  0.1093470E+00
         21   -1    0    0  501  502  0.00000000000E+00  0.00000000000E+00  0.17197618904E+01  0.17197618904E+01  0.00000000000E+00 0. -1.
         13   -1    0    0    0    0 -0.00000000000E+00 -0.00000000000E+00 -0.10000000000E+04  0.10000000000E+04  0.00000000000E+00 0.  1.
    9000005    2    1    2  501    0  0.31599028667E+02 -0.11976610818E+02 -0.78859176463E+03  0.78932580310E+03  0.40391065857E+01 0.  0.
         13    1    3    3    0    0  0.67740528889E+01 -0.43847478052E+01 -0.18196081193E+03  0.18213964666E+03  0.00000000000E+00 0.  1.
          3    1    3    3  501    0  0.24824975778E+02 -0.75918630125E+01 -0.60663095269E+03  0.60718615644E+03  0.00000000000E+00 0.  1.
         -3    1    1    2    0  502 -0.31599028667E+02  0.11976610818E+02 -0.20968847348E+03  0.21239395879E+03  0.00000000000E+00 0. -1.
<mgrwt>
<rscale>  1 0.30000000E+03</rscale>
<asrwt>0</asrwt>
<pdfrwt beam="1">  1       21 0.62536928E-02 0.30000000E+03</pdfrwt>
<pdfrwt beam="2">0</pdfrwt>
<totfact> 0.19617936E+04</totfact>
</mgrwt>
</event>
<event>
 6    1  0.1295671E-001  0.3000000E+03  0.7818608E-02  0.1093470E+00
         21   -1    0    0  501  502  0.00000000000E+00  0.00000000000E+00  0.17337276628E+01  0.17337276628E+01  0.00000000000E+00 0. -1.
         13   -1    0    0    0    0 -0.00000000000E+00 -0.00000000000E+00 -0.10000000000E+04  0.10000000000E+04  0.00000000000E+00 0.  1.
    9000005    2    1    2  501    0  0.32894373780E+02  0.23910475847E+02 -0.60341601083E+03  0.60479484107E+03  0.34881184993E+01 0.  0.
         13    1    3    3    0    0  0.28920852775E+02  0.21037588965E+02 -0.51207508132E+03  0.51332239848E+03  0.00000000000E+00 0.  1.
          3    1    3    3  501    0  0.39735210044E+01  0.28728868824E+01 -0.91340929514E+02  0.91472442586E+02  0.00000000000E+00 0.  1.
         -3    1    1    2    0  502 -0.32894373780E+02 -0.23910475847E+02 -0.39485026150E+03  0.39693888659E+03  0.00000000000E+00 0. -1.
<mgrwt>
<rscale>  1 0.30000000E+03</rscale>
<asrwt>0</asrwt>
<pdfrwt beam="1">  1       21 0.63044775E-02 0.30000000E+03</pdfrwt>
<pdfrwt beam="2">0</pdfrwt>
<totfact> 0.19345640E+04</totfact>
</mgrwt>
</event>
<event>
 6    1  0.1295671E-001  0.3000000E+03  0.7818608E-02  0.1093470E+00
         21   -1    0    0  501  502  0.00000000000E+00  0.00000000000E+00  0.14237720652E+01  0.14237720652E+01  0.00000000000E+00 0. -1.
         13   -1    0    0    0    0 -0.00000000000E+00 -0.00000000000E+00 -0.10000000000E+04  0.10000000000E+04  0.00000000000E+00 0.  1.
    9000005    2    1    2  501    0 -0.19212104515E+02  0.32344191284E+02 -0.52698220265E+03  0.52833162844E+03  0.29691812065E+01 0.  0.
         13    1    3    3    0    0 -0.93377271623E+00  0.16913434544E+01 -0.37764345837E+02  0.37813732832E+02  0.00000000000E+00 0.  1.
          3    1    3    3  501    0 -0.18278331799E+02  0.30652847830E+02 -0.48921785681E+03  0.49051789561E+03  0.00000000000E+00 0.  1.
         -3    1    1    2    0  502  0.19212104515E+02 -0.32344191284E+02 -0.47159402529E+03  0.47309214362E+03  0.00000000000E+00 0. -1.
<mgrwt>
<rscale>  1 0.30000000E+03</rscale>
<asrwt>0</asrwt>
<pdfrwt beam="1">  1       21 0.51773639E-02 0.30000000E+03</pdfrwt>
<pdfrwt beam="2">0</pdfrwt>
<totfact> 0.27141384E+04</totfact>
</mgrwt>
</event>
<event>
 6    1  0.1295671E-001  0.3000000E+03  0.7818608E-02  0.1093470E+00
         21   -1    0    0  501  502  0.00000000000E+00  0.00000000000E+00  0.16842809431E+01  0.16842809431E+01  0.00000000000E+00 0. -1.
         13   -1    0    0    0    0 -0.00000000000E+00 -0.00000000000E+00 -0.10000000000E+04  0.10000000000E+04  0.00000000000E+00 0.  1.
    9000005    2    1    2  501    0 -0.79369431707E+01  0.31152918003E+02 -0.80955873636E+03  0.81020922282E+03  0.44875111447E+01 0.  0.
         13    1    3    3    0    0 -0.50248855647E+01  0.11456406074E+02 -0.29322036137E+03  0.29348710200E+03  0.00000000000E+00 0.  1.
          3    1    3    3  501    0 -0.29120576060E+01  0.19696511929E+02 -0.51633837499E+03  0.51672212082E+03  0.00000000000E+00 0.  1.
         -3    1    1    2    0  502  0.79369431707E+01 -0.31152918003E+02 -0.18875698270E+03  0.19147505813E+03  0.00000000000E+00 0. -1.
<mgrwt>
<rscale>  1 0.30000000E+03</rscale>
<asrwt>0</asrwt>
<pdfrwt beam="1">  1       21 0.61246709E-02 0.30000000E+03</pdfrwt>
<pdfrwt beam="2">0</pdfrwt>
<totfact> 0.20337086E+04</totfact>
</mgrwt>
</event>
<event>
 6    1  0.1295671E-001  0.3000000E+03  0.7818608E-02  0.1093470E+00
         21   -1    0    0  501  502  0.00000000000E+00  0.00000000000E+00  0.12168361501E+01  0.12168361501E+01  0.00000000000E+00 0. -1.
         13   -1    0    0    0    0 -0.00000000000E+00 -0.00000000000E+00 -0.10000000000E+04  0.10000000000E+04  0.00000000000E+00 0.  1.
    9000005    2    1    2  501    0 -0.28522116569E+02  0.95590990327E+01 -0.25191784218E+03  0.25374596968E+03  0.44193226373E+01 0.  0.
         13    1    3    3    0    0 -0.21112287847E+02  0.58950395625E+01 -0.16856264979E+03  0.16998190225E+03  0.00000000000E+00 0.  1.
          1    1    3    3  501    0 -0.74098287213E+01  0.36640594702E+01 -0.83355192396E+02  0.83764067432E+02  0.00000000000E+00 0.  1.
         -1    1    1    2    0  502  0.28522116569E+02 -0.95590990327E+01 -0.74686532167E+03  0.74747086647E+03  0.00000000000E+00 0. -1.
<mgrwt>
<rscale>  1 0.30000000E+03</rscale>
<asrwt>0</asrwt>
<pdfrwt beam="1">  1       21 0.44248681E-02 0.30000000E+03</pdfrwt>
<pdfrwt beam="2">0</pdfrwt>
<totfact> 0.35456209E+04</totfact>
</mgrwt>
</event>
<event>
 6    1  0.1295671E-001  0.3000000E+03  0.7818608E-02  0.1093470E+00
         21   -1    0    0  501  502  0.00000000000E+00  0.00000000000E+00  0.12716853941E+01  0.12716853941E+01  0.00000000000E+00 0. -1.
         13   -1    0    0    0    0 -0.00000000000E+00 -0.00000000000E+00 -0.10000000000E+04  0.10000000000E+04  0.00000000000E+00 0.  1.
    9000005    2    1    2  501    0 -0.62332430563E+01 -0.31633916177E+02 -0.71096276582E+03  0.71170551154E+03  0.41379710310E+01 0.  0.
         13    1    3    3    0    0 -0.96521367321E+00 -0.14983140765E+02 -0.31394314200E+03  0.31430196078E+03  0.00000000000E+00 0.  1.
          3    1    3    3  501    0 -0.52680293831E+01 -0.16650775412E+02 -0.39701962382E+03  0.39740355075E+03  0.00000000000E+00 0.  1.
         -1    1    1    2    0  502  0.62332430563E+01  0.31633916177E+02 -0.28776554879E+03  0.28956617386E+03  0.00000000000E+00 0. -1.
<mgrwt>
<rscale>  1 0.30000000E+03</rscale>
<asrwt>0</asrwt>
<pdfrwt beam="1">  1       21 0.46243203E-02 0.30000000E+03</pdfrwt>
<pdfrwt beam="2">0</pdfrwt>
<totfact> 0.32899693E+04</totfact>
</mgrwt>
</event>
<event>
 6    1  0.1295671E-001  0.3000000E+03  0.7818608E-02  0.1093470E+00
         21   -1    0    0  501  502  0.00000000000E+00  0.00000000000E+00  0.35042366732E+01  0.35042366732E+01  0.00000000000E+00 0. -1.
         13   -1    0    0    0    0 -0.00000000000E+00 -0.00000000000E+00 -0.10000000000E+04  0.10000000000E+04  0.00000000000E+00 0.  1.
    9000005    2    1    2  501    0  0.37189650888E+02 -0.20287449692E+02 -0.84845167917E+03  0.84951819315E+03  0.40321020381E+01 0.  0.
         13    1    3    3    0    0  0.12501040289E+02 -0.66619844211E+01 -0.32284653260E+03  0.32315714700E+03  0.00000000000E+00 0.  1.
          3    1    3    3  501    0  0.24688610598E+02 -0.13625465271E+02 -0.52560514657E+03  0.52636104615E+03  0.00000000000E+00 0.  1.
         -3    1    1    2    0  502 -0.37189650888E+02  0.20287449692E+02 -0.14804408415E+03  0.15398604353E+03  0.00000000000E+00 0. -1.
<mgrwt>
<rscale>  1 0.30000000E+03</rscale>
<asrwt>0</asrwt>
<pdfrwt beam="1">  1       21 0.12742706E-01 0.30000000E+03</pdfrwt>
<pdfrwt beam="2">0</pdfrwt>
<totfact> 0.55555368E+03</totfact>
</mgrwt>
</event>
<event>
 6    1  0.1295671E-001  0.3000000E+03  0.7818608E-02  0.1093470E+00
         21   -1    0    0  501  502  0.00000000000E+00  0.00000000000E+00  0.23274472818E+01  0.23274472818E+01  0.00000000000E+00 0. -1.
         13   -1    0    0    0    0 -0.00000000000E+00 -0.00000000000E+00 -0.10000000000E+04  0.10000000000E+04  0.00000000000E+00 0.  1.
    9000005    2    1    2  501    0  0.13020892346E+02 -0.34498836129E+02 -0.82162508322E+03  0.82245964903E+03  0.35190299684E+01 0.  0.
         13    1    3    3    0    0  0.33734097353E+01 -0.90887570386E+01 -0.18334747770E+03  0.18360360284E+03  0.00000000000E+00 0.  1.
          3    1    3    3  501    0  0.96474826106E+01 -0.25410079091E+02 -0.63827760553E+03  0.63885604619E+03  0.00000000000E+00 0.  1.
         -1    1    1    2    0  502 -0.13020892346E+02  0.34498836129E+02 -0.17604746949E+03  0.17986779825E+03  0.00000000000E+00 0. -1.
<mgrwt>
<rscale>  1 0.30000000E+03</rscale>
<asrwt>0</asrwt>
<pdfrwt beam="1">  1       21 0.84634625E-02 0.30000000E+03</pdfrwt>
<pdfrwt beam="2">0</pdfrwt>
<totfact> 0.11568794E+04</totfact>
</mgrwt>
</event>
<event>
 6    1  0.1295671E-001  0.3000000E+03  0.7818608E-02  0.1093470E+00
         21   -1    0    0  501  502  0.00000000000E+00  0.00000000000E+00  0.11354430236E+01  0.11354430236E+01  0.00000000000E+00 0. -1.
         13   -1    0    0    0    0 -0.00000000000E+00 -0.00000000000E+00 -0.10000000000E+04  0.10000000000E+04  0.00000000000E+00 0.  1.
    9000005    2    1    2  501    0 -0.31224305558E+02 -0.96003932500E+01 -0.61660378414E+03  0.61748140191E+03  0.39912766388E+01 0.  0.
         13    1    3    3    0    0 -0.29872822332E+02 -0.94433494588E+01 -0.57248290660E+03  0.57333955097E+03  0.00000000000E+00 0.  1.
          3    1    3    3  501    0 -0.13514832259E+01 -0.15704379120E+00 -0.44120877539E+02  0.44141850941E+02  0.00000000000E+00 0.  1.
         -1    1    1    2    0  502  0.31224305558E+02  0.96003932500E+01 -0.38226077284E+03  0.38365404111E+03  0.00000000000E+00 0. -1.
<mgrwt>
<rscale>  1 0.30000000E+03</rscale>
<asrwt>0</asrwt>
<pdfrwt beam="1">  1       21 0.41288924E-02 0.30000000E+03</pdfrwt>
<pdfrwt beam="2">0</pdfrwt>
<totfact> 0.39858761E+04</totfact>
</mgrwt>
</event>
<event>
 6    1  0.1295671E-001  0.3000000E+03  0.7818608E-02  0.1093470E+00
         21   -1    0    0  501  502  0.00000000000E+00  0.00000000000E+00  0.17445187395E+01  0.17445187395E+01  0.00000000000E+00 0. -1.
         13   -1    0    0    0    0 -0.00000000000E+00 -0.00000000000E+00 -0.10000000000E+04  0.10000000000E+04  0.00000000000E+00 0.  1.
    9000005    2    1    2  501    0  0.34607261993E+02 -0.23149124207E+02 -0.52853616760E+03  0.53018351721E+03  0.32460637161E+01 0.  0.
         13    1    3    3    0    0  0.17045941934E+02 -0.99459100375E+01 -0.26382214299E+03  0.26455927199E+03  0.00000000000E+00 0.  1.
          3    1    3    3  501    0  0.17561320059E+02 -0.13203214170E+02 -0.26471402461E+03  0.26562424522E+03  0.00000000000E+00 0.  1.
         -1    1    1    2    0  502 -0.34607261993E+02  0.23149124207E+02 -0.46971931366E+03  0.47156100153E+03  0.00000000000E+00 0. -1.
<mgrwt>
<rscale>  1 0.30000000E+03</rscale>
<asrwt>0</asrwt>
<pdfrwt beam="1">  1       21 0.63437179E-02 0.30000000E+03</pdfrwt>
<pdfrwt beam="2">0</pdfrwt>
<totfact> 0.19139231E+04</totfact>
</mgrwt>
</event>
<event>
 6    1  0.1295671E-001  0.3000000E+03  0.7818608E-02  0.1093470E+00
         21   -1    0    0  501  502  0.00000000000E+00  0.00000000000E+00  0.31981633690E+01  0.31981633690E+01  0.00000000000E+00 0. -1.
         13   -1    0    0    0    0 -0.00000000000E+00 -0.00000000000E+00 -0.10000000000E+04  0.10000000000E+04  0.00000000000E+00 0.  1.
    9000005    2    1    2  501    0 -0.33026676199E+02  0.89524088277E+01 -0.89767511839E+03  0.89833151837E+03  0.28269685724E+01 0.  0.
         13    1    3    3    0    0 -0.17336269018E+02  0.47460131069E+01 -0.43445597057E+03  0.43482762243E+03  0.00000000000E+00 0.  1.
          3    1    3    3  501    0 -0.15690407181E+02  0.42063957208E+01 -0.46321914783E+03  0.46350389594E+03  0.00000000000E+00 0.  1.
         -1    1    1    2    0  502  0.33026676199E+02 -0.89524088277E+01 -0.99126718237E+02  0.10486664500E+03  0.00000000000E+00 0. -1.
<mgrwt>
<rscale>  1 0.30000000E+03</rscale>
<asrwt>0</asrwt>
<pdfrwt beam="1">  1       21 0.11629710E-01 0.30000000E+03</pdfrwt>
<pdfrwt beam="2">0</pdfrwt>
<totfact> 0.65592146E+03</totfact>
</mgrwt>
</event>
<event>
 6    1  0.1295671E-001  0.3000000E+03  0.7818608E-02  0.1093470E+00
         21   -1    0    0  501  502  0.00000000000E+00  0.00000000000E+00  0.21714138273E+01  0.21714138273E+01  0.00000000000E+00 0. -1.
         13   -1    0    0    0    0 -0.00000000000E+00 -0.00000000000E+00 -0.10000000000E+04  0.10000000000E+04  0.00000000000E+00 0.  1.
    9000005    2    1    2  501    0 -0.85945707159E+01  0.43901667474E+02 -0.63734457497E+03  0.63892226326E+03  0.35111531778E+01 0.  0.
         13    1    3    3    0    0 -0.20246383130E+01  0.18348639666E+02 -0.27363803875E+03  0.27426000071E+03  0.00000000000E+00 0.  1.
          3    1    3    3  501    0 -0.65699324029E+01  0.25553027809E+02 -0.36370653621E+03  0.36466226255E+03  0.00000000000E+00 0.  1.
         -3    1    1    2    0  502  0.85945707159E+01 -0.43901667474E+02 -0.36048401121E+03  0.36324915057E+03  0.00000000000E+00 0. -1.
<mgrwt>
<rscale>  1 0.30000000E+03</rscale>
<asrwt>0</asrwt>
<pdfrwt beam="1">  1       21 0.78960669E-02 0.30000000E+03</pdfrwt>
<pdfrwt beam="2">0</pdfrwt>
<totfact> 0.13070555E+04</totfact>
</mgrwt>
</event>
<event>
 6    1  0.1295671E-001  0.3000000E+03  0.7818608E-02  0.1093470E+00
         21   -1    0    0  501  502  0.00000000000E+00  0.00000000000E+00  0.15497033148E+01  0.15497033148E+01  0.00000000000E+00 0. -1.
         13   -1    0    0    0    0 -0.00000000000E+00 -0.00000000000E+00 -0.10000000000E+04  0.10000000000E+04  0.00000000000E+00 0.  1.
    9000005    2    1    2  501    0 -0.35747156657E+02  0.56270727758E+00 -0.70216929130E+03  0.70311946021E+03  0.75555165561E+01 0.  0.
         13    1    3    3    0    0 -0.10215763443E+02  0.78938125966E+00 -0.27217875441E+03  0.27237154642E+03  0.00000000000E+00 0.  1.
          3    1    3    3  501    0 -0.25531393213E+02 -0.22667398208E+00 -0.42999053689E+03  0.43074791379E+03  0.00000000000E+00 0.  1.
         -3    1    1    2    0  502  0.35747156657E+02 -0.56270727758E+00 -0.29628100538E+03  0.29843024311E+03  0.00000000000E+00 0. -1.
<mgrwt>
<rscale>  1 0.30000000E+03</rscale>
<asrwt>0</asrwt>
<pdfrwt beam="1">  1       21 0.56352967E-02 0.30000000E+03</pdfrwt>
<pdfrwt beam="2">0</pdfrwt>
<totfact> 0.23474373E+04</totfact>
</mgrwt>
</event>
<event>
 6    1  0.1295671E-001  0.3000000E+03  0.7818608E-02  0.1093470E+00
         21   -1    0    0  501  502  0.00000000000E+00  0.00000000000E+00  0.78854642522E+01  0.78854642522E+01  0.00000000000E+00 0. -1.
         13   -1    0    0    0    0 -0.00000000000E+00 -0.00000000000E+00 -0.10000000000E+04  0.10000000000E+04  0.00000000000E+00 0.  1.
    9000005    2    1    2  501    0 -0.33888247535E+01 -0.38639878355E+02 -0.94935995316E+03  0.95015783946E+03  0.33278942551E+01 0.  0.
         13    1    3    3    0    0 -0.26328573666E+01 -0.37119812977E+02 -0.91372537019E+03  0.91448283996E+03  0.00000000000E+00 0.  1.
          3    1    3    3  501    0 -0.75596738691E+00 -0.15200653781E+01 -0.35634582974E+02  0.35674999498E+02  0.00000000000E+00 0.  1.
         -1    1    1    2    0  502  0.33888247535E+01  0.38639878355E+02 -0.42754582587E+02  0.57727624797E+02  0.00000000000E+00 0. -1.
<mgrwt>
<rscale>  1 0.30000000E+03</rscale>
<asrwt>0</asrwt>
<pdfrwt beam="1">  1       21 0.28674476E-01 0.30000000E+03</pdfrwt>
<pdfrwt beam="2">0</pdfrwt>
<totfact> 0.11898168E+03</totfact>
</mgrwt>
</event>
<event>
 6    1  0.1295671E-001  0.3000000E+03  0.7818608E-02  0.1093470E+00
         21   -1    0    0  501  502  0.00000000000E+00  0.00000000000E+00  0.28878381975E+01  0.28878381975E+01  0.00000000000E+00 0. -1.
         13   -1    0    0    0    0 -0.00000000000E+00 -0.00000000000E+00 -0.10000000000E+04  0.10000000000E+04  0.00000000000E+00 0.  1.
    9000005    2    1    2  501    0 -0.61742469789E+01  0.50204551494E+02 -0.66718655871E+03  0.66910718883E+03  0.28120639373E+01 0.  0.
         13    1    3    3    0    0 -0.32572843233E+01  0.16658578710E+02 -0.23117016872E+03  0.23179250430E+03  0.00000000000E+00 0.  1.
          3    1    3    3  501    0 -0.29169626556E+01  0.33545972784E+02 -0.43601639000E+03  0.43731468453E+03  0.00000000000E+00 0.  1.
         -3    1    1    2    0  502  0.61742469789E+01 -0.50204551494E+02 -0.32992560309E+03  0.33378064936E+03  0.00000000000E+00 0. -1.
<mgrwt>
<rscale>  1 0.30000000E+03</rscale>
<asrwt>0</asrwt>
<pdfrwt beam="1">  1       21 0.10501252E-01 0.30000000E+03</pdfrwt>
<pdfrwt beam="2">0</pdfrwt>
<totfact> 0.78821840E+03</totfact>
</mgrwt>
</event>
<event>
 6    1  0.1295671E-001  0.3000000E+03  0.7818608E-02  0.1093470E+00
         21   -1    0    0  501  502  0.00000000000E+00  0.00000000000E+00  0.15244235668E+01  0.15244235668E+01  0.00000000000E+00 0. -1.
         13   -1    0    0    0    0 -0.00000000000E+00 -0.00000000000E+00 -0.10000000000E+04  0.10000000000E+04  0.00000000000E+00 0.  1.
    9000005    2    1    2  501    0 -0.29054221559E+02 -0.12815059071E+02 -0.78979064070E+03  0.79043729480E+03  0.36725117664E+01 0.  0.
         13    1    3    3    0    0 -0.28688403856E+02 -0.12054410943E+02 -0.77094967800E+03  0.77157743574E+03  0.00000000000E+00 0.  1.
          3    1    3    3  501    0 -0.36581770315E+00 -0.76064812731E+00 -0.18840962697E+02  0.18859859054E+02  0.00000000000E+00 0.  1.
         -1    1    1    2    0  502  0.29054221559E+02  0.12815059071E+02 -0.20868493573E+03  0.21108712877E+03  0.00000000000E+00 0. -1.
<mgrwt>
<rscale>  1 0.30000000E+03</rscale>
<asrwt>0</asrwt>
<pdfrwt beam="1">  1       21 0.55433701E-02 0.30000000E+03</pdfrwt>
<pdfrwt beam="2">0</pdfrwt>
<totfact> 0.24146646E+04</totfact>
</mgrwt>
</event>
<event>
 6    1  0.1295671E-001  0.3000000E+03  0.7818608E-02  0.1093470E+00
         21   -1    0    0  501  502  0.00000000000E+00  0.00000000000E+00  0.20977827339E+01  0.20977827339E+01  0.00000000000E+00 0. -1.
         13   -1    0    0    0    0 -0.00000000000E+00 -0.00000000000E+00 -0.10000000000E+04  0.10000000000E+04  0.00000000000E+00 0.  1.
    9000005    2    1    2  501    0 -0.26146577911E+02 -0.25126835976E+02 -0.80479643716E+03  0.80561662910E+03  0.24179320996E+01 0.  0.
         13    1    3    3    0    0 -0.62472277249E+00 -0.38698202333E+00 -0.10795466192E+02  0.10820449341E+02  0.00000000000E+00 0.  1.
          3    1    3    3  501    0 -0.25521855138E+02 -0.24739853953E+02 -0.79400097097E+03  0.79479617976E+03  0.00000000000E+00 0.  1.
         -3    1    1    2    0  502  0.26146577911E+02  0.25126835976E+02 -0.19310578010E+03  0.19648115363E+03  0.00000000000E+00 0. -1.
<mgrwt>
<rscale>  1 0.30000000E+03</rscale>
<asrwt>0</asrwt>
<pdfrwt beam="1">  1       21 0.76283169E-02 0.30000000E+03</pdfrwt>
<pdfrwt beam="2">0</pdfrwt>
<totfact> 0.13885685E+04</totfact>
</mgrwt>
</event>
<event>
 6    1  0.1295671E-001  0.3000000E+03  0.7818608E-02  0.1093470E+00
         21   -1    0    0  501  502  0.00000000000E+00  0.00000000000E+00  0.18298431379E+01  0.18298431379E+01  0.00000000000E+00 0. -1.
         13   -1    0    0    0    0 -0.00000000000E+00 -0.00000000000E+00 -0.10000000000E+04  0.10000000000E+04  0.00000000000E+00 0.  1.
    9000005    2    1    2  501    0  0.30314016628E+02  0.25950708417E+02 -0.67817667058E+03  0.67935781313E+03  0.33260903035E+01 0.  0.
         13    1    3    3    0    0  0.10594081428E+02  0.11027796244E+02 -0.26990476687E+03  0.27033762230E+03  0.00000000000E+00 0.  1.
          1    1    3    3  501    0  0.19719935200E+02  0.14922912173E+02 -0.40827190370E+03  0.40902019083E+03  0.00000000000E+00 0.  1.
         -3    1    1    2    0  502 -0.30314016628E+02 -0.25950708417E+02 -0.31999348629E+03  0.32247203001E+03  0.00000000000E+00 0. -1.
<mgrwt>
<rscale>  1 0.30000000E+03</rscale>
<asrwt>0</asrwt>
<pdfrwt beam="1">  1       21 0.66539891E-02 0.30000000E+03</pdfrwt>
<pdfrwt beam="2">0</pdfrwt>
<totfact> 0.17620511E+04</totfact>
</mgrwt>
</event>
<event>
 6    1  0.1295671E-001  0.3000000E+03  0.7818608E-02  0.1093470E+00
         21   -1    0    0  501  502  0.00000000000E+00  0.00000000000E+00  0.11451682613E+01  0.11451682613E+01  0.00000000000E+00 0. -1.
         13   -1    0    0    0    0 -0.00000000000E+00 -0.00000000000E+00 -0.10000000000E+04  0.10000000000E+04  0.00000000000E+00 0.  1.
    9000005    2    1    2  501    0 -0.29146011333E+02  0.90671448780E+01 -0.71337678346E+03  0.71403992773E+03  0.38574754305E+01 0.  0.
         13    1    3    3    0    0 -0.15073522925E+02  0.42455167029E+01 -0.40936825053E+03  0.40966767025E+03  0.00000000000E+00 0.  1.
          3    1    3    3  501    0 -0.14072488407E+02  0.48216281751E+01 -0.30400853293E+03  0.30437225748E+03  0.00000000000E+00 0.  1.
         -3    1    1    2    0  502  0.29146011333E+02 -0.90671448780E+01 -0.28547804828E+03  0.28710524053E+03  0.00000000000E+00 0. -1.
<mgrwt>
<rscale>  1 0.30000000E+03</rscale>
<asrwt>0</asrwt>
<pdfrwt beam="1">  1       21 0.41642570E-02 0.30000000E+03</pdfrwt>
<pdfrwt beam="2">0</pdfrwt>
<totfact> 0.39289271E+04</totfact>
</mgrwt>
</event>
<event>
 6    1  0.1295671E-001  0.3000000E+03  0.7818608E-02  0.1093470E+00
         21   -1    0    0  501  502  0.00000000000E+00  0.00000000000E+00  0.76002092904E+01  0.76002092904E+01  0.00000000000E+00 0. -1.
         13   -1    0    0    0    0 -0.00000000000E+00 -0.00000000000E+00 -0.10000000000E+04  0.10000000000E+04  0.00000000000E+00 0.  1.
    9000005    2    1    2  501    0 -0.59900449532E+02 -0.26407344662E+02 -0.82880668551E+03  0.83139545403E+03  0.35309114943E+01 0.  0.
         13    1    3    3    0    0 -0.37578038475E+02 -0.14689649751E+02 -0.51050021009E+03  0.51209213945E+03  0.00000000000E+00 0.  1.
          1    1    3    3  501    0 -0.22322411057E+02 -0.11717694911E+02 -0.31830647542E+03  0.31930331458E+03  0.00000000000E+00 0.  1.
         -1    1    1    2    0  502  0.59900449532E+02  0.26407344662E+02 -0.16359310520E+03  0.17620475526E+03  0.00000000000E+00 0. -1.
<mgrwt>
<rscale>  1 0.30000000E+03</rscale>
<asrwt>0</asrwt>
<pdfrwt beam="1">  1       21 0.27637183E-01 0.30000000E+03</pdfrwt>
<pdfrwt beam="2">0</pdfrwt>
<totfact> 0.12800537E+03</totfact>
</mgrwt>
</event>
<event>
 6    1  0.1295671E-001  0.3000000E+03  0.7818608E-02  0.1093470E+00
         21   -1    0    0  501  502  0.00000000000E+00  0.00000000000E+00  0.18005278854E+01  0.18005278854E+01  0.00000000000E+00 0. -1.
         13   -1    0    0    0    0 -0.00000000000E+00 -0.00000000000E+00 -0.10000000000E+04  0.10000000000E+04  0.00000000000E+00 0.  1.
    9000005    2    1    2  501    0  0.31106820121E+02  0.13061927026E+02 -0.80229376493E+03  0.80301095497E+03  0.36139102133E+01 0.  0.
         13    1    3    3    0    0  0.77535186293E+01  0.48914574574E+01 -0.23001626551E+03  0.23019888315E+03  0.00000000000E+00 0.  1.
          1    1    3    3  501    0  0.23353301492E+02  0.81704695687E+01 -0.57227749943E+03  0.57281207181E+03  0.00000000000E+00 0.  1.
         -3    1    1    2    0  502 -0.31106820121E+02 -0.13061927026E+02 -0.19590570718E+03  0.19878957292E+03  0.00000000000E+00 0. -1.
<mgrwt>
<rscale>  1 0.30000000E+03</rscale>
<asrwt>0</asrwt>
<pdfrwt beam="1">  1       21 0.65473879E-02 0.30000000E+03</pdfrwt>
<pdfrwt beam="2">0</pdfrwt>
<totfact> 0.18120655E+04</totfact>
</mgrwt>
</event>
<event>
 6    1  0.1295671E-001  0.3000000E+03  0.7818608E-02  0.1093470E+00
         21   -1    0    0  501  502  0.00000000000E+00  0.00000000000E+00  0.12561097371E+01  0.12561097371E+01  0.00000000000E+00 0. -1.
         13   -1    0    0    0    0 -0.00000000000E+00 -0.00000000000E+00 -0.10000000000E+04  0.10000000000E+04  0.00000000000E+00 0.  1.
    9000005    2    1    2  501    0  0.31041954982E+02 -0.28981743451E+01 -0.73545294091E+03  0.73612571466E+03  0.42470111912E+01 0.  0.
         13    1    3    3    0    0  0.28703313689E+02 -0.22776084958E+01 -0.64814698868E+03  0.64878624111E+03  0.00000000000E+00 0.  1.
          1    1    3    3  501    0  0.23386412930E+01 -0.62056584933E+00 -0.87305952227E+02  0.87339473546E+02  0.00000000000E+00 0.  1.
         -3    1    1    2    0  502 -0.31041954982E+02  0.28981743451E+01 -0.26329094936E+03  0.26513039508E+03  0.00000000000E+00 0. -1.
<mgrwt>
<rscale>  1 0.30000000E+03</rscale>
<asrwt>0</asrwt>
<pdfrwt beam="1">  1       21 0.45676814E-02 0.30000000E+03</pdfrwt>
<pdfrwt beam="2">0</pdfrwt>
<totfact> 0.33595772E+04</totfact>
</mgrwt>
</event>
<event>
 6    1  0.1295671E-001  0.3000000E+03  0.7818608E-02  0.1093470E+00
         21   -1    0    0  501  502  0.00000000000E+00  0.00000000000E+00  0.10089922579E+02  0.10089922579E+02  0.00000000000E+00 0. -1.
         13   -1    0    0    0    0 -0.00000000000E+00 -0.00000000000E+00 -0.10000000000E+04  0.10000000000E+04  0.00000000000E+00 0.  1.
    9000005    2    1    2  501    0  0.54265872949E+02 -0.10500551037E+02 -0.91663541733E+03  0.91830636005E+03  0.33220575724E+01 0.  0.
         13    1    3    3    0    0  0.29635617222E+01 -0.52836146659E+00 -0.38820382935E+02  0.38936923288E+02  0.00000000000E+00 0.  1.
          1    1    3    3  501    0  0.51302311227E+02 -0.99721895701E+01 -0.87781503440E+03  0.87936943676E+03  0.00000000000E+00 0.  1.
         -1    1    1    2    0  502 -0.54265872949E+02  0.10500551037E+02 -0.73274660088E+02  0.91783562526E+02  0.00000000000E+00 0. -1.
<mgrwt>
<rscale>  1 0.30000000E+03</rscale>
<asrwt>0</asrwt>
<pdfrwt beam="1">  1       21 0.36690705E-01 0.30000000E+03</pdfrwt>
<pdfrwt beam="2">0</pdfrwt>
<totfact> 0.72238209E+02</totfact>
</mgrwt>
</event>
<event>
 6    1  0.1295671E-001  0.3000000E+03  0.7818608E-02  0.1093470E+00
         21   -1    0    0  501  502  0.00000000000E+00  0.00000000000E+00  0.61174392157E+01  0.61174392157E+01  0.00000000000E+00 0. -1.
         13   -1    0    0    0    0 -0.00000000000E+00 -0.00000000000E+00 -0.10000000000E+04  0.10000000000E+04  0.00000000000E+00 0.  1.
    9000005    2    1    2  501    0  0.59793996846E+02 -0.24414047453E+02 -0.77988812285E+03  0.78258894609E+03  0.69718440223E+01 0.  0.
         13    1    3    3    0    0  0.64966680068E+01 -0.44925187573E+01 -0.78318394437E+02  0.78715693017E+02  0.00000000000E+00 0.  1.
          3    1    3    3  501    0  0.53297328839E+02 -0.19921528696E+02 -0.70156972841E+03  0.70387325307E+03  0.00000000000E+00 0.  1.
         -3    1    1    2    0  502 -0.59793996846E+02  0.24414047453E+02 -0.21399443793E+03  0.22352849313E+03  0.00000000000E+00 0. -1.
<mgrwt>
<rscale>  1 0.30000000E+03</rscale>
<asrwt>0</asrwt>
<pdfrwt beam="1">  1       21 0.22245280E-01 0.30000000E+03</pdfrwt>
<pdfrwt beam="2">0</pdfrwt>
<totfact> 0.19563563E+03</totfact>
</mgrwt>
</event>
<event>
 6    1  0.1295671E-001  0.3000000E+03  0.7818608E-02  0.1093470E+00
         21   -1    0    0  501  502  0.00000000000E+00  0.00000000000E+00  0.33874211411E+01  0.33874211411E+01  0.00000000000E+00 0. -1.
         13   -1    0    0    0    0 -0.00000000000E+00 -0.00000000000E+00 -0.10000000000E+04  0.10000000000E+04  0.00000000000E+00 0.  1.
    9000005    2    1    2  501    0 -0.28058559566E+01  0.51264628931E+02 -0.73414070747E+03  0.73594131764E+03  0.33331125942E+01 0.  0.
         13    1    3    3    0    0 -0.20801971882E+01  0.12130376734E+02 -0.17365986727E+03  0.17409544153E+03  0.00000000000E+00 0.  1.
          3    1    3    3  501    0 -0.72565876845E+00  0.39134252197E+02 -0.56048084020E+03  0.56184587611E+03  0.00000000000E+00 0.  1.
         -3    1    1    2    0  502  0.28058559566E+01 -0.51264628931E+02 -0.26247187139E+03  0.26744610350E+03  0.00000000000E+00 0. -1.
<mgrwt>
<rscale>  1 0.30000000E+03</rscale>
<asrwt>0</asrwt>
<pdfrwt beam="1">  1       21 0.12317921E-01 0.30000000E+03</pdfrwt>
<pdfrwt beam="2">0</pdfrwt>
<totfact> 0.59094697E+03</totfact>
</mgrwt>
</event>
<event>
 6    1  0.1295671E-001  0.3000000E+03  0.7818608E-02  0.1093470E+00
         21   -1    0    0  501  502  0.00000000000E+00  0.00000000000E+00  0.18244697148E+01  0.18244697148E+01  0.00000000000E+00 0. -1.
         13   -1    0    0    0    0 -0.00000000000E+00 -0.00000000000E+00 -0.10000000000E+04  0.10000000000E+04  0.00000000000E+00 0.  1.
    9000005    2    1    2  501    0 -0.83475045501E+01  0.37423466634E+02 -0.71878017379E+03  0.71981035319E+03  0.34365158990E+01 0.  0.
         13    1    3    3    0    0  0.84250089177E-01  0.45369079544E+01 -0.89858539786E+02  0.89973039319E+02  0.00000000000E+00 0.  1.
          3    1    3    3  501    0 -0.84317546393E+01  0.32886558680E+02 -0.62892163401E+03  0.62983731387E+03  0.00000000000E+00 0.  1.
         -1    1    1    2    0  502  0.83475045501E+01 -0.37423466634E+02 -0.27939535649E+03  0.28201411652E+03  0.00000000000E+00 0. -1.
<mgrwt>
<rscale>  1 0.30000000E+03</rscale>
<asrwt>0</asrwt>
<pdfrwt beam="1">  1       21 0.66344493E-02 0.30000000E+03</pdfrwt>
<pdfrwt beam="2">0</pdfrwt>
<totfact> 0.17710583E+04</totfact>
</mgrwt>
</event>
<event>
 6    1  0.1295671E-001  0.3000000E+03  0.7818608E-02  0.1093470E+00
         21   -1    0    0  501  502  0.00000000000E+00  0.00000000000E+00  0.20209005237E+01  0.20209005237E+01  0.00000000000E+00 0. -1.
         13   -1    0    0    0    0 -0.00000000000E+00 -0.00000000000E+00 -0.10000000000E+04  0.10000000000E+04  0.00000000000E+00 0.  1.
    9000005    2    1    2  501    0 -0.25630928571E+02 -0.36821224612E+02 -0.51037608713E+03  0.51235831799E+03  0.38142654920E+01 0.  0.
         13    1    3    3    0    0 -0.11089198713E+02 -0.18180262524E+02 -0.22591996258E+03  0.22692139997E+03  0.00000000000E+00 0.  1.
          1    1    3    3  501    0 -0.14541729857E+02 -0.18640962088E+02 -0.28445612455E+03  0.28543691802E+03  0.00000000000E+00 0.  1.
         -1    1    1    2    0  502  0.25630928571E+02  0.36821224612E+02 -0.48760301235E+03  0.48966258253E+03  0.00000000000E+00 0. -1.
<mgrwt>
<rscale>  1 0.30000000E+03</rscale>
<asrwt>0</asrwt>
<pdfrwt beam="1">  1       21 0.73487447E-02 0.30000000E+03</pdfrwt>
<pdfrwt beam="2">0</pdfrwt>
<totfact> 0.14823546E+04</totfact>
</mgrwt>
</event>
<event>
 6    1  0.1295671E-001  0.3000000E+03  0.7818608E-02  0.1093470E+00
         21   -1    0    0  501  502  0.00000000000E+00  0.00000000000E+00  0.33504531074E+01  0.33504531074E+01  0.00000000000E+00 0. -1.
         13   -1    0    0    0    0 -0.00000000000E+00 -0.00000000000E+00 -0.10000000000E+04  0.10000000000E+04  0.00000000000E+00 0.  1.
    9000005    2    1    2  501    0 -0.20636244610E+02 -0.42747424451E+02 -0.78505483404E+03  0.78649677111E+03  0.35890984346E+01 0.  0.
         13    1    3    3    0    0 -0.15942633042E+02 -0.30641175696E+02 -0.54985130748E+03  0.55093512280E+03  0.00000000000E+00 0.  1.
          3    1    3    3  501    0 -0.46936115684E+01 -0.12106248755E+02 -0.23520352656E+03  0.23556164831E+03  0.00000000000E+00 0.  1.
         -1    1    1    2    0  502  0.20636244610E+02  0.42747424451E+02 -0.21159471285E+03  0.21685368199E+03  0.00000000000E+00 0. -1.
<mgrwt>
<rscale>  1 0.30000000E+03</rscale>
<asrwt>0</asrwt>
<pdfrwt beam="1">  1       21 0.12183492E-01 0.30000000E+03</pdfrwt>
<pdfrwt beam="2">0</pdfrwt>
<totfact> 0.60286193E+03</totfact>
</mgrwt>
</event>
<event>
 6    1  0.1295671E-001  0.3000000E+03  0.7818608E-02  0.1093470E+00
         21   -1    0    0  501  502  0.00000000000E+00  0.00000000000E+00  0.10231380916E+01  0.10231380916E+01  0.00000000000E+00 0. -1.
         13   -1    0    0    0    0 -0.00000000000E+00 -0.00000000000E+00 -0.10000000000E+04  0.10000000000E+04  0.00000000000E+00 0.  1.
    9000005    2    1    2  501    0  0.25134223865E+02  0.19079877269E+02 -0.45373596594E+03  0.45486985781E+03  0.58728043343E+01 0.  0.
         13    1    3    3    0    0  0.24814395167E+02  0.19506203898E+02 -0.44565008537E+03  0.44676643203E+03  0.00000000000E+00 0.  1.
          1    1    3    3  501    0  0.31982869872E+00 -0.42632662873E+00 -0.80858805695E+01  0.81034257802E+01  0.00000000000E+00 0.  1.
         -3    1    1    2    0  502 -0.25134223865E+02 -0.19079877269E+02 -0.54524089597E+03  0.54615328028E+03  0.00000000000E+00 0. -1.
<mgrwt>
<rscale>  1 0.30000000E+03</rscale>
<asrwt>0</asrwt>
<pdfrwt beam="1">  1       21 0.37205100E-02 0.30000000E+03</pdfrwt>
<pdfrwt beam="2">0</pdfrwt>
<totfact> 0.47492687E+04</totfact>
</mgrwt>
</event>
<event>
 6    1  0.1295671E-001  0.3000000E+03  0.7818608E-02  0.1093470E+00
         21   -1    0    0  501  502  0.00000000000E+00  0.00000000000E+00  0.16354165654E+01  0.16354165654E+01  0.00000000000E+00 0. -1.
         13   -1    0    0    0    0 -0.00000000000E+00 -0.00000000000E+00 -0.10000000000E+04  0.10000000000E+04  0.00000000000E+00 0.  1.
    9000005    2    1    2  501    0  0.24633704419E+02  0.17939136279E+02 -0.82806966607E+03  0.82863544291E+03  0.29484540012E+01 0.  0.
         13    1    3    3    0    0  0.12479193344E+02  0.81407966001E+01 -0.43852039452E+03  0.43877344865E+03  0.00000000000E+00 0.  1.
          3    1    3    3  501    0  0.12154511075E+02  0.97983396792E+01 -0.38954927155E+03  0.38986199425E+03  0.00000000000E+00 0.  1.
         -3    1    1    2    0  502 -0.24633704419E+02 -0.17939136279E+02 -0.17029491737E+03  0.17299997366E+03  0.00000000000E+00 0. -1.
<mgrwt>
<rscale>  1 0.30000000E+03</rscale>
<asrwt>0</asrwt>
<pdfrwt beam="1">  1       21 0.59469819E-02 0.30000000E+03</pdfrwt>
<pdfrwt beam="2">0</pdfrwt>
<totfact> 0.21396640E+04</totfact>
</mgrwt>
</event>
<event>
 6    1  0.1295671E-001  0.3000000E+03  0.7818608E-02  0.1093470E+00
         21   -1    0    0  501  502  0.00000000000E+00  0.00000000000E+00  0.10749365257E+01  0.10749365257E+01  0.00000000000E+00 0. -1.
         13   -1    0    0    0    0 -0.00000000000E+00 -0.00000000000E+00 -0.10000000000E+04  0.10000000000E+04  0.00000000000E+00 0.  1.
    9000005    2    1    2  501    0  0.30963045587E+02 -0.54116997179E+01 -0.62777501768E+03  0.62859627515E+03  0.66187329219E+01 0.  0.
         13    1    3    3    0    0  0.26564070588E+02 -0.67105437148E+01 -0.51548145396E+03  0.51620907646E+03  0.00000000000E+00 0.  1.
          1    1    3    3  501    0  0.43989749994E+01  0.12988439969E+01 -0.11229356372E+03  0.11238719869E+03  0.00000000000E+00 0.  1.
         -3    1    1    2    0  502 -0.30963045587E+02  0.54116997179E+01 -0.37115004580E+03  0.37247866138E+03  0.00000000000E+00 0. -1.
<mgrwt>
<rscale>  1 0.30000000E+03</rscale>
<asrwt>0</asrwt>
<pdfrwt beam="1">  1       21 0.39088683E-02 0.30000000E+03</pdfrwt>
<pdfrwt beam="2">0</pdfrwt>
<totfact> 0.43710348E+04</totfact>
</mgrwt>
</event>
<event>
 6    1  0.1295671E-001  0.3000000E+03  0.7818608E-02  0.1093470E+00
         21   -1    0    0  501  502  0.00000000000E+00  0.00000000000E+00  0.17187155741E+01  0.17187155741E+01  0.00000000000E+00 0. -1.
         13   -1    0    0    0    0 -0.00000000000E+00 -0.00000000000E+00 -0.10000000000E+04  0.10000000000E+04  0.00000000000E+00 0.  1.
    9000005    2    1    2  501    0  0.20895554537E+02  0.34883185855E+02 -0.59362839849E+03  0.59502790064E+03  0.31727263405E+01 0.  0.
         13    1    3    3    0    0  0.17692152090E+01  0.29042657307E+01 -0.38245019225E+02  0.38395916156E+02  0.00000000000E+00 0.  1.
          1    1    3    3  501    0  0.19126339328E+02  0.31978920124E+02 -0.55538337926E+03  0.55663198449E+03  0.00000000000E+00 0.  1.
         -3    1    1    2    0  502 -0.20895554537E+02 -0.34883185855E+02 -0.40465288594E+03  0.40669081493E+03  0.00000000000E+00 0. -1.
<mgrwt>
<rscale>  1 0.30000000E+03</rscale>
<asrwt>0</asrwt>
<pdfrwt beam="1">  1       21 0.62498880E-02 0.30000000E+03</pdfrwt>
<pdfrwt beam="2">0</pdfrwt>
<totfact> 0.19638575E+04</totfact>
</mgrwt>
</event>
<event>
 6    1  0.1295671E-001  0.3000000E+03  0.7818608E-02  0.1093470E+00
         21   -1    0    0  501  502  0.00000000000E+00  0.00000000000E+00  0.42918488516E+01  0.42918488516E+01  0.00000000000E+00 0. -1.
         13   -1    0    0    0    0 -0.00000000000E+00 -0.00000000000E+00 -0.10000000000E+04  0.10000000000E+04  0.00000000000E+00 0.  1.
    9000005    2    1    2  501    0 -0.64146082963E+02 -0.96346734782E+01 -0.56574482898E+03  0.56946314085E+03  0.36756463486E+01 0.  0.
         13    1    3    3    0    0 -0.54749999094E+02 -0.70098576468E+01 -0.48531140380E+03  0.48844023090E+03  0.00000000000E+00 0.  1.
          1    1    3    3  501    0 -0.93960838690E+01 -0.26248158314E+01 -0.80433425185E+02  0.81022909953E+02  0.00000000000E+00 0.  1.
         -1    1    1    2    0  502  0.64146082963E+02  0.96346734782E+01 -0.42996332216E+03  0.43482870800E+03  0.00000000000E+00 0. -1.
<mgrwt>
<rscale>  1 0.30000000E+03</rscale>
<asrwt>0</asrwt>
<pdfrwt beam="1">  1       21 0.15606756E-01 0.30000000E+03</pdfrwt>
<pdfrwt beam="2">0</pdfrwt>
<totfact> 0.38259206E+03</totfact>
</mgrwt>
</event>
<event>
 6    1  0.1295671E-001  0.3000000E+03  0.7818608E-02  0.1093470E+00
         21   -1    0    0  501  502  0.00000000000E+00  0.00000000000E+00  0.25667539986E+01  0.25667539986E+01  0.00000000000E+00 0. -1.
         13   -1    0    0    0    0 -0.00000000000E+00 -0.00000000000E+00 -0.10000000000E+04  0.10000000000E+04  0.00000000000E+00 0.  1.
    9000005    2    1    2  501    0 -0.34609455799E+02 -0.18481760289E+02 -0.81556109750E+03  0.81651066489E+03  0.32205945056E+01 0.  0.
         13    1    3    3    0    0 -0.82617991997E+01 -0.38081853757E+01 -0.21620122796E+03  0.21639253817E+03  0.00000000000E+00 0.  1.
          3    1    3    3  501    0 -0.26347656599E+02 -0.14673574914E+02 -0.59935986953E+03  0.60011812672E+03  0.00000000000E+00 0.  1.
         -1    1    1    2    0  502  0.34609455799E+02  0.18481760289E+02 -0.18187214851E+03  0.18605608911E+03  0.00000000000E+00 0. -1.
<mgrwt>
<rscale>  1 0.30000000E+03</rscale>
<asrwt>0</asrwt>
<pdfrwt beam="1">  1       21 0.93336706E-02 0.30000000E+03</pdfrwt>
<pdfrwt beam="2">0</pdfrwt>
<totfact> 0.97287890E+03</totfact>
</mgrwt>
</event>
<event>
 6    1  0.1295671E-001  0.3000000E+03  0.7818608E-02  0.1093470E+00
         21   -1    0    0  501  502  0.00000000000E+00  0.00000000000E+00  0.42917804664E+01  0.42917804664E+01  0.00000000000E+00 0. -1.
         13   -1    0    0    0    0 -0.00000000000E+00 -0.00000000000E+00 -0.10000000000E+04  0.10000000000E+04  0.00000000000E+00 0.  1.
    9000005    2    1    2  501    0  0.38945508168E+02  0.42299414256E+02 -0.25835800242E+03  0.26470315445E+03  0.35929805683E+01 0.  0.
         13    1    3    3    0    0  0.17681828684E+02  0.17493733113E+02 -0.10550349222E+03  0.10839587001E+03  0.00000000000E+00 0.  1.
          1    1    3    3  501    0  0.21263679484E+02  0.24805681143E+02 -0.15285451020E+03  0.15630728445E+03  0.00000000000E+00 0.  1.
         -1    1    1    2    0  502 -0.38945508168E+02 -0.42299414256E+02 -0.73735021711E+03  0.73958862601E+03  0.00000000000E+00 0. -1.
<mgrwt>
<rscale>  1 0.30000000E+03</rscale>
<asrwt>0</asrwt>
<pdfrwt beam="1">  1       21 0.15606507E-01 0.30000000E+03</pdfrwt>
<pdfrwt beam="2">0</pdfrwt>
<totfact> 0.38260340E+03</totfact>
</mgrwt>
</event>
<event>
 6    1  0.1295671E-001  0.3000000E+03  0.7818608E-02  0.1093470E+00
         21   -1    0    0  501  502  0.00000000000E+00  0.00000000000E+00  0.11413038752E+01  0.11413038752E+01  0.00000000000E+00 0. -1.
         13   -1    0    0    0    0 -0.00000000000E+00 -0.00000000000E+00 -0.10000000000E+04  0.10000000000E+04  0.00000000000E+00 0.  1.
    9000005    2    1    2  501    0  0.32252731029E+02 -0.87974475084E+01 -0.43573608783E+03  0.43702721461E+03  0.30355107826E+01 0.  0.
         13    1    3    3    0    0  0.14604225815E+02 -0.40845895198E+01 -0.17818175257E+03  0.17882590482E+03  0.00000000000E+00 0.  1.
          1    1    3    3  501    0  0.17648505214E+02 -0.47128579886E+01 -0.25755433526E+03  0.25820130979E+03  0.00000000000E+00 0.  1.
         -3    1    1    2    0  502 -0.32252731029E+02  0.87974475084E+01 -0.56312260829E+03  0.56411408927E+03  0.00000000000E+00 0. -1.
<mgrwt>
<rscale>  1 0.30000000E+03</rscale>
<asrwt>0</asrwt>
<pdfrwt beam="1">  1       21 0.41502047E-02 0.30000000E+03</pdfrwt>
<pdfrwt beam="2">0</pdfrwt>
<totfact> 0.39514034E+04</totfact>
</mgrwt>
</event>
<event>
 6    1  0.1295671E-001  0.3000000E+03  0.7818608E-02  0.1093470E+00
         21   -1    0    0  501  502  0.00000000000E+00  0.00000000000E+00  0.20182003804E+01  0.20182003804E+01  0.00000000000E+00 0. -1.
         13   -1    0    0    0    0 -0.00000000000E+00 -0.00000000000E+00 -0.10000000000E+04  0.10000000000E+04  0.00000000000E+00 0.  1.
    9000005    2    1    2  501    0 -0.39363627190E+02 -0.20890313888E+02 -0.43963439374E+03  0.44189524422E+03  0.26657737163E+01 0.  0.
         13    1    3    3    0    0 -0.16232102063E+02 -0.96236889153E+01 -0.17648170523E+03  0.17748771453E+03  0.00000000000E+00 0.  1.
          1    1    3    3  501    0 -0.23131525128E+02 -0.11266624973E+02 -0.26315268850E+03  0.26440752970E+03  0.00000000000E+00 0.  1.
         -3    1    1    2    0  502  0.39363627190E+02  0.20890313888E+02 -0.55834740588E+03  0.56012295616E+03  0.00000000000E+00 0. -1.
<mgrwt>
<rscale>  1 0.30000000E+03</rscale>
<asrwt>0</asrwt>
<pdfrwt beam="1">  1       21 0.73389259E-02 0.30000000E+03</pdfrwt>
<pdfrwt beam="2">0</pdfrwt>
<totfact> 0.14858226E+04</totfact>
</mgrwt>
</event>
<event>
 6    1  0.1295671E-001  0.3000000E+03  0.7818608E-02  0.1093470E+00
         21   -1    0    0  501  502  0.00000000000E+00  0.00000000000E+00  0.21619070528E+01  0.21619070528E+01  0.00000000000E+00 0. -1.
         13   -1    0    0    0    0 -0.00000000000E+00 -0.00000000000E+00 -0.10000000000E+04  0.10000000000E+04  0.00000000000E+00 0.  1.
    9000005    2    1    2  501    0  0.37380350961E+02  0.20293155976E+02 -0.70058034286E+03  0.70187658805E+03  0.29707311368E+01 0.  0.
         13    1    3    3    0    0  0.12231426390E+02  0.75196548489E+01 -0.25601480514E+03  0.25641710835E+03  0.00000000000E+00 0.  1.
          3    1    3    3  501    0  0.25148924571E+02  0.12773501127E+02 -0.44456553771E+03  0.44545947971E+03  0.00000000000E+00 0.  1.
         -3    1    1    2    0  502 -0.37380350961E+02 -0.20293155976E+02 -0.29725775009E+03  0.30028531900E+03  0.00000000000E+00 0. -1.
<mgrwt>
<rscale>  1 0.30000000E+03</rscale>
<asrwt>0</asrwt>
<pdfrwt beam="1">  1       21 0.78614968E-02 0.30000000E+03</pdfrwt>
<pdfrwt beam="2">0</pdfrwt>
<totfact> 0.13171593E+04</totfact>
</mgrwt>
</event>
<event>
 6    1  0.1295671E-001  0.3000000E+03  0.7818608E-02  0.1093470E+00
         21   -1    0    0  501  502  0.00000000000E+00  0.00000000000E+00  0.48172419965E+01  0.48172419965E+01  0.00000000000E+00 0. -1.
         13   -1    0    0    0    0 -0.00000000000E+00 -0.00000000000E+00 -0.10000000000E+04  0.10000000000E+04  0.00000000000E+00 0.  1.
    9000005    2    1    2  501    0 -0.43504653039E+02 -0.43967604547E+02 -0.72510526768E+03  0.72774747486E+03  0.35962273928E+01 0.  0.
         13    1    3    3    0    0 -0.38413917396E+02 -0.38651863464E+02 -0.62426693265E+03  0.62664088503E+03  0.00000000000E+00 0.  1.
          1    1    3    3  501    0 -0.50907356432E+01 -0.53157410834E+01 -0.10083833504E+03  0.10110658982E+03  0.00000000000E+00 0.  1.
         -3    1    1    2    0  502  0.43504653039E+02  0.43967604547E+02 -0.27007749032E+03  0.27706976714E+03  0.00000000000E+00 0. -1.
<mgrwt>
<rscale>  1 0.30000000E+03</rscale>
<asrwt>0</asrwt>
<pdfrwt beam="1">  1       21 0.17517281E-01 0.30000000E+03</pdfrwt>
<pdfrwt beam="2">0</pdfrwt>
<totfact> 0.30832241E+03</totfact>
</mgrwt>
</event>
<event>
 6    1  0.1295671E-001  0.3000000E+03  0.7818608E-02  0.1093470E+00
         21   -1    0    0  501  502  0.00000000000E+00  0.00000000000E+00  0.11482396278E+01  0.11482396278E+01  0.00000000000E+00 0. -1.
         13   -1    0    0    0    0 -0.00000000000E+00 -0.00000000000E+00 -0.10000000000E+04  0.10000000000E+04  0.00000000000E+00 0.  1.
    9000005    2    1    2  501    0 -0.12613784519E+02  0.27610616733E+02 -0.72023913578E+03  0.72088684682E+03  0.34611403974E+01 0.  0.
         13    1    3    3    0    0 -0.47074505207E+01  0.14236565978E+02 -0.36716890750E+03  0.36747496042E+03  0.00000000000E+00 0.  1.
          3    1    3    3  501    0 -0.79063339987E+01  0.13374050755E+02 -0.35307022828E+03  0.35341188640E+03  0.00000000000E+00 0.  1.
         -1    1    1    2    0  502  0.12613784519E+02 -0.27610616733E+02 -0.27861262459E+03  0.28026139280E+03  0.00000000000E+00 0. -1.
<mgrwt>
<rscale>  1 0.30000000E+03</rscale>
<asrwt>0</asrwt>
<pdfrwt beam="1">  1       21 0.41754256E-02 0.30000000E+03</pdfrwt>
<pdfrwt beam="2">0</pdfrwt>
<totfact> 0.39112048E+04</totfact>
</mgrwt>
</event>
<event>
 6    1  0.1295671E-001  0.3000000E+03  0.7818608E-02  0.1093470E+00
         21   -1    0    0  501  502  0.00000000000E+00  0.00000000000E+00  0.11364935976E+01  0.11364935976E+01  0.00000000000E+00 0. -1.
         13   -1    0    0    0    0 -0.00000000000E+00 -0.00000000000E+00 -0.10000000000E+04  0.10000000000E+04  0.00000000000E+00 0.  1.
    9000005    2    1    2  501    0  0.11401242776E+02  0.31629824600E+02 -0.49286036203E+03  0.49401755661E+03  0.34022982494E+01 0.  0.
         13    1    3    3    0    0  0.99753885317E+01  0.24649725732E+02 -0.37437930204E+03  0.37532250019E+03  0.00000000000E+00 0.  1.
          1    1    3    3  501    0  0.14258542438E+01  0.69800988679E+01 -0.11848105999E+03  0.11869505642E+03  0.00000000000E+00 0.  1.
         -1    1    1    2    0  502 -0.11401242776E+02 -0.31629824600E+02 -0.50600314437E+03  0.50711893699E+03  0.00000000000E+00 0. -1.
<mgrwt>
<rscale>  1 0.30000000E+03</rscale>
<asrwt>0</asrwt>
<pdfrwt beam="1">  1       21 0.41327127E-02 0.30000000E+03</pdfrwt>
<pdfrwt beam="2">0</pdfrwt>
<totfact> 0.39796624E+04</totfact>
</mgrwt>
</event>
<event>
 6    1  0.1295671E-001  0.3000000E+03  0.7818608E-02  0.1093470E+00
         21   -1    0    0  501  502  0.00000000000E+00  0.00000000000E+00  0.23533565033E+01  0.23533565033E+01  0.00000000000E+00 0. -1.
         13   -1    0    0    0    0 -0.00000000000E+00 -0.00000000000E+00 -0.10000000000E+04  0.10000000000E+04  0.00000000000E+00 0.  1.
    9000005    2    1    2  501    0 -0.46547093249E+02 -0.13348074560E+02 -0.51273747571E+03  0.51503241094E+03  0.37232154520E+01 0.  0.
         13    1    3    3    0    0 -0.42697763994E+02 -0.13069351276E+02 -0.46491483346E+03  0.46705428953E+03  0.00000000000E+00 0.  1.
          3    1    3    3  501    0 -0.38493292554E+01 -0.27872328356E+00 -0.47822642249E+02  0.47978121411E+02  0.00000000000E+00 0.  1.
         -1    1    1    2    0  502  0.46547093249E+02  0.13348074560E+02 -0.48490916779E+03  0.48732094557E+03  0.00000000000E+00 0. -1.
<mgrwt>
<rscale>  1 0.30000000E+03</rscale>
<asrwt>0</asrwt>
<pdfrwt beam="1">  1       21 0.85576781E-02 0.30000000E+03</pdfrwt>
<pdfrwt beam="2">0</pdfrwt>
<totfact> 0.11345124E+04</totfact>
</mgrwt>
</event>
<event>
 6    1  0.1295671E-001  0.3000000E+03  0.7818608E-02  0.1093470E+00
         21   -1    0    0  501  502  0.00000000000E+00  0.00000000000E+00  0.15045073910E+01  0.15045073910E+01  0.00000000000E+00 0. -1.
         13   -1    0    0    0    0 -0.00000000000E+00 -0.00000000000E+00 -0.10000000000E+04  0.10000000000E+04  0.00000000000E+00 0.  1.
    9000005    2    1    2  501    0 -0.28399540852E+02 -0.14417824831E+02 -0.78391815502E+03  0.78457631328E+03  0.42320203745E+01 0.  0.
         13    1    3    3    0    0 -0.11501599069E+02 -0.36227411776E+01 -0.28135301736E+03  0.28161131265E+03  0.00000000000E+00 0.  1.
          1    1    3    3  501    0 -0.16897941783E+02 -0.10795083654E+02 -0.50256513767E+03  0.50296500064E+03  0.00000000000E+00 0.  1.
         -1    1    1    2    0  502  0.28399540852E+02  0.14417824831E+02 -0.21457733758E+03  0.21692819411E+03  0.00000000000E+00 0. -1.
<mgrwt>
<rscale>  1 0.30000000E+03</rscale>
<asrwt>0</asrwt>
<pdfrwt beam="1">  1       21 0.54709475E-02 0.30000000E+03</pdfrwt>
<pdfrwt beam="2">0</pdfrwt>
<totfact> 0.24697377E+04</totfact>
</mgrwt>
</event>
<event>
 6    1  0.1295671E-001  0.3000000E+03  0.7818608E-02  0.1093470E+00
         21   -1    0    0  501  502  0.00000000000E+00  0.00000000000E+00  0.37320449761E+01  0.37320449761E+01  0.00000000000E+00 0. -1.
         13   -1    0    0    0    0 -0.00000000000E+00 -0.00000000000E+00 -0.10000000000E+04  0.10000000000E+04  0.00000000000E+00 0.  1.
    9000005    2    1    2  501    0 -0.44400074920E+02  0.31666612712E+02 -0.72385891182E+03  0.72591766840E+03  0.32551589064E+01 0.  0.
         13    1    3    3    0    0 -0.41656424260E+02  0.29188467107E+02 -0.66467504407E+03  0.66661843546E+03  0.00000000000E+00 0.  1.
          1    1    3    3  501    0 -0.27436506597E+01  0.24781456044E+01 -0.59183867754E+02  0.59299232937E+02  0.00000000000E+00 0.  1.
         -1    1    1    2    0  502  0.44400074920E+02 -0.31666612712E+02 -0.27240904320E+03  0.27781437657E+03  0.00000000000E+00 0. -1.
<mgrwt>
<rscale>  1 0.30000000E+03</rscale>
<asrwt>0</asrwt>
<pdfrwt beam="1">  1       21 0.13571101E-01 0.30000000E+03</pdfrwt>
<pdfrwt beam="2">0</pdfrwt>
<totfact> 0.49514256E+03</totfact>
</mgrwt>
</event>
<event>
 6    1  0.1295671E-001  0.3000000E+03  0.7818608E-02  0.1093470E+00
         21   -1    0    0  501  502  0.00000000000E+00  0.00000000000E+00  0.19625719911E+01  0.19625719911E+01  0.00000000000E+00 0. -1.
         13   -1    0    0    0    0 -0.00000000000E+00 -0.00000000000E+00 -0.10000000000E+04  0.10000000000E+04  0.00000000000E+00 0.  1.
    9000005    2    1    2  501    0  0.27906422884E+02  0.13165729949E+02 -0.85820530247E+03  0.85876645397E+03  0.33728912606E+01 0.  0.
         13    1    3    3    0    0  0.25697212387E+02  0.11872888286E+02 -0.75779047576E+03  0.75831900764E+03  0.00000000000E+00 0.  1.
          1    1    3    3  501    0  0.22092104974E+01  0.12928416622E+01 -0.10041482671E+03  0.10044744633E+03  0.00000000000E+00 0.  1.
         -1    1    1    2    0  502 -0.27906422884E+02 -0.13165729949E+02 -0.13983212554E+03  0.14319611802E+03  0.00000000000E+00 0. -1.
<mgrwt>
<rscale>  1 0.30000000E+03</rscale>
<asrwt>0</asrwt>
<pdfrwt beam="1">  1       21 0.71366405E-02 0.30000000E+03</pdfrwt>
<pdfrwt beam="2">0</pdfrwt>
<totfact> 0.15601039E+04</totfact>
</mgrwt>
</event>
<event>
 6    1  0.1295671E-001  0.3000000E+03  0.7818608E-02  0.1093470E+00
         21   -1    0    0  501  502  0.00000000000E+00  0.00000000000E+00  0.21026669812E+01  0.21026669812E+01  0.00000000000E+00 0. -1.
         13   -1    0    0    0    0 -0.00000000000E+00 -0.00000000000E+00 -0.10000000000E+04  0.10000000000E+04  0.00000000000E+00 0.  1.
    9000005    2    1    2  501    0 -0.18694149367E+02  0.26433678614E+02 -0.85344246960E+03  0.85406409718E+03  0.36362861220E+01 0.  0.
         13    1    3    3    0    0 -0.47416007110E+01  0.76743204891E+01 -0.19951694201E+03  0.19972077538E+03  0.00000000000E+00 0.  1.
          1    1    3    3  501    0 -0.13952548656E+02  0.18759358125E+02 -0.65392552760E+03  0.65434332179E+03  0.00000000000E+00 0.  1.
         -3    1    1    2    0  502  0.18694149367E+02 -0.26433678614E+02 -0.14445486341E+03  0.14803856980E+03  0.00000000000E+00 0. -1.
<mgrwt>
<rscale>  1 0.30000000E+03</rscale>
<asrwt>0</asrwt>
<pdfrwt beam="1">  1       21 0.76460779E-02 0.30000000E+03</pdfrwt>
<pdfrwt beam="2">0</pdfrwt>
<totfact> 0.13829216E+04</totfact>
</mgrwt>
</event>
<event>
 6    1  0.1295671E-001  0.3000000E+03  0.7818608E-02  0.1093470E+00
         21   -1    0    0  501  502  0.00000000000E+00  0.00000000000E+00  0.98450701403E+00  0.98450701403E+00  0.00000000000E+00 0. -1.
         13   -1    0    0    0    0 -0.00000000000E+00 -0.00000000000E+00 -0.10000000000E+04  0.10000000000E+04  0.00000000000E+00 0.  1.
    9000005    2    1    2  501    0  0.23346062808E+02 -0.19076427366E+02 -0.63339960706E+03  0.63412768921E+03  0.37303171631E+01 0.  0.
         13    1    3    3    0    0  0.18990764601E+02 -0.16411072257E+02 -0.54940102309E+03  0.54997405085E+03  0.00000000000E+00 0.  1.
          3    1    3    3  501    0  0.43552982078E+01 -0.26653551097E+01 -0.83998583968E+02  0.84153638358E+02  0.00000000000E+00 0.  1.
         -3    1    1    2    0  502 -0.23346062808E+02  0.19076427366E+02 -0.36561588593E+03  0.36685681781E+03  0.00000000000E+00 0. -1.
<mgrwt>
<rscale>  1 0.30000000E+03</rscale>
<asrwt>0</asrwt>
<pdfrwt beam="1">  1       21 0.35800331E-02 0.30000000E+03</pdfrwt>
<pdfrwt beam="2">0</pdfrwt>
<totfact> 0.50660581E+04</totfact>
</mgrwt>
</event>
<event>
 6    1  0.1295671E-001  0.3000000E+03  0.7818608E-02  0.1093470E+00
         21   -1    0    0  501  502  0.00000000000E+00  0.00000000000E+00  0.18478216541E+01  0.18478216541E+01  0.00000000000E+00 0. -1.
         13   -1    0    0    0    0 -0.00000000000E+00 -0.00000000000E+00 -0.10000000000E+04  0.10000000000E+04  0.00000000000E+00 0.  1.
    9000005    2    1    2  501    0  0.57780647341E+01  0.38504768561E+02 -0.71052935878E+03  0.71160156488E+03  0.29688757191E+01 0.  0.
         13    1    3    3    0    0  0.24773203767E+01  0.10023143665E+02 -0.17237286533E+03  0.17268180341E+03  0.00000000000E+00 0.  1.
          1    1    3    3  501    0  0.33007443574E+01  0.28481624895E+02 -0.53815649345E+03  0.53891976147E+03  0.00000000000E+00 0.  1.
         -1    1    1    2    0  502 -0.57780647341E+01 -0.38504768561E+02 -0.28762281957E+03  0.29024625677E+03  0.00000000000E+00 0. -1.
<mgrwt>
<rscale>  1 0.30000000E+03</rscale>
<asrwt>0</asrwt>
<pdfrwt beam="1">  1       21 0.67193656E-02 0.30000000E+03</pdfrwt>
<pdfrwt beam="2">0</pdfrwt>
<totfact> 0.17324217E+04</totfact>
</mgrwt>
</event>
<event>
 6    1  0.1295671E-001  0.3000000E+03  0.7818608E-02  0.1093470E+00
         21   -1    0    0  501  502  0.00000000000E+00  0.00000000000E+00  0.11497649168E+01  0.11497649168E+01  0.00000000000E+00 0. -1.
         13   -1    0    0    0    0 -0.00000000000E+00 -0.00000000000E+00 -0.10000000000E+04  0.10000000000E+04  0.00000000000E+00 0.  1.
    9000005    2    1    2  501    0 -0.30585446515E+02  0.18262593420E+01 -0.71225757441E+03  0.71292388489E+03  0.32876419824E+01 0.  0.
         13    1    3    3    0    0 -0.43616409244E+01  0.93481870551E+00 -0.83517095006E+02  0.83636134271E+02  0.00000000000E+00 0.  1.
          1    1    3    3  501    0 -0.26223805590E+02  0.89144063649E+00 -0.62874047940E+03  0.62928775062E+03  0.00000000000E+00 0.  1.
         -3    1    1    2    0  502  0.30585446515E+02 -0.18262593420E+01 -0.28659266068E+03  0.28822588002E+03  0.00000000000E+00 0. -1.
<mgrwt>
<rscale>  1 0.30000000E+03</rscale>
<asrwt>0</asrwt>
<pdfrwt beam="1">  1       21 0.41809722E-02 0.30000000E+03</pdfrwt>
<pdfrwt beam="2">0</pdfrwt>
<totfact> 0.39024499E+04</totfact>
</mgrwt>
</event>
<event>
 6    1  0.1295671E-001  0.3000000E+03  0.7818608E-02  0.1093470E+00
         21   -1    0    0  501  502  0.00000000000E+00  0.00000000000E+00  0.17151448321E+01  0.17151448321E+01  0.00000000000E+00 0. -1.
         13   -1    0    0    0    0 -0.00000000000E+00 -0.00000000000E+00 -0.10000000000E+04  0.10000000000E+04  0.00000000000E+00 0.  1.
    9000005    2    1    2  501    0  0.16988581299E+02 -0.25927912942E+02 -0.83088934655E+03  0.83147377245E+03  0.32648893824E+01 0.  0.
         13    1    3    3    0    0  0.11162491522E+02 -0.18402483630E+02 -0.53994935579E+03  0.54037816336E+03  0.00000000000E+00 0.  1.
          1    1    3    3  501    0  0.58260897771E+01 -0.75254293120E+01 -0.29093999076E+03  0.29109560909E+03  0.00000000000E+00 0.  1.
         -1    1    1    2    0  502 -0.16988581299E+02  0.25927912942E+02 -0.16739550862E+03  0.17024137238E+03  0.00000000000E+00 0. -1.
<mgrwt>
<rscale>  1 0.30000000E+03</rscale>
<asrwt>0</asrwt>
<pdfrwt beam="1">  1       21 0.62369035E-02 0.30000000E+03</pdfrwt>
<pdfrwt beam="2">0</pdfrwt>
<totfact> 0.19709265E+04</totfact>
</mgrwt>
</event>
<event>
 6    1  0.1295671E-001  0.3000000E+03  0.7818608E-02  0.1093470E+00
         21   -1    0    0  501  502  0.00000000000E+00  0.00000000000E+00  0.14162836311E+01  0.14162836311E+01  0.00000000000E+00 0. -1.
         13   -1    0    0    0    0 -0.00000000000E+00 -0.00000000000E+00 -0.10000000000E+04  0.10000000000E+04  0.00000000000E+00 0.  1.
    9000005    2    1    2  501    0  0.14554274708E+02  0.29278420827E+02 -0.74677868624E+03  0.74749734768E+03  0.21967525736E+01 0.  0.
         13    1    3    3    0    0  0.83633941202E+00  0.14248071960E+01 -0.28399172326E+02  0.28447188402E+02  0.00000000000E+00 0.  1.
          3    1    3    3  501    0  0.13717935296E+02  0.27853613631E+02 -0.71837951392E+03  0.71905015928E+03  0.00000000000E+00 0.  1.
         -1    1    1    2    0  502 -0.14554274708E+02 -0.29278420827E+02 -0.25180503012E+03  0.25391893595E+03  0.00000000000E+00 0. -1.
<mgrwt>
<rscale>  1 0.30000000E+03</rscale>
<asrwt>0</asrwt>
<pdfrwt beam="1">  1       21 0.51501332E-02 0.30000000E+03</pdfrwt>
<pdfrwt beam="2">0</pdfrwt>
<totfact> 0.27386901E+04</totfact>
</mgrwt>
</event>
<event>
 6    1  0.1295671E-001  0.3000000E+03  0.7818608E-02  0.1093470E+00
         21   -1    0    0  501  502  0.00000000000E+00  0.00000000000E+00  0.14641635968E+01  0.14641635968E+01  0.00000000000E+00 0. -1.
         13   -1    0    0    0    0 -0.00000000000E+00 -0.00000000000E+00 -0.10000000000E+04  0.10000000000E+04  0.00000000000E+00 0.  1.
    9000005    2    1    2  501    0 -0.32102211211E+01  0.37459209872E+02 -0.42023583205E+03  0.42194333312E+03  0.49521611575E+01 0.  0.
         13    1    3    3    0    0 -0.12469862578E+01  0.29004215599E+01 -0.26047743748E+02  0.26238375985E+02  0.00000000000E+00 0.  1.
          3    1    3    3  501    0 -0.19632348633E+01  0.34558788312E+02 -0.39418808831E+03  0.39570495714E+03  0.00000000000E+00 0.  1.
         -3    1    1    2    0  502  0.32102211211E+01 -0.37459209872E+02 -0.57830000435E+03  0.57952083047E+03  0.00000000000E+00 0. -1.
<mgrwt>
<rscale>  1 0.30000000E+03</rscale>
<asrwt>0</asrwt>
<pdfrwt beam="1">  1       21 0.53242425E-02 0.30000000E+03</pdfrwt>
<pdfrwt beam="2">0</pdfrwt>
<totfact> 0.25874090E+04</totfact>
</mgrwt>
</event>
<event>
 6    1  0.1295671E-001  0.3000000E+03  0.7818608E-02  0.1093470E+00
         21   -1    0    0  501  502  0.00000000000E+00  0.00000000000E+00  0.17547147585E+01  0.17547147585E+01  0.00000000000E+00 0. -1.
         13   -1    0    0    0    0 -0.00000000000E+00 -0.00000000000E+00 -0.10000000000E+04  0.10000000000E+04  0.00000000000E+00 0.  1.
    9000005    2    1    2  501    0 -0.25732734262E+02 -0.32769491407E+02 -0.54396930108E+03  0.54557198496E+03  0.31901531453E+01 0.  0.
         13    1    3    3    0    0 -0.11430891381E+02 -0.17016982040E+02 -0.26060750895E+03  0.26141254117E+03  0.00000000000E+00 0.  1.
          3    1    3    3  501    0 -0.14301842881E+02 -0.15752509367E+02 -0.28336179212E+03  0.28415944379E+03  0.00000000000E+00 0.  1.
         -3    1    1    2    0  502  0.25732734262E+02  0.32769491407E+02 -0.45427598416E+03  0.45618272980E+03  0.00000000000E+00 0. -1.
<mgrwt>
<rscale>  1 0.30000000E+03</rscale>
<asrwt>0</asrwt>
<pdfrwt beam="1">  1       21 0.63807944E-02 0.30000000E+03</pdfrwt>
<pdfrwt beam="2">0</pdfrwt>
<totfact> 0.18947319E+04</totfact>
</mgrwt>
</event>
<event>
 6    1  0.1295671E-001  0.3000000E+03  0.7818608E-02  0.1093470E+00
         21   -1    0    0  501  502  0.00000000000E+00  0.00000000000E+00  0.39210356128E+01  0.39210356128E+01  0.00000000000E+00 0. -1.
         13   -1    0    0    0    0 -0.00000000000E+00 -0.00000000000E+00 -0.10000000000E+04  0.10000000000E+04  0.00000000000E+00 0.  1.
    9000005    2    1    2  501    0 -0.13961280818E+02 -0.27656309429E+02 -0.93420911069E+03  0.93472806191E+03  0.31777998540E+01 0.  0.
         13    1    3    3    0    0 -0.11284343737E+02 -0.24634004701E+02 -0.80484994685E+03  0.80530590929E+03  0.00000000000E+00 0.  1.
          3    1    3    3  501    0 -0.26769370807E+01 -0.30223047283E+01 -0.12935916385E+03  0.12942215262E+03  0.00000000000E+00 0.  1.
         -3    1    1    2    0  502  0.13961280818E+02  0.27656309429E+02 -0.61869853693E+02  0.69192973699E+02  0.00000000000E+00 0. -1.
<mgrwt>
<rscale>  1 0.30000000E+03</rscale>
<asrwt>0</asrwt>
<pdfrwt beam="1">  1       21 0.14258341E-01 0.30000000E+03</pdfrwt>
<pdfrwt beam="2">0</pdfrwt>
<totfact> 0.45220386E+03</totfact>
</mgrwt>
</event>
<event>
 6    1  0.1295671E-001  0.3000000E+03  0.7818608E-02  0.1093470E+00
         21   -1    0    0  501  502  0.00000000000E+00  0.00000000000E+00  0.76383338256E+01  0.76383338256E+01  0.00000000000E+00 0. -1.
         13   -1    0    0    0    0 -0.00000000000E+00 -0.00000000000E+00 -0.10000000000E+04  0.10000000000E+04  0.00000000000E+00 0.  1.
    9000005    2    1    2  501    0 -0.55160491482E+02  0.97262279388E+01 -0.88285311408E+03  0.88463669842E+03  0.38971556380E+01 0.  0.
         13    1    3    3    0    0 -0.41646747003E+02  0.80317061368E+01 -0.64326183483E+03  0.64465862903E+03  0.00000000000E+00 0.  1.
          1    1    3    3  501    0 -0.13513744479E+02  0.16945218020E+01 -0.23959127925E+03  0.23997806938E+03  0.00000000000E+00 0.  1.
         -3    1    1    2    0  502  0.55160491482E+02 -0.97262279388E+01 -0.10950855210E+03  0.12300163541E+03  0.00000000000E+00 0. -1.
<mgrwt>
<rscale>  1 0.30000000E+03</rscale>
<asrwt>0</asrwt>
<pdfrwt beam="1">  1       21 0.27775818E-01 0.30000000E+03</pdfrwt>
<pdfrwt beam="2">0</pdfrwt>
<totfact> 0.12674317E+03</totfact>
</mgrwt>
</event>
<event>
 6    1  0.1295671E-001  0.3000000E+03  0.7818608E-02  0.1093470E+00
         21   -1    0    0  501  502  0.00000000000E+00  0.00000000000E+00  0.13248502625E+01  0.13248502625E+01  0.00000000000E+00 0. -1.
         13   -1    0    0    0    0 -0.00000000000E+00 -0.00000000000E+00 -0.10000000000E+04  0.10000000000E+04  0.00000000000E+00 0.  1.
    9000005    2    1    2  501    0 -0.29247586862E+02 -0.16136835901E+02 -0.69604891327E+03  0.69686063593E+03  0.38519391706E+01 0.  0.
         13    1    3    3    0    0 -0.24940791183E+01 -0.17202838922E+01 -0.88884926849E+02  0.88936550576E+02  0.00000000000E+00 0.  1.
          1    1    3    3  501    0 -0.26753507744E+02 -0.14416552009E+02 -0.60716398642E+03  0.60792408536E+03  0.00000000000E+00 0.  1.
         -3    1    1    2    0  502  0.29247586862E+02  0.16136835901E+02 -0.30262623647E+03  0.30446421433E+03  0.00000000000E+00 0. -1.
<mgrwt>
<rscale>  1 0.30000000E+03</rscale>
<asrwt>0</asrwt>
<pdfrwt beam="1">  1       21 0.48176475E-02 0.30000000E+03</pdfrwt>
<pdfrwt beam="2">0</pdfrwt>
<totfact> 0.30686305E+04</totfact>
</mgrwt>
</event>
<event>
 6    1  0.1295671E-001  0.3000000E+03  0.7818608E-02  0.1093470E+00
         21   -1    0    0  501  502  0.00000000000E+00  0.00000000000E+00  0.14046949666E+01  0.14046949666E+01  0.00000000000E+00 0. -1.
         13   -1    0    0    0    0 -0.00000000000E+00 -0.00000000000E+00 -0.10000000000E+04  0.10000000000E+04  0.00000000000E+00 0.  1.
    9000005    2    1    2  501    0  0.30848581740E+02  0.97912386288E+00 -0.77943778733E+03  0.78008453943E+03  0.74853635723E+01 0.  0.
         13    1    3    3    0    0  0.23621841258E+02 -0.21734742055E+01 -0.55000404476E+03  0.55051536276E+03  0.00000000000E+00 0.  1.
          3    1    3    3  501    0  0.72267404818E+01  0.31525980684E+01 -0.22943374256E+03  0.22956917667E+03  0.00000000000E+00 0.  1.
         -1    1    1    2    0  502 -0.30848581740E+02 -0.97912386288E+00 -0.21915751771E+03  0.22132015554E+03  0.00000000000E+00 0. -1.
<mgrwt>
<rscale>  1 0.30000000E+03</rscale>
<asrwt>0</asrwt>
<pdfrwt beam="1">  1       21 0.51079925E-02 0.30000000E+03</pdfrwt>
<pdfrwt beam="2">0</pdfrwt>
<totfact> 0.27773705E+04</totfact>
</mgrwt>
</event>
<event>
 6    1  0.1295671E-001  0.3000000E+03  0.7818608E-02  0.1093470E+00
         21   -1    0    0  501  502  0.00000000000E+00  0.00000000000E+00  0.49040125760E+01  0.49040125760E+01  0.00000000000E+00 0. -1.
         13   -1    0    0    0    0 -0.00000000000E+00 -0.00000000000E+00 -0.10000000000E+04  0.10000000000E+04  0.00000000000E+00 0.  1.
    9000005    2    1    2  501    0  0.49136507264E+02  0.33135384497E+02 -0.76501028805E+03  0.76730818116E+03  0.29587149485E+01 0.  0.
         13    1    3    3    0    0  0.32951735217E+02  0.23034873303E+02 -0.50296040965E+03  0.50456475889E+03  0.00000000000E+00 0.  1.
          1    1    3    3  501    0  0.16184772047E+02  0.10100511194E+02 -0.26204987841E+03  0.26274342227E+03  0.00000000000E+00 0.  1.
         -3    1    1    2    0  502 -0.49136507264E+02 -0.33135384497E+02 -0.23008569937E+03  0.23759583142E+03  0.00000000000E+00 0. -1.
<mgrwt>
<rscale>  1 0.30000000E+03</rscale>
<asrwt>0</asrwt>
<pdfrwt beam="1">  1       21 0.17832811E-01 0.30000000E+03</pdfrwt>
<pdfrwt beam="2">0</pdfrwt>
<totfact> 0.29814696E+03</totfact>
</mgrwt>
</event>
<event>
 6    1  0.1295671E-001  0.3000000E+03  0.7818608E-02  0.1093470E+00
         21   -1    0    0  501  502  0.00000000000E+00  0.00000000000E+00  0.51088782566E+01  0.51088782566E+01  0.00000000000E+00 0. -1.
         13   -1    0    0    0    0 -0.00000000000E+00 -0.00000000000E+00 -0.10000000000E+04  0.10000000000E+04  0.00000000000E+00 0.  1.
    9000005    2    1    2  501    0  0.45716223767E+02  0.17305178528E+02 -0.86378488352E+03  0.86518644253E+03  0.58148960203E+01 0.  0.
         13    1    3    3    0    0  0.10416088840E+00  0.61268207639E+00 -0.78362816618E+01  0.78608866612E+01  0.00000000000E+00 0.  1.
          3    1    3    3  501    0  0.45612062879E+02  0.16692496452E+02 -0.85594860186E+03  0.85732555586E+03  0.00000000000E+00 0.  1.
         -3    1    1    2    0  502 -0.45716223767E+02 -0.17305178528E+02 -0.13110623823E+03  0.13992243573E+03  0.00000000000E+00 0. -1.
<mgrwt>
<rscale>  1 0.30000000E+03</rscale>
<asrwt>0</asrwt>
<pdfrwt beam="1">  1       21 0.18577778E-01 0.30000000E+03</pdfrwt>
<pdfrwt beam="2">0</pdfrwt>
<totfact> 0.27600253E+03</totfact>
</mgrwt>
</event>
<event>
 6    1  0.1295671E-001  0.3000000E+03  0.7818608E-02  0.1093470E+00
         21   -1    0    0  501  502  0.00000000000E+00  0.00000000000E+00  0.19804560774E+01  0.19804560774E+01  0.00000000000E+00 0. -1.
         13   -1    0    0    0    0 -0.00000000000E+00 -0.00000000000E+00 -0.10000000000E+04  0.10000000000E+04  0.00000000000E+00 0.  1.
    9000005    2    1    2  501    0 -0.23140963536E+02  0.37956235888E+02 -0.50422462941E+03  0.50618856663E+03  0.28649702369E+01 0.  0.
         13    1    3    3    0    0 -0.60982389476E+01  0.87833633554E+01 -0.13351449484E+03  0.13394198865E+03  0.00000000000E+00 0.  1.
          1    1    3    3  501    0 -0.17042724588E+02  0.29172872533E+02 -0.37071013456E+03  0.37224657799E+03  0.00000000000E+00 0.  1.
         -1    1    1    2    0  502  0.23140963536E+02 -0.37956235888E+02 -0.49379491452E+03  0.49579188944E+03  0.00000000000E+00 0. -1.
<mgrwt>
<rscale>  1 0.30000000E+03</rscale>
<asrwt>0</asrwt>
<pdfrwt beam="1">  1       21 0.72016736E-02 0.30000000E+03</pdfrwt>
<pdfrwt beam="2">0</pdfrwt>
<totfact> 0.15356186E+04</totfact>
</mgrwt>
</event>
<event>
 6    1  0.1295671E-001  0.3000000E+03  0.7818608E-02  0.1093470E+00
         21   -1    0    0  501  502  0.00000000000E+00  0.00000000000E+00  0.38801916667E+01  0.38801916667E+01  0.00000000000E+00 0. -1.
         13   -1    0    0    0    0 -0.00000000000E+00 -0.00000000000E+00 -0.10000000000E+04  0.10000000000E+04  0.00000000000E+00 0.  1.
    9000005    2    1    2  501    0 -0.11842232852E+02 -0.39662912760E+02 -0.87302076608E+03  0.87400810332E+03  0.33943389307E+01 0.  0.
         13    1    3    3    0    0 -0.25060661520E+01 -0.45148652444E+01 -0.10622759491E+03  0.10635302674E+03  0.00000000000E+00 0.  1.
          1    1    3    3  501    0 -0.93361666999E+01 -0.35148047516E+02 -0.76679317116E+03  0.76765507658E+03  0.00000000000E+00 0.  1.
         -3    1    1    2    0  502  0.11842232852E+02  0.39662912760E+02 -0.12309904226E+03  0.12987208835E+03  0.00000000000E+00 0. -1.
<mgrwt>
<rscale>  1 0.30000000E+03</rscale>
<asrwt>0</asrwt>
<pdfrwt beam="1">  1       21 0.14109818E-01 0.30000000E+03</pdfrwt>
<pdfrwt beam="2">0</pdfrwt>
<totfact> 0.46099932E+03</totfact>
</mgrwt>
</event>
<event>
 6    1  0.1295671E-001  0.3000000E+03  0.7818608E-02  0.1093470E+00
         21   -1    0    0  501  502  0.00000000000E+00  0.00000000000E+00  0.21202178018E+01  0.21202178018E+01  0.00000000000E+00 0. -1.
         13   -1    0    0    0    0 -0.00000000000E+00 -0.00000000000E+00 -0.10000000000E+04  0.10000000000E+04  0.00000000000E+00 0.  1.
    9000005    2    1    2  501    0  0.13748882454E+02 -0.37458242188E+02 -0.74858316289E+03  0.74965050462E+03  0.26411428023E+01 0.  0.
         13    1    3    3    0    0  0.79294397276E+01 -0.25229739297E+02 -0.49536118748E+03  0.49606665058E+03  0.00000000000E+00 0.  1.
          3    1    3    3  501    0  0.58194427261E+01 -0.12228502891E+02 -0.25322197541E+03  0.25358385404E+03  0.00000000000E+00 0.  1.
         -3    1    1    2    0  502 -0.13748882454E+02  0.37458242188E+02 -0.24929661931E+03  0.25246971318E+03  0.00000000000E+00 0. -1.
<mgrwt>
<rscale>  1 0.30000000E+03</rscale>
<asrwt>0</asrwt>
<pdfrwt beam="1">  1       21 0.77098992E-02 0.30000000E+03</pdfrwt>
<pdfrwt beam="2">0</pdfrwt>
<totfact> 0.13629198E+04</totfact>
</mgrwt>
</event>
<event>
 6    1  0.1295671E-001  0.3000000E+03  0.7818608E-02  0.1093470E+00
         21   -1    0    0  501  502  0.00000000000E+00  0.00000000000E+00  0.10443211781E+01  0.10443211781E+01  0.00000000000E+00 0. -1.
         13   -1    0    0    0    0 -0.00000000000E+00 -0.00000000000E+00 -0.10000000000E+04  0.10000000000E+04  0.00000000000E+00 0.  1.
    9000005    2    1    2  501    0 -0.19622461108E+02  0.24762951475E+02 -0.59743124361E+03  0.59827873573E+03  0.38871641015E+01 0.  0.
         13    1    3    3    0    0 -0.50468064366E+01  0.63049002326E+01 -0.12295201773E+03  0.12321696591E+03  0.00000000000E+00 0.  1.
          1    1    3    3  501    0 -0.14575654672E+02  0.18458051242E+02 -0.47447922587E+03  0.47506176982E+03  0.00000000000E+00 0.  1.
         -3    1    1    2    0  502  0.19622461108E+02 -0.24762951475E+02 -0.40152443522E+03  0.40276558545E+03  0.00000000000E+00 0. -1.
<mgrwt>
<rscale>  1 0.30000000E+03</rscale>
<asrwt>0</asrwt>
<pdfrwt beam="1">  1       21 0.37975396E-02 0.30000000E+03</pdfrwt>
<pdfrwt beam="2">0</pdfrwt>
<totfact> 0.45885987E+04</totfact>
</mgrwt>
</event>
<event>
 6    1  0.1295671E-001  0.3000000E+03  0.7818608E-02  0.1093470E+00
         21   -1    0    0  501  502  0.00000000000E+00  0.00000000000E+00  0.38464954488E+01  0.38464954488E+01  0.00000000000E+00 0. -1.
         13   -1    0    0    0    0 -0.00000000000E+00 -0.00000000000E+00 -0.10000000000E+04  0.10000000000E+04  0.00000000000E+00 0.  1.
    9000005    2    1    2  501    0 -0.27253782993E+02 -0.43546379204E+02 -0.77818832304E+03  0.77990928064E+03  0.65087686448E+01 0.  0.
         13    1    3    3    0    0 -0.10476851961E+02 -0.14622564144E+02 -0.31742201172E+03  0.31793130914E+03  0.00000000000E+00 0.  1.
          1    1    3    3  501    0 -0.16776931032E+02 -0.28923815059E+02 -0.46076631132E+03  0.46197797149E+03  0.00000000000E+00 0.  1.
         -1    1    1    2    0  502  0.27253782993E+02  0.43546379204E+02 -0.21796518151E+03  0.22393721481E+03  0.00000000000E+00 0. -1.
<mgrwt>
<rscale>  1 0.30000000E+03</rscale>
<asrwt>0</asrwt>
<pdfrwt beam="1">  1       21 0.13987286E-01 0.30000000E+03</pdfrwt>
<pdfrwt beam="2">0</pdfrwt>
<totfact> 0.46844902E+03</totfact>
</mgrwt>
</event>
<event>
 6    1  0.1295671E-001  0.3000000E+03  0.7818608E-02  0.1093470E+00
         21   -1    0    0  501  502  0.00000000000E+00  0.00000000000E+00  0.10109730007E+01  0.10109730007E+01  0.00000000000E+00 0. -1.
         13   -1    0    0    0    0 -0.00000000000E+00 -0.00000000000E+00 -0.10000000000E+04  0.10000000000E+04  0.00000000000E+00 0.  1.
    9000005    2    1    2  501    0 -0.29159150921E+02 -0.10321389632E+02 -0.39013285556E+03  0.39136958279E+03  0.31173986428E+01 0.  0.
         13    1    3    3    0    0 -0.18058673157E+00  0.15097045629E+00 -0.52615530895E+01  0.52668154097E+01  0.00000000000E+00 0.  1.
          1    1    3    3  501    0 -0.28978564190E+02 -0.10472360089E+02 -0.38487130247E+03  0.38610276738E+03  0.00000000000E+00 0.  1.
         -3    1    1    2    0  502  0.29159150921E+02  0.10321389632E+02 -0.60885617144E+03  0.60964139021E+03  0.00000000000E+00 0. -1.
<mgrwt>
<rscale>  1 0.30000000E+03</rscale>
<asrwt>0</asrwt>
<pdfrwt beam="1">  1       21 0.36762732E-02 0.30000000E+03</pdfrwt>
<pdfrwt beam="2">0</pdfrwt>
<totfact> 0.48455793E+04</totfact>
</mgrwt>
</event>
<event>
 6    1  0.1295671E-001  0.3000000E+03  0.7818608E-02  0.1093470E+00
         21   -1    0    0  501  502  0.00000000000E+00  0.00000000000E+00  0.39267974858E+01  0.39267974858E+01  0.00000000000E+00 0. -1.
         13   -1    0    0    0    0 -0.00000000000E+00 -0.00000000000E+00 -0.10000000000E+04  0.10000000000E+04  0.00000000000E+00 0.  1.
    9000005    2    1    2  501    0  0.21884514417E+02 -0.31349351730E+02 -0.89567841097E+03  0.89649855169E+03  0.28501723650E+01 0.  0.
         13    1    3    3    0    0  0.10156306887E+02 -0.13903299144E+02 -0.37150457508E+03  0.37190334981E+03  0.00000000000E+00 0.  1.
          1    1    3    3  501    0  0.11728207530E+02 -0.17446052586E+02 -0.52417383589E+03  0.52459520188E+03  0.00000000000E+00 0.  1.
         -3    1    1    2    0  502 -0.21884514417E+02  0.31349351730E+02 -0.10039479154E+03  0.10742824579E+03  0.00000000000E+00 0. -1.
<mgrwt>
<rscale>  1 0.30000000E+03</rscale>
<asrwt>0</asrwt>
<pdfrwt beam="1">  1       21 0.14279294E-01 0.30000000E+03</pdfrwt>
<pdfrwt beam="2">0</pdfrwt>
<totfact> 0.45098323E+03</totfact>
</mgrwt>
</event>
<event>
 6    1  0.1295671E-001  0.3000000E+03  0.7818608E-02  0.1093470E+00
         21   -1    0    0  501  502  0.00000000000E+00  0.00000000000E+00  0.19950665330E+01  0.19950665330E+01  0.00000000000E+00 0. -1.
         13   -1    0    0    0    0 -0.00000000000E+00 -0.00000000000E+00 -0.10000000000E+04  0.10000000000E+04  0.00000000000E+00 0.  1.
    9000005    2    1    2  501    0  0.36825426880E+02 -0.12211261132E+02 -0.25257184374E+03  0.25555302711E+03  0.30961992485E+01 0.  0.
         13    1    3    3    0    0  0.31078721427E+02 -0.10707234435E+02 -0.20652938267E+03  0.20912894994E+03  0.00000000000E+00 0.  1.
          3    1    3    3  501    0  0.57467054528E+01 -0.15040266972E+01 -0.46042461070E+02  0.46424077172E+02  0.00000000000E+00 0.  1.
         -3    1    1    2    0  502 -0.36825426880E+02  0.12211261132E+02 -0.74543308972E+03  0.74644203942E+03  0.00000000000E+00 0. -1.
<mgrwt>
<rscale>  1 0.30000000E+03</rscale>
<asrwt>0</asrwt>
<pdfrwt beam="1">  1       21 0.72548027E-02 0.30000000E+03</pdfrwt>
<pdfrwt beam="2">0</pdfrwt>
<totfact> 0.15160465E+04</totfact>
</mgrwt>
</event>
<event>
 6    1  0.1295671E-001  0.3000000E+03  0.7818608E-02  0.1093470E+00
         21   -1    0    0  501  502  0.00000000000E+00  0.00000000000E+00  0.60815555244E+01  0.60815555244E+01  0.00000000000E+00 0. -1.
         13   -1    0    0    0    0 -0.00000000000E+00 -0.00000000000E+00 -0.10000000000E+04  0.10000000000E+04  0.00000000000E+00 0.  1.
    9000005    2    1    2  501    0 -0.52141476746E+02 -0.12556415650E+02 -0.86201599490E+03  0.86369246404E+03  0.40865382777E+01 0.  0.
         13    1    3    3    0    0 -0.45864428890E+02 -0.99649745019E+01 -0.76611902900E+03  0.76755534859E+03  0.00000000000E+00 0.  1.
          3    1    3    3  501    0 -0.62770478563E+01 -0.25914411485E+01 -0.95896965908E+02  0.96137115452E+02  0.00000000000E+00 0.  1.
         -3    1    1    2    0  502  0.52141476746E+02  0.12556415650E+02 -0.13190244957E+03  0.14238909149E+03  0.00000000000E+00 0. -1.
<mgrwt>
<rscale>  1 0.30000000E+03</rscale>
<asrwt>0</asrwt>
<pdfrwt beam="1">  1       21 0.22114794E-01 0.30000000E+03</pdfrwt>
<pdfrwt beam="2">0</pdfrwt>
<totfact> 0.19786613E+03</totfact>
</mgrwt>
</event>
<event>
 6    1  0.1295671E-001  0.3000000E+03  0.7818608E-02  0.1093470E+00
         21   -1    0    0  501  502  0.00000000000E+00  0.00000000000E+00  0.35263487155E+01  0.35263487155E+01  0.00000000000E+00 0. -1.
         13   -1    0    0    0    0 -0.00000000000E+00 -0.00000000000E+00 -0.10000000000E+04  0.10000000000E+04  0.00000000000E+00 0.  1.
    9000005    2    1    2  501    0 -0.21447877332E+02 -0.36779639830E+02 -0.84783511411E+03  0.84891015266E+03  0.33635145476E+01 0.  0.
         13    1    3    3    0    0 -0.11805393788E+01 -0.84143108092E+00 -0.29249138003E+02  0.29285043169E+02  0.00000000000E+00 0.  1.
          1    1    3    3  501    0 -0.20267337953E+02 -0.35938208749E+02 -0.81858597610E+03  0.81962510949E+03  0.00000000000E+00 0.  1.
         -3    1    1    2    0  502  0.21447877332E+02  0.36779639830E+02 -0.14863853718E+03  0.15461619606E+03  0.00000000000E+00 0. -1.
<mgrwt>
<rscale>  1 0.30000000E+03</rscale>
<asrwt>0</asrwt>
<pdfrwt beam="1">  1       21 0.12823113E-01 0.30000000E+03</pdfrwt>
<pdfrwt beam="2">0</pdfrwt>
<totfact> 0.54921597E+03</totfact>
</mgrwt>
</event>
<event>
 6    1  0.1295671E-001  0.3000000E+03  0.7818608E-02  0.1093470E+00
         21   -1    0    0  501  502  0.00000000000E+00  0.00000000000E+00  0.55957873790E+01  0.55957873790E+01  0.00000000000E+00 0. -1.
         13   -1    0    0    0    0 -0.00000000000E+00 -0.00000000000E+00 -0.10000000000E+04  0.10000000000E+04  0.00000000000E+00 0.  1.
    9000005    2    1    2  501    0  0.52422032240E+02 -0.44211520063E+02 -0.30066194815E+03  0.30847237113E+03  0.74073419146E+01 0.  0.
         13    1    3    3    0    0  0.15829691331E+02 -0.11633739107E+02 -0.72890535276E+02  0.75491411075E+02  0.00000000000E+00 0.  1.
          1    1    3    3  501    0  0.36592340908E+02 -0.32577780956E+02 -0.22777141287E+03  0.23298096005E+03  0.00000000000E+00 0.  1.
         -3    1    1    2    0  502 -0.52422032240E+02  0.44211520063E+02 -0.69374226447E+03  0.69712341625E+03  0.00000000000E+00 0. -1.
<mgrwt>
<rscale>  1 0.30000000E+03</rscale>
<asrwt>0</asrwt>
<pdfrwt beam="1">  1       21 0.20348361E-01 0.30000000E+03</pdfrwt>
<pdfrwt beam="2">0</pdfrwt>
<totfact> 0.23213591E+03</totfact>
</mgrwt>
</event>
<event>
 6    1  0.1295671E-001  0.3000000E+03  0.7818608E-02  0.1093470E+00
         21   -1    0    0  501  502  0.00000000000E+00  0.00000000000E+00  0.98097426495E+00  0.98097426495E+00  0.00000000000E+00 0. -1.
         13   -1    0    0    0    0 -0.00000000000E+00 -0.00000000000E+00 -0.10000000000E+04  0.10000000000E+04  0.00000000000E+00 0.  1.
    9000005    2    1    2  501    0  0.29831943328E+02 -0.61086858292E+01 -0.61230411670E+03  0.61306902323E+03  0.31678118328E+01 0.  0.
         13    1    3    3    0    0  0.65306223095E+01 -0.21102687204E+01 -0.11722505843E+03  0.11742579183E+03  0.00000000000E+00 0.  1.
          1    1    3    3  501    0  0.23301321019E+02 -0.39984171088E+01 -0.49507905827E+03  0.49564323140E+03  0.00000000000E+00 0.  1.
         -1    1    1    2    0  502 -0.29831943328E+02  0.61086858292E+01 -0.38671490903E+03  0.38791195103E+03  0.00000000000E+00 0. -1.
<mgrwt>
<rscale>  1 0.30000000E+03</rscale>
<asrwt>0</asrwt>
<pdfrwt beam="1">  1       21 0.35671867E-02 0.30000000E+03</pdfrwt>
<pdfrwt beam="2">0</pdfrwt>
<totfact> 0.50966834E+04</totfact>
</mgrwt>
</event>
<event>
 6    1  0.1295671E-001  0.3000000E+03  0.7818608E-02  0.1093470E+00
         21   -1    0    0  501  502  0.00000000000E+00  0.00000000000E+00  0.17474722440E+01  0.17474722440E+01  0.00000000000E+00 0. -1.
         13   -1    0    0    0    0 -0.00000000000E+00 -0.00000000000E+00 -0.10000000000E+04  0.10000000000E+04  0.00000000000E+00 0.  1.
    9000005    2    1    2  501    0  0.19083817274E+01 -0.31109616418E+02 -0.83254791129E+03  0.83313706309E+03  0.31450212031E+01 0.  0.
         13    1    3    3    0    0 -0.82556145463E+00 -0.48493765752E+01 -0.12540370631E+03  0.12550014964E+03  0.00000000000E+00 0.  1.
          1    1    3    3  501    0  0.27339431821E+01 -0.26260239843E+02 -0.70714420498E+03  0.70763691345E+03  0.00000000000E+00 0.  1.
         -1    1    1    2    0  502 -0.19083817274E+01  0.31109616418E+02 -0.16570461647E+03  0.16861040915E+03  0.00000000000E+00 0. -1.
<mgrwt>
<rscale>  1 0.30000000E+03</rscale>
<asrwt>0</asrwt>
<pdfrwt beam="1">  1       21 0.63544579E-02 0.30000000E+03</pdfrwt>
<pdfrwt beam="2">0</pdfrwt>
<totfact> 0.19083331E+04</totfact>
</mgrwt>
</event>
<event>
 6    1  0.1295671E-001  0.3000000E+03  0.7818608E-02  0.1093470E+00
         21   -1    0    0  501  502  0.00000000000E+00  0.00000000000E+00  0.15748202164E+01  0.15748202164E+01  0.00000000000E+00 0. -1.
         13   -1    0    0    0    0 -0.00000000000E+00 -0.00000000000E+00 -0.10000000000E+04  0.10000000000E+04  0.00000000000E+00 0.  1.
    9000005    2    1    2  501    0 -0.23632946919E+02 -0.31685952707E+02 -0.53550860597E+03  0.53697362555E+03  0.29481661736E+01 0.  0.
         13    1    3    3    0    0 -0.14646576303E+02 -0.20377068881E+02 -0.35779327927E+03  0.35867224290E+03  0.00000000000E+00 0.  1.
          1    1    3    3  501    0 -0.89863706157E+01 -0.11308883826E+02 -0.17771532670E+03  0.17830138265E+03  0.00000000000E+00 0.  1.
         -1    1    1    2    0  502  0.23632946919E+02  0.31685952707E+02 -0.46291657381E+03  0.46460119467E+03  0.00000000000E+00 0. -1.
<mgrwt>
<rscale>  1 0.30000000E+03</rscale>
<asrwt>0</asrwt>
<pdfrwt beam="1">  1       21 0.57266310E-02 0.30000000E+03</pdfrwt>
<pdfrwt beam="2">0</pdfrwt>
<totfact> 0.22834467E+04</totfact>
</mgrwt>
</event>
<event>
 6    1  0.1295671E-001  0.3000000E+03  0.7818608E-02  0.1093470E+00
         21   -1    0    0  501  502  0.00000000000E+00  0.00000000000E+00  0.19745691526E+01  0.19745691526E+01  0.00000000000E+00 0. -1.
         13   -1    0    0    0    0 -0.00000000000E+00 -0.00000000000E+00 -0.10000000000E+04  0.10000000000E+04  0.00000000000E+00 0.  1.
    9000005    2    1    2  501    0  0.41498170914E+02 -0.11959407631E+02 -0.61457566615E+03  0.61610043467E+03  0.33720247165E+01 0.  0.
         13    1    3    3    0    0  0.31821394314E+02 -0.91781291457E+01 -0.49060373937E+03  0.49172031509E+03  0.00000000000E+00 0.  1.
          3    1    3    3  501    0  0.96767765997E+01 -0.27812784849E+01 -0.12397192678E+03  0.12438011957E+03  0.00000000000E+00 0.  1.
         -3    1    1    2    0  502 -0.41498170914E+02  0.11959407631E+02 -0.38344976470E+03  0.38587413449E+03  0.00000000000E+00 0. -1.
<mgrwt>
<rscale>  1 0.30000000E+03</rscale>
<asrwt>0</asrwt>
<pdfrwt beam="1">  1       21 0.71802666E-02 0.30000000E+03</pdfrwt>
<pdfrwt beam="2">0</pdfrwt>
<totfact> 0.15436135E+04</totfact>
</mgrwt>
</event>
<event>
 6    1  0.1295671E-001  0.3000000E+03  0.7818608E-02  0.1093470E+00
         21   -1    0    0  501  502  0.00000000000E+00  0.00000000000E+00  0.11697664871E+01  0.11697664871E+01  0.00000000000E+00 0. -1.
         13   -1    0    0    0    0 -0.00000000000E+00 -0.00000000000E+00 -0.10000000000E+04  0.10000000000E+04  0.00000000000E+00 0.  1.
    9000005    2    1    2  501    0  0.15469163286E+02 -0.27293671653E+02 -0.69673628036E+03  0.69745115320E+03  0.35252242405E+01 0.  0.
         13    1    3    3    0    0  0.14427063980E+02 -0.23981711158E+02 -0.59950795407E+03  0.60016085314E+03  0.00000000000E+00 0.  1.
          3    1    3    3  501    0  0.10420993059E+01 -0.33119604949E+01 -0.97228326287E+02  0.97290300061E+02  0.00000000000E+00 0.  1.
         -3    1    1    2    0  502 -0.15469163286E+02  0.27293671653E+02 -0.30209395315E+03  0.30371861329E+03  0.00000000000E+00 0. -1.
<mgrwt>
<rscale>  1 0.30000000E+03</rscale>
<asrwt>0</asrwt>
<pdfrwt beam="1">  1       21 0.42537053E-02 0.30000000E+03</pdfrwt>
<pdfrwt beam="2">0</pdfrwt>
<totfact> 0.37904082E+04</totfact>
</mgrwt>
</event>
<event>
 6    1  0.1295671E-001  0.3000000E+03  0.7818608E-02  0.1093470E+00
         21   -1    0    0  501  502  0.00000000000E+00  0.00000000000E+00  0.98728567688E+00  0.98728567688E+00  0.00000000000E+00 0. -1.
         13   -1    0    0    0    0 -0.00000000000E+00 -0.00000000000E+00 -0.10000000000E+04  0.10000000000E+04  0.00000000000E+00 0.  1.
    9000005    2    1    2  501    0 -0.87494118879E+01  0.29399919164E+02 -0.60492956495E+03  0.60571214596E+03  0.25529908831E+01 0.  0.
         13    1    3    3    0    0 -0.32668646498E+01  0.87197566464E+01 -0.20332918314E+03  0.20354228867E+03  0.00000000000E+00 0.  1.
          3    1    3    3  501    0 -0.54825472381E+01  0.20680162517E+02 -0.40160038180E+03  0.40216985729E+03  0.00000000000E+00 0.  1.
         -1    1    1    2    0  502  0.87494118879E+01 -0.29399919164E+02 -0.39408314937E+03  0.39527513971E+03  0.00000000000E+00 0. -1.
<mgrwt>
<rscale>  1 0.30000000E+03</rscale>
<asrwt>0</asrwt>
<pdfrwt beam="1">  1       21 0.35901373E-02 0.30000000E+03</pdfrwt>
<pdfrwt beam="2">0</pdfrwt>
<totfact> 0.50421737E+04</totfact>
</mgrwt>
</event>
<event>
 6    1  0.1295671E-001  0.3000000E+03  0.7818608E-02  0.1093470E+00
         21   -1    0    0  501  502  0.00000000000E+00  0.00000000000E+00  0.34658944070E+01  0.34658944070E+01  0.00000000000E+00 0. -1.
         13   -1    0    0    0    0 -0.00000000000E+00 -0.00000000000E+00 -0.10000000000E+04  0.10000000000E+04  0.00000000000E+00 0.  1.
    9000005    2    1    2  501    0 -0.31858112569E+02 -0.86575710293E+01 -0.91360919542E+03  0.91421101443E+03  0.31818353163E+01 0.  0.
         13    1    3    3    0    0 -0.29147179356E+02 -0.87509590299E+01 -0.84737313266E+03  0.84791943208E+03  0.00000000000E+00 0.  1.
          3    1    3    3  501    0 -0.27109332128E+01  0.93388000588E-01 -0.66236062764E+02  0.66291582351E+02  0.00000000000E+00 0.  1.
         -3    1    1    2    0  502  0.31858112569E+02  0.86575710293E+01 -0.82924910173E+02  0.89254879977E+02  0.00000000000E+00 0. -1.
<mgrwt>
<rscale>  1 0.30000000E+03</rscale>
<asrwt>0</asrwt>
<pdfrwt beam="1">  1       21 0.12603279E-01 0.30000000E+03</pdfrwt>
<pdfrwt beam="2">0</pdfrwt>
<totfact> 0.56680849E+03</totfact>
</mgrwt>
</event>
<event>
 6    1  0.1295671E-001  0.3000000E+03  0.7818608E-02  0.1093470E+00
         21   -1    0    0  501  502  0.00000000000E+00  0.00000000000E+00  0.19991177072E+01  0.19991177072E+01  0.00000000000E+00 0. -1.
         13   -1    0    0    0    0 -0.00000000000E+00 -0.00000000000E+00 -0.10000000000E+04  0.10000000000E+04  0.00000000000E+00 0.  1.
    9000005    2    1    2  501    0 -0.38051183418E+02  0.49122481036E+01 -0.75551122726E+03  0.75649299653E+03  0.35237099185E+01 0.  0.
         13    1    3    3    0    0 -0.13437368030E+02  0.33763797849E+01 -0.28076869914E+03  0.28111034349E+03  0.00000000000E+00 0.  1.
          1    1    3    3  501    0 -0.24613815388E+02  0.15358683187E+01 -0.47474252812E+03  0.47538265304E+03  0.00000000000E+00 0.  1.
         -3    1    1    2    0  502  0.38051183418E+02 -0.49122481036E+01 -0.24248965503E+03  0.24550612118E+03  0.00000000000E+00 0. -1.
<mgrwt>
<rscale>  1 0.30000000E+03</rscale>
<asrwt>0</asrwt>
<pdfrwt beam="1">  1       21 0.72695343E-02 0.30000000E+03</pdfrwt>
<pdfrwt beam="2">0</pdfrwt>
<totfact> 0.15106867E+04</totfact>
</mgrwt>
</event>
<event>
 6    1  0.1295671E-001  0.3000000E+03  0.7818608E-02  0.1093470E+00
         21   -1    0    0  501  502  0.00000000000E+00  0.00000000000E+00  0.31707852646E+01  0.31707852646E+01  0.00000000000E+00 0. -1.
         13   -1    0    0    0    0 -0.00000000000E+00 -0.00000000000E+00 -0.10000000000E+04  0.10000000000E+04  0.00000000000E+00 0.  1.
    9000005    2    1    2  501    0  0.35839692673E+02 -0.41470549685E+02 -0.61173095948E+03  0.61419140758E+03  0.34681837499E+01 0.  0.
         13    1    3    3    0    0  0.12075094824E+02 -0.11820103211E+02 -0.19692935537E+03  0.19765296294E+03  0.00000000000E+00 0.  1.
          3    1    3    3  501    0  0.23764597849E+02 -0.29650446474E+02 -0.41480160411E+03  0.41653844464E+03  0.00000000000E+00 0.  1.
         -1    1    1    2    0  502 -0.35839692673E+02  0.41470549685E+02 -0.38509825526E+03  0.38897937768E+03  0.00000000000E+00 0. -1.
<mgrwt>
<rscale>  1 0.30000000E+03</rscale>
<asrwt>0</asrwt>
<pdfrwt beam="1">  1       21 0.11530153E-01 0.30000000E+03</pdfrwt>
<pdfrwt beam="2">0</pdfrwt>
<totfact> 0.66619599E+03</totfact>
</mgrwt>
</event>
<event>
 6    1  0.1295671E-001  0.3000000E+03  0.7818608E-02  0.1093470E+00
         21   -1    0    0  501  502  0.00000000000E+00  0.00000000000E+00  0.11850253427E+01  0.11850253427E+01  0.00000000000E+00 0. -1.
         13   -1    0    0    0    0 -0.00000000000E+00 -0.00000000000E+00 -0.10000000000E+04  0.10000000000E+04  0.00000000000E+00 0.  1.
    9000005    2    1    2  501    0 -0.20534138034E+02 -0.27481253295E+02 -0.52927105217E+03  0.53038956524E+03  0.28938113620E+01 0.  0.
         13    1    3    3    0    0 -0.57380708487E+01 -0.75643770504E+01 -0.16724849080E+03  0.16751776901E+03  0.00000000000E+00 0.  1.
          1    1    3    3  501    0 -0.14796067185E+02 -0.19916876245E+02 -0.36202256136E+03  0.36287179623E+03  0.00000000000E+00 0.  1.
         -1    1    1    2    0  502  0.20534138034E+02  0.27481253295E+02 -0.46954392249E+03  0.47079546010E+03  0.00000000000E+00 0. -1.
<mgrwt>
<rscale>  1 0.30000000E+03</rscale>
<asrwt>0</asrwt>
<pdfrwt beam="1">  1       21 0.43091922E-02 0.30000000E+03</pdfrwt>
<pdfrwt beam="2">0</pdfrwt>
<totfact> 0.37082570E+04</totfact>
</mgrwt>
</event>
<event>
 6    1  0.1295671E-001  0.3000000E+03  0.7818608E-02  0.1093470E+00
         21   -1    0    0  501  502  0.00000000000E+00  0.00000000000E+00  0.42573696179E+02  0.42573696179E+02  0.00000000000E+00 0. -1.
         13   -1    0    0    0    0 -0.00000000000E+00 -0.00000000000E+00 -0.10000000000E+04  0.10000000000E+04  0.00000000000E+00 0.  1.
    9000005    2    1    2  501    0 -0.31959733860E+02  0.22195377784E+02 -0.99064290195E+03  0.99141314718E+03  0.35510328884E+01 0.  0.
         13    1    3    3    0    0 -0.40378343730E+01  0.33627828315E+01 -0.10764900589E+03  0.10777718164E+03  0.00000000000E+00 0.  1.
          3    1    3    3  501    0 -0.27921899487E+02  0.18832594953E+02 -0.88299389606E+03  0.88363596553E+03  0.00000000000E+00 0.  1.
         -1    1    1    2    0  502  0.31959733860E+02 -0.22195377784E+02  0.33216598125E+02  0.51160549004E+02  0.00000000000E+00 0. -1.
<mgrwt>
<rscale>  1 0.30000000E+03</rscale>
<asrwt>0</asrwt>
<pdfrwt beam="1">  1       21 0.15481377E+00 0.30000000E+03</pdfrwt>
<pdfrwt beam="2">0</pdfrwt>
<totfact> 0.21744028E+01</totfact>
</mgrwt>
</event>
<event>
 6    1  0.1295671E-001  0.3000000E+03  0.7818608E-02  0.1093470E+00
         21   -1    0    0  501  502  0.00000000000E+00  0.00000000000E+00  0.35945984719E+01  0.35945984719E+01  0.00000000000E+00 0. -1.
         13   -1    0    0    0    0 -0.00000000000E+00 -0.00000000000E+00 -0.10000000000E+04  0.10000000000E+04  0.00000000000E+00 0.  1.
    9000005    2    1    2  501    0  0.33402520984E+02  0.43333832051E+02 -0.29505125979E+03  0.30010957266E+03  0.41182872863E+01 0.  0.
         13    1    3    3    0    0  0.53021869963E+01  0.94836707543E+01 -0.56300333695E+02  0.57339173103E+02  0.00000000000E+00 0.  1.
          1    1    3    3  501    0  0.28100333988E+02  0.33850161297E+02 -0.23875092609E+03  0.24277039956E+03  0.00000000000E+00 0.  1.
         -1    1    1    2    0  502 -0.33402520984E+02 -0.43333832051E+02 -0.70135414174E+03  0.70348502581E+03  0.00000000000E+00 0. -1.
<mgrwt>
<rscale>  1 0.30000000E+03</rscale>
<asrwt>0</asrwt>
<pdfrwt beam="1">  1       21 0.13071295E-01 0.30000000E+03</pdfrwt>
<pdfrwt beam="2">0</pdfrwt>
<totfact> 0.53032813E+03</totfact>
</mgrwt>
</event>
<event>
 6    1  0.1295671E-001  0.3000000E+03  0.7818608E-02  0.1093470E+00
         21   -1    0    0  501  502  0.00000000000E+00  0.00000000000E+00  0.16743417923E+01  0.16743417923E+01  0.00000000000E+00 0. -1.
         13   -1    0    0    0    0 -0.00000000000E+00 -0.00000000000E+00 -0.10000000000E+04  0.10000000000E+04  0.00000000000E+00 0.  1.
    9000005    2    1    2  501    0 -0.16442643569E+02 -0.32164540096E+02 -0.73345630668E+03  0.73435301540E+03  0.33584589656E+01 0.  0.
         13    1    3    3    0    0 -0.70043981034E+01 -0.10490193252E+02 -0.24222063475E+03  0.24254884384E+03  0.00000000000E+00 0.  1.
          1    1    3    3  501    0 -0.94382454652E+01 -0.21674346844E+02 -0.49123567193E+03  0.49180417156E+03  0.00000000000E+00 0.  1.
         -1    1    1    2    0  502  0.16442643569E+02  0.32164540096E+02 -0.26486935153E+03  0.26732132639E+03  0.00000000000E+00 0. -1.
<mgrwt>
<rscale>  1 0.30000000E+03</rscale>
<asrwt>0</asrwt>
<pdfrwt beam="1">  1       21 0.60885284E-02 0.30000000E+03</pdfrwt>
<pdfrwt beam="2">0</pdfrwt>
<totfact> 0.20545892E+04</totfact>
</mgrwt>
</event>
<event>
 6    1  0.1295671E-001  0.3000000E+03  0.7818608E-02  0.1093470E+00
         21   -1    0    0  501  502  0.00000000000E+00  0.00000000000E+00  0.35080610900E+01  0.35080610900E+01  0.00000000000E+00 0. -1.
         13   -1    0    0    0    0 -0.00000000000E+00 -0.00000000000E+00 -0.10000000000E+04  0.10000000000E+04  0.00000000000E+00 0.  1.
    9000005    2    1    2  501    0  0.31787826187E+02 -0.32142096270E+02 -0.82224317172E+03  0.82349080327E+03  0.31127770450E+01 0.  0.
         13    1    3    3    0    0  0.16347010726E+01 -0.27611638021E+01 -0.61011685073E+02  0.61096006323E+02  0.00000000000E+00 0.  1.
          3    1    3    3  501    0  0.30153125115E+02 -0.29380932468E+02 -0.76123148665E+03  0.76239479695E+03  0.00000000000E+00 0.  1.
         -3    1    1    2    0  502 -0.31787826187E+02  0.32142096270E+02 -0.17424876719E+03  0.18001725782E+03  0.00000000000E+00 0. -1.
<mgrwt>
<rscale>  1 0.30000000E+03</rscale>
<asrwt>0</asrwt>
<pdfrwt beam="1">  1       21 0.12756613E-01 0.30000000E+03</pdfrwt>
<pdfrwt beam="2">0</pdfrwt>
<totfact> 0.55444965E+03</totfact>
</mgrwt>
</event>
<event>
 6    1  0.1295671E-001  0.3000000E+03  0.7818608E-02  0.1093470E+00
         21   -1    0    0  501  502  0.00000000000E+00  0.00000000000E+00  0.39048896353E+01  0.39048896353E+01  0.00000000000E+00 0. -1.
         13   -1    0    0    0    0 -0.00000000000E+00 -0.00000000000E+00 -0.10000000000E+04  0.10000000000E+04  0.00000000000E+00 0.  1.
    9000005    2    1    2  501    0 -0.16412539468E+02 -0.59523452163E+02 -0.57356662613E+03  0.57688880938E+03  0.31001557370E+01 0.  0.
         13    1    3    3    0    0 -0.57000575226E+01 -0.25925277702E+02 -0.24040062865E+03  0.24186168141E+03  0.00000000000E+00 0.  1.
          1    1    3    3  501    0 -0.10712481945E+02 -0.33598174461E+02 -0.33316599749E+03  0.33502712797E+03  0.00000000000E+00 0.  1.
         -1    1    1    2    0  502  0.16412539468E+02  0.59523452163E+02 -0.42252848423E+03  0.42701608025E+03  0.00000000000E+00 0. -1.
<mgrwt>
<rscale>  1 0.30000000E+03</rscale>
<asrwt>0</asrwt>
<pdfrwt beam="1">  1       21 0.14199629E-01 0.30000000E+03</pdfrwt>
<pdfrwt beam="2">0</pdfrwt>
<totfact> 0.45565065E+03</totfact>
</mgrwt>
</event>
<event>
 6    1  0.1295671E-001  0.3000000E+03  0.7818608E-02  0.1093470E+00
         21   -1    0    0  501  502  0.00000000000E+00  0.00000000000E+00  0.28513717858E+01  0.28513717858E+01  0.00000000000E+00 0. -1.
         13   -1    0    0    0    0 -0.00000000000E+00 -0.00000000000E+00 -0.10000000000E+04  0.10000000000E+04  0.00000000000E+00 0.  1.
    9000005    2    1    2  501    0 -0.72638199845E+01 -0.43871746048E+02 -0.77584596560E+03  0.77712507367E+03  0.29874073742E+01 0.  0.
         13    1    3    3    0    0 -0.48277203303E+01 -0.32354683291E+02 -0.59095333636E+03  0.59185807265E+03  0.00000000000E+00 0.  1.
          1    1    3    3  501    0 -0.24360996543E+01 -0.11517062757E+02 -0.18489262924E+03  0.18526700101E+03  0.00000000000E+00 0.  1.
         -1    1    1    2    0  502  0.72638199845E+01  0.43871746048E+02 -0.22130266261E+03  0.22572629812E+03  0.00000000000E+00 0. -1.
<mgrwt>
<rscale>  1 0.30000000E+03</rscale>
<asrwt>0</asrwt>
<pdfrwt beam="1">  1       21 0.10368647E-01 0.30000000E+03</pdfrwt>
<pdfrwt beam="2">0</pdfrwt>
<totfact> 0.80637187E+03</totfact>
</mgrwt>
</event>
<event>
 6    1  0.1295671E-001  0.3000000E+03  0.7818608E-02  0.1093470E+00
         21   -1    0    0  501  502  0.00000000000E+00  0.00000000000E+00  0.32876358137E+01  0.32876358137E+01  0.00000000000E+00 0. -1.
         13   -1    0    0    0    0 -0.00000000000E+00 -0.00000000000E+00 -0.10000000000E+04  0.10000000000E+04  0.00000000000E+00 0.  1.
    9000005    2    1    2  501    0  0.23998321912E+02 -0.51005834921E+02 -0.57833949909E+03  0.58113438295E+03  0.79423040547E+01 0.  0.
         13    1    3    3    0    0  0.62980905247E+01 -0.22365072319E+02 -0.22817077751E+03  0.22935074910E+03  0.00000000000E+00 0.  1.
          1    1    3    3  501    0  0.17700231388E+02 -0.28640762603E+02 -0.35016872158E+03  0.35178363385E+03  0.00000000000E+00 0.  1.
         -1    1    1    2    0  502 -0.23998321912E+02  0.51005834921E+02 -0.41837286510E+03  0.42215325286E+03  0.00000000000E+00 0. -1.
<mgrwt>
<rscale>  1 0.30000000E+03</rscale>
<asrwt>0</asrwt>
<pdfrwt beam="1">  1       21 0.11955065E-01 0.30000000E+03</pdfrwt>
<pdfrwt beam="2">0</pdfrwt>
<totfact> 0.62394505E+03</totfact>
</mgrwt>
</event>
<event>
 6    1  0.1295671E-001  0.3000000E+03  0.7818608E-02  0.1093470E+00
         21   -1    0    0  501  502  0.00000000000E+00  0.00000000000E+00  0.10507490859E+01  0.10507490859E+01  0.00000000000E+00 0. -1.
         13   -1    0    0    0    0 -0.00000000000E+00 -0.00000000000E+00 -0.10000000000E+04  0.10000000000E+04  0.00000000000E+00 0.  1.
    9000005    2    1    2  501    0 -0.11737134772E+02  0.30044942113E+02 -0.47181539979E+03  0.47293091810E+03  0.36637326632E+01 0.  0.
         13    1    3    3    0    0 -0.11723286443E+02  0.29527568891E+02 -0.46843921816E+03  0.46951529674E+03  0.00000000000E+00 0.  1.
          3    1    3    3  501    0 -0.13848328695E-01  0.51737322177E+00 -0.33761816343E+01  0.34156213570E+01  0.00000000000E+00 0.  1.
         -3    1    1    2    0  502  0.11737134772E+02 -0.30044942113E+02 -0.52713385112E+03  0.52811983098E+03  0.00000000000E+00 0. -1.
<mgrwt>
<rscale>  1 0.30000000E+03</rscale>
<asrwt>0</asrwt>
<pdfrwt beam="1">  1       21 0.38209138E-02 0.30000000E+03</pdfrwt>
<pdfrwt beam="2">0</pdfrwt>
<totfact> 0.45415299E+04</totfact>
</mgrwt>
</event>
<event>
 6    1  0.1295671E-001  0.3000000E+03  0.7818608E-02  0.1093470E+00
         21   -1    0    0  501  502  0.00000000000E+00  0.00000000000E+00  0.15110392776E+01  0.15110392776E+01  0.00000000000E+00 0. -1.
         13   -1    0    0    0    0 -0.00000000000E+00 -0.00000000000E+00 -0.10000000000E+04  0.10000000000E+04  0.00000000000E+00 0.  1.
    9000005    2    1    2  501    0 -0.26423738430E+02  0.22715451665E+02 -0.71967126601E+03  0.72052436240E+03  0.37973671128E+01 0.  0.
         13    1    3    3    0    0 -0.11323220843E+02  0.84057362258E+01 -0.32355341560E+03  0.32386059420E+03  0.00000000000E+00 0.  1.
          3    1    3    3  501    0 -0.15100517587E+02  0.14309715439E+02 -0.39611785041E+03  0.39666376820E+03  0.00000000000E+00 0.  1.
         -3    1    1    2    0  502  0.26423738430E+02 -0.22715451665E+02 -0.27881769471E+03  0.28098667688E+03  0.00000000000E+00 0. -1.
<mgrwt>
<rscale>  1 0.30000000E+03</rscale>
<asrwt>0</asrwt>
<pdfrwt beam="1">  1       21 0.54946999E-02 0.30000000E+03</pdfrwt>
<pdfrwt beam="2">0</pdfrwt>
<totfact> 0.24514641E+04</totfact>
</mgrwt>
</event>
<event>
 6    1  0.1295671E-001  0.3000000E+03  0.7818608E-02  0.1093470E+00
         21   -1    0    0  501  502  0.00000000000E+00  0.00000000000E+00  0.98491283328E+00  0.98491283328E+00  0.00000000000E+00 0. -1.
         13   -1    0    0    0    0 -0.00000000000E+00 -0.00000000000E+00 -0.10000000000E+04  0.10000000000E+04  0.00000000000E+00 0.  1.
    9000005    2    1    2  501    0 -0.29476475609E+02  0.10372723888E+02 -0.52940957929E+03  0.53034089764E+03  0.32417655024E+01 0.  0.
         13    1    3    3    0    0 -0.95988955997E+01  0.18059104106E+01 -0.16837646337E+03  0.16865951952E+03  0.00000000000E+00 0.  1.
          3    1    3    3  501    0 -0.19877580009E+02  0.85668134775E+01 -0.36103311593E+03  0.36168137812E+03  0.00000000000E+00 0.  1.
         -3    1    1    2    0  502  0.29476475609E+02 -0.10372723888E+02 -0.46960550787E+03  0.47064401520E+03  0.00000000000E+00 0. -1.
<mgrwt>
<rscale>  1 0.30000000E+03</rscale>
<asrwt>0</asrwt>
<pdfrwt beam="1">  1       21 0.35815088E-02 0.30000000E+03</pdfrwt>
<pdfrwt beam="2">0</pdfrwt>
<totfact> 0.50625587E+04</totfact>
</mgrwt>
</event>
<event>
 6    1  0.1295671E-001  0.3000000E+03  0.7818608E-02  0.1093470E+00
         21   -1    0    0  501  502  0.00000000000E+00  0.00000000000E+00  0.20702261899E+01  0.20702261899E+01  0.00000000000E+00 0. -1.
         13   -1    0    0    0    0 -0.00000000000E+00 -0.00000000000E+00 -0.10000000000E+04  0.10000000000E+04  0.00000000000E+00 0.  1.
    9000005    2    1    2  501    0  0.19817694076E+02 -0.26350070160E+02 -0.84391800164E+03  0.84456881933E+03  0.34394615801E+01 0.  0.
         13    1    3    3    0    0  0.13599671108E+02 -0.16731490309E+02 -0.51386770313E+03  0.51431985198E+03  0.00000000000E+00 0.  1.
          3    1    3    3  501    0  0.62180229681E+01 -0.96185798513E+01 -0.33005029851E+03  0.33024896735E+03  0.00000000000E+00 0.  1.
         -1    1    1    2    0  502 -0.19817694076E+02  0.26350070160E+02 -0.15401177217E+03  0.15750140686E+03  0.00000000000E+00 0. -1.
<mgrwt>
<rscale>  1 0.30000000E+03</rscale>
<asrwt>0</asrwt>
<pdfrwt beam="1">  1       21 0.75281111E-02 0.30000000E+03</pdfrwt>
<pdfrwt beam="2">0</pdfrwt>
<totfact> 0.14211064E+04</totfact>
</mgrwt>
</event>
<event>
 6    1  0.1295671E-001  0.3000000E+03  0.7818608E-02  0.1093470E+00
         21   -1    0    0  501  502  0.00000000000E+00  0.00000000000E+00  0.15107770382E+01  0.15107770382E+01  0.00000000000E+00 0. -1.
         13   -1    0    0    0    0 -0.00000000000E+00 -0.00000000000E+00 -0.10000000000E+04  0.10000000000E+04  0.00000000000E+00 0.  1.
    9000005    2    1    2  501    0  0.32954430106E+02 -0.19692086309E+02 -0.56857008260E+03  0.56988102832E+03  0.43214450680E+01 0.  0.
         13    1    3    3    0    0  0.32607751133E+02 -0.19609167562E+02 -0.55329481902E+03  0.55460160623E+03  0.00000000000E+00 0.  1.
          1    1    3    3  501    0  0.34667897301E+00 -0.82918747663E-01 -0.15275263583E+02  0.15279422089E+02  0.00000000000E+00 0.  1.
         -1    1    1    2    0  502 -0.32954430106E+02  0.19692086309E+02 -0.42991914036E+03  0.43162974872E+03  0.00000000000E+00 0. -1.
<mgrwt>
<rscale>  1 0.30000000E+03</rscale>
<asrwt>0</asrwt>
<pdfrwt beam="1">  1       21 0.54937463E-02 0.30000000E+03</pdfrwt>
<pdfrwt beam="2">0</pdfrwt>
<totfact> 0.24521937E+04</totfact>
</mgrwt>
</event>
<event>
 6    1  0.1295671E-001  0.3000000E+03  0.7818608E-02  0.1093470E+00
         21   -1    0    0  501  502  0.00000000000E+00  0.00000000000E+00  0.97580797343E+00  0.97580797343E+00  0.00000000000E+00 0. -1.
         13   -1    0    0    0    0 -0.00000000000E+00 -0.00000000000E+00 -0.10000000000E+04  0.10000000000E+04  0.00000000000E+00 0.  1.
    9000005    2    1    2  501    0 -0.23274877302E+02 -0.19727015283E+02 -0.60257182717E+03  0.60335117010E+03  0.29920751869E+01 0.  0.
         13    1    3    3    0    0 -0.78836773560E+01 -0.85812674394E+01 -0.23090928150E+03  0.23120312888E+03  0.00000000000E+00 0.  1.
          1    1    3    3  501    0 -0.15391199946E+02 -0.11145747844E+02 -0.37166254566E+03  0.37214804122E+03  0.00000000000E+00 0.  1.
         -1    1    1    2    0  502  0.23274877302E+02  0.19727015283E+02 -0.39645236486E+03  0.39762463788E+03  0.00000000000E+00 0. -1.
<mgrwt>
<rscale>  1 0.30000000E+03</rscale>
<asrwt>0</asrwt>
<pdfrwt beam="1">  1       21 0.35484001E-02 0.30000000E+03</pdfrwt>
<pdfrwt beam="2">0</pdfrwt>
<totfact> 0.51419989E+04</totfact>
</mgrwt>
</event>
<event>
 6    1  0.1295671E-001  0.3000000E+03  0.7818608E-02  0.1093470E+00
         21   -1    0    0  501  502  0.00000000000E+00  0.00000000000E+00  0.14272624753E+01  0.14272624753E+01  0.00000000000E+00 0. -1.
         13   -1    0    0    0    0 -0.00000000000E+00 -0.00000000000E+00 -0.10000000000E+04  0.10000000000E+04  0.00000000000E+00 0.  1.
    9000005    2    1    2  501    0 -0.11499789048E+01 -0.30488167194E+02 -0.79389138187E+03  0.79448449710E+03  0.33524808128E+01 0.  0.
         13    1    3    3    0    0 -0.22452151026E+01 -0.15054600454E+02 -0.39361737792E+03  0.39391156646E+03  0.00000000000E+00 0.  1.
          1    1    3    3  501    0  0.10952361978E+01 -0.15433566740E+02 -0.40027400395E+03  0.40057293064E+03  0.00000000000E+00 0.  1.
         -1    1    1    2    0  502  0.11499789048E+01  0.30488167194E+02 -0.20468135565E+03  0.20694276538E+03  0.00000000000E+00 0. -1.
<mgrwt>
<rscale>  1 0.30000000E+03</rscale>
<asrwt>0</asrwt>
<pdfrwt beam="1">  1       21 0.51900563E-02 0.30000000E+03</pdfrwt>
<pdfrwt beam="2">0</pdfrwt>
<totfact> 0.27028113E+04</totfact>
</mgrwt>
</event>
<event>
 6    1  0.1295671E-001  0.3000000E+03  0.7818608E-02  0.1093470E+00
         21   -1    0    0  501  502  0.00000000000E+00  0.00000000000E+00  0.12612909473E+01  0.12612909473E+01  0.00000000000E+00 0. -1.
         13   -1    0    0    0    0 -0.00000000000E+00 -0.00000000000E+00 -0.10000000000E+04  0.10000000000E+04  0.00000000000E+00 0.  1.
    9000005    2    1    2  501    0 -0.18326146697E+02  0.24786903108E+02 -0.74572264618E+03  0.74637432327E+03  0.47039555097E+01 0.  0.
         13    1    3    3    0    0 -0.44253669626E+01  0.61442189669E+01 -0.23608514345E+03  0.23620654152E+03  0.00000000000E+00 0.  1.
          1    1    3    3  501    0 -0.13900779735E+02  0.18642684141E+02 -0.50963750273E+03  0.51016778175E+03  0.00000000000E+00 0.  1.
         -3    1    1    2    0  502  0.18326146697E+02 -0.24786903108E+02 -0.25301606288E+03  0.25488696768E+03  0.00000000000E+00 0. -1.
<mgrwt>
<rscale>  1 0.30000000E+03</rscale>
<asrwt>0</asrwt>
<pdfrwt beam="1">  1       21 0.45865222E-02 0.30000000E+03</pdfrwt>
<pdfrwt beam="2">0</pdfrwt>
<totfact> 0.33361677E+04</totfact>
</mgrwt>
</event>
<event>
 6    1  0.1295671E-001  0.3000000E+03  0.7818608E-02  0.1093470E+00
         21   -1    0    0  501  502  0.00000000000E+00  0.00000000000E+00  0.19660530376E+01  0.19660530376E+01  0.00000000000E+00 0. -1.
         13   -1    0    0    0    0 -0.00000000000E+00 -0.00000000000E+00 -0.10000000000E+04  0.10000000000E+04  0.00000000000E+00 0.  1.
    9000005    2    1    2  501    0  0.23105206326E+02  0.31996364275E+02 -0.72664883705E+03  0.72772620223E+03  0.30455125193E+01 0.  0.
         13    1    3    3    0    0  0.92254340974E+01  0.14230687289E+02 -0.28929753450E+03  0.28979421071E+03  0.00000000000E+00 0.  1.
          1    1    3    3  501    0  0.13879772229E+02  0.17765676987E+02 -0.43735130255E+03  0.43793199152E+03  0.00000000000E+00 0.  1.
         -3    1    1    2    0  502 -0.23105206326E+02 -0.31996364275E+02 -0.27138510991E+03  0.27423985080E+03  0.00000000000E+00 0. -1.
<mgrwt>
<rscale>  1 0.30000000E+03</rscale>
<asrwt>0</asrwt>
<pdfrwt beam="1">  1       21 0.71492988E-02 0.30000000E+03</pdfrwt>
<pdfrwt beam="2">0</pdfrwt>
<totfact> 0.15552916E+04</totfact>
</mgrwt>
</event>
<event>
 6    1  0.1295671E-001  0.3000000E+03  0.7818608E-02  0.1093470E+00
         21   -1    0    0  501  502  0.00000000000E+00  0.00000000000E+00  0.20289988745E+01  0.20289988745E+01  0.00000000000E+00 0. -1.
         13   -1    0    0    0    0 -0.00000000000E+00 -0.00000000000E+00 -0.10000000000E+04  0.10000000000E+04  0.00000000000E+00 0.  1.
    9000005    2    1    2  501    0  0.19513274222E+02 -0.36808375898E+02 -0.68848626957E+03  0.68975280146E+03  0.31558398751E+01 0.  0.
         13    1    3    3    0    0  0.74791988976E+01 -0.10986762233E+02 -0.21663832743E+03  0.21704564559E+03  0.00000000000E+00 0.  1.
          1    1    3    3  501    0  0.12034075324E+02 -0.25821613664E+02 -0.47184794214E+03  0.47270715586E+03  0.00000000000E+00 0.  1.
         -1    1    1    2    0  502 -0.19513274222E+02  0.36808375898E+02 -0.30948473156E+03  0.31227619742E+03  0.00000000000E+00 0. -1.
<mgrwt>
<rscale>  1 0.30000000E+03</rscale>
<asrwt>0</asrwt>
<pdfrwt beam="1">  1       21 0.73781933E-02 0.30000000E+03</pdfrwt>
<pdfrwt beam="2">0</pdfrwt>
<totfact> 0.14720266E+04</totfact>
</mgrwt>
</event>
<event>
 6    1  0.1295671E-001  0.3000000E+03  0.7818608E-02  0.1093470E+00
         21   -1    0    0  501  502  0.00000000000E+00  0.00000000000E+00  0.20470893546E+01  0.20470893546E+01  0.00000000000E+00 0. -1.
         13   -1    0    0    0    0 -0.00000000000E+00 -0.00000000000E+00 -0.10000000000E+04  0.10000000000E+04  0.00000000000E+00 0.  1.
    9000005    2    1    2  501    0  0.26835641753E+02 -0.20743255973E+02 -0.83029512518E+03  0.83099280743E+03  0.29354336343E+01 0.  0.
         13    1    3    3    0    0  0.15275526820E+02 -0.10357771640E+02 -0.42851696149E+03  0.42891422387E+03  0.00000000000E+00 0.  1.
          3    1    3    3  501    0  0.11560114933E+02 -0.10385484333E+02 -0.40177816369E+03  0.40207858356E+03  0.00000000000E+00 0.  1.
         -3    1    1    2    0  502 -0.26835641753E+02  0.20743255973E+02 -0.16765778547E+03  0.17105428192E+03  0.00000000000E+00 0. -1.
<mgrwt>
<rscale>  1 0.30000000E+03</rscale>
<asrwt>0</asrwt>
<pdfrwt beam="1">  1       21 0.74439770E-02 0.30000000E+03</pdfrwt>
<pdfrwt beam="2">0</pdfrwt>
<totfact> 0.14493453E+04</totfact>
</mgrwt>
</event>
<event>
 6    1  0.1295671E-001  0.3000000E+03  0.7818608E-02  0.1093470E+00
         21   -1    0    0  501  502  0.00000000000E+00  0.00000000000E+00  0.13870349480E+01  0.13870349480E+01  0.00000000000E+00 0. -1.
         13   -1    0    0    0    0 -0.00000000000E+00 -0.00000000000E+00 -0.10000000000E+04  0.10000000000E+04  0.00000000000E+00 0.  1.
    9000005    2    1    2  501    0  0.19436611293E+02 -0.31674728056E+02 -0.50801494652E+03  0.50938349223E+03  0.33594666742E+01 0.  0.
         13    1    3    3    0    0  0.79458449194E+01 -0.10149505330E+02 -0.18441904956E+03  0.18486896644E+03  0.00000000000E+00 0.  1.
          1    1    3    3  501    0  0.11490766374E+02 -0.21525222726E+02 -0.32359589696E+03  0.32451452580E+03  0.00000000000E+00 0.  1.
         -1    1    1    2    0  502 -0.19436611293E+02  0.31674728056E+02 -0.49059801853E+03  0.49200354272E+03  0.00000000000E+00 0. -1.
<mgrwt>
<rscale>  1 0.30000000E+03</rscale>
<asrwt>0</asrwt>
<pdfrwt beam="1">  1       21 0.50437741E-02 0.30000000E+03</pdfrwt>
<pdfrwt beam="2">0</pdfrwt>
<totfact> 0.28379702E+04</totfact>
</mgrwt>
</event>
<event>
 6    1  0.1295671E-001  0.3000000E+03  0.7818608E-02  0.1093470E+00
         21   -1    0    0  501  502  0.00000000000E+00  0.00000000000E+00  0.20411084400E+01  0.20411084400E+01  0.00000000000E+00 0. -1.
         13   -1    0    0    0    0 -0.00000000000E+00 -0.00000000000E+00 -0.10000000000E+04  0.10000000000E+04  0.00000000000E+00 0.  1.
    9000005    2    1    2  501    0  0.36152806814E+01  0.36982419870E+02 -0.78364414402E+03  0.78452885442E+03  0.25708624479E+01 0.  0.
         13    1    3    3    0    0  0.22456462740E+01  0.28503154473E+02 -0.62167848740E+03  0.62233561238E+03  0.00000000000E+00 0.  1.
          1    1    3    3  501    0  0.13696344074E+01  0.84792653965E+01 -0.16196565662E+03  0.16219324204E+03  0.00000000000E+00 0.  1.
         -1    1    1    2    0  502 -0.36152806814E+01 -0.36982419870E+02 -0.21431474754E+03  0.21751225402E+03  0.00000000000E+00 0. -1.
<mgrwt>
<rscale>  1 0.30000000E+03</rscale>
<asrwt>0</asrwt>
<pdfrwt beam="1">  1       21 0.74222282E-02 0.30000000E+03</pdfrwt>
<pdfrwt beam="2">0</pdfrwt>
<totfact> 0.14567851E+04</totfact>
</mgrwt>
</event>
<event>
 6    1  0.1295671E-001  0.3000000E+03  0.7818608E-02  0.1093470E+00
         21   -1    0    0  501  502  0.00000000000E+00  0.00000000000E+00  0.11482558058E+01  0.11482558058E+01  0.00000000000E+00 0. -1.
         13   -1    0    0    0    0 -0.00000000000E+00 -0.00000000000E+00 -0.10000000000E+04  0.10000000000E+04  0.00000000000E+00 0.  1.
    9000005    2    1    2  501    0  0.12782103364E+02  0.29012386792E+02 -0.67442141629E+03  0.67517258430E+03  0.29446693039E+01 0.  0.
         13    1    3    3    0    0  0.12404655352E+02  0.27218372763E+02 -0.62143444241E+03  0.62215390499E+03  0.00000000000E+00 0.  1.
          1    1    3    3  501    0  0.37744801245E+00  0.17940140291E+01 -0.52986973888E+02  0.53018679304E+02  0.00000000000E+00 0.  1.
         -3    1    1    2    0  502 -0.12782103364E+02 -0.29012386792E+02 -0.32443032790E+03  0.32597567151E+03  0.00000000000E+00 0. -1.
<mgrwt>
<rscale>  1 0.30000000E+03</rscale>
<asrwt>0</asrwt>
<pdfrwt beam="1">  1       21 0.41754845E-02 0.30000000E+03</pdfrwt>
<pdfrwt beam="2">0</pdfrwt>
<totfact> 0.39111118E+04</totfact>
</mgrwt>
</event>
<event>
 6    1  0.1295671E-001  0.3000000E+03  0.7818608E-02  0.1093470E+00
         21   -1    0    0  501  502  0.00000000000E+00  0.00000000000E+00  0.11094995174E+01  0.11094995174E+01  0.00000000000E+00 0. -1.
         13   -1    0    0    0    0 -0.00000000000E+00 -0.00000000000E+00 -0.10000000000E+04  0.10000000000E+04  0.00000000000E+00 0.  1.
    9000005    2    1    2  501    0 -0.25786788899E+01  0.31786845707E+02 -0.64096409459E+03  0.64176514492E+03  0.32369024700E+01 0.  0.
         13    1    3    3    0    0 -0.21107345480E+01  0.16242377033E+02 -0.35698471258E+03  0.35736025944E+03  0.00000000000E+00 0.  1.
          3    1    3    3  501    0 -0.46794434198E+00  0.15544468674E+02 -0.28397938201E+03  0.28440488548E+03  0.00000000000E+00 0.  1.
         -3    1    1    2    0  502  0.25786788899E+01 -0.31786845707E+02 -0.35792640590E+03  0.35934435460E+03  0.00000000000E+00 0. -1.
<mgrwt>
<rscale>  1 0.30000000E+03</rscale>
<asrwt>0</asrwt>
<pdfrwt beam="1">  1       21 0.40345522E-02 0.30000000E+03</pdfrwt>
<pdfrwt beam="2">0</pdfrwt>
<totfact> 0.41442556E+04</totfact>
</mgrwt>
</event>
<event>
 6    1  0.1295671E-001  0.3000000E+03  0.7818608E-02  0.1093470E+00
         21   -1    0    0  501  502  0.00000000000E+00  0.00000000000E+00  0.72252790512E+01  0.72252790512E+01  0.00000000000E+00 0. -1.
         13   -1    0    0    0    0 -0.00000000000E+00 -0.00000000000E+00 -0.10000000000E+04  0.10000000000E+04  0.00000000000E+00 0.  1.
    9000005    2    1    2  501    0 -0.57698458274E+02  0.13397667048E+02 -0.85755306371E+03  0.85959904101E+03  0.21551498766E+01 0.  0.
         13    1    3    3    0    0 -0.25942085572E+02  0.52004381090E+01 -0.37263084053E+03  0.37356897579E+03  0.00000000000E+00 0.  1.
          1    1    3    3  501    0 -0.31756372702E+02  0.81972289394E+01 -0.48492222317E+03  0.48603006522E+03  0.00000000000E+00 0.  1.
         -1    1    1    2    0  502  0.57698458274E+02 -0.13397667048E+02 -0.13522165724E+03  0.14762623804E+03  0.00000000000E+00 0. -1.
<mgrwt>
<rscale>  1 0.30000000E+03</rscale>
<asrwt>0</asrwt>
<pdfrwt beam="1">  1       21 0.26273797E-01 0.30000000E+03</pdfrwt>
<pdfrwt beam="2">0</pdfrwt>
<totfact> 0.14145379E+03</totfact>
</mgrwt>
</event>
<event>
 6    1  0.1295671E-001  0.3000000E+03  0.7818608E-02  0.1093470E+00
         21   -1    0    0  501  502  0.00000000000E+00  0.00000000000E+00  0.48793013598E+01  0.48793013598E+01  0.00000000000E+00 0. -1.
         13   -1    0    0    0    0 -0.00000000000E+00 -0.00000000000E+00 -0.10000000000E+04  0.10000000000E+04  0.00000000000E+00 0.  1.
    9000005    2    1    2  501    0 -0.12082294382E+02  0.32802627445E+02 -0.93241708734E+03  0.93308976818E+03  0.57355474250E+01 0.  0.
         13    1    3    3    0    0 -0.41206305126E+01  0.55516418228E+01 -0.21509548192E+03  0.21520656743E+03  0.00000000000E+00 0.  1.
          1    1    3    3  501    0 -0.79616638698E+01  0.27250985622E+02 -0.71732160542E+03  0.71788320075E+03  0.00000000000E+00 0.  1.
         -1    1    1    2    0  502  0.12082294382E+02 -0.32802627445E+02 -0.62703611300E+02  0.71789533185E+02  0.00000000000E+00 0. -1.
<mgrwt>
<rscale>  1 0.30000000E+03</rscale>
<asrwt>0</asrwt>
<pdfrwt beam="1">  1       21 0.17742951E-01 0.30000000E+03</pdfrwt>
<pdfrwt beam="2">0</pdfrwt>
<totfact> 0.30099365E+03</totfact>
</mgrwt>
</event>
<event>
 6    1  0.1295671E-001  0.3000000E+03  0.7818608E-02  0.1093470E+00
         21   -1    0    0  501  502  0.00000000000E+00  0.00000000000E+00  0.14514449832E+01  0.14514449832E+01  0.00000000000E+00 0. -1.
         13   -1    0    0    0    0 -0.00000000000E+00 -0.00000000000E+00 -0.10000000000E+04  0.10000000000E+04  0.00000000000E+00 0.  1.
    9000005    2    1    2  501    0 -0.35545675325E+02 -0.11387310865E+02 -0.40469335137E+03  0.40642441301E+03  0.33058981552E+01 0.  0.
         13    1    3    3    0    0 -0.92541774065E+01 -0.14648135815E+01 -0.10050889240E+03  0.10094465281E+03  0.00000000000E+00 0.  1.
          1    1    3    3  501    0 -0.26291497918E+02 -0.99224972837E+01 -0.30418445897E+03  0.30547976020E+03  0.00000000000E+00 0.  1.
         -3    1    1    2    0  502  0.35545675325E+02  0.11387310865E+02 -0.59385520364E+03  0.59502703197E+03  0.00000000000E+00 0. -1.
<mgrwt>
<rscale>  1 0.30000000E+03</rscale>
<asrwt>0</asrwt>
<pdfrwt beam="1">  1       21 0.52779929E-02 0.30000000E+03</pdfrwt>
<pdfrwt beam="2">0</pdfrwt>
<totfact> 0.26263078E+04</totfact>
</mgrwt>
</event>
<event>
 6    1  0.1295671E-001  0.3000000E+03  0.7818608E-02  0.1093470E+00
         21   -1    0    0  501  502  0.00000000000E+00  0.00000000000E+00  0.23110661015E+01  0.23110661015E+01  0.00000000000E+00 0. -1.
         13   -1    0    0    0    0 -0.00000000000E+00 -0.00000000000E+00 -0.10000000000E+04  0.10000000000E+04  0.00000000000E+00 0.  1.
    9000005    2    1    2  501    0  0.42645462488E+02 -0.11453528855E+02 -0.30300149522E+03  0.30622166362E+03  0.34615557975E+01 0.  0.
         13    1    3    3    0    0  0.31588652881E+02 -0.70603406354E+01 -0.22617831759E+03  0.22848265306E+03  0.00000000000E+00 0.  1.
          1    1    3    3  501    0  0.11056809607E+02 -0.43931882191E+01 -0.76823177631E+02  0.77739010560E+02  0.00000000000E+00 0.  1.
         -1    1    1    2    0  502 -0.42645462488E+02  0.11453528855E+02 -0.69468743868E+03  0.69608940248E+03  0.00000000000E+00 0. -1.
<mgrwt>
<rscale>  1 0.30000000E+03</rscale>
<asrwt>0</asrwt>
<pdfrwt beam="1">  1       21 0.84038945E-02 0.30000000E+03</pdfrwt>
<pdfrwt beam="2">0</pdfrwt>
<totfact> 0.11713702E+04</totfact>
</mgrwt>
</event>
<event>
 6    1  0.1295671E-001  0.3000000E+03  0.7818608E-02  0.1093470E+00
         21   -1    0    0  501  502  0.00000000000E+00  0.00000000000E+00  0.13252197044E+01  0.13252197044E+01  0.00000000000E+00 0. -1.
         13   -1    0    0    0    0 -0.00000000000E+00 -0.00000000000E+00 -0.10000000000E+04  0.10000000000E+04  0.00000000000E+00 0.  1.
    9000005    2    1    2  501    0  0.35930713584E+02 -0.31226913119E+01 -0.54467949140E+03  0.54589960589E+03  0.54647944602E+01 0.  0.
         13    1    3    3    0    0  0.21347376198E+02 -0.30833998753E+01 -0.28831760786E+03  0.28912326234E+03  0.00000000000E+00 0.  1.
          1    1    3    3  501    0  0.14583337386E+02 -0.39291436543E-01 -0.25636188354E+03  0.25677634355E+03  0.00000000000E+00 0.  1.
         -1    1    1    2    0  502 -0.35930713584E+02  0.31226913119E+01 -0.45399528890E+03  0.45542561382E+03  0.00000000000E+00 0. -1.
<mgrwt>
<rscale>  1 0.30000000E+03</rscale>
<asrwt>0</asrwt>
<pdfrwt beam="1">  1       21 0.48189909E-02 0.30000000E+03</pdfrwt>
<pdfrwt beam="2">0</pdfrwt>
<totfact> 0.30671747E+04</totfact>
</mgrwt>
</event>
<event>
 6    1  0.1295671E-001  0.3000000E+03  0.7818608E-02  0.1093470E+00
         21   -1    0    0  501  502  0.00000000000E+00  0.00000000000E+00  0.47706785826E+01  0.47706785826E+01  0.00000000000E+00 0. -1.
         13   -1    0    0    0    0 -0.00000000000E+00 -0.00000000000E+00 -0.10000000000E+04  0.10000000000E+04  0.00000000000E+00 0.  1.
    9000005    2    1    2  501    0 -0.44506210333E+02 -0.20419469496E+02 -0.85172187987E+03  0.85313907478E+03  0.42851804710E+01 0.  0.
         13    1    3    3    0    0 -0.15265509324E+02 -0.61234327835E+01 -0.25454531162E+03  0.25507616093E+03  0.00000000000E+00 0.  1.
          1    1    3    3  501    0 -0.29240701010E+02 -0.14296036713E+02 -0.59717656825E+03  0.59806291386E+03  0.00000000000E+00 0.  1.
         -1    1    1    2    0  502  0.44506210333E+02  0.20419469496E+02 -0.14350744154E+03  0.15163160380E+03  0.00000000000E+00 0. -1.
<mgrwt>
<rscale>  1 0.30000000E+03</rscale>
<asrwt>0</asrwt>
<pdfrwt beam="1">  1       21 0.17347959E-01 0.30000000E+03</pdfrwt>
<pdfrwt beam="2">0</pdfrwt>
<totfact> 0.31399600E+03</totfact>
</mgrwt>
</event>
<event>
 6    1  0.1295671E-001  0.3000000E+03  0.7818608E-02  0.1093470E+00
         21   -1    0    0  501  502  0.00000000000E+00  0.00000000000E+00  0.14377192623E+01  0.14377192623E+01  0.00000000000E+00 0. -1.
         13   -1    0    0    0    0 -0.00000000000E+00 -0.00000000000E+00 -0.10000000000E+04  0.10000000000E+04  0.00000000000E+00 0.  1.
    9000005    2    1    2  501    0  0.99461805508E+01 -0.31386013096E+02 -0.25274386747E+03  0.25489293568E+03  0.26339684845E+01 0.  0.
         13    1    3    3    0    0  0.34224225552E+01 -0.11335733146E+02 -0.10079245566E+03  0.10148561937E+03  0.00000000000E+00 0.  1.
          3    1    3    3  501    0  0.65237579956E+01 -0.20050279950E+02 -0.15195141182E+03  0.15340731631E+03  0.00000000000E+00 0.  1.
         -1    1    1    2    0  502 -0.99461805508E+01  0.31386013096E+02 -0.74581841326E+03  0.74654478358E+03  0.00000000000E+00 0. -1.
<mgrwt>
<rscale>  1 0.30000000E+03</rscale>
<asrwt>0</asrwt>
<pdfrwt beam="1">  1       21 0.52280811E-02 0.30000000E+03</pdfrwt>
<pdfrwt beam="2">0</pdfrwt>
<totfact> 0.26693120E+04</totfact>
</mgrwt>
</event>
<event>
 6    1  0.1295671E-001  0.3000000E+03  0.7818608E-02  0.1093470E+00
         21   -1    0    0  501  502  0.00000000000E+00  0.00000000000E+00  0.18869254405E+01  0.18869254405E+01  0.00000000000E+00 0. -1.
         13   -1    0    0    0    0 -0.00000000000E+00 -0.00000000000E+00 -0.10000000000E+04  0.10000000000E+04  0.00000000000E+00 0.  1.
    9000005    2    1    2  501    0  0.28540562958E+02 -0.27531716601E+02 -0.70248651434E+03  0.70361251779E+03  0.32731034330E+01 0.  0.
         13    1    3    3    0    0  0.25139077465E+02 -0.24939330698E+02 -0.64108595014E+03  0.64206318918E+03  0.00000000000E+00 0.  1.
          3    1    3    3  501    0  0.34014854931E+01 -0.25923859037E+01 -0.61400564204E+02  0.61549328614E+02  0.00000000000E+00 0.  1.
         -1    1    1    2    0  502 -0.28540562958E+02  0.27531716601E+02 -0.29562656022E+03  0.29827440765E+03  0.00000000000E+00 0. -1.
<mgrwt>
<rscale>  1 0.30000000E+03</rscale>
<asrwt>0</asrwt>
<pdfrwt beam="1">  1       21 0.68615615E-02 0.30000000E+03</pdfrwt>
<pdfrwt beam="2">0</pdfrwt>
<totfact> 0.16705610E+04</totfact>
</mgrwt>
</event>
<event>
 6    1  0.1295671E-001  0.3000000E+03  0.7818608E-02  0.1093470E+00
         21   -1    0    0  501  502  0.00000000000E+00  0.00000000000E+00  0.15526242617E+01  0.15526242617E+01  0.00000000000E+00 0. -1.
         13   -1    0    0    0    0 -0.00000000000E+00 -0.00000000000E+00 -0.10000000000E+04  0.10000000000E+04  0.00000000000E+00 0.  1.
    9000005    2    1    2  501    0 -0.93266183068E+00  0.38847689347E+02 -0.42346228422E+03  0.42525594000E+03  0.35064969060E+01 0.  0.
         13    1    3    3    0    0  0.24638185391E+00  0.17260178102E+02 -0.17059332426E+03  0.17146444743E+03  0.00000000000E+00 0.  1.
          1    1    3    3  501    0 -0.11790436846E+01  0.21587511245E+02 -0.25286895997E+03  0.25379149257E+03  0.00000000000E+00 0.  1.
         -1    1    1    2    0  502  0.93266183068E+00 -0.38847689347E+02 -0.57498509152E+03  0.57629668426E+03  0.00000000000E+00 0. -1.
<mgrwt>
<rscale>  1 0.30000000E+03</rscale>
<asrwt>0</asrwt>
<pdfrwt beam="1">  1       21 0.56459183E-02 0.30000000E+03</pdfrwt>
<pdfrwt beam="2">0</pdfrwt>
<totfact> 0.23398551E+04</totfact>
</mgrwt>
</event>
<event>
 6    1  0.1295671E-001  0.3000000E+03  0.7818608E-02  0.1093470E+00
         21   -1    0    0  501  502  0.00000000000E+00  0.00000000000E+00  0.17653312817E+01  0.17653312817E+01  0.00000000000E+00 0. -1.
         13   -1    0    0    0    0 -0.00000000000E+00 -0.00000000000E+00 -0.10000000000E+04  0.10000000000E+04  0.00000000000E+00 0.  1.
    9000005    2    1    2  501    0 -0.16916714113E+02  0.34539778103E+02 -0.69963717819E+03  0.70070116397E+03  0.32815543618E+01 0.  0.
         13    1    3    3    0    0 -0.55952933053E+01  0.10611529738E+02 -0.24592074213E+03  0.24621316634E+03  0.00000000000E+00 0.  1.
          3    1    3    3  501    0 -0.11321420807E+02  0.23928248365E+02 -0.45371643607E+03  0.45448799764E+03  0.00000000000E+00 0.  1.
         -3    1    1    2    0  502  0.16916714113E+02 -0.34539778103E+02 -0.29859749053E+03  0.30106416731E+03  0.00000000000E+00 0. -1.
<mgrwt>
<rscale>  1 0.30000000E+03</rscale>
<asrwt>0</asrwt>
<pdfrwt beam="1">  1       21 0.64194000E-02 0.30000000E+03</pdfrwt>
<pdfrwt beam="2">0</pdfrwt>
<totfact> 0.18750637E+04</totfact>
</mgrwt>
</event>
<event>
 6    1  0.1295671E-001  0.3000000E+03  0.7818608E-02  0.1093470E+00
         21   -1    0    0  501  502  0.00000000000E+00  0.00000000000E+00  0.20327689389E+01  0.20327689389E+01  0.00000000000E+00 0. -1.
         13   -1    0    0    0    0 -0.00000000000E+00 -0.00000000000E+00 -0.10000000000E+04  0.10000000000E+04  0.00000000000E+00 0.  1.
    9000005    2    1    2  501    0  0.57433043638E+01  0.44194280214E+02 -0.57139831395E+03  0.57314215235E+03  0.31262873015E+01 0.  0.
         13    1    3    3    0    0  0.32827387689E+01  0.34661000577E+02 -0.43946928007E+03  0.44084624243E+03  0.00000000000E+00 0.  1.
          3    1    3    3  501    0  0.24605655949E+01  0.95332796365E+01 -0.13192903388E+03  0.13229590993E+03  0.00000000000E+00 0.  1.
         -1    1    1    2    0  502 -0.57433043638E+01 -0.44194280214E+02 -0.42656891711E+03  0.42889061658E+03  0.00000000000E+00 0. -1.
<mgrwt>
<rscale>  1 0.30000000E+03</rscale>
<asrwt>0</asrwt>
<pdfrwt beam="1">  1       21 0.73919026E-02 0.30000000E+03</pdfrwt>
<pdfrwt beam="2">0</pdfrwt>
<totfact> 0.14672557E+04</totfact>
</mgrwt>
</event>
<event>
 6    1  0.1295671E-001  0.3000000E+03  0.7818608E-02  0.1093470E+00
         21   -1    0    0  501  502  0.00000000000E+00  0.00000000000E+00  0.21481649174E+01  0.21481649174E+01  0.00000000000E+00 0. -1.
         13   -1    0    0    0    0 -0.00000000000E+00 -0.00000000000E+00 -0.10000000000E+04  0.10000000000E+04  0.00000000000E+00 0.  1.
    9000005    2    1    2  501    0 -0.78533460577E+01 -0.45131273777E+02 -0.57138604147E+03  0.57322908160E+03  0.33263616460E+01 0.  0.
         13    1    3    3    0    0 -0.17827501705E+01 -0.18674320618E+02 -0.22401665736E+03  0.22480073671E+03  0.00000000000E+00 0.  1.
          3    1    3    3  501    0 -0.60705958872E+01 -0.26456953159E+02 -0.34736938411E+03  0.34842834489E+03  0.00000000000E+00 0.  1.
         -3    1    1    2    0  502  0.78533460577E+01  0.45131273777E+02 -0.42646579361E+03  0.42891908332E+03  0.00000000000E+00 0. -1.
<mgrwt>
<rscale>  1 0.30000000E+03</rscale>
<asrwt>0</asrwt>
<pdfrwt beam="1">  1       21 0.78115253E-02 0.30000000E+03</pdfrwt>
<pdfrwt beam="2">0</pdfrwt>
<totfact> 0.13319784E+04</totfact>
</mgrwt>
</event>
<event>
 6    1  0.1295671E-001  0.3000000E+03  0.7818608E-02  0.1093470E+00
         21   -1    0    0  501  502  0.00000000000E+00  0.00000000000E+00  0.32741533434E+01  0.32741533434E+01  0.00000000000E+00 0. -1.
         13   -1    0    0    0    0 -0.00000000000E+00 -0.00000000000E+00 -0.10000000000E+04  0.10000000000E+04  0.00000000000E+00 0.  1.
    9000005    2    1    2  501    0 -0.34788545057E+01  0.32886777987E+02 -0.90722911430E+03  0.90786289773E+03  0.75321077576E+01 0.  0.
         13    1    3    3    0    0 -0.20234012185E+01  0.30778190164E+02 -0.86948176786E+03  0.87002869825E+03  0.00000000000E+00 0.  1.
          3    1    3    3  501    0 -0.14554532872E+01  0.21085878235E+01 -0.37747346446E+02  0.37834199484E+02  0.00000000000E+00 0.  1.
         -3    1    1    2    0  502  0.34788545057E+01 -0.32886777987E+02 -0.89496732353E+02  0.95411255609E+02  0.00000000000E+00 0. -1.
<mgrwt>
<rscale>  1 0.30000000E+03</rscale>
<asrwt>0</asrwt>
<pdfrwt beam="1">  1       21 0.11906037E-01 0.30000000E+03</pdfrwt>
<pdfrwt beam="2">0</pdfrwt>
<totfact> 0.62861284E+03</totfact>
</mgrwt>
</event>
<event>
 6    1  0.1295671E-001  0.3000000E+03  0.7818608E-02  0.1093470E+00
         21   -1    0    0  501  502  0.00000000000E+00  0.00000000000E+00  0.17216076153E+01  0.17216076153E+01  0.00000000000E+00 0. -1.
         13   -1    0    0    0    0 -0.00000000000E+00 -0.00000000000E+00 -0.10000000000E+04  0.10000000000E+04  0.00000000000E+00 0.  1.
    9000005    2    1    2  501    0  0.31734535725E+02  0.11113208306E+02 -0.78771377873E+03  0.78848924450E+03  0.95763945901E+01 0.  0.
         13    1    3    3    0    0  0.13385904575E+02  0.62047159144E+01 -0.44995730449E+03  0.45019913017E+03  0.00000000000E+00 0.  1.
          1    1    3    3  501    0  0.18348631150E+02  0.49084923918E+01 -0.33775647423E+03  0.33829011432E+03  0.00000000000E+00 0.  1.
         -3    1    1    2    0  502 -0.31734535725E+02 -0.11113208306E+02 -0.21056461366E+03  0.21323236312E+03  0.00000000000E+00 0. -1.
<mgrwt>
<rscale>  1 0.30000000E+03</rscale>
<asrwt>0</asrwt>
<pdfrwt beam="1">  1       21 0.62604045E-02 0.30000000E+03</pdfrwt>
<pdfrwt beam="2">0</pdfrwt>
<totfact> 0.19581610E+04</totfact>
</mgrwt>
</event>
<event>
 6    1  0.1295671E-001  0.3000000E+03  0.7818608E-02  0.1093470E+00
         21   -1    0    0  501  502  0.00000000000E+00  0.00000000000E+00  0.15347043012E+01  0.15347043012E+01  0.00000000000E+00 0. -1.
         13   -1    0    0    0    0 -0.00000000000E+00 -0.00000000000E+00 -0.10000000000E+04  0.10000000000E+04  0.00000000000E+00 0.  1.
    9000005    2    1    2  501    0 -0.88781101771E+01  0.34827050459E+02 -0.69695748792E+03  0.69789231194E+03  0.34921083728E+01 0.  0.
         13    1    3    3    0    0 -0.89062985192E+01  0.33635196311E+02 -0.68220563273E+03  0.68309236118E+03  0.00000000000E+00 0.  1.
          1    1    3    3  501    0  0.28188342112E-01  0.11918541474E+01 -0.14751855192E+02  0.14799950760E+02  0.00000000000E+00 0.  1.
         -1    1    1    2    0  502  0.88781101771E+01 -0.34827050459E+02 -0.30150780778E+03  0.30364239236E+03  0.00000000000E+00 0. -1.
<mgrwt>
<rscale>  1 0.30000000E+03</rscale>
<asrwt>0</asrwt>
<pdfrwt beam="1">  1       21 0.55807547E-02 0.30000000E+03</pdfrwt>
<pdfrwt beam="2">0</pdfrwt>
<totfact> 0.23869721E+04</totfact>
</mgrwt>
</event>
<event>
 6    1  0.1295671E-001  0.3000000E+03  0.7818608E-02  0.1093470E+00
         21   -1    0    0  501  502  0.00000000000E+00  0.00000000000E+00  0.17565586702E+01  0.17565586702E+01  0.00000000000E+00 0. -1.
         13   -1    0    0    0    0 -0.00000000000E+00 -0.00000000000E+00 -0.10000000000E+04  0.10000000000E+04  0.00000000000E+00 0.  1.
    9000005    2    1    2  501    0 -0.29419693993E+02  0.18997204240E+02 -0.77392505850E+03  0.77472099088E+03  0.24910604642E+01 0.  0.
         13    1    3    3    0    0 -0.34890829826E+01  0.14263832893E+01 -0.90718296875E+02  0.90796572938E+02  0.00000000000E+00 0.  1.
          3    1    3    3  501    0 -0.25930611010E+02  0.17570820950E+02 -0.68320676162E+03  0.68392441794E+03  0.00000000000E+00 0.  1.
         -3    1    1    2    0  502  0.29419693993E+02 -0.18997204240E+02 -0.22431838283E+03  0.22703556779E+03  0.00000000000E+00 0. -1.
<mgrwt>
<rscale>  1 0.30000000E+03</rscale>
<asrwt>0</asrwt>
<pdfrwt beam="1">  1       21 0.63874995E-02 0.30000000E+03</pdfrwt>
<pdfrwt beam="2">0</pdfrwt>
<totfact> 0.18912930E+04</totfact>
</mgrwt>
</event>
<event>
 6    1  0.1295671E-001  0.3000000E+03  0.7818608E-02  0.1093470E+00
         21   -1    0    0  501  502  0.00000000000E+00  0.00000000000E+00  0.11687429391E+01  0.11687429391E+01  0.00000000000E+00 0. -1.
         13   -1    0    0    0    0 -0.00000000000E+00 -0.00000000000E+00 -0.10000000000E+04  0.10000000000E+04  0.00000000000E+00 0.  1.
    9000005    2    1    2  501    0 -0.11118451714E+02 -0.29385260577E+02 -0.69066268431E+03  0.69140273005E+03  0.59731163852E+01 0.  0.
         13    1    3    3    0    0 -0.42092039455E+01 -0.64069717657E+01 -0.21276579665E+03  0.21290385367E+03  0.00000000000E+00 0.  1.
          1    1    3    3  501    0 -0.69092477689E+01 -0.22978288811E+02 -0.47789688766E+03  0.47849887638E+03  0.00000000000E+00 0.  1.
         -3    1    1    2    0  502  0.11118451714E+02  0.29385260577E+02 -0.30816857276E+03  0.30976601289E+03  0.00000000000E+00 0. -1.
<mgrwt>
<rscale>  1 0.30000000E+03</rscale>
<asrwt>0</asrwt>
<pdfrwt beam="1">  1       21 0.42499833E-02 0.30000000E+03</pdfrwt>
<pdfrwt beam="2">0</pdfrwt>
<totfact> 0.37960197E+04</totfact>
</mgrwt>
</event>
<event>
 6    1  0.1295671E-001  0.3000000E+03  0.7818608E-02  0.1093470E+00
         21   -1    0    0  501  502  0.00000000000E+00  0.00000000000E+00  0.32412243283E+01  0.32412243283E+01  0.00000000000E+00 0. -1.
         13   -1    0    0    0    0 -0.00000000000E+00 -0.00000000000E+00 -0.10000000000E+04  0.10000000000E+04  0.00000000000E+00 0.  1.
    9000005    2    1    2  501    0  0.11708832128E+01 -0.56123473152E+02 -0.57973601976E+03  0.58245720116E+03  0.33650213551E+01 0.  0.
         13    1    3    3    0    0 -0.79727003752E+00 -0.32862166685E+02 -0.33126776814E+03  0.33289471586E+03  0.00000000000E+00 0.  1.
          3    1    3    3  501    0  0.19681532503E+01 -0.23261306467E+02 -0.24846825161E+03  0.24956248529E+03  0.00000000000E+00 0.  1.
         -3    1    1    2    0  502 -0.11708832128E+01  0.56123473152E+02 -0.41702275591E+03  0.42078402317E+03  0.00000000000E+00 0. -1.
<mgrwt>
<rscale>  1 0.30000000E+03</rscale>
<asrwt>0</asrwt>
<pdfrwt beam="1">  1       21 0.11786295E-01 0.30000000E+03</pdfrwt>
<pdfrwt beam="2">0</pdfrwt>
<totfact> 0.64023427E+03</totfact>
</mgrwt>
</event>
<event>
 6    1  0.1295671E-001  0.3000000E+03  0.7818608E-02  0.1093470E+00
         21   -1    0    0  501  502  0.00000000000E+00  0.00000000000E+00  0.11593082115E+01  0.11593082115E+01  0.00000000000E+00 0. -1.
         13   -1    0    0    0    0 -0.00000000000E+00 -0.00000000000E+00 -0.10000000000E+04  0.10000000000E+04  0.00000000000E+00 0.  1.
    9000005    2    1    2  501    0 -0.26971328618E+02 -0.19402890664E+02 -0.60546067620E+03  0.60637865849E+03  0.29192993685E+01 0.  0.
         13    1    3    3    0    0 -0.17235874989E+02 -0.11445284760E+02 -0.39774148084E+03  0.39827924314E+03  0.00000000000E+00 0.  1.
          1    1    3    3  501    0 -0.97354536285E+01 -0.79576059040E+01 -0.20771919536E+03  0.20809941535E+03  0.00000000000E+00 0.  1.
         -1    1    1    2    0  502  0.26971328618E+02  0.19402890664E+02 -0.39338001559E+03  0.39478064973E+03  0.00000000000E+00 0. -1.
<mgrwt>
<rscale>  1 0.30000000E+03</rscale>
<asrwt>0</asrwt>
<pdfrwt beam="1">  1       21 0.42156751E-02 0.30000000E+03</pdfrwt>
<pdfrwt beam="2">0</pdfrwt>
<totfact> 0.38483584E+04</totfact>
</mgrwt>
</event>
<event>
 6    1  0.1295671E-001  0.3000000E+03  0.7818608E-02  0.1093470E+00
         21   -1    0    0  501  502  0.00000000000E+00  0.00000000000E+00  0.19443550747E+01  0.19443550747E+01  0.00000000000E+00 0. -1.
         13   -1    0    0    0    0 -0.00000000000E+00 -0.00000000000E+00 -0.10000000000E+04  0.10000000000E+04  0.00000000000E+00 0.  1.
    9000005    2    1    2  501    0  0.30831387899E+02 -0.21946341264E+02 -0.75535793465E+03  0.75631374837E+03  0.35581129971E+01 0.  0.
         13    1    3    3    0    0  0.28287306279E+01 -0.22126285826E+01 -0.53627791325E+02  0.53747906420E+02  0.00000000000E+00 0.  1.
          3    1    3    3  501    0  0.28002657271E+02 -0.19733712681E+02 -0.70173014332E+03  0.70256584195E+03  0.00000000000E+00 0.  1.
         -3    1    1    2    0  502 -0.30831387899E+02  0.21946341264E+02 -0.24269771028E+03  0.24563060670E+03  0.00000000000E+00 0. -1.
<mgrwt>
<rscale>  1 0.30000000E+03</rscale>
<asrwt>0</asrwt>
<pdfrwt beam="1">  1       21 0.70703970E-02 0.30000000E+03</pdfrwt>
<pdfrwt beam="2">0</pdfrwt>
<totfact> 0.15856616E+04</totfact>
</mgrwt>
</event>
<event>
 6    1  0.1295671E-001  0.3000000E+03  0.7818608E-02  0.1093470E+00
         21   -1    0    0  501  502  0.00000000000E+00  0.00000000000E+00  0.12028409757E+01  0.12028409757E+01  0.00000000000E+00 0. -1.
         13   -1    0    0    0    0 -0.00000000000E+00 -0.00000000000E+00 -0.10000000000E+04  0.10000000000E+04  0.00000000000E+00 0.  1.
    9000005    2    1    2  501    0 -0.31611160408E+02  0.25659599823E+01 -0.31885186024E+03  0.32051828926E+03  0.77210980526E+01 0.  0.
         13    1    3    3    0    0 -0.24385097790E+02 -0.75982149709E+00 -0.22061060229E+03  0.22195550942E+03  0.00000000000E+00 0.  1.
          3    1    3    3  501    0 -0.72260626177E+01  0.33257814794E+01 -0.98241257958E+02  0.98562779834E+02  0.00000000000E+00 0.  1.
         -1    1    1    2    0  502  0.31611160408E+02 -0.25659599823E+01 -0.67994529878E+03  0.68068455172E+03  0.00000000000E+00 0. -1.
<mgrwt>
<rscale>  1 0.30000000E+03</rscale>
<asrwt>0</asrwt>
<pdfrwt beam="1">  1       21 0.43739764E-02 0.30000000E+03</pdfrwt>
<pdfrwt beam="2">0</pdfrwt>
<totfact> 0.36157843E+04</totfact>
</mgrwt>
</event>
<event>
 6    1  0.1295671E-001  0.3000000E+03  0.7818608E-02  0.1093470E+00
         21   -1    0    0  501  502  0.00000000000E+00  0.00000000000E+00  0.18722377587E+01  0.18722377587E+01  0.00000000000E+00 0. -1.
         13   -1    0    0    0    0 -0.00000000000E+00 -0.00000000000E+00 -0.10000000000E+04  0.10000000000E+04  0.00000000000E+00 0.  1.
    9000005    2    1    2  501    0  0.97859573801E-02 -0.39628353938E+02 -0.69950993171E+03  0.70063642441E+03  0.26168912865E+01 0.  0.
         13    1    3    3    0    0 -0.52976362020E+00 -0.35279776149E+02 -0.61063578282E+03  0.61165431619E+03  0.00000000000E+00 0.  1.
          1    1    3    3  501    0  0.53954957758E+00 -0.43485777890E+01 -0.88874148885E+02  0.88982108216E+02  0.00000000000E+00 0.  1.
         -1    1    1    2    0  502 -0.97859573801E-02  0.39628353938E+02 -0.29861783054E+03  0.30123581335E+03  0.00000000000E+00 0. -1.
<mgrwt>
<rscale>  1 0.30000000E+03</rscale>
<asrwt>0</asrwt>
<pdfrwt beam="1">  1       21 0.68081517E-02 0.30000000E+03</pdfrwt>
<pdfrwt beam="2">0</pdfrwt>
<totfact> 0.16933928E+04</totfact>
</mgrwt>
</event>
<event>
 6    1  0.1295671E-001  0.3000000E+03  0.7818608E-02  0.1093470E+00
         21   -1    0    0  501  502  0.00000000000E+00  0.00000000000E+00  0.15955157500E+01  0.15955157500E+01  0.00000000000E+00 0. -1.
         13   -1    0    0    0    0 -0.00000000000E+00 -0.00000000000E+00 -0.10000000000E+04  0.10000000000E+04  0.00000000000E+00 0.  1.
    9000005    2    1    2  501    0 -0.19587635595E+02  0.26734696822E+02 -0.77807357332E+03  0.77878588895E+03  0.32489768106E+01 0.  0.
         13    1    3    3    0    0 -0.43772991133E+01  0.79969371201E+01 -0.19471987579E+03  0.19493317259E+03  0.00000000000E+00 0.  1.
          1    1    3    3  501    0 -0.15210336482E+02  0.18737759702E+02 -0.58335369753E+03  0.58385271636E+03  0.00000000000E+00 0.  1.
         -3    1    1    2    0  502  0.19587635595E+02 -0.26734696822E+02 -0.22033091093E+03  0.22280962680E+03  0.00000000000E+00 0. -1.
<mgrwt>
<rscale>  1 0.30000000E+03</rscale>
<asrwt>0</asrwt>
<pdfrwt beam="1">  1       21 0.58018877E-02 0.30000000E+03</pdfrwt>
<pdfrwt beam="2">0</pdfrwt>
<totfact> 0.22327057E+04</totfact>
</mgrwt>
</event>
<event>
 6    1  0.1295671E-001  0.3000000E+03  0.7818608E-02  0.1093470E+00
         21   -1    0    0  501  502  0.00000000000E+00  0.00000000000E+00  0.24859530264E+01  0.24859530264E+01  0.00000000000E+00 0. -1.
         13   -1    0    0    0    0 -0.00000000000E+00 -0.00000000000E+00 -0.10000000000E+04  0.10000000000E+04  0.00000000000E+00 0.  1.
    9000005    2    1    2  501    0 -0.23623052924E+02  0.32780276829E+02 -0.79201849547E+03  0.79305573346E+03  0.33917597867E+01 0.  0.
         13    1    3    3    0    0 -0.54821812157E+01  0.89583427054E+01 -0.18196288170E+03  0.18226573055E+03  0.00000000000E+00 0.  1.
          3    1    3    3  501    0 -0.18140871708E+02  0.23821934123E+02 -0.61005561377E+03  0.61079000292E+03  0.00000000000E+00 0.  1.
         -3    1    1    2    0  502  0.23623052924E+02 -0.32780276829E+02 -0.20549555150E+03  0.20943021956E+03  0.00000000000E+00 0. -1.
<mgrwt>
<rscale>  1 0.30000000E+03</rscale>
<asrwt>0</asrwt>
<pdfrwt beam="1">  1       21 0.90398482E-02 0.30000000E+03</pdfrwt>
<pdfrwt beam="2">0</pdfrwt>
<totfact> 0.10297163E+04</totfact>
</mgrwt>
</event>
<event>
 6    1  0.1295671E-001  0.3000000E+03  0.7818608E-02  0.1093470E+00
         21   -1    0    0  501  502  0.00000000000E+00  0.00000000000E+00  0.50551116564E+01  0.50551116564E+01  0.00000000000E+00 0. -1.
         13   -1    0    0    0    0 -0.00000000000E+00 -0.00000000000E+00 -0.10000000000E+04  0.10000000000E+04  0.00000000000E+00 0.  1.
    9000005    2    1    2  501    0  0.41384897767E+02  0.57676130103E+02 -0.52107069792E+03  0.52589334972E+03  0.31459987263E+01 0.  0.
         13    1    3    3    0    0  0.24489062993E+02  0.36672186700E+02 -0.32068918393E+03  0.32370683677E+03  0.00000000000E+00 0.  1.
          3    1    3    3  501    0  0.16895834775E+02  0.21003943403E+02 -0.20038151399E+03  0.20218651295E+03  0.00000000000E+00 0.  1.
         -3    1    1    2    0  502 -0.41384897767E+02 -0.57676130103E+02 -0.47387419043E+03  0.47916176193E+03  0.00000000000E+00 0. -1.
<mgrwt>
<rscale>  1 0.30000000E+03</rscale>
<asrwt>0</asrwt>
<pdfrwt beam="1">  1       21 0.18382263E-01 0.30000000E+03</pdfrwt>
<pdfrwt beam="2">0</pdfrwt>
<totfact> 0.28157397E+03</totfact>
</mgrwt>
</event>
<event>
 6    1  0.1295671E-001  0.3000000E+03  0.7818608E-02  0.1093470E+00
         21   -1    0    0  501  502  0.00000000000E+00  0.00000000000E+00  0.10024537879E+01  0.10024537879E+01  0.00000000000E+00 0. -1.
         13   -1    0    0    0    0 -0.00000000000E+00 -0.00000000000E+00 -0.10000000000E+04  0.10000000000E+04  0.00000000000E+00 0.  1.
    9000005    2    1    2  501    0  0.30873243555E+02  0.64244962669E+01 -0.51768401068E+03  0.51865698547E+03  0.37285846742E+01 0.  0.
         13    1    3    3    0    0  0.25579303901E+02  0.47296813921E+01 -0.40336213923E+03  0.40420005695E+03  0.00000000000E+00 0.  1.
          1    1    3    3  501    0  0.52939396545E+01  0.16948148747E+01 -0.11432187145E+03  0.11445692852E+03  0.00000000000E+00 0.  1.
         -3    1    1    2    0  502 -0.30873243555E+02 -0.64244962669E+01 -0.48131353553E+03  0.48234546832E+03  0.00000000000E+00 0. -1.
<mgrwt>
<rscale>  1 0.30000000E+03</rscale>
<asrwt>0</asrwt>
<pdfrwt beam="1">  1       21 0.36452942E-02 0.30000000E+03</pdfrwt>
<pdfrwt beam="2">0</pdfrwt>
<totfact> 0.49148710E+04</totfact>
</mgrwt>
</event>
<event>
 6    1  0.1295671E-001  0.3000000E+03  0.7818608E-02  0.1093470E+00
         21   -1    0    0  501  502  0.00000000000E+00  0.00000000000E+00  0.14602116402E+01  0.14602116402E+01  0.00000000000E+00 0. -1.
         13   -1    0    0    0    0 -0.00000000000E+00 -0.00000000000E+00 -0.10000000000E+04  0.10000000000E+04  0.00000000000E+00 0.  1.
    9000005    2    1    2  501    0  0.36356881326E+02 -0.11017498407E+02 -0.45385958146E+03  0.45545679051E+03  0.30265910145E+01 0.  0.
         13    1    3    3    0    0  0.28938451458E+02 -0.93217470524E+01 -0.34926636653E+03  0.35058711290E+03  0.00000000000E+00 0.  1.
          1    1    3    3  501    0  0.74184298685E+01 -0.16957513542E+01 -0.10459321493E+03  0.10486967762E+03  0.00000000000E+00 0.  1.
         -1    1    1    2    0  502 -0.36356881326E+02  0.11017498407E+02 -0.54468020690E+03  0.54600342113E+03  0.00000000000E+00 0. -1.
<mgrwt>
<rscale>  1 0.30000000E+03</rscale>
<asrwt>0</asrwt>
<pdfrwt beam="1">  1       21 0.53098717E-02 0.30000000E+03</pdfrwt>
<pdfrwt beam="2">0</pdfrwt>
<totfact> 0.25993998E+04</totfact>
</mgrwt>
</event>
<event>
 6    1  0.1295671E-001  0.3000000E+03  0.7818608E-02  0.1093470E+00
         21   -1    0    0  501  502  0.00000000000E+00  0.00000000000E+00  0.13589217810E+01  0.13589217810E+01  0.00000000000E+00 0. -1.
         13   -1    0    0    0    0 -0.00000000000E+00 -0.00000000000E+00 -0.10000000000E+04  0.10000000000E+04  0.00000000000E+00 0.  1.
    9000005    2    1    2  501    0  0.27213548058E+02 -0.24476895558E+02 -0.44684104085E+03  0.44834628462E+03  0.27891817794E+01 0.  0.
         13    1    3    3    0    0  0.16600970470E+02 -0.16017456901E+02 -0.29428434943E+03  0.29518710924E+03  0.00000000000E+00 0.  1.
          3    1    3    3  501    0  0.10612577587E+02 -0.84594386568E+01 -0.15255669142E+03  0.15315917538E+03  0.00000000000E+00 0.  1.
         -3    1    1    2    0  502 -0.27213548058E+02  0.24476895558E+02 -0.55180003737E+03  0.55301263716E+03  0.00000000000E+00 0. -1.
<mgrwt>
<rscale>  1 0.30000000E+03</rscale>
<asrwt>0</asrwt>
<pdfrwt beam="1">  1       21 0.49415442E-02 0.30000000E+03</pdfrwt>
<pdfrwt beam="2">0</pdfrwt>
<totfact> 0.29387780E+04</totfact>
</mgrwt>
</event>
<event>
 6    1  0.1295671E-001  0.3000000E+03  0.7818608E-02  0.1093470E+00
         21   -1    0    0  501  502  0.00000000000E+00  0.00000000000E+00  0.11098993753E+01  0.11098993753E+01  0.00000000000E+00 0. -1.
         13   -1    0    0    0    0 -0.00000000000E+00 -0.00000000000E+00 -0.10000000000E+04  0.10000000000E+04  0.00000000000E+00 0.  1.
    9000005    2    1    2  501    0  0.19504116568E+02 -0.23773013906E+02 -0.68740699078E+03  0.68811262387E+03  0.50045386590E+01 0.  0.
         13    1    3    3    0    0  0.18602152053E+01 -0.60888647156E+00 -0.32831620284E+02  0.32889913862E+02  0.00000000000E+00 0.  1.
          1    1    3    3  501    0  0.17643901363E+02 -0.23164127434E+02 -0.65457537050E+03  0.65522271001E+03  0.00000000000E+00 0.  1.
         -1    1    1    2    0  502 -0.19504116568E+02  0.23773013906E+02 -0.31148310984E+03  0.31299727550E+03  0.00000000000E+00 0. -1.
<mgrwt>
<rscale>  1 0.30000000E+03</rscale>
<asrwt>0</asrwt>
<pdfrwt beam="1">  1       21 0.40360062E-02 0.30000000E+03</pdfrwt>
<pdfrwt beam="2">0</pdfrwt>
<totfact> 0.41417404E+04</totfact>
</mgrwt>
</event>
<event>
 6    1  0.1295671E-001  0.3000000E+03  0.7818608E-02  0.1093470E+00
         21   -1    0    0  501  502  0.00000000000E+00  0.00000000000E+00  0.33422384124E+01  0.33422384124E+01  0.00000000000E+00 0. -1.
         13   -1    0    0    0    0 -0.00000000000E+00 -0.00000000000E+00 -0.10000000000E+04  0.10000000000E+04  0.00000000000E+00 0.  1.
    9000005    2    1    2  501    0 -0.18750429186E+02 -0.40816724369E+02 -0.18607979749E+03  0.19152069432E+03  0.60746797005E+01 0.  0.
         13    1    3    3    0    0 -0.14469792891E+02 -0.30323359531E+02 -0.14933002005E+03  0.15306317626E+03  0.00000000000E+00 0.  1.
          3    1    3    3  501    0 -0.42806362951E+01 -0.10493364838E+02 -0.36749777445E+02  0.38457518056E+02  0.00000000000E+00 0.  1.
         -3    1    1    2    0  502  0.18750429186E+02  0.40816724369E+02 -0.81057796409E+03  0.81182154409E+03  0.00000000000E+00 0. -1.
<mgrwt>
<rscale>  1 0.30000000E+03</rscale>
<asrwt>0</asrwt>
<pdfrwt beam="1">  1       21 0.12153620E-01 0.30000000E+03</pdfrwt>
<pdfrwt beam="2">0</pdfrwt>
<totfact> 0.60555836E+03</totfact>
</mgrwt>
</event>
<event>
 6    1  0.1295671E-001  0.3000000E+03  0.7818608E-02  0.1093470E+00
         21   -1    0    0  501  502  0.00000000000E+00  0.00000000000E+00  0.13537853975E+01  0.13537853975E+01  0.00000000000E+00 0. -1.
         13   -1    0    0    0    0 -0.00000000000E+00 -0.00000000000E+00 -0.10000000000E+04  0.10000000000E+04  0.00000000000E+00 0.  1.
    9000005    2    1    2  501    0 -0.19863816730E+02  0.29370513346E+02 -0.63050770539E+03  0.63151171067E+03  0.31425936999E+01 0.  0.
         13    1    3    3    0    0 -0.90594702441E+01  0.12435349573E+02 -0.29968044373E+03  0.30007512438E+03  0.00000000000E+00 0.  1.
          3    1    3    3  501    0 -0.10804346486E+02  0.16935163773E+02 -0.33082726166E+03  0.33143658629E+03  0.00000000000E+00 0.  1.
         -3    1    1    2    0  502  0.19863816730E+02 -0.29370513346E+02 -0.36813850922E+03  0.36984207473E+03  0.00000000000E+00 0. -1.
<mgrwt>
<rscale>  1 0.30000000E+03</rscale>
<asrwt>0</asrwt>
<pdfrwt beam="1">  1       21 0.49228664E-02 0.30000000E+03</pdfrwt>
<pdfrwt beam="2">0</pdfrwt>
<totfact> 0.29577986E+04</totfact>
</mgrwt>
</event>
<event>
 6    1  0.1295671E-001  0.3000000E+03  0.7818608E-02  0.1093470E+00
         21   -1    0    0  501  502  0.00000000000E+00  0.00000000000E+00  0.59817889710E+01  0.59817889710E+01  0.00000000000E+00 0. -1.
         13   -1    0    0    0    0 -0.00000000000E+00 -0.00000000000E+00 -0.10000000000E+04  0.10000000000E+04  0.00000000000E+00 0.  1.
    9000005    2    1    2  501    0 -0.29985007219E+02 -0.68877538409E+02 -0.61614664540E+03  0.62071547061E+03  0.27912107222E+01 0.  0.
         13    1    3    3    0    0 -0.16739971837E+02 -0.34959157158E+02 -0.31741406039E+03  0.31977187972E+03  0.00000000000E+00 0.  1.
          3    1    3    3  501    0 -0.13245035382E+02 -0.33918381250E+02 -0.29873258501E+03  0.30094359089E+03  0.00000000000E+00 0.  1.
         -3    1    1    2    0  502  0.29985007219E+02  0.68877538409E+02 -0.37787156562E+03  0.38526631836E+03  0.00000000000E+00 0. -1.
<mgrwt>
<rscale>  1 0.30000000E+03</rscale>
<asrwt>0</asrwt>
<pdfrwt beam="1">  1       21 0.21752006E-01 0.30000000E+03</pdfrwt>
<pdfrwt beam="2">0</pdfrwt>
<totfact> 0.20426706E+03</totfact>
</mgrwt>
</event>
<event>
 6    1  0.1295671E-001  0.3000000E+03  0.7818608E-02  0.1093470E+00
         21   -1    0    0  501  502  0.00000000000E+00  0.00000000000E+00  0.47881502359E+01  0.47881502359E+01  0.00000000000E+00 0. -1.
         13   -1    0    0    0    0 -0.00000000000E+00 -0.00000000000E+00 -0.10000000000E+04  0.10000000000E+04  0.00000000000E+00 0.  1.
    9000005    2    1    2  501    0 -0.20454190342E+02 -0.63219919318E+02 -0.35888965259E+03  0.36500610085E+03  0.35410195994E+01 0.  0.
         13    1    3    3    0    0 -0.55038743031E+01 -0.22360085716E+02 -0.12616149118E+03  0.12824581055E+03  0.00000000000E+00 0.  1.
          3    1    3    3  501    0 -0.14950316038E+02 -0.40859833602E+02 -0.23272816141E+03  0.23676029031E+03  0.00000000000E+00 0.  1.
         -1    1    1    2    0  502  0.20454190342E+02  0.63219919318E+02 -0.63632219717E+03  0.63978204938E+03  0.00000000000E+00 0. -1.
<mgrwt>
<rscale>  1 0.30000000E+03</rscale>
<asrwt>0</asrwt>
<pdfrwt beam="1">  1       21 0.17411492E-01 0.30000000E+03</pdfrwt>
<pdfrwt beam="2">0</pdfrwt>
<totfact> 0.31184915E+03</totfact>
</mgrwt>
</event>
<event>
 6    1  0.1295671E-001  0.3000000E+03  0.7818608E-02  0.1093470E+00
         21   -1    0    0  501  502  0.00000000000E+00  0.00000000000E+00  0.17491538755E+01  0.17491538755E+01  0.00000000000E+00 0. -1.
         13   -1    0    0    0    0 -0.00000000000E+00 -0.00000000000E+00 -0.10000000000E+04  0.10000000000E+04  0.00000000000E+00 0.  1.
    9000005    2    1    2  501    0 -0.39035422972E+02  0.14483304255E+02 -0.46263667411E+03  0.46451915507E+03  0.34384372980E+01 0.  0.
         13    1    3    3    0    0 -0.31153280907E+02  0.10952958026E+02 -0.35178646982E+03  0.35333300801E+03  0.00000000000E+00 0.  1.
          3    1    3    3  501    0 -0.78821420648E+01  0.35303462287E+01 -0.11085020428E+03  0.11118614706E+03  0.00000000000E+00 0.  1.
         -3    1    1    2    0  502  0.39035422972E+02 -0.14483304255E+02 -0.53561417202E+03  0.53722999880E+03  0.00000000000E+00 0. -1.
<mgrwt>
<rscale>  1 0.30000000E+03</rscale>
<asrwt>0</asrwt>
<pdfrwt beam="1">  1       21 0.63605730E-02 0.30000000E+03</pdfrwt>
<pdfrwt beam="2">0</pdfrwt>
<totfact> 0.19051616E+04</totfact>
</mgrwt>
</event>
<event>
 6    1  0.1295671E-001  0.3000000E+03  0.7818608E-02  0.1093470E+00
         21   -1    0    0  501  502  0.00000000000E+00  0.00000000000E+00  0.10537523348E+01  0.10537523348E+01  0.00000000000E+00 0. -1.
         13   -1    0    0    0    0 -0.00000000000E+00 -0.00000000000E+00 -0.10000000000E+04  0.10000000000E+04  0.00000000000E+00 0.  1.
    9000005    2    1    2  501    0 -0.24712201908E+02 -0.17171174047E+02 -0.68551368788E+03  0.68617994956E+03  0.28921901624E+01 0.  0.
         13    1    3    3    0    0 -0.19773195834E+02 -0.13122453672E+02 -0.56296561436E+03  0.56346558104E+03  0.00000000000E+00 0.  1.
          3    1    3    3  501    0 -0.49390060741E+01 -0.40487203752E+01 -0.12254807352E+03  0.12271436852E+03  0.00000000000E+00 0.  1.
         -1    1    1    2    0  502  0.24712201908E+02  0.17171174047E+02 -0.31343255979E+03  0.31487380278E+03  0.00000000000E+00 0. -1.
<mgrwt>
<rscale>  1 0.30000000E+03</rscale>
<asrwt>0</asrwt>
<pdfrwt beam="1">  1       21 0.38318348E-02 0.30000000E+03</pdfrwt>
<pdfrwt beam="2">0</pdfrwt>
<totfact> 0.45197978E+04</totfact>
</mgrwt>
</event>
<event>
 6    1  0.1295671E-001  0.3000000E+03  0.7818608E-02  0.1093470E+00
         21   -1    0    0  501  502  0.00000000000E+00  0.00000000000E+00  0.28822918092E+01  0.28822918092E+01  0.00000000000E+00 0. -1.
         13   -1    0    0    0    0 -0.00000000000E+00 -0.00000000000E+00 -0.10000000000E+04  0.10000000000E+04  0.00000000000E+00 0.  1.
    9000005    2    1    2  501    0 -0.26155164253E+02  0.29081780791E+02 -0.84192438954E+03  0.84283602117E+03  0.24572934903E+01 0.  0.
         13    1    3    3    0    0 -0.23527869690E+02  0.26513999804E+02 -0.74706408007E+03  0.74790460125E+03  0.00000000000E+00 0.  1.
          3    1    3    3  501    0 -0.26272945628E+01  0.25677809877E+01 -0.94860309465E+02  0.94931419918E+02  0.00000000000E+00 0.  1.
         -3    1    1    2    0  502  0.26155164253E+02 -0.29081780791E+02 -0.15519331865E+03  0.16004627064E+03  0.00000000000E+00 0. -1.
<mgrwt>
<rscale>  1 0.30000000E+03</rscale>
<asrwt>0</asrwt>
<pdfrwt beam="1">  1       21 0.10481083E-01 0.30000000E+03</pdfrwt>
<pdfrwt beam="2">0</pdfrwt>
<totfact> 0.79093921E+03</totfact>
</mgrwt>
</event>
<event>
 6    1  0.1295671E-001  0.3000000E+03  0.7818608E-02  0.1093470E+00
         21   -1    0    0  501  502  0.00000000000E+00  0.00000000000E+00  0.15543658649E+01  0.15543658649E+01  0.00000000000E+00 0. -1.
         13   -1    0    0    0    0 -0.00000000000E+00 -0.00000000000E+00 -0.10000000000E+04  0.10000000000E+04  0.00000000000E+00 0.  1.
    9000005    2    1    2  501    0 -0.29171386476E+02  0.21502238866E+02 -0.69533911454E+03  0.69628910697E+03  0.29530010253E+01 0.  0.
         13    1    3    3    0    0 -0.59514614266E+01  0.59306228887E+01 -0.16126835819E+03  0.16148707544E+03  0.00000000000E+00 0.  1.
          1    1    3    3  501    0 -0.23219925049E+02  0.15571615977E+02 -0.53407075635E+03  0.53480203153E+03  0.00000000000E+00 0.  1.
         -3    1    1    2    0  502  0.29171386476E+02 -0.21502238866E+02 -0.30310651960E+03  0.30526525889E+03  0.00000000000E+00 0. -1.
<mgrwt>
<rscale>  1 0.30000000E+03</rscale>
<asrwt>0</asrwt>
<pdfrwt beam="1">  1       21 0.56522514E-02 0.30000000E+03</pdfrwt>
<pdfrwt beam="2">0</pdfrwt>
<totfact> 0.23353522E+04</totfact>
</mgrwt>
</event>
<event>
 6    1  0.1295671E-001  0.3000000E+03  0.7818608E-02  0.1093470E+00
         21   -1    0    0  501  502  0.00000000000E+00  0.00000000000E+00  0.39347561495E+01  0.39347561495E+01  0.00000000000E+00 0. -1.
         13   -1    0    0    0    0 -0.00000000000E+00 -0.00000000000E+00 -0.10000000000E+04  0.10000000000E+04  0.00000000000E+00 0.  1.
    9000005    2    1    2  501    0 -0.32120462064E+02 -0.42216472219E+02 -0.76564492920E+03  0.76748713824E+03  0.32241509674E+01 0.  0.
         13    1    3    3    0    0 -0.26992783370E+01 -0.48886052389E+01 -0.72732778017E+02  0.72946840664E+02  0.00000000000E+00 0.  1.
          3    1    3    3  501    0 -0.29421183727E+02 -0.37327866980E+02 -0.69291215118E+03  0.69454029758E+03  0.00000000000E+00 0.  1.
         -1    1    1    2    0  502  0.32120462064E+02  0.42216472219E+02 -0.23042031465E+03  0.23644761791E+03  0.00000000000E+00 0. -1.
<mgrwt>
<rscale>  1 0.30000000E+03</rscale>
<asrwt>0</asrwt>
<pdfrwt beam="1">  1       21 0.14308234E-01 0.30000000E+03</pdfrwt>
<pdfrwt beam="2">0</pdfrwt>
<totfact> 0.44930526E+03</totfact>
</mgrwt>
</event>
<event>
 6    1  0.1295671E-001  0.3000000E+03  0.7818608E-02  0.1093470E+00
         21   -1    0    0  501  502  0.00000000000E+00  0.00000000000E+00  0.22012188431E+01  0.22012188431E+01  0.00000000000E+00 0. -1.
         13   -1    0    0    0    0 -0.00000000000E+00 -0.00000000000E+00 -0.10000000000E+04  0.10000000000E+04  0.00000000000E+00 0.  1.
    9000005    2    1    2  501    0 -0.17919387464E+02  0.33054898170E+02 -0.79816890489E+03  0.79906132065E+03  0.34150671186E+01 0.  0.
         13    1    3    3    0    0 -0.14291708709E+02  0.24008507892E+02 -0.61196902883E+03  0.61260652432E+03  0.00000000000E+00 0.  1.
          1    1    3    3  501    0 -0.36276787542E+01  0.90463902783E+01 -0.18619987606E+03  0.18645479633E+03  0.00000000000E+00 0.  1.
         -1    1    1    2    0  502  0.17919387464E+02 -0.33054898170E+02 -0.19962987627E+03  0.20313989819E+03  0.00000000000E+00 0. -1.
<mgrwt>
<rscale>  1 0.30000000E+03</rscale>
<asrwt>0</asrwt>
<pdfrwt beam="1">  1       21 0.80044490E-02 0.30000000E+03</pdfrwt>
<pdfrwt beam="2">0</pdfrwt>
<totfact> 0.12761400E+04</totfact>
</mgrwt>
</event>
<event>
 6    1  0.1295671E-001  0.3000000E+03  0.7818608E-02  0.1093470E+00
         21   -1    0    0  501  502  0.00000000000E+00  0.00000000000E+00  0.17494692017E+01  0.17494692017E+01  0.00000000000E+00 0. -1.
         13   -1    0    0    0    0 -0.00000000000E+00 -0.00000000000E+00 -0.10000000000E+04  0.10000000000E+04  0.00000000000E+00 0.  1.
    9000005    2    1    2  501    0  0.85121576167E+01 -0.34819548248E+02 -0.75657459991E+03  0.75742977425E+03  0.31432361788E+01 0.  0.
         13    1    3    3    0    0  0.52324717224E+01 -0.17814922833E+02 -0.36361520959E+03  0.36408896012E+03  0.00000000000E+00 0.  1.
          1    1    3    3  501    0  0.32796858943E+01 -0.17004625415E+02 -0.39295939032E+03  0.39334081413E+03  0.00000000000E+00 0.  1.
         -3    1    1    2    0  502 -0.85121576167E+01  0.34819548248E+02 -0.24167593089E+03  0.24431969495E+03  0.00000000000E+00 0. -1.
<mgrwt>
<rscale>  1 0.30000000E+03</rscale>
<asrwt>0</asrwt>
<pdfrwt beam="1">  1       21 0.63617196E-02 0.30000000E+03</pdfrwt>
<pdfrwt beam="2">0</pdfrwt>
<totfact> 0.19045678E+04</totfact>
</mgrwt>
</event>
<event>
 6    1  0.1295671E-001  0.3000000E+03  0.7818608E-02  0.1093470E+00
         21   -1    0    0  501  502  0.00000000000E+00  0.00000000000E+00  0.29759976852E+01  0.29759976852E+01  0.00000000000E+00 0. -1.
         13   -1    0    0    0    0 -0.00000000000E+00 -0.00000000000E+00 -0.10000000000E+04  0.10000000000E+04  0.00000000000E+00 0.  1.
    9000005    2    1    2  501    0  0.19121577114E+02  0.28346756898E+02 -0.88911684709E+03  0.88978091172E+03  0.34827782083E+01 0.  0.
         13    1    3    3    0    0  0.54665372507E+01  0.62862267072E+01 -0.24570544898E+03  0.24584663376E+03  0.00000000000E+00 0.  1.
          1    1    3    3  501    0  0.13655039864E+02  0.22060530190E+02 -0.64341139811E+03  0.64393427796E+03  0.00000000000E+00 0.  1.
         -3    1    1    2    0  502 -0.19121577114E+02 -0.28346756898E+02 -0.10790715522E+03  0.11319508597E+03  0.00000000000E+00 0. -1.
<mgrwt>
<rscale>  1 0.30000000E+03</rscale>
<asrwt>0</asrwt>
<pdfrwt beam="1">  1       21 0.10821833E-01 0.30000000E+03</pdfrwt>
<pdfrwt beam="2">0</pdfrwt>
<totfact> 0.74680916E+03</totfact>
</mgrwt>
</event>
<event>
 6    1  0.1295671E-001  0.3000000E+03  0.7818608E-02  0.1093470E+00
         21   -1    0    0  501  502  0.00000000000E+00  0.00000000000E+00  0.26479746233E+01  0.26479746233E+01  0.00000000000E+00 0. -1.
         13   -1    0    0    0    0 -0.00000000000E+00 -0.00000000000E+00 -0.10000000000E+04  0.10000000000E+04  0.00000000000E+00 0.  1.
    9000005    2    1    2  501    0 -0.12482792327E+02  0.33047832512E+02 -0.86296794552E+03  0.86369812663E+03  0.35776547748E+01 0.  0.
         13    1    3    3    0    0 -0.88730384807E+01  0.20919755495E+02 -0.51801872593E+03  0.51851689211E+03  0.00000000000E+00 0.  1.
          1    1    3    3  501    0 -0.36097538466E+01  0.12128077017E+02 -0.34494921958E+03  0.34518123452E+03  0.00000000000E+00 0.  1.
         -3    1    1    2    0  502  0.12482792327E+02 -0.33047832512E+02 -0.13438407986E+03  0.13894984799E+03  0.00000000000E+00 0. -1.
<mgrwt>
<rscale>  1 0.30000000E+03</rscale>
<asrwt>0</asrwt>
<pdfrwt beam="1">  1       21 0.96290189E-02 0.30000000E+03</pdfrwt>
<pdfrwt beam="2">0</pdfrwt>
<totfact> 0.92037484E+03</totfact>
</mgrwt>
</event>
<event>
 6    1  0.1295671E-001  0.3000000E+03  0.7818608E-02  0.1093470E+00
         21   -1    0    0  501  502  0.00000000000E+00  0.00000000000E+00  0.22515048794E+01  0.22515048794E+01  0.00000000000E+00 0. -1.
         13   -1    0    0    0    0 -0.00000000000E+00 -0.00000000000E+00 -0.10000000000E+04  0.10000000000E+04  0.00000000000E+00 0.  1.
    9000005    2    1    2  501    0 -0.34218870405E+02  0.17902866682E+02 -0.78957919822E+03  0.79053022607E+03  0.33592181370E+01 0.  0.
         13    1    3    3    0    0 -0.75185426143E+01  0.35158913195E+01 -0.14406791873E+03  0.14430680920E+03  0.00000000000E+00 0.  1.
          3    1    3    3  501    0 -0.26700327791E+02  0.14386975363E+02 -0.64551127949E+03  0.64622341687E+03  0.00000000000E+00 0.  1.
         -3    1    1    2    0  502  0.34218870405E+02 -0.17902866682E+02 -0.20816929690E+03  0.21172127881E+03  0.00000000000E+00 0. -1.
<mgrwt>
<rscale>  1 0.30000000E+03</rscale>
<asrwt>0</asrwt>
<pdfrwt beam="1">  1       21 0.81873077E-02 0.30000000E+03</pdfrwt>
<pdfrwt beam="2">0</pdfrwt>
<totfact> 0.12264675E+04</totfact>
</mgrwt>
</event>
<event>
 6    1  0.1295671E-001  0.3000000E+03  0.7818608E-02  0.1093470E+00
         21   -1    0    0  501  502  0.00000000000E+00  0.00000000000E+00  0.20256893549E+01  0.20256893549E+01  0.00000000000E+00 0. -1.
         13   -1    0    0    0    0 -0.00000000000E+00 -0.00000000000E+00 -0.10000000000E+04  0.10000000000E+04  0.00000000000E+00 0.  1.
    9000005    2    1    2  501    0 -0.28902413551E+01  0.43146205613E+02 -0.63670938765E+03  0.63818191362E+03  0.27133000227E+01 0.  0.
         13    1    3    3    0    0 -0.34029977786E+01  0.38553623378E+02 -0.56632410916E+03  0.56764509941E+03  0.00000000000E+00 0.  1.
          1    1    3    3  501    0  0.51275642350E+00  0.45925822348E+01 -0.70385278487E+02  0.70536814207E+02  0.00000000000E+00 0.  1.
         -3    1    1    2    0  502  0.28902413551E+01 -0.43146205613E+02 -0.36126492300E+03  0.36384377574E+03  0.00000000000E+00 0. -1.
<mgrwt>
<rscale>  1 0.30000000E+03</rscale>
<asrwt>0</asrwt>
<pdfrwt beam="1">  1       21 0.73661586E-02 0.30000000E+03</pdfrwt>
<pdfrwt beam="2">0</pdfrwt>
<totfact> 0.14762341E+04</totfact>
</mgrwt>
</event>
<event>
 6    1  0.1295671E-001  0.3000000E+03  0.7818608E-02  0.1093470E+00
         21   -1    0    0  501  502  0.00000000000E+00  0.00000000000E+00  0.10276277208E+01  0.10276277208E+01  0.00000000000E+00 0. -1.
         13   -1    0    0    0    0 -0.00000000000E+00 -0.00000000000E+00 -0.10000000000E+04  0.10000000000E+04  0.00000000000E+00 0.  1.
    9000005    2    1    2  501    0 -0.20175321936E+02  0.24703497026E+02 -0.47130835210E+03  0.47240051475E+03  0.36574844270E+01 0.  0.
         13    1    3    3    0    0 -0.43427834333E+00  0.76672859539E+00 -0.67628270510E+01  0.68199926789E+01  0.00000000000E+00 0.  1.
          3    1    3    3  501    0 -0.19741043593E+02  0.23936768431E+02 -0.46454552505E+03  0.46558052207E+03  0.00000000000E+00 0.  1.
         -1    1    1    2    0  502  0.20175321936E+02 -0.24703497026E+02 -0.52766402018E+03  0.52862711298E+03  0.00000000000E+00 0. -1.
<mgrwt>
<rscale>  1 0.30000000E+03</rscale>
<asrwt>0</asrwt>
<pdfrwt beam="1">  1       21 0.37368360E-02 0.30000000E+03</pdfrwt>
<pdfrwt beam="2">0</pdfrwt>
<totfact> 0.47144841E+04</totfact>
</mgrwt>
</event>
<event>
 6    1  0.1295671E-001  0.3000000E+03  0.7818608E-02  0.1093470E+00
         21   -1    0    0  501  502  0.00000000000E+00  0.00000000000E+00  0.10976299827E+01  0.10976299827E+01  0.00000000000E+00 0. -1.
         13   -1    0    0    0    0 -0.00000000000E+00 -0.00000000000E+00 -0.10000000000E+04  0.10000000000E+04  0.00000000000E+00 0.  1.
    9000005    2    1    2  501    0 -0.29200275423E+01  0.31816612322E+02 -0.62901917018E+03  0.62983706798E+03  0.29651915044E+01 0.  0.
         13    1    3    3    0    0 -0.32655923360E+01  0.30869918688E+02 -0.60317909677E+03  0.60397734954E+03  0.00000000000E+00 0.  1.
          3    1    3    3  501    0  0.34556479379E+00  0.94669363416E+00 -0.25840073410E+02  0.25859718438E+02  0.00000000000E+00 0.  1.
         -3    1    1    2    0  502  0.29200275423E+01 -0.31816612322E+02 -0.36988319984E+03  0.37126056201E+03  0.00000000000E+00 0. -1.
<mgrwt>
<rscale>  1 0.30000000E+03</rscale>
<asrwt>0</asrwt>
<pdfrwt beam="1">  1       21 0.39913902E-02 0.30000000E+03</pdfrwt>
<pdfrwt beam="2">0</pdfrwt>
<totfact> 0.42200170E+04</totfact>
</mgrwt>
</event>
<event>
 6    1  0.1295671E-001  0.3000000E+03  0.7818608E-02  0.1093470E+00
         21   -1    0    0  501  502  0.00000000000E+00  0.00000000000E+00  0.13339667390E+01  0.13339667390E+01  0.00000000000E+00 0. -1.
         13   -1    0    0    0    0 -0.00000000000E+00 -0.00000000000E+00 -0.10000000000E+04  0.10000000000E+04  0.00000000000E+00 0.  1.
    9000005    2    1    2  501    0  0.36295472324E+02 -0.23649877652E+01 -0.46874013226E+03  0.47016128764E+03  0.33719902133E+01 0.  0.
         13    1    3    3    0    0  0.28737569370E+00  0.24385125095E+00 -0.29198088579E+01  0.29440332859E+01  0.00000000000E+00 0.  1.
          1    1    3    3  501    0  0.36008096630E+02 -0.26088390161E+01 -0.46582032341E+03  0.46721725435E+03  0.00000000000E+00 0.  1.
         -3    1    1    2    0  502 -0.36295472324E+02  0.23649877652E+01 -0.52992590100E+03  0.53117267910E+03  0.00000000000E+00 0. -1.
<mgrwt>
<rscale>  1 0.30000000E+03</rscale>
<asrwt>0</asrwt>
<pdfrwt beam="1">  1       21 0.48507984E-02 0.30000000E+03</pdfrwt>
<pdfrwt beam="2">0</pdfrwt>
<totfact> 0.30330207E+04</totfact>
</mgrwt>
</event>
<event>
 6    1  0.1295671E-001  0.3000000E+03  0.7818608E-02  0.1093470E+00
         21   -1    0    0  501  502  0.00000000000E+00  0.00000000000E+00  0.14522052456E+01  0.14522052456E+01  0.00000000000E+00 0. -1.
         13   -1    0    0    0    0 -0.00000000000E+00 -0.00000000000E+00 -0.10000000000E+04  0.10000000000E+04  0.00000000000E+00 0.  1.
    9000005    2    1    2  501    0  0.33577237166E+02 -0.50964888601E+01 -0.72500240445E+03  0.72580662554E+03  0.36559766345E+01 0.  0.
         13    1    3    3    0    0  0.71395334063E+01  0.31200724842E+00 -0.16374334886E+03  0.16389922081E+03  0.00000000000E+00 0.  1.
          1    1    3    3  501    0  0.26437703760E+02 -0.54084961085E+01 -0.56125905559E+03  0.56190740473E+03  0.00000000000E+00 0.  1.
         -3    1    1    2    0  502 -0.33577237166E+02  0.50964888601E+01 -0.27354539030E+03  0.27564557970E+03  0.00000000000E+00 0. -1.
<mgrwt>
<rscale>  1 0.30000000E+03</rscale>
<asrwt>0</asrwt>
<pdfrwt beam="1">  1       21 0.52807575E-02 0.30000000E+03</pdfrwt>
<pdfrwt beam="2">0</pdfrwt>
<totfact> 0.26239573E+04</totfact>
</mgrwt>
</event>
<event>
 6    1  0.1295671E-001  0.3000000E+03  0.7818608E-02  0.1093470E+00
         21   -1    0    0  501  502  0.00000000000E+00  0.00000000000E+00  0.14264276413E+01  0.14264276413E+01  0.00000000000E+00 0. -1.
         13   -1    0    0    0    0 -0.00000000000E+00 -0.00000000000E+00 -0.10000000000E+04  0.10000000000E+04  0.00000000000E+00 0.  1.
    9000005    2    1    2  501    0 -0.27979637112E+02 -0.22572248671E+02 -0.65063668269E+03  0.65163728302E+03  0.32694427643E+01 0.  0.
         13    1    3    3    0    0 -0.13725490831E+02 -0.95466576108E+01 -0.28185824548E+03  0.28235367594E+03  0.00000000000E+00 0.  1.
          1    1    3    3  501    0 -0.14254146281E+02 -0.13025591060E+02 -0.36877843720E+03  0.36928360707E+03  0.00000000000E+00 0.  1.
         -1    1    1    2    0  502  0.27979637112E+02  0.22572248671E+02 -0.34793688967E+03  0.34978914463E+03  0.00000000000E+00 0. -1.
<mgrwt>
<rscale>  1 0.30000000E+03</rscale>
<asrwt>0</asrwt>
<pdfrwt beam="1">  1       21 0.51870205E-02 0.30000000E+03</pdfrwt>
<pdfrwt beam="2">0</pdfrwt>
<totfact> 0.27055138E+04</totfact>
</mgrwt>
</event>
<event>
 6    1  0.1295671E-001  0.3000000E+03  0.7818608E-02  0.1093470E+00
         21   -1    0    0  501  502  0.00000000000E+00  0.00000000000E+00  0.10933152568E+01  0.10933152568E+01  0.00000000000E+00 0. -1.
         13   -1    0    0    0    0 -0.00000000000E+00 -0.00000000000E+00 -0.10000000000E+04  0.10000000000E+04  0.00000000000E+00 0.  1.
    9000005    2    1    2  501    0 -0.17504704723E+02  0.27322019227E+02 -0.58951348341E+03  0.59041619059E+03  0.34962227275E+01 0.  0.
         13    1    3    3    0    0 -0.15763503128E+02  0.23229152466E+02 -0.52450523917E+03  0.52525596377E+03  0.00000000000E+00 0.  1.
          1    1    3    3  501    0 -0.17412015956E+01  0.40928667611E+01 -0.65008244237E+02  0.65160226827E+02  0.00000000000E+00 0.  1.
         -3    1    1    2    0  502  0.17504704723E+02 -0.27322019227E+02 -0.40939320133E+03  0.41067712466E+03  0.00000000000E+00 0. -1.
<mgrwt>
<rscale>  1 0.30000000E+03</rscale>
<asrwt>0</asrwt>
<pdfrwt beam="1">  1       21 0.39757002E-02 0.30000000E+03</pdfrwt>
<pdfrwt beam="2">0</pdfrwt>
<totfact> 0.42480951E+04</totfact>
</mgrwt>
</event>
<event>
 6    1  0.1295671E-001  0.3000000E+03  0.7818608E-02  0.1093470E+00
         21   -1    0    0  501  502  0.00000000000E+00  0.00000000000E+00  0.27912835156E+01  0.27912835156E+01  0.00000000000E+00 0. -1.
         13   -1    0    0    0    0 -0.00000000000E+00 -0.00000000000E+00 -0.10000000000E+04  0.10000000000E+04  0.00000000000E+00 0.  1.
    9000005    2    1    2  501    0 -0.22932569770E+02 -0.24399774645E+02 -0.88605978727E+03  0.88670796764E+03  0.52746091257E+01 0.  0.
         13    1    3    3    0    0 -0.41347153873E+01 -0.61155747219E+01 -0.24720657754E+03  0.24731677683E+03  0.00000000000E+00 0.  1.
          3    1    3    3  501    0 -0.18797854383E+02 -0.18284199923E+02 -0.63885320973E+03  0.63939119081E+03  0.00000000000E+00 0.  1.
         -1    1    1    2    0  502  0.22932569770E+02  0.24399774645E+02 -0.11114892921E+03  0.11608331587E+03  0.00000000000E+00 0. -1.
<mgrwt>
<rscale>  1 0.30000000E+03</rscale>
<asrwt>0</asrwt>
<pdfrwt beam="1">  1       21 0.10150143E-01 0.30000000E+03</pdfrwt>
<pdfrwt beam="2">0</pdfrwt>
<totfact> 0.83770278E+03</totfact>
</mgrwt>
</event>
<event>
 6    1  0.1295671E-001  0.3000000E+03  0.7818608E-02  0.1093470E+00
         21   -1    0    0  501  502  0.00000000000E+00  0.00000000000E+00  0.13823712945E+02  0.13823712945E+02  0.00000000000E+00 0. -1.
         13   -1    0    0    0    0 -0.00000000000E+00 -0.00000000000E+00 -0.10000000000E+04  0.10000000000E+04  0.00000000000E+00 0.  1.
    9000005    2    1    2  501    0 -0.50805080720E+01 -0.10554946185E+03 -0.71519286943E+03  0.72296547756E+03  0.34264869916E+01 0.  0.
         13    1    3    3    0    0  0.35875030493E+00 -0.43973675500E+01 -0.27360668306E+02  0.27714106757E+02  0.00000000000E+00 0.  1.
          1    1    3    3  501    0 -0.54392583769E+01 -0.10115209430E+03 -0.68783220112E+03  0.69525137081E+03  0.00000000000E+00 0.  1.
         -3    1    1    2    0  502  0.50805080720E+01  0.10554946185E+03 -0.27098341763E+03  0.29085823538E+03  0.00000000000E+00 0. -1.
<mgrwt>
<rscale>  1 0.30000000E+03</rscale>
<asrwt>0</asrwt>
<pdfrwt beam="1">  1       21 0.50268153E-01 0.30000000E+03</pdfrwt>
<pdfrwt beam="2">0</pdfrwt>
<totfact> 0.37139097E+02</totfact>
</mgrwt>
</event>
<event>
 6    1  0.1295671E-001  0.3000000E+03  0.7818608E-02  0.1093470E+00
         21   -1    0    0  501  502  0.00000000000E+00  0.00000000000E+00  0.44343384643E+01  0.44343384643E+01  0.00000000000E+00 0. -1.
         13   -1    0    0    0    0 -0.00000000000E+00 -0.00000000000E+00 -0.10000000000E+04  0.10000000000E+04  0.00000000000E+00 0.  1.
    9000005    2    1    2  501    0  0.11859400085E+02  0.60044341151E+02 -0.69515751149E+03  0.69785478128E+03  0.33707103065E+01 0.  0.
         13    1    3    3    0    0  0.55022369619E+01  0.28709843704E+02 -0.35113805496E+03  0.35235275418E+03  0.00000000000E+00 0.  1.
          3    1    3    3  501    0  0.63571631228E+01  0.31334497446E+02 -0.34401945653E+03  0.34550202710E+03  0.00000000000E+00 0.  1.
         -1    1    1    2    0  502 -0.11859400085E+02 -0.60044341151E+02 -0.30040815004E+03  0.30657955719E+03  0.00000000000E+00 0. -1.
<mgrwt>
<rscale>  1 0.30000000E+03</rscale>
<asrwt>0</asrwt>
<pdfrwt beam="1">  1       21 0.16124901E-01 0.30000000E+03</pdfrwt>
<pdfrwt beam="2">0</pdfrwt>
<totfact> 0.36000906E+03</totfact>
</mgrwt>
</event>
<event>
 6    1  0.1295671E-001  0.3000000E+03  0.7818608E-02  0.1093470E+00
         21   -1    0    0  501  502  0.00000000000E+00  0.00000000000E+00  0.14568343894E+01  0.14568343894E+01  0.00000000000E+00 0. -1.
         13   -1    0    0    0    0 -0.00000000000E+00 -0.00000000000E+00 -0.10000000000E+04  0.10000000000E+04  0.00000000000E+00 0.  1.
    9000005    2    1    2  501    0 -0.29266290524E+02  0.24004334579E+02 -0.55800512700E+03  0.55929567904E+03  0.30349615704E+01 0.  0.
         13    1    3    3    0    0 -0.24132914331E+02  0.18614949845E+02 -0.43641143822E+03  0.43747440762E+03  0.00000000000E+00 0.  1.
          3    1    3    3  501    0 -0.51333761930E+01  0.53893847337E+01 -0.12159368878E+03  0.12182127142E+03  0.00000000000E+00 0.  1.
         -1    1    1    2    0  502  0.29266290524E+02 -0.24004334579E+02 -0.44053803861E+03  0.44216115535E+03  0.00000000000E+00 0. -1.
<mgrwt>
<rscale>  1 0.30000000E+03</rscale>
<asrwt>0</asrwt>
<pdfrwt beam="1">  1       21 0.52975908E-02 0.30000000E+03</pdfrwt>
<pdfrwt beam="2">0</pdfrwt>
<totfact> 0.26097150E+04</totfact>
</mgrwt>
</event>
<event>
 6    1  0.1295671E-001  0.3000000E+03  0.7818608E-02  0.1093470E+00
         21   -1    0    0  501  502  0.00000000000E+00  0.00000000000E+00  0.16079689893E+01  0.16079689893E+01  0.00000000000E+00 0. -1.
         13   -1    0    0    0    0 -0.00000000000E+00 -0.00000000000E+00 -0.10000000000E+04  0.10000000000E+04  0.00000000000E+00 0.  1.
    9000005    2    1    2  501    0 -0.15067235136E+01  0.39492072816E+02 -0.45795162596E+03  0.45972447095E+03  0.80624713283E+01 0.  0.
         13    1    3    3    0    0 -0.72234523627E+00  0.25154135656E+02 -0.33326660582E+03  0.33421532412E+03  0.00000000000E+00 0.  1.
          1    1    3    3  501    0 -0.78437827732E+00  0.14337937160E+02 -0.12468502014E+03  0.12550914683E+03  0.00000000000E+00 0.  1.
         -3    1    1    2    0  502  0.15067235136E+01 -0.39492072816E+02 -0.54044040505E+03  0.54188349804E+03  0.00000000000E+00 0. -1.
<mgrwt>
<rscale>  1 0.30000000E+03</rscale>
<asrwt>0</asrwt>
<pdfrwt beam="1">  1       21 0.58471723E-02 0.30000000E+03</pdfrwt>
<pdfrwt beam="2">0</pdfrwt>
<totfact> 0.22030009E+04</totfact>
</mgrwt>
</event>
<event>
 6    1  0.1295671E-001  0.3000000E+03  0.7818608E-02  0.1093470E+00
         21   -1    0    0  501  502  0.00000000000E+00  0.00000000000E+00  0.29474401767E+01  0.29474401767E+01  0.00000000000E+00 0. -1.
         13   -1    0    0    0    0 -0.00000000000E+00 -0.00000000000E+00 -0.10000000000E+04  0.10000000000E+04  0.00000000000E+00 0.  1.
    9000005    2    1    2  501    0  0.11389422380E+02 -0.51771985684E+02 -0.60514414390E+03  0.60747017924E+03  0.32444305781E+01 0.  0.
         13    1    3    3    0    0  0.10912727767E+02 -0.45445097286E+02 -0.53890568444E+03  0.54092853615E+03  0.00000000000E+00 0.  1.
          1    1    3    3  501    0  0.47669461308E+00 -0.63268883970E+01 -0.66238459456E+02  0.66541643094E+02  0.00000000000E+00 0.  1.
         -1    1    1    2    0  502 -0.11389422380E+02  0.51771985684E+02 -0.39190841593E+03  0.39547726094E+03  0.00000000000E+00 0. -1.
<mgrwt>
<rscale>  1 0.30000000E+03</rscale>
<asrwt>0</asrwt>
<pdfrwt beam="1">  1       21 0.10717987E-01 0.30000000E+03</pdfrwt>
<pdfrwt beam="2">0</pdfrwt>
<totfact> 0.75985470E+03</totfact>
</mgrwt>
</event>
<event>
 6    1  0.1295671E-001  0.3000000E+03  0.7818608E-02  0.1093470E+00
         21   -1    0    0  501  502  0.00000000000E+00  0.00000000000E+00  0.55898325538E+01  0.55898325538E+01  0.00000000000E+00 0. -1.
         13   -1    0    0    0    0 -0.00000000000E+00 -0.00000000000E+00 -0.10000000000E+04  0.10000000000E+04  0.00000000000E+00 0.  1.
    9000005    2    1    2  501    0 -0.15712828857E+02 -0.42264219559E+02 -0.89821783684E+03  0.89935367246E+03  0.29306125925E+01 0.  0.
         13    1    3    3    0    0 -0.42239765269E+01 -0.13335905590E+02 -0.25579315704E+03  0.25617538435E+03  0.00000000000E+00 0.  1.
          3    1    3    3  501    0 -0.11488852330E+02 -0.28928313969E+02 -0.64242467980E+03  0.64317828811E+03  0.00000000000E+00 0.  1.
         -3    1    1    2    0  502  0.15712828857E+02  0.42264219559E+02 -0.96192330602E+02  0.10623616010E+03  0.00000000000E+00 0. -1.
<mgrwt>
<rscale>  1 0.30000000E+03</rscale>
<asrwt>0</asrwt>
<pdfrwt beam="1">  1       21 0.20326707E-01 0.30000000E+03</pdfrwt>
<pdfrwt beam="2">0</pdfrwt>
<totfact> 0.23260891E+03</totfact>
</mgrwt>
</event>
<event>
 6    1  0.1295671E-001  0.3000000E+03  0.7818608E-02  0.1093470E+00
         21   -1    0    0  501  502  0.00000000000E+00  0.00000000000E+00  0.10709386048E+01  0.10709386048E+01  0.00000000000E+00 0. -1.
         13   -1    0    0    0    0 -0.00000000000E+00 -0.00000000000E+00 -0.10000000000E+04  0.10000000000E+04  0.00000000000E+00 0.  1.
    9000005    2    1    2  501    0  0.30067311327E+02  0.67734041813E+01 -0.66590598767E+03  0.66662469502E+03  0.27887956096E+01 0.  0.
         13    1    3    3    0    0  0.21065608602E+02  0.59738148980E+01 -0.46235148697E+03  0.46286968342E+03  0.00000000000E+00 0.  1.
          1    1    3    3  501    0  0.90017027253E+01  0.79958928332E+00 -0.20355450071E+03  0.20375501160E+03  0.00000000000E+00 0.  1.
         -3    1    1    2    0  502 -0.30067311327E+02 -0.67734041813E+01 -0.33302307372E+03  0.33444624358E+03  0.00000000000E+00 0. -1.
<mgrwt>
<rscale>  1 0.30000000E+03</rscale>
<asrwt>0</asrwt>
<pdfrwt beam="1">  1       21 0.38943304E-02 0.30000000E+03</pdfrwt>
<pdfrwt beam="2">0</pdfrwt>
<totfact> 0.43985163E+04</totfact>
</mgrwt>
</event>
<event>
 6    1  0.1295671E-001  0.3000000E+03  0.7818608E-02  0.1093470E+00
         21   -1    0    0  501  502  0.00000000000E+00  0.00000000000E+00  0.20417085497E+01  0.20417085497E+01  0.00000000000E+00 0. -1.
         13   -1    0    0    0    0 -0.00000000000E+00 -0.00000000000E+00 -0.10000000000E+04  0.10000000000E+04  0.00000000000E+00 0.  1.
    9000005    2    1    2  501    0 -0.22214131928E+02  0.37724751801E+02 -0.37785348757E+03  0.38039342185E+03  0.30451215945E+01 0.  0.
         13    1    3    3    0    0 -0.19690063015E+02  0.33093077448E+02 -0.32317847856E+03  0.32546455930E+03  0.00000000000E+00 0.  1.
          1    1    3    3  501    0 -0.25240689129E+01  0.46316743536E+01 -0.54675009004E+02  0.54928862548E+02  0.00000000000E+00 0.  1.
         -1    1    1    2    0  502  0.22214131928E+02 -0.37724751801E+02 -0.62010480389E+03  0.62164828670E+03  0.00000000000E+00 0. -1.
<mgrwt>
<rscale>  1 0.30000000E+03</rscale>
<asrwt>0</asrwt>
<pdfrwt beam="1">  1       21 0.74244104E-02 0.30000000E+03</pdfrwt>
<pdfrwt beam="2">0</pdfrwt>
<totfact> 0.14560360E+04</totfact>
</mgrwt>
</event>
<event>
 6    1  0.1295671E-001  0.3000000E+03  0.7818608E-02  0.1093470E+00
         21   -1    0    0  501  502  0.00000000000E+00  0.00000000000E+00  0.11970166883E+01  0.11970166883E+01  0.00000000000E+00 0. -1.
         13   -1    0    0    0    0 -0.00000000000E+00 -0.00000000000E+00 -0.10000000000E+04  0.10000000000E+04  0.00000000000E+00 0.  1.
    9000005    2    1    2  501    0  0.22956276255E+02 -0.25320172451E+02 -0.46806995142E+03  0.46936466257E+03  0.67531688169E+01 0.  0.
         13    1    3    3    0    0  0.74737023845E+01 -0.13095446876E+02 -0.21299842589E+03  0.21353144122E+03  0.00000000000E+00 0.  1.
          1    1    3    3  501    0  0.15482573871E+02 -0.12224725575E+02 -0.25507152553E+03  0.25583322135E+03  0.00000000000E+00 0.  1.
         -1    1    1    2    0  502 -0.22956276255E+02  0.25320172451E+02 -0.53073303189E+03  0.53183235412E+03  0.00000000000E+00 0. -1.
<mgrwt>
<rscale>  1 0.30000000E+03</rscale>
<asrwt>0</asrwt>
<pdfrwt beam="1">  1       21 0.43527971E-02 0.30000000E+03</pdfrwt>
<pdfrwt beam="2">0</pdfrwt>
<totfact> 0.36456187E+04</totfact>
</mgrwt>
</event>
<event>
 6    1  0.1295671E-001  0.3000000E+03  0.7818608E-02  0.1093470E+00
         21   -1    0    0  501  502  0.00000000000E+00  0.00000000000E+00  0.99994772674E+00  0.99994772674E+00  0.00000000000E+00 0. -1.
         13   -1    0    0    0    0 -0.00000000000E+00 -0.00000000000E+00 -0.10000000000E+04  0.10000000000E+04  0.00000000000E+00 0.  1.
    9000005    2    1    2  501    0 -0.23035786565E+02 -0.20932525358E+02 -0.42260284158E+03  0.42376294045E+03  0.36124648917E+01 0.  0.
         13    1    3    3    0    0 -0.69382455933E+01 -0.48691569386E+01 -0.13177263116E+03  0.13204497062E+03  0.00000000000E+00 0.  1.
          3    1    3    3  501    0 -0.16097540972E+02 -0.16063368420E+02 -0.29083021042E+03  0.29171796983E+03  0.00000000000E+00 0.  1.
         -3    1    1    2    0  502  0.23035786565E+02  0.20932525358E+02 -0.57639721069E+03  0.57723700728E+03  0.00000000000E+00 0. -1.
<mgrwt>
<rscale>  1 0.30000000E+03</rscale>
<asrwt>0</asrwt>
<pdfrwt beam="1">  1       21 0.36361812E-02 0.30000000E+03</pdfrwt>
<pdfrwt beam="2">0</pdfrwt>
<totfact> 0.49355519E+04</totfact>
</mgrwt>
</event>
<event>
 6    1  0.1295671E-001  0.3000000E+03  0.7818608E-02  0.1093470E+00
         21   -1    0    0  501  502  0.00000000000E+00  0.00000000000E+00  0.13235343616E+01  0.13235343616E+01  0.00000000000E+00 0. -1.
         13   -1    0    0    0    0 -0.00000000000E+00 -0.00000000000E+00 -0.10000000000E+04  0.10000000000E+04  0.00000000000E+00 0.  1.
    9000005    2    1    2  501    0 -0.32720880231E+02 -0.77954329507E+01 -0.68850803727E+03  0.68933654948E+03  0.31837537328E+01 0.  0.
         13    1    3    3    0    0 -0.28536826734E+02 -0.77192950874E+01 -0.59147927884E+03  0.59221759118E+03  0.00000000000E+00 0.  1.
          1    1    3    3  501    0 -0.41840534967E+01 -0.76137863340E-01 -0.97028758422E+02  0.97118958302E+02  0.00000000000E+00 0.  1.
         -3    1    1    2    0  502  0.32720880231E+02  0.77954329507E+01 -0.31016842837E+03  0.31198698488E+03  0.00000000000E+00 0. -1.
<mgrwt>
<rscale>  1 0.30000000E+03</rscale>
<asrwt>0</asrwt>
<pdfrwt beam="1">  1       21 0.48128624E-02 0.30000000E+03</pdfrwt>
<pdfrwt beam="2">0</pdfrwt>
<totfact> 0.30738245E+04</totfact>
</mgrwt>
</event>
<event>
 6    1  0.1295671E-001  0.3000000E+03  0.7818608E-02  0.1093470E+00
         21   -1    0    0  501  502  0.00000000000E+00  0.00000000000E+00  0.17783215834E+01  0.17783215834E+01  0.00000000000E+00 0. -1.
         13   -1    0    0    0    0 -0.00000000000E+00 -0.00000000000E+00 -0.10000000000E+04  0.10000000000E+04  0.00000000000E+00 0.  1.
    9000005    2    1    2  501    0  0.19318174548E+02  0.23627864523E+02 -0.84439504868E+03  0.84495326024E+03  0.33979262132E+01 0.  0.
         13    1    3    3    0    0  0.73941002716E+01  0.78651675414E+01 -0.33918731071E+03  0.33935905075E+03  0.00000000000E+00 0.  1.
          1    1    3    3  501    0  0.11924074276E+02  0.15762696982E+02 -0.50520773797E+03  0.50559420948E+03  0.00000000000E+00 0.  1.
         -1    1    1    2    0  502 -0.19318174548E+02 -0.23627864523E+02 -0.15382662974E+03  0.15682506135E+03  0.00000000000E+00 0. -1.
<mgrwt>
<rscale>  1 0.30000000E+03</rscale>
<asrwt>0</asrwt>
<pdfrwt beam="1">  1       21 0.64666376E-02 0.30000000E+03</pdfrwt>
<pdfrwt beam="2">0</pdfrwt>
<totfact> 0.18514242E+04</totfact>
</mgrwt>
</event>
<event>
 6    1  0.1295671E-001  0.3000000E+03  0.7818608E-02  0.1093470E+00
         21   -1    0    0  501  502  0.00000000000E+00  0.00000000000E+00  0.13616610450E+01  0.13616610450E+01  0.00000000000E+00 0. -1.
         13   -1    0    0    0    0 -0.00000000000E+00 -0.00000000000E+00 -0.10000000000E+04  0.10000000000E+04  0.00000000000E+00 0.  1.
    9000005    2    1    2  501    0  0.29221489614E+02 -0.16185180839E+02 -0.71053452148E+03  0.71132775754E+03  0.34665414046E+01 0.  0.
         13    1    3    3    0    0  0.12823242143E+01 -0.16467634311E+01 -0.42713649384E+02  0.42764611875E+02  0.00000000000E+00 0.  1.
          1    1    3    3  501    0  0.27939165400E+02 -0.14538417408E+02 -0.66782087209E+03  0.66856314567E+03  0.00000000000E+00 0.  1.
         -3    1    1    2    0  502 -0.29221489614E+02  0.16185180839E+02 -0.28810381748E+03  0.29003390350E+03  0.00000000000E+00 0. -1.
<mgrwt>
<rscale>  1 0.30000000E+03</rscale>
<asrwt>0</asrwt>
<pdfrwt beam="1">  1       21 0.49515052E-02 0.30000000E+03</pdfrwt>
<pdfrwt beam="2">0</pdfrwt>
<totfact> 0.29287121E+04</totfact>
</mgrwt>
</event>
<event>
 6    1  0.1295671E-001  0.3000000E+03  0.7818608E-02  0.1093470E+00
         21   -1    0    0  501  502  0.00000000000E+00  0.00000000000E+00  0.60387630718E+01  0.60387630718E+01  0.00000000000E+00 0. -1.
         13   -1    0    0    0    0 -0.00000000000E+00 -0.00000000000E+00 -0.10000000000E+04  0.10000000000E+04  0.00000000000E+00 0.  1.
    9000005    2    1    2  501    0  0.48001976520E+02 -0.36360156346E+02 -0.81461060685E+03  0.81684864909E+03  0.50024001474E+01 0.  0.
         13    1    3    3    0    0  0.13926204411E+02 -0.10181201636E+02 -0.20418497807E+03  0.20491242350E+03  0.00000000000E+00 0.  1.
          1    1    3    3  501    0  0.34075772109E+02 -0.26178954710E+02 -0.61042562878E+03  0.61193622558E+03  0.00000000000E+00 0.  1.
         -3    1    1    2    0  502 -0.48001976520E+02  0.36360156346E+02 -0.17935063008E+03  0.18919011398E+03  0.00000000000E+00 0. -1.
<mgrwt>
<rscale>  1 0.30000000E+03</rscale>
<asrwt>0</asrwt>
<pdfrwt beam="1">  1       21 0.21959185E-01 0.30000000E+03</pdfrwt>
<pdfrwt beam="2">0</pdfrwt>
<totfact> 0.20057510E+03</totfact>
</mgrwt>
</event>
<event>
 6    1  0.1295671E-001  0.3000000E+03  0.7818608E-02  0.1093470E+00
         21   -1    0    0  501  502  0.00000000000E+00  0.00000000000E+00  0.16345218512E+01  0.16345218512E+01  0.00000000000E+00 0. -1.
         13   -1    0    0    0    0 -0.00000000000E+00 -0.00000000000E+00 -0.10000000000E+04  0.10000000000E+04  0.00000000000E+00 0.  1.
    9000005    2    1    2  501    0  0.36735807395E+02 -0.30944398890E+01 -0.29557898803E+03  0.29788176286E+03  0.27406883732E+01 0.  0.
         13    1    3    3    0    0  0.11010684883E+01 -0.71306324535E-01 -0.57718474412E+01  0.58763644622E+01  0.00000000000E+00 0.  1.
          3    1    3    3  501    0  0.35634738907E+02 -0.30231335644E+01 -0.28980714059E+03  0.29200539839E+03  0.00000000000E+00 0.  1.
         -3    1    1    2    0  502 -0.36735807395E+02  0.30944398890E+01 -0.70278649012E+03  0.70375275900E+03  0.00000000000E+00 0. -1.
<mgrwt>
<rscale>  1 0.30000000E+03</rscale>
<asrwt>0</asrwt>
<pdfrwt beam="1">  1       21 0.59437284E-02 0.30000000E+03</pdfrwt>
<pdfrwt beam="2">0</pdfrwt>
<totfact> 0.21416836E+04</totfact>
</mgrwt>
</event>
<event>
 6    1  0.1295671E-001  0.3000000E+03  0.7818608E-02  0.1093470E+00
         21   -1    0    0  501  502  0.00000000000E+00  0.00000000000E+00  0.96540133567E+01  0.96540133567E+01  0.00000000000E+00 0. -1.
         13   -1    0    0    0    0 -0.00000000000E+00 -0.00000000000E+00 -0.10000000000E+04  0.10000000000E+04  0.00000000000E+00 0.  1.
    9000005    2    1    2  501    0 -0.39800828058E+02  0.59701038533E+02 -0.83997693769E+03  0.84304317698E+03  0.34960664099E+01 0.  0.
         13    1    3    3    0    0 -0.15530841708E+02  0.26356652692E+02 -0.36155561252E+03  0.36284754530E+03  0.00000000000E+00 0.  1.
          3    1    3    3  501    0 -0.24269986350E+02  0.33344385841E+02 -0.47842132517E+03  0.48019563167E+03  0.00000000000E+00 0.  1.
         -3    1    1    2    0  502  0.39800828058E+02 -0.59701038533E+02 -0.15036904895E+03  0.16661083638E+03  0.00000000000E+00 0. -1.
<mgrwt>
<rscale>  1 0.30000000E+03</rscale>
<asrwt>0</asrwt>
<pdfrwt beam="1">  1       21 0.35105577E-01 0.30000000E+03</pdfrwt>
<pdfrwt beam="2">0</pdfrwt>
<totfact> 0.79090580E+02</totfact>
</mgrwt>
</event>
<event>
 6    1  0.1295671E-001  0.3000000E+03  0.7818608E-02  0.1093470E+00
         21   -1    0    0  501  502  0.00000000000E+00  0.00000000000E+00  0.16162485957E+01  0.16162485957E+01  0.00000000000E+00 0. -1.
         13   -1    0    0    0    0 -0.00000000000E+00 -0.00000000000E+00 -0.10000000000E+04  0.10000000000E+04  0.00000000000E+00 0.  1.
    9000005    2    1    2  501    0 -0.22234725104E+02  0.26022236368E+02 -0.76170941811E+03  0.76247971892E+03  0.15950979869E+01 0.  0.
         13    1    3    3    0    0 -0.13339969838E+02  0.14477780297E+02 -0.43143434193E+03  0.43188326237E+03  0.00000000000E+00 0.  1.
          1    1    3    3  501    0 -0.88947552666E+01  0.11544456071E+02 -0.33027507618E+03  0.33059645655E+03  0.00000000000E+00 0.  1.
         -3    1    1    2    0  502  0.22234725104E+02 -0.26022236368E+02 -0.23667433329E+03  0.23913652968E+03  0.00000000000E+00 0. -1.
<mgrwt>
<rscale>  1 0.30000000E+03</rscale>
<asrwt>0</asrwt>
<pdfrwt beam="1">  1       21 0.58772800E-02 0.30000000E+03</pdfrwt>
<pdfrwt beam="2">0</pdfrwt>
<totfact> 0.21835905E+04</totfact>
</mgrwt>
</event>
<event>
 6    1  0.1295671E-001  0.3000000E+03  0.7818608E-02  0.1093470E+00
         21   -1    0    0  501  502  0.00000000000E+00  0.00000000000E+00  0.98623623482E+00  0.98623623482E+00  0.00000000000E+00 0. -1.
         13   -1    0    0    0    0 -0.00000000000E+00 -0.00000000000E+00 -0.10000000000E+04  0.10000000000E+04  0.00000000000E+00 0.  1.
    9000005    2    1    2  501    0 -0.22066045694E+02  0.21086918139E+02 -0.61338368950E+03  0.61415019517E+03  0.30566637450E+01 0.  0.
         13    1    3    3    0    0 -0.33766368404E-02 -0.18843841108E-01 -0.22455237790E-01  0.29508129867E-01  0.00000000000E+00 0.  1.
          3    1    3    3  501    0 -0.22062669057E+02  0.21105761980E+02 -0.61336123426E+03  0.61412068704E+03  0.00000000000E+00 0.  1.
         -3    1    1    2    0  502  0.22066045694E+02 -0.21086918139E+02 -0.38563007426E+03  0.38683604106E+03  0.00000000000E+00 0. -1.
<mgrwt>
<rscale>  1 0.30000000E+03</rscale>
<asrwt>0</asrwt>
<pdfrwt beam="1">  1       21 0.35863211E-02 0.30000000E+03</pdfrwt>
<pdfrwt beam="2">0</pdfrwt>
<totfact> 0.50511734E+04</totfact>
</mgrwt>
</event>
<event>
 6    1  0.1295671E-001  0.3000000E+03  0.7818608E-02  0.1093470E+00
         21   -1    0    0  501  502  0.00000000000E+00  0.00000000000E+00  0.27550273610E+01  0.27550273610E+01  0.00000000000E+00 0. -1.
         13   -1    0    0    0    0 -0.00000000000E+00 -0.00000000000E+00 -0.10000000000E+04  0.10000000000E+04  0.00000000000E+00 0.  1.
    9000005    2    1    2  501    0 -0.40742957125E+02 -0.98808347077E+01 -0.79872386359E+03  0.79985542118E+03  0.71599633651E+01 0.  0.
         13    1    3    3    0    0 -0.16062982707E+02 -0.49697316736E+00 -0.28246290420E+03  0.28291970353E+03  0.00000000000E+00 0.  1.
          1    1    3    3  501    0 -0.24679974418E+02 -0.93838615403E+01 -0.51626095938E+03  0.51693571765E+03  0.00000000000E+00 0.  1.
         -3    1    1    2    0  502  0.40742957125E+02  0.98808347077E+01 -0.19852110905E+03  0.20289960618E+03  0.00000000000E+00 0. -1.
<mgrwt>
<rscale>  1 0.30000000E+03</rscale>
<asrwt>0</asrwt>
<pdfrwt beam="1">  1       21 0.10018302E-01 0.30000000E+03</pdfrwt>
<pdfrwt beam="2">0</pdfrwt>
<totfact> 0.85751323E+03</totfact>
</mgrwt>
</event>
<event>
 6    1  0.1295671E-001  0.3000000E+03  0.7818608E-02  0.1093470E+00
         21   -1    0    0  501  502  0.00000000000E+00  0.00000000000E+00  0.16237243019E+01  0.16237243019E+01  0.00000000000E+00 0. -1.
         13   -1    0    0    0    0 -0.00000000000E+00 -0.00000000000E+00 -0.10000000000E+04  0.10000000000E+04  0.00000000000E+00 0.  1.
    9000005    2    1    2  501    0 -0.38783706539E+02 -0.76605911828E+01 -0.41081832943E+03  0.41273731694E+03  0.41871769523E+01 0.  0.
         13    1    3    3    0    0 -0.36230261225E+02 -0.71468768207E+01 -0.39273931268E+03  0.39447164334E+03  0.00000000000E+00 0.  1.
          1    1    3    3  501    0 -0.25534453138E+01 -0.51371436206E+00 -0.18079016754E+02  0.18265673604E+02  0.00000000000E+00 0.  1.
         -3    1    1    2    0  502  0.38783706539E+02  0.76605911828E+01 -0.58755794627E+03  0.58888640736E+03  0.00000000000E+00 0. -1.
<mgrwt>
<rscale>  1 0.30000000E+03</rscale>
<asrwt>0</asrwt>
<pdfrwt beam="1">  1       21 0.59044645E-02 0.30000000E+03</pdfrwt>
<pdfrwt beam="2">0</pdfrwt>
<totfact> 0.21662929E+04</totfact>
</mgrwt>
</event>
<event>
 6    1  0.1295671E-001  0.3000000E+03  0.7818608E-02  0.1093470E+00
         21   -1    0    0  501  502  0.00000000000E+00  0.00000000000E+00  0.31599583702E+01  0.31599583702E+01  0.00000000000E+00 0. -1.
         13   -1    0    0    0    0 -0.00000000000E+00 -0.00000000000E+00 -0.10000000000E+04  0.10000000000E+04  0.00000000000E+00 0.  1.
    9000005    2    1    2  501    0  0.40863028742E+02  0.36936435255E+02 -0.40060499699E+03  0.40438594772E+03  0.30892939158E+01 0.  0.
         13    1    3    3    0    0  0.15713919037E+01  0.73156105900E+00 -0.11504939918E+02  0.11634779611E+02  0.00000000000E+00 0.  1.
          1    1    3    3  501    0  0.39291636838E+02  0.36204874196E+02 -0.38910005707E+03  0.39275116811E+03  0.00000000000E+00 0.  1.
         -1    1    1    2    0  502 -0.40863028742E+02 -0.36936435255E+02 -0.59623504464E+03  0.59877401065E+03  0.00000000000E+00 0. -1.
<mgrwt>
<rscale>  1 0.30000000E+03</rscale>
<asrwt>0</asrwt>
<pdfrwt beam="1">  1       21 0.11490782E-01 0.30000000E+03</pdfrwt>
<pdfrwt beam="2">0</pdfrwt>
<totfact> 0.67032571E+03</totfact>
</mgrwt>
</event>
<event>
 6    1  0.1295671E-001  0.3000000E+03  0.7818608E-02  0.1093470E+00
         21   -1    0    0  501  502  0.00000000000E+00  0.00000000000E+00  0.11712118889E+01  0.11712118889E+01  0.00000000000E+00 0. -1.
         13   -1    0    0    0    0 -0.00000000000E+00 -0.00000000000E+00 -0.10000000000E+04  0.10000000000E+04  0.00000000000E+00 0.  1.
    9000005    2    1    2  501    0  0.13660316323E+01  0.34011266247E+02 -0.54022757882E+03  0.54130851343E+03  0.32307144385E+01 0.  0.
         13    1    3    3    0    0  0.22580778706E+01  0.29666543357E+02 -0.47286060744E+03  0.47379569097E+03  0.00000000000E+00 0.  1.
          1    1    3    3  501    0 -0.89204623823E+00  0.43447228895E+01 -0.67366971377E+02  0.67512822456E+02  0.00000000000E+00 0.  1.
         -3    1    1    2    0  502 -0.13660316323E+01 -0.34011266247E+02 -0.45860120929E+03  0.45986269846E+03  0.00000000000E+00 0. -1.
<mgrwt>
<rscale>  1 0.30000000E+03</rscale>
<asrwt>0</asrwt>
<pdfrwt beam="1">  1       21 0.42589613E-02 0.30000000E+03</pdfrwt>
<pdfrwt beam="2">0</pdfrwt>
<totfact> 0.37825058E+04</totfact>
</mgrwt>
</event>
<event>
 6    1  0.1295671E-001  0.3000000E+03  0.7818608E-02  0.1093470E+00
         21   -1    0    0  501  502  0.00000000000E+00  0.00000000000E+00  0.12933302347E+01  0.12933302347E+01  0.00000000000E+00 0. -1.
         13   -1    0    0    0    0 -0.00000000000E+00 -0.00000000000E+00 -0.10000000000E+04  0.10000000000E+04  0.00000000000E+00 0.  1.
    9000005    2    1    2  501    0 -0.10722095911E+01 -0.30242038161E+02 -0.76887678043E+03  0.76947980920E+03  0.34558308539E+01 0.  0.
         13    1    3    3    0    0 -0.17459047449E+01 -0.93836003232E+01 -0.26084526869E+03  0.26101983514E+03  0.00000000000E+00 0.  1.
          3    1    3    3  501    0  0.67369515379E+00 -0.20858437837E+02 -0.50803151175E+03  0.50845997406E+03  0.00000000000E+00 0.  1.
         -1    1    1    2    0  502  0.10722095911E+01  0.30242038161E+02 -0.22982988933E+03  0.23181352104E+03  0.00000000000E+00 0. -1.
<mgrwt>
<rscale>  1 0.30000000E+03</rscale>
<asrwt>0</asrwt>
<pdfrwt beam="1">  1       21 0.47030290E-02 0.30000000E+03</pdfrwt>
<pdfrwt beam="2">0</pdfrwt>
<totfact> 0.31969295E+04</totfact>
</mgrwt>
</event>
<event>
 6    1  0.1295671E-001  0.3000000E+03  0.7818608E-02  0.1093470E+00
         21   -1    0    0  501  502  0.00000000000E+00  0.00000000000E+00  0.21815303221E+01  0.21815303221E+01  0.00000000000E+00 0. -1.
         13   -1    0    0    0    0 -0.00000000000E+00 -0.00000000000E+00 -0.10000000000E+04  0.10000000000E+04  0.00000000000E+00 0.  1.
    9000005    2    1    2  501    0  0.35264863864E+02 -0.30417751775E+02 -0.46960534544E+03  0.47191937359E+03  0.31407731717E+01 0.  0.
         13    1    3    3    0    0  0.32643085443E+02 -0.29141376614E+02 -0.43908357598E+03  0.44125862887E+03  0.00000000000E+00 0.  1.
          1    1    3    3  501    0  0.26217784211E+01 -0.12763751609E+01 -0.30521769461E+02  0.30660744718E+02  0.00000000000E+00 0.  1.
         -1    1    1    2    0  502 -0.35264863864E+02  0.30417751775E+02 -0.52821312424E+03  0.53026215673E+03  0.00000000000E+00 0. -1.
<mgrwt>
<rscale>  1 0.30000000E+03</rscale>
<asrwt>0</asrwt>
<pdfrwt beam="1">  1       21 0.79328543E-02 0.30000000E+03</pdfrwt>
<pdfrwt beam="2">0</pdfrwt>
<totfact> 0.12964342E+04</totfact>
</mgrwt>
</event>
<event>
 6    1  0.1295671E-001  0.3000000E+03  0.7818608E-02  0.1093470E+00
         21   -1    0    0  501  502  0.00000000000E+00  0.00000000000E+00  0.15781840516E+01  0.15781840516E+01  0.00000000000E+00 0. -1.
         13   -1    0    0    0    0 -0.00000000000E+00 -0.00000000000E+00 -0.10000000000E+04  0.10000000000E+04  0.00000000000E+00 0.  1.
    9000005    2    1    2  501    0 -0.33012377073E+02  0.29300939707E+01 -0.77448816825E+03  0.77520530347E+03  0.35968430865E+01 0.  0.
         13    1    3    3    0    0 -0.19727934081E+02  0.10747649710E+01 -0.42261813459E+03  0.42307970193E+03  0.00000000000E+00 0.  1.
          1    1    3    3  501    0 -0.13284442992E+02  0.18553289996E+01 -0.35187003366E+03  0.35212560154E+03  0.00000000000E+00 0.  1.
         -3    1    1    2    0  502  0.33012377073E+02 -0.29300939707E+01 -0.22393364770E+03  0.22637288058E+03  0.00000000000E+00 0. -1.
<mgrwt>
<rscale>  1 0.30000000E+03</rscale>
<asrwt>0</asrwt>
<pdfrwt beam="1">  1       21 0.57388632E-02 0.30000000E+03</pdfrwt>
<pdfrwt beam="2">0</pdfrwt>
<totfact> 0.22750799E+04</totfact>
</mgrwt>
</event>
<event>
 6    1  0.1295671E-001  0.3000000E+03  0.7818608E-02  0.1093470E+00
         21   -1    0    0  501  502  0.00000000000E+00  0.00000000000E+00  0.51075901492E+01  0.51075901492E+01  0.00000000000E+00 0. -1.
         13   -1    0    0    0    0 -0.00000000000E+00 -0.00000000000E+00 -0.10000000000E+04  0.10000000000E+04  0.00000000000E+00 0.  1.
    9000005    2    1    2  501    0  0.42034405566E+02 -0.78912259744E+01 -0.90001850813E+03  0.90103924758E+03  0.30410512351E+01 0.  0.
         13    1    3    3    0    0  0.17339858114E+02 -0.37245841164E+01 -0.40343733687E+03  0.40382697778E+03  0.00000000000E+00 0.  1.
          3    1    3    3  501    0  0.24694547452E+02 -0.41666418580E+01 -0.49658117126E+03  0.49721226979E+03  0.00000000000E+00 0.  1.
         -3    1    1    2    0  502 -0.42034405566E+02  0.78912259744E+01 -0.94873901717E+02  0.10406834257E+03  0.00000000000E+00 0. -1.
<mgrwt>
<rscale>  1 0.30000000E+03</rscale>
<asrwt>0</asrwt>
<pdfrwt beam="1">  1       21 0.18573094E-01 0.30000000E+03</pdfrwt>
<pdfrwt beam="2">0</pdfrwt>
<totfact> 0.27613411E+03</totfact>
</mgrwt>
</event>
<event>
 6    1  0.1295671E-001  0.3000000E+03  0.7818608E-02  0.1093470E+00
         21   -1    0    0  501  502  0.00000000000E+00  0.00000000000E+00  0.16975639965E+01  0.16975639965E+01  0.00000000000E+00 0. -1.
         13   -1    0    0    0    0 -0.00000000000E+00 -0.00000000000E+00 -0.10000000000E+04  0.10000000000E+04  0.00000000000E+00 0.  1.
    9000005    2    1    2  501    0 -0.13668882035E+02  0.26933694657E+02 -0.83957713302E+03  0.84012410067E+03  0.25455830720E+01 0.  0.
         13    1    3    3    0    0 -0.92114004598E+01  0.15810651962E+02 -0.52530039245E+03  0.52561899597E+03  0.00000000000E+00 0.  1.
          3    1    3    3  501    0 -0.44574815751E+01  0.11123042695E+02 -0.31427674057E+03  0.31450510470E+03  0.00000000000E+00 0.  1.
         -3    1    1    2    0  502  0.13668882035E+02 -0.26933694657E+02 -0.15872530298E+03  0.16157346333E+03  0.00000000000E+00 0. -1.
<mgrwt>
<rscale>  1 0.30000000E+03</rscale>
<asrwt>0</asrwt>
<pdfrwt beam="1">  1       21 0.61729730E-02 0.30000000E+03</pdfrwt>
<pdfrwt beam="2">0</pdfrwt>
<totfact> 0.20063135E+04</totfact>
</mgrwt>
</event>
<event>
 6    1  0.1295671E-001  0.3000000E+03  0.7818608E-02  0.1093470E+00
         21   -1    0    0  501  502  0.00000000000E+00  0.00000000000E+00  0.12604148754E+01  0.12604148754E+01  0.00000000000E+00 0. -1.
         13   -1    0    0    0    0 -0.00000000000E+00 -0.00000000000E+00 -0.10000000000E+04  0.10000000000E+04  0.00000000000E+00 0.  1.
    9000005    2    1    2  501    0  0.89458056617E+01 -0.32673846949E+02 -0.35369343159E+03  0.35532531914E+03  0.30710191219E+01 0.  0.
         13    1    3    3    0    0  0.13853296920E+01 -0.37101105712E+01 -0.51942765397E+02  0.52093521055E+02  0.00000000000E+00 0.  1.
          1    1    3    3  501    0  0.75604759697E+01 -0.28963736377E+02 -0.30175066619E+03  0.30323179808E+03  0.00000000000E+00 0.  1.
         -3    1    1    2    0  502 -0.89458056617E+01  0.32673846949E+02 -0.64504615354E+03  0.64593509574E+03  0.00000000000E+00 0. -1.
<mgrwt>
<rscale>  1 0.30000000E+03</rscale>
<asrwt>0</asrwt>
<pdfrwt beam="1">  1       21 0.45833365E-02 0.30000000E+03</pdfrwt>
<pdfrwt beam="2">0</pdfrwt>
<totfact> 0.33401079E+04</totfact>
</mgrwt>
</event>
<event>
 6    1  0.1295671E-001  0.3000000E+03  0.7818608E-02  0.1093470E+00
         21   -1    0    0  501  502  0.00000000000E+00  0.00000000000E+00  0.18403938739E+01  0.18403938739E+01  0.00000000000E+00 0. -1.
         13   -1    0    0    0    0 -0.00000000000E+00 -0.00000000000E+00 -0.10000000000E+04  0.10000000000E+04  0.00000000000E+00 0.  1.
    9000005    2    1    2  501    0  0.67248868841E-01 -0.33593742094E+02 -0.81009031430E+03  0.81079431943E+03  0.35450072184E+01 0.  0.
         13    1    3    3    0    0  0.10644631738E+01 -0.12635791166E+02 -0.33869273880E+03  0.33893003351E+03  0.00000000000E+00 0.  1.
          3    1    3    3  501    0 -0.99721430491E+00 -0.20957950929E+02 -0.47139757550E+03  0.47186428593E+03  0.00000000000E+00 0.  1.
         -1    1    1    2    0  502 -0.67248868841E-01  0.33593742094E+02 -0.18806929183E+03  0.19104607444E+03  0.00000000000E+00 0. -1.
<mgrwt>
<rscale>  1 0.30000000E+03</rscale>
<asrwt>0</asrwt>
<pdfrwt beam="1">  1       21 0.66923555E-02 0.30000000E+03</pdfrwt>
<pdfrwt beam="2">0</pdfrwt>
<totfact> 0.17445694E+04</totfact>
</mgrwt>
</event>
<event>
 6    1  0.1295671E-001  0.3000000E+03  0.7818608E-02  0.1093470E+00
         21   -1    0    0  501  502  0.00000000000E+00  0.00000000000E+00  0.11478524469E+01  0.11478524469E+01  0.00000000000E+00 0. -1.
         13   -1    0    0    0    0 -0.00000000000E+00 -0.00000000000E+00 -0.10000000000E+04  0.10000000000E+04  0.00000000000E+00 0.  1.
    9000005    2    1    2  501    0  0.19974729133E+02  0.25893522569E+02 -0.62703941028E+03  0.62789970990E+03  0.31873712508E+01 0.  0.
         13    1    3    3    0    0  0.11609276769E+02  0.17551555931E+02 -0.40233781473E+03  0.40288776302E+03  0.00000000000E+00 0.  1.
          1    1    3    3  501    0  0.83654523633E+01  0.83419666380E+01 -0.22470159554E+03  0.22501194688E+03  0.00000000000E+00 0.  1.
         -1    1    1    2    0  502 -0.19974729133E+02 -0.25893522569E+02 -0.37181273727E+03  0.37324814255E+03  0.00000000000E+00 0. -1.
<mgrwt>
<rscale>  1 0.30000000E+03</rscale>
<asrwt>0</asrwt>
<pdfrwt beam="1">  1       21 0.41740177E-02 0.30000000E+03</pdfrwt>
<pdfrwt beam="2">0</pdfrwt>
<totfact> 0.39134321E+04</totfact>
</mgrwt>
</event>
<event>
 6    1  0.1295671E-001  0.3000000E+03  0.7818608E-02  0.1093470E+00
         21   -1    0    0  501  502  0.00000000000E+00  0.00000000000E+00  0.13702724281E+01  0.13702724281E+01  0.00000000000E+00 0. -1.
         13   -1    0    0    0    0 -0.00000000000E+00 -0.00000000000E+00 -0.10000000000E+04  0.10000000000E+04  0.00000000000E+00 0.  1.
    9000005    2    1    2  501    0 -0.63248680988E+01  0.31605870628E+02 -0.74463166895E+03  0.74533521858E+03  0.30546095979E+01 0.  0.
         13    1    3    3    0    0 -0.12776337822E+01  0.35831784991E+01 -0.70622898977E+02  0.70725281025E+02  0.00000000000E+00 0.  1.
          1    1    3    3  501    0 -0.50472343165E+01  0.28022692129E+02 -0.67400876997E+03  0.67460993756E+03  0.00000000000E+00 0.  1.
         -3    1    1    2    0  502  0.63248680988E+01 -0.31605870628E+02 -0.25399805862E+03  0.25603505385E+03  0.00000000000E+00 0. -1.
<mgrwt>
<rscale>  1 0.30000000E+03</rscale>
<asrwt>0</asrwt>
<pdfrwt beam="1">  1       21 0.49828193E-02 0.30000000E+03</pdfrwt>
<pdfrwt beam="2">0</pdfrwt>
<totfact> 0.28974156E+04</totfact>
</mgrwt>
</event>
<event>
 6    1  0.1295671E-001  0.3000000E+03  0.7818608E-02  0.1093470E+00
         21   -1    0    0  501  502  0.00000000000E+00  0.00000000000E+00  0.10986861361E+01  0.10986861361E+01  0.00000000000E+00 0. -1.
         13   -1    0    0    0    0 -0.00000000000E+00 -0.00000000000E+00 -0.10000000000E+04  0.10000000000E+04  0.00000000000E+00 0.  1.
    9000005    2    1    2  501    0  0.22288508424E+02  0.22361345377E+02 -0.64285230508E+03  0.64365260064E+03  0.57251025529E+01 0.  0.
         13    1    3    3    0    0  0.19788037266E+02  0.20777337527E+02 -0.54417192474E+03  0.54492783729E+03  0.00000000000E+00 0.  1.
          1    1    3    3  501    0  0.25004711579E+01  0.15840078497E+01 -0.98680380333E+02  0.98724763356E+02  0.00000000000E+00 0.  1.
         -1    1    1    2    0  502 -0.22288508424E+02 -0.22361345377E+02 -0.35604900879E+03  0.35744608549E+03  0.00000000000E+00 0. -1.
<mgrwt>
<rscale>  1 0.30000000E+03</rscale>
<asrwt>0</asrwt>
<pdfrwt beam="1">  1       21 0.39952307E-02 0.30000000E+03</pdfrwt>
<pdfrwt beam="2">0</pdfrwt>
<totfact> 0.42131883E+04</totfact>
</mgrwt>
</event>
<event>
 6    1  0.1295671E-001  0.3000000E+03  0.7818608E-02  0.1093470E+00
         21   -1    0    0  501  502  0.00000000000E+00  0.00000000000E+00  0.28741494943E+01  0.28741494943E+01  0.00000000000E+00 0. -1.
         13   -1    0    0    0    0 -0.00000000000E+00 -0.00000000000E+00 -0.10000000000E+04  0.10000000000E+04  0.00000000000E+00 0.  1.
    9000005    2    1    2  501    0  0.30176348888E+02  0.44866115505E+01 -0.91079676614E+03  0.91131295399E+03  0.31319605252E+01 0.  0.
         13    1    3    3    0    0  0.25947447267E+02  0.35328619150E+01 -0.74712217328E+03  0.74758096079E+03  0.00000000000E+00 0.  1.
          3    1    3    3  501    0  0.42289016208E+01  0.95374963554E+00 -0.16367459286E+03  0.16373199320E+03  0.00000000000E+00 0.  1.
         -1    1    1    2    0  502 -0.30176348888E+02 -0.44866115505E+01 -0.86329084362E+02  0.91561195504E+02  0.00000000000E+00 0. -1.
<mgrwt>
<rscale>  1 0.30000000E+03</rscale>
<asrwt>0</asrwt>
<pdfrwt beam="1">  1       21 0.10451475E-01 0.30000000E+03</pdfrwt>
<pdfrwt beam="2">0</pdfrwt>
<totfact> 0.79495936E+03</totfact>
</mgrwt>
</event>
<event>
 6    1  0.1295671E-001  0.3000000E+03  0.7818608E-02  0.1093470E+00
         21   -1    0    0  501  502  0.00000000000E+00  0.00000000000E+00  0.16106692732E+01  0.16106692732E+01  0.00000000000E+00 0. -1.
         13   -1    0    0    0    0 -0.00000000000E+00 -0.00000000000E+00 -0.10000000000E+04  0.10000000000E+04  0.00000000000E+00 0.  1.
    9000005    2    1    2  501    0  0.20430714478E+02  0.34116978965E+02 -0.56069235118E+03  0.56211092155E+03  0.33753669412E+01 0.  0.
         13    1    3    3    0    0  0.60891936506E+01  0.89608418253E+01 -0.17270651835E+03  0.17304599517E+03  0.00000000000E+00 0.  1.
          1    1    3    3  501    0  0.14341520828E+02  0.25156137139E+02 -0.38798583284E+03  0.38906492638E+03  0.00000000000E+00 0.  1.
         -1    1    1    2    0  502 -0.20430714478E+02 -0.34116978965E+02 -0.43769697954E+03  0.43949974772E+03  0.00000000000E+00 0. -1.
<mgrwt>
<rscale>  1 0.30000000E+03</rscale>
<asrwt>0</asrwt>
<pdfrwt beam="1">  1       21 0.58569915E-02 0.30000000E+03</pdfrwt>
<pdfrwt beam="2">0</pdfrwt>
<totfact> 0.21966409E+04</totfact>
</mgrwt>
</event>
<event>
 6    1  0.1295671E-001  0.3000000E+03  0.7818608E-02  0.1093470E+00
         21   -1    0    0  501  502  0.00000000000E+00  0.00000000000E+00  0.12190534293E+01  0.12190534293E+01  0.00000000000E+00 0. -1.
         13   -1    0    0    0    0 -0.00000000000E+00 -0.00000000000E+00 -0.10000000000E+04  0.10000000000E+04  0.00000000000E+00 0.  1.
    9000005    2    1    2  501    0 -0.18670116525E+02  0.26113514716E+02 -0.69435628924E+03  0.69510655631E+03  0.34611148060E+01 0.  0.
         13    1    3    3    0    0 -0.16292303620E+02  0.20482179989E+02 -0.55926861347E+03  0.55988064877E+03  0.00000000000E+00 0.  1.
          1    1    3    3  501    0 -0.23778129043E+01  0.56313347268E+01 -0.13508767577E+03  0.13522590754E+03  0.00000000000E+00 0.  1.
         -1    1    1    2    0  502  0.18670116525E+02 -0.26113514716E+02 -0.30442465733E+03  0.30611249712E+03  0.00000000000E+00 0. -1.
<mgrwt>
<rscale>  1 0.30000000E+03</rscale>
<asrwt>0</asrwt>
<pdfrwt beam="1">  1       21 0.44329309E-02 0.30000000E+03</pdfrwt>
<pdfrwt beam="2">0</pdfrwt>
<totfact> 0.35346982E+04</totfact>
</mgrwt>
</event>
<event>
 6    1  0.1295671E-001  0.3000000E+03  0.7818608E-02  0.1093470E+00
         21   -1    0    0  501  502  0.00000000000E+00  0.00000000000E+00  0.58293864322E+01  0.58293864322E+01  0.00000000000E+00 0. -1.
         13   -1    0    0    0    0 -0.00000000000E+00 -0.00000000000E+00 -0.10000000000E+04  0.10000000000E+04  0.00000000000E+00 0.  1.
    9000005    2    1    2  501    0 -0.11301050282E+02 -0.64894659913E+02 -0.74984029123E+03  0.75277536644E+03  0.84415246063E+01 0.  0.
         13    1    3    3    0    0 -0.68106535288E+01 -0.27251712832E+02 -0.27850764453E+03  0.27992061181E+03  0.00000000000E+00 0.  1.
          1    1    3    3  501    0 -0.44903967536E+01 -0.37642947081E+02 -0.47133264670E+03  0.47285475463E+03  0.00000000000E+00 0.  1.
         -3    1    1    2    0  502  0.11301050282E+02  0.64894659913E+02 -0.24433032234E+03  0.25305401999E+03  0.00000000000E+00 0. -1.
<mgrwt>
<rscale>  1 0.30000000E+03</rscale>
<asrwt>0</asrwt>
<pdfrwt beam="1">  1       21 0.21197814E-01 0.30000000E+03</pdfrwt>
<pdfrwt beam="2">0</pdfrwt>
<totfact> 0.21464813E+03</totfact>
</mgrwt>
</event>
<event>
 6    1  0.1295671E-001  0.3000000E+03  0.7818608E-02  0.1093470E+00
         21   -1    0    0  501  502  0.00000000000E+00  0.00000000000E+00  0.10807446086E+02  0.10807446086E+02  0.00000000000E+00 0. -1.
         13   -1    0    0    0    0 -0.00000000000E+00 -0.00000000000E+00 -0.10000000000E+04  0.10000000000E+04  0.00000000000E+00 0.  1.
    9000005    2    1    2  501    0  0.18529857321E+02  0.32730499737E+02 -0.96575027028E+03  0.96648835441E+03  0.33931444584E+01 0.  0.
         13    1    3    3    0    0  0.18432376420E+02  0.31490394754E+02 -0.92597536163E+03  0.92669399902E+03  0.00000000000E+00 0.  1.
          1    1    3    3  501    0  0.97480901141E-01  0.12401049832E+01 -0.39774908649E+02  0.39794355391E+02  0.00000000000E+00 0.  1.
         -3    1    1    2    0  502 -0.18529857321E+02 -0.32730499737E+02 -0.23442283630E+02  0.44319091678E+02  0.00000000000E+00 0. -1.
<mgrwt>
<rscale>  1 0.30000000E+03</rscale>
<asrwt>0</asrwt>
<pdfrwt beam="1">  1       21 0.39299887E-01 0.30000000E+03</pdfrwt>
<pdfrwt beam="2">0</pdfrwt>
<totfact> 0.62666421E+02</totfact>
</mgrwt>
</event>
<event>
 6    1  0.1295671E-001  0.3000000E+03  0.7818608E-02  0.1093470E+00
         21   -1    0    0  501  502  0.00000000000E+00  0.00000000000E+00  0.21182987322E+01  0.21182987322E+01  0.00000000000E+00 0. -1.
         13   -1    0    0    0    0 -0.00000000000E+00 -0.00000000000E+00 -0.10000000000E+04  0.10000000000E+04  0.00000000000E+00 0.  1.
    9000005    2    1    2  501    0  0.37332992869E+02  0.85680662881E+01 -0.22298270190E+03  0.22627319607E+03  0.33331356009E+01 0.  0.
         13    1    3    3    0    0  0.26596317542E+02  0.76384198474E+01 -0.16037110066E+03  0.16274089680E+03  0.00000000000E+00 0.  1.
          3    1    3    3  501    0  0.10736675327E+02  0.92964644071E+00 -0.62611601241E+02  0.63532299263E+02  0.00000000000E+00 0.  1.
         -3    1    1    2    0  502 -0.37332992869E+02 -0.85680662881E+01 -0.77489899936E+03  0.77584510267E+03  0.00000000000E+00 0. -1.
<mgrwt>
<rscale>  1 0.30000000E+03</rscale>
<asrwt>0</asrwt>
<pdfrwt beam="1">  1       21 0.77029207E-02 0.30000000E+03</pdfrwt>
<pdfrwt beam="2">0</pdfrwt>
<totfact> 0.13650850E+04</totfact>
</mgrwt>
</event>
<event>
 6    1  0.1295671E-001  0.3000000E+03  0.7818608E-02  0.1093470E+00
         21   -1    0    0  501  502  0.00000000000E+00  0.00000000000E+00  0.37243074418E+01  0.37243074418E+01  0.00000000000E+00 0. -1.
         13   -1    0    0    0    0 -0.00000000000E+00 -0.00000000000E+00 -0.10000000000E+04  0.10000000000E+04  0.00000000000E+00 0.  1.
    9000005    2    1    2  501    0 -0.59611716187E+02  0.11415321513E+02 -0.54657188864E+03  0.54994310738E+03  0.35673001059E+01 0.  0.
         13    1    3    3    0    0 -0.28559084674E+02  0.70647155402E+01 -0.25690335049E+03  0.25858241050E+03  0.00000000000E+00 0.  1.
          3    1    3    3  501    0 -0.31052631513E+02  0.43506059729E+01 -0.28966853815E+03  0.29136069688E+03  0.00000000000E+00 0.  1.
         -1    1    1    2    0  502  0.59611716187E+02 -0.11415321513E+02 -0.44970380392E+03  0.45378120006E+03  0.00000000000E+00 0. -1.
<mgrwt>
<rscale>  1 0.30000000E+03</rscale>
<asrwt>0</asrwt>
<pdfrwt beam="1">  1       21 0.13542965E-01 0.30000000E+03</pdfrwt>
<pdfrwt beam="2">0</pdfrwt>
<totfact> 0.49702886E+03</totfact>
</mgrwt>
</event>
<event>
 6    1  0.1295671E-001  0.3000000E+03  0.7818608E-02  0.1093470E+00
         21   -1    0    0  501  502  0.00000000000E+00  0.00000000000E+00  0.14234432205E+01  0.14234432205E+01  0.00000000000E+00 0. -1.
         13   -1    0    0    0    0 -0.00000000000E+00 -0.00000000000E+00 -0.10000000000E+04  0.10000000000E+04  0.00000000000E+00 0.  1.
    9000005    2    1    2  501    0  0.20641507654E+02  0.23106461301E+02 -0.78412954893E+03  0.78474972639E+03  0.36059898345E+01 0.  0.
         13    1    3    3    0    0  0.18255198110E+02  0.20011496637E+02 -0.71105812386E+03  0.71157386669E+03  0.00000000000E+00 0.  1.
          1    1    3    3  501    0  0.23863095432E+01  0.30949646636E+01 -0.73071425078E+02  0.73175859697E+02  0.00000000000E+00 0.  1.
         -1    1    1    2    0  502 -0.20641507654E+02 -0.23106461301E+02 -0.21444700785E+03  0.21667371683E+03  0.00000000000E+00 0. -1.
<mgrwt>
<rscale>  1 0.30000000E+03</rscale>
<asrwt>0</asrwt>
<pdfrwt beam="1">  1       21 0.51761681E-02 0.30000000E+03</pdfrwt>
<pdfrwt beam="2">0</pdfrwt>
<totfact> 0.27152094E+04</totfact>
</mgrwt>
</event>
<event>
 6    1  0.1295671E-001  0.3000000E+03  0.7818608E-02  0.1093470E+00
         21   -1    0    0  501  502  0.00000000000E+00  0.00000000000E+00  0.20734795083E+01  0.20734795083E+01  0.00000000000E+00 0. -1.
         13   -1    0    0    0    0 -0.00000000000E+00 -0.00000000000E+00 -0.10000000000E+04  0.10000000000E+04  0.00000000000E+00 0.  1.
    9000005    2    1    2  501    0 -0.43826578149E+02  0.24988596498E+01 -0.62999749547E+03  0.63153497853E+03  0.35456395773E+01 0.  0.
         13    1    3    3    0    0 -0.13644382960E+02  0.23843295936E+01 -0.19292139916E+03  0.19341799417E+03  0.00000000000E+00 0.  1.
          1    1    3    3  501    0 -0.30182195189E+02  0.11453005621E+00 -0.43707609631E+03  0.43811698437E+03  0.00000000000E+00 0.  1.
         -3    1    1    2    0  502  0.43826578149E+02 -0.24988596498E+01 -0.36792902502E+03  0.37053850097E+03  0.00000000000E+00 0. -1.
<mgrwt>
<rscale>  1 0.30000000E+03</rscale>
<asrwt>0</asrwt>
<pdfrwt beam="1">  1       21 0.75399414E-02 0.30000000E+03</pdfrwt>
<pdfrwt beam="2">0</pdfrwt>
<totfact> 0.14172040E+04</totfact>
</mgrwt>
</event>
<event>
 6    1  0.1295671E-001  0.3000000E+03  0.7818608E-02  0.1093470E+00
         21   -1    0    0  501  502  0.00000000000E+00  0.00000000000E+00  0.10036030025E+01  0.10036030025E+01  0.00000000000E+00 0. -1.
         13   -1    0    0    0    0 -0.00000000000E+00 -0.00000000000E+00 -0.10000000000E+04  0.10000000000E+04  0.00000000000E+00 0.  1.
    9000005    2    1    2  501    0  0.79122199421E+01  0.29462297719E+02 -0.37048932624E+03  0.37175661795E+03  0.31641613567E+01 0.  0.
         13    1    3    3    0    0  0.53339908114E+01  0.18438862707E+02 -0.25054951833E+03  0.25128371266E+03  0.00000000000E+00 0.  1.
          3    1    3    3  501    0  0.25782291307E+01  0.11023435012E+02 -0.11993980791E+03  0.12047290528E+03  0.00000000000E+00 0.  1.
         -1    1    1    2    0  502 -0.79122199421E+01 -0.29462297719E+02 -0.62850707076E+03  0.62924698506E+03  0.00000000000E+00 0. -1.
<mgrwt>
<rscale>  1 0.30000000E+03</rscale>
<asrwt>0</asrwt>
<pdfrwt beam="1">  1       21 0.36494732E-02 0.30000000E+03</pdfrwt>
<pdfrwt beam="2">0</pdfrwt>
<totfact> 0.49054329E+04</totfact>
</mgrwt>
</event>
<event>
 6    1  0.1295671E-001  0.3000000E+03  0.7818608E-02  0.1093470E+00
         21   -1    0    0  501  502  0.00000000000E+00  0.00000000000E+00  0.13217067365E+01  0.13217067365E+01  0.00000000000E+00 0. -1.
         13   -1    0    0    0    0 -0.00000000000E+00 -0.00000000000E+00 -0.10000000000E+04  0.10000000000E+04  0.00000000000E+00 0.  1.
    9000005    2    1    2  501    0  0.20924795703E+02  0.26828673995E+02 -0.67355144354E+03  0.67441943811E+03  0.35222974169E+01 0.  0.
         13    1    3    3    0    0  0.10276653581E+02  0.12493422920E+02 -0.28663606162E+03  0.28709219259E+03  0.00000000000E+00 0.  1.
          3    1    3    3  501    0  0.10648142122E+02  0.14335251075E+02 -0.38691538192E+03  0.38732724552E+03  0.00000000000E+00 0.  1.
         -3    1    1    2    0  502 -0.20924795703E+02 -0.26828673995E+02 -0.32512684972E+03  0.32690226863E+03  0.00000000000E+00 0. -1.
<mgrwt>
<rscale>  1 0.30000000E+03</rscale>
<asrwt>0</asrwt>
<pdfrwt beam="1">  1       21 0.48062164E-02 0.30000000E+03</pdfrwt>
<pdfrwt beam="2">0</pdfrwt>
<totfact> 0.30810611E+04</totfact>
</mgrwt>
</event>
<event>
 6    1  0.1295671E-001  0.3000000E+03  0.7818608E-02  0.1093470E+00
         21   -1    0    0  501  502  0.00000000000E+00  0.00000000000E+00  0.20891403037E+01  0.20891403037E+01  0.00000000000E+00 0. -1.
         13   -1    0    0    0    0 -0.00000000000E+00 -0.00000000000E+00 -0.10000000000E+04  0.10000000000E+04  0.00000000000E+00 0.  1.
    9000005    2    1    2  501    0  0.30639535297E+02 -0.70138408750E+01 -0.86021431947E+03  0.86085064598E+03  0.10352979525E+02 0.  0.
         13    1    3    3    0    0  0.43722766376E+01 -0.28211170275E+01 -0.25364772252E+03  0.25370108916E+03  0.00000000000E+00 0.  1.
          1    1    3    3  501    0  0.26267258660E+02 -0.41927238474E+01 -0.60656659695E+03  0.60714955682E+03  0.00000000000E+00 0.  1.
         -1    1    1    2    0  502 -0.30639535297E+02  0.70138408750E+01 -0.13769654023E+03  0.14123849432E+03  0.00000000000E+00 0. -1.
<mgrwt>
<rscale>  1 0.30000000E+03</rscale>
<asrwt>0</asrwt>
<pdfrwt beam="1">  1       21 0.75968899E-02 0.30000000E+03</pdfrwt>
<pdfrwt beam="2">0</pdfrwt>
<totfact> 0.13986483E+04</totfact>
</mgrwt>
</event>
<event>
 6    1  0.1295671E-001  0.3000000E+03  0.7818608E-02  0.1093470E+00
         21   -1    0    0  501  502  0.00000000000E+00  0.00000000000E+00  0.17738140845E+01  0.17738140845E+01  0.00000000000E+00 0. -1.
         13   -1    0    0    0    0 -0.00000000000E+00 -0.00000000000E+00 -0.10000000000E+04  0.10000000000E+04  0.00000000000E+00 0.  1.
    9000005    2    1    2  501    0  0.40014604718E+02 -0.61504551072E+01 -0.63593962731E+03  0.63723225647E+03  0.25966135162E+01 0.  0.
         13    1    3    3    0    0  0.75350549060E+01 -0.21946092030E+01 -0.12294804392E+03  0.12319827460E+03  0.00000000000E+00 0.  1.
          1    1    3    3  501    0  0.32479549812E+02 -0.39558459042E+01 -0.51299158340E+03  0.51403398186E+03  0.00000000000E+00 0.  1.
         -1    1    1    2    0  502 -0.40014604718E+02  0.61504551072E+01 -0.36228655860E+03  0.36454155762E+03  0.00000000000E+00 0. -1.
<mgrwt>
<rscale>  1 0.30000000E+03</rscale>
<asrwt>0</asrwt>
<pdfrwt beam="1">  1       21 0.64502466E-02 0.30000000E+03</pdfrwt>
<pdfrwt beam="2">0</pdfrwt>
<totfact> 0.18595744E+04</totfact>
</mgrwt>
</event>
<event>
 6    1  0.1295671E-001  0.3000000E+03  0.7818608E-02  0.1093470E+00
         21   -1    0    0  501  502  0.00000000000E+00  0.00000000000E+00  0.14078216677E+01  0.14078216677E+01  0.00000000000E+00 0. -1.
         13   -1    0    0    0    0 -0.00000000000E+00 -0.00000000000E+00 -0.10000000000E+04  0.10000000000E+04  0.00000000000E+00 0.  1.
    9000005    2    1    2  501    0  0.13017429718E+02 -0.28581298036E+02 -0.77250052409E+03  0.77314529695E+03  0.32009995208E+01 0.  0.
         13    1    3    3    0    0  0.24436559940E+01 -0.88150995412E+01 -0.21792958731E+03  0.21812148555E+03  0.00000000000E+00 0.  1.
          3    1    3    3  501    0  0.10573773724E+02 -0.19766198494E+02 -0.55457093679E+03  0.55502381140E+03  0.00000000000E+00 0.  1.
         -3    1    1    2    0  502 -0.13017429718E+02  0.28581298036E+02 -0.22609165424E+03  0.22826252472E+03  0.00000000000E+00 0. -1.
<mgrwt>
<rscale>  1 0.30000000E+03</rscale>
<asrwt>0</asrwt>
<pdfrwt beam="1">  1       21 0.51193623E-02 0.30000000E+03</pdfrwt>
<pdfrwt beam="2">0</pdfrwt>
<totfact> 0.27668510E+04</totfact>
</mgrwt>
</event>
<event>
 6    1  0.1295671E-001  0.3000000E+03  0.7818608E-02  0.1093470E+00
         21   -1    0    0  501  502  0.00000000000E+00  0.00000000000E+00  0.10188340056E+01  0.10188340056E+01  0.00000000000E+00 0. -1.
         13   -1    0    0    0    0 -0.00000000000E+00 -0.00000000000E+00 -0.10000000000E+04  0.10000000000E+04  0.00000000000E+00 0.  1.
    9000005    2    1    2  501    0 -0.11513162090E+02  0.28823069728E+02 -0.39040275393E+03  0.39164948305E+03  0.34183401658E+01 0.  0.
         13    1    3    3    0    0 -0.64015775168E+01  0.11980944093E+02 -0.18000484932E+03  0.18051667234E+03  0.00000000000E+00 0.  1.
          3    1    3    3  501    0 -0.51115845734E+01  0.16842125636E+02 -0.21039790461E+03  0.21113281070E+03  0.00000000000E+00 0.  1.
         -1    1    1    2    0  502  0.11513162090E+02 -0.28823069728E+02 -0.60857841207E+03  0.60936935096E+03  0.00000000000E+00 0. -1.
<mgrwt>
<rscale>  1 0.30000000E+03</rscale>
<asrwt>0</asrwt>
<pdfrwt beam="1">  1       21 0.37048587E-02 0.30000000E+03</pdfrwt>
<pdfrwt beam="2">0</pdfrwt>
<totfact> 0.47829967E+04</totfact>
</mgrwt>
</event>
<event>
 6    1  0.1295671E-001  0.3000000E+03  0.7818608E-02  0.1093470E+00
         21   -1    0    0  501  502  0.00000000000E+00  0.00000000000E+00  0.16432678641E+01  0.16432678641E+01  0.00000000000E+00 0. -1.
         13   -1    0    0    0    0 -0.00000000000E+00 -0.00000000000E+00 -0.10000000000E+04  0.10000000000E+04  0.00000000000E+00 0.  1.
    9000005    2    1    2  501    0 -0.18739974750E+02 -0.35873312295E+02 -0.50713959449E+03  0.50876158074E+03  0.31139276686E+01 0.  0.
         13    1    3    3    0    0 -0.11086623182E+02 -0.19408093482E+02 -0.26341256542E+03  0.26435916274E+03  0.00000000000E+00 0.  1.
          3    1    3    3  501    0 -0.76533515672E+01 -0.16465218812E+02 -0.24372702907E+03  0.24440241799E+03  0.00000000000E+00 0.  1.
         -1    1    1    2    0  502  0.18739974750E+02  0.35873312295E+02 -0.49121713765E+03  0.49288168713E+03  0.00000000000E+00 0. -1.
<mgrwt>
<rscale>  1 0.30000000E+03</rscale>
<asrwt>0</asrwt>
<pdfrwt beam="1">  1       21 0.59755321E-02 0.30000000E+03</pdfrwt>
<pdfrwt beam="2">0</pdfrwt>
<totfact> 0.21220679E+04</totfact>
</mgrwt>
</event>
<event>
 6    1  0.1295671E-001  0.3000000E+03  0.7818608E-02  0.1093470E+00
         21   -1    0    0  501  502  0.00000000000E+00  0.00000000000E+00  0.27699947838E+01  0.27699947838E+01  0.00000000000E+00 0. -1.
         13   -1    0    0    0    0 -0.00000000000E+00 -0.00000000000E+00 -0.10000000000E+04  0.10000000000E+04  0.00000000000E+00 0.  1.
    9000005    2    1    2  501    0 -0.28268199495E+02  0.24910522707E+02 -0.84843998352E+03  0.84928352698E+03  0.35324652199E+01 0.  0.
         13    1    3    3    0    0 -0.24077654175E+02  0.19511808869E+02 -0.70493422035E+03  0.70561512111E+03  0.00000000000E+00 0.  1.
          1    1    3    3  501    0 -0.41905453204E+01  0.53987138374E+01 -0.14350576317E+03  0.14366840587E+03  0.00000000000E+00 0.  1.
         -3    1    1    2    0  502  0.28268199495E+02 -0.24910522707E+02 -0.14879002169E+03  0.15348646781E+03  0.00000000000E+00 0. -1.
<mgrwt>
<rscale>  1 0.30000000E+03</rscale>
<asrwt>0</asrwt>
<pdfrwt beam="1">  1       21 0.10072730E-01 0.30000000E+03</pdfrwt>
<pdfrwt beam="2">0</pdfrwt>
<totfact> 0.84924929E+03</totfact>
</mgrwt>
</event>
<event>
 6    1  0.1295671E-001  0.3000000E+03  0.7818608E-02  0.1093470E+00
         21   -1    0    0  501  502  0.00000000000E+00  0.00000000000E+00  0.13012662325E+01  0.13012662325E+01  0.00000000000E+00 0. -1.
         13   -1    0    0    0    0 -0.00000000000E+00 -0.00000000000E+00 -0.10000000000E+04  0.10000000000E+04  0.00000000000E+00 0.  1.
    9000005    2    1    2  501    0 -0.20392071178E+02 -0.28945196352E+02 -0.59079189209E+03  0.59186060821E+03  0.32029403195E+01 0.  0.
         13    1    3    3    0    0 -0.15483486387E+02 -0.19452622670E+02 -0.40990284257E+03  0.41065616180E+03  0.00000000000E+00 0.  1.
          1    1    3    3  501    0 -0.49085847912E+01 -0.94925736819E+01 -0.18088904952E+03  0.18120444640E+03  0.00000000000E+00 0.  1.
         -1    1    1    2    0  502  0.20392071178E+02  0.28945196352E+02 -0.40790684167E+03  0.40944065802E+03  0.00000000000E+00 0. -1.
<mgrwt>
<rscale>  1 0.30000000E+03</rscale>
<asrwt>0</asrwt>
<pdfrwt beam="1">  1       21 0.47318872E-02 0.30000000E+03</pdfrwt>
<pdfrwt beam="2">0</pdfrwt>
<totfact> 0.31638465E+04</totfact>
</mgrwt>
</event>
<event>
 6    1  0.1295671E-001  0.3000000E+03  0.7818608E-02  0.1093470E+00
         21   -1    0    0  501  502  0.00000000000E+00  0.00000000000E+00  0.28860486857E+01  0.28860486857E+01  0.00000000000E+00 0. -1.
         13   -1    0    0    0    0 -0.00000000000E+00 -0.00000000000E+00 -0.10000000000E+04  0.10000000000E+04  0.00000000000E+00 0.  1.
    9000005    2    1    2  501    0 -0.46656485883E+02 -0.25900951078E+02 -0.44485869081E+03  0.44805854424E+03  0.30850170150E+01 0.  0.
         13    1    3    3    0    0 -0.32760802823E+02 -0.16552618644E+02 -0.30606454365E+03  0.30825762645E+03  0.00000000000E+00 0.  1.
          1    1    3    3  501    0 -0.13895683060E+02 -0.93483324342E+01 -0.13879414717E+03  0.13980091779E+03  0.00000000000E+00 0.  1.
         -1    1    1    2    0  502  0.46656485883E+02  0.25900951078E+02 -0.55225526050E+03  0.55482750445E+03  0.00000000000E+00 0. -1.
<mgrwt>
<rscale>  1 0.30000000E+03</rscale>
<asrwt>0</asrwt>
<pdfrwt beam="1">  1       21 0.10494745E-01 0.30000000E+03</pdfrwt>
<pdfrwt beam="2">0</pdfrwt>
<totfact> 0.78909470E+03</totfact>
</mgrwt>
</event>
<event>
 6    1  0.1295671E-001  0.3000000E+03  0.7818608E-02  0.1093470E+00
         21   -1    0    0  501  502  0.00000000000E+00  0.00000000000E+00  0.11265482619E+01  0.11265482619E+01  0.00000000000E+00 0. -1.
         13   -1    0    0    0    0 -0.00000000000E+00 -0.00000000000E+00 -0.10000000000E+04  0.10000000000E+04  0.00000000000E+00 0.  1.
    9000005    2    1    2  501    0  0.23084930512E+02  0.21721538000E+02 -0.65660912680E+03  0.65739757457E+03  0.55934268420E+01 0.  0.
         13    1    3    3    0    0  0.21303871085E+02  0.19070536340E+02 -0.61591142338E+03  0.61657474951E+03  0.00000000000E+00 0.  1.
          1    1    3    3  501    0  0.17810594265E+01  0.26510016599E+01 -0.40697703413E+02  0.40822825056E+02  0.00000000000E+00 0.  1.
         -1    1    1    2    0  502 -0.23084930512E+02 -0.21721538000E+02 -0.34226432494E+03  0.34372897370E+03  0.00000000000E+00 0. -1.
<mgrwt>
<rscale>  1 0.30000000E+03</rscale>
<asrwt>0</asrwt>
<pdfrwt beam="1">  1       21 0.40965478E-02 0.30000000E+03</pdfrwt>
<pdfrwt beam="2">0</pdfrwt>
<totfact> 0.40390966E+04</totfact>
</mgrwt>
</event>
<event>
 6    1  0.1295671E-001  0.3000000E+03  0.7818608E-02  0.1093470E+00
         21   -1    0    0  501  502  0.00000000000E+00  0.00000000000E+00  0.98968313308E+01  0.98968313308E+01  0.00000000000E+00 0. -1.
         13   -1    0    0    0    0 -0.00000000000E+00 -0.00000000000E+00 -0.10000000000E+04  0.10000000000E+04  0.00000000000E+00 0.  1.
    9000005    2    1    2  501    0 -0.32726138586E+02  0.91242200250E+01 -0.96963320660E+03  0.97023235245E+03  0.28303459178E+01 0.  0.
         13    1    3    3    0    0 -0.15093995637E+02  0.33593095921E+01 -0.47367828714E+03  0.47393062084E+03  0.00000000000E+00 0.  1.
          1    1    3    3  501    0 -0.17632142949E+02  0.57649104328E+01 -0.49595491946E+03  0.49630173161E+03  0.00000000000E+00 0.  1.
         -1    1    1    2    0  502  0.32726138586E+02 -0.91242200250E+01 -0.20469962066E+02  0.39664478880E+02  0.00000000000E+00 0. -1.
<mgrwt>
<rscale>  1 0.30000000E+03</rscale>
<asrwt>0</asrwt>
<pdfrwt beam="1">  1       21 0.35988553E-01 0.30000000E+03</pdfrwt>
<pdfrwt beam="2">0</pdfrwt>
<totfact> 0.75164913E+02</totfact>
</mgrwt>
</event>
<event>
 6    1  0.1295671E-001  0.3000000E+03  0.7818608E-02  0.1093470E+00
         21   -1    0    0  501  502  0.00000000000E+00  0.00000000000E+00  0.26506074545E+01  0.26506074545E+01  0.00000000000E+00 0. -1.
         13   -1    0    0    0    0 -0.00000000000E+00 -0.00000000000E+00 -0.10000000000E+04  0.10000000000E+04  0.00000000000E+00 0.  1.
    9000005    2    1    2  501    0 -0.49768782206E+02 -0.38368413754E+01 -0.38504628160E+03  0.38831620934E+03  0.60980675276E+01 0.  0.
         13    1    3    3    0    0 -0.25141887404E+02 -0.19148620840E+00 -0.21279061374E+03  0.21427084838E+03  0.00000000000E+00 0.  1.
          3    1    3    3  501    0 -0.24626894802E+02 -0.36453551670E+01 -0.17225566787E+03  0.17404536097E+03  0.00000000000E+00 0.  1.
         -1    1    1    2    0  502  0.49768782206E+02  0.38368413754E+01 -0.61230311094E+03  0.61433439811E+03  0.00000000000E+00 0. -1.
<mgrwt>
<rscale>  1 0.30000000E+03</rscale>
<asrwt>0</asrwt>
<pdfrwt beam="1">  1       21 0.96385929E-02 0.30000000E+03</pdfrwt>
<pdfrwt beam="2">0</pdfrwt>
<totfact> 0.91874531E+03</totfact>
</mgrwt>
</event>
<event>
 6    1  0.1295671E-001  0.3000000E+03  0.7818608E-02  0.1093470E+00
         21   -1    0    0  501  502  0.00000000000E+00  0.00000000000E+00  0.27864590912E+01  0.27864590912E+01  0.00000000000E+00 0. -1.
         13   -1    0    0    0    0 -0.00000000000E+00 -0.00000000000E+00 -0.10000000000E+04  0.10000000000E+04  0.00000000000E+00 0.  1.
    9000005    2    1    2  501    0  0.36330775587E+02 -0.17256912712E+02 -0.82302405488E+03  0.82401368898E+03  0.34983453786E+01 0.  0.
         13    1    3    3    0    0  0.94201464897E+01 -0.35272121074E+01 -0.23215268816E+03  0.23237050374E+03  0.00000000000E+00 0.  1.
          3    1    3    3  501    0  0.26910629097E+02 -0.13729700605E+02 -0.59087136672E+03  0.59164318524E+03  0.00000000000E+00 0.  1.
         -1    1    1    2    0  502 -0.36330775587E+02  0.17256912712E+02 -0.17418948603E+03  0.17877277011E+03  0.00000000000E+00 0. -1.
<mgrwt>
<rscale>  1 0.30000000E+03</rscale>
<asrwt>0</asrwt>
<pdfrwt beam="1">  1       21 0.10132600E-01 0.30000000E+03</pdfrwt>
<pdfrwt beam="2">0</pdfrwt>
<totfact> 0.84029838E+03</totfact>
</mgrwt>
</event>
<event>
 6    1  0.1295671E-001  0.3000000E+03  0.7818608E-02  0.1093470E+00
         21   -1    0    0  501  502  0.00000000000E+00  0.00000000000E+00  0.19992057035E+01  0.19992057035E+01  0.00000000000E+00 0. -1.
         13   -1    0    0    0    0 -0.00000000000E+00 -0.00000000000E+00 -0.10000000000E+04  0.10000000000E+04  0.00000000000E+00 0.  1.
    9000005    2    1    2  501    0  0.19547111951E+02  0.24639606265E+02 -0.85474753548E+03  0.85533395438E+03  0.36911154896E+01 0.  0.
         13    1    3    3    0    0  0.15615116386E+02  0.17914015632E+02 -0.67327175667E+03  0.67369102870E+03  0.00000000000E+00 0.  1.
          1    1    3    3  501    0  0.39319955652E+01  0.67255906334E+01 -0.18147577880E+03  0.18164292568E+03  0.00000000000E+00 0.  1.
         -3    1    1    2    0  502 -0.19547111951E+02 -0.24639606265E+02 -0.14325325882E+03  0.14666525132E+03  0.00000000000E+00 0. -1.
<mgrwt>
<rscale>  1 0.30000000E+03</rscale>
<asrwt>0</asrwt>
<pdfrwt beam="1">  1       21 0.72698543E-02 0.30000000E+03</pdfrwt>
<pdfrwt beam="2">0</pdfrwt>
<totfact> 0.15105706E+04</totfact>
</mgrwt>
</event>
<event>
 6    1  0.1295671E-001  0.3000000E+03  0.7818608E-02  0.1093470E+00
         21   -1    0    0  501  502  0.00000000000E+00  0.00000000000E+00  0.15690541514E+01  0.15690541514E+01  0.00000000000E+00 0. -1.
         13   -1    0    0    0    0 -0.00000000000E+00 -0.00000000000E+00 -0.10000000000E+04  0.10000000000E+04  0.00000000000E+00 0.  1.
    9000005    2    1    2  501    0  0.49550323866E+01  0.38392451431E+02 -0.60194541027E+03  0.60319823118E+03  0.33610235468E+01 0.  0.
         13    1    3    3    0    0  0.40095524931E+01  0.17981281214E+02 -0.28703487071E+03  0.28762548563E+03  0.00000000000E+00 0.  1.
          1    1    3    3  501    0  0.94547989348E+00  0.20411170217E+02 -0.31491053956E+03  0.31557274554E+03  0.00000000000E+00 0.  1.
         -3    1    1    2    0  502 -0.49550323866E+01 -0.38392451431E+02 -0.39648553558E+03  0.39837082298E+03  0.00000000000E+00 0. -1.
<mgrwt>
<rscale>  1 0.30000000E+03</rscale>
<asrwt>0</asrwt>
<pdfrwt beam="1">  1       21 0.57056635E-02 0.30000000E+03</pdfrwt>
<pdfrwt beam="2">0</pdfrwt>
<totfact> 0.22978985E+04</totfact>
</mgrwt>
</event>
<event>
 6    1  0.1295671E-001  0.3000000E+03  0.7818608E-02  0.1093470E+00
         21   -1    0    0  501  502  0.00000000000E+00  0.00000000000E+00  0.11693669695E+01  0.11693669695E+01  0.00000000000E+00 0. -1.
         13   -1    0    0    0    0 -0.00000000000E+00 -0.00000000000E+00 -0.10000000000E+04  0.10000000000E+04  0.00000000000E+00 0.  1.
    9000005    2    1    2  501    0 -0.19261154026E+02 -0.24012084644E+02 -0.71591489112E+03  0.71658389777E+03  0.32831297311E+01 0.  0.
         13    1    3    3    0    0 -0.41535363664E+00 -0.30747447516E+00 -0.25425442460E+02  0.25430693728E+02  0.00000000000E+00 0.  1.
          3    1    3    3  501    0 -0.18845800389E+02 -0.23704610169E+02 -0.69048944866E+03  0.69115320404E+03  0.00000000000E+00 0.  1.
         -1    1    1    2    0  502  0.19261154026E+02  0.24012084644E+02 -0.28291574191E+03  0.28458546920E+03  0.00000000000E+00 0. -1.
<mgrwt>
<rscale>  1 0.30000000E+03</rscale>
<asrwt>0</asrwt>
<pdfrwt beam="1">  1       21 0.42522525E-02 0.30000000E+03</pdfrwt>
<pdfrwt beam="2">0</pdfrwt>
<totfact> 0.37925970E+04</totfact>
</mgrwt>
</event>
<event>
 6    1  0.1295671E-001  0.3000000E+03  0.7818608E-02  0.1093470E+00
         21   -1    0    0  501  502  0.00000000000E+00  0.00000000000E+00  0.11199847336E+01  0.11199847336E+01  0.00000000000E+00 0. -1.
         13   -1    0    0    0    0 -0.00000000000E+00 -0.00000000000E+00 -0.10000000000E+04  0.10000000000E+04  0.00000000000E+00 0.  1.
    9000005    2    1    2  501    0  0.28675460814E+02  0.89983711070E+01 -0.71838040381E+03  0.71901488949E+03  0.29587149124E+01 0.  0.
         13    1    3    3    0    0  0.44829329574E+01  0.37243583666E+00 -0.11587343354E+03  0.11596071748E+03  0.00000000000E+00 0.  1.
          3    1    3    3  501    0  0.24192527857E+02  0.86259352703E+01 -0.60250697026E+03  0.60305417201E+03  0.00000000000E+00 0.  1.
         -1    1    1    2    0  502 -0.28675460814E+02 -0.89983711070E+01 -0.28049961146E+03  0.28210509525E+03  0.00000000000E+00 0. -1.
<mgrwt>
<rscale>  1 0.30000000E+03</rscale>
<asrwt>0</asrwt>
<pdfrwt beam="1">  1       21 0.40726803E-02 0.30000000E+03</pdfrwt>
<pdfrwt beam="2">0</pdfrwt>
<totfact> 0.40790829E+04</totfact>
</mgrwt>
</event>
<event>
 6    1  0.1295671E-001  0.3000000E+03  0.7818608E-02  0.1093470E+00
         21   -1    0    0  501  502  0.00000000000E+00  0.00000000000E+00  0.19765471579E+01  0.19765471579E+01  0.00000000000E+00 0. -1.
         13   -1    0    0    0    0 -0.00000000000E+00 -0.00000000000E+00 -0.10000000000E+04  0.10000000000E+04  0.00000000000E+00 0.  1.
    9000005    2    1    2  501    0 -0.42332404420E+02 -0.10324269375E+02 -0.59624750951E+03  0.59784472257E+03  0.29320145002E+01 0.  0.
         13    1    3    3    0    0 -0.40262513563E+02 -0.94828156175E+01 -0.55711336733E+03  0.55864684538E+03  0.00000000000E+00 0.  1.
          3    1    3    3  501    0 -0.20698908571E+01 -0.84145375794E+00 -0.39134142179E+02  0.39197877196E+02  0.00000000000E+00 0.  1.
         -1    1    1    2    0  502  0.42332404420E+02  0.10324269375E+02 -0.40177594333E+03  0.40413182459E+03  0.00000000000E+00 0. -1.
<mgrwt>
<rscale>  1 0.30000000E+03</rscale>
<asrwt>0</asrwt>
<pdfrwt beam="1">  1       21 0.71874594E-02 0.30000000E+03</pdfrwt>
<pdfrwt beam="2">0</pdfrwt>
<totfact> 0.15409201E+04</totfact>
</mgrwt>
</event>
<event>
 6    1  0.1295671E-001  0.3000000E+03  0.7818608E-02  0.1093470E+00
         21   -1    0    0  501  502  0.00000000000E+00  0.00000000000E+00  0.33076153878E+01  0.33076153878E+01  0.00000000000E+00 0. -1.
         13   -1    0    0    0    0 -0.00000000000E+00 -0.00000000000E+00 -0.10000000000E+04  0.10000000000E+04  0.00000000000E+00 0.  1.
    9000005    2    1    2  501    0  0.22899878475E+02 -0.28455690561E+02 -0.88564221631E+03  0.88640478976E+03  0.41455086755E+01 0.  0.
         13    1    3    3    0    0  0.19242037996E+02 -0.21180904914E+02 -0.68619316991E+03  0.68678959892E+03  0.00000000000E+00 0.  1.
          1    1    3    3  501    0  0.36578404796E+01 -0.72747856472E+01 -0.19944904640E+03  0.19961519084E+03  0.00000000000E+00 0.  1.
         -1    1    1    2    0  502 -0.22899878475E+02  0.28455690561E+02 -0.11105016830E+03  0.11690282563E+03  0.00000000000E+00 0. -1.
<mgrwt>
<rscale>  1 0.30000000E+03</rscale>
<asrwt>0</asrwt>
<pdfrwt beam="1">  1       21 0.12027718E-01 0.30000000E+03</pdfrwt>
<pdfrwt beam="2">0</pdfrwt>
<totfact> 0.61712215E+03</totfact>
</mgrwt>
</event>
<event>
 6    1  0.1295671E-001  0.3000000E+03  0.7818608E-02  0.1093470E+00
         21   -1    0    0  501  502  0.00000000000E+00  0.00000000000E+00  0.33317231273E+01  0.33317231273E+01  0.00000000000E+00 0. -1.
         13   -1    0    0    0    0 -0.00000000000E+00 -0.00000000000E+00 -0.10000000000E+04  0.10000000000E+04  0.00000000000E+00 0.  1.
    9000005    2    1    2  501    0  0.29461119647E+02  0.24718011069E+02 -0.87212276955E+03  0.87298403026E+03  0.49045159282E+01 0.  0.
         13    1    3    3    0    0  0.11042584484E+02  0.66190993516E+01 -0.26575160607E+03  0.26606327683E+03  0.00000000000E+00 0.  1.
          3    1    3    3  501    0  0.18418535163E+02  0.18098911717E+02 -0.60637116347E+03  0.60692075342E+03  0.00000000000E+00 0.  1.
         -3    1    1    2    0  502 -0.29461119647E+02 -0.24718011069E+02 -0.12454550733E+03  0.13034769287E+03  0.00000000000E+00 0. -1.
<mgrwt>
<rscale>  1 0.30000000E+03</rscale>
<asrwt>0</asrwt>
<pdfrwt beam="1">  1       21 0.12115382E-01 0.30000000E+03</pdfrwt>
<pdfrwt beam="2">0</pdfrwt>
<totfact> 0.60903612E+03</totfact>
</mgrwt>
</event>
<event>
 6    1  0.1295671E-001  0.3000000E+03  0.7818608E-02  0.1093470E+00
         21   -1    0    0  501  502  0.00000000000E+00  0.00000000000E+00  0.11065112959E+01  0.11065112959E+01  0.00000000000E+00 0. -1.
         13   -1    0    0    0    0 -0.00000000000E+00 -0.00000000000E+00 -0.10000000000E+04  0.10000000000E+04  0.00000000000E+00 0.  1.
    9000005    2    1    2  501    0  0.85700486048E+01  0.30763579586E+02 -0.36647361322E+03  0.36788084657E+03  0.36830046790E+01 0.  0.
         13    1    3    3    0    0  0.84109883609E+01  0.29604829731E+02 -0.34295088537E+03  0.34432905838E+03  0.00000000000E+00 0.  1.
          1    1    3    3  501    0  0.15906024390E+00  0.11587498549E+01 -0.23522727846E+02  0.23551788185E+02  0.00000000000E+00 0.  1.
         -1    1    1    2    0  502 -0.85700486048E+01 -0.30763579586E+02 -0.63241987548E+03  0.63322566473E+03  0.00000000000E+00 0. -1.
<mgrwt>
<rscale>  1 0.30000000E+03</rscale>
<asrwt>0</asrwt>
<pdfrwt beam="1">  1       21 0.40236859E-02 0.30000000E+03</pdfrwt>
<pdfrwt beam="2">0</pdfrwt>
<totfact> 0.41631275E+04</totfact>
</mgrwt>
</event>
<event>
 6    1  0.1295671E-001  0.3000000E+03  0.7818608E-02  0.1093470E+00
         21   -1    0    0  501  502  0.00000000000E+00  0.00000000000E+00  0.12572380292E+01  0.12572380292E+01  0.00000000000E+00 0. -1.
         13   -1    0    0    0    0 -0.00000000000E+00 -0.00000000000E+00 -0.10000000000E+04  0.10000000000E+04  0.00000000000E+00 0.  1.
    9000005    2    1    2  501    0 -0.23510000546E+02 -0.24320170426E+02 -0.62257787413E+03  0.62357454891E+03  0.98902921188E+01 0.  0.
         13    1    3    3    0    0 -0.19475220686E+02 -0.17438274235E+02 -0.53353246237E+03  0.53417250587E+03  0.00000000000E+00 0.  1.
          1    1    3    3  501    0 -0.40347798598E+01 -0.68818961910E+01 -0.89045411757E+02  0.89402043034E+02  0.00000000000E+00 0.  1.
         -1    1    1    2    0  502  0.23510000546E+02  0.24320170426E+02 -0.37616488785E+03  0.37768268912E+03  0.00000000000E+00 0. -1.
<mgrwt>
<rscale>  1 0.30000000E+03</rscale>
<asrwt>0</asrwt>
<pdfrwt beam="1">  1       21 0.45717843E-02 0.30000000E+03</pdfrwt>
<pdfrwt beam="2">0</pdfrwt>
<totfact> 0.33544575E+04</totfact>
</mgrwt>
</event>
<event>
 6    1  0.1295671E-001  0.3000000E+03  0.7818608E-02  0.1093470E+00
         21   -1    0    0  501  502  0.00000000000E+00  0.00000000000E+00  0.13781056448E+01  0.13781056448E+01  0.00000000000E+00 0. -1.
         13   -1    0    0    0    0 -0.00000000000E+00 -0.00000000000E+00 -0.10000000000E+04  0.10000000000E+04  0.00000000000E+00 0.  1.
    9000005    2    1    2  501    0  0.35098470055E+02 -0.11608607681E+02 -0.52457784190E+03  0.52589474522E+03  0.40875989712E+01 0.  0.
         13    1    3    3    0    0  0.84831553197E+01 -0.10557704603E+01 -0.11464143657E+03  0.11495972144E+03  0.00000000000E+00 0.  1.
          3    1    3    3  501    0  0.26615314735E+02 -0.10552837221E+02 -0.40993640533E+03  0.41093502378E+03  0.00000000000E+00 0.  1.
         -3    1    1    2    0  502 -0.35098470055E+02  0.11608607681E+02 -0.47404405245E+03  0.47548336042E+03  0.00000000000E+00 0. -1.
<mgrwt>
<rscale>  1 0.30000000E+03</rscale>
<asrwt>0</asrwt>
<pdfrwt beam="1">  1       21 0.50113038E-02 0.30000000E+03</pdfrwt>
<pdfrwt beam="2">0</pdfrwt>
<totfact> 0.28693975E+04</totfact>
</mgrwt>
</event>
<event>
 6    1  0.1295671E-001  0.3000000E+03  0.7818608E-02  0.1093470E+00
         21   -1    0    0  501  502  0.00000000000E+00  0.00000000000E+00  0.35770160159E+02  0.35770160159E+02  0.00000000000E+00 0. -1.
         13   -1    0    0    0    0 -0.00000000000E+00 -0.00000000000E+00 -0.10000000000E+04  0.10000000000E+04  0.00000000000E+00 0.  1.
    9000005    2    1    2  501    0 -0.88160414649E+02 -0.75416624357E+01 -0.93982195546E+03  0.94398301398E+03  0.30801535235E+01 0.  0.
         13    1    3    3    0    0 -0.70439942927E+02 -0.60059255855E+01 -0.76372150811E+03  0.76698657005E+03  0.00000000000E+00 0.  1.
          3    1    3    3  501    0 -0.17720471722E+02 -0.15357368502E+01 -0.17610044735E+03  0.17699644393E+03  0.00000000000E+00 0.  1.
         -1    1    1    2    0  502  0.88160414649E+02  0.75416624357E+01 -0.24407884385E+02  0.91787146178E+02  0.00000000000E+00 0. -1.
<mgrwt>
<rscale>  1 0.30000000E+03</rscale>
<asrwt>0</asrwt>
<pdfrwt beam="1">  1       21 0.13007358E+00 0.30000000E+03</pdfrwt>
<pdfrwt beam="2">0</pdfrwt>
<totfact> 0.36263080E+01</totfact>
</mgrwt>
</event>
<event>
 6    1  0.1295671E-001  0.3000000E+03  0.7818608E-02  0.1093470E+00
         21   -1    0    0  501  502  0.00000000000E+00  0.00000000000E+00  0.20956544677E+01  0.20956544677E+01  0.00000000000E+00 0. -1.
         13   -1    0    0    0    0 -0.00000000000E+00 -0.00000000000E+00 -0.10000000000E+04  0.10000000000E+04  0.00000000000E+00 0.  1.
    9000005    2    1    2  501    0 -0.36953931940E+02 -0.26493364617E+02 -0.44614910169E+03  0.44847002233E+03  0.29746484690E+01 0.  0.
         13    1    3    3    0    0 -0.19945877388E+02 -0.13177034205E+02 -0.22280585967E+03  0.22408463436E+03  0.00000000000E+00 0.  1.
          1    1    3    3  501    0 -0.17008054552E+02 -0.13316330412E+02 -0.22334324202E+03  0.22438538796E+03  0.00000000000E+00 0.  1.
         -3    1    1    2    0  502  0.36953931940E+02  0.26493364617E+02 -0.55175524384E+03  0.55362563214E+03  0.00000000000E+00 0. -1.
<mgrwt>
<rscale>  1 0.30000000E+03</rscale>
<asrwt>0</asrwt>
<pdfrwt beam="1">  1       21 0.76205778E-02 0.30000000E+03</pdfrwt>
<pdfrwt beam="2">0</pdfrwt>
<totfact> 0.13910403E+04</totfact>
</mgrwt>
</event>
<event>
 6    1  0.1295671E-001  0.3000000E+03  0.7818608E-02  0.1093470E+00
         21   -1    0    0  501  502  0.00000000000E+00  0.00000000000E+00  0.15649208642E+01  0.15649208642E+01  0.00000000000E+00 0. -1.
         13   -1    0    0    0    0 -0.00000000000E+00 -0.00000000000E+00 -0.10000000000E+04  0.10000000000E+04  0.00000000000E+00 0.  1.
    9000005    2    1    2  501    0 -0.14245699275E+02 -0.33626160814E+02 -0.69043753664E+03  0.69140988734E+03  0.31593775617E+01 0.  0.
         13    1    3    3    0    0 -0.24951208309E+01 -0.60460459125E+01 -0.10241883868E+03  0.10262747593E+03  0.00000000000E+00 0.  1.
          3    1    3    3  501    0 -0.11750578444E+02 -0.27580114901E+02 -0.58801869795E+03  0.58878241140E+03  0.00000000000E+00 0.  1.
         -3    1    1    2    0  502  0.14245699275E+02  0.33626160814E+02 -0.30799754250E+03  0.31015503353E+03  0.00000000000E+00 0. -1.
<mgrwt>
<rscale>  1 0.30000000E+03</rscale>
<asrwt>0</asrwt>
<pdfrwt beam="1">  1       21 0.56906333E-02 0.30000000E+03</pdfrwt>
<pdfrwt beam="2">0</pdfrwt>
<totfact> 0.23083443E+04</totfact>
</mgrwt>
</event>
<event>
 6    1  0.1295671E-001  0.3000000E+03  0.7818608E-02  0.1093470E+00
         21   -1    0    0  501  502  0.00000000000E+00  0.00000000000E+00  0.42100536705E+01  0.42100536705E+01  0.00000000000E+00 0. -1.
         13   -1    0    0    0    0 -0.00000000000E+00 -0.00000000000E+00 -0.10000000000E+04  0.10000000000E+04  0.00000000000E+00 0.  1.
    9000005    2    1    2  501    0  0.96397996304E+01 -0.64062422122E+02 -0.51867358393E+03  0.52271556467E+03  0.35149993272E+01 0.  0.
         13    1    3    3    0    0  0.70856421992E+01 -0.36773189389E+02 -0.29292181583E+03  0.29530605136E+03  0.00000000000E+00 0.  1.
          3    1    3    3  501    0  0.25541574312E+01 -0.27289232733E+02 -0.22575176810E+03  0.22740951331E+03  0.00000000000E+00 0.  1.
         -3    1    1    2    0  502 -0.96397996304E+01  0.64062422122E+02 -0.47711636240E+03  0.48149448900E+03  0.00000000000E+00 0. -1.
<mgrwt>
<rscale>  1 0.30000000E+03</rscale>
<asrwt>0</asrwt>
<pdfrwt beam="1">  1       21 0.15309318E-01 0.30000000E+03</pdfrwt>
<pdfrwt beam="2">0</pdfrwt>
<totfact> 0.39651737E+03</totfact>
</mgrwt>
</event>
<event>
 6    1  0.1295671E-001  0.3000000E+03  0.7818608E-02  0.1093470E+00
         21   -1    0    0  501  502  0.00000000000E+00  0.00000000000E+00  0.11719276285E+01  0.11719276285E+01  0.00000000000E+00 0. -1.
         13   -1    0    0    0    0 -0.00000000000E+00 -0.00000000000E+00 -0.10000000000E+04  0.10000000000E+04  0.00000000000E+00 0.  1.
    9000005    2    1    2  501    0 -0.15107398129E+02 -0.30629261202E+02 -0.51530921893E+03  0.51644843247E+03  0.30011950891E+01 0.  0.
         13    1    3    3    0    0 -0.33781649372E+01 -0.74985270432E+01 -0.10617804970E+03  0.10649609450E+03  0.00000000000E+00 0.  1.
          3    1    3    3  501    0 -0.11729233192E+02 -0.23130734159E+02 -0.40913116922E+03  0.40995233797E+03  0.00000000000E+00 0.  1.
         -3    1    1    2    0  502  0.15107398129E+02  0.30629261202E+02 -0.48351885345E+03  0.48472349516E+03  0.00000000000E+00 0. -1.
<mgrwt>
<rscale>  1 0.30000000E+03</rscale>
<asrwt>0</asrwt>
<pdfrwt beam="1">  1       21 0.42615640E-02 0.30000000E+03</pdfrwt>
<pdfrwt beam="2">0</pdfrwt>
<totfact> 0.37786021E+04</totfact>
</mgrwt>
</event>
<event>
 6    1  0.1295671E-001  0.3000000E+03  0.7818608E-02  0.1093470E+00
         21   -1    0    0  501  502  0.00000000000E+00  0.00000000000E+00  0.98600335450E+00  0.98600335450E+00  0.00000000000E+00 0. -1.
         13   -1    0    0    0    0 -0.00000000000E+00 -0.00000000000E+00 -0.10000000000E+04  0.10000000000E+04  0.00000000000E+00 0.  1.
    9000005    2    1    2  501    0 -0.29458079007E+02  0.10315547252E+02 -0.55179843256E+03  0.55268259082E+03  0.15320185733E+01 0.  0.
         13    1    3    3    0    0 -0.12015332700E+01  0.71059202068E+00 -0.27588295710E+02  0.27623589256E+02  0.00000000000E+00 0.  1.
          1    1    3    3  501    0 -0.28256545737E+02  0.96049552314E+01 -0.52421013685E+03  0.52505900156E+03  0.00000000000E+00 0.  1.
         -3    1    1    2    0  502  0.29458079007E+02 -0.10315547252E+02 -0.44721556408E+03  0.44830341254E+03  0.00000000000E+00 0. -1.
<mgrwt>
<rscale>  1 0.30000000E+03</rscale>
<asrwt>0</asrwt>
<pdfrwt beam="1">  1       21 0.35854743E-02 0.30000000E+03</pdfrwt>
<pdfrwt beam="2">0</pdfrwt>
<totfact> 0.50531739E+04</totfact>
</mgrwt>
</event>
<event>
 6    1  0.1295671E-001  0.3000000E+03  0.7818608E-02  0.1093470E+00
         21   -1    0    0  501  502  0.00000000000E+00  0.00000000000E+00  0.14175893189E+01  0.14175893189E+01  0.00000000000E+00 0. -1.
         13   -1    0    0    0    0 -0.00000000000E+00 -0.00000000000E+00 -0.10000000000E+04  0.10000000000E+04  0.00000000000E+00 0.  1.
    9000005    2    1    2  501    0 -0.16508282377E+02  0.31834415455E+02 -0.64983705288E+03  0.65083339404E+03  0.31556461022E+01 0.  0.
         13    1    3    3    0    0 -0.75593993605E+01  0.17920458510E+02 -0.34529273406E+03  0.34584007800E+03  0.00000000000E+00 0.  1.
          3    1    3    3  501    0 -0.89488830164E+01  0.13913956944E+02 -0.30454431881E+03  0.30499331604E+03  0.00000000000E+00 0.  1.
         -1    1    1    2    0  502  0.16508282377E+02 -0.31834415455E+02 -0.34874535780E+03  0.35058419528E+03  0.00000000000E+00 0. -1.
<mgrwt>
<rscale>  1 0.30000000E+03</rscale>
<asrwt>0</asrwt>
<pdfrwt beam="1">  1       21 0.51548811E-02 0.30000000E+03</pdfrwt>
<pdfrwt beam="2">0</pdfrwt>
<totfact> 0.27343845E+04</totfact>
</mgrwt>
</event>
<event>
 6    1  0.1295671E-001  0.3000000E+03  0.7818608E-02  0.1093470E+00
         21   -1    0    0  501  502  0.00000000000E+00  0.00000000000E+00  0.12147765768E+01  0.12147765768E+01  0.00000000000E+00 0. -1.
         13   -1    0    0    0    0 -0.00000000000E+00 -0.00000000000E+00 -0.10000000000E+04  0.10000000000E+04  0.00000000000E+00 0.  1.
    9000005    2    1    2  501    0 -0.30824039422E+02  0.14540023070E+01 -0.73060202904E+03  0.73126207465E+03  0.35582934801E+01 0.  0.
         13    1    3    3    0    0 -0.10376621419E+02 -0.78167407143E+00 -0.22020315573E+03  0.22044889449E+03  0.00000000000E+00 0.  1.
          1    1    3    3  501    0 -0.20447418002E+02  0.22356763785E+01 -0.51039887331E+03  0.51081318016E+03  0.00000000000E+00 0.  1.
         -3    1    1    2    0  502  0.30824039422E+02 -0.14540023070E+01 -0.26818319438E+03  0.26995270193E+03  0.00000000000E+00 0. -1.
<mgrwt>
<rscale>  1 0.30000000E+03</rscale>
<asrwt>0</asrwt>
<pdfrwt beam="1">  1       21 0.44173787E-02 0.30000000E+03</pdfrwt>
<pdfrwt beam="2">0</pdfrwt>
<totfact> 0.35558136E+04</totfact>
</mgrwt>
</event>
<event>
 6    1  0.1295671E-001  0.3000000E+03  0.7818608E-02  0.1093470E+00
         21   -1    0    0  501  502  0.00000000000E+00  0.00000000000E+00  0.37928440872E+01  0.37928440872E+01  0.00000000000E+00 0. -1.
         13   -1    0    0    0    0 -0.00000000000E+00 -0.00000000000E+00 -0.10000000000E+04  0.10000000000E+04  0.00000000000E+00 0.  1.
    9000005    2    1    2  501    0 -0.41252534926E+02 -0.19296890790E+02 -0.83579778032E+03  0.83704360298E+03  0.31499315317E+01 0.  0.
         13    1    3    3    0    0 -0.39187496362E+02 -0.17553560644E+02 -0.78208013298E+03  0.78325801737E+03  0.00000000000E+00 0.  1.
          3    1    3    3  501    0 -0.20650385640E+01 -0.17433301462E+01 -0.53717647341E+02  0.53785585617E+02  0.00000000000E+00 0.  1.
         -1    1    1    2    0  502  0.41252534926E+02  0.19296890790E+02 -0.16040937559E+03  0.16674924110E+03  0.00000000000E+00 0. -1.
<mgrwt>
<rscale>  1 0.30000000E+03</rscale>
<asrwt>0</asrwt>
<pdfrwt beam="1">  1       21 0.13792189E-01 0.30000000E+03</pdfrwt>
<pdfrwt beam="2">0</pdfrwt>
<totfact> 0.48068694E+03</totfact>
</mgrwt>
</event>
<event>
 6    1  0.1295671E-001  0.3000000E+03  0.7818608E-02  0.1093470E+00
         21   -1    0    0  501  502  0.00000000000E+00  0.00000000000E+00  0.23106074944E+01  0.23106074944E+01  0.00000000000E+00 0. -1.
         13   -1    0    0    0    0 -0.00000000000E+00 -0.00000000000E+00 -0.10000000000E+04  0.10000000000E+04  0.00000000000E+00 0.  1.
    9000005    2    1    2  501    0  0.25867528280E+02  0.40160824013E+02 -0.44886673478E+03  0.45141285796E+03  0.31940473339E+01 0.  0.
         13    1    3    3    0    0  0.14670234999E+01  0.13504494080E+01 -0.15362586823E+02  0.15491447494E+02  0.00000000000E+00 0.  1.
          1    1    3    3  501    0  0.24400504781E+02  0.38810374605E+02 -0.43350414795E+03  0.43592141047E+03  0.00000000000E+00 0.  1.
         -3    1    1    2    0  502 -0.25867528280E+02 -0.40160824013E+02 -0.54882265773E+03  0.55089774953E+03  0.00000000000E+00 0. -1.
<mgrwt>
<rscale>  1 0.30000000E+03</rscale>
<asrwt>0</asrwt>
<pdfrwt beam="1">  1       21 0.84022268E-02 0.30000000E+03</pdfrwt>
<pdfrwt beam="2">0</pdfrwt>
<totfact> 0.11717799E+04</totfact>
</mgrwt>
</event>
<event>
 6    1  0.1295671E-001  0.3000000E+03  0.7818608E-02  0.1093470E+00
         21   -1    0    0  501  502  0.00000000000E+00  0.00000000000E+00  0.24026560461E+01  0.24026560461E+01  0.00000000000E+00 0. -1.
         13   -1    0    0    0    0 -0.00000000000E+00 -0.00000000000E+00 -0.10000000000E+04  0.10000000000E+04  0.00000000000E+00 0.  1.
    9000005    2    1    2  501    0 -0.34350385568E+02 -0.30058858871E+02 -0.68051224233E+03  0.68204903010E+03  0.32378254152E+01 0.  0.
         13    1    3    3    0    0 -0.13771633688E+02 -0.11051148124E+02 -0.24274389624E+03  0.24338526030E+03  0.00000000000E+00 0.  1.
          3    1    3    3  501    0 -0.20578751880E+02 -0.19007710748E+02 -0.43776834609E+03  0.43866376980E+03  0.00000000000E+00 0.  1.
         -1    1    1    2    0  502  0.34350385568E+02  0.30058858871E+02 -0.31708510163E+03  0.32035362595E+03  0.00000000000E+00 0. -1.
<mgrwt>
<rscale>  1 0.30000000E+03</rscale>
<asrwt>0</asrwt>
<pdfrwt beam="1">  1       21 0.87369495E-02 0.30000000E+03</pdfrwt>
<pdfrwt beam="2">0</pdfrwt>
<totfact> 0.10937331E+04</totfact>
</mgrwt>
</event>
<event>
 6    1  0.1295671E-001  0.3000000E+03  0.7818608E-02  0.1093470E+00
         21   -1    0    0  501  502  0.00000000000E+00  0.00000000000E+00  0.58392272293E+01  0.58392272293E+01  0.00000000000E+00 0. -1.
         13   -1    0    0    0    0 -0.00000000000E+00 -0.00000000000E+00 -0.10000000000E+04  0.10000000000E+04  0.00000000000E+00 0.  1.
    9000005    2    1    2  501    0 -0.13358120941E+02  0.30963129947E+02 -0.94834250852E+03  0.94894926195E+03  0.37461270216E+01 0.  0.
         13    1    3    3    0    0 -0.87573042941E+01  0.15681656591E+02 -0.49128128734E+03  0.49160950766E+03  0.00000000000E+00 0.  1.
          3    1    3    3  501    0 -0.46008166466E+01  0.15281473355E+02 -0.45706122118E+03  0.45733975428E+03  0.00000000000E+00 0.  1.
         -3    1    1    2    0  502  0.13358120941E+02 -0.30963129947E+02 -0.45818264250E+02  0.56889965284E+02  0.00000000000E+00 0. -1.
<mgrwt>
<rscale>  1 0.30000000E+03</rscale>
<asrwt>0</asrwt>
<pdfrwt beam="1">  1       21 0.21233598E-01 0.30000000E+03</pdfrwt>
<pdfrwt beam="2">0</pdfrwt>
<totfact> 0.21395461E+03</totfact>
</mgrwt>
</event>
<event>
 6    1  0.1295671E-001  0.3000000E+03  0.7818608E-02  0.1093470E+00
         21   -1    0    0  501  502  0.00000000000E+00  0.00000000000E+00  0.14464468604E+01  0.14464468604E+01  0.00000000000E+00 0. -1.
         13   -1    0    0    0    0 -0.00000000000E+00 -0.00000000000E+00 -0.10000000000E+04  0.10000000000E+04  0.00000000000E+00 0.  1.
    9000005    2    1    2  501    0  0.32923993572E+02  0.18050549674E+02 -0.57096219800E+03  0.57220970718E+03  0.40380386981E+01 0.  0.
         13    1    3    3    0    0  0.25551086470E+02  0.15137714442E+02 -0.46942174074E+03  0.47036026522E+03  0.00000000000E+00 0.  1.
          1    1    3    3  501    0  0.73729071026E+01  0.29128352321E+01 -0.10154045726E+03  0.10184944197E+03  0.00000000000E+00 0.  1.
         -3    1    1    2    0  502 -0.32923993572E+02 -0.18050549674E+02 -0.42759135514E+03  0.42923673968E+03  0.00000000000E+00 0. -1.
<mgrwt>
<rscale>  1 0.30000000E+03</rscale>
<asrwt>0</asrwt>
<pdfrwt beam="1">  1       21 0.52598179E-02 0.30000000E+03</pdfrwt>
<pdfrwt beam="2">0</pdfrwt>
<totfact> 0.26418424E+04</totfact>
</mgrwt>
</event>
<event>
 6    1  0.1295671E-001  0.3000000E+03  0.7818608E-02  0.1093470E+00
         21   -1    0    0  501  502  0.00000000000E+00  0.00000000000E+00  0.76069904428E+01  0.76069904428E+01  0.00000000000E+00 0. -1.
         13   -1    0    0    0    0 -0.00000000000E+00 -0.00000000000E+00 -0.10000000000E+04  0.10000000000E+04  0.00000000000E+00 0.  1.
    9000005    2    1    2  501    0 -0.60173860639E+02 -0.62317597226E+02 -0.55319045996E+03  0.55994276806E+03  0.34412330497E+01 0.  0.
         13    1    3    3    0    0 -0.58071875691E+02 -0.59814209166E+02 -0.53595302199E+03  0.54239812328E+03  0.00000000000E+00 0.  1.
          1    1    3    3  501    0 -0.21019849476E+01 -0.25033880593E+01 -0.17237437976E+02  0.17544644781E+02  0.00000000000E+00 0.  1.
         -1    1    1    2    0  502  0.60173860639E+02  0.62317597226E+02 -0.43920254960E+03  0.44766422238E+03  0.00000000000E+00 0. -1.
<mgrwt>
<rscale>  1 0.30000000E+03</rscale>
<asrwt>0</asrwt>
<pdfrwt beam="1">  1       21 0.27661842E-01 0.30000000E+03</pdfrwt>
<pdfrwt beam="2">0</pdfrwt>
<totfact> 0.12777954E+03</totfact>
</mgrwt>
</event>
<event>
 6    1  0.1295671E-001  0.3000000E+03  0.7818608E-02  0.1093470E+00
         21   -1    0    0  501  502  0.00000000000E+00  0.00000000000E+00  0.17422627783E+01  0.17422627783E+01  0.00000000000E+00 0. -1.
         13   -1    0    0    0    0 -0.00000000000E+00 -0.00000000000E+00 -0.10000000000E+04  0.10000000000E+04  0.00000000000E+00 0.  1.
    9000005    2    1    2  501    0 -0.10924219952E+02  0.28314779047E+02 -0.84233778404E+03  0.84289611994E+03  0.44566014428E+01 0.  0.
         13    1    3    3    0    0 -0.40655790340E+01  0.55654639233E+01 -0.20290973977E+03  0.20302676133E+03  0.00000000000E+00 0.  1.
          3    1    3    3  501    0 -0.68586409177E+01  0.22749315124E+02 -0.63942804426E+03  0.63986935861E+03  0.00000000000E+00 0.  1.
         -1    1    1    2    0  502  0.10924219952E+02 -0.28314779047E+02 -0.15591995318E+03  0.15884614284E+03  0.00000000000E+00 0. -1.
<mgrwt>
<rscale>  1 0.30000000E+03</rscale>
<asrwt>0</asrwt>
<pdfrwt beam="1">  1       21 0.63355144E-02 0.30000000E+03</pdfrwt>
<pdfrwt beam="2">0</pdfrwt>
<totfact> 0.19182099E+04</totfact>
</mgrwt>
</event>
<event>
 6    1  0.1295671E-001  0.3000000E+03  0.7818608E-02  0.1093470E+00
         21   -1    0    0  501  502  0.00000000000E+00  0.00000000000E+00  0.16546832333E+01  0.16546832333E+01  0.00000000000E+00 0. -1.
         13   -1    0    0    0    0 -0.00000000000E+00 -0.00000000000E+00 -0.10000000000E+04  0.10000000000E+04  0.00000000000E+00 0.  1.
    9000005    2    1    2  501    0 -0.21432245451E+02  0.33968818752E+02 -0.43565258451E+03  0.43753028850E+03  0.51339241374E+01 0.  0.
         13    1    3    3    0    0 -0.13331053061E+02  0.16906438954E+02 -0.21884972644E+03  0.21990622414E+03  0.00000000000E+00 0.  1.
          1    1    3    3  501    0 -0.81011923902E+01  0.17062379798E+02 -0.21680285807E+03  0.21762406436E+03  0.00000000000E+00 0.  1.
         -3    1    1    2    0  502  0.21432245451E+02 -0.33968818752E+02 -0.56269273226E+03  0.56412439473E+03  0.00000000000E+00 0. -1.
<mgrwt>
<rscale>  1 0.30000000E+03</rscale>
<asrwt>0</asrwt>
<pdfrwt beam="1">  1       21 0.60170426E-02 0.30000000E+03</pdfrwt>
<pdfrwt beam="2">0</pdfrwt>
<totfact> 0.20968833E+04</totfact>
</mgrwt>
</event>
<event>
 6    1  0.1295671E-001  0.3000000E+03  0.7818608E-02  0.1093470E+00
         21   -1    0    0  501  502  0.00000000000E+00  0.00000000000E+00  0.26766636815E+01  0.26766636815E+01  0.00000000000E+00 0. -1.
         13   -1    0    0    0    0 -0.00000000000E+00 -0.00000000000E+00 -0.10000000000E+04  0.10000000000E+04  0.00000000000E+00 0.  1.
    9000005    2    1    2  501    0 -0.57152834333E+00 -0.33743334105E+02 -0.87849350990E+03  0.87914744896E+03  0.32327772755E+01 0.  0.
         13    1    3    3    0    0 -0.15027855650E+01 -0.30240889971E+02 -0.78340672224E+03  0.78399162128E+03  0.00000000000E+00 0.  1.
          3    1    3    3  501    0  0.93125722169E+00 -0.35024441343E+01 -0.95086787660E+02  0.95155827685E+02  0.00000000000E+00 0.  1.
         -3    1    1    2    0  502  0.57152834333E+00  0.33743334105E+02 -0.11882982642E+03  0.12352921472E+03  0.00000000000E+00 0. -1.
<mgrwt>
<rscale>  1 0.30000000E+03</rscale>
<asrwt>0</asrwt>
<pdfrwt beam="1">  1       21 0.97333430E-02 0.30000000E+03</pdfrwt>
<pdfrwt beam="2">0</pdfrwt>
<totfact> 0.90285388E+03</totfact>
</mgrwt>
</event>
<event>
 6    1  0.1295671E-001  0.3000000E+03  0.7818608E-02  0.1093470E+00
         21   -1    0    0  501  502  0.00000000000E+00  0.00000000000E+00  0.16682702378E+01  0.16682702378E+01  0.00000000000E+00 0. -1.
         13   -1    0    0    0    0 -0.00000000000E+00 -0.00000000000E+00 -0.10000000000E+04  0.10000000000E+04  0.00000000000E+00 0.  1.
    9000005    2    1    2  501    0  0.11248946095E+02  0.35257649549E+02 -0.70971259593E+03  0.71068606278E+03  0.36152974316E+01 0.  0.
         13    1    3    3    0    0  0.34547483630E+01  0.16732268709E+02 -0.32305134979E+03  0.32350282642E+03  0.00000000000E+00 0.  1.
          1    1    3    3  501    0  0.77941977321E+01  0.18525380840E+02 -0.38666124614E+03  0.38718323636E+03  0.00000000000E+00 0.  1.
         -3    1    1    2    0  502 -0.11248946095E+02 -0.35257649549E+02 -0.28861913384E+03  0.29098220746E+03  0.00000000000E+00 0. -1.
<mgrwt>
<rscale>  1 0.30000000E+03</rscale>
<asrwt>0</asrwt>
<pdfrwt beam="1">  1       21 0.60664500E-02 0.30000000E+03</pdfrwt>
<pdfrwt beam="2">0</pdfrwt>
<totfact> 0.20675091E+04</totfact>
</mgrwt>
</event>
<event>
 6    1  0.1295671E-001  0.3000000E+03  0.7818608E-02  0.1093470E+00
         21   -1    0    0  501  502  0.00000000000E+00  0.00000000000E+00  0.28226273413E+01  0.28226273413E+01  0.00000000000E+00 0. -1.
         13   -1    0    0    0    0 -0.00000000000E+00 -0.00000000000E+00 -0.10000000000E+04  0.10000000000E+04  0.00000000000E+00 0.  1.
    9000005    2    1    2  501    0 -0.30665397239E+02 -0.14173057354E+02 -0.88553873940E+03  0.88618461219E+03  0.17509316809E+01 0.  0.
         13    1    3    3    0    0 -0.94894162843E+01 -0.52430118535E+01 -0.29041117069E+03  0.29061346538E+03  0.00000000000E+00 0.  1.
          1    1    3    3  501    0 -0.21175980955E+02 -0.89300455003E+01 -0.59512756870E+03  0.59557114681E+03  0.00000000000E+00 0.  1.
         -3    1    1    2    0  502  0.30665397239E+02  0.14173057354E+02 -0.11163863326E+03  0.11663801516E+03  0.00000000000E+00 0. -1.
<mgrwt>
<rscale>  1 0.30000000E+03</rscale>
<asrwt>0</asrwt>
<pdfrwt beam="1">  1       21 0.10264121E-01 0.30000000E+03</pdfrwt>
<pdfrwt beam="2">0</pdfrwt>
<totfact> 0.82113301E+03</totfact>
</mgrwt>
</event>
<event>
 6    1  0.1295671E-001  0.3000000E+03  0.7818608E-02  0.1093470E+00
         21   -1    0    0  501  502  0.00000000000E+00  0.00000000000E+00  0.99625892353E+00  0.99625892353E+00  0.00000000000E+00 0. -1.
         13   -1    0    0    0    0 -0.00000000000E+00 -0.00000000000E+00 -0.10000000000E+04  0.10000000000E+04  0.00000000000E+00 0.  1.
    9000005    2    1    2  501    0  0.25257638827E+02  0.16940320461E+02 -0.62929790614E+03  0.63004164288E+03  0.34196954325E+01 0.  0.
         13    1    3    3    0    0  0.15868680518E+02  0.10600121285E+02 -0.42791677765E+03  0.42834209014E+03  0.00000000000E+00 0.  1.
          1    1    3    3  501    0  0.93889583089E+01  0.63401991765E+01 -0.20138112849E+03  0.20169955274E+03  0.00000000000E+00 0.  1.
         -1    1    1    2    0  502 -0.25257638827E+02 -0.16940320461E+02 -0.36970583494E+03  0.37095461604E+03  0.00000000000E+00 0. -1.
<mgrwt>
<rscale>  1 0.30000000E+03</rscale>
<asrwt>0</asrwt>
<pdfrwt beam="1">  1       21 0.36227674E-02 0.30000000E+03</pdfrwt>
<pdfrwt beam="2">0</pdfrwt>
<totfact> 0.49662438E+04</totfact>
</mgrwt>
</event>
<event>
 6    1  0.1295671E-001  0.3000000E+03  0.7818608E-02  0.1093470E+00
         21   -1    0    0  501  502  0.00000000000E+00  0.00000000000E+00  0.83276738566E+01  0.83276738566E+01  0.00000000000E+00 0. -1.
         13   -1    0    0    0    0 -0.00000000000E+00 -0.00000000000E+00 -0.10000000000E+04  0.10000000000E+04  0.00000000000E+00 0.  1.
    9000005    2    1    2  501    0  0.74234739700E+02 -0.12931837905E+02 -0.78009470117E+03  0.78373221442E+03  0.32267811817E+01 0.  0.
         13    1    3    3    0    0  0.35111627589E+02 -0.53461432424E+01 -0.35287929765E+03  0.35466210165E+03  0.00000000000E+00 0.  1.
          1    1    3    3  501    0  0.39123112111E+02 -0.75856946628E+01 -0.42721540353E+03  0.42907011277E+03  0.00000000000E+00 0.  1.
         -1    1    1    2    0  502 -0.74234739700E+02  0.12931837905E+02 -0.21157762497E+03  0.22459545943E+03  0.00000000000E+00 0. -1.
<mgrwt>
<rscale>  1 0.30000000E+03</rscale>
<asrwt>0</asrwt>
<pdfrwt beam="1">  1       21 0.30282514E-01 0.30000000E+03</pdfrwt>
<pdfrwt beam="2">0</pdfrwt>
<totfact> 0.10670688E+03</totfact>
</mgrwt>
</event>
<event>
 6    1  0.1295671E-001  0.3000000E+03  0.7818608E-02  0.1093470E+00
         21   -1    0    0  501  502  0.00000000000E+00  0.00000000000E+00  0.41415805071E+01  0.41415805071E+01  0.00000000000E+00 0. -1.
         13   -1    0    0    0    0 -0.00000000000E+00 -0.00000000000E+00 -0.10000000000E+04  0.10000000000E+04  0.00000000000E+00 0.  1.
    9000005    2    1    2  501    0  0.53575531562E+02 -0.31769333943E+02 -0.37338002006E+03  0.37855466735E+03  0.33717393239E+01 0.  0.
         13    1    3    3    0    0  0.52537744423E+02 -0.31544952207E+02 -0.36514754048E+03  0.37025400054E+03  0.00000000000E+00 0.  1.
          3    1    3    3  501    0  0.10377871386E+01 -0.22438173556E+00 -0.82324795871E+01  0.83006668082E+01  0.00000000000E+00 0.  1.
         -3    1    1    2    0  502 -0.53575531562E+02  0.31769333943E+02 -0.62247839943E+03  0.62558691316E+03  0.00000000000E+00 0. -1.
<mgrwt>
<rscale>  1 0.30000000E+03</rscale>
<asrwt>0</asrwt>
<pdfrwt beam="1">  1       21 0.15060325E-01 0.30000000E+03</pdfrwt>
<pdfrwt beam="2">0</pdfrwt>
<totfact> 0.40875505E+03</totfact>
</mgrwt>
</event>
<event>
 6    1  0.1295671E-001  0.3000000E+03  0.7818608E-02  0.1093470E+00
         21   -1    0    0  501  502  0.00000000000E+00  0.00000000000E+00  0.15766872980E+01  0.15766872980E+01  0.00000000000E+00 0. -1.
         13   -1    0    0    0    0 -0.00000000000E+00 -0.00000000000E+00 -0.10000000000E+04  0.10000000000E+04  0.00000000000E+00 0.  1.
    9000005    2    1    2  501    0 -0.11408153021E+02  0.37790213438E+02 -0.54573926974E+03  0.54717478486E+03  0.32631982601E+01 0.  0.
         13    1    3    3    0    0 -0.29959864153E+01  0.61740032553E+01 -0.10304019248E+03  0.10326846333E+03  0.00000000000E+00 0.  1.
          1    1    3    3  501    0 -0.84121666057E+01  0.31616210183E+02 -0.44269907726E+03  0.44390632154E+03  0.00000000000E+00 0.  1.
         -1    1    1    2    0  502  0.11408153021E+02 -0.37790213438E+02 -0.45268404296E+03  0.45440190244E+03  0.00000000000E+00 0. -1.
<mgrwt>
<rscale>  1 0.30000000E+03</rscale>
<asrwt>0</asrwt>
<pdfrwt beam="1">  1       21 0.57334204E-02 0.30000000E+03</pdfrwt>
<pdfrwt beam="2">0</pdfrwt>
<totfact> 0.22787969E+04</totfact>
</mgrwt>
</event>
<event>
 6    1  0.1295671E-001  0.3000000E+03  0.7818608E-02  0.1093470E+00
         21   -1    0    0  501  502  0.00000000000E+00  0.00000000000E+00  0.60482273673E+01  0.60482273673E+01  0.00000000000E+00 0. -1.
         13   -1    0    0    0    0 -0.00000000000E+00 -0.00000000000E+00 -0.10000000000E+04  0.10000000000E+04  0.00000000000E+00 0.  1.
    9000005    2    1    2  501    0 -0.20415101808E+02  0.70115880004E+02 -0.32614059474E+03  0.33425601073E+03  0.51361623744E+01 0.  0.
         13    1    3    3    0    0 -0.17436685690E+02  0.52504737757E+02 -0.25003669474E+03  0.25608423265E+03  0.00000000000E+00 0.  1.
          1    1    3    3  501    0 -0.29784161181E+01  0.17611142247E+02 -0.76103899994E+02  0.78171778080E+02  0.00000000000E+00 0.  1.
         -1    1    1    2    0  502  0.20415101808E+02 -0.70115880004E+02 -0.66781117790E+03  0.67179221664E+03  0.00000000000E+00 0. -1.
<mgrwt>
<rscale>  1 0.30000000E+03</rscale>
<asrwt>0</asrwt>
<pdfrwt beam="1">  1       21 0.21993600E-01 0.30000000E+03</pdfrwt>
<pdfrwt beam="2">0</pdfrwt>
<totfact> 0.19997130E+03</totfact>
</mgrwt>
</event>
<event>
 6    1  0.1295671E-001  0.3000000E+03  0.7818608E-02  0.1093470E+00
         21   -1    0    0  501  502  0.00000000000E+00  0.00000000000E+00  0.25152391986E+01  0.25152391986E+01  0.00000000000E+00 0. -1.
         13   -1    0    0    0    0 -0.00000000000E+00 -0.00000000000E+00 -0.10000000000E+04  0.10000000000E+04  0.00000000000E+00 0.  1.
    9000005    2    1    2  501    0  0.11431005668E+02 -0.30907321518E+02 -0.87553881245E+03  0.87619522997E+03  0.79961546517E+01 0.  0.
         13    1    3    3    0    0  0.71050645613E+01 -0.85298251794E+01 -0.29977675584E+03  0.29998223815E+03  0.00000000000E+00 0.  1.
          1    1    3    3  501    0  0.43259411070E+01 -0.22377496338E+02 -0.57576205661E+03  0.57621299182E+03  0.00000000000E+00 0.  1.
         -3    1    1    2    0  502 -0.11431005668E+02  0.30907321518E+02 -0.12194594835E+03  0.12632000923E+03  0.00000000000E+00 0. -1.
<mgrwt>
<rscale>  1 0.30000000E+03</rscale>
<asrwt>0</asrwt>
<pdfrwt beam="1">  1       21 0.91463436E-02 0.30000000E+03</pdfrwt>
<pdfrwt beam="2">0</pdfrwt>
<totfact> 0.10085504E+04</totfact>
</mgrwt>
</event>
<event>
 6    1  0.1295671E-001  0.3000000E+03  0.7818608E-02  0.1093470E+00
         21   -1    0    0  501  502  0.00000000000E+00  0.00000000000E+00  0.15133585892E+01  0.15133585892E+01  0.00000000000E+00 0. -1.
         13   -1    0    0    0    0 -0.00000000000E+00 -0.00000000000E+00 -0.10000000000E+04  0.10000000000E+04  0.00000000000E+00 0.  1.
    9000005    2    1    2  501    0  0.32584386155E+02 -0.17696711810E+02 -0.64854667194E+03  0.64961437015E+03  0.33359246786E+01 0.  0.
         13    1    3    3    0    0  0.24020240837E+00 -0.50978034612E+00 -0.14181901338E+02  0.14193093347E+02  0.00000000000E+00 0.  1.
          3    1    3    3  501    0  0.32344183746E+02 -0.17186931464E+02 -0.63436477060E+03  0.63542127681E+03  0.00000000000E+00 0.  1.
         -1    1    1    2    0  502 -0.32584386155E+02  0.17696711810E+02 -0.34993996947E+03  0.35189898844E+03  0.00000000000E+00 0. -1.
<mgrwt>
<rscale>  1 0.30000000E+03</rscale>
<asrwt>0</asrwt>
<pdfrwt beam="1">  1       21 0.55031337E-02 0.30000000E+03</pdfrwt>
<pdfrwt beam="2">0</pdfrwt>
<totfact> 0.24450257E+04</totfact>
</mgrwt>
</event>
<event>
 6    1  0.1295671E-001  0.3000000E+03  0.7818608E-02  0.1093470E+00
         21   -1    0    0  501  502  0.00000000000E+00  0.00000000000E+00  0.21599740144E+01  0.21599740144E+01  0.00000000000E+00 0. -1.
         13   -1    0    0    0    0 -0.00000000000E+00 -0.00000000000E+00 -0.10000000000E+04  0.10000000000E+04  0.00000000000E+00 0.  1.
    9000005    2    1    2  501    0 -0.45045158595E+02  0.76115496524E+01 -0.58742365481E+03  0.58920888765E+03  0.36825336510E+01 0.  0.
         13    1    3    3    0    0 -0.38836512971E+01  0.70998116156E+00 -0.38952173219E+02  0.39151738393E+02  0.00000000000E+00 0.  1.
          3    1    3    3  501    0 -0.41161507298E+02  0.69015684909E+01 -0.54847148159E+03  0.55005714926E+03  0.00000000000E+00 0.  1.
         -1    1    1    2    0  502  0.45045158595E+02 -0.76115496524E+01 -0.41041637118E+03  0.41295108637E+03  0.00000000000E+00 0. -1.
<mgrwt>
<rscale>  1 0.30000000E+03</rscale>
<asrwt>0</asrwt>
<pdfrwt beam="1">  1       21 0.78544675E-02 0.30000000E+03</pdfrwt>
<pdfrwt beam="2">0</pdfrwt>
<totfact> 0.13192284E+04</totfact>
</mgrwt>
</event>
<event>
 6    1  0.1295671E-001  0.3000000E+03  0.7818608E-02  0.1093470E+00
         21   -1    0    0  501  502  0.00000000000E+00  0.00000000000E+00  0.12983866332E+01  0.12983866332E+01  0.00000000000E+00 0. -1.
         13   -1    0    0    0    0 -0.00000000000E+00 -0.00000000000E+00 -0.10000000000E+04  0.10000000000E+04  0.00000000000E+00 0.  1.
    9000005    2    1    2  501    0  0.18023237260E+02  0.26562001250E+02 -0.72575924133E+03  0.72647496069E+03  0.30025236206E+01 0.  0.
         13    1    3    3    0    0  0.17683321462E+01  0.28327332700E+01 -0.98541302885E+02  0.98597868895E+02  0.00000000000E+00 0.  1.
          3    1    3    3  501    0  0.16254905114E+02  0.23729267979E+02 -0.62721793844E+03  0.62787709180E+03  0.00000000000E+00 0.  1.
         -1    1    1    2    0  502 -0.18023237260E+02 -0.26562001250E+02 -0.27294237204E+03  0.27482342594E+03  0.00000000000E+00 0. -1.
<mgrwt>
<rscale>  1 0.30000000E+03</rscale>
<asrwt>0</asrwt>
<pdfrwt beam="1">  1       21 0.47214159E-02 0.30000000E+03</pdfrwt>
<pdfrwt beam="2">0</pdfrwt>
<totfact> 0.31757885E+04</totfact>
</mgrwt>
</event>
<event>
 6    1  0.1295671E-001  0.3000000E+03  0.7818608E-02  0.1093470E+00
         21   -1    0    0  501  502  0.00000000000E+00  0.00000000000E+00  0.12759248371E+01  0.12759248371E+01  0.00000000000E+00 0. -1.
         13   -1    0    0    0    0 -0.00000000000E+00 -0.00000000000E+00 -0.10000000000E+04  0.10000000000E+04  0.00000000000E+00 0.  1.
    9000005    2    1    2  501    0 -0.29766889803E+01 -0.34332168560E+02 -0.62791558531E+03  0.62886956798E+03  0.33753206896E+01 0.  0.
         13    1    3    3    0    0 -0.26649821304E+01 -0.21090597119E+02 -0.36066562990E+03  0.36129158862E+03  0.00000000000E+00 0.  1.
          3    1    3    3  501    0 -0.31170684991E+00 -0.13241571441E+02 -0.26724995541E+03  0.26757797936E+03  0.00000000000E+00 0.  1.
         -3    1    1    2    0  502  0.29766889803E+01  0.34332168560E+02 -0.37080848986E+03  0.37240635685E+03  0.00000000000E+00 0. -1.
<mgrwt>
<rscale>  1 0.30000000E+03</rscale>
<asrwt>0</asrwt>
<pdfrwt beam="1">  1       21 0.46397365E-02 0.30000000E+03</pdfrwt>
<pdfrwt beam="2">0</pdfrwt>
<totfact> 0.32714145E+04</totfact>
</mgrwt>
</event>
<event>
 6    1  0.1295671E-001  0.3000000E+03  0.7818608E-02  0.1093470E+00
         21   -1    0    0  501  502  0.00000000000E+00  0.00000000000E+00  0.21549227856E+01  0.21549227856E+01  0.00000000000E+00 0. -1.
         13   -1    0    0    0    0 -0.00000000000E+00 -0.00000000000E+00 -0.10000000000E+04  0.10000000000E+04  0.00000000000E+00 0.  1.
    9000005    2    1    2  501    0  0.46300457497E+01 -0.34369656798E+02 -0.83169410642E+03  0.83242320587E+03  0.32552082936E+01 0.  0.
         13    1    3    3    0    0  0.37749228724E+01 -0.28462375179E+02 -0.71560249123E+03  0.71617824758E+03  0.00000000000E+00 0.  1.
          3    1    3    3  501    0  0.85512287721E+00 -0.59072816192E+01 -0.11609161519E+03  0.11624495829E+03  0.00000000000E+00 0.  1.
         -1    1    1    2    0  502 -0.46300457497E+01  0.34369656798E+02 -0.16615097079E+03  0.16973171692E+03  0.00000000000E+00 0. -1.
<mgrwt>
<rscale>  1 0.30000000E+03</rscale>
<asrwt>0</asrwt>
<pdfrwt beam="1">  1       21 0.78360994E-02 0.30000000E+03</pdfrwt>
<pdfrwt beam="2">0</pdfrwt>
<totfact> 0.13246590E+04</totfact>
</mgrwt>
</event>
<event>
 6    1  0.1295671E-001  0.3000000E+03  0.7818608E-02  0.1093470E+00
         21   -1    0    0  501  502  0.00000000000E+00  0.00000000000E+00  0.36742777989E+01  0.36742777989E+01  0.00000000000E+00 0. -1.
         13   -1    0    0    0    0 -0.00000000000E+00 -0.00000000000E+00 -0.10000000000E+04  0.10000000000E+04  0.00000000000E+00 0.  1.
    9000005    2    1    2  501    0  0.53133207461E+02 -0.21626176969E+02 -0.65721810271E+03  0.65974869447E+03  0.64711722975E+01 0.  0.
         13    1    3    3    0    0  0.69345621312E+01 -0.46838928778E+01 -0.79740732468E+02  0.80178621957E+02  0.00000000000E+00 0.  1.
          1    1    3    3  501    0  0.46198645330E+02 -0.16942284091E+02 -0.57747737024E+03  0.57957007252E+03  0.00000000000E+00 0.  1.
         -1    1    1    2    0  502 -0.53133207461E+02  0.21626176969E+02 -0.33910761950E+03  0.34392558333E+03  0.00000000000E+00 0. -1.
<mgrwt>
<rscale>  1 0.30000000E+03</rscale>
<asrwt>0</asrwt>
<pdfrwt beam="1">  1       21 0.13361038E-01 0.30000000E+03</pdfrwt>
<pdfrwt beam="2">0</pdfrwt>
<totfact> 0.50948993E+03</totfact>
</mgrwt>
</event>
<event>
 6    1  0.1295671E-001  0.3000000E+03  0.7818608E-02  0.1093470E+00
         21   -1    0    0  501  502  0.00000000000E+00  0.00000000000E+00  0.23879444565E+01  0.23879444565E+01  0.00000000000E+00 0. -1.
         13   -1    0    0    0    0 -0.00000000000E+00 -0.00000000000E+00 -0.10000000000E+04  0.10000000000E+04  0.00000000000E+00 0.  1.
    9000005    2    1    2  501    0 -0.36307370674E+01  0.44178134309E+02 -0.70673965858E+03  0.70815735271E+03  0.64032326599E+01 0.  0.
         13    1    3    3    0    0 -0.89239153831E-01  0.26123577715E+02 -0.37608846200E+03  0.37699466910E+03  0.00000000000E+00 0.  1.
          1    1    3    3  501    0 -0.35414979136E+01  0.18054556594E+02 -0.33065119658E+03  0.33116268362E+03  0.00000000000E+00 0.  1.
         -1    1    1    2    0  502  0.36307370674E+01 -0.44178134309E+02 -0.29087239696E+03  0.29423059174E+03  0.00000000000E+00 0. -1.
<mgrwt>
<rscale>  1 0.30000000E+03</rscale>
<asrwt>0</asrwt>
<pdfrwt beam="1">  1       21 0.86834527E-02 0.30000000E+03</pdfrwt>
<pdfrwt beam="2">0</pdfrwt>
<totfact> 0.11056656E+04</totfact>
</mgrwt>
</event>
<event>
 6    1  0.1295671E-001  0.3000000E+03  0.7818608E-02  0.1093470E+00
         21   -1    0    0  501  502  0.00000000000E+00  0.00000000000E+00  0.41036526856E+01  0.41036526856E+01  0.00000000000E+00 0. -1.
         13   -1    0    0    0    0 -0.00000000000E+00 -0.00000000000E+00 -0.10000000000E+04  0.10000000000E+04  0.00000000000E+00 0.  1.
    9000005    2    1    2  501    0  0.20816890512E+02  0.31242963497E+02 -0.90461549175E+03  0.90540380319E+03  0.41705168860E+01 0.  0.
         13    1    3    3    0    0  0.16049103148E+02  0.21585695612E+02 -0.67545653709E+03  0.67599190044E+03  0.00000000000E+00 0.  1.
          3    1    3    3  501    0  0.47677873643E+01  0.96572678851E+01 -0.22915895466E+03  0.22941190275E+03  0.00000000000E+00 0.  1.
         -1    1    1    2    0  502 -0.20816890512E+02 -0.31242963497E+02 -0.91280855564E+02  0.98699849499E+02  0.00000000000E+00 0. -1.
<mgrwt>
<rscale>  1 0.30000000E+03</rscale>
<asrwt>0</asrwt>
<pdfrwt beam="1">  1       21 0.14922405E-01 0.30000000E+03</pdfrwt>
<pdfrwt beam="2">0</pdfrwt>
<totfact> 0.41577452E+03</totfact>
</mgrwt>
</event>
<event>
 6    1  0.1295671E-001  0.3000000E+03  0.7818608E-02  0.1093470E+00
         21   -1    0    0  501  502  0.00000000000E+00  0.00000000000E+00  0.19161725491E+01  0.19161725491E+01  0.00000000000E+00 0. -1.
         13   -1    0    0    0    0 -0.00000000000E+00 -0.00000000000E+00 -0.10000000000E+04  0.10000000000E+04  0.00000000000E+00 0.  1.
    9000005    2    1    2  501    0  0.74410478763E+01 -0.31973776848E+02 -0.83007744327E+03  0.83073253803E+03  0.32087890479E+01 0.  0.
         13    1    3    3    0    0  0.15221123296E+01 -0.60544854555E+01 -0.19194872603E+03  0.19205022011E+03  0.00000000000E+00 0.  1.
          3    1    3    3  501    0  0.59189355467E+01 -0.25919291393E+02 -0.63812871723E+03  0.63868231792E+03  0.00000000000E+00 0.  1.
         -3    1    1    2    0  502 -0.74410478763E+01  0.31973776848E+02 -0.16800638418E+03  0.17118363451E+03  0.00000000000E+00 0. -1.
<mgrwt>
<rscale>  1 0.30000000E+03</rscale>
<asrwt>0</asrwt>
<pdfrwt beam="1">  1       21 0.69679149E-02 0.30000000E+03</pdfrwt>
<pdfrwt beam="2">0</pdfrwt>
<totfact> 0.16264786E+04</totfact>
</mgrwt>
</event>
<event>
 6    1  0.1295671E-001  0.3000000E+03  0.7818608E-02  0.1093470E+00
         21   -1    0    0  501  502  0.00000000000E+00  0.00000000000E+00  0.93851998636E+00  0.93851998636E+00  0.00000000000E+00 0. -1.
         13   -1    0    0    0    0 -0.00000000000E+00 -0.00000000000E+00 -0.10000000000E+04  0.10000000000E+04  0.00000000000E+00 0.  1.
    9000005    2    1    2  501    0  0.27898284792E+02  0.12429974358E+02 -0.51949788986E+03  0.52040334379E+03  0.29604233452E+01 0.  0.
         13    1    3    3    0    0  0.19949559148E+01  0.12375589335E+00 -0.36992893432E+02  0.37046853160E+02  0.00000000000E+00 0.  1.
          3    1    3    3  501    0  0.25903328877E+02  0.12306218465E+02 -0.48250499643E+03  0.48335649063E+03  0.00000000000E+00 0.  1.
         -1    1    1    2    0  502 -0.27898284792E+02 -0.12429974358E+02 -0.47956359015E+03  0.48053517619E+03  0.00000000000E+00 0. -1.
<mgrwt>
<rscale>  1 0.30000000E+03</rscale>
<asrwt>0</asrwt>
<pdfrwt beam="1">  1       21 0.34128071E-02 0.30000000E+03</pdfrwt>
<pdfrwt beam="2">0</pdfrwt>
<totfact> 0.54885053E+04</totfact>
</mgrwt>
</event>
<event>
 6    1  0.1295671E-001  0.3000000E+03  0.7818608E-02  0.1093470E+00
         21   -1    0    0  501  502  0.00000000000E+00  0.00000000000E+00  0.28286056697E+01  0.28286056697E+01  0.00000000000E+00 0. -1.
         13   -1    0    0    0    0 -0.00000000000E+00 -0.00000000000E+00 -0.10000000000E+04  0.10000000000E+04  0.00000000000E+00 0.  1.
    9000005    2    1    2  501    0  0.13804325743E+02 -0.35487664294E+02 -0.84846566544E+03  0.84932509584E+03  0.30330283326E+01 0.  0.
         13    1    3    3    0    0  0.69175008280E+01 -0.13740317103E+02 -0.33611218849E+03  0.33646404174E+03  0.00000000000E+00 0.  1.
          1    1    3    3  501    0  0.68868249153E+01 -0.21747347191E+02 -0.51235347695E+03  0.51286105410E+03  0.00000000000E+00 0.  1.
         -1    1    1    2    0  502 -0.13804325743E+02  0.35487664294E+02 -0.14870572889E+03  0.15350350983E+03  0.00000000000E+00 0. -1.
<mgrwt>
<rscale>  1 0.30000000E+03</rscale>
<asrwt>0</asrwt>
<pdfrwt beam="1">  1       21 0.10285860E-01 0.30000000E+03</pdfrwt>
<pdfrwt beam="2">0</pdfrwt>
<totfact> 0.81802929E+03</totfact>
</mgrwt>
</event>
<event>
 6    1  0.1295671E-001  0.3000000E+03  0.7818608E-02  0.1093470E+00
         21   -1    0    0  501  502  0.00000000000E+00  0.00000000000E+00  0.13308792248E+01  0.13308792248E+01  0.00000000000E+00 0. -1.
         13   -1    0    0    0    0 -0.00000000000E+00 -0.00000000000E+00 -0.10000000000E+04  0.10000000000E+04  0.00000000000E+00 0.  1.
    9000005    2    1    2  501    0 -0.32085185969E+02  0.15583492375E+02 -0.40053157526E+03  0.40213072256E+03  0.33572089982E+01 0.  0.
         13    1    3    3    0    0 -0.11067676047E+02  0.43709767404E+01 -0.14840726793E+03  0.14888356546E+03  0.00000000000E+00 0.  1.
          1    1    3    3  501    0 -0.21017509922E+02  0.11212515635E+02 -0.25212430733E+03  0.25324715710E+03  0.00000000000E+00 0.  1.
         -3    1    1    2    0  502  0.32085185969E+02 -0.15583492375E+02 -0.59813754551E+03  0.59920015666E+03  0.00000000000E+00 0. -1.
<mgrwt>
<rscale>  1 0.30000000E+03</rscale>
<asrwt>0</asrwt>
<pdfrwt beam="1">  1       21 0.48395710E-02 0.30000000E+03</pdfrwt>
<pdfrwt beam="2">0</pdfrwt>
<totfact> 0.30450082E+04</totfact>
</mgrwt>
</event>
<event>
 6    1  0.1295671E-001  0.3000000E+03  0.7818608E-02  0.1093470E+00
         21   -1    0    0  501  502  0.00000000000E+00  0.00000000000E+00  0.17218753787E+01  0.17218753787E+01  0.00000000000E+00 0. -1.
         13   -1    0    0    0    0 -0.00000000000E+00 -0.00000000000E+00 -0.10000000000E+04  0.10000000000E+04  0.00000000000E+00 0.  1.
    9000005    2    1    2  501    0 -0.23289038010E+02  0.24671812715E+02 -0.78684460210E+03  0.78758357408E+03  0.35186196832E+01 0.  0.
         13    1    3    3    0    0 -0.86513988174E+01  0.10054133531E+02 -0.27114845144E+03  0.27147267822E+03  0.00000000000E+00 0.  1.
          3    1    3    3  501    0 -0.14637639193E+02  0.14617679184E+02 -0.51569615066E+03  0.51611089586E+03  0.00000000000E+00 0.  1.
         -3    1    1    2    0  502  0.23289038010E+02 -0.24671812715E+02 -0.21143352252E+03  0.21413830129E+03  0.00000000000E+00 0. -1.
<mgrwt>
<rscale>  1 0.30000000E+03</rscale>
<asrwt>0</asrwt>
<pdfrwt beam="1">  1       21 0.62613782E-02 0.30000000E+03</pdfrwt>
<pdfrwt beam="2">0</pdfrwt>
<totfact> 0.19576348E+04</totfact>
</mgrwt>
</event>
<event>
 6    1  0.1295671E-001  0.3000000E+03  0.7818608E-02  0.1093470E+00
         21   -1    0    0  501  502  0.00000000000E+00  0.00000000000E+00  0.29968177807E+01  0.29968177807E+01  0.00000000000E+00 0. -1.
         13   -1    0    0    0    0 -0.00000000000E+00 -0.00000000000E+00 -0.10000000000E+04  0.10000000000E+04  0.00000000000E+00 0.  1.
    9000005    2    1    2  501    0  0.19276866198E+02  0.27486537903E+02 -0.89444076442E+03  0.89507945643E+03  0.39805688252E+01 0.  0.
         13    1    3    3    0    0  0.67168578633E+01  0.13011990285E+02 -0.38790154813E+03  0.38817784470E+03  0.00000000000E+00 0.  1.
          1    1    3    3  501    0  0.12560008335E+02  0.14474547617E+02 -0.50653921629E+03  0.50690161173E+03  0.00000000000E+00 0.  1.
         -3    1    1    2    0  502 -0.19276866198E+02 -0.27486537903E+02 -0.10256241780E+03  0.10791736135E+03  0.00000000000E+00 0. -1.
<mgrwt>
<rscale>  1 0.30000000E+03</rscale>
<asrwt>0</asrwt>
<pdfrwt beam="1">  1       21 0.10897542E-01 0.30000000E+03</pdfrwt>
<pdfrwt beam="2">0</pdfrwt>
<totfact> 0.73751042E+03</totfact>
</mgrwt>
</event>
<event>
 6    1  0.1295671E-001  0.3000000E+03  0.7818608E-02  0.1093470E+00
         21   -1    0    0  501  502  0.00000000000E+00  0.00000000000E+00  0.11414785337E+01  0.11414785337E+01  0.00000000000E+00 0. -1.
         13   -1    0    0    0    0 -0.00000000000E+00 -0.00000000000E+00 -0.10000000000E+04  0.10000000000E+04  0.00000000000E+00 0.  1.
    9000005    2    1    2  501    0  0.25953075455E+02  0.19950332730E+02 -0.61945099041E+03  0.62032439315E+03  0.33534026488E+01 0.  0.
         13    1    3    3    0    0  0.16882624602E+02  0.13516947720E+02 -0.37929353694E+03  0.37990961827E+03  0.00000000000E+00 0.  1.
          1    1    3    3  501    0  0.90704508525E+01  0.64333850094E+01 -0.24015745347E+03  0.24041477488E+03  0.00000000000E+00 0.  1.
         -1    1    1    2    0  502 -0.25953075455E+02 -0.19950332730E+02 -0.37940753105E+03  0.38081708539E+03  0.00000000000E+00 0. -1.
<mgrwt>
<rscale>  1 0.30000000E+03</rscale>
<asrwt>0</asrwt>
<pdfrwt beam="1">  1       21 0.41508398E-02 0.30000000E+03</pdfrwt>
<pdfrwt beam="2">0</pdfrwt>
<totfact> 0.39503833E+04</totfact>
</mgrwt>
</event>
<event>
 6    1  0.1295671E-001  0.3000000E+03  0.7818608E-02  0.1093470E+00
         21   -1    0    0  501  502  0.00000000000E+00  0.00000000000E+00  0.41991450703E+01  0.41991450703E+01  0.00000000000E+00 0. -1.
         13   -1    0    0    0    0 -0.00000000000E+00 -0.00000000000E+00 -0.10000000000E+04  0.10000000000E+04  0.00000000000E+00 0.  1.
    9000005    2    1    2  501    0 -0.27260645804E+02  0.46373941165E+02 -0.77759094312E+03  0.77945651262E+03  0.33309179370E+01 0.  0.
         13    1    3    3    0    0 -0.13121772321E+02  0.20558016791E+02 -0.33225084536E+03  0.33314476914E+03  0.00000000000E+00 0.  1.
          1    1    3    3  501    0 -0.14138873483E+02  0.25815924374E+02 -0.44534009775E+03  0.44631174347E+03  0.00000000000E+00 0.  1.
         -1    1    1    2    0  502  0.27260645804E+02 -0.46373941165E+02 -0.21820991181E+03  0.22474263245E+03  0.00000000000E+00 0. -1.
<mgrwt>
<rscale>  1 0.30000000E+03</rscale>
<asrwt>0</asrwt>
<pdfrwt beam="1">  1       21 0.15269651E-01 0.30000000E+03</pdfrwt>
<pdfrwt beam="2">0</pdfrwt>
<totfact> 0.39843057E+03</totfact>
</mgrwt>
</event>
<event>
 6    1  0.1295671E-001  0.3000000E+03  0.7818608E-02  0.1093470E+00
         21   -1    0    0  501  502  0.00000000000E+00  0.00000000000E+00  0.14261666864E+01  0.14261666864E+01  0.00000000000E+00 0. -1.
         13   -1    0    0    0    0 -0.00000000000E+00 -0.00000000000E+00 -0.10000000000E+04  0.10000000000E+04  0.00000000000E+00 0.  1.
    9000005    2    1    2  501    0 -0.21783873796E+02 -0.27815902521E+02 -0.33484087008E+03  0.33675353443E+03  0.60227139392E+01 0.  0.
         13    1    3    3    0    0 -0.20687082413E+02 -0.24988192227E+02 -0.31712573119E+03  0.31878063698E+03  0.00000000000E+00 0.  1.
          3    1    3    3  501    0 -0.10967913831E+01 -0.28277102939E+01 -0.17715138895E+02  0.17972897454E+02  0.00000000000E+00 0.  1.
         -3    1    1    2    0  502  0.21783873796E+02  0.27815902521E+02 -0.66373296323E+03  0.66467263225E+03  0.00000000000E+00 0. -1.
<mgrwt>
<rscale>  1 0.30000000E+03</rscale>
<asrwt>0</asrwt>
<pdfrwt beam="1">  1       21 0.51860716E-02 0.30000000E+03</pdfrwt>
<pdfrwt beam="2">0</pdfrwt>
<totfact> 0.27063594E+04</totfact>
</mgrwt>
</event>
<event>
 6    1  0.1295671E-001  0.3000000E+03  0.7818608E-02  0.1093470E+00
         21   -1    0    0  501  502  0.00000000000E+00  0.00000000000E+00  0.19378479437E+01  0.19378479437E+01  0.00000000000E+00 0. -1.
         13   -1    0    0    0    0 -0.00000000000E+00 -0.00000000000E+00 -0.10000000000E+04  0.10000000000E+04  0.00000000000E+00 0.  1.
    9000005    2    1    2  501    0 -0.11843871463E+02  0.36011043486E+02 -0.75287313741E+03  0.75383559998E+03  0.36163809193E+01 0.  0.
         13    1    3    3    0    0 -0.39432868273E+01  0.12484981476E+02 -0.22714159525E+03  0.22751863345E+03  0.00000000000E+00 0.  1.
          1    1    3    3  501    0 -0.79005846352E+01  0.23526062010E+02 -0.52573154216E+03  0.52631696653E+03  0.00000000000E+00 0.  1.
         -1    1    1    2    0  502  0.11843871463E+02 -0.36011043486E+02 -0.24518901464E+03  0.24810224797E+03  0.00000000000E+00 0. -1.
<mgrwt>
<rscale>  1 0.30000000E+03</rscale>
<asrwt>0</asrwt>
<pdfrwt beam="1">  1       21 0.70467347E-02 0.30000000E+03</pdfrwt>
<pdfrwt beam="2">0</pdfrwt>
<totfact> 0.15949460E+04</totfact>
</mgrwt>
</event>
<event>
 6    1  0.1295671E-001  0.3000000E+03  0.7818608E-02  0.1093470E+00
         21   -1    0    0  501  502  0.00000000000E+00  0.00000000000E+00  0.96923742700E+01  0.96923742700E+01  0.00000000000E+00 0. -1.
         13   -1    0    0    0    0 -0.00000000000E+00 -0.00000000000E+00 -0.10000000000E+04  0.10000000000E+04  0.00000000000E+00 0.  1.
    9000005    2    1    2  501    0  0.15337535993E+02 -0.84400674284E+02 -0.74275301662E+03  0.74769619430E+03  0.29734550522E+01 0.  0.
         13    1    3    3    0    0  0.20270429835E+01 -0.17678221166E+02 -0.15663767269E+03  0.15764513603E+03  0.00000000000E+00 0.  1.
          3    1    3    3  501    0  0.13310493010E+02 -0.66722453118E+02 -0.58611534393E+03  0.59005105826E+03  0.00000000000E+00 0.  1.
         -1    1    1    2    0  502 -0.15337535993E+02  0.84400674284E+02 -0.24755460911E+03  0.26199617997E+03  0.00000000000E+00 0. -1.
<mgrwt>
<rscale>  1 0.30000000E+03</rscale>
<asrwt>0</asrwt>
<pdfrwt beam="1">  1       21 0.35245072E-01 0.30000000E+03</pdfrwt>
<pdfrwt beam="2">0</pdfrwt>
<totfact> 0.78451227E+02</totfact>
</mgrwt>
</event>
<event>
 6    1  0.1295671E-001  0.3000000E+03  0.7818608E-02  0.1093470E+00
         21   -1    0    0  501  502  0.00000000000E+00  0.00000000000E+00  0.28283972023E+01  0.28283972023E+01  0.00000000000E+00 0. -1.
         13   -1    0    0    0    0 -0.00000000000E+00 -0.00000000000E+00 -0.10000000000E+04  0.10000000000E+04  0.00000000000E+00 0.  1.
    9000005    2    1    2  501    0  0.50531403897E+02  0.90143910879E+00 -0.64844856403E+03  0.65046212025E+03  0.78226787980E+01 0.  0.
         13    1    3    3    0    0  0.33429843098E+02 -0.10726637977E+01 -0.38404996589E+03  0.38550367225E+03  0.00000000000E+00 0.  1.
          1    1    3    3  501    0  0.17101560798E+02  0.19741029064E+01 -0.26439859814E+03  0.26495844799E+03  0.00000000000E+00 0.  1.
         -1    1    1    2    0  502 -0.50531403897E+02 -0.90143910879E+00 -0.34872303876E+03  0.35236627696E+03  0.00000000000E+00 0. -1.
<mgrwt>
<rscale>  1 0.30000000E+03</rscale>
<asrwt>0</asrwt>
<pdfrwt beam="1">  1       21 0.10285102E-01 0.30000000E+03</pdfrwt>
<pdfrwt beam="2">0</pdfrwt>
<totfact> 0.81813721E+03</totfact>
</mgrwt>
</event>
<event>
 6    1  0.1295671E-001  0.3000000E+03  0.7818608E-02  0.1093470E+00
         21   -1    0    0  501  502  0.00000000000E+00  0.00000000000E+00  0.95674527191E+00  0.95674527191E+00  0.00000000000E+00 0. -1.
         13   -1    0    0    0    0 -0.00000000000E+00 -0.00000000000E+00 -0.10000000000E+04  0.10000000000E+04  0.00000000000E+00 0.  1.
    9000005    2    1    2  501    0 -0.20542363552E+02  0.22927213976E+02 -0.53030373234E+03  0.53120746567E+03  0.34171926185E+01 0.  0.
         13    1    3    3    0    0 -0.16647216430E+02  0.17420120542E+02 -0.39274825344E+03  0.39348669735E+03  0.00000000000E+00 0.  1.
          1    1    3    3  501    0 -0.38951471219E+01  0.55070934338E+01 -0.13755547891E+03  0.13772076832E+03  0.00000000000E+00 0.  1.
         -3    1    1    2    0  502  0.20542363552E+02 -0.22927213976E+02 -0.46873952238E+03  0.46974927960E+03  0.00000000000E+00 0. -1.
<mgrwt>
<rscale>  1 0.30000000E+03</rscale>
<asrwt>0</asrwt>
<pdfrwt beam="1">  1       21 0.34790811E-02 0.30000000E+03</pdfrwt>
<pdfrwt beam="2">0</pdfrwt>
<totfact> 0.53147522E+04</totfact>
</mgrwt>
</event>
<event>
 6    1  0.1295671E-001  0.3000000E+03  0.7818608E-02  0.1093470E+00
         21   -1    0    0  501  502  0.00000000000E+00  0.00000000000E+00  0.14792622699E+01  0.14792622699E+01  0.00000000000E+00 0. -1.
         13   -1    0    0    0    0 -0.00000000000E+00 -0.00000000000E+00 -0.10000000000E+04  0.10000000000E+04  0.00000000000E+00 0.  1.
    9000005    2    1    2  501    0  0.14681665219E+02 -0.30728789453E+02 -0.72053745202E+03  0.72141763168E+03  0.10457998832E+02 0.  0.
         13    1    3    3    0    0  0.11122196843E+02 -0.12671132119E+02 -0.29367355479E+03  0.29415713085E+03  0.00000000000E+00 0.  1.
          3    1    3    3  501    0  0.35594683768E+01 -0.18057657334E+02 -0.42686389723E+03  0.42726050082E+03  0.00000000000E+00 0.  1.
         -1    1    1    2    0  502 -0.14681665219E+02  0.30728789453E+02 -0.27798328571E+03  0.28006163059E+03  0.00000000000E+00 0. -1.
<mgrwt>
<rscale>  1 0.30000000E+03</rscale>
<asrwt>0</asrwt>
<pdfrwt beam="1">  1       21 0.53791469E-02 0.30000000E+03</pdfrwt>
<pdfrwt beam="2">0</pdfrwt>
<totfact> 0.25423762E+04</totfact>
</mgrwt>
</event>
<event>
 6    1  0.1295671E-001  0.3000000E+03  0.7818608E-02  0.1093470E+00
         21   -1    0    0  501  502  0.00000000000E+00  0.00000000000E+00  0.17766833571E+01  0.17766833571E+01  0.00000000000E+00 0. -1.
         13   -1    0    0    0    0 -0.00000000000E+00 -0.00000000000E+00 -0.10000000000E+04  0.10000000000E+04  0.00000000000E+00 0.  1.
    9000005    2    1    2  501    0 -0.30233097025E+02 -0.29442725778E+01 -0.84612812428E+03  0.84667782315E+03  0.27972531031E+01 0.  0.
         13    1    3    3    0    0 -0.11508448980E+02 -0.62714324392E+00 -0.35673570054E+03  0.35692183703E+03  0.00000000000E+00 0.  1.
          1    1    3    3  501    0 -0.18724648045E+02 -0.23171293338E+01 -0.48939242374E+03  0.48975598612E+03  0.00000000000E+00 0.  1.
         -3    1    1    2    0  502  0.30233097025E+02  0.29442725778E+01 -0.15209519237E+03  0.15509886021E+03  0.00000000000E+00 0. -1.
<mgrwt>
<rscale>  1 0.30000000E+03</rscale>
<asrwt>0</asrwt>
<pdfrwt beam="1">  1       21 0.64606804E-02 0.30000000E+03</pdfrwt>
<pdfrwt beam="2">0</pdfrwt>
<totfact> 0.18543800E+04</totfact>
</mgrwt>
</event>
<event>
 6    1  0.1295671E-001  0.3000000E+03  0.7818608E-02  0.1093470E+00
         21   -1    0    0  501  502  0.00000000000E+00  0.00000000000E+00  0.12518026508E+01  0.12518026508E+01  0.00000000000E+00 0. -1.
         13   -1    0    0    0    0 -0.00000000000E+00 -0.00000000000E+00 -0.10000000000E+04  0.10000000000E+04  0.00000000000E+00 0.  1.
    9000005    2    1    2  501    0  0.43095384989E+01  0.33803323652E+02 -0.37074723765E+03  0.37232697233E+03  0.35529265044E+01 0.  0.
         13    1    3    3    0    0  0.34015236551E+01  0.28767086086E+02 -0.30019264195E+03  0.30158703203E+03  0.00000000000E+00 0.  1.
          3    1    3    3  501    0  0.90801484381E+00  0.50362375655E+01 -0.70554595695E+02  0.70739940298E+02  0.00000000000E+00 0.  1.
         -1    1    1    2    0  502 -0.43095384989E+01 -0.33803323652E+02 -0.62800095970E+03  0.62892483032E+03  0.00000000000E+00 0. -1.
<mgrwt>
<rscale>  1 0.30000000E+03</rscale>
<asrwt>0</asrwt>
<pdfrwt beam="1">  1       21 0.45520192E-02 0.30000000E+03</pdfrwt>
<pdfrwt beam="2">0</pdfrwt>
<totfact> 0.33792342E+04</totfact>
</mgrwt>
</event>
<event>
 6    1  0.1295671E-001  0.3000000E+03  0.7818608E-02  0.1093470E+00
         21   -1    0    0  501  502  0.00000000000E+00  0.00000000000E+00  0.10907078467E+01  0.10907078467E+01  0.00000000000E+00 0. -1.
         13   -1    0    0    0    0 -0.00000000000E+00 -0.00000000000E+00 -0.10000000000E+04  0.10000000000E+04  0.00000000000E+00 0.  1.
    9000005    2    1    2  501    0  0.30391039937E+02 -0.31946305010E+01 -0.67933653454E+03  0.68006022895E+03  0.70687244482E+01 0.  0.
         13    1    3    3    0    0  0.31085541701E+01  0.55196093846E+00 -0.37303760980E+02  0.37437125333E+02  0.00000000000E+00 0.  1.
          3    1    3    3  501    0  0.27282485767E+02 -0.37465914394E+01 -0.64203277356E+03  0.64262310362E+03  0.00000000000E+00 0.  1.
         -1    1    1    2    0  502 -0.30391039937E+02  0.31946305010E+01 -0.31957275761E+03  0.32103047890E+03  0.00000000000E+00 0. -1.
<mgrwt>
<rscale>  1 0.30000000E+03</rscale>
<asrwt>0</asrwt>
<pdfrwt beam="1">  1       21 0.39662187E-02 0.30000000E+03</pdfrwt>
<pdfrwt beam="2">0</pdfrwt>
<totfact> 0.42652048E+04</totfact>
</mgrwt>
</event>
<event>
 6    1  0.1295671E-001  0.3000000E+03  0.7818608E-02  0.1093470E+00
         21   -1    0    0  501  502  0.00000000000E+00  0.00000000000E+00  0.10470293828E+01  0.10470293828E+01  0.00000000000E+00 0. -1.
         13   -1    0    0    0    0 -0.00000000000E+00 -0.00000000000E+00 -0.10000000000E+04  0.10000000000E+04  0.00000000000E+00 0.  1.
    9000005    2    1    2  501    0 -0.28449134864E+02 -0.13652545092E+02 -0.57096770731E+03  0.57190004889E+03  0.83545114844E+01 0.  0.
         13    1    3    3    0    0 -0.18384677437E+02 -0.55807292904E+01 -0.39005437822E+03  0.39052728314E+03  0.00000000000E+00 0.  1.
          3    1    3    3  501    0 -0.10064457427E+02 -0.80718158016E+01 -0.18091332909E+03  0.18137276575E+03  0.00000000000E+00 0.  1.
         -1    1    1    2    0  502  0.28449134864E+02  0.13652545092E+02 -0.42798526331E+03  0.42914698050E+03  0.00000000000E+00 0. -1.
<mgrwt>
<rscale>  1 0.30000000E+03</rscale>
<asrwt>0</asrwt>
<pdfrwt beam="1">  1       21 0.38073876E-02 0.30000000E+03</pdfrwt>
<pdfrwt beam="2">0</pdfrwt>
<totfact> 0.45686747E+04</totfact>
</mgrwt>
</event>
<event>
 6    1  0.1295671E-001  0.3000000E+03  0.7818608E-02  0.1093470E+00
         21   -1    0    0  501  502  0.00000000000E+00  0.00000000000E+00  0.14303028154E+01  0.14303028154E+01  0.00000000000E+00 0. -1.
         13   -1    0    0    0    0 -0.00000000000E+00 -0.00000000000E+00 -0.10000000000E+04  0.10000000000E+04  0.00000000000E+00 0.  1.
    9000005    2    1    2  501    0 -0.32004920856E+02 -0.60888806468E+01 -0.75175511931E+03  0.75247483436E+03  0.46073308415E+01 0.  0.
         13    1    3    3    0    0 -0.21072014264E+02 -0.18438349217E+01 -0.47013971875E+03  0.47061532557E+03  0.00000000000E+00 0.  1.
          1    1    3    3  501    0 -0.10932906591E+02 -0.42450457250E+01 -0.28161540056E+03  0.28185950879E+03  0.00000000000E+00 0.  1.
         -3    1    1    2    0  502  0.32004920856E+02  0.60888806468E+01 -0.24681457787E+03  0.24895546846E+03  0.00000000000E+00 0. -1.
<mgrwt>
<rscale>  1 0.30000000E+03</rscale>
<asrwt>0</asrwt>
<pdfrwt beam="1">  1       21 0.52011121E-02 0.30000000E+03</pdfrwt>
<pdfrwt beam="2">0</pdfrwt>
<totfact> 0.26930043E+04</totfact>
</mgrwt>
</event>
<event>
 6    1  0.1295671E-001  0.3000000E+03  0.7818608E-02  0.1093470E+00
         21   -1    0    0  501  502  0.00000000000E+00  0.00000000000E+00  0.33924642155E+01  0.33924642155E+01  0.00000000000E+00 0. -1.
         13   -1    0    0    0    0 -0.00000000000E+00 -0.00000000000E+00 -0.10000000000E+04  0.10000000000E+04  0.00000000000E+00 0.  1.
    9000005    2    1    2  501    0 -0.40191130548E+02 -0.36930512086E+02 -0.67284968236E+03  0.67506589302E+03  0.28416846979E+01 0.  0.
         13    1    3    3    0    0 -0.31795636768E+02 -0.27658253855E+02 -0.52286842299E+03  0.52456394204E+03  0.00000000000E+00 0.  1.
          1    1    3    3  501    0 -0.83954937796E+01 -0.92722582316E+01 -0.14998125936E+03  0.15050195098E+03  0.00000000000E+00 0.  1.
         -1    1    1    2    0  502  0.40191130548E+02  0.36930512086E+02 -0.32375785343E+03  0.32832657120E+03  0.00000000000E+00 0. -1.
<mgrwt>
<rscale>  1 0.30000000E+03</rscale>
<asrwt>0</asrwt>
<pdfrwt beam="1">  1       21 0.12336260E-01 0.30000000E+03</pdfrwt>
<pdfrwt beam="2">0</pdfrwt>
<totfact> 0.58934925E+03</totfact>
</mgrwt>
</event>
<event>
 6    1  0.1295671E-001  0.3000000E+03  0.7818608E-02  0.1093470E+00
         21   -1    0    0  501  502  0.00000000000E+00  0.00000000000E+00  0.20532037134E+01  0.20532037134E+01  0.00000000000E+00 0. -1.
         13   -1    0    0    0    0 -0.00000000000E+00 -0.00000000000E+00 -0.10000000000E+04  0.10000000000E+04  0.00000000000E+00 0.  1.
    9000005    2    1    2  501    0 -0.30923001013E+02 -0.89386730536E+01 -0.85129269183E+03  0.85190807984E+03  0.34637369798E+01 0.  0.
         13    1    3    3    0    0 -0.12830262110E+02 -0.24101712297E+01 -0.37499382338E+03  0.37522099105E+03  0.00000000000E+00 0.  1.
          3    1    3    3  501    0 -0.18092738903E+02 -0.65285018239E+01 -0.47629886844E+03  0.47668708879E+03  0.00000000000E+00 0.  1.
         -3    1    1    2    0  502  0.30923001013E+02  0.89386730536E+01 -0.14665410446E+03  0.15014512387E+03  0.00000000000E+00 0. -1.
<mgrwt>
<rscale>  1 0.30000000E+03</rscale>
<asrwt>0</asrwt>
<pdfrwt beam="1">  1       21 0.74662111E-02 0.30000000E+03</pdfrwt>
<pdfrwt beam="2">0</pdfrwt>
<totfact> 0.14417989E+04</totfact>
</mgrwt>
</event>
<event>
 6    1  0.1295671E-001  0.3000000E+03  0.7818608E-02  0.1093470E+00
         21   -1    0    0  501  502  0.00000000000E+00  0.00000000000E+00  0.17248787679E+01  0.17248787679E+01  0.00000000000E+00 0. -1.
         13   -1    0    0    0    0 -0.00000000000E+00 -0.00000000000E+00 -0.10000000000E+04  0.10000000000E+04  0.00000000000E+00 0.  1.
    9000005    2    1    2  501    0 -0.15518181085E+02  0.38167938420E+02 -0.44417541626E+03  0.44609542624E+03  0.34239500744E+01 0.  0.
         13    1    3    3    0    0 -0.11072394262E+02  0.27616204341E+02 -0.30358204921E+03  0.30503657693E+03  0.00000000000E+00 0.  1.
          1    1    3    3  501    0 -0.44457868230E+01  0.10551734078E+02 -0.14059336704E+03  0.14105884931E+03  0.00000000000E+00 0.  1.
         -3    1    1    2    0  502  0.15518181085E+02 -0.38167938420E+02 -0.55409970498E+03  0.55562945253E+03  0.00000000000E+00 0. -1.
<mgrwt>
<rscale>  1 0.30000000E+03</rscale>
<asrwt>0</asrwt>
<pdfrwt beam="1">  1       21 0.62722997E-02 0.30000000E+03</pdfrwt>
<pdfrwt beam="2">0</pdfrwt>
<totfact> 0.19517485E+04</totfact>
</mgrwt>
</event>
<event>
 6    1  0.1295671E-001  0.3000000E+03  0.7818608E-02  0.1093470E+00
         21   -1    0    0  501  502  0.00000000000E+00  0.00000000000E+00  0.14977954641E+01  0.14977954641E+01  0.00000000000E+00 0. -1.
         13   -1    0    0    0    0 -0.00000000000E+00 -0.00000000000E+00 -0.10000000000E+04  0.10000000000E+04  0.00000000000E+00 0.  1.
    9000005    2    1    2  501    0 -0.19673085390E+02  0.30189831093E+02 -0.68070194104E+03  0.68166117519E+03  0.28929286137E+01 0.  0.
         13    1    3    3    0    0 -0.10143423129E+02  0.14218469679E+02 -0.35318237994E+03  0.35361398079E+03  0.00000000000E+00 0.  1.
          1    1    3    3  501    0 -0.95296622606E+01  0.15971361414E+02 -0.32751956110E+03  0.32804719439E+03  0.00000000000E+00 0.  1.
         -3    1    1    2    0  502  0.19673085390E+02 -0.30189831093E+02 -0.31780026350E+03  0.31983662028E+03  0.00000000000E+00 0. -1.
<mgrwt>
<rscale>  1 0.30000000E+03</rscale>
<asrwt>0</asrwt>
<pdfrwt beam="1">  1       21 0.54465404E-02 0.30000000E+03</pdfrwt>
<pdfrwt beam="2">0</pdfrwt>
<totfact> 0.24887346E+04</totfact>
</mgrwt>
</event>
<event>
 6    1  0.1295671E-001  0.3000000E+03  0.7818608E-02  0.1093470E+00
         21   -1    0    0  501  502  0.00000000000E+00  0.00000000000E+00  0.99842699320E+00  0.99842699320E+00  0.00000000000E+00 0. -1.
         13   -1    0    0    0    0 -0.00000000000E+00 -0.00000000000E+00 -0.10000000000E+04  0.10000000000E+04  0.00000000000E+00 0.  1.
    9000005    2    1    2  501    0 -0.26967039375E+02  0.15950989914E+02 -0.52170310144E+03  0.52267271552E+03  0.55665258361E+01 0.  0.
         13    1    3    3    0    0 -0.16075690778E+02  0.12508457521E+02 -0.32309504701E+03  0.32373646496E+03  0.00000000000E+00 0.  1.
          3    1    3    3  501    0 -0.10891348597E+02  0.34425323928E+01 -0.19860805443E+03  0.19893625057E+03  0.00000000000E+00 0.  1.
         -3    1    1    2    0  502  0.26967039375E+02 -0.15950989914E+02 -0.47729847157E+03  0.47832571147E+03  0.00000000000E+00 0. -1.
<mgrwt>
<rscale>  1 0.30000000E+03</rscale>
<asrwt>0</asrwt>
<pdfrwt beam="1">  1       21 0.36306513E-02 0.30000000E+03</pdfrwt>
<pdfrwt beam="2">0</pdfrwt>
<totfact> 0.49481685E+04</totfact>
</mgrwt>
</event>
<event>
 6    1  0.1295671E-001  0.3000000E+03  0.7818608E-02  0.1093470E+00
         21   -1    0    0  501  502  0.00000000000E+00  0.00000000000E+00  0.19018258557E+01  0.19018258557E+01  0.00000000000E+00 0. -1.
         13   -1    0    0    0    0 -0.00000000000E+00 -0.00000000000E+00 -0.10000000000E+04  0.10000000000E+04  0.00000000000E+00 0.  1.
    9000005    2    1    2  501    0  0.16797879370E+02  0.39718001640E+02 -0.43108105597E+03  0.43324718488E+03  0.35437241357E+01 0.  0.
         13    1    3    3    0    0  0.26698591026E+01  0.67579931206E+01 -0.60372650235E+02  0.60808350701E+02  0.00000000000E+00 0.  1.
          1    1    3    3  501    0  0.14128020267E+02  0.32960008519E+02 -0.37070840574E+03  0.37243883417E+03  0.00000000000E+00 0.  1.
         -3    1    1    2    0  502 -0.16797879370E+02 -0.39718001640E+02 -0.56701711817E+03  0.56865464098E+03  0.00000000000E+00 0. -1.
<mgrwt>
<rscale>  1 0.30000000E+03</rscale>
<asrwt>0</asrwt>
<pdfrwt beam="1">  1       21 0.69157450E-02 0.30000000E+03</pdfrwt>
<pdfrwt beam="2">0</pdfrwt>
<totfact> 0.16478771E+04</totfact>
</mgrwt>
</event>
<event>
 6    1  0.1295671E-001  0.3000000E+03  0.7818608E-02  0.1093470E+00
         21   -1    0    0  501  502  0.00000000000E+00  0.00000000000E+00  0.24869003660E+01  0.24869003660E+01  0.00000000000E+00 0. -1.
         13   -1    0    0    0    0 -0.00000000000E+00 -0.00000000000E+00 -0.10000000000E+04  0.10000000000E+04  0.00000000000E+00 0.  1.
    9000005    2    1    2  501    0  0.21102352860E+02  0.29428333425E+02 -0.84323124723E+03  0.84401221442E+03  0.25190635273E+01 0.  0.
         13    1    3    3    0    0  0.14132996575E+02  0.17803186498E+02 -0.53980580210E+03  0.54028418358E+03  0.00000000000E+00 0.  1.
          3    1    3    3  501    0  0.69693562846E+01  0.11625146928E+02 -0.30342544513E+03  0.30372803084E+03  0.00000000000E+00 0.  1.
         -3    1    1    2    0  502 -0.21102352860E+02 -0.29428333425E+02 -0.15428185241E+03  0.15847468595E+03  0.00000000000E+00 0. -1.
<mgrwt>
<rscale>  1 0.30000000E+03</rscale>
<asrwt>0</asrwt>
<pdfrwt beam="1">  1       21 0.90432931E-02 0.30000000E+03</pdfrwt>
<pdfrwt beam="2">0</pdfrwt>
<totfact> 0.10290211E+04</totfact>
</mgrwt>
</event>
<event>
 6    1  0.1295671E-001  0.3000000E+03  0.7818608E-02  0.1093470E+00
         21   -1    0    0  501  502  0.00000000000E+00  0.00000000000E+00  0.17073714851E+01  0.17073714851E+01  0.00000000000E+00 0. -1.
         13   -1    0    0    0    0 -0.00000000000E+00 -0.00000000000E+00 -0.10000000000E+04  0.10000000000E+04  0.00000000000E+00 0.  1.
    9000005    2    1    2  501    0  0.39985417085E+02  0.75678788517E+01 -0.58189461276E+03  0.58332547191E+03  0.33405758379E+01 0.  0.
         13    1    3    3    0    0  0.35032909008E+01  0.14472336545E+01 -0.46284204266E+02  0.46439154783E+02  0.00000000000E+00 0.  1.
          1    1    3    3  501    0  0.36482126185E+02  0.61206451972E+01 -0.53561040849E+03  0.53688631712E+03  0.00000000000E+00 0.  1.
         -1    1    1    2    0  502 -0.39985417085E+02 -0.75678788517E+01 -0.41639801576E+03  0.41838189958E+03  0.00000000000E+00 0. -1.
<mgrwt>
<rscale>  1 0.30000000E+03</rscale>
<asrwt>0</asrwt>
<pdfrwt beam="1">  1       21 0.62086367E-02 0.30000000E+03</pdfrwt>
<pdfrwt beam="2">0</pdfrwt>
<totfact> 0.19864524E+04</totfact>
</mgrwt>
</event>
<event>
 6    1  0.1295671E-001  0.3000000E+03  0.7818608E-02  0.1093470E+00
         21   -1    0    0  501  502  0.00000000000E+00  0.00000000000E+00  0.12669960704E+01  0.12669960704E+01  0.00000000000E+00 0. -1.
         13   -1    0    0    0    0 -0.00000000000E+00 -0.00000000000E+00 -0.10000000000E+04  0.10000000000E+04  0.00000000000E+00 0.  1.
    9000005    2    1    2  501    0 -0.16379009135E+02  0.29446435486E+02 -0.65291251702E+03  0.65380883503E+03  0.59894395865E+01 0.  0.
         13    1    3    3    0    0 -0.13131540282E+02  0.24762643634E+02 -0.57835425398E+03  0.57903304652E+03  0.00000000000E+00 0.  1.
          3    1    3    3  501    0 -0.32474688525E+01  0.46837918515E+01 -0.74558263040E+02  0.74775788512E+02  0.00000000000E+00 0.  1.
         -1    1    1    2    0  502  0.16379009135E+02 -0.29446435486E+02 -0.34582048691E+03  0.34745816104E+03  0.00000000000E+00 0. -1.
<mgrwt>
<rscale>  1 0.30000000E+03</rscale>
<asrwt>0</asrwt>
<pdfrwt beam="1">  1       21 0.46072682E-02 0.30000000E+03</pdfrwt>
<pdfrwt beam="2">0</pdfrwt>
<totfact> 0.33106860E+04</totfact>
</mgrwt>
</event>
<event>
 6    1  0.1295671E-001  0.3000000E+03  0.7818608E-02  0.1093470E+00
         21   -1    0    0  501  502  0.00000000000E+00  0.00000000000E+00  0.15312328376E+01  0.15312328376E+01  0.00000000000E+00 0. -1.
         13   -1    0    0    0    0 -0.00000000000E+00 -0.00000000000E+00 -0.10000000000E+04  0.10000000000E+04  0.00000000000E+00 0.  1.
    9000005    2    1    2  501    0 -0.80538812354E+01  0.30439161437E+02 -0.20394470772E+03  0.20638351789E+03  0.30504258929E+01 0.  0.
         13    1    3    3    0    0 -0.73556310407E+01  0.22706846572E+02 -0.15481627352E+03  0.15664541083E+03  0.00000000000E+00 0.  1.
          1    1    3    3  501    0 -0.69825019470E+00  0.77323148649E+01 -0.49128434202E+02  0.49738107057E+02  0.00000000000E+00 0.  1.
         -1    1    1    2    0  502  0.80538812354E+01 -0.30439161437E+02 -0.79452405944E+03  0.79514771495E+03  0.00000000000E+00 0. -1.
<mgrwt>
<rscale>  1 0.30000000E+03</rscale>
<asrwt>0</asrwt>
<pdfrwt beam="1">  1       21 0.55681312E-02 0.30000000E+03</pdfrwt>
<pdfrwt beam="2">0</pdfrwt>
<totfact> 0.23962681E+04</totfact>
</mgrwt>
</event>
<event>
 6    1  0.1295671E-001  0.3000000E+03  0.7818608E-02  0.1093470E+00
         21   -1    0    0  501  502  0.00000000000E+00  0.00000000000E+00  0.33205163370E+01  0.33205163370E+01  0.00000000000E+00 0. -1.
         13   -1    0    0    0    0 -0.00000000000E+00 -0.00000000000E+00 -0.10000000000E+04  0.10000000000E+04  0.00000000000E+00 0.  1.
    9000005    2    1    2  501    0 -0.18804872153E+02 -0.42554509144E+02 -0.79410718666E+03  0.79547431123E+03  0.29404852040E+01 0.  0.
         13    1    3    3    0    0 -0.17159625554E+02 -0.40481756777E+02 -0.75082598489E+03  0.75211228216E+03  0.00000000000E+00 0.  1.
          3    1    3    3  501    0 -0.16452465987E+01 -0.20727523671E+01 -0.43281201766E+02  0.43362029070E+02  0.00000000000E+00 0.  1.
         -3    1    1    2    0  502  0.18804872153E+02  0.42554509144E+02 -0.20257229701E+03  0.20784620511E+03  0.00000000000E+00 0. -1.
<mgrwt>
<rscale>  1 0.30000000E+03</rscale>
<asrwt>0</asrwt>
<pdfrwt beam="1">  1       21 0.12074630E-01 0.30000000E+03</pdfrwt>
<pdfrwt beam="2">0</pdfrwt>
<totfact> 0.61277532E+03</totfact>
</mgrwt>
</event>
<event>
 6    1  0.1295671E-001  0.3000000E+03  0.7818608E-02  0.1093470E+00
         21   -1    0    0  501  502  0.00000000000E+00  0.00000000000E+00  0.10867360118E+01  0.10867360118E+01  0.00000000000E+00 0. -1.
         13   -1    0    0    0    0 -0.00000000000E+00 -0.00000000000E+00 -0.10000000000E+04  0.10000000000E+04  0.00000000000E+00 0.  1.
    9000005    2    1    2  501    0 -0.41076995954E+01  0.32620618975E+02 -0.49456928662E+03  0.49567222743E+03  0.33466099799E+01 0.  0.
         13    1    3    3    0    0 -0.32685264662E+01  0.13235050184E+02 -0.19762073886E+03  0.19809039918E+03  0.00000000000E+00 0.  1.
          1    1    3    3  501    0 -0.83917312917E+00  0.19385568792E+02 -0.29694854776E+03  0.29758182825E+03  0.00000000000E+00 0.  1.
         -1    1    1    2    0  502  0.41076995954E+01 -0.32620618975E+02 -0.50434397737E+03  0.50541450858E+03  0.00000000000E+00 0. -1.
<mgrwt>
<rscale>  1 0.30000000E+03</rscale>
<asrwt>0</asrwt>
<pdfrwt beam="1">  1       21 0.39517756E-02 0.30000000E+03</pdfrwt>
<pdfrwt beam="2">0</pdfrwt>
<totfact> 0.42914759E+04</totfact>
</mgrwt>
</event>
<event>
 6    1  0.1295671E-001  0.3000000E+03  0.7818608E-02  0.1093470E+00
         21   -1    0    0  501  502  0.00000000000E+00  0.00000000000E+00  0.96304057529E+00  0.96304057529E+00  0.00000000000E+00 0. -1.
         13   -1    0    0    0    0 -0.00000000000E+00 -0.00000000000E+00 -0.10000000000E+04  0.10000000000E+04  0.00000000000E+00 0.  1.
    9000005    2    1    2  501    0  0.29243693260E+02 -0.91437161245E+01 -0.45955012408E+03  0.46060681858E+03  0.57899602182E+01 0.  0.
         13    1    3    3    0    0  0.12885246755E+01 -0.18874849518E+01 -0.37641774694E+02  0.37711087194E+02  0.00000000000E+00 0.  1.
          3    1    3    3  501    0  0.27955168584E+02 -0.72562311726E+01 -0.42190834939E+03  0.42289573139E+03  0.00000000000E+00 0.  1.
         -3    1    1    2    0  502 -0.29243693260E+02  0.91437161245E+01 -0.53948683534E+03  0.54035622199E+03  0.00000000000E+00 0. -1.
<mgrwt>
<rscale>  1 0.30000000E+03</rscale>
<asrwt>0</asrwt>
<pdfrwt beam="1">  1       21 0.35019731E-02 0.30000000E+03</pdfrwt>
<pdfrwt beam="2">0</pdfrwt>
<totfact> 0.52567175E+04</totfact>
</mgrwt>
</event>
<event>
 6    1  0.1295671E-001  0.3000000E+03  0.7818608E-02  0.1093470E+00
         21   -1    0    0  501  502  0.00000000000E+00  0.00000000000E+00  0.91691611026E+00  0.91691611026E+00  0.00000000000E+00 0. -1.
         13   -1    0    0    0    0 -0.00000000000E+00 -0.00000000000E+00 -0.10000000000E+04  0.10000000000E+04  0.00000000000E+00 0.  1.
    9000005    2    1    2  501    0 -0.26450428096E+02 -0.14161050055E+02 -0.43705432377E+03  0.43808791216E+03  0.20919775793E+01 0.  0.
         13    1    3    3    0    0 -0.24294262031E+02 -0.12353592480E+02 -0.39887001523E+03  0.39980008938E+03  0.00000000000E+00 0.  1.
          3    1    3    3  501    0 -0.21561660652E+01 -0.18074575740E+01 -0.38184308537E+02  0.38287822782E+02  0.00000000000E+00 0.  1.
         -1    1    1    2    0  502  0.26450428096E+02  0.14161050055E+02 -0.56202876012E+03  0.56282900395E+03  0.00000000000E+00 0. -1.
<mgrwt>
<rscale>  1 0.30000000E+03</rscale>
<asrwt>0</asrwt>
<pdfrwt beam="1">  1       21 0.33342474E-02 0.30000000E+03</pdfrwt>
<pdfrwt beam="2">0</pdfrwt>
<totfact> 0.57062008E+04</totfact>
</mgrwt>
</event>
<event>
 6    1  0.1295671E-001  0.3000000E+03  0.7818608E-02  0.1093470E+00
         21   -1    0    0  501  502  0.00000000000E+00  0.00000000000E+00  0.15358245800E+01  0.15358245800E+01  0.00000000000E+00 0. -1.
         13   -1    0    0    0    0 -0.00000000000E+00 -0.00000000000E+00 -0.10000000000E+04  0.10000000000E+04  0.00000000000E+00 0.  1.
    9000005    2    1    2  501    0  0.27589004020E+02  0.12622845497E+02 -0.81571082662E+03  0.81628120016E+03  0.32180271686E+01 0.  0.
         13    1    3    3    0    0  0.48226933043E+01  0.27472472207E+01 -0.18218014500E+03  0.18226467286E+03  0.00000000000E+00 0.  1.
          3    1    3    3  501    0  0.22766310716E+02  0.98755982761E+01 -0.63353068162E+03  0.63401652731E+03  0.00000000000E+00 0.  1.
         -1    1    1    2    0  502 -0.27589004020E+02 -0.12622845497E+02 -0.18275334880E+03  0.18525462442E+03  0.00000000000E+00 0. -1.
<mgrwt>
<rscale>  1 0.30000000E+03</rscale>
<asrwt>0</asrwt>
<pdfrwt beam="1">  1       21 0.55848284E-02 0.30000000E+03</pdfrwt>
<pdfrwt beam="2">0</pdfrwt>
<totfact> 0.23839840E+04</totfact>
</mgrwt>
</event>
<event>
 6    1  0.1295671E-001  0.3000000E+03  0.7818608E-02  0.1093470E+00
         21   -1    0    0  501  502  0.00000000000E+00  0.00000000000E+00  0.16610722045E+01  0.16610722045E+01  0.00000000000E+00 0. -1.
         13   -1    0    0    0    0 -0.00000000000E+00 -0.00000000000E+00 -0.10000000000E+04  0.10000000000E+04  0.00000000000E+00 0.  1.
    9000005    2    1    2  501    0 -0.32995134260E+02  0.17135389441E+02 -0.70375340516E+03  0.70473864024E+03  0.23227827552E+01 0.  0.
         13    1    3    3    0    0 -0.27261305161E+02  0.13294488149E+02 -0.58207712827E+03  0.58286679905E+03  0.00000000000E+00 0.  1.
          3    1    3    3  501    0 -0.57338290985E+01  0.38409012920E+01 -0.12167627689E+03  0.12187184119E+03  0.00000000000E+00 0.  1.
         -1    1    1    2    0  502  0.32995134260E+02 -0.17135389441E+02 -0.29458552264E+03  0.29692243197E+03  0.00000000000E+00 0. -1.
<mgrwt>
<rscale>  1 0.30000000E+03</rscale>
<asrwt>0</asrwt>
<pdfrwt beam="1">  1       21 0.60402753E-02 0.30000000E+03</pdfrwt>
<pdfrwt beam="2">0</pdfrwt>
<totfact> 0.20829904E+04</totfact>
</mgrwt>
</event>
<event>
 6    1  0.1295671E-001  0.3000000E+03  0.7818608E-02  0.1093470E+00
         21   -1    0    0  501  502  0.00000000000E+00  0.00000000000E+00  0.44753193197E+01  0.44753193197E+01  0.00000000000E+00 0. -1.
         13   -1    0    0    0    0 -0.00000000000E+00 -0.00000000000E+00 -0.10000000000E+04  0.10000000000E+04  0.00000000000E+00 0.  1.
    9000005    2    1    2  501    0 -0.67478022665E+00 -0.61406237423E+02 -0.69631753001E+03  0.69903121587E+03  0.39187794261E+01 0.  0.
         13    1    3    3    0    0 -0.26845631484E+00 -0.11766389790E+02 -0.15178538129E+03  0.15224099964E+03  0.00000000000E+00 0.  1.
          1    1    3    3  501    0 -0.40632391181E+00 -0.49639847633E+02 -0.54453214872E+03  0.54679021623E+03  0.00000000000E+00 0.  1.
         -3    1    1    2    0  502  0.67478022665E+00  0.61406237423E+02 -0.29920715067E+03  0.30544410345E+03  0.00000000000E+00 0. -1.
<mgrwt>
<rscale>  1 0.30000000E+03</rscale>
<asrwt>0</asrwt>
<pdfrwt beam="1">  1       21 0.16273923E-01 0.30000000E+03</pdfrwt>
<pdfrwt beam="2">0</pdfrwt>
<totfact> 0.35388323E+03</totfact>
</mgrwt>
</event>
<event>
 6    1  0.1295671E-001  0.3000000E+03  0.7818608E-02  0.1093470E+00
         21   -1    0    0  501  502  0.00000000000E+00  0.00000000000E+00  0.11252130774E+01  0.11252130774E+01  0.00000000000E+00 0. -1.
         13   -1    0    0    0    0 -0.00000000000E+00 -0.00000000000E+00 -0.10000000000E+04  0.10000000000E+04  0.00000000000E+00 0.  1.
    9000005    2    1    2  501    0 -0.21543220519E+02 -0.24467227376E+02 -0.61322590882E+03  0.61410090797E+03  0.33398128388E+01 0.  0.
         13    1    3    3    0    0 -0.19516954326E+02 -0.21877711994E+02 -0.53026920578E+03  0.53107906793E+03  0.00000000000E+00 0.  1.
          3    1    3    3  501    0 -0.20262661936E+01 -0.25895153820E+01 -0.82956703043E+02  0.83021840044E+02  0.00000000000E+00 0.  1.
         -3    1    1    2    0  502  0.21543220519E+02  0.24467227376E+02 -0.38564887810E+03  0.38702430511E+03  0.00000000000E+00 0. -1.
<mgrwt>
<rscale>  1 0.30000000E+03</rscale>
<asrwt>0</asrwt>
<pdfrwt beam="1">  1       21 0.40916925E-02 0.30000000E+03</pdfrwt>
<pdfrwt beam="2">0</pdfrwt>
<totfact> 0.40471811E+04</totfact>
</mgrwt>
</event>
<event>
 6    1  0.1295671E-001  0.3000000E+03  0.7818608E-02  0.1093470E+00
         21   -1    0    0  501  502  0.00000000000E+00  0.00000000000E+00  0.40941577278E+01  0.40941577278E+01  0.00000000000E+00 0. -1.
         13   -1    0    0    0    0 -0.00000000000E+00 -0.00000000000E+00 -0.10000000000E+04  0.10000000000E+04  0.00000000000E+00 0.  1.
    9000005    2    1    2  501    0 -0.40472918133E+02  0.23467349980E+00 -0.88669493649E+03  0.88762470201E+03  0.34042684980E+01 0.  0.
         13    1    3    3    0    0 -0.35517767000E+01 -0.38919165502E+00 -0.61114209642E+02  0.61218569144E+02  0.00000000000E+00 0.  1.
          1    1    3    3  501    0 -0.36921141433E+02  0.62386515482E+00 -0.82558072685E+03  0.82640613286E+03  0.00000000000E+00 0.  1.
         -1    1    1    2    0  502  0.40472918133E+02 -0.23467349980E+00 -0.10921090578E+03  0.11646945572E+03  0.00000000000E+00 0. -1.
<mgrwt>
<rscale>  1 0.30000000E+03</rscale>
<asrwt>0</asrwt>
<pdfrwt beam="1">  1       21 0.14887878E-01 0.30000000E+03</pdfrwt>
<pdfrwt beam="2">0</pdfrwt>
<totfact> 0.41755964E+03</totfact>
</mgrwt>
</event>
<event>
 6    1  0.1295671E-001  0.3000000E+03  0.7818608E-02  0.1093470E+00
         21   -1    0    0  501  502  0.00000000000E+00  0.00000000000E+00  0.79229758112E+01  0.79229758112E+01  0.00000000000E+00 0. -1.
         13   -1    0    0    0    0 -0.00000000000E+00 -0.00000000000E+00 -0.10000000000E+04  0.10000000000E+04  0.00000000000E+00 0.  1.
    9000005    2    1    2  501    0 -0.17332154709E+02  0.30892797299E+02 -0.95834255445E+03  0.95900689502E+03  0.43594158377E+01 0.  0.
         13    1    3    3    0    0 -0.11035180996E+02  0.16619698276E+02 -0.57942729176E+03  0.57977062364E+03  0.00000000000E+00 0.  1.
          3    1    3    3  501    0 -0.62969737138E+01  0.14273099023E+02 -0.37891526269E+03  0.37923627138E+03  0.00000000000E+00 0.  1.
         -1    1    1    2    0  502  0.17332154709E+02 -0.30892797299E+02 -0.33734469739E+02  0.48916080796E+02  0.00000000000E+00 0. -1.
<mgrwt>
<rscale>  1 0.30000000E+03</rscale>
<asrwt>0</asrwt>
<pdfrwt beam="1">  1       21 0.28810882E-01 0.30000000E+03</pdfrwt>
<pdfrwt beam="2">0</pdfrwt>
<totfact> 0.11786387E+03</totfact>
</mgrwt>
</event>
<event>
 6    1  0.1295671E-001  0.3000000E+03  0.7818608E-02  0.1093470E+00
         21   -1    0    0  501  502  0.00000000000E+00  0.00000000000E+00  0.15937658681E+01  0.15937658681E+01  0.00000000000E+00 0. -1.
         13   -1    0    0    0    0 -0.00000000000E+00 -0.00000000000E+00 -0.10000000000E+04  0.10000000000E+04  0.00000000000E+00 0.  1.
    9000005    2    1    2  501    0 -0.10346610725E+02 -0.32424598588E+02 -0.23956879490E+03  0.24199343271E+03  0.30343104609E+01 0.  0.
         13    1    3    3    0    0 -0.56345140293E+01 -0.20119509303E+02 -0.13773238334E+03  0.13930811830E+03  0.00000000000E+00 0.  1.
          3    1    3    3  501    0 -0.47120966955E+01 -0.12305089285E+02 -0.10183641156E+03  0.10268531441E+03  0.00000000000E+00 0.  1.
         -3    1    1    2    0  502  0.10346610725E+02  0.32424598588E+02 -0.75883743923E+03  0.75960033315E+03  0.00000000000E+00 0. -1.
<mgrwt>
<rscale>  1 0.30000000E+03</rscale>
<asrwt>0</asrwt>
<pdfrwt beam="1">  1       21 0.57955245E-02 0.30000000E+03</pdfrwt>
<pdfrwt beam="2">0</pdfrwt>
<totfact> 0.22369290E+04</totfact>
</mgrwt>
</event>
<event>
 6    1  0.1295671E-001  0.3000000E+03  0.7818608E-02  0.1093470E+00
         21   -1    0    0  501  502  0.00000000000E+00  0.00000000000E+00  0.14366202063E+01  0.14366202063E+01  0.00000000000E+00 0. -1.
         13   -1    0    0    0    0 -0.00000000000E+00 -0.00000000000E+00 -0.10000000000E+04  0.10000000000E+04  0.00000000000E+00 0.  1.
    9000005    2    1    2  501    0 -0.35705149222E+02 -0.12508564747E+02 -0.48574905264E+03  0.48722863115E+03  0.28766301141E+01 0.  0.
         13    1    3    3    0    0 -0.32746353733E+02 -0.11439976285E+02 -0.45445490856E+03  0.45577676625E+03  0.00000000000E+00 0.  1.
          1    1    3    3  501    0 -0.29587954888E+01 -0.10685884624E+01 -0.31294144084E+02  0.31451864905E+02  0.00000000000E+00 0.  1.
         -1    1    1    2    0  502  0.35705149222E+02  0.12508564747E+02 -0.51281432715E+03  0.51420798905E+03  0.00000000000E+00 0. -1.
<mgrwt>
<rscale>  1 0.30000000E+03</rscale>
<asrwt>0</asrwt>
<pdfrwt beam="1">  1       21 0.52240845E-02 0.30000000E+03</pdfrwt>
<pdfrwt beam="2">0</pdfrwt>
<totfact> 0.26728025E+04</totfact>
</mgrwt>
</event>
<event>
 6    1  0.1295671E-001  0.3000000E+03  0.7818608E-02  0.1093470E+00
         21   -1    0    0  501  502  0.00000000000E+00  0.00000000000E+00  0.12715826668E+01  0.12715826668E+01  0.00000000000E+00 0. -1.
         13   -1    0    0    0    0 -0.00000000000E+00 -0.00000000000E+00 -0.10000000000E+04  0.10000000000E+04  0.00000000000E+00 0.  1.
    9000005    2    1    2  501    0  0.17847527729E+02 -0.25394235404E+02 -0.74088046317E+03  0.74156218949E+03  0.68715891531E+01 0.  0.
         13    1    3    3    0    0  0.27883857962E+01 -0.46571027663E+01 -0.79322785111E+02  0.79508288495E+02  0.00000000000E+00 0.  1.
          3    1    3    3  501    0  0.15059141932E+02 -0.20737132637E+02 -0.66155767806E+03  0.66205390100E+03  0.00000000000E+00 0.  1.
         -1    1    1    2    0  502 -0.17847527729E+02  0.25394235404E+02 -0.25784795416E+03  0.25970939318E+03  0.00000000000E+00 0. -1.
<mgrwt>
<rscale>  1 0.30000000E+03</rscale>
<asrwt>0</asrwt>
<pdfrwt beam="1">  1       21 0.46239467E-02 0.30000000E+03</pdfrwt>
<pdfrwt beam="2">0</pdfrwt>
<totfact> 0.32904209E+04</totfact>
</mgrwt>
</event>
<event>
 6    1  0.1295671E-001  0.3000000E+03  0.7818608E-02  0.1093470E+00
         21   -1    0    0  501  502  0.00000000000E+00  0.00000000000E+00  0.37179633177E+01  0.37179633177E+01  0.00000000000E+00 0. -1.
         13   -1    0    0    0    0 -0.00000000000E+00 -0.00000000000E+00 -0.10000000000E+04  0.10000000000E+04  0.00000000000E+00 0.  1.
    9000005    2    1    2  501    0 -0.30919310839E+02  0.45518226147E+02 -0.71278927400E+03  0.71493420480E+03  0.58698687756E+01 0.  0.
         13    1    3    3    0    0 -0.19407711874E+02  0.29521272429E+02 -0.49216553866E+03  0.49343194288E+03  0.00000000000E+00 0.  1.
          1    1    3    3  501    0 -0.11511598965E+02  0.15996953718E+02 -0.22062373534E+03  0.22150226192E+03  0.00000000000E+00 0.  1.
         -1    1    1    2    0  502  0.30919310839E+02 -0.45518226147E+02 -0.28349276268E+03  0.28878375852E+03  0.00000000000E+00 0. -1.
<mgrwt>
<rscale>  1 0.30000000E+03</rscale>
<asrwt>0</asrwt>
<pdfrwt beam="1">  1       21 0.13519895E-01 0.30000000E+03</pdfrwt>
<pdfrwt beam="2">0</pdfrwt>
<totfact> 0.49858353E+03</totfact>
</mgrwt>
</event>
<event>
 6    1  0.1295671E-001  0.3000000E+03  0.7818608E-02  0.1093470E+00
         21   -1    0    0  501  502  0.00000000000E+00  0.00000000000E+00  0.51013132062E+01  0.51013132062E+01  0.00000000000E+00 0. -1.
         13   -1    0    0    0    0 -0.00000000000E+00 -0.00000000000E+00 -0.10000000000E+04  0.10000000000E+04  0.00000000000E+00 0.  1.
    9000005    2    1    2  501    0 -0.53494317015E+02  0.16963783639E+02 -0.80808032997E+03  0.81003591301E+03  0.38663638629E+01 0.  0.
         13    1    3    3    0    0 -0.44952930745E+02  0.13648817485E+02 -0.65628335041E+03  0.65796268301E+03  0.00000000000E+00 0.  1.
          1    1    3    3  501    0 -0.85413862693E+01  0.33149661546E+01 -0.15179697956E+03  0.15207323000E+03  0.00000000000E+00 0.  1.
         -3    1    1    2    0  502  0.53494317015E+02 -0.16963783639E+02 -0.18681835682E+03  0.19506540020E+03  0.00000000000E+00 0. -1.
<mgrwt>
<rscale>  1 0.30000000E+03</rscale>
<asrwt>0</asrwt>
<pdfrwt beam="1">  1       21 0.18550269E-01 0.30000000E+03</pdfrwt>
<pdfrwt beam="2">0</pdfrwt>
<totfact> 0.27677661E+03</totfact>
</mgrwt>
</event>
<event>
 6    1  0.1295671E-001  0.3000000E+03  0.7818608E-02  0.1093470E+00
         21   -1    0    0  501  502  0.00000000000E+00  0.00000000000E+00  0.34492670170E+01  0.34492670170E+01  0.00000000000E+00 0. -1.
         13   -1    0    0    0    0 -0.00000000000E+00 -0.00000000000E+00 -0.10000000000E+04  0.10000000000E+04  0.00000000000E+00 0.  1.
    9000005    2    1    2  501    0  0.38625275364E+02 -0.96622388491E+01 -0.86698968420E+03  0.86790836501E+03  0.29234876330E+01 0.  0.
         13    1    3    3    0    0  0.22866335269E+02 -0.69946348791E+01 -0.50380702097E+03  0.50437417518E+03  0.00000000000E+00 0.  1.
          3    1    3    3  501    0  0.15758940095E+02 -0.26676039700E+01 -0.36318266323E+03  0.36353418983E+03  0.00000000000E+00 0.  1.
         -1    1    1    2    0  502 -0.38625275364E+02  0.96622388491E+01 -0.12956104878E+03  0.13554090201E+03  0.00000000000E+00 0. -1.
<mgrwt>
<rscale>  1 0.30000000E+03</rscale>
<asrwt>0</asrwt>
<pdfrwt beam="1">  1       21 0.12542816E-01 0.30000000E+03</pdfrwt>
<pdfrwt beam="2">0</pdfrwt>
<totfact> 0.57179677E+03</totfact>
</mgrwt>
</event>
<event>
 6    1  0.1295671E-001  0.3000000E+03  0.7818608E-02  0.1093470E+00
         21   -1    0    0  501  502  0.00000000000E+00  0.00000000000E+00  0.13469488066E+01  0.13469488066E+01  0.00000000000E+00 0. -1.
         13   -1    0    0    0    0 -0.00000000000E+00 -0.00000000000E+00 -0.10000000000E+04  0.10000000000E+04  0.00000000000E+00 0.  1.
    9000005    2    1    2  501    0 -0.24123424263E+02 -0.19402599258E+02 -0.76745131607E+03  0.76808177185E+03  0.31121143810E+01 0.  0.
         13    1    3    3    0    0 -0.42911752262E+01 -0.33212295675E+01 -0.10778141689E+03  0.10791792519E+03  0.00000000000E+00 0.  1.
          3    1    3    3  501    0 -0.19832249037E+02 -0.16081369690E+02 -0.65966989917E+03  0.66016384665E+03  0.00000000000E+00 0.  1.
         -3    1    1    2    0  502  0.24123424263E+02  0.19402599258E+02 -0.23120173513E+03  0.23326517696E+03  0.00000000000E+00 0. -1.
<mgrwt>
<rscale>  1 0.30000000E+03</rscale>
<asrwt>0</asrwt>
<pdfrwt beam="1">  1       21 0.48980060E-02 0.30000000E+03</pdfrwt>
<pdfrwt beam="2">0</pdfrwt>
<totfact> 0.29834148E+04</totfact>
</mgrwt>
</event>
<event>
 6    1  0.1295671E-001  0.3000000E+03  0.7818608E-02  0.1093470E+00
         21   -1    0    0  501  502  0.00000000000E+00  0.00000000000E+00  0.24814296347E+01  0.24814296347E+01  0.00000000000E+00 0. -1.
         13   -1    0    0    0    0 -0.00000000000E+00 -0.00000000000E+00 -0.10000000000E+04  0.10000000000E+04  0.00000000000E+00 0.  1.
    9000005    2    1    2  501    0  0.32956151131E+02  0.29373051067E+02 -0.26826855409E+03  0.27189641044E+03  0.32797672492E+01 0.  0.
         13    1    3    3    0    0  0.28999095565E+02  0.24890767039E+02 -0.22633290050E+03  0.22953666303E+03  0.00000000000E+00 0.  1.
          3    1    3    3  501    0  0.39570555659E+01  0.44822840283E+01 -0.41935653591E+02  0.42359747414E+02  0.00000000000E+00 0.  1.
         -3    1    1    2    0  502 -0.32956151131E+02 -0.29373051067E+02 -0.72925001628E+03  0.73058501919E+03  0.00000000000E+00 0. -1.
<mgrwt>
<rscale>  1 0.30000000E+03</rscale>
<asrwt>0</asrwt>
<pdfrwt beam="1">  1       21 0.90233995E-02 0.30000000E+03</pdfrwt>
<pdfrwt beam="2">0</pdfrwt>
<totfact> 0.10330452E+04</totfact>
</mgrwt>
</event>
<event>
 6    1  0.1295671E-001  0.3000000E+03  0.7818608E-02  0.1093470E+00
         21   -1    0    0  501  502  0.00000000000E+00  0.00000000000E+00  0.12118266881E+01  0.12118266881E+01  0.00000000000E+00 0. -1.
         13   -1    0    0    0    0 -0.00000000000E+00 -0.00000000000E+00 -0.10000000000E+04  0.10000000000E+04  0.00000000000E+00 0.  1.
    9000005    2    1    2  501    0  0.32289824084E+01 -0.31474990984E+02 -0.70607165496E+03  0.70679025564E+03  0.37659180789E+01 0.  0.
         13    1    3    3    0    0  0.35255185154E+01 -0.20966380645E+02 -0.44679605982E+03  0.44730161801E+03  0.00000000000E+00 0.  1.
          1    1    3    3  501    0 -0.29653610707E+00 -0.10508610339E+02 -0.25927559514E+03  0.25948863763E+03  0.00000000000E+00 0.  1.
         -3    1    1    2    0  502 -0.32289824084E+01  0.31474990984E+02 -0.29271651835E+03  0.29442157105E+03  0.00000000000E+00 0. -1.
<mgrwt>
<rscale>  1 0.30000000E+03</rscale>
<asrwt>0</asrwt>
<pdfrwt beam="1">  1       21 0.44066518E-02 0.30000000E+03</pdfrwt>
<pdfrwt beam="2">0</pdfrwt>
<totfact> 0.35704915E+04</totfact>
</mgrwt>
</event>
<event>
 6    1  0.1295671E-001  0.3000000E+03  0.7818608E-02  0.1093470E+00
         21   -1    0    0  501  502  0.00000000000E+00  0.00000000000E+00  0.37350513572E+01  0.37350513572E+01  0.00000000000E+00 0. -1.
         13   -1    0    0    0    0 -0.00000000000E+00 -0.00000000000E+00 -0.10000000000E+04  0.10000000000E+04  0.00000000000E+00 0.  1.
    9000005    2    1    2  501    0 -0.69209327846E+00  0.55548348320E+02 -0.70626777421E+03  0.70846490526E+03  0.47175322626E+01 0.  0.
         13    1    3    3    0    0  0.18891320536E+01  0.32627950546E+02 -0.40950060237E+03  0.41080274502E+03  0.00000000000E+00 0.  1.
          3    1    3    3  501    0 -0.25812253321E+01  0.22920397775E+02 -0.29676717183E+03  0.29766216024E+03  0.00000000000E+00 0.  1.
         -1    1    1    2    0  502  0.69209327846E+00 -0.55548348320E+02 -0.28999717444E+03  0.29527014610E+03  0.00000000000E+00 0. -1.
<mgrwt>
<rscale>  1 0.30000000E+03</rscale>
<asrwt>0</asrwt>
<pdfrwt beam="1">  1       21 0.13582034E-01 0.30000000E+03</pdfrwt>
<pdfrwt beam="2">0</pdfrwt>
<totfact> 0.49441254E+03</totfact>
</mgrwt>
</event>
<event>
 6    1  0.1295671E-001  0.3000000E+03  0.7818608E-02  0.1093470E+00
         21   -1    0    0  501  502  0.00000000000E+00  0.00000000000E+00  0.16265114524E+01  0.16265114524E+01  0.00000000000E+00 0. -1.
         13   -1    0    0    0    0 -0.00000000000E+00 -0.00000000000E+00 -0.10000000000E+04  0.10000000000E+04  0.00000000000E+00 0.  1.
    9000005    2    1    2  501    0  0.23467260058E+02  0.26705894748E+02 -0.26731094107E+03  0.26970003602E+03  0.43649864344E+01 0.  0.
         13    1    3    3    0    0  0.10066127107E+02  0.98786311386E+01 -0.92132754822E+02  0.93206001841E+02  0.00000000000E+00 0.  1.
          1    1    3    3  501    0  0.13401132951E+02  0.16827263610E+02 -0.17517818625E+03  0.17649403418E+03  0.00000000000E+00 0.  1.
         -3    1    1    2    0  502 -0.23467260058E+02 -0.26705894748E+02 -0.73106254748E+03  0.73192647543E+03  0.00000000000E+00 0. -1.
<mgrwt>
<rscale>  1 0.30000000E+03</rscale>
<asrwt>0</asrwt>
<pdfrwt beam="1">  1       21 0.59145996E-02 0.30000000E+03</pdfrwt>
<pdfrwt beam="2">0</pdfrwt>
<totfact> 0.21598985E+04</totfact>
</mgrwt>
</event>
<event>
 6    1  0.1295671E-001  0.3000000E+03  0.7818608E-02  0.1093470E+00
         21   -1    0    0  501  502  0.00000000000E+00  0.00000000000E+00  0.97925624364E+00  0.97925624364E+00  0.00000000000E+00 0. -1.
         13   -1    0    0    0    0 -0.00000000000E+00 -0.00000000000E+00 -0.10000000000E+04  0.10000000000E+04  0.00000000000E+00 0.  1.
    9000005    2    1    2  501    0  0.25397759561E+02  0.17418298763E+02 -0.58071010102E+03  0.58153648643E+03  0.34670304404E+01 0.  0.
         13    1    3    3    0    0  0.56688263445E+01  0.23361501221E+01 -0.10569415941E+03  0.10587184953E+03  0.00000000000E+00 0.  1.
          1    1    3    3  501    0  0.19728933216E+02  0.15082148641E+02 -0.47501594161E+03  0.47566463690E+03  0.00000000000E+00 0.  1.
         -1    1    1    2    0  502 -0.25397759561E+02 -0.17418298763E+02 -0.41831064273E+03  0.41944276981E+03  0.00000000000E+00 0. -1.
<mgrwt>
<rscale>  1 0.30000000E+03</rscale>
<asrwt>0</asrwt>
<pdfrwt beam="1">  1       21 0.35609393E-02 0.30000000E+03</pdfrwt>
<pdfrwt beam="2">0</pdfrwt>
<totfact> 0.51116826E+04</totfact>
</mgrwt>
</event>
<event>
 6    1  0.1295671E-001  0.3000000E+03  0.7818608E-02  0.1093470E+00
         21   -1    0    0  501  502  0.00000000000E+00  0.00000000000E+00  0.60663747432E+01  0.60663747432E+01  0.00000000000E+00 0. -1.
         13   -1    0    0    0    0 -0.00000000000E+00 -0.00000000000E+00 -0.10000000000E+04  0.10000000000E+04  0.00000000000E+00 0.  1.
    9000005    2    1    2  501    0  0.26812186593E+02  0.38608869556E+02 -0.89801123746E+03  0.89924576512E+03  0.30373237018E+01 0.  0.
         13    1    3    3    0    0  0.22569710217E+02  0.34212762791E+02 -0.78688954310E+03  0.78795625386E+03  0.00000000000E+00 0.  1.
          1    1    3    3  501    0  0.42424763757E+01  0.43961067650E+01 -0.11112169435E+03  0.11128951126E+03  0.00000000000E+00 0.  1.
         -1    1    1    2    0  502 -0.26812186593E+02 -0.38608869556E+02 -0.95922387800E+02  0.10682060962E+03  0.00000000000E+00 0. -1.
<mgrwt>
<rscale>  1 0.30000000E+03</rscale>
<asrwt>0</asrwt>
<pdfrwt beam="1">  1       21 0.22059591E-01 0.30000000E+03</pdfrwt>
<pdfrwt beam="2">0</pdfrwt>
<totfact> 0.19882098E+03</totfact>
</mgrwt>
</event>
<event>
 6    1  0.1295671E-001  0.3000000E+03  0.7818608E-02  0.1093470E+00
         21   -1    0    0  501  502  0.00000000000E+00  0.00000000000E+00  0.36762382225E+01  0.36762382225E+01  0.00000000000E+00 0. -1.
         13   -1    0    0    0    0 -0.00000000000E+00 -0.00000000000E+00 -0.10000000000E+04  0.10000000000E+04  0.00000000000E+00 0.  1.
    9000005    2    1    2  501    0 -0.31547789892E+02  0.46724505724E+02 -0.31638383161E+03  0.32140301501E+03  0.47672495639E+01 0.  0.
         13    1    3    3    0    0 -0.20463288530E+02  0.33689454536E+02 -0.21424885477E+03  0.21784466322E+03  0.00000000000E+00 0.  1.
          1    1    3    3  501    0 -0.11084501361E+02  0.13035051188E+02 -0.10213497684E+03  0.10355835178E+03  0.00000000000E+00 0.  1.
         -3    1    1    2    0  502  0.31547789892E+02 -0.46724505724E+02 -0.67993993017E+03  0.68227322322E+03  0.00000000000E+00 0. -1.
<mgrwt>
<rscale>  1 0.30000000E+03</rscale>
<asrwt>0</asrwt>
<pdfrwt beam="1">  1       21 0.13368167E-01 0.30000000E+03</pdfrwt>
<pdfrwt beam="2">0</pdfrwt>
<totfact> 0.50899285E+03</totfact>
</mgrwt>
</event>
<event>
 6    1  0.1295671E-001  0.3000000E+03  0.7818608E-02  0.1093470E+00
         21   -1    0    0  501  502  0.00000000000E+00  0.00000000000E+00  0.11116734739E+01  0.11116734739E+01  0.00000000000E+00 0. -1.
         13   -1    0    0    0    0 -0.00000000000E+00 -0.00000000000E+00 -0.10000000000E+04  0.10000000000E+04  0.00000000000E+00 0.  1.
    9000005    2    1    2  501    0  0.28270417591E+02  0.17196681237E+02 -0.46271900490E+03  0.46392224338E+03  0.44752705723E+01 0.  0.
         13    1    3    3    0    0  0.11248006820E+02  0.54522503168E+01 -0.14981364093E+03  0.15033420003E+03  0.00000000000E+00 0.  1.
          1    1    3    3  501    0  0.17022410772E+02  0.11744430921E+02 -0.31290536397E+03  0.31358804334E+03  0.00000000000E+00 0.  1.
         -3    1    1    2    0  502 -0.28270417591E+02 -0.17196681237E+02 -0.53616932163E+03  0.53718943010E+03  0.00000000000E+00 0. -1.
<mgrwt>
<rscale>  1 0.30000000E+03</rscale>
<asrwt>0</asrwt>
<pdfrwt beam="1">  1       21 0.40424575E-02 0.30000000E+03</pdfrwt>
<pdfrwt beam="2">0</pdfrwt>
<totfact> 0.41306099E+04</totfact>
</mgrwt>
</event>
<event>
 6    1  0.1295671E-001  0.3000000E+03  0.7818608E-02  0.1093470E+00
         21   -1    0    0  501  502  0.00000000000E+00  0.00000000000E+00  0.29101858764E+01  0.29101858764E+01  0.00000000000E+00 0. -1.
         13   -1    0    0    0    0 -0.00000000000E+00 -0.00000000000E+00 -0.10000000000E+04  0.10000000000E+04  0.00000000000E+00 0.  1.
    9000005    2    1    2  501    0 -0.42280744156E+02 -0.31284259421E+02 -0.60843732408E+03  0.61071492299E+03  0.32208095635E+01 0.  0.
         13    1    3    3    0    0 -0.43850122502E+01 -0.45270735609E+01 -0.70996813934E+02  0.71276015014E+02  0.00000000000E+00 0.  1.
          1    1    3    3  501    0 -0.37895731906E+02 -0.26757185860E+02 -0.53744051015E+03  0.53943890798E+03  0.00000000000E+00 0.  1.
         -3    1    1    2    0  502  0.42280744156E+02  0.31284259421E+02 -0.38865249004E+03  0.39219526289E+03  0.00000000000E+00 0. -1.
<mgrwt>
<rscale>  1 0.30000000E+03</rscale>
<asrwt>0</asrwt>
<pdfrwt beam="1">  1       21 0.10582516E-01 0.30000000E+03</pdfrwt>
<pdfrwt beam="2">0</pdfrwt>
<totfact> 0.77739826E+03</totfact>
</mgrwt>
</event>
<event>
 6    1  0.1295671E-001  0.3000000E+03  0.7818608E-02  0.1093470E+00
         21   -1    0    0  501  502  0.00000000000E+00  0.00000000000E+00  0.16169076129E+01  0.16169076129E+01  0.00000000000E+00 0. -1.
         13   -1    0    0    0    0 -0.00000000000E+00 -0.00000000000E+00 -0.10000000000E+04  0.10000000000E+04  0.00000000000E+00 0.  1.
    9000005    2    1    2  501    0  0.10152261015E+02 -0.29517176046E+02 -0.81374855040E+03  0.81436241186E+03  0.50102379700E+01 0.  0.
         13    1    3    3    0    0  0.13021219960E+01 -0.11132290984E+02 -0.28472071805E+03  0.28494124080E+03  0.00000000000E+00 0.  1.
          3    1    3    3  501    0  0.88501390190E+01 -0.18384885062E+02 -0.52902783235E+03  0.52942117106E+03  0.00000000000E+00 0.  1.
         -3    1    1    2    0  502 -0.10152261015E+02  0.29517176046E+02 -0.18463454199E+03  0.18725449576E+03  0.00000000000E+00 0. -1.
<mgrwt>
<rscale>  1 0.30000000E+03</rscale>
<asrwt>0</asrwt>
<pdfrwt beam="1">  1       21 0.58796764E-02 0.30000000E+03</pdfrwt>
<pdfrwt beam="2">0</pdfrwt>
<totfact> 0.21820570E+04</totfact>
</mgrwt>
</event>
<event>
 6    1  0.1295671E-001  0.3000000E+03  0.7818608E-02  0.1093470E+00
         21   -1    0    0  501  502  0.00000000000E+00  0.00000000000E+00  0.22377223923E+01  0.22377223923E+01  0.00000000000E+00 0. -1.
         13   -1    0    0    0    0 -0.00000000000E+00 -0.00000000000E+00 -0.10000000000E+04  0.10000000000E+04  0.00000000000E+00 0.  1.
    9000005    2    1    2  501    0 -0.16118172934E+02 -0.27173737694E+02 -0.87142687443E+03  0.87201160514E+03  0.46080905061E+01 0.  0.
         13    1    3    3    0    0 -0.31024414727E+00 -0.26688498229E+01 -0.92650066922E+02  0.92689017211E+02  0.00000000000E+00 0.  1.
          3    1    3    3  501    0 -0.15807928787E+02 -0.24504887871E+02 -0.77877680751E+03  0.77932258793E+03  0.00000000000E+00 0.  1.
         -3    1    1    2    0  502  0.16118172934E+02  0.27173737694E+02 -0.12633540318E+03  0.13022611725E+03  0.00000000000E+00 0. -1.
<mgrwt>
<rscale>  1 0.30000000E+03</rscale>
<asrwt>0</asrwt>
<pdfrwt beam="1">  1       21 0.81371895E-02 0.30000000E+03</pdfrwt>
<pdfrwt beam="2">0</pdfrwt>
<totfact> 0.12397826E+04</totfact>
</mgrwt>
</event>
<event>
 6    1  0.1295671E-001  0.3000000E+03  0.7818608E-02  0.1093470E+00
         21   -1    0    0  501  502  0.00000000000E+00  0.00000000000E+00  0.19924645255E+01  0.19924645255E+01  0.00000000000E+00 0. -1.
         13   -1    0    0    0    0 -0.00000000000E+00 -0.00000000000E+00 -0.10000000000E+04  0.10000000000E+04  0.00000000000E+00 0.  1.
    9000005    2    1    2  501    0  0.11281349289E+02 -0.38175164613E+02 -0.27542012638E+03  0.27830940142E+03  0.39070285310E+01 0.  0.
         13    1    3    3    0    0  0.27799414723E+01 -0.16186012804E+02 -0.11275723986E+03  0.11394696234E+03  0.00000000000E+00 0.  1.
          3    1    3    3  501    0  0.85014078164E+01 -0.21989151809E+02 -0.16266288651E+03  0.16436243908E+03  0.00000000000E+00 0.  1.
         -1    1    1    2    0  502 -0.11281349289E+02  0.38175164613E+02 -0.72258740910E+03  0.72368306310E+03  0.00000000000E+00 0. -1.
<mgrwt>
<rscale>  1 0.30000000E+03</rscale>
<asrwt>0</asrwt>
<pdfrwt beam="1">  1       21 0.72453408E-02 0.30000000E+03</pdfrwt>
<pdfrwt beam="2">0</pdfrwt>
<totfact> 0.15195043E+04</totfact>
</mgrwt>
</event>
<event>
 6    1  0.1295671E-001  0.3000000E+03  0.7818608E-02  0.1093470E+00
         21   -1    0    0  501  502  0.00000000000E+00  0.00000000000E+00  0.12735396812E+01  0.12735396812E+01  0.00000000000E+00 0. -1.
         13   -1    0    0    0    0 -0.00000000000E+00 -0.00000000000E+00 -0.10000000000E+04  0.10000000000E+04  0.00000000000E+00 0.  1.
    9000005    2    1    2  501    0  0.26976595715E+02  0.20994523112E+02 -0.64045318250E+03  0.64137320860E+03  0.32874019733E+01 0.  0.
         13    1    3    3    0    0  0.59212058683E+01  0.59669779390E+01 -0.17492935746E+03  0.17513122396E+03  0.00000000000E+00 0.  1.
          3    1    3    3  501    0  0.21055389847E+02  0.15027545173E+02 -0.46552382504E+03  0.46624198464E+03  0.00000000000E+00 0.  1.
         -1    1    1    2    0  502 -0.26976595715E+02 -0.20994523112E+02 -0.35827327782E+03  0.35990033108E+03  0.00000000000E+00 0. -1.
<mgrwt>
<rscale>  1 0.30000000E+03</rscale>
<asrwt>0</asrwt>
<pdfrwt beam="1">  1       21 0.46310632E-02 0.30000000E+03</pdfrwt>
<pdfrwt beam="2">0</pdfrwt>
<totfact> 0.32818334E+04</totfact>
</mgrwt>
</event>
<event>
 6    1  0.1295671E-001  0.3000000E+03  0.7818608E-02  0.1093470E+00
         21   -1    0    0  501  502  0.00000000000E+00  0.00000000000E+00  0.33851758303E+01  0.33851758303E+01  0.00000000000E+00 0. -1.
         13   -1    0    0    0    0 -0.00000000000E+00 -0.00000000000E+00 -0.10000000000E+04  0.10000000000E+04  0.00000000000E+00 0.  1.
    9000005    2    1    2  501    0  0.20202844361E+02 -0.25123320586E+02 -0.91584819174E+03  0.91642205105E+03  0.34826972156E+01 0.  0.
         13    1    3    3    0    0  0.14761187603E+01 -0.15600124096E+01 -0.89844640720E+02  0.89870306728E+02  0.00000000000E+00 0.  1.
          1    1    3    3  501    0  0.18726725600E+02 -0.23563308177E+02 -0.82600355102E+03  0.82655174432E+03  0.00000000000E+00 0.  1.
         -1    1    1    2    0  502 -0.20202844361E+02  0.25123320586E+02 -0.80766632432E+02  0.86963124783E+02  0.00000000000E+00 0. -1.
<mgrwt>
<rscale>  1 0.30000000E+03</rscale>
<asrwt>0</asrwt>
<pdfrwt beam="1">  1       21 0.12309756E-01 0.30000000E+03</pdfrwt>
<pdfrwt beam="2">0</pdfrwt>
<totfact> 0.59166043E+03</totfact>
</mgrwt>
</event>
<event>
 6    1  0.1295671E-001  0.3000000E+03  0.7818608E-02  0.1093470E+00
         21   -1    0    0  501  502  0.00000000000E+00  0.00000000000E+00  0.98000517769E+00  0.98000517769E+00  0.00000000000E+00 0. -1.
         13   -1    0    0    0    0 -0.00000000000E+00 -0.00000000000E+00 -0.10000000000E+04  0.10000000000E+04  0.00000000000E+00 0.  1.
    9000005    2    1    2  501    0 -0.30238560310E+02  0.69580287197E+01 -0.55466479767E+03  0.55554277511E+03  0.34572402813E+01 0.  0.
         13    1    3    3    0    0 -0.77888014319E+01  0.10367008313E+01 -0.16486756300E+03  0.16505469853E+03  0.00000000000E+00 0.  1.
          1    1    3    3  501    0 -0.22449758878E+02  0.59213278884E+01 -0.38979723467E+03  0.39048807658E+03  0.00000000000E+00 0.  1.
         -1    1    1    2    0  502  0.30238560310E+02 -0.69580287197E+01 -0.44435519715E+03  0.44543723007E+03  0.00000000000E+00 0. -1.
<mgrwt>
<rscale>  1 0.30000000E+03</rscale>
<asrwt>0</asrwt>
<pdfrwt beam="1">  1       21 0.35636627E-02 0.30000000E+03</pdfrwt>
<pdfrwt beam="2">0</pdfrwt>
<totfact> 0.51051354E+04</totfact>
</mgrwt>
</event>
<event>
 6    1  0.1295671E-001  0.3000000E+03  0.7818608E-02  0.1093470E+00
         21   -1    0    0  501  502  0.00000000000E+00  0.00000000000E+00  0.10025304499E+01  0.10025304499E+01  0.00000000000E+00 0. -1.
         13   -1    0    0    0    0 -0.00000000000E+00 -0.00000000000E+00 -0.10000000000E+04  0.10000000000E+04  0.00000000000E+00 0.  1.
    9000005    2    1    2  501    0  0.26159821041E+02  0.17306558064E+02 -0.55967937056E+03  0.56056610451E+03  0.30832633983E+01 0.  0.
         13    1    3    3    0    0  0.40751855485E+01  0.16318675218E+01 -0.89156888277E+02  0.89264891508E+02  0.00000000000E+00 0.  1.
          3    1    3    3  501    0  0.22084635492E+02  0.15674690542E+02 -0.47052248228E+03  0.47130121301E+03  0.00000000000E+00 0.  1.
         -1    1    1    2    0  502 -0.26159821041E+02 -0.17306558064E+02 -0.43931809899E+03  0.44043642594E+03  0.00000000000E+00 0. -1.
<mgrwt>
<rscale>  1 0.30000000E+03</rscale>
<asrwt>0</asrwt>
<pdfrwt beam="1">  1       21 0.36455730E-02 0.30000000E+03</pdfrwt>
<pdfrwt beam="2">0</pdfrwt>
<totfact> 0.49142405E+04</totfact>
</mgrwt>
</event>
<event>
 6    1  0.1295671E-001  0.3000000E+03  0.7818608E-02  0.1093470E+00
         21   -1    0    0  501  502  0.00000000000E+00  0.00000000000E+00  0.15015181339E+01  0.15015181339E+01  0.00000000000E+00 0. -1.
         13   -1    0    0    0    0 -0.00000000000E+00 -0.00000000000E+00 -0.10000000000E+04  0.10000000000E+04  0.00000000000E+00 0.  1.
    9000005    2    1    2  501    0  0.34291567860E+02 -0.17051457592E+02 -0.57052279706E+03  0.57181576014E+03  0.32152377624E+01 0.  0.
         13    1    3    3    0    0  0.15144654694E+02 -0.57714334774E+01 -0.23766372481E+03  0.23821569239E+03  0.00000000000E+00 0.  1.
          3    1    3    3  501    0  0.19146913166E+02 -0.11280024115E+02 -0.33285907225E+03  0.33360006776E+03  0.00000000000E+00 0.  1.
         -1    1    1    2    0  502 -0.34291567860E+02  0.17051457592E+02 -0.42797568481E+03  0.42968575799E+03  0.00000000000E+00 0. -1.
<mgrwt>
<rscale>  1 0.30000000E+03</rscale>
<asrwt>0</asrwt>
<pdfrwt beam="1">  1       21 0.54600775E-02 0.30000000E+03</pdfrwt>
<pdfrwt beam="2">0</pdfrwt>
<totfact> 0.24781706E+04</totfact>
</mgrwt>
</event>
<event>
 6    1  0.1295671E-001  0.3000000E+03  0.7818608E-02  0.1093470E+00
         21   -1    0    0  501  502  0.00000000000E+00  0.00000000000E+00  0.14186566862E+01  0.14186566862E+01  0.00000000000E+00 0. -1.
         13   -1    0    0    0    0 -0.00000000000E+00 -0.00000000000E+00 -0.10000000000E+04  0.10000000000E+04  0.00000000000E+00 0.  1.
    9000005    2    1    2  501    0  0.21598728370E+02 -0.22209475101E+02 -0.78339064987E+03  0.78400936434E+03  0.31634199108E+01 0.  0.
         13    1    3    3    0    0  0.91675489373E+01 -0.82102765136E+01 -0.27870172292E+03  0.27897330150E+03  0.00000000000E+00 0.  1.
          3    1    3    3  501    0  0.12431179433E+02 -0.13999198588E+02 -0.50468892695E+03  0.50503606284E+03  0.00000000000E+00 0.  1.
         -1    1    1    2    0  502 -0.21598728370E+02  0.22209475101E+02 -0.21519069344E+03  0.21740929234E+03  0.00000000000E+00 0. -1.
<mgrwt>
<rscale>  1 0.30000000E+03</rscale>
<asrwt>0</asrwt>
<pdfrwt beam="1">  1       21 0.51587625E-02 0.30000000E+03</pdfrwt>
<pdfrwt beam="2">0</pdfrwt>
<totfact> 0.27308726E+04</totfact>
</mgrwt>
</event>
<event>
 6    1  0.1295671E-001  0.3000000E+03  0.7818608E-02  0.1093470E+00
         21   -1    0    0  501  502  0.00000000000E+00  0.00000000000E+00  0.19320682919E+01  0.19320682919E+01  0.00000000000E+00 0. -1.
         13   -1    0    0    0    0 -0.00000000000E+00 -0.00000000000E+00 -0.10000000000E+04  0.10000000000E+04  0.00000000000E+00 0.  1.
    9000005    2    1    2  501    0  0.41143963792E+02  0.46054969628E+01 -0.66250002313E+03  0.66381987149E+03  0.60419184652E+01 0.  0.
         13    1    3    3    0    0  0.14176767373E+02 -0.11562435951E+01 -0.21192674020E+03  0.21240353303E+03  0.00000000000E+00 0.  1.
          3    1    3    3  501    0  0.26967196420E+02  0.57617405579E+01 -0.45057328293E+03  0.45141633846E+03  0.00000000000E+00 0.  1.
         -1    1    1    2    0  502 -0.41143963792E+02 -0.46054969628E+01 -0.33556790858E+03  0.33811219680E+03  0.00000000000E+00 0. -1.
<mgrwt>
<rscale>  1 0.30000000E+03</rscale>
<asrwt>0</asrwt>
<pdfrwt beam="1">  1       21 0.70257177E-02 0.30000000E+03</pdfrwt>
<pdfrwt beam="2">0</pdfrwt>
<totfact> 0.16032621E+04</totfact>
</mgrwt>
</event>
<event>
 6    1  0.1295671E-001  0.3000000E+03  0.7818608E-02  0.1093470E+00
         21   -1    0    0  501  502  0.00000000000E+00  0.00000000000E+00  0.22087821202E+01  0.22087821202E+01  0.00000000000E+00 0. -1.
         13   -1    0    0    0    0 -0.00000000000E+00 -0.00000000000E+00 -0.10000000000E+04  0.10000000000E+04  0.00000000000E+00 0.  1.
    9000005    2    1    2  501    0  0.46151901324E+02 -0.52103015317E+01 -0.57229281728E+03  0.57418304206E+03  0.31546545537E+01 0.  0.
         13    1    3    3    0    0  0.41109544643E+02 -0.55566801451E+01 -0.50554422820E+03  0.50724337159E+03  0.00000000000E+00 0.  1.
          1    1    3    3  501    0  0.50423566810E+01  0.34637861348E+00 -0.66748589081E+02  0.66939670475E+02  0.00000000000E+00 0.  1.
         -3    1    1    2    0  502 -0.46151901324E+02  0.52103015317E+01 -0.42549840060E+03  0.42802574006E+03  0.00000000000E+00 0. -1.
<mgrwt>
<rscale>  1 0.30000000E+03</rscale>
<asrwt>0</asrwt>
<pdfrwt beam="1">  1       21 0.80319519E-02 0.30000000E+03</pdfrwt>
<pdfrwt beam="2">0</pdfrwt>
<totfact> 0.12684737E+04</totfact>
</mgrwt>
</event>
<event>
 6    1  0.1295671E-001  0.3000000E+03  0.7818608E-02  0.1093470E+00
         21   -1    0    0  501  502  0.00000000000E+00  0.00000000000E+00  0.74350903074E+01  0.74350903074E+01  0.00000000000E+00 0. -1.
         13   -1    0    0    0    0 -0.00000000000E+00 -0.00000000000E+00 -0.10000000000E+04  0.10000000000E+04  0.00000000000E+00 0.  1.
    9000005    2    1    2  501    0 -0.81742244969E+02  0.79610489193E+01 -0.64913416569E+03  0.65432059210E+03  0.38857789399E+01 0.  0.
         13    1    3    3    0    0 -0.31912184178E+02  0.49139651796E+01 -0.25980182295E+03  0.26180053813E+03  0.00000000000E+00 0.  1.
          1    1    3    3  501    0 -0.49830060791E+02  0.30470837397E+01 -0.38933234273E+03  0.39252005398E+03  0.00000000000E+00 0.  1.
         -3    1    1    2    0  502  0.81742244969E+02 -0.79610489193E+01 -0.34343074401E+03  0.35311449820E+03  0.00000000000E+00 0. -1.
<mgrwt>
<rscale>  1 0.30000000E+03</rscale>
<asrwt>0</asrwt>
<pdfrwt beam="1">  1       21 0.27036749E-01 0.30000000E+03</pdfrwt>
<pdfrwt beam="2">0</pdfrwt>
<totfact> 0.13368811E+03</totfact>
</mgrwt>
</event>
<event>
 6    1  0.1295671E-001  0.3000000E+03  0.7818608E-02  0.1093470E+00
         21   -1    0    0  501  502  0.00000000000E+00  0.00000000000E+00  0.90873342987E+00  0.90873342987E+00  0.00000000000E+00 0. -1.
         13   -1    0    0    0    0 -0.00000000000E+00 -0.00000000000E+00 -0.10000000000E+04  0.10000000000E+04  0.00000000000E+00 0.  1.
    9000005    2    1    2  501    0  0.23198359209E+02 -0.19086975116E+02 -0.52212353872E+03  0.52299588583E+03  0.30381609828E+01 0.  0.
         13    1    3    3    0    0  0.17475912651E+02 -0.15900411341E+02 -0.41601211370E+03  0.41668250426E+03  0.00000000000E+00 0.  1.
          3    1    3    3  501    0  0.57224465574E+01 -0.31865637745E+01 -0.10611142502E+03  0.10631338158E+03  0.00000000000E+00 0.  1.
         -3    1    1    2    0  502 -0.23198359209E+02  0.19086975116E+02 -0.47696772785E+03  0.47791284760E+03  0.00000000000E+00 0. -1.
<mgrwt>
<rscale>  1 0.30000000E+03</rscale>
<asrwt>0</asrwt>
<pdfrwt beam="1">  1       21 0.33044922E-02 0.30000000E+03</pdfrwt>
<pdfrwt beam="2">0</pdfrwt>
<totfact> 0.57921934E+04</totfact>
</mgrwt>
</event>
<event>
 6    1  0.1295671E-001  0.3000000E+03  0.7818608E-02  0.1093470E+00
         21   -1    0    0  501  502  0.00000000000E+00  0.00000000000E+00  0.15274633344E+01  0.15274633344E+01  0.00000000000E+00 0. -1.
         13   -1    0    0    0    0 -0.00000000000E+00 -0.00000000000E+00 -0.10000000000E+04  0.10000000000E+04  0.00000000000E+00 0.  1.
    9000005    2    1    2  501    0 -0.21070875100E+02  0.28133866288E+02 -0.71568631537E+03  0.71656510939E+03  0.48122531300E+01 0.  0.
         13    1    3    3    0    0 -0.18080295174E+02  0.26421512818E+02 -0.65223352974E+03  0.65301881346E+03  0.00000000000E+00 0.  1.
          3    1    3    3  501    0 -0.29905799254E+01  0.17123534701E+01 -0.63452785628E+02  0.63546295932E+02  0.00000000000E+00 0.  1.
         -1    1    1    2    0  502  0.21070875100E+02 -0.28133866288E+02 -0.28278622130E+03  0.28496235394E+03  0.00000000000E+00 0. -1.
<mgrwt>
<rscale>  1 0.30000000E+03</rscale>
<asrwt>0</asrwt>
<pdfrwt beam="1">  1       21 0.55544238E-02 0.30000000E+03</pdfrwt>
<pdfrwt beam="2">0</pdfrwt>
<totfact> 0.24064254E+04</totfact>
</mgrwt>
</event>
<event>
 6    1  0.1295671E-001  0.3000000E+03  0.7818608E-02  0.1093470E+00
         21   -1    0    0  501  502  0.00000000000E+00  0.00000000000E+00  0.34582422218E+01  0.34582422218E+01  0.00000000000E+00 0. -1.
         13   -1    0    0    0    0 -0.00000000000E+00 -0.00000000000E+00 -0.10000000000E+04  0.10000000000E+04  0.00000000000E+00 0.  1.
    9000005    2    1    2  501    0 -0.35906542916E+02 -0.28016029366E+02 -0.81291059779E+03  0.81426368457E+03  0.11292930893E+02 0.  0.
         13    1    3    3    0    0 -0.34833737019E+02 -0.22886361508E+02 -0.72461393465E+03  0.72581163470E+03  0.00000000000E+00 0.  1.
          1    1    3    3  501    0 -0.10728058969E+01 -0.51296678584E+01 -0.88296663142E+02  0.88452049874E+02  0.00000000000E+00 0.  1.
         -3    1    1    2    0  502  0.35906542916E+02  0.28016029366E+02 -0.18363115999E+03  0.18919455765E+03  0.00000000000E+00 0. -1.
<mgrwt>
<rscale>  1 0.30000000E+03</rscale>
<asrwt>0</asrwt>
<pdfrwt beam="1">  1       21 0.12575453E-01 0.30000000E+03</pdfrwt>
<pdfrwt beam="2">0</pdfrwt>
<totfact> 0.56909596E+03</totfact>
</mgrwt>
</event>
<event>
 6    1  0.1295671E-001  0.3000000E+03  0.7818608E-02  0.1093470E+00
         21   -1    0    0  501  502  0.00000000000E+00  0.00000000000E+00  0.22189203280E+01  0.22189203280E+01  0.00000000000E+00 0. -1.
         13   -1    0    0    0    0 -0.00000000000E+00 -0.00000000000E+00 -0.10000000000E+04  0.10000000000E+04  0.00000000000E+00 0.  1.
    9000005    2    1    2  501    0 -0.25739631595E+02 -0.19946636042E+02 -0.86073736363E+03  0.86135949739E+03  0.33132566198E+01 0.  0.
         13    1    3    3    0    0 -0.20253541229E+02 -0.15944875685E+02 -0.64362392746E+03  0.64413989551E+03  0.00000000000E+00 0.  1.
          3    1    3    3  501    0 -0.54860903665E+01 -0.40017603572E+01 -0.21711343617E+03  0.21721960188E+03  0.00000000000E+00 0.  1.
         -1    1    1    2    0  502  0.25739631595E+02  0.19946636042E+02 -0.13704371604E+03  0.14085942293E+03  0.00000000000E+00 0. -1.
<mgrwt>
<rscale>  1 0.30000000E+03</rscale>
<asrwt>0</asrwt>
<pdfrwt beam="1">  1       21 0.80688182E-02 0.30000000E+03</pdfrwt>
<pdfrwt beam="2">0</pdfrwt>
<totfact> 0.12583079E+04</totfact>
</mgrwt>
</event>
<event>
 6    1  0.1295671E-001  0.3000000E+03  0.7818608E-02  0.1093470E+00
         21   -1    0    0  501  502  0.00000000000E+00  0.00000000000E+00  0.14265413172E+01  0.14265413172E+01  0.00000000000E+00 0. -1.
         13   -1    0    0    0    0 -0.00000000000E+00 -0.00000000000E+00 -0.10000000000E+04  0.10000000000E+04  0.00000000000E+00 0.  1.
    9000005    2    1    2  501    0  0.89160828193E+01  0.32384415428E+02 -0.27406708694E+03  0.27614195607E+03  0.36557988488E+01 0.  0.
         13    1    3    3    0    0 -0.19118525859E+00  0.19910555357E+01 -0.20551182531E+02  0.20648291875E+02  0.00000000000E+00 0.  1.
          1    1    3    3  501    0  0.91072680778E+01  0.30393359892E+02 -0.25351590440E+03  0.25549366419E+03  0.00000000000E+00 0.  1.
         -1    1    1    2    0  502 -0.89160828193E+01 -0.32384415428E+02 -0.72450637175E+03  0.72528458525E+03  0.00000000000E+00 0. -1.
<mgrwt>
<rscale>  1 0.30000000E+03</rscale>
<asrwt>0</asrwt>
<pdfrwt beam="1">  1       21 0.51874339E-02 0.30000000E+03</pdfrwt>
<pdfrwt beam="2">0</pdfrwt>
<totfact> 0.27051456E+04</totfact>
</mgrwt>
</event>
<event>
 6    1  0.1295671E-001  0.3000000E+03  0.7818608E-02  0.1093470E+00
         21   -1    0    0  501  502  0.00000000000E+00  0.00000000000E+00  0.28215459227E+01  0.28215459227E+01  0.00000000000E+00 0. -1.
         13   -1    0    0    0    0 -0.00000000000E+00 -0.00000000000E+00 -0.10000000000E+04  0.10000000000E+04  0.00000000000E+00 0.  1.
    9000005    2    1    2  501    0 -0.21676206521E+02  0.25124431692E+02 -0.88998171166E+03  0.89060641066E+03  0.33521073220E+01 0.  0.
         13    1    3    3    0    0 -0.97497489751E+01  0.13688199728E+02 -0.43236164202E+03  0.43268812545E+03  0.00000000000E+00 0.  1.
          3    1    3    3  501    0 -0.11926457546E+02  0.11436231964E+02 -0.45762006964E+03  0.45791828521E+03  0.00000000000E+00 0.  1.
         -1    1    1    2    0  502  0.21676206521E+02 -0.25124431692E+02 -0.10719674241E+03  0.11221513526E+03  0.00000000000E+00 0. -1.
<mgrwt>
<rscale>  1 0.30000000E+03</rscale>
<asrwt>0</asrwt>
<pdfrwt beam="1">  1       21 0.10260189E-01 0.30000000E+03</pdfrwt>
<pdfrwt beam="2">0</pdfrwt>
<totfact> 0.82169635E+03</totfact>
</mgrwt>
</event>
<event>
 6    1  0.1295671E-001  0.3000000E+03  0.7818608E-02  0.1093470E+00
         21   -1    0    0  501  502  0.00000000000E+00  0.00000000000E+00  0.26021077853E+01  0.26021077853E+01  0.00000000000E+00 0. -1.
         13   -1    0    0    0    0 -0.00000000000E+00 -0.00000000000E+00 -0.10000000000E+04  0.10000000000E+04  0.00000000000E+00 0.  1.
    9000005    2    1    2  501    0 -0.26500960622E+02 -0.39722161751E+02 -0.67346399055E+03  0.67516765068E+03  0.41783869393E+01 0.  0.
         13    1    3    3    0    0 -0.12668793669E+02 -0.20387944366E+02 -0.36566809199E+03  0.36645507243E+03  0.00000000000E+00 0.  1.
          1    1    3    3  501    0 -0.13832166952E+02 -0.19334217385E+02 -0.30779589856E+03  0.30871257826E+03  0.00000000000E+00 0.  1.
         -3    1    1    2    0  502  0.26500960622E+02  0.39722161751E+02 -0.32393390167E+03  0.32743445710E+03  0.00000000000E+00 0. -1.
<mgrwt>
<rscale>  1 0.30000000E+03</rscale>
<asrwt>0</asrwt>
<pdfrwt beam="1">  1       21 0.94622301E-02 0.30000000E+03</pdfrwt>
<pdfrwt beam="2">0</pdfrwt>
<totfact> 0.94948501E+03</totfact>
</mgrwt>
</event>
<event>
 6    1  0.1295671E-001  0.3000000E+03  0.7818608E-02  0.1093470E+00
         21   -1    0    0  501  502  0.00000000000E+00  0.00000000000E+00  0.12088725413E+01  0.12088725413E+01  0.00000000000E+00 0. -1.
         13   -1    0    0    0    0 -0.00000000000E+00 -0.00000000000E+00 -0.10000000000E+04  0.10000000000E+04  0.00000000000E+00 0.  1.
    9000005    2    1    2  501    0 -0.17881288474E+01  0.33865163216E+02 -0.39449308639E+03  0.39596002362E+03  0.30819489048E+01 0.  0.
         13    1    3    3    0    0 -0.27556493904E+00  0.19700240317E+01 -0.16189194752E+02  0.16310945939E+02  0.00000000000E+00 0.  1.
          1    1    3    3  501    0 -0.15125639083E+01  0.31895139184E+02 -0.37830389164E+03  0.37964907768E+03  0.00000000000E+00 0.  1.
         -3    1    1    2    0  502  0.17881288474E+01 -0.33865163216E+02 -0.60429804107E+03  0.60524884892E+03  0.00000000000E+00 0. -1.
<mgrwt>
<rscale>  1 0.30000000E+03</rscale>
<asrwt>0</asrwt>
<pdfrwt beam="1">  1       21 0.43959094E-02 0.30000000E+03</pdfrwt>
<pdfrwt beam="2">0</pdfrwt>
<totfact> 0.35852847E+04</totfact>
</mgrwt>
</event>
<event>
 6    1  0.1295671E-001  0.3000000E+03  0.7818608E-02  0.1093470E+00
         21   -1    0    0  501  502  0.00000000000E+00  0.00000000000E+00  0.23698563166E+01  0.23698563166E+01  0.00000000000E+00 0. -1.
         13   -1    0    0    0    0 -0.00000000000E+00 -0.00000000000E+00 -0.10000000000E+04  0.10000000000E+04  0.00000000000E+00 0.  1.
    9000005    2    1    2  501    0 -0.20757250800E+02  0.28623014245E+02 -0.84294882026E+03  0.84369896351E+03  0.38842064683E+01 0.  0.
         13    1    3    3    0    0 -0.14794689054E+02  0.18504663951E+02 -0.59692185702E+03  0.59739183858E+03  0.00000000000E+00 0.  1.
          1    1    3    3  501    0 -0.59625617462E+01  0.10118350294E+02 -0.24602696324E+03  0.24630712494E+03  0.00000000000E+00 0.  1.
         -3    1    1    2    0  502  0.20757250800E+02 -0.28623014245E+02 -0.15468132343E+03  0.15867089280E+03  0.00000000000E+00 0. -1.
<mgrwt>
<rscale>  1 0.30000000E+03</rscale>
<asrwt>0</asrwt>
<pdfrwt beam="1">  1       21 0.86176775E-02 0.30000000E+03</pdfrwt>
<pdfrwt beam="2">0</pdfrwt>
<totfact> 0.11206102E+04</totfact>
</mgrwt>
</event>
<event>
 6    1  0.1295671E-001  0.3000000E+03  0.7818608E-02  0.1093470E+00
         21   -1    0    0  501  502  0.00000000000E+00  0.00000000000E+00  0.17683145954E+02  0.17683145954E+02  0.00000000000E+00 0. -1.
         13   -1    0    0    0    0 -0.00000000000E+00 -0.00000000000E+00 -0.10000000000E+04  0.10000000000E+04  0.00000000000E+00 0.  1.
    9000005    2    1    2  501    0  0.78663473060E+02 -0.95101390131E+02 -0.68035114230E+03  0.69146924762E+03  0.44527710913E+01 0.  0.
         13    1    3    3    0    0  0.32278521656E+02 -0.35800017552E+02 -0.26163149130E+03  0.26603492526E+03  0.00000000000E+00 0.  1.
          1    1    3    3  501    0  0.46384951404E+02 -0.59301372579E+02 -0.41871965100E+03  0.42543432236E+03  0.00000000000E+00 0.  1.
         -3    1    1    2    0  502 -0.78663473060E+02  0.95101390131E+02 -0.30196571174E+03  0.32621389834E+03  0.00000000000E+00 0. -1.
<mgrwt>
<rscale>  1 0.30000000E+03</rscale>
<asrwt>0</asrwt>
<pdfrwt beam="1">  1       21 0.64302485E-01 0.30000000E+03</pdfrwt>
<pdfrwt beam="2">0</pdfrwt>
<totfact> 0.21465279E+02</totfact>
</mgrwt>
</event>
<event>
 6    1  0.1295671E-001  0.3000000E+03  0.7818608E-02  0.1093470E+00
         21   -1    0    0  501  502  0.00000000000E+00  0.00000000000E+00  0.16915471597E+01  0.16915471597E+01  0.00000000000E+00 0. -1.
         13   -1    0    0    0    0 -0.00000000000E+00 -0.00000000000E+00 -0.10000000000E+04  0.10000000000E+04  0.00000000000E+00 0.  1.
    9000005    2    1    2  501    0 -0.26491251567E+02 -0.29312403692E+02 -0.63624599839E+03  0.63747976215E+03  0.32362415662E+01 0.  0.
         13    1    3    3    0    0 -0.73046574934E+01 -0.10301984587E+02 -0.19889031280E+03  0.19929085637E+03  0.00000000000E+00 0.  1.
          3    1    3    3  501    0 -0.19186594074E+02 -0.19010419105E+02 -0.43735568560E+03  0.43818890578E+03  0.00000000000E+00 0.  1.
         -1    1    1    2    0  502  0.26491251567E+02  0.29312403692E+02 -0.36206245445E+03  0.36421178501E+03  0.00000000000E+00 0. -1.
<mgrwt>
<rscale>  1 0.30000000E+03</rscale>
<asrwt>0</asrwt>
<pdfrwt beam="1">  1       21 0.61510936E-02 0.30000000E+03</pdfrwt>
<pdfrwt beam="2">0</pdfrwt>
<totfact> 0.20186512E+04</totfact>
</mgrwt>
</event>
<event>
 6    1  0.1295671E-001  0.3000000E+03  0.7818608E-02  0.1093470E+00
         21   -1    0    0  501  502  0.00000000000E+00  0.00000000000E+00  0.18192927283E+01  0.18192927283E+01  0.00000000000E+00 0. -1.
         13   -1    0    0    0    0 -0.00000000000E+00 -0.00000000000E+00 -0.10000000000E+04  0.10000000000E+04  0.00000000000E+00 0.  1.
    9000005    2    1    2  501    0  0.35796090580E+02  0.72911356943E+01 -0.75699504822E+03  0.75788273767E+03  0.31969158766E+01 0.  0.
         13    1    3    3    0    0  0.50062654130E+00 -0.27332289352E+00 -0.10570003010E+02  0.10585381239E+02  0.00000000000E+00 0.  1.
          3    1    3    3  501    0  0.35295464038E+02  0.75644585879E+01 -0.74642504521E+03  0.74729735643E+03  0.00000000000E+00 0.  1.
         -1    1    1    2    0  502 -0.35796090580E+02 -0.72911356943E+01 -0.24118565905E+03  0.24393655506E+03  0.00000000000E+00 0. -1.
<mgrwt>
<rscale>  1 0.30000000E+03</rscale>
<asrwt>0</asrwt>
<pdfrwt beam="1">  1       21 0.66156239E-02 0.30000000E+03</pdfrwt>
<pdfrwt beam="2">0</pdfrwt>
<totfact> 0.17798033E+04</totfact>
</mgrwt>
</event>
<event>
 6    1  0.1295671E-001  0.3000000E+03  0.7818608E-02  0.1093470E+00
         21   -1    0    0  501  502  0.00000000000E+00  0.00000000000E+00  0.10250165420E+01  0.10250165420E+01  0.00000000000E+00 0. -1.
         13   -1    0    0    0    0 -0.00000000000E+00 -0.00000000000E+00 -0.10000000000E+04  0.10000000000E+04  0.00000000000E+00 0.  1.
    9000005    2    1    2  501    0  0.18152165160E+02  0.25663837833E+02 -0.41475405340E+03  0.41595901276E+03  0.35835465697E+01 0.  0.
         13    1    3    3    0    0  0.18220752404E+02  0.25604065079E+02 -0.40945507401E+03  0.41065925243E+03  0.00000000000E+00 0.  1.
          3    1    3    3  501    0 -0.68587244142E-01  0.59772754052E-01 -0.52989793896E+01  0.52997603308E+01  0.00000000000E+00 0.  1.
         -1    1    1    2    0  502 -0.18152165160E+02 -0.25663837833E+02 -0.58422093005E+03  0.58506600378E+03  0.00000000000E+00 0. -1.
<mgrwt>
<rscale>  1 0.30000000E+03</rscale>
<asrwt>0</asrwt>
<pdfrwt beam="1">  1       21 0.37273407E-02 0.30000000E+03</pdfrwt>
<pdfrwt beam="2">0</pdfrwt>
<totfact> 0.47346659E+04</totfact>
</mgrwt>
</event>
<event>
 6    1  0.1295671E-001  0.3000000E+03  0.7818608E-02  0.1093470E+00
         21   -1    0    0  501  502  0.00000000000E+00  0.00000000000E+00  0.14577688477E+01  0.14577688477E+01  0.00000000000E+00 0. -1.
         13   -1    0    0    0    0 -0.00000000000E+00 -0.00000000000E+00 -0.10000000000E+04  0.10000000000E+04  0.00000000000E+00 0.  1.
    9000005    2    1    2  501    0  0.34676392706E+02 -0.14717980680E+02 -0.43040360385E+03  0.43207163361E+03  0.44230304308E+01 0.  0.
         13    1    3    3    0    0  0.34220311120E+02 -0.13845772482E+02 -0.41616094528E+03  0.41779500653E+03  0.00000000000E+00 0.  1.
          3    1    3    3  501    0  0.45608158552E+00 -0.87220819753E+00 -0.14242658568E+02  0.14276627075E+02  0.00000000000E+00 0.  1.
         -1    1    1    2    0  502 -0.34676392706E+02  0.14717980680E+02 -0.56813862730E+03  0.56938613524E+03  0.00000000000E+00 0. -1.
<mgrwt>
<rscale>  1 0.30000000E+03</rscale>
<asrwt>0</asrwt>
<pdfrwt beam="1">  1       21 0.53009888E-02 0.30000000E+03</pdfrwt>
<pdfrwt beam="2">0</pdfrwt>
<totfact> 0.26068545E+04</totfact>
</mgrwt>
</event>
<event>
 6    1  0.1295671E-001  0.3000000E+03  0.7818608E-02  0.1093470E+00
         21   -1    0    0  501  502  0.00000000000E+00  0.00000000000E+00  0.14544231237E+01  0.14544231237E+01  0.00000000000E+00 0. -1.
         13   -1    0    0    0    0 -0.00000000000E+00 -0.00000000000E+00 -0.10000000000E+04  0.10000000000E+04  0.00000000000E+00 0.  1.
    9000005    2    1    2  501    0 -0.56071554123E+01 -0.30630969919E+02 -0.78762732918E+03  0.78824981782E+03  0.33569505859E+01 0.  0.
         13    1    3    3    0    0 -0.36526538438E+01 -0.21884970676E+02 -0.59648118076E+03  0.59689370312E+03  0.00000000000E+00 0.  1.
          1    1    3    3  501    0 -0.19545015685E+01 -0.87459992428E+01 -0.19114614842E+03  0.19135611471E+03  0.00000000000E+00 0.  1.
         -3    1    1    2    0  502  0.56071554123E+01  0.30630969919E+02 -0.21091824770E+03  0.21320460530E+03  0.00000000000E+00 0. -1.
<mgrwt>
<rscale>  1 0.30000000E+03</rscale>
<asrwt>0</asrwt>
<pdfrwt beam="1">  1       21 0.52888225E-02 0.30000000E+03</pdfrwt>
<pdfrwt beam="2">0</pdfrwt>
<totfact> 0.26171187E+04</totfact>
</mgrwt>
</event>
<event>
 6    1  0.1295671E-001  0.3000000E+03  0.7818608E-02  0.1093470E+00
         21   -1    0    0  501  502  0.00000000000E+00  0.00000000000E+00  0.11947313104E+01  0.11947313104E+01  0.00000000000E+00 0. -1.
         13   -1    0    0    0    0 -0.00000000000E+00 -0.00000000000E+00 -0.10000000000E+04  0.10000000000E+04  0.00000000000E+00 0.  1.
    9000005    2    1    2  501    0  0.89470643354E+01 -0.28718232361E+02 -0.74417596337E+03  0.74479490690E+03  0.40990311526E+01 0.  0.
         13    1    3    3    0    0  0.48140701108E+01 -0.11883575943E+02 -0.27478525759E+03  0.27508422790E+03  0.00000000000E+00 0.  1.
          3    1    3    3  501    0  0.41329942247E+01 -0.16834656419E+02 -0.46939070577E+03  0.46971067900E+03  0.00000000000E+00 0.  1.
         -3    1    1    2    0  502 -0.89470643354E+01  0.28718232361E+02 -0.25462930532E+03  0.25639982441E+03  0.00000000000E+00 0. -1.
<mgrwt>
<rscale>  1 0.30000000E+03</rscale>
<asrwt>0</asrwt>
<pdfrwt beam="1">  1       21 0.43444867E-02 0.30000000E+03</pdfrwt>
<pdfrwt beam="2">0</pdfrwt>
<totfact> 0.36574296E+04</totfact>
</mgrwt>
</event>
<event>
 6    1  0.1295671E-001  0.3000000E+03  0.7818608E-02  0.1093470E+00
         21   -1    0    0  501  502  0.00000000000E+00  0.00000000000E+00  0.27060310249E+01  0.27060310249E+01  0.00000000000E+00 0. -1.
         13   -1    0    0    0    0 -0.00000000000E+00 -0.00000000000E+00 -0.10000000000E+04  0.10000000000E+04  0.00000000000E+00 0.  1.
    9000005    2    1    2  501    0  0.17029341959E+02 -0.29162735888E+02 -0.87981812975E+03  0.88047249858E+03  0.33787081634E+01 0.  0.
         13    1    3    3    0    0  0.13457268271E+02 -0.23187429416E+02 -0.66039509351E+03  0.66093905505E+03  0.00000000000E+00 0.  1.
          3    1    3    3  501    0  0.35720736886E+01 -0.59753064725E+01 -0.21942303623E+03  0.21953344353E+03  0.00000000000E+00 0.  1.
         -3    1    1    2    0  502 -0.17029341959E+02  0.29162735888E+02 -0.11747583923E+03  0.12223353245E+03  0.00000000000E+00 0. -1.
<mgrwt>
<rscale>  1 0.30000000E+03</rscale>
<asrwt>0</asrwt>
<pdfrwt beam="1">  1       21 0.98401336E-02 0.30000000E+03</pdfrwt>
<pdfrwt beam="2">0</pdfrwt>
<totfact> 0.88544198E+03</totfact>
</mgrwt>
</event>
<event>
 6    1  0.1295671E-001  0.3000000E+03  0.7818608E-02  0.1093470E+00
         21   -1    0    0  501  502  0.00000000000E+00  0.00000000000E+00  0.12872339907E+01  0.12872339907E+01  0.00000000000E+00 0. -1.
         13   -1    0    0    0    0 -0.00000000000E+00 -0.00000000000E+00 -0.10000000000E+04  0.10000000000E+04  0.00000000000E+00 0.  1.
    9000005    2    1    2  501    0 -0.12422698568E+02  0.27608170766E+02 -0.76693121526E+03  0.76753689324E+03  0.35859466288E+01 0.  0.
         13    1    3    3    0    0 -0.84203244530E+01  0.17734134539E+02 -0.45370981688E+03  0.45413434061E+03  0.00000000000E+00 0.  1.
          3    1    3    3  501    0 -0.40023741154E+01  0.98740362275E+01 -0.31322139838E+03  0.31340255263E+03  0.00000000000E+00 0.  1.
         -1    1    1    2    0  502  0.12422698568E+02 -0.27608170766E+02 -0.23178155075E+03  0.23375034075E+03  0.00000000000E+00 0. -1.
<mgrwt>
<rscale>  1 0.30000000E+03</rscale>
<asrwt>0</asrwt>
<pdfrwt beam="1">  1       21 0.46808607E-02 0.30000000E+03</pdfrwt>
<pdfrwt beam="2">0</pdfrwt>
<totfact> 0.32227127E+04</totfact>
</mgrwt>
</event>
<event>
 6    1  0.1295671E-001  0.3000000E+03  0.7818608E-02  0.1093470E+00
         21   -1    0    0  501  502  0.00000000000E+00  0.00000000000E+00  0.12875870348E+01  0.12875870348E+01  0.00000000000E+00 0. -1.
         13   -1    0    0    0    0 -0.00000000000E+00 -0.00000000000E+00 -0.10000000000E+04  0.10000000000E+04  0.00000000000E+00 0.  1.
    9000005    2    1    2  501    0 -0.23868384515E+02 -0.22363427841E+02 -0.69874084067E+03  0.69953807689E+03  0.67034261388E+01 0.  0.
         13    1    3    3    0    0 -0.16193740319E+02 -0.11177220882E+02 -0.38095474473E+03  0.38146256045E+03  0.00000000000E+00 0.  1.
          3    1    3    3  501    0 -0.76746441963E+01 -0.11186206959E+02 -0.31778609593E+03  0.31807551644E+03  0.00000000000E+00 0.  1.
         -1    1    1    2    0  502  0.23868384515E+02  0.22363427841E+02 -0.29997157230E+03  0.30174951014E+03  0.00000000000E+00 0. -1.
<mgrwt>
<rscale>  1 0.30000000E+03</rscale>
<asrwt>0</asrwt>
<pdfrwt beam="1">  1       21 0.46821445E-02 0.30000000E+03</pdfrwt>
<pdfrwt beam="2">0</pdfrwt>
<totfact> 0.32212107E+04</totfact>
</mgrwt>
</event>
<event>
 6    1  0.1295671E-001  0.3000000E+03  0.7818608E-02  0.1093470E+00
         21   -1    0    0  501  502  0.00000000000E+00  0.00000000000E+00  0.90835781615E+01  0.90835781615E+01  0.00000000000E+00 0. -1.
         13   -1    0    0    0    0 -0.00000000000E+00 -0.00000000000E+00 -0.10000000000E+04  0.10000000000E+04  0.00000000000E+00 0.  1.
    9000005    2    1    2  501    0 -0.28492170146E+02  0.29233710771E+02 -0.95136247943E+03  0.95224232584E+03  0.29096833148E+01 0.  0.
         13    1    3    3    0    0 -0.23525364237E+02  0.23847770324E+02 -0.75354654126E+03  0.75429075876E+03  0.00000000000E+00 0.  1.
          1    1    3    3  501    0 -0.49668059090E+01  0.53859404472E+01 -0.19781593817E+03  0.19795156708E+03  0.00000000000E+00 0.  1.
         -3    1    1    2    0  502  0.28492170146E+02 -0.29233710771E+02 -0.39553942412E+02  0.56841252321E+02  0.00000000000E+00 0. -1.
<mgrwt>
<rscale>  1 0.30000000E+03</rscale>
<asrwt>0</asrwt>
<pdfrwt beam="1">  1       21 0.33031263E-01 0.30000000E+03</pdfrwt>
<pdfrwt beam="2">0</pdfrwt>
<totfact> 0.89549295E+02</totfact>
</mgrwt>
</event>
<event>
 6    1  0.1295671E-001  0.3000000E+03  0.7818608E-02  0.1093470E+00
         21   -1    0    0  501  502  0.00000000000E+00  0.00000000000E+00  0.18042501340E+01  0.18042501340E+01  0.00000000000E+00 0. -1.
         13   -1    0    0    0    0 -0.00000000000E+00 -0.00000000000E+00 -0.10000000000E+04  0.10000000000E+04  0.00000000000E+00 0.  1.
    9000005    2    1    2  501    0  0.23665174870E+02 -0.29609613246E+02 -0.72423606571E+03  0.72523476837E+03  0.32894809742E+01 0.  0.
         13    1    3    3    0    0  0.87831113500E+01 -0.85300523884E+01 -0.23379487059E+03  0.23411524161E+03  0.00000000000E+00 0.  1.
          3    1    3    3  501    0  0.14882063520E+02 -0.21079560857E+02 -0.49044119512E+03  0.49111952676E+03  0.00000000000E+00 0.  1.
         -3    1    1    2    0  502 -0.23665174870E+02  0.29609613246E+02 -0.27395968416E+03  0.27656948176E+03  0.00000000000E+00 0. -1.
<mgrwt>
<rscale>  1 0.30000000E+03</rscale>
<asrwt>0</asrwt>
<pdfrwt beam="1">  1       21 0.65609234E-02 0.30000000E+03</pdfrwt>
<pdfrwt beam="2">0</pdfrwt>
<totfact> 0.18055946E+04</totfact>
</mgrwt>
</event>
<event>
 6    1  0.1295671E-001  0.3000000E+03  0.7818608E-02  0.1093470E+00
         21   -1    0    0  501  502  0.00000000000E+00  0.00000000000E+00  0.13261324600E+01  0.13261324600E+01  0.00000000000E+00 0. -1.
         13   -1    0    0    0    0 -0.00000000000E+00 -0.00000000000E+00 -0.10000000000E+04  0.10000000000E+04  0.00000000000E+00 0.  1.
    9000005    2    1    2  501    0 -0.68280129095E+01 -0.32815756603E+02 -0.69340711941E+03  0.69422471085E+03  0.33196781491E+01 0.  0.
         13    1    3    3    0    0 -0.42682612913E+01 -0.20870380233E+02 -0.47268007954E+03  0.47315985503E+03  0.00000000000E+00 0.  1.
          3    1    3    3  501    0 -0.25597516182E+01 -0.11945376370E+02 -0.22072703988E+03  0.22106485582E+03  0.00000000000E+00 0.  1.
         -1    1    1    2    0  502  0.68280129095E+01  0.32815756603E+02 -0.30526674813E+03  0.30710142161E+03  0.00000000000E+00 0. -1.
<mgrwt>
<rscale>  1 0.30000000E+03</rscale>
<asrwt>0</asrwt>
<pdfrwt beam="1">  1       21 0.48223100E-02 0.30000000E+03</pdfrwt>
<pdfrwt beam="2">0</pdfrwt>
<totfact> 0.30635827E+04</totfact>
</mgrwt>
</event>
<event>
 6    1  0.1295671E-001  0.3000000E+03  0.7818608E-02  0.1093470E+00
         21   -1    0    0  501  502  0.00000000000E+00  0.00000000000E+00  0.21093410496E+01  0.21093410496E+01  0.00000000000E+00 0. -1.
         13   -1    0    0    0    0 -0.00000000000E+00 -0.00000000000E+00 -0.10000000000E+04  0.10000000000E+04  0.00000000000E+00 0.  1.
    9000005    2    1    2  501    0  0.40898648618E+02  0.68352206395E+01 -0.71355899332E+03  0.71476996718E+03  0.32014565017E+01 0.  0.
         13    1    3    3    0    0  0.39640724583E+02  0.60504747921E+01 -0.68560158159E+03  0.68677326969E+03  0.00000000000E+00 0.  1.
          3    1    3    3  501    0  0.12579240352E+01  0.78474584739E+00 -0.27957411738E+02  0.27996697484E+02  0.00000000000E+00 0.  1.
         -1    1    1    2    0  502 -0.40898648618E+02 -0.68352206395E+01 -0.28433166563E+03  0.28733937387E+03  0.00000000000E+00 0. -1.
<mgrwt>
<rscale>  1 0.30000000E+03</rscale>
<asrwt>0</asrwt>
<pdfrwt beam="1">  1       21 0.76703473E-02 0.30000000E+03</pdfrwt>
<pdfrwt beam="2">0</pdfrwt>
<totfact> 0.13752624E+04</totfact>
</mgrwt>
</event>
<event>
 6    1  0.1295671E-001  0.3000000E+03  0.7818608E-02  0.1093470E+00
         21   -1    0    0  501  502  0.00000000000E+00  0.00000000000E+00  0.15225372188E+01  0.15225372188E+01  0.00000000000E+00 0. -1.
         13   -1    0    0    0    0 -0.00000000000E+00 -0.00000000000E+00 -0.10000000000E+04  0.10000000000E+04  0.00000000000E+00 0.  1.
    9000005    2    1    2  501    0  0.33563877968E+02 -0.52296130774E+01 -0.25535547672E+03  0.25762458123E+03  0.31816042592E+01 0.  0.
         13    1    3    3    0    0  0.30841764371E+02 -0.54650028335E+01 -0.23020070904E+03  0.23232186106E+03  0.00000000000E+00 0.  1.
          3    1    3    3  501    0  0.27221135979E+01  0.23538975607E+00 -0.25154767685E+02  0.25302720171E+02  0.00000000000E+00 0.  1.
         -3    1    1    2    0  502 -0.33563877968E+02  0.52296130774E+01 -0.74312198606E+03  0.74389795599E+03  0.00000000000E+00 0. -1.
<mgrwt>
<rscale>  1 0.30000000E+03</rscale>
<asrwt>0</asrwt>
<pdfrwt beam="1">  1       21 0.55365107E-02 0.30000000E+03</pdfrwt>
<pdfrwt beam="2">0</pdfrwt>
<totfact> 0.24197994E+04</totfact>
</mgrwt>
</event>
<event>
 6    1  0.1295671E-001  0.3000000E+03  0.7818608E-02  0.1093470E+00
         21   -1    0    0  501  502  0.00000000000E+00  0.00000000000E+00  0.28884638751E+01  0.28884638751E+01  0.00000000000E+00 0. -1.
         13   -1    0    0    0    0 -0.00000000000E+00 -0.00000000000E+00 -0.10000000000E+04  0.10000000000E+04  0.00000000000E+00 0.  1.
    9000005    2    1    2  501    0  0.44807055995E+02 -0.17419310043E+02 -0.72214446280E+03  0.72375051224E+03  0.33277902317E+01 0.  0.
         13    1    3    3    0    0  0.18044676471E+02 -0.75062278839E+01 -0.31738546895E+03  0.31798661876E+03  0.00000000000E+00 0.  1.
          3    1    3    3  501    0  0.26762379524E+02 -0.99130821589E+01 -0.40475899385E+03  0.40576389348E+03  0.00000000000E+00 0.  1.
         -1    1    1    2    0  502 -0.44807055995E+02  0.17419310043E+02 -0.27496707333E+03  0.27913795164E+03  0.00000000000E+00 0. -1.
<mgrwt>
<rscale>  1 0.30000000E+03</rscale>
<asrwt>0</asrwt>
<pdfrwt beam="1">  1       21 0.10503527E-01 0.30000000E+03</pdfrwt>
<pdfrwt beam="2">0</pdfrwt>
<totfact> 0.78791236E+03</totfact>
</mgrwt>
</event>
<event>
 6    1  0.1295671E-001  0.3000000E+03  0.7818608E-02  0.1093470E+00
         21   -1    0    0  501  502  0.00000000000E+00  0.00000000000E+00  0.55931256028E+01  0.55931256028E+01  0.00000000000E+00 0. -1.
         13   -1    0    0    0    0 -0.00000000000E+00 -0.00000000000E+00 -0.10000000000E+04  0.10000000000E+04  0.00000000000E+00 0.  1.
    9000005    2    1    2  501    0  0.50436064636E+00  0.66687101618E+02 -0.72447654483E+03  0.72754671451E+03  0.32455942449E+01 0.  0.
         13    1    3    3    0    0  0.10085848847E+01  0.91121049759E+01 -0.93118478031E+02  0.93568684138E+02  0.00000000000E+00 0.  1.
          3    1    3    3  501    0 -0.50422423834E+00  0.57574996642E+02 -0.63135806680E+03  0.63397803037E+03  0.00000000000E+00 0.  1.
         -1    1    1    2    0  502 -0.50436064636E+00 -0.66687101618E+02 -0.26993032956E+03  0.27804641109E+03  0.00000000000E+00 0. -1.
<mgrwt>
<rscale>  1 0.30000000E+03</rscale>
<asrwt>0</asrwt>
<pdfrwt beam="1">  1       21 0.20338681E-01 0.30000000E+03</pdfrwt>
<pdfrwt beam="2">0</pdfrwt>
<totfact> 0.23234716E+03</totfact>
</mgrwt>
</event>
<event>
 6    1  0.1295671E-001  0.3000000E+03  0.7818608E-02  0.1093470E+00
         21   -1    0    0  501  502  0.00000000000E+00  0.00000000000E+00  0.13414844790E+01  0.13414844790E+01  0.00000000000E+00 0. -1.
         13   -1    0    0    0    0 -0.00000000000E+00 -0.00000000000E+00 -0.10000000000E+04  0.10000000000E+04  0.00000000000E+00 0.  1.
    9000005    2    1    2  501    0  0.10424279340E+02  0.30878158746E+02 -0.72676302684E+03  0.72749977280E+03  0.30489281169E+01 0.  0.
         13    1    3    3    0    0  0.82034851872E+01  0.20971728639E+02 -0.52099505554E+03  0.52148150348E+03  0.00000000000E+00 0.  1.
          1    1    3    3  501    0  0.22207941530E+01  0.99064301076E+01 -0.20576797130E+03  0.20601826932E+03  0.00000000000E+00 0.  1.
         -1    1    1    2    0  502 -0.10424279340E+02 -0.30878158746E+02 -0.27189548868E+03  0.27384171168E+03  0.00000000000E+00 0. -1.
<mgrwt>
<rscale>  1 0.30000000E+03</rscale>
<asrwt>0</asrwt>
<pdfrwt beam="1">  1       21 0.48781357E-02 0.30000000E+03</pdfrwt>
<pdfrwt beam="2">0</pdfrwt>
<totfact> 0.30041391E+04</totfact>
</mgrwt>
</event>
<event>
 6    1  0.1295671E-001  0.3000000E+03  0.7818608E-02  0.1093470E+00
         21   -1    0    0  501  502  0.00000000000E+00  0.00000000000E+00  0.71430990938E+01  0.71430990938E+01  0.00000000000E+00 0. -1.
         13   -1    0    0    0    0 -0.00000000000E+00 -0.00000000000E+00 -0.10000000000E+04  0.10000000000E+04  0.00000000000E+00 0.  1.
    9000005    2    1    2  501    0  0.11494011527E+02 -0.50639392111E+02 -0.89369009681E+03  0.89520331453E+03  0.32442053258E+01 0.  0.
         13    1    3    3    0    0  0.91701881069E+01 -0.37540624320E+02 -0.64234479480E+03  0.64350619751E+03  0.00000000000E+00 0.  1.
          1    1    3    3  501    0  0.23238234204E+01 -0.13098767792E+02 -0.25134530201E+03  0.25169711702E+03  0.00000000000E+00 0.  1.
         -1    1    1    2    0  502 -0.11494011527E+02  0.50639392111E+02 -0.99166804097E+02  0.11193978457E+03  0.00000000000E+00 0. -1.
<mgrwt>
<rscale>  1 0.30000000E+03</rscale>
<asrwt>0</asrwt>
<pdfrwt beam="1">  1       21 0.25974961E-01 0.30000000E+03</pdfrwt>
<pdfrwt beam="2">0</pdfrwt>
<totfact> 0.14467571E+03</totfact>
</mgrwt>
</event>
<event>
 6    1  0.1295671E-001  0.3000000E+03  0.7818608E-02  0.1093470E+00
         21   -1    0    0  501  502  0.00000000000E+00  0.00000000000E+00  0.20512880058E+02  0.20512880058E+02  0.00000000000E+00 0. -1.
         13   -1    0    0    0    0 -0.00000000000E+00 -0.00000000000E+00 -0.10000000000E+04  0.10000000000E+04  0.00000000000E+00 0.  1.
    9000005    2    1    2  501    0  0.57695829777E+02 -0.26372661127E+02 -0.94714907899E+03  0.94930842148E+03  0.84128016678E+01 0.  0.
         13    1    3    3    0    0  0.35306163976E+02 -0.19437968177E+02 -0.63837257694E+03  0.63964357795E+03  0.00000000000E+00 0.  1.
          3    1    3    3  501    0  0.22389665802E+02 -0.69346929496E+01 -0.30877650205E+03  0.30966484353E+03  0.00000000000E+00 0.  1.
         -3    1    1    2    0  502 -0.57695829777E+02  0.26372661127E+02 -0.32338040951E+02  0.71204458576E+02  0.00000000000E+00 0. -1.
<mgrwt>
<rscale>  1 0.30000000E+03</rscale>
<asrwt>0</asrwt>
<pdfrwt beam="1">  1       21 0.74592448E-01 0.30000000E+03</pdfrwt>
<pdfrwt beam="2">0</pdfrwt>
<totfact> 0.15200329E+02</totfact>
</mgrwt>
</event>
<event>
 6    1  0.1295671E-001  0.3000000E+03  0.7818608E-02  0.1093470E+00
         21   -1    0    0  501  502  0.00000000000E+00  0.00000000000E+00  0.42855652653E+01  0.42855652653E+01  0.00000000000E+00 0. -1.
         13   -1    0    0    0    0 -0.00000000000E+00 -0.00000000000E+00 -0.10000000000E+04  0.10000000000E+04  0.00000000000E+00 0.  1.
    9000005    2    1    2  501    0 -0.61362496449E+02 -0.21664836834E+02 -0.55049147648E+03  0.55433200801E+03  0.28962573812E+01 0.  0.
         13    1    3    3    0    0 -0.37815958849E+02 -0.13989081215E+02 -0.33010022104E+03  0.33255360030E+03  0.00000000000E+00 0.  1.
          1    1    3    3  501    0 -0.23546537599E+02 -0.76757556195E+01 -0.22039125543E+03  0.22177840771E+03  0.00000000000E+00 0.  1.
         -1    1    1    2    0  502  0.61362496449E+02  0.21664836834E+02 -0.44522295826E+03  0.44995355725E+03  0.00000000000E+00 0. -1.
<mgrwt>
<rscale>  1 0.30000000E+03</rscale>
<asrwt>0</asrwt>
<pdfrwt beam="1">  1       21 0.15583907E-01 0.30000000E+03</pdfrwt>
<pdfrwt beam="2">0</pdfrwt>
<totfact> 0.38363619E+03</totfact>
</mgrwt>
</event>
<event>
 6    1  0.1295671E-001  0.3000000E+03  0.7818608E-02  0.1093470E+00
         21   -1    0    0  501  502  0.00000000000E+00  0.00000000000E+00  0.11402726070E+01  0.11402726070E+01  0.00000000000E+00 0. -1.
         13   -1    0    0    0    0 -0.00000000000E+00 -0.00000000000E+00 -0.10000000000E+04  0.10000000000E+04  0.00000000000E+00 0.  1.
    9000005    2    1    2  501    0 -0.30236365156E+02  0.29624394368E+00 -0.71654900659E+03  0.71721480947E+03  0.63465374000E+01 0.  0.
         13    1    3    3    0    0 -0.19452695122E+02  0.15030712633E+00 -0.38595448715E+03  0.38644442820E+03  0.00000000000E+00 0.  1.
          1    1    3    3  501    0 -0.10783670034E+02  0.14593681734E+00 -0.33059451945E+03  0.33077038127E+03  0.00000000000E+00 0.  1.
         -1    1    1    2    0  502  0.30236365156E+02 -0.29624394368E+00 -0.28231072080E+03  0.28392546314E+03  0.00000000000E+00 0. -1.
<mgrwt>
<rscale>  1 0.30000000E+03</rscale>
<asrwt>0</asrwt>
<pdfrwt beam="1">  1       21 0.41464546E-02 0.30000000E+03</pdfrwt>
<pdfrwt beam="2">0</pdfrwt>
<totfact> 0.39574354E+04</totfact>
</mgrwt>
</event>
<event>
 6    1  0.1295671E-001  0.3000000E+03  0.7818608E-02  0.1093470E+00
         21   -1    0    0  501  502  0.00000000000E+00  0.00000000000E+00  0.10310437761E+01  0.10310437761E+01  0.00000000000E+00 0. -1.
         13   -1    0    0    0    0 -0.00000000000E+00 -0.00000000000E+00 -0.10000000000E+04  0.10000000000E+04  0.00000000000E+00 0.  1.
    9000005    2    1    2  501    0  0.30799584794E+02 -0.59542172616E+01 -0.60124485119E+03  0.60207173400E+03  0.33067628738E+01 0.  0.
         13    1    3    3    0    0  0.23466497805E+02 -0.33832320299E+01 -0.43570011012E+03  0.43634471320E+03  0.00000000000E+00 0.  1.
          1    1    3    3  501    0  0.73330869894E+01 -0.25709852317E+01 -0.16554474107E+03  0.16572702080E+03  0.00000000000E+00 0.  1.
         -3    1    1    2    0  502 -0.30799584794E+02  0.59542172616E+01 -0.39772410504E+03  0.39895930977E+03  0.00000000000E+00 0. -1.
<mgrwt>
<rscale>  1 0.30000000E+03</rscale>
<asrwt>0</asrwt>
<pdfrwt beam="1">  1       21 0.37492580E-02 0.30000000E+03</pdfrwt>
<pdfrwt beam="2">0</pdfrwt>
<totfact> 0.46882851E+04</totfact>
</mgrwt>
</event>
<event>
 6    1  0.1295671E-001  0.3000000E+03  0.7818608E-02  0.1093470E+00
         21   -1    0    0  501  502  0.00000000000E+00  0.00000000000E+00  0.13155970015E+01  0.13155970015E+01  0.00000000000E+00 0. -1.
         13   -1    0    0    0    0 -0.00000000000E+00 -0.00000000000E+00 -0.10000000000E+04  0.10000000000E+04  0.00000000000E+00 0.  1.
    9000005    2    1    2  501    0 -0.22228959202E+02 -0.28544503962E+02 -0.48382809315E+03  0.48518970623E+03  0.32422179078E+01 0.  0.
         13    1    3    3    0    0 -0.20597292936E+01 -0.44257229511E+01 -0.63421176749E+02  0.63608766445E+02  0.00000000000E+00 0.  1.
          3    1    3    3  501    0 -0.20169229908E+02 -0.24118781011E+02 -0.42040691641E+03  0.42158093979E+03  0.00000000000E+00 0.  1.
         -3    1    1    2    0  502  0.22228959202E+02  0.28544503962E+02 -0.51485630984E+03  0.51612589077E+03  0.00000000000E+00 0. -1.
<mgrwt>
<rscale>  1 0.30000000E+03</rscale>
<asrwt>0</asrwt>
<pdfrwt beam="1">  1       21 0.47839992E-02 0.30000000E+03</pdfrwt>
<pdfrwt beam="2">0</pdfrwt>
<totfact> 0.31054474E+04</totfact>
</mgrwt>
</event>
<event>
 6    1  0.1295671E-001  0.3000000E+03  0.7818608E-02  0.1093470E+00
         21   -1    0    0  501  502  0.00000000000E+00  0.00000000000E+00  0.34094428582E+01  0.34094428582E+01  0.00000000000E+00 0. -1.
         13   -1    0    0    0    0 -0.00000000000E+00 -0.00000000000E+00 -0.10000000000E+04  0.10000000000E+04  0.00000000000E+00 0.  1.
    9000005    2    1    2  501    0  0.27250204195E+02 -0.14084254482E+02 -0.92511809540E+03  0.92563250129E+03  0.33312378921E+01 0.  0.
         13    1    3    3    0    0  0.87168803363E+01 -0.61617299437E+01 -0.30293645275E+03  0.30312447167E+03  0.00000000000E+00 0.  1.
          1    1    3    3  501    0  0.18533323859E+02 -0.79225245384E+01 -0.62218164265E+03  0.62250802962E+03  0.00000000000E+00 0.  1.
         -1    1    1    2    0  502 -0.27250204195E+02  0.14084254482E+02 -0.71472461741E+02  0.77776941572E+02  0.00000000000E+00 0. -1.
<mgrwt>
<rscale>  1 0.30000000E+03</rscale>
<asrwt>0</asrwt>
<pdfrwt beam="1">  1       21 0.12398000E-01 0.30000000E+03</pdfrwt>
<pdfrwt beam="2">0</pdfrwt>
<totfact> 0.58401808E+03</totfact>
</mgrwt>
</event>
<event>
 6    1  0.1295671E-001  0.3000000E+03  0.7818608E-02  0.1093470E+00
         21   -1    0    0  501  502  0.00000000000E+00  0.00000000000E+00  0.12167380660E+01  0.12167380660E+01  0.00000000000E+00 0. -1.
         13   -1    0    0    0    0 -0.00000000000E+00 -0.00000000000E+00 -0.10000000000E+04  0.10000000000E+04  0.00000000000E+00 0.  1.
    9000005    2    1    2  501    0  0.29825385371E+02 -0.37877792773E+01 -0.75233137506E+03  0.75293779529E+03  0.29874379469E+01 0.  0.
         13    1    3    3    0    0  0.25959611132E+02 -0.39331130331E+01 -0.63473122375E+03  0.63527403314E+03  0.00000000000E+00 0.  1.
          1    1    3    3  501    0  0.38657742391E+01  0.14533375584E+00 -0.11760015132E+03  0.11766376215E+03  0.00000000000E+00 0.  1.
         -1    1    1    2    0  502 -0.29825385371E+02  0.37877792773E+01 -0.24645188687E+03  0.24827894278E+03  0.00000000000E+00 0. -1.
<mgrwt>
<rscale>  1 0.30000000E+03</rscale>
<asrwt>0</asrwt>
<pdfrwt beam="1">  1       21 0.44245114E-02 0.30000000E+03</pdfrwt>
<pdfrwt beam="2">0</pdfrwt>
<totfact> 0.35461053E+04</totfact>
</mgrwt>
</event>
<event>
 6    1  0.1295671E-001  0.3000000E+03  0.7818608E-02  0.1093470E+00
         21   -1    0    0  501  502  0.00000000000E+00  0.00000000000E+00  0.14201690389E+01  0.14201690389E+01  0.00000000000E+00 0. -1.
         13   -1    0    0    0    0 -0.00000000000E+00 -0.00000000000E+00 -0.10000000000E+04  0.10000000000E+04  0.00000000000E+00 0.  1.
    9000005    2    1    2  501    0  0.83407775330E+01  0.34791901121E+02 -0.65419479708E+03  0.65518167246E+03  0.34851749704E+01 0.  0.
         13    1    3    3    0    0  0.51161050081E+01  0.19134181009E+02 -0.33155110094E+03  0.33214217430E+03  0.00000000000E+00 0.  1.
          1    1    3    3  501    0  0.32246725249E+01  0.15657720112E+02 -0.32264369614E+03  0.32303949816E+03  0.00000000000E+00 0.  1.
         -1    1    1    2    0  502 -0.83407775330E+01 -0.34791901121E+02 -0.34438503388E+03  0.34623849658E+03  0.00000000000E+00 0. -1.
<mgrwt>
<rscale>  1 0.30000000E+03</rscale>
<asrwt>0</asrwt>
<pdfrwt beam="1">  1       21 0.51642619E-02 0.30000000E+03</pdfrwt>
<pdfrwt beam="2">0</pdfrwt>
<totfact> 0.27259085E+04</totfact>
</mgrwt>
</event>
<event>
 6    1  0.1295671E-001  0.3000000E+03  0.7818608E-02  0.1093470E+00
         21   -1    0    0  501  502  0.00000000000E+00  0.00000000000E+00  0.17998274506E+01  0.17998274506E+01  0.00000000000E+00 0. -1.
         13   -1    0    0    0    0 -0.00000000000E+00 -0.00000000000E+00 -0.10000000000E+04  0.10000000000E+04  0.00000000000E+00 0.  1.
    9000005    2    1    2  501    0 -0.33295391501E+02 -0.22576163444E+02 -0.65662005191E+03  0.65785906937E+03  0.32243347491E+01 0.  0.
         13    1    3    3    0    0 -0.11340520163E+02 -0.73465205901E+01 -0.24559063477E+03  0.24596206750E+03  0.00000000000E+00 0.  1.
          1    1    3    3  501    0 -0.21954871339E+02 -0.15229642854E+02 -0.41102941714E+03  0.41189700187E+03  0.00000000000E+00 0.  1.
         -3    1    1    2    0  502  0.33295391501E+02  0.22576163444E+02 -0.34158012064E+03  0.34394075808E+03  0.00000000000E+00 0. -1.
<mgrwt>
<rscale>  1 0.30000000E+03</rscale>
<asrwt>0</asrwt>
<pdfrwt beam="1">  1       21 0.65448409E-02 0.30000000E+03</pdfrwt>
<pdfrwt beam="2">0</pdfrwt>
<totfact> 0.18132872E+04</totfact>
</mgrwt>
</event>
<event>
 6    1  0.1295671E-001  0.3000000E+03  0.7818608E-02  0.1093470E+00
         21   -1    0    0  501  502  0.00000000000E+00  0.00000000000E+00  0.18633807237E+01  0.18633807237E+01  0.00000000000E+00 0. -1.
         13   -1    0    0    0    0 -0.00000000000E+00 -0.00000000000E+00 -0.10000000000E+04  0.10000000000E+04  0.00000000000E+00 0.  1.
    9000005    2    1    2  501    0 -0.15887856758E+02  0.35663437297E+02 -0.71169642994E+03  0.71277466282E+03  0.34068778632E+01 0.  0.
         13    1    3    3    0    0 -0.91112212951E+01  0.22312349746E+02 -0.41168902014E+03  0.41239387072E+03  0.00000000000E+00 0.  1.
          3    1    3    3  501    0 -0.67766354630E+01  0.13351087551E+02 -0.30000740980E+03  0.30038079209E+03  0.00000000000E+00 0.  1.
         -3    1    1    2    0  502  0.15887856758E+02 -0.35663437297E+02 -0.28644018934E+03  0.28908871790E+03  0.00000000000E+00 0. -1.
<mgrwt>
<rscale>  1 0.30000000E+03</rscale>
<asrwt>0</asrwt>
<pdfrwt beam="1">  1       21 0.67759442E-02 0.30000000E+03</pdfrwt>
<pdfrwt beam="2">0</pdfrwt>
<totfact> 0.17073932E+04</totfact>
</mgrwt>
</event>
<event>
 6    1  0.1295671E-001  0.3000000E+03  0.7818608E-02  0.1093470E+00
         21   -1    0    0  501  502  0.00000000000E+00  0.00000000000E+00  0.19382141734E+01  0.19382141734E+01  0.00000000000E+00 0. -1.
         13   -1    0    0    0    0 -0.00000000000E+00 -0.00000000000E+00 -0.10000000000E+04  0.10000000000E+04  0.00000000000E+00 0.  1.
    9000005    2    1    2  501    0  0.34621192010E+02  0.25286594244E+01 -0.80576235908E+03  0.80653071539E+03  0.58133035609E+01 0.  0.
         13    1    3    3    0    0  0.26259066856E+02  0.30941691852E+01 -0.55701594953E+03  0.55764314799E+03  0.00000000000E+00 0.  1.
          3    1    3    3  501    0  0.83621251546E+01 -0.56550976078E+00 -0.24874640956E+03  0.24888756740E+03  0.00000000000E+00 0.  1.
         -1    1    1    2    0  502 -0.34621192010E+02 -0.25286594244E+01 -0.19229942674E+03  0.19540749878E+03  0.00000000000E+00 0. -1.
<mgrwt>
<rscale>  1 0.30000000E+03</rscale>
<asrwt>0</asrwt>
<pdfrwt beam="1">  1       21 0.70480664E-02 0.30000000E+03</pdfrwt>
<pdfrwt beam="2">0</pdfrwt>
<totfact> 0.15944212E+04</totfact>
</mgrwt>
</event>
<event>
 6    1  0.1295671E-001  0.3000000E+03  0.7818608E-02  0.1093470E+00
         21   -1    0    0  501  502  0.00000000000E+00  0.00000000000E+00  0.14427870903E+01  0.14427870903E+01  0.00000000000E+00 0. -1.
         13   -1    0    0    0    0 -0.00000000000E+00 -0.00000000000E+00 -0.10000000000E+04  0.10000000000E+04  0.00000000000E+00 0.  1.
    9000005    2    1    2  501    0  0.29714586924E+02 -0.12759277855E+02 -0.76126471212E+03  0.76195690697E+03  0.29343326218E+01 0.  0.
         13    1    3    3    0    0  0.16981195900E+02 -0.69842588887E+01 -0.46523261276E+03  0.46559480760E+03  0.00000000000E+00 0.  1.
          3    1    3    3  501    0  0.12733391024E+02 -0.57750189664E+01 -0.29603209936E+03  0.29636209937E+03  0.00000000000E+00 0.  1.
         -1    1    1    2    0  502 -0.29714586924E+02  0.12759277855E+02 -0.23729250079E+03  0.23948588012E+03  0.00000000000E+00 0. -1.
<mgrwt>
<rscale>  1 0.30000000E+03</rscale>
<asrwt>0</asrwt>
<pdfrwt beam="1">  1       21 0.52465096E-02 0.30000000E+03</pdfrwt>
<pdfrwt beam="2">0</pdfrwt>
<totfact> 0.26533077E+04</totfact>
</mgrwt>
</event>
<event>
 6    1  0.1295671E-001  0.3000000E+03  0.7818608E-02  0.1093470E+00
         21   -1    0    0  501  502  0.00000000000E+00  0.00000000000E+00  0.92935370466E+00  0.92935370466E+00  0.00000000000E+00 0. -1.
         13   -1    0    0    0    0 -0.00000000000E+00 -0.00000000000E+00 -0.10000000000E+04  0.10000000000E+04  0.00000000000E+00 0.  1.
    9000005    2    1    2  501    0 -0.15271814389E+01  0.30077620295E+02 -0.43621251280E+03  0.43726609078E+03  0.36444889142E+01 0.  0.
         13    1    3    3    0    0 -0.20210805573E+01  0.16187992860E+02 -0.21571486163E+03  0.21633085172E+03  0.00000000000E+00 0.  1.
          3    1    3    3  501    0  0.49389911834E+00  0.13889627435E+02 -0.22049765117E+03  0.22093523906E+03  0.00000000000E+00 0.  1.
         -1    1    1    2    0  502  0.15271814389E+01 -0.30077620295E+02 -0.56285813350E+03  0.56366326292E+03  0.00000000000E+00 0. -1.
<mgrwt>
<rscale>  1 0.30000000E+03</rscale>
<asrwt>0</asrwt>
<pdfrwt beam="1">  1       21 0.33794751E-02 0.30000000E+03</pdfrwt>
<pdfrwt beam="2">0</pdfrwt>
<totfact> 0.55792607E+04</totfact>
</mgrwt>
</event>
<event>
 6    1  0.1295671E-001  0.3000000E+03  0.7818608E-02  0.1093470E+00
         21   -1    0    0  501  502  0.00000000000E+00  0.00000000000E+00  0.12380692007E+01  0.12380692007E+01  0.00000000000E+00 0. -1.
         13   -1    0    0    0    0 -0.00000000000E+00 -0.00000000000E+00 -0.10000000000E+04  0.10000000000E+04  0.00000000000E+00 0.  1.
    9000005    2    1    2  501    0  0.30809969880E+02 -0.33326586603E+01 -0.73537971073E+03  0.73603898416E+03  0.31155083296E+01 0.  0.
         13    1    3    3    0    0  0.18031670235E+02 -0.13424559575E+01 -0.46159789271E+03  0.46195189996E+03  0.00000000000E+00 0.  1.
          1    1    3    3  501    0  0.12778299645E+02 -0.19902027027E+01 -0.27378181802E+03  0.27408708421E+03  0.00000000000E+00 0.  1.
         -1    1    1    2    0  502 -0.30809969880E+02  0.33326586603E+01 -0.26338222007E+03  0.26519908504E+03  0.00000000000E+00 0. -1.
<mgrwt>
<rscale>  1 0.30000000E+03</rscale>
<asrwt>0</asrwt>
<pdfrwt beam="1">  1       21 0.45020793E-02 0.30000000E+03</pdfrwt>
<pdfrwt beam="2">0</pdfrwt>
<totfact> 0.34431187E+04</totfact>
</mgrwt>
</event>
<event>
 6    1  0.1295671E-001  0.3000000E+03  0.7818608E-02  0.1093470E+00
         21   -1    0    0  501  502  0.00000000000E+00  0.00000000000E+00  0.22006580725E+01  0.22006580725E+01  0.00000000000E+00 0. -1.
         13   -1    0    0    0    0 -0.00000000000E+00 -0.00000000000E+00 -0.10000000000E+04  0.10000000000E+04  0.00000000000E+00 0.  1.
    9000005    2    1    2  501    0  0.28635194300E+02  0.10928321537E+02 -0.87798599350E+03  0.87852915357E+03  0.38296642222E+01 0.  0.
         13    1    3    3    0    0  0.28751241999E+02  0.10954346279E+02 -0.87512965222E+03  0.87567033741E+03  0.00000000000E+00 0.  1.
          3    1    3    3  501    0 -0.11604769871E+00 -0.26024742343E-01 -0.28563412762E+01  0.28588161609E+01  0.00000000000E+00 0.  1.
         -3    1    1    2    0  502 -0.28635194300E+02 -0.10928321537E+02 -0.11981334843E+03  0.12367150450E+03  0.00000000000E+00 0. -1.
<mgrwt>
<rscale>  1 0.30000000E+03</rscale>
<asrwt>0</asrwt>
<pdfrwt beam="1">  1       21 0.80024099E-02 0.30000000E+03</pdfrwt>
<pdfrwt beam="2">0</pdfrwt>
<totfact> 0.12767113E+04</totfact>
</mgrwt>
</event>
<event>
 6    1  0.1295671E-001  0.3000000E+03  0.7818608E-02  0.1093470E+00
         21   -1    0    0  501  502  0.00000000000E+00  0.00000000000E+00  0.15711239300E+01  0.15711239300E+01  0.00000000000E+00 0. -1.
         13   -1    0    0    0    0 -0.00000000000E+00 -0.00000000000E+00 -0.10000000000E+04  0.10000000000E+04  0.00000000000E+00 0.  1.
    9000005    2    1    2  501    0 -0.34258646705E+02  0.16000836898E+00 -0.75011075773E+03  0.75090088562E+03  0.35086594509E+01 0.  0.
         13    1    3    3    0    0 -0.28940227254E+02 -0.76075669276E+00 -0.65072699161E+03  0.65137065724E+03  0.00000000000E+00 0.  1.
          3    1    3    3  501    0 -0.53184194508E+01  0.92076506174E+00 -0.99383766119E+02  0.99530228382E+02  0.00000000000E+00 0.  1.
         -1    1    1    2    0  502  0.34258646705E+02 -0.16000836898E+00 -0.24831811834E+03  0.25067023831E+03  0.00000000000E+00 0. -1.
<mgrwt>
<rscale>  1 0.30000000E+03</rscale>
<asrwt>0</asrwt>
<pdfrwt beam="1">  1       21 0.57131900E-02 0.30000000E+03</pdfrwt>
<pdfrwt beam="2">0</pdfrwt>
<totfact> 0.22926948E+04</totfact>
</mgrwt>
</event>
<event>
 6    1  0.1295671E-001  0.3000000E+03  0.7818608E-02  0.1093470E+00
         21   -1    0    0  501  502  0.00000000000E+00  0.00000000000E+00  0.12285792814E+01  0.12285792814E+01  0.00000000000E+00 0. -1.
         13   -1    0    0    0    0 -0.00000000000E+00 -0.00000000000E+00 -0.10000000000E+04  0.10000000000E+04  0.00000000000E+00 0.  1.
    9000005    2    1    2  501    0 -0.31080691041E+02  0.52387853124E+01 -0.71696379263E+03  0.71766378338E+03  0.32820423623E+01 0.  0.
         13    1    3    3    0    0 -0.75148846486E+01  0.27092711116E+01 -0.18093983981E+03  0.18111609335E+03  0.00000000000E+00 0.  1.
          1    1    3    3  501    0 -0.23565806392E+02  0.25295142009E+01 -0.53602395282E+03  0.53654769003E+03  0.00000000000E+00 0.  1.
         -3    1    1    2    0  502  0.31080691041E+02 -0.52387853124E+01 -0.28180762809E+03  0.28356479590E+03  0.00000000000E+00 0. -1.
<mgrwt>
<rscale>  1 0.30000000E+03</rscale>
<asrwt>0</asrwt>
<pdfrwt beam="1">  1       21 0.44675704E-02 0.30000000E+03</pdfrwt>
<pdfrwt beam="2">0</pdfrwt>
<totfact> 0.34883581E+04</totfact>
</mgrwt>
</event>
<event>
 6    1  0.1295671E-001  0.3000000E+03  0.7818608E-02  0.1093470E+00
         21   -1    0    0  501  502  0.00000000000E+00  0.00000000000E+00  0.14580461483E+01  0.14580461483E+01  0.00000000000E+00 0. -1.
         13   -1    0    0    0    0 -0.00000000000E+00 -0.00000000000E+00 -0.10000000000E+04  0.10000000000E+04  0.00000000000E+00 0.  1.
    9000005    2    1    2  501    0  0.28262654240E+02 -0.24591126141E+02 -0.59203904256E+03  0.59323247371E+03  0.33224736402E+01 0.  0.
         13    1    3    3    0    0  0.14472410107E+02 -0.11323690956E+02 -0.31146205066E+03  0.31200366285E+03  0.00000000000E+00 0.  1.
          3    1    3    3  501    0  0.13790244132E+02 -0.13267435185E+02 -0.28057699190E+03  0.28122881085E+03  0.00000000000E+00 0.  1.
         -1    1    1    2    0  502 -0.28262654240E+02  0.24591126141E+02 -0.40650291129E+03  0.40822557244E+03  0.00000000000E+00 0. -1.
<mgrwt>
<rscale>  1 0.30000000E+03</rscale>
<asrwt>0</asrwt>
<pdfrwt beam="1">  1       21 0.53019972E-02 0.30000000E+03</pdfrwt>
<pdfrwt beam="2">0</pdfrwt>
<totfact> 0.26060066E+04</totfact>
</mgrwt>
</event>
<event>
 6    1  0.1295671E-001  0.3000000E+03  0.7818608E-02  0.1093470E+00
         21   -1    0    0  501  502  0.00000000000E+00  0.00000000000E+00  0.70511263173E+01  0.70511263173E+01  0.00000000000E+00 0. -1.
         13   -1    0    0    0    0 -0.00000000000E+00 -0.00000000000E+00 -0.10000000000E+04  0.10000000000E+04  0.00000000000E+00 0.  1.
    9000005    2    1    2  501    0 -0.26816812532E+02  0.62213802853E+02 -0.79382900305E+03  0.79672180934E+03  0.33847737153E+01 0.  0.
         13    1    3    3    0    0 -0.26638372085E+02  0.62074504175E+02 -0.78852991439E+03  0.79141788760E+03  0.00000000000E+00 0.  1.
          1    1    3    3  501    0 -0.17844044704E+00  0.13929867760E+00 -0.52990886639E+01  0.53039217361E+01  0.00000000000E+00 0.  1.
         -3    1    1    2    0  502  0.26816812532E+02 -0.62213802853E+02 -0.19911987063E+03  0.21032931698E+03  0.00000000000E+00 0. -1.
<mgrwt>
<rscale>  1 0.30000000E+03</rscale>
<asrwt>0</asrwt>
<pdfrwt beam="1">  1       21 0.25640513E-01 0.30000000E+03</pdfrwt>
<pdfrwt beam="2">0</pdfrwt>
<totfact> 0.14841047E+03</totfact>
</mgrwt>
</event>
<event>
 6    1  0.1295671E-001  0.3000000E+03  0.7818608E-02  0.1093470E+00
         21   -1    0    0  501  502  0.00000000000E+00  0.00000000000E+00  0.11452002071E+01  0.11452002071E+01  0.00000000000E+00 0. -1.
         13   -1    0    0    0    0 -0.00000000000E+00 -0.00000000000E+00 -0.10000000000E+04  0.10000000000E+04  0.00000000000E+00 0.  1.
    9000005    2    1    2  501    0 -0.32772999108E+02  0.14507273584E+01 -0.61987825096E+03  0.62075145861E+03  0.26745604777E+01 0.  0.
         13    1    3    3    0    0 -0.16311280343E+02  0.64133114758E+00 -0.28328409306E+03  0.28375402473E+03  0.00000000000E+00 0.  1.
          1    1    3    3  501    0 -0.16461718765E+02  0.80939621082E+00 -0.33659415791E+03  0.33699743388E+03  0.00000000000E+00 0.  1.
         -3    1    1    2    0  502  0.32772999108E+02 -0.14507273584E+01 -0.37897654883E+03  0.38039374159E+03  0.00000000000E+00 0. -1.
<mgrwt>
<rscale>  1 0.30000000E+03</rscale>
<asrwt>0</asrwt>
<pdfrwt beam="1">  1       21 0.41643732E-02 0.30000000E+03</pdfrwt>
<pdfrwt beam="2">0</pdfrwt>
<totfact> 0.39287421E+04</totfact>
</mgrwt>
</event>
<event>
 6    1  0.1295671E-001  0.3000000E+03  0.7818608E-02  0.1093470E+00
         21   -1    0    0  501  502  0.00000000000E+00  0.00000000000E+00  0.18579742777E+01  0.18579742777E+01  0.00000000000E+00 0. -1.
         13   -1    0    0    0    0 -0.00000000000E+00 -0.00000000000E+00 -0.10000000000E+04  0.10000000000E+04  0.00000000000E+00 0.  1.
    9000005    2    1    2  501    0  0.22674260570E+02  0.26909849328E+02 -0.78793926020E+03  0.78873016118E+03  0.29542011722E+01 0.  0.
         13    1    3    3    0    0  0.79480288005E+01  0.10369267201E+02 -0.26405434127E+03  0.26437735911E+03  0.00000000000E+00 0.  1.
          1    1    3    3  501    0  0.14726231770E+02  0.16540582127E+02 -0.52388491893E+03  0.52435280208E+03  0.00000000000E+00 0.  1.
         -3    1    1    2    0  502 -0.22674260570E+02 -0.26909849328E+02 -0.21020276552E+03  0.21312781309E+03  0.00000000000E+00 0. -1.
<mgrwt>
<rscale>  1 0.30000000E+03</rscale>
<asrwt>0</asrwt>
<pdfrwt beam="1">  1       21 0.67562843E-02 0.30000000E+03</pdfrwt>
<pdfrwt beam="2">0</pdfrwt>
<totfact> 0.17160267E+04</totfact>
</mgrwt>
</event>
<event>
 6    1  0.1295671E-001  0.3000000E+03  0.7818608E-02  0.1093470E+00
         21   -1    0    0  501  502  0.00000000000E+00  0.00000000000E+00  0.19502509725E+01  0.19502509725E+01  0.00000000000E+00 0. -1.
         13   -1    0    0    0    0 -0.00000000000E+00 -0.00000000000E+00 -0.10000000000E+04  0.10000000000E+04  0.00000000000E+00 0.  1.
    9000005    2    1    2  501    0 -0.36674135979E+02  0.23586955933E+02 -0.56953248405E+03  0.57122019267E+03  0.48909495859E+01 0.  0.
         13    1    3    3    0    0 -0.26238067086E+02  0.17911217635E+02 -0.43917368472E+03  0.44032121597E+03  0.00000000000E+00 0.  1.
          1    1    3    3  501    0 -0.10436068893E+02  0.56757382977E+01 -0.13035879932E+03  0.13089897670E+03  0.00000000000E+00 0.  1.
         -3    1    1    2    0  502  0.36674135979E+02 -0.23586955933E+02 -0.42851726498E+03  0.43073005830E+03  0.00000000000E+00 0. -1.
<mgrwt>
<rscale>  1 0.30000000E+03</rscale>
<asrwt>0</asrwt>
<pdfrwt beam="1">  1       21 0.70918367E-02 0.30000000E+03</pdfrwt>
<pdfrwt beam="2">0</pdfrwt>
<totfact> 0.15773204E+04</totfact>
</mgrwt>
</event>
<event>
 6    1  0.1295671E-001  0.3000000E+03  0.7818608E-02  0.1093470E+00
         21   -1    0    0  501  502  0.00000000000E+00  0.00000000000E+00  0.16577245153E+01  0.16577245153E+01  0.00000000000E+00 0. -1.
         13   -1    0    0    0    0 -0.00000000000E+00 -0.00000000000E+00 -0.10000000000E+04  0.10000000000E+04  0.00000000000E+00 0.  1.
    9000005    2    1    2  501    0 -0.11219895752E+02 -0.38975151668E+02 -0.46535152947E+03  0.46712607545E+03  0.31266408460E+01 0.  0.
         13    1    3    3    0    0 -0.18739775874E+01 -0.11486175174E+02 -0.12956805193E+03  0.13008967712E+03  0.00000000000E+00 0.  1.
          1    1    3    3  501    0 -0.93459181647E+01 -0.27488976494E+02 -0.33578347753E+03  0.33703639833E+03  0.00000000000E+00 0.  1.
         -1    1    1    2    0  502  0.11219895752E+02  0.38975151668E+02 -0.53299074602E+03  0.53453164906E+03  0.00000000000E+00 0. -1.
<mgrwt>
<rscale>  1 0.30000000E+03</rscale>
<asrwt>0</asrwt>
<pdfrwt beam="1">  1       21 0.60281019E-02 0.30000000E+03</pdfrwt>
<pdfrwt beam="2">0</pdfrwt>
<totfact> 0.20902521E+04</totfact>
</mgrwt>
</event>
<event>
 6    1  0.1295671E-001  0.3000000E+03  0.7818608E-02  0.1093470E+00
         21   -1    0    0  501  502  0.00000000000E+00  0.00000000000E+00  0.15958752779E+01  0.15958752779E+01  0.00000000000E+00 0. -1.
         13   -1    0    0    0    0 -0.00000000000E+00 -0.00000000000E+00 -0.10000000000E+04  0.10000000000E+04  0.00000000000E+00 0.  1.
    9000005    2    1    2  501    0  0.33270656624E+02  0.19108737932E+02 -0.39532929933E+03  0.39730180326E+03  0.95596812307E+01 0.  0.
         13    1    3    3    0    0  0.18556860454E+01  0.34369359229E+01 -0.63641775763E+02  0.63761522265E+02  0.00000000000E+00 0.  1.
          3    1    3    3  501    0  0.31414970579E+02  0.15671802009E+02 -0.33168752357E+03  0.33354028099E+03  0.00000000000E+00 0.  1.
         -1    1    1    2    0  502 -0.33270656624E+02 -0.19108737932E+02 -0.60307482539E+03  0.60429407202E+03  0.00000000000E+00 0. -1.
<mgrwt>
<rscale>  1 0.30000000E+03</rscale>
<asrwt>0</asrwt>
<pdfrwt beam="1">  1       21 0.58031951E-02 0.30000000E+03</pdfrwt>
<pdfrwt beam="2">0</pdfrwt>
<totfact> 0.22318395E+04</totfact>
</mgrwt>
</event>
<event>
 6    1  0.1295671E-001  0.3000000E+03  0.7818608E-02  0.1093470E+00
         21   -1    0    0  501  502  0.00000000000E+00  0.00000000000E+00  0.41119894179E+01  0.41119894179E+01  0.00000000000E+00 0. -1.
         13   -1    0    0    0    0 -0.00000000000E+00 -0.00000000000E+00 -0.10000000000E+04  0.10000000000E+04  0.00000000000E+00 0.  1.
    9000005    2    1    2  501    0 -0.31881040186E+02 -0.60902737590E+01 -0.93088472590E+03  0.93145581847E+03  0.31743793076E+01 0.  0.
         13    1    3    3    0    0 -0.27324221828E+02 -0.44353028636E+01 -0.81413907456E+03  0.81460954925E+03  0.00000000000E+00 0.  1.
          1    1    3    3  501    0 -0.45568183580E+01 -0.16549708954E+01 -0.11674565134E+03  0.11684626922E+03  0.00000000000E+00 0.  1.
         -3    1    1    2    0  502  0.31881040186E+02  0.60902737590E+01 -0.65003284681E+02  0.72656170950E+02  0.00000000000E+00 0. -1.
<mgrwt>
<rscale>  1 0.30000000E+03</rscale>
<asrwt>0</asrwt>
<pdfrwt beam="1">  1       21 0.14952720E-01 0.30000000E+03</pdfrwt>
<pdfrwt beam="2">0</pdfrwt>
<totfact> 0.41421643E+03</totfact>
</mgrwt>
</event>
<event>
 6    1  0.1295671E-001  0.3000000E+03  0.7818608E-02  0.1093470E+00
         21   -1    0    0  501  502  0.00000000000E+00  0.00000000000E+00  0.21088297581E+01  0.21088297581E+01  0.00000000000E+00 0. -1.
         13   -1    0    0    0    0 -0.00000000000E+00 -0.00000000000E+00 -0.10000000000E+04  0.10000000000E+04  0.00000000000E+00 0.  1.
    9000005    2    1    2  501    0  0.22047611758E+02  0.27615023612E+02 -0.81851034670E+03  0.81928058640E+03  0.35783921645E+01 0.  0.
         13    1    3    3    0    0  0.16142616082E+02  0.17711534260E+02 -0.53863261731E+03  0.53916544671E+03  0.00000000000E+00 0.  1.
          3    1    3    3  501    0  0.59049956751E+01  0.99034893521E+01 -0.27987772939E+03  0.28011513969E+03  0.00000000000E+00 0.  1.
         -1    1    1    2    0  502 -0.22047611758E+02 -0.27615023612E+02 -0.17938082354E+03  0.18282824336E+03  0.00000000000E+00 0. -1.
<mgrwt>
<rscale>  1 0.30000000E+03</rscale>
<asrwt>0</asrwt>
<pdfrwt beam="1">  1       21 0.76684880E-02 0.30000000E+03</pdfrwt>
<pdfrwt beam="2">0</pdfrwt>
<totfact> 0.13758468E+04</totfact>
</mgrwt>
</event>
<event>
 6    1  0.1295671E-001  0.3000000E+03  0.7818608E-02  0.1093470E+00
         21   -1    0    0  501  502  0.00000000000E+00  0.00000000000E+00  0.18274717769E+01  0.18274717769E+01  0.00000000000E+00 0. -1.
         13   -1    0    0    0    0 -0.00000000000E+00 -0.00000000000E+00 -0.10000000000E+04  0.10000000000E+04  0.00000000000E+00 0.  1.
    9000005    2    1    2  501    0  0.14398922087E+02 -0.38173911977E+02 -0.64671350903E+03  0.64800828252E+03  0.34343764998E+01 0.  0.
         13    1    3    3    0    0  0.43126958025E+01 -0.96568243136E+01 -0.19011130597E+03  0.19040525796E+03  0.00000000000E+00 0.  1.
          3    1    3    3  501    0  0.10086226285E+02 -0.28517087664E+02 -0.45660220306E+03  0.45760302456E+03  0.00000000000E+00 0.  1.
         -1    1    1    2    0  502 -0.14398922087E+02  0.38173911977E+02 -0.35145901919E+03  0.35381918925E+03  0.00000000000E+00 0. -1.
<mgrwt>
<rscale>  1 0.30000000E+03</rscale>
<asrwt>0</asrwt>
<pdfrwt beam="1">  1       21 0.66453659E-02 0.30000000E+03</pdfrwt>
<pdfrwt beam="2">0</pdfrwt>
<totfact> 0.17660174E+04</totfact>
</mgrwt>
</event>
<event>
 6    1  0.1295671E-001  0.3000000E+03  0.7818608E-02  0.1093470E+00
         21   -1    0    0  501  502  0.00000000000E+00  0.00000000000E+00  0.51249551365E+01  0.51249551365E+01  0.00000000000E+00 0. -1.
         13   -1    0    0    0    0 -0.00000000000E+00 -0.00000000000E+00 -0.10000000000E+04  0.10000000000E+04  0.00000000000E+00 0.  1.
    9000005    2    1    2  501    0  0.44022350308E+02 -0.15611230091E+02 -0.87823509610E+03  0.87948039505E+03  0.26839197530E+01 0.  0.
         13    1    3    3    0    0  0.18453630007E+02 -0.69379310670E+01 -0.39476758127E+03  0.39525955342E+03  0.00000000000E+00 0.  1.
          1    1    3    3  501    0  0.25568720302E+02 -0.86732990240E+01 -0.48346751483E+03  0.48422084163E+03  0.00000000000E+00 0.  1.
         -3    1    1    2    0  502 -0.44022350308E+02  0.15611230091E+02 -0.11663994876E+03  0.12564456009E+03  0.00000000000E+00 0. -1.
<mgrwt>
<rscale>  1 0.30000000E+03</rscale>
<asrwt>0</asrwt>
<pdfrwt beam="1">  1       21 0.18636240E-01 0.30000000E+03</pdfrwt>
<pdfrwt beam="2">0</pdfrwt>
<totfact> 0.27436799E+03</totfact>
</mgrwt>
</event>
<event>
 6    1  0.1295671E-001  0.3000000E+03  0.7818608E-02  0.1093470E+00
         21   -1    0    0  501  502  0.00000000000E+00  0.00000000000E+00  0.10288585114E+01  0.10288585114E+01  0.00000000000E+00 0. -1.
         13   -1    0    0    0    0 -0.00000000000E+00 -0.00000000000E+00 -0.10000000000E+04  0.10000000000E+04  0.00000000000E+00 0.  1.
    9000005    2    1    2  501    0 -0.29194015082E+02  0.92109807718E+01 -0.64688448237E+03  0.64761387833E+03  0.26587964043E+01 0.  0.
         13    1    3    3    0    0 -0.23328842720E+02  0.75844961848E+01 -0.53883877112E+03  0.53939686757E+03  0.00000000000E+00 0.  1.
          1    1    3    3  501    0 -0.58651723618E+01  0.16264845870E+01 -0.10804571125E+03  0.10821701076E+03  0.00000000000E+00 0.  1.
         -1    1    1    2    0  502  0.29194015082E+02 -0.92109807718E+01 -0.35208665912E+03  0.35341498018E+03  0.00000000000E+00 0. -1.
<mgrwt>
<rscale>  1 0.30000000E+03</rscale>
<asrwt>0</asrwt>
<pdfrwt beam="1">  1       21 0.37413116E-02 0.30000000E+03</pdfrwt>
<pdfrwt beam="2">0</pdfrwt>
<totfact> 0.47050182E+04</totfact>
</mgrwt>
</event>
<event>
 6    1  0.1295671E-001  0.3000000E+03  0.7818608E-02  0.1093470E+00
         21   -1    0    0  501  502  0.00000000000E+00  0.00000000000E+00  0.18632570366E+01  0.18632570366E+01  0.00000000000E+00 0. -1.
         13   -1    0    0    0    0 -0.00000000000E+00 -0.00000000000E+00 -0.10000000000E+04  0.10000000000E+04  0.00000000000E+00 0.  1.
    9000005    2    1    2  501    0 -0.41907471245E+02  0.53877708106E+01 -0.59852957515E+03  0.60002852386E+03  0.33634645797E+01 0.  0.
         13    1    3    3    0    0 -0.13663824381E+02  0.28719115341E+01 -0.21380710347E+03  0.21426251531E+03  0.00000000000E+00 0.  1.
          1    1    3    3  501    0 -0.28243646864E+02  0.25158592765E+01 -0.38472247168E+03  0.38576600855E+03  0.00000000000E+00 0.  1.
         -1    1    1    2    0  502  0.41907471245E+02 -0.53877708106E+01 -0.39960716781E+03  0.40183473318E+03  0.00000000000E+00 0. -1.
<mgrwt>
<rscale>  1 0.30000000E+03</rscale>
<asrwt>0</asrwt>
<pdfrwt beam="1">  1       21 0.67754944E-02 0.30000000E+03</pdfrwt>
<pdfrwt beam="2">0</pdfrwt>
<totfact> 0.17075900E+04</totfact>
</mgrwt>
</event>
<event>
 6    1  0.1295671E-001  0.3000000E+03  0.7818608E-02  0.1093470E+00
         21   -1    0    0  501  502  0.00000000000E+00  0.00000000000E+00  0.20598567926E+01  0.20598567926E+01  0.00000000000E+00 0. -1.
         13   -1    0    0    0    0 -0.00000000000E+00 -0.00000000000E+00 -0.10000000000E+04  0.10000000000E+04  0.00000000000E+00 0.  1.
    9000005    2    1    2  501    0  0.11332520802E+02  0.43596756709E+02 -0.55256616701E+03  0.55441369977E+03  0.40097811955E+01 0.  0.
         13    1    3    3    0    0  0.11647728221E+02  0.42973220502E+02 -0.54451735327E+03  0.54633461840E+03  0.00000000000E+00 0.  1.
          3    1    3    3  501    0 -0.31520741891E+00  0.62353620713E+00 -0.80488137420E+01  0.80790813693E+01  0.00000000000E+00 0.  1.
         -3    1    1    2    0  502 -0.11332520802E+02 -0.43596756709E+02 -0.44537397619E+03  0.44764615702E+03  0.00000000000E+00 0. -1.
<mgrwt>
<rscale>  1 0.30000000E+03</rscale>
<asrwt>0</asrwt>
<pdfrwt beam="1">  1       21 0.74904041E-02 0.30000000E+03</pdfrwt>
<pdfrwt beam="2">0</pdfrwt>
<totfact> 0.14336563E+04</totfact>
</mgrwt>
</event>
<event>
 6    1  0.1295671E-001  0.3000000E+03  0.7818608E-02  0.1093470E+00
         21   -1    0    0  501  502  0.00000000000E+00  0.00000000000E+00  0.24348699211E+01  0.24348699211E+01  0.00000000000E+00 0. -1.
         13   -1    0    0    0    0 -0.00000000000E+00 -0.00000000000E+00 -0.10000000000E+04  0.10000000000E+04  0.00000000000E+00 0.  1.
    9000005    2    1    2  501    0  0.36289068909E+02  0.57258438461E+01 -0.83084590301E+03  0.83171585375E+03  0.98318365733E+01 0.  0.
         13    1    3    3    0    0  0.27782233870E+02  0.31768211296E+01 -0.52819108112E+03  0.52893077324E+03  0.00000000000E+00 0.  1.
          1    1    3    3  501    0  0.85068350390E+01  0.25490227164E+01 -0.30265482190E+03  0.30278508051E+03  0.00000000000E+00 0.  1.
         -3    1    1    2    0  502 -0.36289068909E+02 -0.57258438461E+01 -0.16671922707E+03  0.17071901617E+03  0.00000000000E+00 0. -1.
<mgrwt>
<rscale>  1 0.30000000E+03</rscale>
<asrwt>0</asrwt>
<pdfrwt beam="1">  1       21 0.88540911E-02 0.30000000E+03</pdfrwt>
<pdfrwt beam="2">0</pdfrwt>
<totfact> 0.10682782E+04</totfact>
</mgrwt>
</event>
<event>
 6    1  0.1295671E-001  0.3000000E+03  0.7818608E-02  0.1093470E+00
         21   -1    0    0  501  502  0.00000000000E+00  0.00000000000E+00  0.28041551908E+01  0.28041551908E+01  0.00000000000E+00 0. -1.
         13   -1    0    0    0    0 -0.00000000000E+00 -0.00000000000E+00 -0.10000000000E+04  0.10000000000E+04  0.00000000000E+00 0.  1.
    9000005    2    1    2  501    0 -0.75408222869E+01  0.36484274122E+02 -0.85483428039E+03  0.85564851893E+03  0.21851225902E+01 0.  0.
         13    1    3    3    0    0  0.64870764768E-01  0.17543418164E+01 -0.44839127704E+02  0.44873480996E+02  0.00000000000E+00 0.  1.
          3    1    3    3  501    0 -0.76056930516E+01  0.34729932306E+02 -0.80999515269E+03  0.81077503794E+03  0.00000000000E+00 0.  1.
         -3    1    1    2    0  502  0.75408222869E+01 -0.36484274122E+02 -0.14236156442E+03  0.14715563626E+03  0.00000000000E+00 0. -1.
<mgrwt>
<rscale>  1 0.30000000E+03</rscale>
<asrwt>0</asrwt>
<pdfrwt beam="1">  1       21 0.10196949E-01 0.30000000E+03</pdfrwt>
<pdfrwt beam="2">0</pdfrwt>
<totfact> 0.83083715E+03</totfact>
</mgrwt>
</event>
<event>
 6    1  0.1295671E-001  0.3000000E+03  0.7818608E-02  0.1093470E+00
         21   -1    0    0  501  502  0.00000000000E+00  0.00000000000E+00  0.10730713204E+01  0.10730713204E+01  0.00000000000E+00 0. -1.
         13   -1    0    0    0    0 -0.00000000000E+00 -0.00000000000E+00 -0.10000000000E+04  0.10000000000E+04  0.00000000000E+00 0.  1.
    9000005    2    1    2  501    0 -0.26339177581E+02 -0.17263944230E+02 -0.36840335853E+03  0.36976350498E+03  0.34955669839E+01 0.  0.
         13    1    3    3    0    0 -0.65960965620E+01 -0.33582093356E+01 -0.72750852761E+02  0.73126415454E+02  0.00000000000E+00 0.  1.
          3    1    3    3  501    0 -0.19743081019E+02 -0.13905734895E+02 -0.29565250577E+03  0.29663708952E+03  0.00000000000E+00 0.  1.
         -3    1    1    2    0  502  0.26339177581E+02  0.17263944230E+02 -0.63052357015E+03  0.63130956634E+03  0.00000000000E+00 0. -1.
<mgrwt>
<rscale>  1 0.30000000E+03</rscale>
<asrwt>0</asrwt>
<pdfrwt beam="1">  1       21 0.39020858E-02 0.30000000E+03</pdfrwt>
<pdfrwt beam="2">0</pdfrwt>
<totfact> 0.43838226E+04</totfact>
</mgrwt>
</event>
<event>
 6    1  0.1295671E-001  0.3000000E+03  0.7818608E-02  0.1093470E+00
         21   -1    0    0  501  502  0.00000000000E+00  0.00000000000E+00  0.19638556978E+01  0.19638556978E+01  0.00000000000E+00 0. -1.
         13   -1    0    0    0    0 -0.00000000000E+00 -0.00000000000E+00 -0.10000000000E+04  0.10000000000E+04  0.00000000000E+00 0.  1.
    9000005    2    1    2  501    0  0.53685066086E+01  0.36295827602E+02 -0.77900214606E+03  0.77987806068E+03  0.43861136573E+01 0.  0.
         13    1    3    3    0    0  0.31862958823E+01  0.29256713760E+02 -0.59266795513E+03  0.59339819077E+03  0.00000000000E+00 0.  1.
          3    1    3    3  501    0  0.21822107263E+01  0.70391138421E+01 -0.18633419093E+03  0.18647986990E+03  0.00000000000E+00 0.  1.
         -3    1    1    2    0  502 -0.53685066086E+01 -0.36295827602E+02 -0.21903399824E+03  0.22208579502E+03  0.00000000000E+00 0. -1.
<mgrwt>
<rscale>  1 0.30000000E+03</rscale>
<asrwt>0</asrwt>
<pdfrwt beam="1">  1       21 0.71413085E-02 0.30000000E+03</pdfrwt>
<pdfrwt beam="2">0</pdfrwt>
<totfact> 0.15583266E+04</totfact>
</mgrwt>
</event>
<event>
 6    1  0.1295671E-001  0.3000000E+03  0.7818608E-02  0.1093470E+00
         21   -1    0    0  501  502  0.00000000000E+00  0.00000000000E+00  0.10442763534E+01  0.10442763534E+01  0.00000000000E+00 0. -1.
         13   -1    0    0    0    0 -0.00000000000E+00 -0.00000000000E+00 -0.10000000000E+04  0.10000000000E+04  0.00000000000E+00 0.  1.
    9000005    2    1    2  501    0  0.25032216967E+02 -0.19528514089E+02 -0.58725800177E+03  0.58812420062E+03  0.31843300988E+01 0.  0.
         13    1    3    3    0    0  0.64390782423E+01 -0.57092759531E+01 -0.18433761957E+03  0.18453838503E+03  0.00000000000E+00 0.  1.
          3    1    3    3  501    0  0.18593138725E+02 -0.13819238136E+02 -0.40292038220E+03  0.40358581559E+03  0.00000000000E+00 0.  1.
         -3    1    1    2    0  502 -0.25032216967E+02  0.19528514089E+02 -0.41169772187E+03  0.41292007573E+03  0.00000000000E+00 0. -1.
<mgrwt>
<rscale>  1 0.30000000E+03</rscale>
<asrwt>0</asrwt>
<pdfrwt beam="1">  1       21 0.37973766E-02 0.30000000E+03</pdfrwt>
<pdfrwt beam="2">0</pdfrwt>
<totfact> 0.45889296E+04</totfact>
</mgrwt>
</event>
<event>
 6    1  0.1295671E-001  0.3000000E+03  0.7818608E-02  0.1093470E+00
         21   -1    0    0  501  502  0.00000000000E+00  0.00000000000E+00  0.38706248876E+01  0.38706248876E+01  0.00000000000E+00 0. -1.
         13   -1    0    0    0    0 -0.00000000000E+00 -0.00000000000E+00 -0.10000000000E+04  0.10000000000E+04  0.00000000000E+00 0.  1.
    9000005    2    1    2  501    0 -0.23871535463E+01 -0.35111139415E+02 -0.91192640863E+03  0.91260929585E+03  0.27315754016E+01 0.  0.
         13    1    3    3    0    0 -0.19621580478E+01 -0.11253513283E+02 -0.30709474109E+03  0.30730712916E+03  0.00000000000E+00 0.  1.
          1    1    3    3  501    0 -0.42499549851E+00 -0.23857626133E+02 -0.60483166754E+03  0.60530216669E+03  0.00000000000E+00 0.  1.
         -1    1    1    2    0  502  0.23871535463E+01  0.35111139415E+02 -0.84202966485E+02  0.91261329039E+02  0.00000000000E+00 0. -1.
<mgrwt>
<rscale>  1 0.30000000E+03</rscale>
<asrwt>0</asrwt>
<pdfrwt beam="1">  1       21 0.14075029E-01 0.30000000E+03</pdfrwt>
<pdfrwt beam="2">0</pdfrwt>
<totfact> 0.46309631E+03</totfact>
</mgrwt>
</event>
<event>
 6    1  0.1295671E-001  0.3000000E+03  0.7818608E-02  0.1093470E+00
         21   -1    0    0  501  502  0.00000000000E+00  0.00000000000E+00  0.13705404274E+01  0.13705404274E+01  0.00000000000E+00 0. -1.
         13   -1    0    0    0    0 -0.00000000000E+00 -0.00000000000E+00 -0.10000000000E+04  0.10000000000E+04  0.00000000000E+00 0.  1.
    9000005    2    1    2  501    0 -0.29813714679E+02  0.19674850813E+02 -0.62872581387E+03  0.62974618111E+03  0.28541641212E+01 0.  0.
         13    1    3    3    0    0 -0.81467121822E+01  0.54388270026E+01 -0.19568521256E+03  0.19593022271E+03  0.00000000000E+00 0.  1.
          3    1    3    3  501    0 -0.21667002497E+02  0.14236023811E+02 -0.43304060131E+03  0.43381595839E+03  0.00000000000E+00 0.  1.
         -1    1    1    2    0  502  0.29813714679E+02 -0.19674850813E+02 -0.36990364570E+03  0.37162435932E+03  0.00000000000E+00 0. -1.
<mgrwt>
<rscale>  1 0.30000000E+03</rscale>
<asrwt>0</asrwt>
<pdfrwt beam="1">  1       21 0.49837939E-02 0.30000000E+03</pdfrwt>
<pdfrwt beam="2">0</pdfrwt>
<totfact> 0.28964500E+04</totfact>
</mgrwt>
</event>
<event>
 6    1  0.1295671E-001  0.3000000E+03  0.7818608E-02  0.1093470E+00
         21   -1    0    0  501  502  0.00000000000E+00  0.00000000000E+00  0.14878693884E+01  0.14878693884E+01  0.00000000000E+00 0. -1.
         13   -1    0    0    0    0 -0.00000000000E+00 -0.00000000000E+00 -0.10000000000E+04  0.10000000000E+04  0.00000000000E+00 0.  1.
    9000005    2    1    2  501    0 -0.32213748570E+02  0.90235826944E+01 -0.74521777700E+03  0.74599387687E+03  0.61788776343E+01 0.  0.
         13    1    3    3    0    0 -0.20707957289E+02  0.63163899757E+01 -0.54246659631E+03  0.54289844759E+03  0.00000000000E+00 0.  1.
          1    1    3    3  501    0 -0.11505791281E+02  0.27071927188E+01 -0.20275118068E+03  0.20309542928E+03  0.00000000000E+00 0.  1.
         -3    1    1    2    0  502  0.32213748570E+02 -0.90235826944E+01 -0.25329435362E+03  0.25549399252E+03  0.00000000000E+00 0. -1.
<mgrwt>
<rscale>  1 0.30000000E+03</rscale>
<asrwt>0</asrwt>
<pdfrwt beam="1">  1       21 0.54104455E-02 0.30000000E+03</pdfrwt>
<pdfrwt beam="2">0</pdfrwt>
<totfact> 0.25172445E+04</totfact>
</mgrwt>
</event>
<event>
 6    1  0.1295671E-001  0.3000000E+03  0.7818608E-02  0.1093470E+00
         21   -1    0    0  501  502  0.00000000000E+00  0.00000000000E+00  0.93368940094E+00  0.93368940094E+00  0.00000000000E+00 0. -1.
         13   -1    0    0    0    0 -0.00000000000E+00 -0.00000000000E+00 -0.10000000000E+04  0.10000000000E+04  0.00000000000E+00 0.  1.
    9000005    2    1    2  501    0 -0.15355341095E+02  0.26289397923E+02 -0.52597836591E+03  0.52686710931E+03  0.29648828542E+01 0.  0.
         13    1    3    3    0    0 -0.15181095335E+02  0.26060144974E+02 -0.52407397857E+03  0.52494107462E+03  0.00000000000E+00 0.  1.
          3    1    3    3  501    0 -0.17424576031E+00  0.22925294906E+00 -0.19043873347E+01  0.19260346882E+01  0.00000000000E+00 0.  1.
         -3    1    1    2    0  502  0.15355341095E+02 -0.26289397923E+02 -0.47308794469E+03  0.47406658009E+03  0.00000000000E+00 0. -1.
<mgrwt>
<rscale>  1 0.30000000E+03</rscale>
<asrwt>0</asrwt>
<pdfrwt beam="1">  1       21 0.33952413E-02 0.30000000E+03</pdfrwt>
<pdfrwt beam="2">0</pdfrwt>
<totfact> 0.55360436E+04</totfact>
</mgrwt>
</event>
<event>
 6    1  0.1295671E-001  0.3000000E+03  0.7818608E-02  0.1093470E+00
         21   -1    0    0  501  502  0.00000000000E+00  0.00000000000E+00  0.12301931705E+01  0.12301931705E+01  0.00000000000E+00 0. -1.
         13   -1    0    0    0    0 -0.00000000000E+00 -0.00000000000E+00 -0.10000000000E+04  0.10000000000E+04  0.00000000000E+00 0.  1.
    9000005    2    1    2  501    0 -0.31416899425E+02 -0.81313966425E+01 -0.68779107885E+03  0.68856278132E+03  0.29990807622E+01 0.  0.
         13    1    3    3    0    0 -0.13258419017E+02 -0.30751785029E+01 -0.25842793991E+03  0.25878609415E+03  0.00000000000E+00 0.  1.
          1    1    3    3  501    0 -0.18158480408E+02 -0.50562181396E+01 -0.42936313895E+03  0.42977668717E+03  0.00000000000E+00 0.  1.
         -1    1    1    2    0  502  0.31416899425E+02  0.81313966425E+01 -0.31097872797E+03  0.31266741185E+03  0.00000000000E+00 0. -1.
<mgrwt>
<rscale>  1 0.30000000E+03</rscale>
<asrwt>0</asrwt>
<pdfrwt beam="1">  1       21 0.44734391E-02 0.30000000E+03</pdfrwt>
<pdfrwt beam="2">0</pdfrwt>
<totfact> 0.34806000E+04</totfact>
</mgrwt>
</event>
<event>
 6    1  0.1295671E-001  0.3000000E+03  0.7818608E-02  0.1093470E+00
         21   -1    0    0  501  502  0.00000000000E+00  0.00000000000E+00  0.24144169604E+01  0.24144169604E+01  0.00000000000E+00 0. -1.
         13   -1    0    0    0    0 -0.00000000000E+00 -0.00000000000E+00 -0.10000000000E+04  0.10000000000E+04  0.00000000000E+00 0.  1.
    9000005    2    1    2  501    0  0.38508956670E+02 -0.10924704288E+01 -0.80956565094E+03  0.81048831633E+03  0.32610572290E+01 0.  0.
         13    1    3    3    0    0  0.16342844899E+01  0.30491923059E+00 -0.48684184287E+02  0.48712561637E+02  0.00000000000E+00 0.  1.
          3    1    3    3  501    0  0.36874672180E+02 -0.13973896593E+01 -0.76088146665E+03  0.76177575469E+03  0.00000000000E+00 0.  1.
         -3    1    1    2    0  502 -0.38508956670E+02  0.10924704288E+01 -0.18801993210E+03  0.19192610063E+03  0.00000000000E+00 0. -1.
<mgrwt>
<rscale>  1 0.30000000E+03</rscale>
<asrwt>0</asrwt>
<pdfrwt beam="1">  1       21 0.87797166E-02 0.30000000E+03</pdfrwt>
<pdfrwt beam="2">0</pdfrwt>
<totfact> 0.10843341E+04</totfact>
</mgrwt>
</event>
<event>
 6    1  0.1295671E-001  0.3000000E+03  0.7818608E-02  0.1093470E+00
         21   -1    0    0  501  502  0.00000000000E+00  0.00000000000E+00  0.12052389017E+01  0.12052389017E+01  0.00000000000E+00 0. -1.
         13   -1    0    0    0    0 -0.00000000000E+00 -0.00000000000E+00 -0.10000000000E+04  0.10000000000E+04  0.00000000000E+00 0.  1.
    9000005    2    1    2  501    0 -0.29987884785E+02 -0.16976249291E+02 -0.55365159042E+03  0.55473025788E+03  0.28476591829E+01 0.  0.
         13    1    3    3    0    0 -0.10958656139E+02 -0.51716366714E+01 -0.17834686445E+03  0.17875805445E+03  0.00000000000E+00 0.  1.
          1    1    3    3  501    0 -0.19029228646E+02 -0.11804612619E+02 -0.37530472597E+03  0.37597220344E+03  0.00000000000E+00 0.  1.
         -3    1    1    2    0  502  0.29987884785E+02  0.16976249291E+02 -0.44514317068E+03  0.44647498102E+03  0.00000000000E+00 0. -1.
<mgrwt>
<rscale>  1 0.30000000E+03</rscale>
<asrwt>0</asrwt>
<pdfrwt beam="1">  1       21 0.43826962E-02 0.30000000E+03</pdfrwt>
<pdfrwt beam="2">0</pdfrwt>
<totfact> 0.36036109E+04</totfact>
</mgrwt>
</event>
<event>
 6    1  0.1295671E-001  0.3000000E+03  0.7818608E-02  0.1093470E+00
         21   -1    0    0  501  502  0.00000000000E+00  0.00000000000E+00  0.11131041509E+01  0.11131041509E+01  0.00000000000E+00 0. -1.
         13   -1    0    0    0    0 -0.00000000000E+00 -0.00000000000E+00 -0.10000000000E+04  0.10000000000E+04  0.00000000000E+00 0.  1.
    9000005    2    1    2  501    0 -0.96254088727E+01  0.29405886297E+02 -0.68402146175E+03  0.68473106257E+03  0.37300493167E+01 0.  0.
         13    1    3    3    0    0 -0.77757804812E+01  0.18502092667E+02 -0.45651837641E+03  0.45695931788E+03  0.00000000000E+00 0.  1.
          1    1    3    3  501    0 -0.18496283915E+01  0.10903793630E+02 -0.22750308534E+03  0.22777174469E+03  0.00000000000E+00 0.  1.
         -3    1    1    2    0  502  0.96254088727E+01 -0.29405886297E+02 -0.31486543410E+03  0.31638204158E+03  0.00000000000E+00 0. -1.
<mgrwt>
<rscale>  1 0.30000000E+03</rscale>
<asrwt>0</asrwt>
<pdfrwt beam="1">  1       21 0.40476600E-02 0.30000000E+03</pdfrwt>
<pdfrwt beam="2">0</pdfrwt>
<totfact> 0.41216680E+04</totfact>
</mgrwt>
</event>
<event>
 6    1  0.1295671E-001  0.3000000E+03  0.7818608E-02  0.1093470E+00
         21   -1    0    0  501  502  0.00000000000E+00  0.00000000000E+00  0.73805622838E+01  0.73805622838E+01  0.00000000000E+00 0. -1.
         13   -1    0    0    0    0 -0.00000000000E+00 -0.00000000000E+00 -0.10000000000E+04  0.10000000000E+04  0.00000000000E+00 0.  1.
    9000005    2    1    2  501    0 -0.73595323444E+02  0.34161513597E+02 -0.33149029681E+03  0.34129121272E+03  0.32548975420E+01 0.  0.
         13    1    3    3    0    0 -0.39612062118E+02  0.18174704197E+02 -0.18480962304E+03  0.18987899332E+03  0.00000000000E+00 0.  1.
          3    1    3    3  501    0 -0.33983261326E+02  0.15986809400E+02 -0.14668067377E+03  0.15141221940E+03  0.00000000000E+00 0.  1.
         -3    1    1    2    0  502  0.73595323444E+02 -0.34161513597E+02 -0.66112914091E+03  0.66608934956E+03  0.00000000000E+00 0. -1.
<mgrwt>
<rscale>  1 0.30000000E+03</rscale>
<asrwt>0</asrwt>
<pdfrwt beam="1">  1       21 0.26838465E-01 0.30000000E+03</pdfrwt>
<pdfrwt beam="2">0</pdfrwt>
<totfact> 0.13564541E+03</totfact>
</mgrwt>
</event>
<event>
 6    1  0.1295671E-001  0.3000000E+03  0.7818608E-02  0.1093470E+00
         21   -1    0    0  501  502  0.00000000000E+00  0.00000000000E+00  0.49933560607E+01  0.49933560607E+01  0.00000000000E+00 0. -1.
         13   -1    0    0    0    0 -0.00000000000E+00 -0.00000000000E+00 -0.10000000000E+04  0.10000000000E+04  0.00000000000E+00 0.  1.
    9000005    2    1    2  501    0 -0.51142207871E+01  0.39639839898E+02 -0.91184183725E+03  0.91272279069E+03  0.31439356476E+01 0.  0.
         13    1    3    3    0    0 -0.69282143527E+00  0.16034795272E+02 -0.34912316979E+03  0.34949189167E+03  0.00000000000E+00 0.  1.
          1    1    3    3  501    0 -0.44213993519E+01  0.23605044627E+02 -0.56271866746E+03  0.56323089903E+03  0.00000000000E+00 0.  1.
         -1    1    1    2    0  502  0.51142207871E+01 -0.39639839898E+02 -0.83164806689E+02  0.92270565367E+02  0.00000000000E+00 0. -1.
<mgrwt>
<rscale>  1 0.30000000E+03</rscale>
<asrwt>0</asrwt>
<pdfrwt beam="1">  1       21 0.18157697E-01 0.30000000E+03</pdfrwt>
<pdfrwt beam="2">0</pdfrwt>
<totfact> 0.28817946E+03</totfact>
</mgrwt>
</event>
<event>
 6    1  0.1295671E-001  0.3000000E+03  0.7818608E-02  0.1093470E+00
         21   -1    0    0  501  502  0.00000000000E+00  0.00000000000E+00  0.25745602587E+01  0.25745602587E+01  0.00000000000E+00 0. -1.
         13   -1    0    0    0    0 -0.00000000000E+00 -0.00000000000E+00 -0.10000000000E+04  0.10000000000E+04  0.00000000000E+00 0.  1.
    9000005    2    1    2  501    0  0.30891506633E+02  0.26546377452E+02 -0.20160417460E+03  0.20571166026E+03  0.37481481088E+01 0.  0.
         13    1    3    3    0    0  0.18320825710E+02  0.13473389392E+02 -0.11570833105E+03  0.11792201979E+03  0.00000000000E+00 0.  1.
          1    1    3    3  501    0  0.12570680923E+02  0.13072988060E+02 -0.85895843544E+02  0.87789640470E+02  0.00000000000E+00 0.  1.
         -3    1    1    2    0  502 -0.30891506633E+02 -0.26546377452E+02 -0.79582126515E+03  0.79686290000E+03  0.00000000000E+00 0. -1.
<mgrwt>
<rscale>  1 0.30000000E+03</rscale>
<asrwt>0</asrwt>
<pdfrwt beam="1">  1       21 0.93620570E-02 0.30000000E+03</pdfrwt>
<pdfrwt beam="2">0</pdfrwt>
<totfact> 0.96763952E+03</totfact>
</mgrwt>
</event>
<event>
 6    1  0.1295671E-001  0.3000000E+03  0.7818608E-02  0.1093470E+00
         21   -1    0    0  501  502  0.00000000000E+00  0.00000000000E+00  0.25218621594E+01  0.25218621594E+01  0.00000000000E+00 0. -1.
         13   -1    0    0    0    0 -0.00000000000E+00 -0.00000000000E+00 -0.10000000000E+04  0.10000000000E+04  0.00000000000E+00 0.  1.
    9000005    2    1    2  501    0 -0.14913020662E+02 -0.33122625096E+02 -0.84462067834E+03  0.84540754262E+03  0.32119098679E+01 0.  0.
         13    1    3    3    0    0 -0.13115599347E+02 -0.28452377343E+02 -0.75100440894E+03  0.75165762084E+03  0.00000000000E+00 0.  1.
          1    1    3    3  501    0 -0.17974213151E+01 -0.46702477534E+01 -0.93616269400E+02  0.93749921780E+02  0.00000000000E+00 0.  1.
         -1    1    1    2    0  502  0.14913020662E+02  0.33122625096E+02 -0.15285745950E+03  0.15711431954E+03  0.00000000000E+00 0. -1.
<mgrwt>
<rscale>  1 0.30000000E+03</rscale>
<asrwt>0</asrwt>
<pdfrwt beam="1">  1       21 0.91704272E-02 0.30000000E+03</pdfrwt>
<pdfrwt beam="2">0</pdfrwt>
<totfact> 0.10038549E+04</totfact>
</mgrwt>
</event>
<event>
 6    1  0.1295671E-001  0.3000000E+03  0.7818608E-02  0.1093470E+00
         21   -1    0    0  501  502  0.00000000000E+00  0.00000000000E+00  0.28418013547E+01  0.28418013547E+01  0.00000000000E+00 0. -1.
         13   -1    0    0    0    0 -0.00000000000E+00 -0.00000000000E+00 -0.10000000000E+04  0.10000000000E+04  0.00000000000E+00 0.  1.
    9000005    2    1    2  501    0  0.28304784428E+02 -0.18817457413E+02 -0.88409170823E+03  0.88477703616E+03  0.75496778302E+01 0.  0.
         13    1    3    3    0    0  0.28289142663E+02 -0.18067860512E+02 -0.87767974636E+03  0.87832138784E+03  0.00000000000E+00 0.  1.
          1    1    3    3  501    0  0.15641764781E-01 -0.74959690071E+00 -0.64119618715E+01  0.64556483191E+01  0.00000000000E+00 0.  1.
         -3    1    1    2    0  502 -0.28304784428E+02  0.18817457413E+02 -0.11306649042E+03  0.11806476519E+03  0.00000000000E+00 0. -1.
<mgrwt>
<rscale>  1 0.30000000E+03</rscale>
<asrwt>0</asrwt>
<pdfrwt beam="1">  1       21 0.10333845E-01 0.30000000E+03</pdfrwt>
<pdfrwt beam="2">0</pdfrwt>
<totfact> 0.81124144E+03</totfact>
</mgrwt>
</event>
<event>
 6    1  0.1295671E-001  0.3000000E+03  0.7818608E-02  0.1093470E+00
         21   -1    0    0  501  502  0.00000000000E+00  0.00000000000E+00  0.22802452090E+01  0.22802452090E+01  0.00000000000E+00 0. -1.
         13   -1    0    0    0    0 -0.00000000000E+00 -0.00000000000E+00 -0.10000000000E+04  0.10000000000E+04  0.00000000000E+00 0.  1.
    9000005    2    1    2  501    0  0.33335010853E+02  0.16536449926E+02 -0.81256534092E+03  0.81342359560E+03  0.32917310617E+01 0.  0.
         13    1    3    3    0    0  0.12347012146E+02  0.79184802305E+01 -0.31992061077E+03  0.32025669117E+03  0.00000000000E+00 0.  1.
          1    1    3    3  501    0  0.20987998707E+02  0.86179696960E+01 -0.49264473015E+03  0.49316690444E+03  0.00000000000E+00 0.  1.
         -1    1    1    2    0  502 -0.33335010853E+02 -0.16536449926E+02 -0.18515441387E+03  0.18885664961E+03  0.00000000000E+00 0. -1.
<mgrwt>
<rscale>  1 0.30000000E+03</rscale>
<asrwt>0</asrwt>
<pdfrwt beam="1">  1       21 0.82918182E-02 0.30000000E+03</pdfrwt>
<pdfrwt beam="2">0</pdfrwt>
<totfact> 0.11993970E+04</totfact>
</mgrwt>
</event>
<event>
 6    1  0.1295671E-001  0.3000000E+03  0.7818608E-02  0.1093470E+00
         21   -1    0    0  501  502  0.00000000000E+00  0.00000000000E+00  0.25211470081E+01  0.25211470081E+01  0.00000000000E+00 0. -1.
         13   -1    0    0    0    0 -0.00000000000E+00 -0.00000000000E+00 -0.10000000000E+04  0.10000000000E+04  0.00000000000E+00 0.  1.
    9000005    2    1    2  501    0 -0.22758878319E+02  0.33630682208E+02 -0.20543100709E+03  0.20943301853E+03  0.33617332326E+01 0.  0.
         13    1    3    3    0    0 -0.21820565633E+02  0.31939626239E+02 -0.19867741946E+03  0.20240798851E+03  0.00000000000E+00 0.  1.
          3    1    3    3  501    0 -0.93831268548E+00  0.16910559691E+01 -0.67535876284E+01  0.70250300242E+01  0.00000000000E+00 0.  1.
         -3    1    1    2    0  502  0.22758878319E+02 -0.33630682208E+02 -0.79204784590E+03  0.79308812847E+03  0.00000000000E+00 0. -1.
<mgrwt>
<rscale>  1 0.30000000E+03</rscale>
<asrwt>0</asrwt>
<pdfrwt beam="1">  1       21 0.91678266E-02 0.30000000E+03</pdfrwt>
<pdfrwt beam="2">0</pdfrwt>
<totfact> 0.10043603E+04</totfact>
</mgrwt>
</event>
<event>
 6    1  0.1295671E-001  0.3000000E+03  0.7818608E-02  0.1093470E+00
         21   -1    0    0  501  502  0.00000000000E+00  0.00000000000E+00  0.22528547478E+01  0.22528547478E+01  0.00000000000E+00 0. -1.
         13   -1    0    0    0    0 -0.00000000000E+00 -0.00000000000E+00 -0.10000000000E+04  0.10000000000E+04  0.00000000000E+00 0.  1.
    9000005    2    1    2  501    0  0.31312434018E+02  0.11433333620E+02 -0.85529846111E+03  0.85595583750E+03  0.37079012258E+01 0.  0.
         13    1    3    3    0    0  0.14709100429E+02  0.73243185999E+01 -0.41239302551E+03  0.41272025728E+03  0.00000000000E+00 0.  1.
          3    1    3    3  501    0  0.16603333588E+02  0.41090150201E+01 -0.44290543559E+03  0.44323558021E+03  0.00000000000E+00 0.  1.
         -3    1    1    2    0  502 -0.31312434018E+02 -0.11433333620E+02 -0.14244868415E+03  0.14629701725E+03  0.00000000000E+00 0. -1.
<mgrwt>
<rscale>  1 0.30000000E+03</rscale>
<asrwt>0</asrwt>
<pdfrwt beam="1">  1       21 0.81922164E-02 0.30000000E+03</pdfrwt>
<pdfrwt beam="2">0</pdfrwt>
<totfact> 0.12251752E+04</totfact>
</mgrwt>
</event>
<event>
 6    1  0.1295671E-001  0.3000000E+03  0.7818608E-02  0.1093470E+00
         21   -1    0    0  501  502  0.00000000000E+00  0.00000000000E+00  0.19317873079E+01  0.19317873079E+01  0.00000000000E+00 0. -1.
         13   -1    0    0    0    0 -0.00000000000E+00 -0.00000000000E+00 -0.10000000000E+04  0.10000000000E+04  0.00000000000E+00 0.  1.
    9000005    2    1    2  501    0 -0.20003626602E+02  0.37071282622E+02 -0.63917112146E+03  0.64057109884E+03  0.41454906739E+01 0.  0.
         13    1    3    3    0    0 -0.15157941290E+02  0.24830789047E+02 -0.42246940091E+03  0.42346986430E+03  0.00000000000E+00 0.  1.
          1    1    3    3  501    0 -0.48456853124E+01  0.12240493574E+02 -0.21670172055E+03  0.21710123454E+03  0.00000000000E+00 0.  1.
         -1    1    1    2    0  502  0.20003626602E+02 -0.37071282622E+02 -0.35889709123E+03  0.36136068846E+03  0.00000000000E+00 0. -1.
<mgrwt>
<rscale>  1 0.30000000E+03</rscale>
<asrwt>0</asrwt>
<pdfrwt beam="1">  1       21 0.70246959E-02 0.30000000E+03</pdfrwt>
<pdfrwt beam="2">0</pdfrwt>
<totfact> 0.16036681E+04</totfact>
</mgrwt>
</event>
<event>
 6    1  0.1295671E-001  0.3000000E+03  0.7818608E-02  0.1093470E+00
         21   -1    0    0  501  502  0.00000000000E+00  0.00000000000E+00  0.10856343026E+01  0.10856343026E+01  0.00000000000E+00 0. -1.
         13   -1    0    0    0    0 -0.00000000000E+00 -0.00000000000E+00 -0.10000000000E+04  0.10000000000E+04  0.00000000000E+00 0.  1.
    9000005    2    1    2  501    0 -0.27973699340E+02  0.12699400943E+02 -0.32238515750E+03  0.32385925252E+03  0.29703580548E+01 0.  0.
         13    1    3    3    0    0 -0.63420056890E+01  0.31398761013E+01 -0.87933080949E+02  0.88217382546E+02  0.00000000000E+00 0.  1.
          3    1    3    3  501    0 -0.21631693651E+02  0.95595248415E+01 -0.23445207655E+03  0.23564186997E+03  0.00000000000E+00 0.  1.
         -1    1    1    2    0  502  0.27973699340E+02 -0.12699400943E+02 -0.67652920820E+03  0.67722638179E+03  0.00000000000E+00 0. -1.
<mgrwt>
<rscale>  1 0.30000000E+03</rscale>
<asrwt>0</asrwt>
<pdfrwt beam="1">  1       21 0.39477694E-02 0.30000000E+03</pdfrwt>
<pdfrwt beam="2">0</pdfrwt>
<totfact> 0.42988079E+04</totfact>
</mgrwt>
</event>
<event>
 6    1  0.1295671E-001  0.3000000E+03  0.7818608E-02  0.1093470E+00
         21   -1    0    0  501  502  0.00000000000E+00  0.00000000000E+00  0.84917437698E+01  0.84917437698E+01  0.00000000000E+00 0. -1.
         13   -1    0    0    0    0 -0.00000000000E+00 -0.00000000000E+00 -0.10000000000E+04  0.10000000000E+04  0.00000000000E+00 0.  1.
    9000005    2    1    2  501    0 -0.23948689986E+02 -0.29023503588E+02 -0.95602773934E+03  0.95677355943E+03  0.32714106430E+01 0.  0.
         13    1    3    3    0    0 -0.20347970027E+01 -0.31892690457E+01 -0.12039067503E+03  0.12045009950E+03  0.00000000000E+00 0.  1.
          1    1    3    3  501    0 -0.21913892983E+02 -0.25834234543E+02 -0.83563706431E+03  0.83632345993E+03  0.00000000000E+00 0.  1.
         -1    1    1    2    0  502  0.23948689986E+02  0.29023503588E+02 -0.35480516895E+02  0.51718184342E+02  0.00000000000E+00 0. -1.
<mgrwt>
<rscale>  1 0.30000000E+03</rscale>
<asrwt>0</asrwt>
<pdfrwt beam="1">  1       21 0.30879133E-01 0.30000000E+03</pdfrwt>
<pdfrwt beam="2">0</pdfrwt>
<totfact> 0.10261092E+03</totfact>
</mgrwt>
</event>
<event>
 6    1  0.1295671E-001  0.3000000E+03  0.7818608E-02  0.1093470E+00
         21   -1    0    0  501  502  0.00000000000E+00  0.00000000000E+00  0.24024811952E+01  0.24024811952E+01  0.00000000000E+00 0. -1.
         13   -1    0    0    0    0 -0.00000000000E+00 -0.00000000000E+00 -0.10000000000E+04  0.10000000000E+04  0.00000000000E+00 0.  1.
    9000005    2    1    2  501    0  0.11534602926E+02 -0.35206780925E+02 -0.82666382061E+03  0.82749995501E+03  0.32463435890E+01 0.  0.
         13    1    3    3    0    0  0.12291864727E+01 -0.47928758924E+01 -0.88898572643E+02  0.89036165554E+02  0.00000000000E+00 0.  1.
          3    1    3    3  501    0  0.10305416454E+02 -0.30413905032E+02 -0.73776524797E+03  0.73846378946E+03  0.00000000000E+00 0.  1.
         -3    1    1    2    0  502 -0.11534602926E+02  0.35206780925E+02 -0.17093369819E+03  0.17490252618E+03  0.00000000000E+00 0. -1.
<mgrwt>
<rscale>  1 0.30000000E+03</rscale>
<asrwt>0</asrwt>
<pdfrwt beam="1">  1       21 0.87363137E-02 0.30000000E+03</pdfrwt>
<pdfrwt beam="2">0</pdfrwt>
<totfact> 0.10938738E+04</totfact>
</mgrwt>
</event>
<event>
 6    1  0.1295671E-001  0.3000000E+03  0.7818608E-02  0.1093470E+00
         21   -1    0    0  501  502  0.00000000000E+00  0.00000000000E+00  0.24841162065E+01  0.24841162065E+01  0.00000000000E+00 0. -1.
         13   -1    0    0    0    0 -0.00000000000E+00 -0.00000000000E+00 -0.10000000000E+04  0.10000000000E+04  0.00000000000E+00 0.  1.
    9000005    2    1    2  501    0 -0.20222474610E+02  0.30154737686E+02 -0.84189970487E+03  0.84268845973E+03  0.32358038560E+01 0.  0.
         13    1    3    3    0    0 -0.12838171526E+02  0.21633981616E+02 -0.56826191813E+03  0.56881847315E+03  0.00000000000E+00 0.  1.
          1    1    3    3  501    0 -0.73843030841E+01  0.85207560709E+01 -0.27363778674E+03  0.27386998658E+03  0.00000000000E+00 0.  1.
         -3    1    1    2    0  502  0.20222474610E+02 -0.30154737686E+02 -0.15561617893E+03  0.15979565647E+03  0.00000000000E+00 0. -1.
<mgrwt>
<rscale>  1 0.30000000E+03</rscale>
<asrwt>0</asrwt>
<pdfrwt beam="1">  1       21 0.90331689E-02 0.30000000E+03</pdfrwt>
<pdfrwt beam="2">0</pdfrwt>
<totfact> 0.10310661E+04</totfact>
</mgrwt>
</event>
<event>
 6    1  0.1295671E-001  0.3000000E+03  0.7818608E-02  0.1093470E+00
         21   -1    0    0  501  502  0.00000000000E+00  0.00000000000E+00  0.13439929951E+01  0.13439929951E+01  0.00000000000E+00 0. -1.
         13   -1    0    0    0    0 -0.00000000000E+00 -0.00000000000E+00 -0.10000000000E+04  0.10000000000E+04  0.00000000000E+00 0.  1.
    9000005    2    1    2  501    0  0.42781205532E+01 -0.35348858116E+02 -0.61447069834E+03  0.61551217020E+03  0.36260809752E+01 0.  0.
         13    1    3    3    0    0  0.87327357694E+00 -0.29718701100E+01 -0.40007767138E+02  0.40127497431E+02  0.00000000000E+00 0.  1.
          1    1    3    3  501    0  0.34048469763E+01 -0.32376988006E+02 -0.57446293120E+03  0.57538467277E+03  0.00000000000E+00 0.  1.
         -1    1    1    2    0  502 -0.42781205532E+01  0.35348858116E+02 -0.38418530866E+03  0.38583182279E+03  0.00000000000E+00 0. -1.
<mgrwt>
<rscale>  1 0.30000000E+03</rscale>
<asrwt>0</asrwt>
<pdfrwt beam="1">  1       21 0.48872576E-02 0.30000000E+03</pdfrwt>
<pdfrwt beam="2">0</pdfrwt>
<totfact> 0.29945973E+04</totfact>
</mgrwt>
</event>
<event>
 6    1  0.1295671E-001  0.3000000E+03  0.7818608E-02  0.1093470E+00
         21   -1    0    0  501  502  0.00000000000E+00  0.00000000000E+00  0.18562167102E+01  0.18562167102E+01  0.00000000000E+00 0. -1.
         13   -1    0    0    0    0 -0.00000000000E+00 -0.00000000000E+00 -0.10000000000E+04  0.10000000000E+04  0.00000000000E+00 0.  1.
    9000005    2    1    2  501    0  0.31031936175E+02  0.17209868644E+02 -0.78257833674E+03  0.78338969207E+03  0.33757766229E+01 0.  0.
         13    1    3    3    0    0  0.16595835945E+02  0.11055910708E+02 -0.42846323003E+03  0.42892702692E+03  0.00000000000E+00 0.  1.
          1    1    3    3  501    0  0.14436100230E+02  0.61539579353E+01 -0.35411510671E+03  0.35446266515E+03  0.00000000000E+00 0.  1.
         -3    1    1    2    0  502 -0.31031936175E+02 -0.17209868644E+02 -0.21556544655E+03  0.21846652464E+03  0.00000000000E+00 0. -1.
<mgrwt>
<rscale>  1 0.30000000E+03</rscale>
<asrwt>0</asrwt>
<pdfrwt beam="1">  1       21 0.67498932E-02 0.30000000E+03</pdfrwt>
<pdfrwt beam="2">0</pdfrwt>
<totfact> 0.17188478E+04</totfact>
</mgrwt>
</event>
<event>
 6    1  0.1295671E-001  0.3000000E+03  0.7818608E-02  0.1093470E+00
         21   -1    0    0  501  502  0.00000000000E+00  0.00000000000E+00  0.12849921195E+01  0.12849921195E+01  0.00000000000E+00 0. -1.
         13   -1    0    0    0    0 -0.00000000000E+00 -0.00000000000E+00 -0.10000000000E+04  0.10000000000E+04  0.00000000000E+00 0.  1.
    9000005    2    1    2  501    0  0.28114273042E+02  0.16265972768E+02 -0.69829182377E+03  0.69911106245E+03  0.94769342082E+01 0.  0.
         13    1    3    3    0    0  0.72375441067E+01 -0.15434022410E+00 -0.16306382996E+03  0.16322444213E+03  0.00000000000E+00 0.  1.
          1    1    3    3  501    0  0.20876728935E+02  0.16420312992E+02 -0.53522799381E+03  0.53588662033E+03  0.00000000000E+00 0.  1.
         -1    1    1    2    0  502 -0.28114273042E+02 -0.16265972768E+02 -0.30042318411E+03  0.30217392966E+03  0.00000000000E+00 0. -1.
<mgrwt>
<rscale>  1 0.30000000E+03</rscale>
<asrwt>0</asrwt>
<pdfrwt beam="1">  1       21 0.46727085E-02 0.30000000E+03</pdfrwt>
<pdfrwt beam="2">0</pdfrwt>
<totfact> 0.32322764E+04</totfact>
</mgrwt>
</event>
<event>
 6    1  0.1295671E-001  0.3000000E+03  0.7818608E-02  0.1093470E+00
         21   -1    0    0  501  502  0.00000000000E+00  0.00000000000E+00  0.57939209540E+01  0.57939209540E+01  0.00000000000E+00 0. -1.
         13   -1    0    0    0    0 -0.00000000000E+00 -0.00000000000E+00 -0.10000000000E+04  0.10000000000E+04  0.00000000000E+00 0.  1.
    9000005    2    1    2  501    0 -0.47220835441E+02 -0.11741996086E+02 -0.88373913287E+03  0.88508506474E+03  0.36104129206E+01 0.  0.
         13    1    3    3    0    0 -0.17583496189E+02 -0.30443277749E+01 -0.34509276806E+03  0.34555385374E+03  0.00000000000E+00 0.  1.
          1    1    3    3  501    0 -0.29637339252E+02 -0.86976683113E+01 -0.53864636481E+03  0.53953121100E+03  0.00000000000E+00 0.  1.
         -1    1    1    2    0  502  0.47220835441E+02  0.11741996086E+02 -0.11046694617E+03  0.12070885621E+03  0.00000000000E+00 0. -1.
<mgrwt>
<rscale>  1 0.30000000E+03</rscale>
<asrwt>0</asrwt>
<pdfrwt beam="1">  1       21 0.21068848E-01 0.30000000E+03</pdfrwt>
<pdfrwt beam="2">0</pdfrwt>
<totfact> 0.21717520E+03</totfact>
</mgrwt>
</event>
<event>
 6    1  0.1295671E-001  0.3000000E+03  0.7818608E-02  0.1093470E+00
         21   -1    0    0  501  502  0.00000000000E+00  0.00000000000E+00  0.18130207688E+01  0.18130207688E+01  0.00000000000E+00 0. -1.
         13   -1    0    0    0    0 -0.00000000000E+00 -0.00000000000E+00 -0.10000000000E+04  0.10000000000E+04  0.00000000000E+00 0.  1.
    9000005    2    1    2  501    0 -0.26562806988E+02 -0.13960452785E+02 -0.85415972872E+03  0.85469291390E+03  0.32646495265E+01 0.  0.
         13    1    3    3    0    0 -0.17421271827E+02 -0.75530535664E+01 -0.55708732624E+03  0.55741083448E+03  0.00000000000E+00 0.  1.
          3    1    3    3  501    0 -0.91415351605E+01 -0.64073992182E+01 -0.29707240248E+03  0.29728207942E+03  0.00000000000E+00 0.  1.
         -3    1    1    2    0  502  0.26562806988E+02  0.13960452785E+02 -0.14402725051E+03  0.14712010687E+03  0.00000000000E+00 0. -1.
<mgrwt>
<rscale>  1 0.30000000E+03</rscale>
<asrwt>0</asrwt>
<pdfrwt beam="1">  1       21 0.65928167E-02 0.30000000E+03</pdfrwt>
<pdfrwt beam="2">0</pdfrwt>
<totfact> 0.17904875E+04</totfact>
</mgrwt>
</event>
<event>
 6    1  0.1295671E-001  0.3000000E+03  0.7818608E-02  0.1093470E+00
         21   -1    0    0  501  502  0.00000000000E+00  0.00000000000E+00  0.16786513253E+01  0.16786513253E+01  0.00000000000E+00 0. -1.
         13   -1    0    0    0    0 -0.00000000000E+00 -0.00000000000E+00 -0.10000000000E+04  0.10000000000E+04  0.00000000000E+00 0.  1.
    9000005    2    1    2  501    0 -0.20344417144E+02 -0.25378622059E+02 -0.80326511136E+03  0.80392904834E+03  0.30175926754E+01 0.  0.
         13    1    3    3    0    0 -0.14712379024E+02 -0.19288118067E+02 -0.56821691756E+03  0.56873451715E+03  0.00000000000E+00 0.  1.
          3    1    3    3  501    0 -0.56320381198E+01 -0.60905039923E+01 -0.23504819380E+03  0.23519453119E+03  0.00000000000E+00 0.  1.
         -3    1    1    2    0  502  0.20344417144E+02  0.25378622059E+02 -0.19505623731E+03  0.19774960299E+03  0.00000000000E+00 0. -1.
<mgrwt>
<rscale>  1 0.30000000E+03</rscale>
<asrwt>0</asrwt>
<pdfrwt beam="1">  1       21 0.61041995E-02 0.30000000E+03</pdfrwt>
<pdfrwt beam="2">0</pdfrwt>
<totfact> 0.20454948E+04</totfact>
</mgrwt>
</event>
<event>
 6    1  0.1295671E-001  0.3000000E+03  0.7818608E-02  0.1093470E+00
         21   -1    0    0  501  502  0.00000000000E+00  0.00000000000E+00  0.92823208109E+01  0.92823208109E+01  0.00000000000E+00 0. -1.
         13   -1    0    0    0    0 -0.00000000000E+00 -0.00000000000E+00 -0.10000000000E+04  0.10000000000E+04  0.00000000000E+00 0.  1.
    9000005    2    1    2  501    0  0.41931653135E+02  0.78212947704E+02 -0.69161123767E+03  0.69728842331E+03  0.30842307980E+01 0.  0.
         13    1    3    3    0    0  0.76974962120E+00  0.17938391186E+01 -0.18866216287E+02  0.18966931493E+02  0.00000000000E+00 0.  1.
          1    1    3    3  501    0  0.41161903513E+02  0.76419108585E+02 -0.67274502138E+03  0.67832149181E+03  0.00000000000E+00 0.  1.
         -1    1    1    2    0  502 -0.41931653135E+02 -0.78212947704E+02 -0.29910644152E+03  0.31199389751E+03  0.00000000000E+00 0. -1.
<mgrwt>
<rscale>  1 0.30000000E+03</rscale>
<asrwt>0</asrwt>
<pdfrwt beam="1">  1       21 0.33753965E-01 0.30000000E+03</pdfrwt>
<pdfrwt beam="2">0</pdfrwt>
<totfact> 0.85691120E+02</totfact>
</mgrwt>
</event>
<event>
 6    1  0.1295671E-001  0.3000000E+03  0.7818608E-02  0.1093470E+00
         21   -1    0    0  501  502  0.00000000000E+00  0.00000000000E+00  0.13303616804E+01  0.13303616804E+01  0.00000000000E+00 0. -1.
         13   -1    0    0    0    0 -0.00000000000E+00 -0.00000000000E+00 -0.10000000000E+04  0.10000000000E+04  0.00000000000E+00 0.  1.
    9000005    2    1    2  501    0 -0.34249970053E+02 -0.24691151542E+01 -0.66619757237E+03  0.66708968251E+03  0.32065707134E+01 0.  0.
         13    1    3    3    0    0 -0.12154325524E+02 -0.11183876647E+01 -0.26691289445E+03  0.26719182556E+03  0.00000000000E+00 0.  1.
          1    1    3    3  501    0 -0.22095644529E+02 -0.13507274894E+01 -0.39928467792E+03  0.39989785695E+03  0.00000000000E+00 0.  1.
         -1    1    1    2    0  502  0.34249970053E+02  0.24691151542E+01 -0.33247206595E+03  0.33424067917E+03  0.00000000000E+00 0. -1.
<mgrwt>
<rscale>  1 0.30000000E+03</rscale>
<asrwt>0</asrwt>
<pdfrwt beam="1">  1       21 0.48376890E-02 0.30000000E+03</pdfrwt>
<pdfrwt beam="2">0</pdfrwt>
<totfact> 0.30470248E+04</totfact>
</mgrwt>
</event>
<event>
 6    1  0.1295671E-001  0.3000000E+03  0.7818608E-02  0.1093470E+00
         21   -1    0    0  501  502  0.00000000000E+00  0.00000000000E+00  0.12396166391E+01  0.12396166391E+01  0.00000000000E+00 0. -1.
         13   -1    0    0    0    0 -0.00000000000E+00 -0.00000000000E+00 -0.10000000000E+04  0.10000000000E+04  0.00000000000E+00 0.  1.
    9000005    2    1    2  501    0  0.31068601850E+02  0.16376562177E+02 -0.50809022005E+03  0.50931415585E+03  0.34333407125E+01 0.  0.
         13    1    3    3    0    0  0.15400230108E+02  0.67661246196E+01 -0.22509630559E+03  0.22572393386E+03  0.00000000000E+00 0.  1.
          3    1    3    3  501    0  0.15668371742E+02  0.96104375574E+01 -0.28299391446E+03  0.28359022198E+03  0.00000000000E+00 0.  1.
         -3    1    1    2    0  502 -0.31068601850E+02 -0.16376562177E+02 -0.49067016331E+03  0.49192546079E+03  0.00000000000E+00 0. -1.
<mgrwt>
<rscale>  1 0.30000000E+03</rscale>
<asrwt>0</asrwt>
<pdfrwt beam="1">  1       21 0.45077064E-02 0.30000000E+03</pdfrwt>
<pdfrwt beam="2">0</pdfrwt>
<totfact> 0.34358277E+04</totfact>
</mgrwt>
</event>
<event>
 6    1  0.1295671E-001  0.3000000E+03  0.7818608E-02  0.1093470E+00
         21   -1    0    0  501  502  0.00000000000E+00  0.00000000000E+00  0.14508664204E+01  0.14508664204E+01  0.00000000000E+00 0. -1.
         13   -1    0    0    0    0 -0.00000000000E+00 -0.00000000000E+00 -0.10000000000E+04  0.10000000000E+04  0.00000000000E+00 0.  1.
    9000005    2    1    2  501    0 -0.37375695294E+02 -0.63790284570E+01 -0.46070784266E+03  0.46227474601E+03  0.29308544001E+01 0.  0.
         13    1    3    3    0    0 -0.11731309906E+02 -0.22452806635E+01 -0.12930991093E+03  0.12986037880E+03  0.00000000000E+00 0.  1.
          3    1    3    3  501    0 -0.25644385388E+02 -0.41337477935E+01 -0.33139793172E+03  0.33241436721E+03  0.00000000000E+00 0.  1.
         -3    1    1    2    0  502  0.37375695294E+02  0.63790284570E+01 -0.53784129092E+03  0.53917612041E+03  0.00000000000E+00 0. -1.
<mgrwt>
<rscale>  1 0.30000000E+03</rscale>
<asrwt>0</asrwt>
<pdfrwt beam="1">  1       21 0.52758890E-02 0.30000000E+03</pdfrwt>
<pdfrwt beam="2">0</pdfrwt>
<totfact> 0.26280988E+04</totfact>
</mgrwt>
</event>
<event>
 6    1  0.1295671E-001  0.3000000E+03  0.7818608E-02  0.1093470E+00
         21   -1    0    0  501  502  0.00000000000E+00  0.00000000000E+00  0.14348493281E+01  0.14348493281E+01  0.00000000000E+00 0. -1.
         13   -1    0    0    0    0 -0.00000000000E+00 -0.00000000000E+00 -0.10000000000E+04  0.10000000000E+04  0.00000000000E+00 0.  1.
    9000005    2    1    2  501    0 -0.12528925252E+02  0.29988715610E+02 -0.75566679517E+03  0.75637177962E+03  0.31091225207E+01 0.  0.
         13    1    3    3    0    0 -0.79034115407E+01  0.21584616890E+02 -0.55508233192E+03  0.55555805710E+03  0.00000000000E+00 0.  1.
          3    1    3    3  501    0 -0.46255137113E+01  0.84040987192E+01 -0.20058446326E+03  0.20081372252E+03  0.00000000000E+00 0.  1.
         -3    1    1    2    0  502  0.12528925252E+02 -0.29988715610E+02 -0.24289835550E+03  0.24506306971E+03  0.00000000000E+00 0. -1.
<mgrwt>
<rscale>  1 0.30000000E+03</rscale>
<asrwt>0</asrwt>
<pdfrwt beam="1">  1       21 0.52176449E-02 0.30000000E+03</pdfrwt>
<pdfrwt beam="2">0</pdfrwt>
<totfact> 0.26784417E+04</totfact>
</mgrwt>
</event>
<event>
 6    1  0.1295671E-001  0.3000000E+03  0.7818608E-02  0.1093470E+00
         21   -1    0    0  501  502  0.00000000000E+00  0.00000000000E+00  0.18068256121E+01  0.18068256121E+01  0.00000000000E+00 0. -1.
         13   -1    0    0    0    0 -0.00000000000E+00 -0.00000000000E+00 -0.10000000000E+04  0.10000000000E+04  0.00000000000E+00 0.  1.
    9000005    2    1    2  501    0 -0.25875612712E+02  0.19577355008E+02 -0.82232400683E+03  0.82296951334E+03  0.30376832478E+01 0.  0.
         13    1    3    3    0    0 -0.22494032182E+02  0.18198844160E+02 -0.72643525063E+03  0.72701124666E+03  0.00000000000E+00 0.  1.
          3    1    3    3  501    0 -0.33815805307E+01  0.13785108481E+01 -0.95888756196E+02  0.95958266678E+02  0.00000000000E+00 0.  1.
         -1    1    1    2    0  502  0.25875612712E+02 -0.19577355008E+02 -0.17586916756E+03  0.17883731227E+03  0.00000000000E+00 0. -1.
<mgrwt>
<rscale>  1 0.30000000E+03</rscale>
<asrwt>0</asrwt>
<pdfrwt beam="1">  1       21 0.65702888E-02 0.30000000E+03</pdfrwt>
<pdfrwt beam="2">0</pdfrwt>
<totfact> 0.18011381E+04</totfact>
</mgrwt>
</event>
<event>
 6    1  0.1295671E-001  0.3000000E+03  0.7818608E-02  0.1093470E+00
         21   -1    0    0  501  502  0.00000000000E+00  0.00000000000E+00  0.30015376345E+01  0.30015376345E+01  0.00000000000E+00 0. -1.
         13   -1    0    0    0    0 -0.00000000000E+00 -0.00000000000E+00 -0.10000000000E+04  0.10000000000E+04  0.00000000000E+00 0.  1.
    9000005    2    1    2  501    0 -0.30233887841E+02 -0.43410272109E+02 -0.62766802199E+03  0.62990166644E+03  0.32285994485E+01 0.  0.
         13    1    3    3    0    0 -0.24217880935E+02 -0.34824938152E+02 -0.48727384102E+03  0.48911663049E+03  0.00000000000E+00 0.  1.
          1    1    3    3  501    0 -0.60160069064E+01 -0.85853339569E+01 -0.14039418097E+03  0.14078503595E+03  0.00000000000E+00 0.  1.
         -1    1    1    2    0  502  0.30233887841E+02  0.43410272109E+02 -0.36933044038E+03  0.37309987120E+03  0.00000000000E+00 0. -1.
<mgrwt>
<rscale>  1 0.30000000E+03</rscale>
<asrwt>0</asrwt>
<pdfrwt beam="1">  1       21 0.10914705E-01 0.30000000E+03</pdfrwt>
<pdfrwt beam="2">0</pdfrwt>
<totfact> 0.73542675E+03</totfact>
</mgrwt>
</event>
<event>
 6    1  0.1295671E-001  0.3000000E+03  0.7818608E-02  0.1093470E+00
         21   -1    0    0  501  502  0.00000000000E+00  0.00000000000E+00  0.19742370271E+01  0.19742370271E+01  0.00000000000E+00 0. -1.
         13   -1    0    0    0    0 -0.00000000000E+00 -0.00000000000E+00 -0.10000000000E+04  0.10000000000E+04  0.00000000000E+00 0.  1.
    9000005    2    1    2  501    0 -0.42787542529E+02  0.20916391851E+01 -0.36908294450E+03  0.37157419129E+03  0.31640110226E+01 0.  0.
         13    1    3    3    0    0 -0.33976177717E+02  0.25023095205E+01 -0.30118101945E+03  0.30310171342E+03  0.00000000000E+00 0.  1.
          3    1    3    3  501    0 -0.88113648118E+01 -0.41067033546E+00 -0.67901925052E+02  0.68472477871E+02  0.00000000000E+00 0.  1.
         -1    1    1    2    0  502  0.42787542529E+02 -0.20916391851E+01 -0.62894281847E+03  0.63040004573E+03  0.00000000000E+00 0. -1.
<mgrwt>
<rscale>  1 0.30000000E+03</rscale>
<asrwt>0</asrwt>
<pdfrwt beam="1">  1       21 0.71790589E-02 0.30000000E+03</pdfrwt>
<pdfrwt beam="2">0</pdfrwt>
<totfact> 0.15440664E+04</totfact>
</mgrwt>
</event>
<event>
 6    1  0.1295671E-001  0.3000000E+03  0.7818608E-02  0.1093470E+00
         21   -1    0    0  501  502  0.00000000000E+00  0.00000000000E+00  0.17353268573E+02  0.17353268573E+02  0.00000000000E+00 0. -1.
         13   -1    0    0    0    0 -0.00000000000E+00 -0.00000000000E+00 -0.10000000000E+04  0.10000000000E+04  0.00000000000E+00 0.  1.
    9000005    2    1    2  501    0 -0.19052859020E+02 -0.77088845345E+02 -0.89716924164E+03  0.90068235200E+03  0.32170708553E+01 0.  0.
         13    1    3    3    0    0 -0.16897614120E+02 -0.70992491508E+02 -0.83080752291E+03  0.83400635690E+03  0.00000000000E+00 0.  1.
          1    1    3    3  501    0 -0.21552448997E+01 -0.60963538363E+01 -0.66361718729E+02  0.66675995106E+02  0.00000000000E+00 0.  1.
         -1    1    1    2    0  502  0.19052859020E+02  0.77088845345E+02 -0.85477489783E+02  0.11667091657E+03  0.00000000000E+00 0. -1.
<mgrwt>
<rscale>  1 0.30000000E+03</rscale>
<asrwt>0</asrwt>
<pdfrwt beam="1">  1       21 0.63102928E-01 0.30000000E+03</pdfrwt>
<pdfrwt beam="2">0</pdfrwt>
<totfact> 0.22406310E+02</totfact>
</mgrwt>
</event>
<event>
 6    1  0.1295671E-001  0.3000000E+03  0.7818608E-02  0.1093470E+00
         21   -1    0    0  501  502  0.00000000000E+00  0.00000000000E+00  0.13886693939E+01  0.13886693939E+01  0.00000000000E+00 0. -1.
         13   -1    0    0    0    0 -0.00000000000E+00 -0.00000000000E+00 -0.10000000000E+04  0.10000000000E+04  0.00000000000E+00 0.  1.
    9000005    2    1    2  501    0  0.25696165380E+02 -0.20914094664E+02 -0.72740196489E+03  0.72816309899E+03  0.31918541579E+01 0.  0.
         13    1    3    3    0    0  0.21944698820E+02 -0.17590001979E+02 -0.59042292482E+03  0.59109238544E+03  0.00000000000E+00 0.  1.
          1    1    3    3  501    0  0.37514665597E+01 -0.33240926851E+01 -0.13697904007E+03  0.13707071355E+03  0.00000000000E+00 0.  1.
         -3    1    1    2    0  502 -0.25696165380E+02  0.20914094664E+02 -0.27120936572E+03  0.27322557040E+03  0.00000000000E+00 0. -1.
<mgrwt>
<rscale>  1 0.30000000E+03</rscale>
<asrwt>0</asrwt>
<pdfrwt beam="1">  1       21 0.50497175E-02 0.30000000E+03</pdfrwt>
<pdfrwt beam="2">0</pdfrwt>
<totfact> 0.28322757E+04</totfact>
</mgrwt>
</event>
<event>
 6    1  0.1295671E-001  0.3000000E+03  0.7818608E-02  0.1093470E+00
         21   -1    0    0  501  502  0.00000000000E+00  0.00000000000E+00  0.15366169011E+01  0.15366169011E+01  0.00000000000E+00 0. -1.
         13   -1    0    0    0    0 -0.00000000000E+00 -0.00000000000E+00 -0.10000000000E+04  0.10000000000E+04  0.00000000000E+00 0.  1.
    9000005    2    1    2  501    0 -0.26955472591E+02  0.14671195703E+02 -0.81042275889E+03  0.81100809452E+03  0.26906825309E+01 0.  0.
         13    1    3    3    0    0 -0.15107893399E+02  0.93503508374E+01 -0.49130475661E+03  0.49162591609E+03  0.00000000000E+00 0.  1.
          3    1    3    3  501    0 -0.11847579192E+02  0.53208448653E+01 -0.31911800228E+03  0.31938217843E+03  0.00000000000E+00 0.  1.
         -1    1    1    2    0  502  0.26955472591E+02 -0.14671195703E+02 -0.18804062421E+03  0.19052852238E+03  0.00000000000E+00 0. -1.
<mgrwt>
<rscale>  1 0.30000000E+03</rscale>
<asrwt>0</asrwt>
<pdfrwt beam="1">  1       21 0.55877096E-02 0.30000000E+03</pdfrwt>
<pdfrwt beam="2">0</pdfrwt>
<totfact> 0.23818741E+04</totfact>
</mgrwt>
</event>
<event>
 6    1  0.1295671E-001  0.3000000E+03  0.7818608E-02  0.1093470E+00
         21   -1    0    0  501  502  0.00000000000E+00  0.00000000000E+00  0.17563675446E+01  0.17563675446E+01  0.00000000000E+00 0. -1.
         13   -1    0    0    0    0 -0.00000000000E+00 -0.00000000000E+00 -0.10000000000E+04  0.10000000000E+04  0.00000000000E+00 0.  1.
    9000005    2    1    2  501    0  0.41605944760E+02 -0.26329448668E+01 -0.54324513451E+03  0.54485197911E+03  0.32273725616E+01 0.  0.
         13    1    3    3    0    0  0.34385665262E+02 -0.28859791799E+01 -0.43552193651E+03  0.43688678171E+03  0.00000000000E+00 0.  1.
          1    1    3    3  501    0  0.72202794978E+01  0.25303431314E+00 -0.10772319800E+03  0.10796519740E+03  0.00000000000E+00 0.  1.
         -3    1    1    2    0  502 -0.41605944760E+02  0.26329448668E+01 -0.45499849795E+03  0.45690438844E+03  0.00000000000E+00 0. -1.
<mgrwt>
<rscale>  1 0.30000000E+03</rscale>
<asrwt>0</asrwt>
<pdfrwt beam="1">  1       21 0.63868045E-02 0.30000000E+03</pdfrwt>
<pdfrwt beam="2">0</pdfrwt>
<totfact> 0.18916490E+04</totfact>
</mgrwt>
</event>
<event>
 6    1  0.1295671E-001  0.3000000E+03  0.7818608E-02  0.1093470E+00
         21   -1    0    0  501  502  0.00000000000E+00  0.00000000000E+00  0.14117661968E+01  0.14117661968E+01  0.00000000000E+00 0. -1.
         13   -1    0    0    0    0 -0.00000000000E+00 -0.00000000000E+00 -0.10000000000E+04  0.10000000000E+04  0.00000000000E+00 0.  1.
    9000005    2    1    2  501    0  0.32724568221E+02 -0.14146106158E+02 -0.64952308910E+03  0.65053075370E+03  0.62456824839E+01 0.  0.
         13    1    3    3    0    0  0.16458280550E+01 -0.25164186328E+01 -0.51376058799E+02  0.51463973131E+02  0.00000000000E+00 0.  1.
          1    1    3    3  501    0  0.31078740166E+02 -0.11629687525E+02 -0.59814703030E+03  0.59906678057E+03  0.00000000000E+00 0.  1.
         -1    1    1    2    0  502 -0.32724568221E+02  0.14146106158E+02 -0.34906514471E+03  0.35088101250E+03  0.00000000000E+00 0. -1.
<mgrwt>
<rscale>  1 0.30000000E+03</rscale>
<asrwt>0</asrwt>
<pdfrwt beam="1">  1       21 0.51337061E-02 0.30000000E+03</pdfrwt>
<pdfrwt beam="2">0</pdfrwt>
<totfact> 0.27536682E+04</totfact>
</mgrwt>
</event>
<event>
 6    1  0.1295671E-001  0.3000000E+03  0.7818608E-02  0.1093470E+00
         21   -1    0    0  501  502  0.00000000000E+00  0.00000000000E+00  0.11348836254E+01  0.11348836254E+01  0.00000000000E+00 0. -1.
         13   -1    0    0    0    0 -0.00000000000E+00 -0.00000000000E+00 -0.10000000000E+04  0.10000000000E+04  0.00000000000E+00 0.  1.
    9000005    2    1    2  501    0 -0.24410432520E+01 -0.33459121253E+02 -0.47484082264E+03  0.47603781459E+03  0.35668733517E+01 0.  0.
         13    1    3    3    0    0 -0.28650049580E+01 -0.28491445637E+02 -0.38919567529E+03  0.39024767058E+03  0.00000000000E+00 0.  1.
          3    1    3    3  501    0  0.42396170597E+00 -0.49676756159E+01 -0.85645147349E+02  0.85790144009E+02  0.00000000000E+00 0.  1.
         -3    1    1    2    0  502  0.24410432520E+01  0.33459121253E+02 -0.52402429374E+03  0.52509706904E+03  0.00000000000E+00 0. -1.
<mgrwt>
<rscale>  1 0.30000000E+03</rscale>
<asrwt>0</asrwt>
<pdfrwt beam="1">  1       21 0.41268582E-02 0.30000000E+03</pdfrwt>
<pdfrwt beam="2">0</pdfrwt>
<totfact> 0.39891909E+04</totfact>
</mgrwt>
</event>
<event>
 6    1  0.1295671E-001  0.3000000E+03  0.7818608E-02  0.1093470E+00
         21   -1    0    0  501  502  0.00000000000E+00  0.00000000000E+00  0.46792126846E+02  0.46792126846E+02  0.00000000000E+00 0. -1.
         13   -1    0    0    0    0 -0.00000000000E+00 -0.00000000000E+00 -0.10000000000E+04  0.10000000000E+04  0.00000000000E+00 0.  1.
    9000005    2    1    2  501    0  0.18450564200E+03 -0.42917319721E+02 -0.72927601543E+03  0.75348391836E+03  0.32062884401E+01 0.  0.
         13    1    3    3    0    0  0.10127659831E+03 -0.24832807621E+02 -0.40538678634E+03  0.41858340178E+03  0.00000000000E+00 0.  1.
          1    1    3    3  501    0  0.83229043690E+02 -0.18084512100E+02 -0.32388922909E+03  0.33490051659E+03  0.00000000000E+00 0.  1.
         -1    1    1    2    0  502 -0.18450564200E+03  0.42917319721E+02 -0.22393185772E+03  0.29330820848E+03  0.00000000000E+00 0. -1.
<mgrwt>
<rscale>  1 0.30000000E+03</rscale>
<asrwt>0</asrwt>
<pdfrwt beam="1">  1       21 0.17015355E+00 0.30000000E+03</pdfrwt>
<pdfrwt beam="2">0</pdfrwt>
<totfact> 0.16188798E+01</totfact>
</mgrwt>
</event>
<event>
 6    1  0.1295671E-001  0.3000000E+03  0.7818608E-02  0.1093470E+00
         21   -1    0    0  501  502  0.00000000000E+00  0.00000000000E+00  0.15131296723E+01  0.15131296723E+01  0.00000000000E+00 0. -1.
         13   -1    0    0    0    0 -0.00000000000E+00 -0.00000000000E+00 -0.10000000000E+04  0.10000000000E+04  0.00000000000E+00 0.  1.
    9000005    2    1    2  501    0 -0.12088494960E+02 -0.29567787743E+02 -0.78379944467E+03  0.78446226808E+03  0.43697590037E+01 0.  0.
         13    1    3    3    0    0  0.23526362439E+00 -0.27157277988E+00 -0.42393241231E+01  0.42545234478E+01  0.00000000000E+00 0.  1.
          1    1    3    3  501    0 -0.12323758585E+02 -0.29296214963E+02 -0.77956012055E+03  0.78020774463E+03  0.00000000000E+00 0.  1.
         -1    1    1    2    0  502  0.12088494960E+02  0.29567787743E+02 -0.21468742566E+03  0.21705086159E+03  0.00000000000E+00 0. -1.
<mgrwt>
<rscale>  1 0.30000000E+03</rscale>
<asrwt>0</asrwt>
<pdfrwt beam="1">  1       21 0.55023013E-02 0.30000000E+03</pdfrwt>
<pdfrwt beam="2">0</pdfrwt>
<totfact> 0.24456600E+04</totfact>
</mgrwt>
</event>
<event>
 6    1  0.1295671E-001  0.3000000E+03  0.7818608E-02  0.1093470E+00
         21   -1    0    0  501  502  0.00000000000E+00  0.00000000000E+00  0.38415570724E+01  0.38415570724E+01  0.00000000000E+00 0. -1.
         13   -1    0    0    0    0 -0.00000000000E+00 -0.00000000000E+00 -0.10000000000E+04  0.10000000000E+04  0.00000000000E+00 0.  1.
    9000005    2    1    2  501    0  0.49228524772E+02 -0.29289639625E+02 -0.68920558103E+03  0.69158943128E+03  0.32059135739E+01 0.  0.
         13    1    3    3    0    0  0.41260488832E+02 -0.25881512006E+02 -0.58449751384E+03  0.58652333653E+03  0.00000000000E+00 0.  1.
          3    1    3    3  501    0  0.79680359399E+01 -0.34081276185E+01 -0.10470806719E+03  0.10506609475E+03  0.00000000000E+00 0.  1.
         -3    1    1    2    0  502 -0.49228524772E+02  0.29289639625E+02 -0.30695286189E+03  0.31225212580E+03  0.00000000000E+00 0. -1.
<mgrwt>
<rscale>  1 0.30000000E+03</rscale>
<asrwt>0</asrwt>
<pdfrwt beam="1">  1       21 0.13969328E-01 0.30000000E+03</pdfrwt>
<pdfrwt beam="2">0</pdfrwt>
<totfact> 0.46955590E+03</totfact>
</mgrwt>
</event>
<event>
 6    1  0.1295671E-001  0.3000000E+03  0.7818608E-02  0.1093470E+00
         21   -1    0    0  501  502  0.00000000000E+00  0.00000000000E+00  0.15240912205E+01  0.15240912205E+01  0.00000000000E+00 0. -1.
         13   -1    0    0    0    0 -0.00000000000E+00 -0.00000000000E+00 -0.10000000000E+04  0.10000000000E+04  0.00000000000E+00 0.  1.
    9000005    2    1    2  501    0  0.32966916114E+02  0.38262664169E+01 -0.76020082760E+03  0.76094879701E+03  0.60262356659E+01 0.  0.
         13    1    3    3    0    0  0.14707299027E+02 -0.82082325490E+00 -0.37061466006E+03  0.37090727231E+03  0.00000000000E+00 0.  1.
          1    1    3    3  501    0  0.18259617088E+02  0.46470896718E+01 -0.38958616754E+03  0.39004152470E+03  0.00000000000E+00 0.  1.
         -3    1    1    2    0  502 -0.32966916114E+02 -0.38262664169E+01 -0.23827508118E+03  0.24057529421E+03  0.00000000000E+00 0. -1.
<mgrwt>
<rscale>  1 0.30000000E+03</rscale>
<asrwt>0</asrwt>
<pdfrwt beam="1">  1       21 0.55421616E-02 0.30000000E+03</pdfrwt>
<pdfrwt beam="2">0</pdfrwt>
<totfact> 0.24155680E+04</totfact>
</mgrwt>
</event>
<event>
 6    1  0.1295671E-001  0.3000000E+03  0.7818608E-02  0.1093470E+00
         21   -1    0    0  501  502  0.00000000000E+00  0.00000000000E+00  0.15973221642E+01  0.15973221642E+01  0.00000000000E+00 0. -1.
         13   -1    0    0    0    0 -0.00000000000E+00 -0.00000000000E+00 -0.10000000000E+04  0.10000000000E+04  0.00000000000E+00 0.  1.
    9000005    2    1    2  501    0  0.23107144238E+02  0.28444181670E+02 -0.68747208499E+03  0.68851451338E+03  0.95580288439E+01 0.  0.
         13    1    3    3    0    0  0.16959797778E+02  0.13487833481E+02 -0.40789742906E+03  0.40847260498E+03  0.00000000000E+00 0.  1.
          3    1    3    3  501    0  0.61473464595E+01  0.14956348189E+02 -0.27957465593E+03  0.28004190840E+03  0.00000000000E+00 0.  1.
         -1    1    1    2    0  502 -0.23107144238E+02 -0.28444181670E+02 -0.31093059285E+03  0.31308280878E+03  0.00000000000E+00 0. -1.
<mgrwt>
<rscale>  1 0.30000000E+03</rscale>
<asrwt>0</asrwt>
<pdfrwt beam="1">  1       21 0.58084565E-02 0.30000000E+03</pdfrwt>
<pdfrwt beam="2">0</pdfrwt>
<totfact> 0.22283587E+04</totfact>
</mgrwt>
</event>
<event>
 6    1  0.1295671E-001  0.3000000E+03  0.7818608E-02  0.1093470E+00
         21   -1    0    0  501  502  0.00000000000E+00  0.00000000000E+00  0.95947238069E+00  0.95947238069E+00  0.00000000000E+00 0. -1.
         13   -1    0    0    0    0 -0.00000000000E+00 -0.00000000000E+00 -0.10000000000E+04  0.10000000000E+04  0.00000000000E+00 0.  1.
    9000005    2    1    2  501    0  0.30205740713E+02  0.26315412549E+01 -0.59598856824E+03  0.59676868360E+03  0.33431217513E+01 0.  0.
         13    1    3    3    0    0  0.21875629186E+02  0.94144349570E+00 -0.40583872603E+03  0.40642896183E+03  0.00000000000E+00 0.  1.
          3    1    3    3  501    0  0.83301115271E+01  0.16900977592E+01 -0.19014984221E+03  0.19033972177E+03  0.00000000000E+00 0.  1.
         -3    1    1    2    0  502 -0.30205740713E+02 -0.26315412549E+01 -0.40305195937E+03  0.40419078878E+03  0.00000000000E+00 0. -1.
<mgrwt>
<rscale>  1 0.30000000E+03</rscale>
<asrwt>0</asrwt>
<pdfrwt beam="1">  1       21 0.34889978E-02 0.30000000E+03</pdfrwt>
<pdfrwt beam="2">0</pdfrwt>
<totfact> 0.52894900E+04</totfact>
</mgrwt>
</event>
<event>
 6    1  0.1295671E-001  0.3000000E+03  0.7818608E-02  0.1093470E+00
         21   -1    0    0  501  502  0.00000000000E+00  0.00000000000E+00  0.19758891623E+01  0.19758891623E+01  0.00000000000E+00 0. -1.
         13   -1    0    0    0    0 -0.00000000000E+00 -0.00000000000E+00 -0.10000000000E+04  0.10000000000E+04  0.00000000000E+00 0.  1.
    9000005    2    1    2  501    0 -0.15030215605E+02  0.35984392625E+02 -0.73908303426E+03  0.74011473315E+03  0.23027781664E+01 0.  0.
         13    1    3    3    0    0 -0.48656275483E+01  0.14566121430E+02 -0.29109090891E+03  0.29149573492E+03  0.00000000000E+00 0.  1.
          1    1    3    3  501    0 -0.10164588057E+02  0.21418271195E+02 -0.44799212535E+03  0.44861899823E+03  0.00000000000E+00 0.  1.
         -1    1    1    2    0  502  0.15030215605E+02 -0.35984392625E+02 -0.25894107657E+03  0.26186115602E+03  0.00000000000E+00 0. -1.
<mgrwt>
<rscale>  1 0.30000000E+03</rscale>
<asrwt>0</asrwt>
<pdfrwt beam="1">  1       21 0.71850667E-02 0.30000000E+03</pdfrwt>
<pdfrwt beam="2">0</pdfrwt>
<totfact> 0.15418153E+04</totfact>
</mgrwt>
</event>
<event>
 6    1  0.1295671E-001  0.3000000E+03  0.7818608E-02  0.1093470E+00
         21   -1    0    0  501  502  0.00000000000E+00  0.00000000000E+00  0.44078971425E+01  0.44078971425E+01  0.00000000000E+00 0. -1.
         13   -1    0    0    0    0 -0.00000000000E+00 -0.00000000000E+00 -0.10000000000E+04  0.10000000000E+04  0.00000000000E+00 0.  1.
    9000005    2    1    2  501    0 -0.57424735567E+02  0.28884519470E+02 -0.37428649790E+03  0.37978595511E+03  0.38824562743E+01 0.  0.
         13    1    3    3    0    0 -0.45876262077E+02  0.24718768932E+02 -0.30530120707E+03  0.30971676738E+03  0.00000000000E+00 0.  1.
          3    1    3    3  501    0 -0.11548473491E+02  0.41657505378E+01 -0.68985290830E+02  0.70069187725E+02  0.00000000000E+00 0.  1.
         -3    1    1    2    0  502  0.57424735567E+02 -0.28884519470E+02 -0.62130560496E+03  0.62462194204E+03  0.00000000000E+00 0. -1.
<mgrwt>
<rscale>  1 0.30000000E+03</rscale>
<asrwt>0</asrwt>
<pdfrwt beam="1">  1       21 0.16028751E-01 0.30000000E+03</pdfrwt>
<pdfrwt beam="2">0</pdfrwt>
<totfact> 0.36404612E+03</totfact>
</mgrwt>
</event>
<event>
 6    1  0.1295671E-001  0.3000000E+03  0.7818608E-02  0.1093470E+00
         21   -1    0    0  501  502  0.00000000000E+00  0.00000000000E+00  0.27776852507E+01  0.27776852507E+01  0.00000000000E+00 0. -1.
         13   -1    0    0    0    0 -0.00000000000E+00 -0.00000000000E+00 -0.10000000000E+04  0.10000000000E+04  0.00000000000E+00 0.  1.
    9000005    2    1    2  501    0  0.32816675307E+02 -0.40169817970E+02 -0.58504718837E+03  0.58735153867E+03  0.33269969471E+01 0.  0.
         13    1    3    3    0    0  0.32706096698E+02 -0.40183804671E+02 -0.58180227473E+03  0.58410471133E+03  0.00000000000E+00 0.  1.
          3    1    3    3  501    0  0.11057860933E+00  0.13986700409E-01 -0.32449136416E+01  0.32468273434E+01  0.00000000000E+00 0.  1.
         -3    1    1    2    0  502 -0.32816675307E+02  0.40169817970E+02 -0.41217512638E+03  0.41542614658E+03  0.00000000000E+00 0. -1.
<mgrwt>
<rscale>  1 0.30000000E+03</rscale>
<asrwt>0</asrwt>
<pdfrwt beam="1">  1       21 0.10100695E-01 0.30000000E+03</pdfrwt>
<pdfrwt beam="2">0</pdfrwt>
<totfact> 0.84505033E+03</totfact>
</mgrwt>
</event>
<event>
 6    1  0.1295671E-001  0.3000000E+03  0.7818608E-02  0.1093470E+00
         21   -1    0    0  501  502  0.00000000000E+00  0.00000000000E+00  0.17926804429E+01  0.17926804429E+01  0.00000000000E+00 0. -1.
         13   -1    0    0    0    0 -0.00000000000E+00 -0.00000000000E+00 -0.10000000000E+04  0.10000000000E+04  0.00000000000E+00 0.  1.
    9000005    2    1    2  501    0 -0.30261374387E+02  0.27987878327E+02 -0.38845802242E+03  0.39065171678E+03  0.31712023398E+01 0.  0.
         13    1    3    3    0    0 -0.29623175397E+02  0.26596752691E+02 -0.37399367702E+03  0.37610662082E+03  0.00000000000E+00 0.  1.
          3    1    3    3  501    0 -0.63819899022E+00  0.13911256356E+01 -0.14464345402E+02  0.14545095957E+02  0.00000000000E+00 0.  1.
         -1    1    1    2    0  502  0.30261374387E+02 -0.27987878327E+02 -0.60974929714E+03  0.61114096367E+03  0.00000000000E+00 0. -1.
<mgrwt>
<rscale>  1 0.30000000E+03</rscale>
<asrwt>0</asrwt>
<pdfrwt beam="1">  1       21 0.65188517E-02 0.30000000E+03</pdfrwt>
<pdfrwt beam="2">0</pdfrwt>
<totfact> 0.18258256E+04</totfact>
</mgrwt>
</event>
<event>
 6    1  0.1295671E-001  0.3000000E+03  0.7818608E-02  0.1093470E+00
         21   -1    0    0  501  502  0.00000000000E+00  0.00000000000E+00  0.11194821975E+01  0.11194821975E+01  0.00000000000E+00 0. -1.
         13   -1    0    0    0    0 -0.00000000000E+00 -0.00000000000E+00 -0.10000000000E+04  0.10000000000E+04  0.00000000000E+00 0.  1.
    9000005    2    1    2  501    0  0.31096361411E+02 -0.11461327923E+02 -0.43654381110E+03  0.43780703121E+03  0.24802898572E+01 0.  0.
         13    1    3    3    0    0  0.16853149048E+01 -0.49836143930E+00 -0.31424703706E+02  0.31473809008E+02  0.00000000000E+00 0.  1.
          1    1    3    3  501    0  0.29411046506E+02 -0.10962966484E+02 -0.40511910739E+03  0.40633322220E+03  0.00000000000E+00 0.  1.
         -1    1    1    2    0  502 -0.31096361411E+02  0.11461327923E+02 -0.56233670671E+03  0.56331245099E+03  0.00000000000E+00 0. -1.
<mgrwt>
<rscale>  1 0.30000000E+03</rscale>
<asrwt>0</asrwt>
<pdfrwt beam="1">  1       21 0.40708529E-02 0.30000000E+03</pdfrwt>
<pdfrwt beam="2">0</pdfrwt>
<totfact> 0.40821699E+04</totfact>
</mgrwt>
</event>
<event>
 6    1  0.1295671E-001  0.3000000E+03  0.7818608E-02  0.1093470E+00
         21   -1    0    0  501  502  0.00000000000E+00  0.00000000000E+00  0.48541363803E+01  0.48541363803E+01  0.00000000000E+00 0. -1.
         13   -1    0    0    0    0 -0.00000000000E+00 -0.00000000000E+00 -0.10000000000E+04  0.10000000000E+04  0.00000000000E+00 0.  1.
    9000005    2    1    2  501    0  0.11126609380E+02  0.44551602639E+02 -0.87532804989E+03  0.87653829472E+03  0.33971241132E+01 0.  0.
         13    1    3    3    0    0  0.49131306987E+01  0.15752845901E+02 -0.33991090360E+03  0.34031120080E+03  0.00000000000E+00 0.  1.
          1    1    3    3  501    0  0.62134786817E+01  0.28798756738E+02 -0.53541714629E+03  0.53622709392E+03  0.00000000000E+00 0.  1.
         -3    1    1    2    0  502 -0.11126609380E+02 -0.44551602639E+02 -0.11981781373E+03  0.12831584166E+03  0.00000000000E+00 0. -1.
<mgrwt>
<rscale>  1 0.30000000E+03</rscale>
<asrwt>0</asrwt>
<pdfrwt beam="1">  1       21 0.17651442E-01 0.30000000E+03</pdfrwt>
<pdfrwt beam="2">0</pdfrwt>
<totfact> 0.30393407E+03</totfact>
</mgrwt>
</event>
<event>
 6    1  0.1167623E+000  0.3000000E+03  0.7818608E-02  0.1093470E+00
         21   -1    0    0  501  502  0.00000000000E+00  0.00000000000E+00  0.13922022946E+01  0.13922022946E+01  0.00000000000E+00 0. -1.
         13   -1    0    0    0    0 -0.00000000000E+00 -0.00000000000E+00 -0.10000000000E+04  0.10000000000E+04  0.00000000000E+00 0.  1.
    9000005    2    1    2  501    0  0.24645810041E+02  0.19765642852E+02 -0.23556324569E+03  0.23769390784E+03  0.32022671837E+01 0.  0.
         13    1    3    3    0    0  0.18071556959E+02  0.14373705764E+02 -0.16099401604E+03  0.16264150082E+03  0.00000000000E+00 0.  1.
          3    1    3    3  501    0  0.65742530823E+01  0.53919370876E+01 -0.74569229649E+02  0.75052407020E+02  0.00000000000E+00 0.  1.
         -1    1    1    2    0  502 -0.24645810041E+02 -0.19765642852E+02 -0.76304455201E+03  0.76369829445E+03  0.00000000000E+00 0. -1.
<mgrwt>
<rscale>  1 0.30000000E+03</rscale>
<asrwt>0</asrwt>
<pdfrwt beam="1">  1       21 0.50625645E-02 0.30000000E+03</pdfrwt>
<pdfrwt beam="2">0</pdfrwt>
<totfact> 0.28200274E+04</totfact>
</mgrwt>
</event>
<event>
 6    1  0.1295671E-001  0.3000000E+03  0.7818608E-02  0.1093470E+00
         21   -1    0    0  501  502  0.00000000000E+00  0.00000000000E+00  0.12348825491E+01  0.12348825491E+01  0.00000000000E+00 0. -1.
         13   -1    0    0    0    0 -0.00000000000E+00 -0.00000000000E+00 -0.10000000000E+04  0.10000000000E+04  0.00000000000E+00 0.  1.
    9000005    2    1    2  501    0  0.25466864784E+02 -0.16121679938E+02 -0.75576635091E+03  0.75637396221E+03  0.32130646577E+01 0.  0.
         13    1    3    3    0    0  0.20772515056E+02 -0.13219445947E+02 -0.58360544931E+03  0.58412461992E+03  0.00000000000E+00 0.  1.
          3    1    3    3  501    0  0.46943497284E+01 -0.29022339919E+01 -0.17216090160E+03  0.17224934229E+03  0.00000000000E+00 0.  1.
         -3    1    1    2    0  502 -0.25466864784E+02  0.16121679938E+02 -0.24299876654E+03  0.24486092033E+03  0.00000000000E+00 0. -1.
<mgrwt>
<rscale>  1 0.30000000E+03</rscale>
<asrwt>0</asrwt>
<pdfrwt beam="1">  1       21 0.44904915E-02 0.30000000E+03</pdfrwt>
<pdfrwt beam="2">0</pdfrwt>
<totfact> 0.34582083E+04</totfact>
</mgrwt>
</event>
<event>
 6    1  0.1295671E-001  0.3000000E+03  0.7818608E-02  0.1093470E+00
         21   -1    0    0  501  502  0.00000000000E+00  0.00000000000E+00  0.23019479791E+01  0.23019479791E+01  0.00000000000E+00 0. -1.
         13   -1    0    0    0    0 -0.00000000000E+00 -0.00000000000E+00 -0.10000000000E+04  0.10000000000E+04  0.00000000000E+00 0.  1.
    9000005    2    1    2  501    0 -0.43741055826E+02  0.11792943624E+02 -0.66310500161E+03  0.66465588645E+03  0.26173929322E+01 0.  0.
         13    1    3    3    0    0 -0.34333140599E+01  0.75099805838E+00 -0.62306578669E+02  0.62405619851E+02  0.00000000000E+00 0.  1.
          3    1    3    3  501    0 -0.40307741766E+02  0.11041945566E+02 -0.60079842294E+03  0.60225026660E+03  0.00000000000E+00 0.  1.
         -1    1    1    2    0  502  0.43741055826E+02 -0.11792943624E+02 -0.33459305041E+03  0.33764606153E+03  0.00000000000E+00 0. -1.
<mgrwt>
<rscale>  1 0.30000000E+03</rscale>
<asrwt>0</asrwt>
<pdfrwt beam="1">  1       21 0.83707376E-02 0.30000000E+03</pdfrwt>
<pdfrwt beam="2">0</pdfrwt>
<totfact> 0.11795565E+04</totfact>
</mgrwt>
</event>
<event>
 6    1  0.1295671E-001  0.3000000E+03  0.7818608E-02  0.1093470E+00
         21   -1    0    0  501  502  0.00000000000E+00  0.00000000000E+00  0.11014346018E+01  0.11014346018E+01  0.00000000000E+00 0. -1.
         13   -1    0    0    0    0 -0.00000000000E+00 -0.00000000000E+00 -0.10000000000E+04  0.10000000000E+04  0.00000000000E+00 0.  1.
    9000005    2    1    2  501    0  0.21686266028E+02  0.23200718075E+02 -0.64005549136E+03  0.64085579724E+03  0.40685847455E+01 0.  0.
         13    1    3    3    0    0  0.58367025070E+01  0.58691655203E+01 -0.20467857061E+03  0.20484587247E+03  0.00000000000E+00 0.  1.
          3    1    3    3  501    0  0.15849563521E+02  0.17331552554E+02 -0.43537692075E+03  0.43600992477E+03  0.00000000000E+00 0.  1.
         -1    1    1    2    0  502 -0.21686266028E+02 -0.23200718075E+02 -0.35884307404E+03  0.36024563736E+03  0.00000000000E+00 0. -1.
<mgrwt>
<rscale>  1 0.30000000E+03</rscale>
<asrwt>0</asrwt>
<pdfrwt beam="1">  1       21 0.40052252E-02 0.30000000E+03</pdfrwt>
<pdfrwt beam="2">0</pdfrwt>
<totfact> 0.41954985E+04</totfact>
</mgrwt>
</event>
<event>
 6    1  0.1295671E-001  0.3000000E+03  0.7818608E-02  0.1093470E+00
         21   -1    0    0  501  502  0.00000000000E+00  0.00000000000E+00  0.20334175880E+01  0.20334175880E+01  0.00000000000E+00 0. -1.
         13   -1    0    0    0    0 -0.00000000000E+00 -0.00000000000E+00 -0.10000000000E+04  0.10000000000E+04  0.00000000000E+00 0.  1.
    9000005    2    1    2  501    0  0.34930059612E+02 -0.58373921752E+01 -0.80871805418E+03  0.80949981105E+03  0.32967722056E+01 0.  0.
         13    1    3    3    0    0  0.14810977603E+02 -0.16288876538E+01 -0.30848579743E+03  0.30884543958E+03  0.00000000000E+00 0.  1.
          3    1    3    3  501    0  0.20119082009E+02 -0.42085045214E+01 -0.50023225675E+03  0.50065437146E+03  0.00000000000E+00 0.  1.
         -3    1    1    2    0  502 -0.34930059612E+02  0.58373921752E+01 -0.18924852823E+03  0.19253360654E+03  0.00000000000E+00 0. -1.
<mgrwt>
<rscale>  1 0.30000000E+03</rscale>
<asrwt>0</asrwt>
<pdfrwt beam="1">  1       21 0.73942614E-02 0.30000000E+03</pdfrwt>
<pdfrwt beam="2">0</pdfrwt>
<totfact> 0.14664372E+04</totfact>
</mgrwt>
</event>
<event>
 6    1  0.1295671E-001  0.3000000E+03  0.7818608E-02  0.1093470E+00
         21   -1    0    0  501  502  0.00000000000E+00  0.00000000000E+00  0.37790026588E+01  0.37790026588E+01  0.00000000000E+00 0. -1.
         13   -1    0    0    0    0 -0.00000000000E+00 -0.00000000000E+00 -0.10000000000E+04  0.10000000000E+04  0.00000000000E+00 0.  1.
    9000005    2    1    2  501    0  0.67668112508E+01  0.35051334729E+02 -0.90662227620E+03  0.90733048463E+03  0.32048130116E+01 0.  0.
         13    1    3    3    0    0  0.45472033113E+01  0.19913180523E+02 -0.55407455127E+03  0.55445091774E+03  0.00000000000E+00 0.  1.
          1    1    3    3  501    0  0.22196079395E+01  0.15138154206E+02 -0.35254772494E+03  0.35287956689E+03  0.00000000000E+00 0.  1.
         -3    1    1    2    0  502 -0.67668112508E+01 -0.35051334729E+02 -0.89598721138E+02  0.96448518031E+02  0.00000000000E+00 0. -1.
<mgrwt>
<rscale>  1 0.30000000E+03</rscale>
<asrwt>0</asrwt>
<pdfrwt beam="1">  1       21 0.13741857E-01 0.30000000E+03</pdfrwt>
<pdfrwt beam="2">0</pdfrwt>
<totfact> 0.48392179E+03</totfact>
</mgrwt>
</event>
<event>
 6    1  0.1295671E-001  0.3000000E+03  0.7818608E-02  0.1093470E+00
         21   -1    0    0  501  502  0.00000000000E+00  0.00000000000E+00  0.13279946361E+01  0.13279946361E+01  0.00000000000E+00 0. -1.
         13   -1    0    0    0    0 -0.00000000000E+00 -0.00000000000E+00 -0.10000000000E+04  0.10000000000E+04  0.00000000000E+00 0.  1.
    9000005    2    1    2  501    0 -0.25709056195E+02 -0.20369543894E+02 -0.29192729816E+03  0.29382254939E+03  0.58539927781E+01 0.  0.
         13    1    3    3    0    0 -0.19639090541E+02 -0.13072706656E+02 -0.19151318334E+03  0.19296084818E+03  0.00000000000E+00 0.  1.
          3    1    3    3  501    0 -0.60699656542E+01 -0.72968372389E+01 -0.10041411482E+03  0.10086170121E+03  0.00000000000E+00 0.  1.
         -1    1    1    2    0  502  0.25709056195E+02  0.20369543894E+02 -0.70674470720E+03  0.70750544524E+03  0.00000000000E+00 0. -1.
<mgrwt>
<rscale>  1 0.30000000E+03</rscale>
<asrwt>0</asrwt>
<pdfrwt beam="1">  1       21 0.48290816E-02 0.30000000E+03</pdfrwt>
<pdfrwt beam="2">0</pdfrwt>
<totfact> 0.30562748E+04</totfact>
</mgrwt>
</event>
<event>
 6    1  0.1295671E-001  0.3000000E+03  0.7818608E-02  0.1093470E+00
         21   -1    0    0  501  502  0.00000000000E+00  0.00000000000E+00  0.11023613075E+01  0.11023613075E+01  0.00000000000E+00 0. -1.
         13   -1    0    0    0    0 -0.00000000000E+00 -0.00000000000E+00 -0.10000000000E+04  0.10000000000E+04  0.00000000000E+00 0.  1.
    9000005    2    1    2  501    0  0.26079779551E+02 -0.20067540486E+02 -0.49097497913E+03  0.49211484754E+03  0.61426335426E+01 0.  0.
         13    1    3    3    0    0  0.11319593614E+02 -0.70426396602E+01 -0.15969075595E+03  0.16024627767E+03  0.00000000000E+00 0.  1.
          1    1    3    3  501    0  0.14760185938E+02 -0.13024900826E+02 -0.33128422319E+03  0.33186856986E+03  0.00000000000E+00 0.  1.
         -3    1    1    2    0  502 -0.26079779551E+02  0.20067540486E+02 -0.50792265956E+03  0.50898751377E+03  0.00000000000E+00 0. -1.
<mgrwt>
<rscale>  1 0.30000000E+03</rscale>
<asrwt>0</asrwt>
<pdfrwt beam="1">  1       21 0.40085950E-02 0.30000000E+03</pdfrwt>
<pdfrwt beam="2">0</pdfrwt>
<totfact> 0.41895602E+04</totfact>
</mgrwt>
</event>
<event>
 6    1  0.1295671E-001  0.3000000E+03  0.7818608E-02  0.1093470E+00
         21   -1    0    0  501  502  0.00000000000E+00  0.00000000000E+00  0.92371752290E+00  0.92371752290E+00  0.00000000000E+00 0. -1.
         13   -1    0    0    0    0 -0.00000000000E+00 -0.00000000000E+00 -0.10000000000E+04  0.10000000000E+04  0.00000000000E+00 0.  1.
    9000005    2    1    2  501    0  0.39956038201E+01  0.29862622792E+02 -0.46860822464E+03  0.46960074468E+03  0.48425313315E+01 0.  0.
         13    1    3    3    0    0  0.19008534337E+01  0.50966841253E+01 -0.10809868207E+03  0.10823545860E+03  0.00000000000E+00 0.  1.
          1    1    3    3  501    0  0.20947503864E+01  0.24765938666E+02 -0.36050954257E+03  0.36136528608E+03  0.00000000000E+00 0.  1.
         -1    1    1    2    0  502 -0.39956038201E+01 -0.29862622792E+02 -0.53046805783E+03  0.53132297284E+03  0.00000000000E+00 0. -1.
<mgrwt>
<rscale>  1 0.30000000E+03</rscale>
<asrwt>0</asrwt>
<pdfrwt beam="1">  1       21 0.33589799E-02 0.30000000E+03</pdfrwt>
<pdfrwt beam="2">0</pdfrwt>
<totfact> 0.56362324E+04</totfact>
</mgrwt>
</event>
<event>
 6    1  0.1295671E-001  0.3000000E+03  0.7818608E-02  0.1093470E+00
         21   -1    0    0  501  502  0.00000000000E+00  0.00000000000E+00  0.15226732299E+01  0.15226732299E+01  0.00000000000E+00 0. -1.
         13   -1    0    0    0    0 -0.00000000000E+00 -0.00000000000E+00 -0.10000000000E+04  0.10000000000E+04  0.00000000000E+00 0.  1.
    9000005    2    1    2  501    0 -0.10472701053E+02 -0.36958457363E+02 -0.41661987117E+03  0.41839858380E+03  0.31069008209E+01 0.  0.
         13    1    3    3    0    0 -0.22620567150E+01 -0.50591492105E+01 -0.52366280571E+02  0.52658705189E+02  0.00000000000E+00 0.  1.
          3    1    3    3  501    0 -0.82106443385E+01 -0.31899308153E+02 -0.36425359060E+03  0.36573987861E+03  0.00000000000E+00 0.  1.
         -3    1    1    2    0  502  0.10472701053E+02  0.36958457363E+02 -0.58185745560E+03  0.58312408943E+03  0.00000000000E+00 0. -1.
<mgrwt>
<rscale>  1 0.30000000E+03</rscale>
<asrwt>0</asrwt>
<pdfrwt beam="1">  1       21 0.55370052E-02 0.30000000E+03</pdfrwt>
<pdfrwt beam="2">0</pdfrwt>
<totfact> 0.24194286E+04</totfact>
</mgrwt>
</event>
<event>
 6    1  0.1295671E-001  0.3000000E+03  0.7818608E-02  0.1093470E+00
         21   -1    0    0  501  502  0.00000000000E+00  0.00000000000E+00  0.40638478094E+01  0.40638478094E+01  0.00000000000E+00 0. -1.
         13   -1    0    0    0    0 -0.00000000000E+00 -0.00000000000E+00 -0.10000000000E+04  0.10000000000E+04  0.00000000000E+00 0.  1.
    9000005    2    1    2  501    0 -0.18207399405E+02  0.43418117977E+02 -0.83627441624E+03  0.83760510731E+03  0.32824034962E+01 0.  0.
         13    1    3    3    0    0 -0.40104256567E+01  0.13409565129E+02 -0.25126490396E+03  0.25165442955E+03  0.00000000000E+00 0.  1.
          1    1    3    3  501    0 -0.14196973749E+02  0.30008552849E+02 -0.58500951229E+03  0.58595067776E+03  0.00000000000E+00 0.  1.
         -1    1    1    2    0  502  0.18207399405E+02 -0.43418117977E+02 -0.15966173595E+03  0.16645874050E+03  0.00000000000E+00 0. -1.
<mgrwt>
<rscale>  1 0.30000000E+03</rscale>
<asrwt>0</asrwt>
<pdfrwt beam="1">  1       21 0.14777660E-01 0.30000000E+03</pdfrwt>
<pdfrwt beam="2">0</pdfrwt>
<totfact> 0.42333456E+03</totfact>
</mgrwt>
</event>
<event>
 6    1  0.1295671E-001  0.3000000E+03  0.7818608E-02  0.1093470E+00
         21   -1    0    0  501  502  0.00000000000E+00  0.00000000000E+00  0.27802454834E+01  0.27802454834E+01  0.00000000000E+00 0. -1.
         13   -1    0    0    0    0 -0.00000000000E+00 -0.00000000000E+00 -0.10000000000E+04  0.10000000000E+04  0.00000000000E+00 0.  1.
    9000005    2    1    2  501    0  0.31077553747E+02 -0.41095459340E+02 -0.60330304649E+03  0.60550826813E+03  0.33235144413E+01 0.  0.
         13    1    3    3    0    0  0.75471859796E+01 -0.12420293344E+02 -0.17285440024E+03  0.17346431156E+03  0.00000000000E+00 0.  1.
          1    1    3    3  501    0  0.23530367767E+02 -0.28675165995E+02 -0.43044864625E+03  0.43204395657E+03  0.00000000000E+00 0.  1.
         -1    1    1    2    0  502 -0.31077553747E+02  0.41095459340E+02 -0.39391670803E+03  0.39727197735E+03  0.00000000000E+00 0. -1.
<mgrwt>
<rscale>  1 0.30000000E+03</rscale>
<asrwt>0</asrwt>
<pdfrwt beam="1">  1       21 0.10110005E-01 0.30000000E+03</pdfrwt>
<pdfrwt beam="2">0</pdfrwt>
<totfact> 0.84365947E+03</totfact>
</mgrwt>
</event>
<event>
 6    1  0.1295671E-001  0.3000000E+03  0.7818608E-02  0.1093470E+00
         21   -1    0    0  501  502  0.00000000000E+00  0.00000000000E+00  0.33141329723E+01  0.33141329723E+01  0.00000000000E+00 0. -1.
         13   -1    0    0    0    0 -0.00000000000E+00 -0.00000000000E+00 -0.10000000000E+04  0.10000000000E+04  0.00000000000E+00 0.  1.
    9000005    2    1    2  501    0  0.39125009279E+02  0.27581988256E+01 -0.86531214252E+03  0.86621041492E+03  0.41237019090E+01 0.  0.
         13    1    3    3    0    0  0.19848116188E+02 -0.59050403450E+00 -0.44810926459E+03  0.44854900449E+03  0.00000000000E+00 0.  1.
          3    1    3    3  501    0  0.19276893091E+02  0.33487028601E+01 -0.41720287793E+03  0.41766141044E+03  0.00000000000E+00 0.  1.
         -3    1    1    2    0  502 -0.39125009279E+02 -0.27581988256E+01 -0.13137372451E+03  0.13710371805E+03  0.00000000000E+00 0. -1.
<mgrwt>
<rscale>  1 0.30000000E+03</rscale>
<asrwt>0</asrwt>
<pdfrwt beam="1">  1       21 0.12051418E-01 0.30000000E+03</pdfrwt>
<pdfrwt beam="2">0</pdfrwt>
<totfact> 0.61492042E+03</totfact>
</mgrwt>
</event>
<event>
 6    1  0.1295671E-001  0.3000000E+03  0.7818608E-02  0.1093470E+00
         21   -1    0    0  501  502  0.00000000000E+00  0.00000000000E+00  0.12739724088E+02  0.12739724088E+02  0.00000000000E+00 0. -1.
         13   -1    0    0    0    0 -0.00000000000E+00 -0.00000000000E+00 -0.10000000000E+04  0.10000000000E+04  0.00000000000E+00 0.  1.
    9000005    2    1    2  501    0  0.24959256195E+02 -0.68530584679E+02 -0.88005899640E+03  0.88308047901E+03  0.28088700706E+01 0.  0.
         13    1    3    3    0    0  0.14221862630E+02 -0.41042059884E+02 -0.50943827765E+03  0.51128668161E+03  0.00000000000E+00 0.  1.
          3    1    3    3  501    0  0.10737393564E+02 -0.27488524795E+02 -0.37062071875E+03  0.37179379740E+03  0.00000000000E+00 0.  1.
         -3    1    1    2    0  502 -0.24959256195E+02  0.68530584679E+02 -0.10720127951E+03  0.12965924508E+03  0.00000000000E+00 0. -1.
<mgrwt>
<rscale>  1 0.30000000E+03</rscale>
<asrwt>0</asrwt>
<pdfrwt beam="1">  1       21 0.46326367E-01 0.30000000E+03</pdfrwt>
<pdfrwt beam="2">0</pdfrwt>
<totfact> 0.44278871E+02</totfact>
</mgrwt>
</event>
<event>
 6    1  0.1295671E-001  0.3000000E+03  0.7818608E-02  0.1093470E+00
         21   -1    0    0  501  502  0.00000000000E+00  0.00000000000E+00  0.29182593165E+01  0.29182593165E+01  0.00000000000E+00 0. -1.
         13   -1    0    0    0    0 -0.00000000000E+00 -0.00000000000E+00 -0.10000000000E+04  0.10000000000E+04  0.00000000000E+00 0.  1.
    9000005    2    1    2  501    0  0.34125193859E+01 -0.32020810728E+02 -0.90106191223E+03  0.90164247216E+03  0.30984383156E+01 0.  0.
         13    1    3    3    0    0  0.27549510283E+01 -0.29689203007E+02 -0.81082063595E+03  0.81136868452E+03  0.00000000000E+00 0.  1.
          3    1    3    3  501    0  0.65756835767E+00 -0.23316077215E+01 -0.90241276277E+02  0.90273787640E+02  0.00000000000E+00 0.  1.
         -3    1    1    2    0  502 -0.34125193859E+01  0.32020810728E+02 -0.96019828452E+02  0.10127578716E+03  0.00000000000E+00 0. -1.
<mgrwt>
<rscale>  1 0.30000000E+03</rscale>
<asrwt>0</asrwt>
<pdfrwt beam="1">  1       21 0.10611874E-01 0.30000000E+03</pdfrwt>
<pdfrwt beam="2">0</pdfrwt>
<totfact> 0.77354465E+03</totfact>
</mgrwt>
</event>
<event>
 6    1  0.1295671E-001  0.3000000E+03  0.7818608E-02  0.1093470E+00
         21   -1    0    0  501  502  0.00000000000E+00  0.00000000000E+00  0.60965313722E+01  0.60965313722E+01  0.00000000000E+00 0. -1.
         13   -1    0    0    0    0 -0.00000000000E+00 -0.00000000000E+00 -0.10000000000E+04  0.10000000000E+04  0.00000000000E+00 0.  1.
    9000005    2    1    2  501    0 -0.51047446347E+02 -0.21634645361E+02 -0.85106527397E+03  0.85287561403E+03  0.32882806063E+01 0.  0.
         13    1    3    3    0    0 -0.19129111745E+02 -0.87113900831E+01 -0.34586341768E+03  0.34650153668E+03  0.00000000000E+00 0.  1.
          1    1    3    3  501    0 -0.31918334602E+02 -0.12923255278E+02 -0.50520185629E+03  0.50637407735E+03  0.00000000000E+00 0.  1.
         -1    1    1    2    0  502  0.51047446347E+02  0.21634645361E+02 -0.14283819466E+03  0.15322091734E+03  0.00000000000E+00 0. -1.
<mgrwt>
<rscale>  1 0.30000000E+03</rscale>
<asrwt>0</asrwt>
<pdfrwt beam="1">  1       21 0.22169252E-01 0.30000000E+03</pdfrwt>
<pdfrwt beam="2">0</pdfrwt>
<totfact> 0.19693074E+03</totfact>
</mgrwt>
</event>
<event>
 6    1  0.1295671E-001  0.3000000E+03  0.7818608E-02  0.1093470E+00
         21   -1    0    0  501  502  0.00000000000E+00  0.00000000000E+00  0.18259692839E+01  0.18259692839E+01  0.00000000000E+00 0. -1.
         13   -1    0    0    0    0 -0.00000000000E+00 -0.00000000000E+00 -0.10000000000E+04  0.10000000000E+04  0.00000000000E+00 0.  1.
    9000005    2    1    2  501    0  0.90162427660E+00  0.39988840579E+02 -0.67245830538E+03  0.67366342720E+03  0.47244441162E+01 0.  0.
         13    1    3    3    0    0 -0.38375371648E+00  0.10201382105E+02 -0.20652877819E+03  0.20678092679E+03  0.00000000000E+00 0.  1.
          1    1    3    3  501    0  0.12853779931E+01  0.29787458474E+02 -0.46592952719E+03  0.46688250041E+03  0.00000000000E+00 0.  1.
         -3    1    1    2    0  502 -0.90162427660E+00 -0.39988840579E+02 -0.32571572533E+03  0.32816254208E+03  0.00000000000E+00 0. -1.
<mgrwt>
<rscale>  1 0.30000000E+03</rscale>
<asrwt>0</asrwt>
<pdfrwt beam="1">  1       21 0.66399023E-02 0.30000000E+03</pdfrwt>
<pdfrwt beam="2">0</pdfrwt>
<totfact> 0.17685375E+04</totfact>
</mgrwt>
</event>
<event>
 6    1  0.1295671E-001  0.3000000E+03  0.7818608E-02  0.1093470E+00
         21   -1    0    0  501  502  0.00000000000E+00  0.00000000000E+00  0.69655491443E+01  0.69655491443E+01  0.00000000000E+00 0. -1.
         13   -1    0    0    0    0 -0.00000000000E+00 -0.00000000000E+00 -0.10000000000E+04  0.10000000000E+04  0.00000000000E+00 0.  1.
    9000005    2    1    2  501    0  0.31274061234E+02 -0.50381406170E+02 -0.85059117698E+03  0.85267219457E+03  0.53073572208E+01 0.  0.
         13    1    3    3    0    0  0.20266410810E+02 -0.36000200614E+02 -0.61487741997E+03  0.61626372881E+03  0.00000000000E+00 0.  1.
          3    1    3    3  501    0  0.11007650424E+02 -0.14381205556E+02 -0.23571375701E+03  0.23640846576E+03  0.00000000000E+00 0.  1.
         -3    1    1    2    0  502 -0.31274061234E+02  0.50381406170E+02 -0.14244327388E+03  0.15429335458E+03  0.00000000000E+00 0. -1.
<mgrwt>
<rscale>  1 0.30000000E+03</rscale>
<asrwt>0</asrwt>
<pdfrwt beam="1">  1       21 0.25329323E-01 0.30000000E+03</pdfrwt>
<pdfrwt beam="2">0</pdfrwt>
<totfact> 0.15201160E+03</totfact>
</mgrwt>
</event>
<event>
 6    1  0.1295671E-001  0.3000000E+03  0.7818608E-02  0.1093470E+00
         21   -1    0    0  501  502  0.00000000000E+00  0.00000000000E+00  0.31012087660E+01  0.31012087660E+01  0.00000000000E+00 0. -1.
         13   -1    0    0    0    0 -0.00000000000E+00 -0.00000000000E+00 -0.10000000000E+04  0.10000000000E+04  0.00000000000E+00 0.  1.
    9000005    2    1    2  501    0 -0.19142309840E+02 -0.32466395764E+02 -0.86744377188E+03  0.86827132738E+03  0.39881936510E+01 0.  0.
         13    1    3    3    0    0 -0.93480222495E+00 -0.40927213941E+00 -0.27246069484E+02  0.27265173046E+02  0.00000000000E+00 0.  1.
          3    1    3    3  501    0 -0.18207507615E+02 -0.32057123625E+02 -0.84019770240E+03  0.84100615433E+03  0.00000000000E+00 0.  1.
         -1    1    1    2    0  502  0.19142309840E+02  0.32466395764E+02 -0.12945501935E+03  0.13482988139E+03  0.00000000000E+00 0. -1.
<mgrwt>
<rscale>  1 0.30000000E+03</rscale>
<asrwt>0</asrwt>
<pdfrwt beam="1">  1       21 0.11277147E-01 0.30000000E+03</pdfrwt>
<pdfrwt beam="2">0</pdfrwt>
<totfact> 0.69341846E+03</totfact>
</mgrwt>
</event>
<event>
 6    1  0.1295671E-001  0.3000000E+03  0.7818608E-02  0.1093470E+00
         21   -1    0    0  501  502  0.00000000000E+00  0.00000000000E+00  0.40698039161E+01  0.40698039161E+01  0.00000000000E+00 0. -1.
         13   -1    0    0    0    0 -0.00000000000E+00 -0.00000000000E+00 -0.10000000000E+04  0.10000000000E+04  0.00000000000E+00 0.  1.
    9000005    2    1    2  501    0 -0.36686319452E+02 -0.21664599037E+02 -0.87145584437E+03  0.87250573161E+03  0.39651134688E+01 0.  0.
         13    1    3    3    0    0 -0.15667887464E+00 -0.49385805501E+00 -0.16320149844E+02  0.16328372086E+02  0.00000000000E+00 0.  1.
          3    1    3    3  501    0 -0.36529640578E+02 -0.21170740982E+02 -0.85513569452E+03  0.85617735952E+03  0.00000000000E+00 0.  1.
         -1    1    1    2    0  502  0.36686319452E+02  0.21664599037E+02 -0.12447435172E+03  0.13156407231E+03  0.00000000000E+00 0. -1.
<mgrwt>
<rscale>  1 0.30000000E+03</rscale>
<asrwt>0</asrwt>
<pdfrwt beam="1">  1       21 0.14799318E-01 0.30000000E+03</pdfrwt>
<pdfrwt beam="2">0</pdfrwt>
<totfact> 0.42219046E+03</totfact>
</mgrwt>
</event>
<event>
 6    1  0.1295671E-001  0.3000000E+03  0.7818608E-02  0.1093470E+00
         21   -1    0    0  501  502  0.00000000000E+00  0.00000000000E+00  0.12029239744E+01  0.12029239744E+01  0.00000000000E+00 0. -1.
         13   -1    0    0    0    0 -0.00000000000E+00 -0.00000000000E+00 -0.10000000000E+04  0.10000000000E+04  0.00000000000E+00 0.  1.
    9000005    2    1    2  501    0  0.29157402987E+02  0.11786643155E+02 -0.70876573523E+03  0.70947144170E+03  0.34322073604E+01 0.  0.
         13    1    3    3    0    0  0.21036596665E+02  0.10113221187E+02 -0.52768170906E+03  0.52819769189E+03  0.00000000000E+00 0.  1.
          1    1    3    3  501    0  0.81208063219E+01  0.16734219673E+01 -0.18108402617E+03  0.18127374981E+03  0.00000000000E+00 0.  1.
         -1    1    1    2    0  502 -0.29157402987E+02 -0.11786643155E+02 -0.29003134079E+03  0.29173148227E+03  0.00000000000E+00 0. -1.
<mgrwt>
<rscale>  1 0.30000000E+03</rscale>
<asrwt>0</asrwt>
<pdfrwt beam="1">  1       21 0.43742782E-02 0.30000000E+03</pdfrwt>
<pdfrwt beam="2">0</pdfrwt>
<totfact> 0.36153619E+04</totfact>
</mgrwt>
</event>
<event>
 6    1  0.1295671E-001  0.3000000E+03  0.7818608E-02  0.1093470E+00
         21   -1    0    0  501  502  0.00000000000E+00  0.00000000000E+00  0.11202508488E+01  0.11202508488E+01  0.00000000000E+00 0. -1.
         13   -1    0    0    0    0 -0.00000000000E+00 -0.00000000000E+00 -0.10000000000E+04  0.10000000000E+04  0.00000000000E+00 0.  1.
    9000005    2    1    2  501    0 -0.17273504308E+02 -0.28239134688E+02 -0.56531551315E+03  0.56629411385E+03  0.34016603186E+01 0.  0.
         13    1    3    3    0    0 -0.12280327962E+02 -0.17053515943E+02 -0.34942520204E+03  0.35005656783E+03  0.00000000000E+00 0.  1.
          3    1    3    3  501    0 -0.49931763466E+01 -0.11185618745E+02 -0.21589031111E+03  0.21623754602E+03  0.00000000000E+00 0.  1.
         -1    1    1    2    0  502  0.17273504308E+02  0.28239134688E+02 -0.43356423600E+03  0.43482613700E+03  0.00000000000E+00 0. -1.
<mgrwt>
<rscale>  1 0.30000000E+03</rscale>
<asrwt>0</asrwt>
<pdfrwt beam="1">  1       21 0.40736480E-02 0.30000000E+03</pdfrwt>
<pdfrwt beam="2">0</pdfrwt>
<totfact> 0.40774497E+04</totfact>
</mgrwt>
</event>
<event>
 6    1  0.1295671E-001  0.3000000E+03  0.7818608E-02  0.1093470E+00
         21   -1    0    0  501  502  0.00000000000E+00  0.00000000000E+00  0.37164765713E+01  0.37164765713E+01  0.00000000000E+00 0. -1.
         13   -1    0    0    0    0 -0.00000000000E+00 -0.00000000000E+00 -0.10000000000E+04  0.10000000000E+04  0.00000000000E+00 0.  1.
    9000005    2    1    2  501    0 -0.14363162495E+02 -0.31419814162E+02 -0.91155266066E+03  0.91221333856E+03  0.33788677851E+01 0.  0.
         13    1    3    3    0    0 -0.58270560691E+01 -0.93108116037E+01 -0.30613271554E+03  0.30632970036E+03  0.00000000000E+00 0.  1.
          3    1    3    3  501    0 -0.85361064259E+01 -0.22109002558E+02 -0.60541994511E+03  0.60588363821E+03  0.00000000000E+00 0.  1.
         -3    1    1    2    0  502  0.14363162495E+02  0.31419814162E+02 -0.84730862773E+02  0.91503138006E+02  0.00000000000E+00 0. -1.
<mgrwt>
<rscale>  1 0.30000000E+03</rscale>
<asrwt>0</asrwt>
<pdfrwt beam="1">  1       21 0.13514489E-01 0.30000000E+03</pdfrwt>
<pdfrwt beam="2">0</pdfrwt>
<totfact> 0.49894892E+03</totfact>
</mgrwt>
</event>
<event>
 6    1  0.1295671E-001  0.3000000E+03  0.7818608E-02  0.1093470E+00
         21   -1    0    0  501  502  0.00000000000E+00  0.00000000000E+00  0.93794756925E+00  0.93794756925E+00  0.00000000000E+00 0. -1.
         13   -1    0    0    0    0 -0.00000000000E+00 -0.00000000000E+00 -0.10000000000E+04  0.10000000000E+04  0.00000000000E+00 0.  1.
    9000005    2    1    2  501    0 -0.83284375443E+01 -0.29296378576E+02 -0.52956912256E+03  0.53045813731E+03  0.38391655730E+01 0.  0.
         13    1    3    3    0    0 -0.10341264232E+01 -0.97485566091E+01 -0.15844147922E+03  0.15874446797E+03  0.00000000000E+00 0.  1.
          3    1    3    3  501    0 -0.72943111211E+01 -0.19547821967E+02 -0.37112764335E+03  0.37171366934E+03  0.00000000000E+00 0.  1.
         -3    1    1    2    0  502  0.83284375443E+01  0.29296378576E+02 -0.46949292987E+03  0.47047981026E+03  0.00000000000E+00 0. -1.
<mgrwt>
<rscale>  1 0.30000000E+03</rscale>
<asrwt>0</asrwt>
<pdfrwt beam="1">  1       21 0.34107256E-02 0.30000000E+03</pdfrwt>
<pdfrwt beam="2">0</pdfrwt>
<totfact> 0.54941052E+04</totfact>
</mgrwt>
</event>
<event>
 6    1  0.1295671E-001  0.3000000E+03  0.7818608E-02  0.1093470E+00
         21   -1    0    0  501  502  0.00000000000E+00  0.00000000000E+00  0.12687906701E+01  0.12687906701E+01  0.00000000000E+00 0. -1.
         13   -1    0    0    0    0 -0.00000000000E+00 -0.00000000000E+00 -0.10000000000E+04  0.10000000000E+04  0.00000000000E+00 0.  1.
    9000005    2    1    2  501    0  0.34261557100E+02  0.76587386376E+01 -0.57969058468E+03  0.58076010386E+03  0.29349107386E+01 0.  0.
         13    1    3    3    0    0  0.34133373822E+02  0.75340094833E+01 -0.57860404426E+03  0.57965894157E+03  0.00000000000E+00 0.  1.
          1    1    3    3  501    0  0.12818327815E+00  0.12472915439E+00 -0.10865404222E+01  0.11011622968E+01  0.00000000000E+00 0.  1.
         -3    1    1    2    0  502 -0.34261557100E+02 -0.76587386376E+01 -0.41904062465E+03  0.42050868681E+03  0.00000000000E+00 0. -1.
<mgrwt>
<rscale>  1 0.30000000E+03</rscale>
<asrwt>0</asrwt>
<pdfrwt beam="1">  1       21 0.46137940E-02 0.30000000E+03</pdfrwt>
<pdfrwt beam="2">0</pdfrwt>
<totfact> 0.33027336E+04</totfact>
</mgrwt>
</event>
<event>
 6    1  0.1295671E-001  0.3000000E+03  0.7818608E-02  0.1093470E+00
         21   -1    0    0  501  502  0.00000000000E+00  0.00000000000E+00  0.11358253078E+01  0.11358253078E+01  0.00000000000E+00 0. -1.
         13   -1    0    0    0    0 -0.00000000000E+00 -0.00000000000E+00 -0.10000000000E+04  0.10000000000E+04  0.00000000000E+00 0.  1.
    9000005    2    1    2  501    0 -0.32437864821E+02 -0.50890341231E+01 -0.60887396306E+03  0.60976582325E+03  0.29568509962E+01 0.  0.
         13    1    3    3    0    0 -0.32226550885E+02 -0.52486622879E+01 -0.59985550838E+03  0.60074348101E+03  0.00000000000E+00 0.  1.
          1    1    3    3  501    0 -0.21131393561E+00  0.15962816480E+00 -0.90184546810E+01  0.90223422438E+01  0.00000000000E+00 0.  1.
         -3    1    1    2    0  502  0.32437864821E+02  0.50890341231E+01 -0.38999021163E+03  0.39137000205E+03  0.00000000000E+00 0. -1.
<mgrwt>
<rscale>  1 0.30000000E+03</rscale>
<asrwt>0</asrwt>
<pdfrwt beam="1">  1       21 0.41302826E-02 0.30000000E+03</pdfrwt>
<pdfrwt beam="2">0</pdfrwt>
<totfact> 0.39836133E+04</totfact>
</mgrwt>
</event>
<event>
 6    1  0.1295671E-001  0.3000000E+03  0.7818608E-02  0.1093470E+00
         21   -1    0    0  501  502  0.00000000000E+00  0.00000000000E+00  0.86165264749E+01  0.86165264749E+01  0.00000000000E+00 0. -1.
         13   -1    0    0    0    0 -0.00000000000E+00 -0.00000000000E+00 -0.10000000000E+04  0.10000000000E+04  0.00000000000E+00 0.  1.
    9000005    2    1    2  501    0  0.32182390340E+02 -0.27930983349E+02 -0.94368961189E+03  0.94465911473E+03  0.38617851555E+01 0.  0.
         13    1    3    3    0    0  0.25619120183E+02 -0.20152142402E+02 -0.72940841336E+03  0.73013634456E+03  0.00000000000E+00 0.  1.
          3    1    3    3  501    0  0.65632701563E+01 -0.77788409475E+01 -0.21428119853E+03  0.21452277018E+03  0.00000000000E+00 0.  1.
         -1    1    1    2    0  502 -0.32182390340E+02  0.27930983349E+02 -0.47693861637E+02  0.63957411742E+02  0.00000000000E+00 0. -1.
<mgrwt>
<rscale>  1 0.30000000E+03</rscale>
<asrwt>0</asrwt>
<pdfrwt beam="1">  1       21 0.31332890E-01 0.30000000E+03</pdfrwt>
<pdfrwt beam="2">0</pdfrwt>
<totfact> 0.99643579E+02</totfact>
</mgrwt>
</event>
<event>
 6    1  0.1295671E-001  0.3000000E+03  0.7818608E-02  0.1093470E+00
         21   -1    0    0  501  502  0.00000000000E+00  0.00000000000E+00  0.30268638767E+01  0.30268638767E+01  0.00000000000E+00 0. -1.
         13   -1    0    0    0    0 -0.00000000000E+00 -0.00000000000E+00 -0.10000000000E+04  0.10000000000E+04  0.00000000000E+00 0.  1.
    9000005    2    1    2  501    0  0.39800477487E+02  0.36271369122E+02 -0.39853453788E+03  0.40217043669E+03  0.34047080293E+01 0.  0.
         13    1    3    3    0    0  0.36413015101E+02  0.32785874071E+02 -0.35502066820E+03  0.35838595962E+03  0.00000000000E+00 0.  1.
          1    1    3    3  501    0  0.33874623862E+01  0.34854950509E+01 -0.43513869683E+02  0.43784477067E+02  0.00000000000E+00 0.  1.
         -1    1    1    2    0  502 -0.39800477487E+02 -0.36271369122E+02 -0.59843859824E+03  0.60085642719E+03  0.00000000000E+00 0. -1.
<mgrwt>
<rscale>  1 0.30000000E+03</rscale>
<asrwt>0</asrwt>
<pdfrwt beam="1">  1       21 0.11006801E-01 0.30000000E+03</pdfrwt>
<pdfrwt beam="2">0</pdfrwt>
<totfact> 0.72439628E+03</totfact>
</mgrwt>
</event>
<event>
 6    1  0.1295671E-001  0.3000000E+03  0.7818608E-02  0.1093470E+00
         21   -1    0    0  501  502  0.00000000000E+00  0.00000000000E+00  0.29340204093E+01  0.29340204093E+01  0.00000000000E+00 0. -1.
         13   -1    0    0    0    0 -0.00000000000E+00 -0.00000000000E+00 -0.10000000000E+04  0.10000000000E+04  0.00000000000E+00 0.  1.
    9000005    2    1    2  501    0 -0.51000693763E+02 -0.92300292869E+01 -0.64356462434E+03  0.64565335711E+03  0.25627403356E+01 0.  0.
         13    1    3    3    0    0 -0.19987235512E+02 -0.48556466158E+01 -0.25146018684E+03  0.25230000486E+03  0.00000000000E+00 0.  1.
          3    1    3    3  501    0 -0.31013458251E+02 -0.43743826711E+01 -0.39210443750E+03  0.39335335225E+03  0.00000000000E+00 0.  1.
         -1    1    1    2    0  502  0.51000693763E+02  0.92300292869E+01 -0.35350135525E+03  0.35728066330E+03  0.00000000000E+00 0. -1.
<mgrwt>
<rscale>  1 0.30000000E+03</rscale>
<asrwt>0</asrwt>
<pdfrwt beam="1">  1       21 0.10669188E-01 0.30000000E+03</pdfrwt>
<pdfrwt beam="2">0</pdfrwt>
<totfact> 0.76610451E+03</totfact>
</mgrwt>
</event>
<event>
 6    1  0.1295671E-001  0.3000000E+03  0.7818608E-02  0.1093470E+00
         21   -1    0    0  501  502  0.00000000000E+00  0.00000000000E+00  0.20327378594E+01  0.20327378594E+01  0.00000000000E+00 0. -1.
         13   -1    0    0    0    0 -0.00000000000E+00 -0.00000000000E+00 -0.10000000000E+04  0.10000000000E+04  0.00000000000E+00 0.  1.
    9000005    2    1    2  501    0  0.11826339923E+02 -0.37605708960E+02 -0.74115941556E+03  0.74221679969E+03  0.38008951432E+01 0.  0.
         13    1    3    3    0    0  0.43190090547E+01 -0.19021183357E+02 -0.34594083837E+03  0.34649029266E+03  0.00000000000E+00 0.  1.
          3    1    3    3  501    0  0.75073308685E+01 -0.18584525603E+02 -0.39521857719E+03  0.39572650703E+03  0.00000000000E+00 0.  1.
         -1    1    1    2    0  502 -0.11826339923E+02  0.37605708960E+02 -0.25680784658E+03  0.25981593817E+03  0.00000000000E+00 0. -1.
<mgrwt>
<rscale>  1 0.30000000E+03</rscale>
<asrwt>0</asrwt>
<pdfrwt beam="1">  1       21 0.73917896E-02 0.30000000E+03</pdfrwt>
<pdfrwt beam="2">0</pdfrwt>
<totfact> 0.14672949E+04</totfact>
</mgrwt>
</event>
<event>
 6    1  0.1295671E-001  0.3000000E+03  0.7818608E-02  0.1093470E+00
         21   -1    0    0  501  502  0.00000000000E+00  0.00000000000E+00  0.10346371748E+01  0.10346371748E+01  0.00000000000E+00 0. -1.
         13   -1    0    0    0    0 -0.00000000000E+00 -0.00000000000E+00 -0.10000000000E+04  0.10000000000E+04  0.00000000000E+00 0.  1.
    9000005    2    1    2  501    0 -0.87539323017E+01 -0.30424637018E+02 -0.53647867757E+03  0.53746563054E+03  0.75922765183E+01 0.  0.
         13    1    3    3    0    0 -0.18038348290E+01 -0.18993748825E+02 -0.29440400822E+03  0.29502158628E+03  0.00000000000E+00 0.  1.
          3    1    3    3  501    0 -0.69500974727E+01 -0.11430888192E+02 -0.24207466934E+03  0.24244404426E+03  0.00000000000E+00 0.  1.
         -3    1    1    2    0  502  0.87539323017E+01  0.30424637018E+02 -0.46248668526E+03  0.46356900663E+03  0.00000000000E+00 0. -1.
<mgrwt>
<rscale>  1 0.30000000E+03</rscale>
<asrwt>0</asrwt>
<pdfrwt beam="1">  1       21 0.37623249E-02 0.30000000E+03</pdfrwt>
<pdfrwt beam="2">0</pdfrwt>
<totfact> 0.46609722E+04</totfact>
</mgrwt>
</event>
<event>
 6    1  0.1295671E-001  0.3000000E+03  0.7818608E-02  0.1093470E+00
         21   -1    0    0  501  502  0.00000000000E+00  0.00000000000E+00  0.17019631592E+01  0.17019631592E+01  0.00000000000E+00 0. -1.
         13   -1    0    0    0    0 -0.00000000000E+00 -0.00000000000E+00 -0.10000000000E+04  0.10000000000E+04  0.00000000000E+00 0.  1.
    9000005    2    1    2  501    0  0.31505845234E+02 -0.23543290852E+02 -0.64851362361E+03  0.64971326936E+03  0.32415332552E+01 0.  0.
         13    1    3    3    0    0  0.26444200661E+02 -0.20993205915E+02 -0.54569475409E+03  0.54673830585E+03  0.00000000000E+00 0.  1.
          3    1    3    3  501    0  0.50616445733E+01 -0.25500849369E+01 -0.10281886952E+03  0.10297496351E+03  0.00000000000E+00 0.  1.
         -3    1    1    2    0  502 -0.31505845234E+02  0.23543290852E+02 -0.34978441323E+03  0.35198869380E+03  0.00000000000E+00 0. -1.
<mgrwt>
<rscale>  1 0.30000000E+03</rscale>
<asrwt>0</asrwt>
<pdfrwt beam="1">  1       21 0.61889700E-02 0.30000000E+03</pdfrwt>
<pdfrwt beam="2">0</pdfrwt>
<totfact> 0.19973668E+04</totfact>
</mgrwt>
</event>
<event>
 6    1  0.1295671E-001  0.3000000E+03  0.7818608E-02  0.1093470E+00
         21   -1    0    0  501  502  0.00000000000E+00  0.00000000000E+00  0.21209579201E+01  0.21209579201E+01  0.00000000000E+00 0. -1.
         13   -1    0    0    0    0 -0.00000000000E+00 -0.00000000000E+00 -0.10000000000E+04  0.10000000000E+04  0.00000000000E+00 0.  1.
    9000005    2    1    2  501    0  0.36799295911E+01 -0.35857105993E+02 -0.81040651329E+03  0.81121463801E+03  0.33463713449E+01 0.  0.
         13    1    3    3    0    0  0.22250469954E+01 -0.28978170775E+02 -0.62650170198E+03  0.62717546811E+03  0.00000000000E+00 0.  1.
          3    1    3    3  501    0  0.14548825957E+01 -0.68789352185E+01 -0.18390481131E+03  0.18403916990E+03  0.00000000000E+00 0.  1.
         -3    1    1    2    0  502 -0.36799295911E+01  0.35857105993E+02 -0.18747252879E+03  0.19090631991E+03  0.00000000000E+00 0. -1.
<mgrwt>
<rscale>  1 0.30000000E+03</rscale>
<asrwt>0</asrwt>
<pdfrwt beam="1">  1       21 0.77125905E-02 0.30000000E+03</pdfrwt>
<pdfrwt beam="2">0</pdfrwt>
<totfact> 0.13620861E+04</totfact>
</mgrwt>
</event>
<event>
 6    1  0.1295671E-001  0.3000000E+03  0.7818608E-02  0.1093470E+00
         21   -1    0    0  501  502  0.00000000000E+00  0.00000000000E+00  0.23423466140E+01  0.23423466140E+01  0.00000000000E+00 0. -1.
         13   -1    0    0    0    0 -0.00000000000E+00 -0.00000000000E+00 -0.10000000000E+04  0.10000000000E+04  0.00000000000E+00 0.  1.
    9000005    2    1    2  501    0  0.22319840122E+02  0.39335792215E+02 -0.67532583708E+03  0.67685305398E+03  0.44261326912E+01 0.  0.
         13    1    3    3    0    0  0.13216149300E+02  0.20816880475E+02 -0.39478421703E+03  0.39555351993E+03  0.00000000000E+00 0.  1.
          1    1    3    3  501    0  0.91036908211E+01  0.18518911740E+02 -0.28054162005E+03  0.28129953405E+03  0.00000000000E+00 0.  1.
         -1    1    1    2    0  502 -0.22319840122E+02 -0.39335792215E+02 -0.32233181631E+03  0.32548929263E+03  0.00000000000E+00 0. -1.
<mgrwt>
<rscale>  1 0.30000000E+03</rscale>
<asrwt>0</asrwt>
<pdfrwt beam="1">  1       21 0.85176420E-02 0.30000000E+03</pdfrwt>
<pdfrwt beam="2">0</pdfrwt>
<totfact> 0.11439358E+04</totfact>
</mgrwt>
</event>
<event>
 6    1  0.1295671E-001  0.3000000E+03  0.7818608E-02  0.1093470E+00
         21   -1    0    0  501  502  0.00000000000E+00  0.00000000000E+00  0.31755972644E+01  0.31755972644E+01  0.00000000000E+00 0. -1.
         13   -1    0    0    0    0 -0.00000000000E+00 -0.00000000000E+00 -0.10000000000E+04  0.10000000000E+04  0.00000000000E+00 0.  1.
    9000005    2    1    2  501    0 -0.46313049224E+02  0.10443051778E+02 -0.76825320405E+03  0.76972592661E+03  0.33257642303E+01 0.  0.
         13    1    3    3    0    0 -0.97268734513E+01  0.89018241547E+00 -0.16477647520E+03  0.16506571803E+03  0.00000000000E+00 0.  1.
          1    1    3    3  501    0 -0.36586175773E+02  0.95528693623E+01 -0.60347672885E+03  0.60466020858E+03  0.00000000000E+00 0.  1.
         -1    1    1    2    0  502  0.46313049224E+02 -0.10443051778E+02 -0.22857119869E+03  0.23344967065E+03  0.00000000000E+00 0. -1.
<mgrwt>
<rscale>  1 0.30000000E+03</rscale>
<asrwt>0</asrwt>
<pdfrwt beam="1">  1       21 0.11547651E-01 0.30000000E+03</pdfrwt>
<pdfrwt beam="2">0</pdfrwt>
<totfact> 0.66437276E+03</totfact>
</mgrwt>
</event>
<event>
 6    1  0.1295671E-001  0.3000000E+03  0.7818608E-02  0.1093470E+00
         21   -1    0    0  501  502  0.00000000000E+00  0.00000000000E+00  0.11303032439E+01  0.11303032439E+01  0.00000000000E+00 0. -1.
         13   -1    0    0    0    0 -0.00000000000E+00 -0.00000000000E+00 -0.10000000000E+04  0.10000000000E+04  0.00000000000E+00 0.  1.
    9000005    2    1    2  501    0  0.16634156139E+02 -0.28817236032E+02 -0.56358189076E+03  0.56457262974E+03  0.32524483293E+01 0.  0.
         13    1    3    3    0    0  0.42924673868E+01 -0.76597106099E+01 -0.12580337600E+03  0.12610942017E+03  0.00000000000E+00 0.  1.
          1    1    3    3  501    0  0.12341688753E+02 -0.21157525422E+02 -0.43777851476E+03  0.43846320957E+03  0.00000000000E+00 0.  1.
         -1    1    1    2    0  502 -0.16634156139E+02  0.28817236032E+02 -0.43528780600E+03  0.43655767350E+03  0.00000000000E+00 0. -1.
<mgrwt>
<rscale>  1 0.30000000E+03</rscale>
<asrwt>0</asrwt>
<pdfrwt beam="1">  1       21 0.41102023E-02 0.30000000E+03</pdfrwt>
<pdfrwt beam="2">0</pdfrwt>
<totfact> 0.40164949E+04</totfact>
</mgrwt>
</event>
<event>
 6    1  0.1295671E-001  0.3000000E+03  0.7818608E-02  0.1093470E+00
         21   -1    0    0  501  502  0.00000000000E+00  0.00000000000E+00  0.11889586485E+02  0.11889586485E+02  0.00000000000E+00 0. -1.
         13   -1    0    0    0    0 -0.00000000000E+00 -0.00000000000E+00 -0.10000000000E+04  0.10000000000E+04  0.00000000000E+00 0.  1.
    9000005    2    1    2  501    0 -0.61351620958E+02  0.13250023430E+02 -0.90774632755E+03  0.90991914553E+03  0.31419277456E+01 0.  0.
         13    1    3    3    0    0 -0.59623243734E+02  0.12359600127E+02 -0.88228937113E+03  0.88438805132E+03  0.00000000000E+00 0.  1.
          3    1    3    3  501    0 -0.17283772240E+01  0.89042330295E+00 -0.25456956423E+02  0.25531094215E+02  0.00000000000E+00 0.  1.
         -1    1    1    2    0  502  0.61351620958E+02 -0.13250023430E+02 -0.80364085965E+02  0.10197044095E+03  0.00000000000E+00 0. -1.
<mgrwt>
<rscale>  1 0.30000000E+03</rscale>
<asrwt>0</asrwt>
<pdfrwt beam="1">  1       21 0.43234951E-01 0.30000000E+03</pdfrwt>
<pdfrwt beam="2">0</pdfrwt>
<totfact> 0.51285216E+02</totfact>
</mgrwt>
</event>
<event>
 6    1  0.1295671E-001  0.3000000E+03  0.7818608E-02  0.1093470E+00
         21   -1    0    0  501  502  0.00000000000E+00  0.00000000000E+00  0.20409329759E+01  0.20409329759E+01  0.00000000000E+00 0. -1.
         13   -1    0    0    0    0 -0.00000000000E+00 -0.00000000000E+00 -0.10000000000E+04  0.10000000000E+04  0.00000000000E+00 0.  1.
    9000005    2    1    2  501    0 -0.64152998694E+01  0.34548571302E+02 -0.81320316262E+03  0.81397311525E+03  0.42530936864E+01 0.  0.
         13    1    3    3    0    0 -0.59434071899E+01  0.33239144805E+02 -0.79502767765E+03  0.79574441441E+03  0.00000000000E+00 0.  1.
          1    1    3    3  501    0 -0.47189267949E+00  0.13094264970E+01 -0.18175484969E+02  0.18228700840E+02  0.00000000000E+00 0.  1.
         -1    1    1    2    0  502  0.64152998694E+01 -0.34548571302E+02 -0.18475590441E+03  0.18806781773E+03  0.00000000000E+00 0. -1.
<mgrwt>
<rscale>  1 0.30000000E+03</rscale>
<asrwt>0</asrwt>
<pdfrwt beam="1">  1       21 0.74215901E-02 0.30000000E+03</pdfrwt>
<pdfrwt beam="2">0</pdfrwt>
<totfact> 0.14570042E+04</totfact>
</mgrwt>
</event>
<event>
 6    1  0.1295671E-001  0.3000000E+03  0.7818608E-02  0.1093470E+00
         21   -1    0    0  501  502  0.00000000000E+00  0.00000000000E+00  0.32594488984E+01  0.32594488984E+01  0.00000000000E+00 0. -1.
         13   -1    0    0    0    0 -0.00000000000E+00 -0.00000000000E+00 -0.10000000000E+04  0.10000000000E+04  0.00000000000E+00 0.  1.
    9000005    2    1    2  501    0  0.13216146840E+02 -0.39127140085E+02 -0.84456844406E+03  0.84558272331E+03  0.29471413836E+01 0.  0.
         13    1    3    3    0    0  0.12134467489E+02 -0.34764460356E+02 -0.76848197322E+03  0.76936360466E+03  0.00000000000E+00 0.  1.
          1    1    3    3  501    0  0.10816793514E+01 -0.43626797284E+01 -0.76086470833E+02  0.76219118654E+02  0.00000000000E+00 0.  1.
         -3    1    1    2    0  502 -0.13216146840E+02  0.39127140085E+02 -0.15217210704E+03  0.15767672558E+03  0.00000000000E+00 0. -1.
<mgrwt>
<rscale>  1 0.30000000E+03</rscale>
<asrwt>0</asrwt>
<pdfrwt beam="1">  1       21 0.11852566E-01 0.30000000E+03</pdfrwt>
<pdfrwt beam="2">0</pdfrwt>
<totfact> 0.63376321E+03</totfact>
</mgrwt>
</event>
<event>
 6    1  0.1295671E-001  0.3000000E+03  0.7818608E-02  0.1093470E+00
         21   -1    0    0  501  502  0.00000000000E+00  0.00000000000E+00  0.21244567097E+01  0.21244567097E+01  0.00000000000E+00 0. -1.
         13   -1    0    0    0    0 -0.00000000000E+00 -0.00000000000E+00 -0.10000000000E+04  0.10000000000E+04  0.00000000000E+00 0.  1.
    9000005    2    1    2  501    0 -0.12467294803E+02 -0.32991173000E+02 -0.82108491129E+03  0.82185028080E+03  0.36880310352E+01 0.  0.
         13    1    3    3    0    0 -0.54929002978E+01 -0.18968992984E+02 -0.47976439923E+03  0.48017067113E+03  0.00000000000E+00 0.  1.
          3    1    3    3  501    0 -0.69743945049E+01 -0.14022180016E+02 -0.34132051206E+03  0.34167960967E+03  0.00000000000E+00 0.  1.
         -3    1    1    2    0  502  0.12467294803E+02  0.32991173000E+02 -0.17679063200E+03  0.18027417591E+03  0.00000000000E+00 0. -1.
<mgrwt>
<rscale>  1 0.30000000E+03</rscale>
<asrwt>0</asrwt>
<pdfrwt beam="1">  1       21 0.77253134E-02 0.30000000E+03</pdfrwt>
<pdfrwt beam="2">0</pdfrwt>
<totfact> 0.13581558E+04</totfact>
</mgrwt>
</event>
<event>
 6    1  0.1295671E-001  0.3000000E+03  0.7818608E-02  0.1093470E+00
         21   -1    0    0  501  502  0.00000000000E+00  0.00000000000E+00  0.17556268516E+01  0.17556268516E+01  0.00000000000E+00 0. -1.
         13   -1    0    0    0    0 -0.00000000000E+00 -0.00000000000E+00 -0.10000000000E+04  0.10000000000E+04  0.00000000000E+00 0.  1.
    9000005    2    1    2  501    0  0.25214096570E+02  0.32919222476E+02 -0.56694141989E+03  0.56846396600E+03  0.30465027705E+01 0.  0.
         13    1    3    3    0    0  0.12510652394E+02  0.18344899026E+02 -0.29069428580E+03  0.29154111123E+03  0.00000000000E+00 0.  1.
          3    1    3    3  501    0  0.12703444177E+02  0.14574323450E+02 -0.27624713409E+03  0.27692285477E+03  0.00000000000E+00 0.  1.
         -3    1    1    2    0  502 -0.25214096570E+02 -0.32919222476E+02 -0.43130295326E+03  0.43329166085E+03  0.00000000000E+00 0. -1.
<mgrwt>
<rscale>  1 0.30000000E+03</rscale>
<asrwt>0</asrwt>
<pdfrwt beam="1">  1       21 0.63841111E-02 0.30000000E+03</pdfrwt>
<pdfrwt beam="2">0</pdfrwt>
<totfact> 0.18930296E+04</totfact>
</mgrwt>
</event>
<event>
 6    1  0.1295671E-001  0.3000000E+03  0.7818608E-02  0.1093470E+00
         21   -1    0    0  501  502  0.00000000000E+00  0.00000000000E+00  0.18450275043E+01  0.18450275043E+01  0.00000000000E+00 0. -1.
         13   -1    0    0    0    0 -0.00000000000E+00 -0.00000000000E+00 -0.10000000000E+04  0.10000000000E+04  0.00000000000E+00 0.  1.
    9000005    2    1    2  501    0  0.13164034128E+01  0.37919830661E+02 -0.26660343346E+03  0.26931018141E+03  0.33070536331E+01 0.  0.
         13    1    3    3    0    0  0.16836380000E+00  0.17575548526E+00 -0.37869963282E+01  0.37948092903E+01  0.00000000000E+00 0.  1.
          3    1    3    3  501    0  0.11480396128E+01  0.37744075176E+02 -0.26281643714E+03  0.26551537212E+03  0.00000000000E+00 0.  1.
         -1    1    1    2    0  502 -0.13164034128E+01 -0.37919830661E+02 -0.73155153903E+03  0.73253484609E+03  0.00000000000E+00 0. -1.
<mgrwt>
<rscale>  1 0.30000000E+03</rscale>
<asrwt>0</asrwt>
<pdfrwt beam="1">  1       21 0.67092051E-02 0.30000000E+03</pdfrwt>
<pdfrwt beam="2">0</pdfrwt>
<totfact> 0.17369761E+04</totfact>
</mgrwt>
</event>
<event>
 6    1  0.1295671E-001  0.3000000E+03  0.7818608E-02  0.1093470E+00
         21   -1    0    0  501  502  0.00000000000E+00  0.00000000000E+00  0.44492035734E+01  0.44492035734E+01  0.00000000000E+00 0. -1.
         13   -1    0    0    0    0 -0.00000000000E+00 -0.00000000000E+00 -0.10000000000E+04  0.10000000000E+04  0.00000000000E+00 0.  1.
    9000005    2    1    2  501    0  0.13240503900E+02 -0.48163452420E+02 -0.83044049273E+03  0.83194864856E+03  0.34803427279E+01 0.  0.
         13    1    3    3    0    0  0.40266220311E+01 -0.21113667515E+02 -0.35365612036E+03  0.35430869607E+03  0.00000000000E+00 0.  1.
          1    1    3    3  501    0  0.92138818693E+01 -0.27049784905E+02 -0.47678437237E+03  0.47763995249E+03  0.00000000000E+00 0.  1.
         -3    1    1    2    0  502 -0.13240503900E+02  0.48163452420E+02 -0.16511030370E+03  0.17250055501E+03  0.00000000000E+00 0. -1.
<mgrwt>
<rscale>  1 0.30000000E+03</rscale>
<asrwt>0</asrwt>
<pdfrwt beam="1">  1       21 0.16178956E-01 0.30000000E+03</pdfrwt>
<pdfrwt beam="2">0</pdfrwt>
<totfact> 0.35776881E+03</totfact>
</mgrwt>
</event>
<event>
 6    1  0.1295671E-001  0.3000000E+03  0.7818608E-02  0.1093470E+00
         21   -1    0    0  501  502  0.00000000000E+00  0.00000000000E+00  0.45735204692E+01  0.45735204692E+01  0.00000000000E+00 0. -1.
         13   -1    0    0    0    0 -0.00000000000E+00 -0.00000000000E+00 -0.10000000000E+04  0.10000000000E+04  0.00000000000E+00 0.  1.
    9000005    2    1    2  501    0  0.56741828060E+02  0.25985830714E+02 -0.68998344547E+03  0.69281985890E+03  0.52252660777E+01 0.  0.
         13    1    3    3    0    0  0.48310483543E+01  0.12846695672E+01 -0.69147153692E+02  0.69327615478E+02  0.00000000000E+00 0.  1.
          1    1    3    3  501    0  0.51910779705E+02  0.24701161146E+02 -0.62083629178E+03  0.62349224342E+03  0.00000000000E+00 0.  1.
         -3    1    1    2    0  502 -0.56741828060E+02 -0.25985830714E+02 -0.30544303406E+03  0.31175366157E+03  0.00000000000E+00 0. -1.
<mgrwt>
<rscale>  1 0.30000000E+03</rscale>
<asrwt>0</asrwt>
<pdfrwt beam="1">  1       21 0.16631019E-01 0.30000000E+03</pdfrwt>
<pdfrwt beam="2">0</pdfrwt>
<totfact> 0.33982291E+03</totfact>
</mgrwt>
</event>
<event>
 6    1  0.1295671E-001  0.3000000E+03  0.7818608E-02  0.1093470E+00
         21   -1    0    0  501  502  0.00000000000E+00  0.00000000000E+00  0.22008277126E+02  0.22008277126E+02  0.00000000000E+00 0. -1.
         13   -1    0    0    0    0 -0.00000000000E+00 -0.00000000000E+00 -0.10000000000E+04  0.10000000000E+04  0.00000000000E+00 0.  1.
    9000005    2    1    2  501    0  0.41625049610E+02 -0.57104583805E+02 -0.93829096549E+03  0.94095441612E+03  0.34203883518E+01 0.  0.
         13    1    3    3    0    0  0.27264774640E+02 -0.34698449531E+02 -0.57926105113E+03  0.58093951121E+03  0.00000000000E+00 0.  1.
          3    1    3    3  501    0  0.14360274970E+02 -0.22406134274E+02 -0.35902991436E+03  0.36001490491E+03  0.00000000000E+00 0.  1.
         -3    1    1    2    0  502 -0.41625049610E+02  0.57104583805E+02 -0.39700757385E+02  0.81053861003E+02  0.00000000000E+00 0. -1.
<mgrwt>
<rscale>  1 0.30000000E+03</rscale>
<asrwt>0</asrwt>
<pdfrwt beam="1">  1       21 0.80030267E-01 0.30000000E+03</pdfrwt>
<pdfrwt beam="2">0</pdfrwt>
<totfact> 0.12858142E+02</totfact>
</mgrwt>
</event>
<event>
 6    1  0.1295671E-001  0.3000000E+03  0.7818608E-02  0.1093470E+00
         21   -1    0    0  501  502  0.00000000000E+00  0.00000000000E+00  0.13989400147E+01  0.13989400147E+01  0.00000000000E+00 0. -1.
         13   -1    0    0    0    0 -0.00000000000E+00 -0.00000000000E+00 -0.10000000000E+04  0.10000000000E+04  0.00000000000E+00 0.  1.
    9000005    2    1    2  501    0  0.86828839472E+01  0.33305047061E+02 -0.69375409996E+03  0.69461516001E+03  0.32940370142E+01 0.  0.
         13    1    3    3    0    0  0.31002939349E+00  0.61582106199E+01 -0.12557497991E+03  0.12572627114E+03  0.00000000000E+00 0.  1.
          1    1    3    3  501    0  0.83728545538E+01  0.27146836441E+02 -0.56817912005E+03  0.56888888887E+03  0.00000000000E+00 0.  1.
         -1    1    1    2    0  502 -0.86828839472E+01 -0.33305047061E+02 -0.30484696003E+03  0.30678378000E+03  0.00000000000E+00 0. -1.
<mgrwt>
<rscale>  1 0.30000000E+03</rscale>
<asrwt>0</asrwt>
<pdfrwt beam="1">  1       21 0.50870653E-02 0.30000000E+03</pdfrwt>
<pdfrwt beam="2">0</pdfrwt>
<totfact> 0.27968956E+04</totfact>
</mgrwt>
</event>
<event>
 6    1  0.1295671E-001  0.3000000E+03  0.7818608E-02  0.1093470E+00
         21   -1    0    0  501  502  0.00000000000E+00  0.00000000000E+00  0.91711982632E+01  0.91711982632E+01  0.00000000000E+00 0. -1.
         13   -1    0    0    0    0 -0.00000000000E+00 -0.00000000000E+00 -0.10000000000E+04  0.10000000000E+04  0.00000000000E+00 0.  1.
    9000005    2    1    2  501    0 -0.34484815428E+00 -0.37059915600E+02 -0.96066285702E+03  0.96138479345E+03  0.37469921822E+01 0.  0.
         13    1    3    3    0    0 -0.90841788690E+00 -0.48951181714E+01 -0.15497284737E+03  0.15505280012E+03  0.00000000000E+00 0.  1.
          1    1    3    3  501    0  0.56356973262E+00 -0.32164797429E+02 -0.80569000965E+03  0.80633199332E+03  0.00000000000E+00 0.  1.
         -1    1    1    2    0  502  0.34484815428E+00  0.37059915600E+02 -0.30165944717E+02  0.47786404815E+02  0.00000000000E+00 0. -1.
<mgrwt>
<rscale>  1 0.30000000E+03</rscale>
<asrwt>0</asrwt>
<pdfrwt beam="1">  1       21 0.33349882E-01 0.30000000E+03</pdfrwt>
<pdfrwt beam="2">0</pdfrwt>
<totfact> 0.87818105E+02</totfact>
</mgrwt>
</event>
<event>
 6    1  0.1295671E-001  0.3000000E+03  0.7818608E-02  0.1093470E+00
         21   -1    0    0  501  502  0.00000000000E+00  0.00000000000E+00  0.20245003899E+01  0.20245003899E+01  0.00000000000E+00 0. -1.
         13   -1    0    0    0    0 -0.00000000000E+00 -0.00000000000E+00 -0.10000000000E+04  0.10000000000E+04  0.00000000000E+00 0.  1.
    9000005    2    1    2  501    0 -0.33717267111E+02  0.24699800583E+01 -0.82917536054E+03  0.82987212064E+03  0.36059933968E+01 0.  0.
         13    1    3    3    0    0 -0.25725184463E+02  0.47572284411E+00 -0.64327764158E+03  0.64379199714E+03  0.00000000000E+00 0.  1.
          3    1    3    3  501    0 -0.79920826486E+01  0.19942572142E+01 -0.18589771897E+03  0.18608012351E+03  0.00000000000E+00 0.  1.
         -3    1    1    2    0  502  0.33717267111E+02 -0.24699800583E+01 -0.16880013907E+03  0.17215237975E+03  0.00000000000E+00 0. -1.
<mgrwt>
<rscale>  1 0.30000000E+03</rscale>
<asrwt>0</asrwt>
<pdfrwt beam="1">  1       21 0.73618351E-02 0.30000000E+03</pdfrwt>
<pdfrwt beam="2">0</pdfrwt>
<totfact> 0.14777501E+04</totfact>
</mgrwt>
</event>
<event>
 6    1  0.1295671E-001  0.3000000E+03  0.7818608E-02  0.1093470E+00
         21   -1    0    0  501  502  0.00000000000E+00  0.00000000000E+00  0.19037383008E+01  0.19037383008E+01  0.00000000000E+00 0. -1.
         13   -1    0    0    0    0 -0.00000000000E+00 -0.00000000000E+00 -0.10000000000E+04  0.10000000000E+04  0.00000000000E+00 0.  1.
    9000005    2    1    2  501    0 -0.40095167775E+02  0.47576370557E+01 -0.68783173640E+03  0.68902303700E+03  0.31607474184E+01 0.  0.
         13    1    3    3    0    0 -0.18119504222E+02  0.12804826622E+01 -0.33166074180E+03  0.33215779943E+03  0.00000000000E+00 0.  1.
          1    1    3    3  501    0 -0.21975663553E+02  0.34771543936E+01 -0.35617099461E+03  0.35686523758E+03  0.00000000000E+00 0.  1.
         -1    1    1    2    0  502  0.40095167775E+02 -0.47576370557E+01 -0.31026452529E+03  0.31288070130E+03  0.00000000000E+00 0. -1.
<mgrwt>
<rscale>  1 0.30000000E+03</rscale>
<asrwt>0</asrwt>
<pdfrwt beam="1">  1       21 0.69226993E-02 0.30000000E+03</pdfrwt>
<pdfrwt beam="2">0</pdfrwt>
<totfact> 0.16449998E+04</totfact>
</mgrwt>
</event>
<event>
 6    1  0.1295671E-001  0.3000000E+03  0.7818608E-02  0.1093470E+00
         21   -1    0    0  501  502  0.00000000000E+00  0.00000000000E+00  0.44933532938E+01  0.44933532938E+01  0.00000000000E+00 0. -1.
         13   -1    0    0    0    0 -0.00000000000E+00 -0.00000000000E+00 -0.10000000000E+04  0.10000000000E+04  0.00000000000E+00 0.  1.
    9000005    2    1    2  501    0  0.43490984940E+02  0.39532353605E+02 -0.73865032988E+03  0.74099868494E+03  0.45242139463E+01 0.  0.
         13    1    3    3    0    0  0.34682137970E+02  0.33161263682E+02 -0.58550753547E+03  0.58747050496E+03  0.00000000000E+00 0.  1.
          3    1    3    3  501    0  0.88088469699E+01  0.63710899229E+01 -0.15314279441E+03  0.15352817999E+03  0.00000000000E+00 0.  1.
         -1    1    1    2    0  502 -0.43490984940E+02 -0.39532353605E+02 -0.25685631683E+03  0.26349466835E+03  0.00000000000E+00 0. -1.
<mgrwt>
<rscale>  1 0.30000000E+03</rscale>
<asrwt>0</asrwt>
<pdfrwt beam="1">  1       21 0.16339501E-01 0.30000000E+03</pdfrwt>
<pdfrwt beam="2">0</pdfrwt>
<totfact> 0.35123679E+03</totfact>
</mgrwt>
</event>
<event>
 6    1  0.1295671E-001  0.3000000E+03  0.7818608E-02  0.1093470E+00
         21   -1    0    0  501  502  0.00000000000E+00  0.00000000000E+00  0.17855215190E+01  0.17855215190E+01  0.00000000000E+00 0. -1.
         13   -1    0    0    0    0 -0.00000000000E+00 -0.00000000000E+00 -0.10000000000E+04  0.10000000000E+04  0.00000000000E+00 0.  1.
    9000005    2    1    2  501    0  0.28554135479E+02  0.30853616059E+02 -0.45836858349E+03  0.46030525908E+03  0.34480321200E+01 0.  0.
         13    1    3    3    0    0  0.12795922160E+02  0.15890555091E+02 -0.21104248001E+03  0.21202635151E+03  0.00000000000E+00 0.  1.
          3    1    3    3  501    0  0.15758213319E+02  0.14963060967E+02 -0.24732610348E+03  0.24827890757E+03  0.00000000000E+00 0.  1.
         -1    1    1    2    0  502 -0.28554135479E+02 -0.30853616059E+02 -0.53984589499E+03  0.54148026244E+03  0.00000000000E+00 0. -1.
<mgrwt>
<rscale>  1 0.30000000E+03</rscale>
<asrwt>0</asrwt>
<pdfrwt beam="1">  1       21 0.64928192E-02 0.30000000E+03</pdfrwt>
<pdfrwt beam="2">0</pdfrwt>
<totfact> 0.18385196E+04</totfact>
</mgrwt>
</event>
<event>
 6    1  0.1295671E-001  0.3000000E+03  0.7818608E-02  0.1093470E+00
         21   -1    0    0  501  502  0.00000000000E+00  0.00000000000E+00  0.11318333318E+01  0.11318333318E+01  0.00000000000E+00 0. -1.
         13   -1    0    0    0    0 -0.00000000000E+00 -0.00000000000E+00 -0.10000000000E+04  0.10000000000E+04  0.00000000000E+00 0.  1.
    9000005    2    1    2  501    0  0.23615724977E+02 -0.19789387509E+02 -0.69904499820E+03  0.69972968557E+03  0.28984543041E+01 0.  0.
         13    1    3    3    0    0  0.10968172857E+02 -0.96172393193E+01 -0.36291801637E+03  0.36321106635E+03  0.00000000000E+00 0.  1.
          1    1    3    3  501    0  0.12647552121E+02 -0.10172148190E+02 -0.33612698182E+03  0.33651861922E+03  0.00000000000E+00 0.  1.
         -3    1    1    2    0  502 -0.23615724977E+02  0.19789387509E+02 -0.29982316847E+03  0.30140214776E+03  0.00000000000E+00 0. -1.
<mgrwt>
<rscale>  1 0.30000000E+03</rscale>
<asrwt>0</asrwt>
<pdfrwt beam="1">  1       21 0.41157662E-02 0.30000000E+03</pdfrwt>
<pdfrwt beam="2">0</pdfrwt>
<totfact> 0.40073416E+04</totfact>
</mgrwt>
</event>
<event>
 6    1  0.1295671E-001  0.3000000E+03  0.7818608E-02  0.1093470E+00
         21   -1    0    0  501  502  0.00000000000E+00  0.00000000000E+00  0.38008564169E+01  0.38008564169E+01  0.00000000000E+00 0. -1.
         13   -1    0    0    0    0 -0.00000000000E+00 -0.00000000000E+00 -0.10000000000E+04  0.10000000000E+04  0.00000000000E+00 0.  1.
    9000005    2    1    2  501    0 -0.30812133644E+02  0.29034230197E+02 -0.86275501430E+03  0.86380189305E+03  0.38886551978E+01 0.  0.
         13    1    3    3    0    0 -0.29483807427E+02  0.27284713118E+02 -0.83147100659E+03  0.83244085993E+03  0.00000000000E+00 0.  1.
          3    1    3    3  501    0 -0.13283262172E+01  0.17495170796E+01 -0.31284007705E+02  0.31361033124E+02  0.00000000000E+00 0.  1.
         -3    1    1    2    0  502  0.30812133644E+02 -0.29034230197E+02 -0.13344412928E+03  0.13999896336E+03  0.00000000000E+00 0. -1.
<mgrwt>
<rscale>  1 0.30000000E+03</rscale>
<asrwt>0</asrwt>
<pdfrwt beam="1">  1       21 0.13821325E-01 0.30000000E+03</pdfrwt>
<pdfrwt beam="2">0</pdfrwt>
<totfact> 0.47882917E+03</totfact>
</mgrwt>
</event>
<event>
 6    1  0.1295671E-001  0.3000000E+03  0.7818608E-02  0.1093470E+00
         21   -1    0    0  501  502  0.00000000000E+00  0.00000000000E+00  0.20214304110E+01  0.20214304110E+01  0.00000000000E+00 0. -1.
         13   -1    0    0    0    0 -0.00000000000E+00 -0.00000000000E+00 -0.10000000000E+04  0.10000000000E+04  0.00000000000E+00 0.  1.
    9000005    2    1    2  501    0  0.36130186904E+02 -0.26351029986E+02 -0.46081349962E+03  0.46299816600E+03  0.42957066485E+01 0.  0.
         13    1    3    3    0    0  0.54828996764E+01 -0.22127086903E+01 -0.60051969510E+02  0.60342334315E+02  0.00000000000E+00 0.  1.
          1    1    3    3  501    0  0.30647287228E+02 -0.24138321295E+02 -0.40076153011E+03  0.40265583168E+03  0.00000000000E+00 0.  1.
         -1    1    1    2    0  502 -0.36130186904E+02  0.26351029986E+02 -0.53716506997E+03  0.53902326441E+03  0.00000000000E+00 0. -1.
<mgrwt>
<rscale>  1 0.30000000E+03</rscale>
<asrwt>0</asrwt>
<pdfrwt beam="1">  1       21 0.73506715E-02 0.30000000E+03</pdfrwt>
<pdfrwt beam="2">0</pdfrwt>
<totfact> 0.14816755E+04</totfact>
</mgrwt>
</event>
<event>
 6    1  0.1295671E-001  0.3000000E+03  0.7818608E-02  0.1093470E+00
         21   -1    0    0  501  502  0.00000000000E+00  0.00000000000E+00  0.44661535368E+01  0.44661535368E+01  0.00000000000E+00 0. -1.
         13   -1    0    0    0    0 -0.00000000000E+00 -0.00000000000E+00 -0.10000000000E+04  0.10000000000E+04  0.00000000000E+00 0.  1.
    9000005    2    1    2  501    0 -0.53640197997E+02  0.15609600065E+02 -0.77323229864E+03  0.77525247895E+03  0.26996285977E+01 0.  0.
         13    1    3    3    0    0 -0.24065496801E+02  0.83732034913E+01 -0.34843502394E+03  0.34936545991E+03  0.00000000000E+00 0.  1.
          1    1    3    3  501    0 -0.29574701196E+02  0.72363965737E+01 -0.42479727471E+03  0.42588701904E+03  0.00000000000E+00 0.  1.
         -1    1    1    2    0  502  0.53640197997E+02 -0.15609600065E+02 -0.22230154782E+03  0.22921367459E+03  0.00000000000E+00 0. -1.
<mgrwt>
<rscale>  1 0.30000000E+03</rscale>
<asrwt>0</asrwt>
<pdfrwt beam="1">  1       21 0.16240593E-01 0.30000000E+03</pdfrwt>
<pdfrwt beam="2">0</pdfrwt>
<totfact> 0.35523972E+03</totfact>
</mgrwt>
</event>
<event>
 6    1  0.1295671E-001  0.3000000E+03  0.7818608E-02  0.1093470E+00
         21   -1    0    0  501  502  0.00000000000E+00  0.00000000000E+00  0.13935449336E+01  0.13935449336E+01  0.00000000000E+00 0. -1.
         13   -1    0    0    0    0 -0.00000000000E+00 -0.00000000000E+00 -0.10000000000E+04  0.10000000000E+04  0.00000000000E+00 0.  1.
    9000005    2    1    2  501    0 -0.34630308166E+02  0.27760858702E+01 -0.68087465826E+03  0.68176804596E+03  0.32254187616E+01 0.  0.
         13    1    3    3    0    0 -0.54887984651E+01  0.11772577884E+00 -0.87214370503E+02  0.87386996689E+02  0.00000000000E+00 0.  1.
          1    1    3    3  501    0 -0.29141509701E+02  0.26583600914E+01 -0.59366028776E+03  0.59438104927E+03  0.00000000000E+00 0.  1.
         -1    1    1    2    0  502  0.34630308166E+02 -0.27760858702E+01 -0.31773179680E+03  0.31962549898E+03  0.00000000000E+00 0. -1.
<mgrwt>
<rscale>  1 0.30000000E+03</rscale>
<asrwt>0</asrwt>
<pdfrwt beam="1">  1       21 0.50674468E-02 0.30000000E+03</pdfrwt>
<pdfrwt beam="2">0</pdfrwt>
<totfact> 0.28153942E+04</totfact>
</mgrwt>
</event>
<event>
 6    1  0.1295671E-001  0.3000000E+03  0.7818608E-02  0.1093470E+00
         21   -1    0    0  501  502  0.00000000000E+00  0.00000000000E+00  0.17046194198E+01  0.17046194198E+01  0.00000000000E+00 0. -1.
         13   -1    0    0    0    0 -0.00000000000E+00 -0.00000000000E+00 -0.10000000000E+04  0.10000000000E+04  0.00000000000E+00 0.  1.
    9000005    2    1    2  501    0  0.35163464771E+02  0.21321480118E+02 -0.47742548650E+03  0.47921392923E+03  0.44519709547E+01 0.  0.
         13    1    3    3    0    0  0.12860281095E+02  0.81918975543E+01 -0.20230988247E+03  0.20288366755E+03  0.00000000000E+00 0.  1.
          1    1    3    3  501    0  0.22303183676E+02  0.13129582563E+02 -0.27511560403E+03  0.27633026168E+03  0.00000000000E+00 0.  1.
         -3    1    1    2    0  502 -0.35163464771E+02 -0.21321480118E+02 -0.52086989408E+03  0.52249069019E+03  0.00000000000E+00 0. -1.
<mgrwt>
<rscale>  1 0.30000000E+03</rscale>
<asrwt>0</asrwt>
<pdfrwt beam="1">  1       21 0.61986291E-02 0.30000000E+03</pdfrwt>
<pdfrwt beam="2">0</pdfrwt>
<totfact> 0.19919947E+04</totfact>
</mgrwt>
</event>
<event>
 6    1  0.1295671E-001  0.3000000E+03  0.7818608E-02  0.1093470E+00
         21   -1    0    0  501  502  0.00000000000E+00  0.00000000000E+00  0.19310623844E+01  0.19310623844E+01  0.00000000000E+00 0. -1.
         13   -1    0    0    0    0 -0.00000000000E+00 -0.00000000000E+00 -0.10000000000E+04  0.10000000000E+04  0.00000000000E+00 0.  1.
    9000005    2    1    2  501    0 -0.18994054768E+02  0.34905151392E+02 -0.71179067775E+03  0.71290790452E+03  0.35450930843E+01 0.  0.
         13    1    3    3    0    0 -0.10182307913E+02  0.21962398124E+02 -0.41846842981E+03  0.41916804873E+03  0.00000000000E+00 0.  1.
          1    1    3    3  501    0 -0.88117468556E+01  0.12942753268E+02 -0.29332224794E+03  0.29373985580E+03  0.00000000000E+00 0.  1.
         -3    1    1    2    0  502  0.18994054768E+02 -0.34905151392E+02 -0.28627825986E+03  0.28902315786E+03  0.00000000000E+00 0. -1.
<mgrwt>
<rscale>  1 0.30000000E+03</rscale>
<asrwt>0</asrwt>
<pdfrwt beam="1">  1       21 0.70220598E-02 0.30000000E+03</pdfrwt>
<pdfrwt beam="2">0</pdfrwt>
<totfact> 0.16047162E+04</totfact>
</mgrwt>
</event>
<event>
 6    1  0.1295671E-001  0.3000000E+03  0.7818608E-02  0.1093470E+00
         21   -1    0    0  501  502  0.00000000000E+00  0.00000000000E+00  0.25438923338E+01  0.25438923338E+01  0.00000000000E+00 0. -1.
         13   -1    0    0    0    0 -0.00000000000E+00 -0.00000000000E+00 -0.10000000000E+04  0.10000000000E+04  0.00000000000E+00 0.  1.
    9000005    2    1    2  501    0  0.21494879565E+02  0.40357214867E+02 -0.70970585785E+03  0.71118339242E+03  0.29459042120E+01 0.  0.
         13    1    3    3    0    0  0.77019280125E+01  0.16138945602E+02 -0.29626181066E+03  0.29680102041E+03  0.00000000000E+00 0.  1.
          1    1    3    3  501    0  0.13792951553E+02  0.24218269265E+02 -0.41344404720E+03  0.41438237202E+03  0.00000000000E+00 0.  1.
         -1    1    1    2    0  502 -0.21494879565E+02 -0.40357214867E+02 -0.28775024981E+03  0.29136049991E+03  0.00000000000E+00 0. -1.
<mgrwt>
<rscale>  1 0.30000000E+03</rscale>
<asrwt>0</asrwt>
<pdfrwt beam="1">  1       21 0.92505371E-02 0.30000000E+03</pdfrwt>
<pdfrwt beam="2">0</pdfrwt>
<totfact> 0.98847104E+03</totfact>
</mgrwt>
</event>
<event>
 6    1  0.1295671E-001  0.3000000E+03  0.7818608E-02  0.1093470E+00
         21   -1    0    0  501  502  0.00000000000E+00  0.00000000000E+00  0.28539756393E+01  0.28539756393E+01  0.00000000000E+00 0. -1.
         13   -1    0    0    0    0 -0.00000000000E+00 -0.00000000000E+00 -0.10000000000E+04  0.10000000000E+04  0.00000000000E+00 0.  1.
    9000005    2    1    2  501    0 -0.36565761636E+02 -0.80913900509E+01 -0.85575521143E+03  0.85658748085E+03  0.47544654020E+01 0.  0.
         13    1    3    3    0    0 -0.12769815357E+01 -0.12697768074E+01 -0.37234107720E+02  0.37277631264E+02  0.00000000000E+00 0.  1.
          3    1    3    3  501    0 -0.35288780100E+02 -0.68216132435E+01 -0.81852110371E+03  0.81930984958E+03  0.00000000000E+00 0.  1.
         -3    1    1    2    0  502  0.36565761636E+02  0.80913900509E+01 -0.14139081293E+03  0.14626649479E+03  0.00000000000E+00 0. -1.
<mgrwt>
<rscale>  1 0.30000000E+03</rscale>
<asrwt>0</asrwt>
<pdfrwt beam="1">  1       21 0.10378115E-01 0.30000000E+03</pdfrwt>
<pdfrwt beam="2">0</pdfrwt>
<totfact> 0.80505468E+03</totfact>
</mgrwt>
</event>
<event>
 6    1  0.1295671E-001  0.3000000E+03  0.7818608E-02  0.1093470E+00
         21   -1    0    0  501  502  0.00000000000E+00  0.00000000000E+00  0.33604822116E+01  0.33604822116E+01  0.00000000000E+00 0. -1.
         13   -1    0    0    0    0 -0.00000000000E+00 -0.00000000000E+00 -0.10000000000E+04  0.10000000000E+04  0.00000000000E+00 0.  1.
    9000005    2    1    2  501    0 -0.27325868750E+02 -0.20700781620E+02 -0.90277833917E+03  0.90343477824E+03  0.32316244890E+01 0.  0.
         13    1    3    3    0    0 -0.14423812033E+02 -0.90337757955E+01 -0.43131227787E+03  0.43164793119E+03  0.00000000000E+00 0.  1.
          3    1    3    3  501    0 -0.12902056717E+02 -0.11667005824E+02 -0.47146606130E+03  0.47178684705E+03  0.00000000000E+00 0.  1.
         -3    1    1    2    0  502  0.27325868750E+02  0.20700781620E+02 -0.93861178623E+02  0.99925703976E+02  0.00000000000E+00 0. -1.
<mgrwt>
<rscale>  1 0.30000000E+03</rscale>
<asrwt>0</asrwt>
<pdfrwt beam="1">  1       21 0.12219961E-01 0.30000000E+03</pdfrwt>
<pdfrwt beam="2">0</pdfrwt>
<totfact> 0.59959400E+03</totfact>
</mgrwt>
</event>
<event>
 6    1  0.1295671E-001  0.3000000E+03  0.7818608E-02  0.1093470E+00
         21   -1    0    0  501  502  0.00000000000E+00  0.00000000000E+00  0.14150730358E+01  0.14150730358E+01  0.00000000000E+00 0. -1.
         13   -1    0    0    0    0 -0.00000000000E+00 -0.00000000000E+00 -0.10000000000E+04  0.10000000000E+04  0.00000000000E+00 0.  1.
    9000005    2    1    2  501    0  0.31804537578E+02 -0.19540893694E+02 -0.44621806893E+03  0.44778837481E+03  0.32385854925E+01 0.  0.
         13    1    3    3    0    0  0.25107741542E+02 -0.15003589718E+02 -0.36404896145E+03  0.36522205947E+03  0.00000000000E+00 0.  1.
          1    1    3    3  501    0  0.66967960353E+01 -0.45373039762E+01 -0.82169107477E+02  0.82566315336E+02  0.00000000000E+00 0.  1.
         -1    1    1    2    0  502 -0.31804537578E+02  0.19540893694E+02 -0.55236685803E+03  0.55362669823E+03  0.00000000000E+00 0. -1.
<mgrwt>
<rscale>  1 0.30000000E+03</rscale>
<asrwt>0</asrwt>
<pdfrwt beam="1">  1       21 0.51457310E-02 0.30000000E+03</pdfrwt>
<pdfrwt beam="2">0</pdfrwt>
<totfact> 0.27426915E+04</totfact>
</mgrwt>
</event>
<event>
 6    1  0.1295671E-001  0.3000000E+03  0.7818608E-02  0.1093470E+00
         21   -1    0    0  501  502  0.00000000000E+00  0.00000000000E+00  0.17881277282E+02  0.17881277282E+02  0.00000000000E+00 0. -1.
         13   -1    0    0    0    0 -0.00000000000E+00 -0.00000000000E+00 -0.10000000000E+04  0.10000000000E+04  0.00000000000E+00 0.  1.
    9000005    2    1    2  501    0  0.11916986507E+02 -0.53463024196E+02 -0.95531302845E+03  0.95689886368E+03  0.56695207025E+01 0.  0.
         13    1    3    3    0    0  0.10287970179E+02 -0.37304763881E+02 -0.70200775435E+03  0.70307352027E+03  0.00000000000E+00 0.  1.
          3    1    3    3  501    0  0.16290163284E+01 -0.16158260316E+02 -0.25330527409E+03  0.25382534340E+03  0.00000000000E+00 0.  1.
         -3    1    1    2    0  502 -0.11916986507E+02  0.53463024196E+02 -0.26805694272E+02  0.60982413605E+02  0.00000000000E+00 0. -1.
<mgrwt>
<rscale>  1 0.30000000E+03</rscale>
<asrwt>0</asrwt>
<pdfrwt beam="1">  1       21 0.65022964E-01 0.30000000E+03</pdfrwt>
<pdfrwt beam="2">0</pdfrwt>
<totfact> 0.20925177E+02</totfact>
</mgrwt>
</event>
<event>
 6    1  0.1295671E-001  0.3000000E+03  0.7818608E-02  0.1093470E+00
         21   -1    0    0  501  502  0.00000000000E+00  0.00000000000E+00  0.19813954567E+01  0.19813954567E+01  0.00000000000E+00 0. -1.
         13   -1    0    0    0    0 -0.00000000000E+00 -0.00000000000E+00 -0.10000000000E+04  0.10000000000E+04  0.00000000000E+00 0.  1.
    9000005    2    1    2  501    0  0.29988281465E+02  0.34491241055E+01 -0.86694287831E+03  0.86747474324E+03  0.33589326890E+01 0.  0.
         13    1    3    3    0    0  0.45578733259E+01 -0.68075036641E+00 -0.13019289297E+03  0.13027442961E+03  0.00000000000E+00 0.  1.
          1    1    3    3  501    0  0.25430408139E+02  0.41298744719E+01 -0.73674998534E+03  0.73720031363E+03  0.00000000000E+00 0.  1.
         -3    1    1    2    0  502 -0.29988281465E+02 -0.34491241055E+01 -0.13107572623E+03  0.13450665221E+03  0.00000000000E+00 0. -1.
<mgrwt>
<rscale>  1 0.30000000E+03</rscale>
<asrwt>0</asrwt>
<pdfrwt beam="1">  1       21 0.72050896E-02 0.30000000E+03</pdfrwt>
<pdfrwt beam="2">0</pdfrwt>
<totfact> 0.15343487E+04</totfact>
</mgrwt>
</event>
<event>
 6    1  0.1295671E-001  0.3000000E+03  0.7818608E-02  0.1093470E+00
         21   -1    0    0  501  502  0.00000000000E+00  0.00000000000E+00  0.55134612658E+01  0.55134612658E+01  0.00000000000E+00 0. -1.
         13   -1    0    0    0    0 -0.00000000000E+00 -0.00000000000E+00 -0.10000000000E+04  0.10000000000E+04  0.00000000000E+00 0.  1.
    9000005    2    1    2  501    0 -0.65724937918E+02  0.28957714345E+02 -0.62408628360E+03  0.62821428860E+03  0.33446001335E+01 0.  0.
         13    1    3    3    0    0 -0.36678879638E+02  0.17967942387E+02 -0.35532061403E+03  0.35766034994E+03  0.00000000000E+00 0.  1.
          1    1    3    3  501    0 -0.29046058280E+02  0.10989771957E+02 -0.26876566956E+03  0.27055393866E+03  0.00000000000E+00 0.  1.
         -3    1    1    2    0  502  0.65724937918E+02 -0.28957714345E+02 -0.37040025514E+03  0.37729917266E+03  0.00000000000E+00 0. -1.
<mgrwt>
<rscale>  1 0.30000000E+03</rscale>
<asrwt>0</asrwt>
<pdfrwt beam="1">  1       21 0.20048992E-01 0.30000000E+03</pdfrwt>
<pdfrwt beam="2">0</pdfrwt>
<totfact> 0.23880405E+03</totfact>
</mgrwt>
</event>
<event>
 6    1  0.1295671E-001  0.3000000E+03  0.7818608E-02  0.1093470E+00
         21   -1    0    0  501  502  0.00000000000E+00  0.00000000000E+00  0.45612920620E+01  0.45612920620E+01  0.00000000000E+00 0. -1.
         13   -1    0    0    0    0 -0.00000000000E+00 -0.00000000000E+00 -0.10000000000E+04  0.10000000000E+04  0.00000000000E+00 0.  1.
    9000005    2    1    2  501    0 -0.52334924920E+02  0.19729032231E+02 -0.77910042799E+03  0.78111011070E+03  0.27109170825E+01 0.  0.
         13    1    3    3    0    0 -0.38321339005E+02  0.13664542257E+02 -0.57963145969E+03  0.58105754775E+03  0.00000000000E+00 0.  1.
          1    1    3    3  501    0 -0.14013585915E+02  0.60644899742E+01 -0.19946896830E+03  0.20005256295E+03  0.00000000000E+00 0.  1.
         -3    1    1    2    0  502  0.52334924920E+02 -0.19729032231E+02 -0.21633827995E+03  0.22345118136E+03  0.00000000000E+00 0. -1.
<mgrwt>
<rscale>  1 0.30000000E+03</rscale>
<asrwt>0</asrwt>
<pdfrwt beam="1">  1       21 0.16586552E-01 0.30000000E+03</pdfrwt>
<pdfrwt beam="2">0</pdfrwt>
<totfact> 0.34152785E+03</totfact>
</mgrwt>
</event>
<event>
 6    1  0.1295671E-001  0.3000000E+03  0.7818608E-02  0.1093470E+00
         21   -1    0    0  501  502  0.00000000000E+00  0.00000000000E+00  0.19637910903E+01  0.19637910903E+01  0.00000000000E+00 0. -1.
         13   -1    0    0    0    0 -0.00000000000E+00 -0.00000000000E+00 -0.10000000000E+04  0.10000000000E+04  0.00000000000E+00 0.  1.
    9000005    2    1    2  501    0 -0.19484893252E+02 -0.39440550775E+02 -0.53767597539E+03  0.53950648202E+03  0.60474386746E+01 0.  0.
         13    1    3    3    0    0 -0.13592361522E+02 -0.20850030468E+02 -0.29483516868E+03  0.29588385011E+03  0.00000000000E+00 0.  1.
          1    1    3    3  501    0 -0.58925317300E+01 -0.18590520307E+02 -0.24284080671E+03  0.24362263191E+03  0.00000000000E+00 0.  1.
         -1    1    1    2    0  502  0.19484893252E+02  0.39440550775E+02 -0.46036023352E+03  0.46245730907E+03  0.00000000000E+00 0. -1.
<mgrwt>
<rscale>  1 0.30000000E+03</rscale>
<asrwt>0</asrwt>
<pdfrwt beam="1">  1       21 0.71410736E-02 0.30000000E+03</pdfrwt>
<pdfrwt beam="2">0</pdfrwt>
<totfact> 0.15584160E+04</totfact>
</mgrwt>
</event>
<event>
 6    1  0.1295671E-001  0.3000000E+03  0.7818608E-02  0.1093470E+00
         21   -1    0    0  501  502  0.00000000000E+00  0.00000000000E+00  0.11920990042E+01  0.11920990042E+01  0.00000000000E+00 0. -1.
         13   -1    0    0    0    0 -0.00000000000E+00 -0.00000000000E+00 -0.10000000000E+04  0.10000000000E+04  0.00000000000E+00 0.  1.
    9000005    2    1    2  501    0  0.28799749657E+02 -0.87124185233E+01 -0.74410417136E+03  0.74471730160E+03  0.27403721321E+01 0.  0.
         13    1    3    3    0    0  0.73318602213E+01 -0.10659538377E+01 -0.17254993110E+03  0.17270892031E+03  0.00000000000E+00 0.  1.
          3    1    3    3  501    0  0.21467889435E+02 -0.76464646856E+01 -0.57155424027E+03  0.57200838129E+03  0.00000000000E+00 0.  1.
         -3    1    1    2    0  502 -0.28799749657E+02  0.87124185233E+01 -0.25470372963E+03  0.25647479741E+03  0.00000000000E+00 0. -1.
<mgrwt>
<rscale>  1 0.30000000E+03</rscale>
<asrwt>0</asrwt>
<pdfrwt beam="1">  1       21 0.43349146E-02 0.30000000E+03</pdfrwt>
<pdfrwt beam="2">0</pdfrwt>
<totfact> 0.36711070E+04</totfact>
</mgrwt>
</event>
<event>
 6    1  0.1295671E-001  0.3000000E+03  0.7818608E-02  0.1093470E+00
         21   -1    0    0  501  502  0.00000000000E+00  0.00000000000E+00  0.38324841403E+02  0.38324841403E+02  0.00000000000E+00 0. -1.
         13   -1    0    0    0    0 -0.00000000000E+00 -0.00000000000E+00 -0.10000000000E+04  0.10000000000E+04  0.00000000000E+00 0.  1.
    9000005    2    1    2  501    0  0.21047804294E+02 -0.57456441695E+02 -0.97398394554E+03  0.97590882588E+03  0.30095700518E+01 0.  0.
         13    1    3    3    0    0  0.36542515425E+00 -0.15518329794E+01 -0.33375463535E+02  0.33413519529E+02  0.00000000000E+00 0.  1.
          1    1    3    3  501    0  0.20682379139E+02 -0.55904608715E+02 -0.94060848200E+03  0.94249530635E+03  0.00000000000E+00 0.  1.
         -3    1    1    2    0  502 -0.21047804294E+02  0.57456441695E+02  0.12308786939E+02  0.62416015522E+02  0.00000000000E+00 0. -1.
<mgrwt>
<rscale>  1 0.30000000E+03</rscale>
<asrwt>0</asrwt>
<pdfrwt beam="1">  1       21 0.13936335E+00 0.30000000E+03</pdfrwt>
<pdfrwt beam="2">0</pdfrwt>
<totfact> 0.29746785E+01</totfact>
</mgrwt>
</event>
<event>
 6    1  0.1295671E-001  0.3000000E+03  0.7818608E-02  0.1093470E+00
         21   -1    0    0  501  502  0.00000000000E+00  0.00000000000E+00  0.15126452921E+01  0.15126452921E+01  0.00000000000E+00 0. -1.
         13   -1    0    0    0    0 -0.00000000000E+00 -0.00000000000E+00 -0.10000000000E+04  0.10000000000E+04  0.00000000000E+00 0.  1.
    9000005    2    1    2  501    0 -0.12316480180E+02  0.28657117578E+02 -0.79690759999E+03  0.79753391213E+03  0.50687273683E+01 0.  0.
         13    1    3    3    0    0 -0.77418936351E+01  0.19434397921E+02 -0.58932655840E+03  0.58969774052E+03  0.00000000000E+00 0.  1.
          3    1    3    3  501    0 -0.45745865454E+01  0.92227196567E+01 -0.20758104159E+03  0.20783617160E+03  0.00000000000E+00 0.  1.
         -1    1    1    2    0  502  0.12316480180E+02 -0.28657117578E+02 -0.20157975472E+03  0.20397873317E+03  0.00000000000E+00 0. -1.
<mgrwt>
<rscale>  1 0.30000000E+03</rscale>
<asrwt>0</asrwt>
<pdfrwt beam="1">  1       21 0.55005399E-02 0.30000000E+03</pdfrwt>
<pdfrwt beam="2">0</pdfrwt>
<totfact> 0.24470030E+04</totfact>
</mgrwt>
</event>
<event>
 6    1  0.1295671E-001  0.3000000E+03  0.7818608E-02  0.1093470E+00
         21   -1    0    0  501  502  0.00000000000E+00  0.00000000000E+00  0.91378274053E+00  0.91378274053E+00  0.00000000000E+00 0. -1.
         13   -1    0    0    0    0 -0.00000000000E+00 -0.00000000000E+00 -0.10000000000E+04  0.10000000000E+04  0.00000000000E+00 0.  1.
    9000005    2    1    2  501    0  0.11654563457E+02  0.27813784194E+02 -0.50781606553E+03  0.50871890525E+03  0.28866442757E+01 0.  0.
         13    1    3    3    0    0  0.79893456471E+00  0.38463288279E+01 -0.56329679375E+02  0.56466497327E+02  0.00000000000E+00 0.  1.
          1    1    3    3  501    0  0.10855628892E+02  0.23967455366E+02 -0.45148638615E+03  0.45225240793E+03  0.00000000000E+00 0.  1.
         -1    1    1    2    0  502 -0.11654563457E+02 -0.27813784194E+02 -0.49127015173E+03  0.49219487749E+03  0.00000000000E+00 0. -1.
<mgrwt>
<rscale>  1 0.30000000E+03</rscale>
<asrwt>0</asrwt>
<pdfrwt beam="1">  1       21 0.33228533E-02 0.30000000E+03</pdfrwt>
<pdfrwt beam="2">0</pdfrwt>
<totfact> 0.57388924E+04</totfact>
</mgrwt>
</event>
<event>
 6    1  0.1295671E-001  0.3000000E+03  0.7818608E-02  0.1093470E+00
         21   -1    0    0  501  502  0.00000000000E+00  0.00000000000E+00  0.30755322753E+01  0.30755322753E+01  0.00000000000E+00 0. -1.
         13   -1    0    0    0    0 -0.00000000000E+00 -0.00000000000E+00 -0.10000000000E+04  0.10000000000E+04  0.00000000000E+00 0.  1.
    9000005    2    1    2  501    0 -0.27054975147E+02  0.19306591837E+02 -0.89987179135E+03  0.90048928486E+03  0.26448250680E+01 0.  0.
         13    1    3    3    0    0 -0.16015636096E+02  0.10152660685E+02 -0.53376589695E+03  0.53410262110E+03  0.00000000000E+00 0.  1.
          3    1    3    3  501    0 -0.11039339051E+02  0.91539311526E+01 -0.36610589440E+03  0.36638666375E+03  0.00000000000E+00 0.  1.
         -3    1    1    2    0  502  0.27054975147E+02 -0.19306591837E+02 -0.97052676372E+02  0.10258624742E+03  0.00000000000E+00 0. -1.
<mgrwt>
<rscale>  1 0.30000000E+03</rscale>
<asrwt>0</asrwt>
<pdfrwt beam="1">  1       21 0.11183777E-01 0.30000000E+03</pdfrwt>
<pdfrwt beam="2">0</pdfrwt>
<totfact> 0.70388797E+03</totfact>
</mgrwt>
</event>
<event>
 6    1  0.1295671E-001  0.3000000E+03  0.7818608E-02  0.1093470E+00
         21   -1    0    0  501  502  0.00000000000E+00  0.00000000000E+00  0.35251368246E+01  0.35251368246E+01  0.00000000000E+00 0. -1.
         13   -1    0    0    0    0 -0.00000000000E+00 -0.00000000000E+00 -0.10000000000E+04  0.10000000000E+04  0.00000000000E+00 0.  1.
    9000005    2    1    2  501    0 -0.31497320341E+02 -0.38727794805E+02 -0.76947069531E+03  0.77109705008E+03  0.36859766181E+01 0.  0.
         13    1    3    3    0    0 -0.93408978667E+01 -0.95872654542E+01 -0.22355162957E+03  0.22395200182E+03  0.00000000000E+00 0.  1.
          3    1    3    3  501    0 -0.22156422474E+02 -0.29140529350E+02 -0.54591906573E+03  0.54714504826E+03  0.00000000000E+00 0.  1.
         -3    1    1    2    0  502  0.31497320341E+02  0.38727794805E+02 -0.22700416787E+03  0.23242808675E+03  0.00000000000E+00 0. -1.
<mgrwt>
<rscale>  1 0.30000000E+03</rscale>
<asrwt>0</asrwt>
<pdfrwt beam="1">  1       21 0.12818706E-01 0.30000000E+03</pdfrwt>
<pdfrwt beam="2">0</pdfrwt>
<totfact> 0.54956048E+03</totfact>
</mgrwt>
</event>
<event>
 6    1  0.1295671E-001  0.3000000E+03  0.7818608E-02  0.1093470E+00
         21   -1    0    0  501  502  0.00000000000E+00  0.00000000000E+00  0.16583181303E+01  0.16583181303E+01  0.00000000000E+00 0. -1.
         13   -1    0    0    0    0 -0.00000000000E+00 -0.00000000000E+00 -0.10000000000E+04  0.10000000000E+04  0.00000000000E+00 0.  1.
    9000005    2    1    2  501    0  0.27260282048E+02 -0.28967893646E+02 -0.60357081881E+03  0.60488849044E+03  0.31765886607E+01 0.  0.
         13    1    3    3    0    0  0.11641672431E+02 -0.10672684865E+02 -0.22378677258E+03  0.22434338484E+03  0.00000000000E+00 0.  1.
          3    1    3    3  501    0  0.15618609617E+02 -0.18295208781E+02 -0.37978404622E+03  0.38054510560E+03  0.00000000000E+00 0.  1.
         -1    1    1    2    0  502 -0.27260282048E+02  0.28967893646E+02 -0.39477086306E+03  0.39676982769E+03  0.00000000000E+00 0. -1.
<mgrwt>
<rscale>  1 0.30000000E+03</rscale>
<asrwt>0</asrwt>
<pdfrwt beam="1">  1       21 0.60302605E-02 0.30000000E+03</pdfrwt>
<pdfrwt beam="2">0</pdfrwt>
<totfact> 0.20889616E+04</totfact>
</mgrwt>
</event>
<event>
 6    1  0.1295671E-001  0.3000000E+03  0.7818608E-02  0.1093470E+00
         21   -1    0    0  501  502  0.00000000000E+00  0.00000000000E+00  0.11537402144E+02  0.11537402144E+02  0.00000000000E+00 0. -1.
         13   -1    0    0    0    0 -0.00000000000E+00 -0.00000000000E+00 -0.10000000000E+04  0.10000000000E+04  0.00000000000E+00 0.  1.
    9000005    2    1    2  501    0 -0.51473545379E+02 -0.87089011435E-02 -0.93812703796E+03  0.93954299584E+03  0.30291448962E+01 0.  0.
         13    1    3    3    0    0 -0.41592118333E+02 -0.11998909863E+01 -0.75597738902E+03  0.75712162613E+03  0.00000000000E+00 0.  1.
          1    1    3    3  501    0 -0.98814270451E+01  0.11911820851E+01 -0.18214964894E+03  0.18242136971E+03  0.00000000000E+00 0.  1.
         -3    1    1    2    0  502  0.51473545379E+02  0.87089011435E-02 -0.50335559891E+02  0.71994406305E+02  0.00000000000E+00 0. -1.
<mgrwt>
<rscale>  1 0.30000000E+03</rscale>
<asrwt>0</asrwt>
<pdfrwt beam="1">  1       21 0.41954278E-01 0.30000000E+03</pdfrwt>
<pdfrwt beam="2">0</pdfrwt>
<totfact> 0.54649685E+02</totfact>
</mgrwt>
</event>
<event>
 6    1  0.1295671E-001  0.3000000E+03  0.7818608E-02  0.1093470E+00
         21   -1    0    0  501  502  0.00000000000E+00  0.00000000000E+00  0.98331753585E+01  0.98331753585E+01  0.00000000000E+00 0. -1.
         13   -1    0    0    0    0 -0.00000000000E+00 -0.00000000000E+00 -0.10000000000E+04  0.10000000000E+04  0.00000000000E+00 0.  1.
    9000005    2    1    2  501    0 -0.15063840503E+02 -0.30890393724E+02 -0.96869030197E+03  0.96930692780E+03  0.37260485974E+01 0.  0.
         13    1    3    3    0    0 -0.45773233311E+01 -0.12803309307E+02 -0.41113740168E+03  0.41136217580E+03  0.00000000000E+00 0.  1.
          1    1    3    3  501    0 -0.10486517172E+02 -0.18087084418E+02 -0.55755290028E+03  0.55794475199E+03  0.00000000000E+00 0.  1.
         -1    1    1    2    0  502  0.15063840503E+02  0.30890393724E+02 -0.21476522676E+02  0.40526247561E+02  0.00000000000E+00 0. -1.
<mgrwt>
<rscale>  1 0.30000000E+03</rscale>
<asrwt>0</asrwt>
<pdfrwt beam="1">  1       21 0.35757077E-01 0.30000000E+03</pdfrwt>
<pdfrwt beam="2">0</pdfrwt>
<totfact> 0.76166704E+02</totfact>
</mgrwt>
</event>
<event>
 6    1  0.1295671E-001  0.3000000E+03  0.7818608E-02  0.1093470E+00
         21   -1    0    0  501  502  0.00000000000E+00  0.00000000000E+00  0.26070534698E+01  0.26070534698E+01  0.00000000000E+00 0. -1.
         13   -1    0    0    0    0 -0.00000000000E+00 -0.00000000000E+00 -0.10000000000E+04  0.10000000000E+04  0.00000000000E+00 0.  1.
    9000005    2    1    2  501    0  0.47248093451E+02  0.13966617038E+02 -0.36952909839E+03  0.37281307086E+03  0.32221922935E+01 0.  0.
         13    1    3    3    0    0  0.44377819319E+02  0.12702036062E+02 -0.34036835554E+03  0.34348413358E+03  0.00000000000E+00 0.  1.
          3    1    3    3  501    0  0.28702741316E+01  0.12645809754E+01 -0.29160742851E+02  0.29328937285E+02  0.00000000000E+00 0.  1.
         -3    1    1    2    0  502 -0.47248093451E+02 -0.13966617038E+02 -0.62786384814E+03  0.62979398261E+03  0.00000000000E+00 0. -1.
<mgrwt>
<rscale>  1 0.30000000E+03</rscale>
<asrwt>0</asrwt>
<pdfrwt beam="1">  1       21 0.94802144E-02 0.30000000E+03</pdfrwt>
<pdfrwt beam="2">0</pdfrwt>
<totfact> 0.94627985E+03</totfact>
</mgrwt>
</event>
<event>
 6    1  0.1295671E-001  0.3000000E+03  0.7818608E-02  0.1093470E+00
         21   -1    0    0  501  502  0.00000000000E+00  0.00000000000E+00  0.22510779200E+01  0.22510779200E+01  0.00000000000E+00 0. -1.
         13   -1    0    0    0    0 -0.00000000000E+00 -0.00000000000E+00 -0.10000000000E+04  0.10000000000E+04  0.00000000000E+00 0.  1.
    9000005    2    1    2  501    0 -0.35427893832E+01 -0.37283324741E+02 -0.80380304614E+03  0.80472234468E+03  0.87245278867E+01 0.  0.
         13    1    3    3    0    0  0.70689915472E+00 -0.21453750474E+01 -0.10426856495E+03  0.10429302938E+03  0.00000000000E+00 0.  1.
          3    1    3    3  501    0 -0.42496885379E+01 -0.35137949693E+02 -0.69953448118E+03  0.70042931530E+03  0.00000000000E+00 0.  1.
         -1    1    1    2    0  502  0.35427893832E+01  0.37283324741E+02 -0.19394587594E+03  0.19752873324E+03  0.00000000000E+00 0. -1.
<mgrwt>
<rscale>  1 0.30000000E+03</rscale>
<asrwt>0</asrwt>
<pdfrwt beam="1">  1       21 0.81857552E-02 0.30000000E+03</pdfrwt>
<pdfrwt beam="2">0</pdfrwt>
<totfact> 0.12268767E+04</totfact>
</mgrwt>
</event>
<event>
 6    1  0.1295671E-001  0.3000000E+03  0.7818608E-02  0.1093470E+00
         21   -1    0    0  501  502  0.00000000000E+00  0.00000000000E+00  0.13644903006E+01  0.13644903006E+01  0.00000000000E+00 0. -1.
         13   -1    0    0    0    0 -0.00000000000E+00 -0.00000000000E+00 -0.10000000000E+04  0.10000000000E+04  0.00000000000E+00 0.  1.
    9000005    2    1    2  501    0 -0.33047998063E+02 -0.26718447913E+01 -0.71648786941E+03  0.71727542002E+03  0.54637190993E+01 0.  0.
         13    1    3    3    0    0 -0.13960538966E+02 -0.23300558301E+01 -0.25446989915E+03  0.25486320916E+03  0.00000000000E+00 0.  1.
          1    1    3    3  501    0 -0.19087459097E+02 -0.34178896118E+00 -0.46201797026E+03  0.46241221087E+03  0.00000000000E+00 0.  1.
         -3    1    1    2    0  502  0.33047998063E+02  0.26718447913E+01 -0.28214764029E+03  0.28408907028E+03  0.00000000000E+00 0. -1.
<mgrwt>
<rscale>  1 0.30000000E+03</rscale>
<asrwt>0</asrwt>
<pdfrwt beam="1">  1       21 0.49617934E-02 0.30000000E+03</pdfrwt>
<pdfrwt beam="2">0</pdfrwt>
<totfact> 0.29183718E+04</totfact>
</mgrwt>
</event>
<event>
 6    1  0.1295671E-001  0.3000000E+03  0.7818608E-02  0.1093470E+00
         21   -1    0    0  501  502  0.00000000000E+00  0.00000000000E+00  0.14385237874E+01  0.14385237874E+01  0.00000000000E+00 0. -1.
         13   -1    0    0    0    0 -0.00000000000E+00 -0.00000000000E+00 -0.10000000000E+04  0.10000000000E+04  0.00000000000E+00 0.  1.
    9000005    2    1    2  501    0 -0.17803606440E+02  0.28464901564E+02 -0.73128955467E+03  0.73206610673E+03  0.30253657514E+01 0.  0.
         13    1    3    3    0    0 -0.11608827576E+02  0.16741837389E+02 -0.41828974598E+03  0.41878558426E+03  0.00000000000E+00 0.  1.
          1    1    3    3  501    0 -0.61947788642E+01  0.11723064175E+02 -0.31299980869E+03  0.31328052247E+03  0.00000000000E+00 0.  1.
         -1    1    1    2    0  502  0.17803606440E+02 -0.28464901564E+02 -0.26727192154E+03  0.26937241705E+03  0.00000000000E+00 0. -1.
<mgrwt>
<rscale>  1 0.30000000E+03</rscale>
<asrwt>0</asrwt>
<pdfrwt beam="1">  1       21 0.52310066E-02 0.30000000E+03</pdfrwt>
<pdfrwt beam="2">0</pdfrwt>
<totfact> 0.26667613E+04</totfact>
</mgrwt>
</event>
<event>
 6    1  0.1295671E-001  0.3000000E+03  0.7818608E-02  0.1093470E+00
         21   -1    0    0  501  502  0.00000000000E+00  0.00000000000E+00  0.27315401413E+01  0.27315401413E+01  0.00000000000E+00 0. -1.
         13   -1    0    0    0    0 -0.00000000000E+00 -0.00000000000E+00 -0.10000000000E+04  0.10000000000E+04  0.00000000000E+00 0.  1.
    9000005    2    1    2  501    0 -0.38089924727E+02 -0.20320080621E+02 -0.21793428079E+03  0.22220254599E+03  0.38565087782E+01 0.  0.
         13    1    3    3    0    0 -0.35676249183E+02 -0.19449954619E+02 -0.20867644336E+03  0.21259575138E+03  0.00000000000E+00 0.  1.
          3    1    3    3  501    0 -0.24136755448E+01 -0.87012600210E+00 -0.92578374303E+01  0.96067946153E+01  0.00000000000E+00 0.  1.
         -1    1    1    2    0  502  0.38089924727E+02  0.20320080621E+02 -0.77933417907E+03  0.78052899415E+03  0.00000000000E+00 0. -1.
<mgrwt>
<rscale>  1 0.30000000E+03</rscale>
<asrwt>0</asrwt>
<pdfrwt beam="1">  1       21 0.99328942E-02 0.30000000E+03</pdfrwt>
<pdfrwt beam="2">0</pdfrwt>
<totfact> 0.87073081E+03</totfact>
</mgrwt>
</event>
<event>
 6    1  0.1295671E-001  0.3000000E+03  0.7818608E-02  0.1093470E+00
         21   -1    0    0  501  502  0.00000000000E+00  0.00000000000E+00  0.10081923544E+01  0.10081923544E+01  0.00000000000E+00 0. -1.
         13   -1    0    0    0    0 -0.00000000000E+00 -0.00000000000E+00 -0.10000000000E+04  0.10000000000E+04  0.00000000000E+00 0.  1.
    9000005    2    1    2  501    0  0.26288782744E+02  0.17016937613E+02 -0.57614956982E+03  0.57700791599E+03  0.30219286417E+01 0.  0.
         13    1    3    3    0    0  0.22426766793E+02  0.13877748531E+02 -0.50105065734E+03  0.50174427051E+03  0.00000000000E+00 0.  1.
          1    1    3    3  501    0  0.38620159513E+01  0.31391890820E+01 -0.75098912482E+02  0.75263645482E+02  0.00000000000E+00 0.  1.
         -1    1    1    2    0  502 -0.26288782744E+02 -0.17016937613E+02 -0.42284223783E+03  0.42400027636E+03  0.00000000000E+00 0. -1.
<mgrwt>
<rscale>  1 0.30000000E+03</rscale>
<asrwt>0</asrwt>
<pdfrwt beam="1">  1       21 0.36661617E-02 0.30000000E+03</pdfrwt>
<pdfrwt beam="2">0</pdfrwt>
<totfact> 0.48680257E+04</totfact>
</mgrwt>
</event>
<event>
 6    1  0.1295671E-001  0.3000000E+03  0.7818608E-02  0.1093470E+00
         21   -1    0    0  501  502  0.00000000000E+00  0.00000000000E+00  0.13024095737E+01  0.13024095737E+01  0.00000000000E+00 0. -1.
         13   -1    0    0    0    0 -0.00000000000E+00 -0.00000000000E+00 -0.10000000000E+04  0.10000000000E+04  0.00000000000E+00 0.  1.
    9000005    2    1    2  501    0 -0.11425257149E+02 -0.27977390877E+02 -0.76663131165E+03  0.76727670875E+03  0.87583609090E+01 0.  0.
         13    1    3    3    0    0 -0.88425387121E+01 -0.24685399559E+02 -0.57233315973E+03  0.57293350851E+03  0.00000000000E+00 0.  1.
          3    1    3    3  501    0 -0.25827184372E+01 -0.32919913177E+01 -0.19429815192E+03  0.19434320024E+03  0.00000000000E+00 0.  1.
         -3    1    1    2    0  502  0.11425257149E+02  0.27977390877E+02 -0.23206627878E+03  0.23402570082E+03  0.00000000000E+00 0. -1.
<mgrwt>
<rscale>  1 0.30000000E+03</rscale>
<asrwt>0</asrwt>
<pdfrwt beam="1">  1       21 0.47360448E-02 0.30000000E+03</pdfrwt>
<pdfrwt beam="2">0</pdfrwt>
<totfact> 0.31591244E+04</totfact>
</mgrwt>
</event>
<event>
 6    1  0.1295671E-001  0.3000000E+03  0.7818608E-02  0.1093470E+00
         21   -1    0    0  501  502  0.00000000000E+00  0.00000000000E+00  0.13777279837E+01  0.13777279837E+01  0.00000000000E+00 0. -1.
         13   -1    0    0    0    0 -0.00000000000E+00 -0.00000000000E+00 -0.10000000000E+04  0.10000000000E+04  0.00000000000E+00 0.  1.
    9000005    2    1    2  501    0 -0.97079034736E+01 -0.32259203479E+02 -0.70729748728E+03  0.70811158639E+03  0.41693740095E+01 0.  0.
         13    1    3    3    0    0 -0.69741875098E+01 -0.21542661578E+02 -0.51314852674E+03  0.51364787166E+03  0.00000000000E+00 0.  1.
          1    1    3    3  501    0 -0.27337159639E+01 -0.10716541900E+02 -0.19414896053E+03  0.19446371473E+03  0.00000000000E+00 0.  1.
         -3    1    1    2    0  502  0.97079034736E+01  0.32259203479E+02 -0.29132478474E+03  0.29326614159E+03  0.00000000000E+00 0. -1.
<mgrwt>
<rscale>  1 0.30000000E+03</rscale>
<asrwt>0</asrwt>
<pdfrwt beam="1">  1       21 0.50099305E-02 0.30000000E+03</pdfrwt>
<pdfrwt beam="2">0</pdfrwt>
<totfact> 0.28707386E+04</totfact>
</mgrwt>
</event>
<event>
 6    1  0.1295671E-001  0.3000000E+03  0.7818608E-02  0.1093470E+00
         21   -1    0    0  501  502  0.00000000000E+00  0.00000000000E+00  0.17763799375E+01  0.17763799375E+01  0.00000000000E+00 0. -1.
         13   -1    0    0    0    0 -0.00000000000E+00 -0.00000000000E+00 -0.10000000000E+04  0.10000000000E+04  0.00000000000E+00 0.  1.
    9000005    2    1    2  501    0  0.33814698631E+02  0.20753252249E+02 -0.33422844537E+03  0.33659691293E+03  0.38336369820E+01 0.  0.
         13    1    3    3    0    0  0.65322570552E+01  0.23103891915E+01 -0.58066126787E+02  0.58478058796E+02  0.00000000000E+00 0.  1.
          1    1    3    3  501    0  0.27282441576E+02  0.18442863058E+02 -0.27616231859E+03  0.27811885413E+03  0.00000000000E+00 0.  1.
         -3    1    1    2    0  502 -0.33814698631E+02 -0.20753252249E+02 -0.66399517469E+03  0.66517946701E+03  0.00000000000E+00 0. -1.
<mgrwt>
<rscale>  1 0.30000000E+03</rscale>
<asrwt>0</asrwt>
<pdfrwt beam="1">  1       21 0.64595770E-02 0.30000000E+03</pdfrwt>
<pdfrwt beam="2">0</pdfrwt>
<totfact> 0.18549282E+04</totfact>
</mgrwt>
</event>
<event>
 6    1  0.1295671E-001  0.3000000E+03  0.7818608E-02  0.1093470E+00
         21   -1    0    0  501  502  0.00000000000E+00  0.00000000000E+00  0.23338289629E+01  0.23338289629E+01  0.00000000000E+00 0. -1.
         13   -1    0    0    0    0 -0.00000000000E+00 -0.00000000000E+00 -0.10000000000E+04  0.10000000000E+04  0.00000000000E+00 0.  1.
    9000005    2    1    2  501    0  0.27080457121E+02  0.15022498696E+02 -0.88329927427E+03  0.88384832900E+03  0.33517351158E+01 0.  0.
         13    1    3    3    0    0  0.20407140623E+02  0.12781670098E+02 -0.66678508723E+03  0.66721973519E+03  0.00000000000E+00 0.  1.
          1    1    3    3  501    0  0.66733164976E+01  0.22408285976E+01 -0.21651418704E+03  0.21662859381E+03  0.00000000000E+00 0.  1.
         -1    1    1    2    0  502 -0.27080457121E+02 -0.15022498696E+02 -0.11436689677E+03  0.11848549996E+03  0.00000000000E+00 0. -1.
<mgrwt>
<rscale>  1 0.30000000E+03</rscale>
<asrwt>0</asrwt>
<pdfrwt beam="1">  1       21 0.84866687E-02 0.30000000E+03</pdfrwt>
<pdfrwt beam="2">0</pdfrwt>
<totfact> 0.11513082E+04</totfact>
</mgrwt>
</event>
<event>
 6    1  0.1295671E-001  0.3000000E+03  0.7818608E-02  0.1093470E+00
         21   -1    0    0  501  502  0.00000000000E+00  0.00000000000E+00  0.16650047651E+01  0.16650047651E+01  0.00000000000E+00 0. -1.
         13   -1    0    0    0    0 -0.00000000000E+00 -0.00000000000E+00 -0.10000000000E+04  0.10000000000E+04  0.00000000000E+00 0.  1.
    9000005    2    1    2  501    0  0.20509496928E+02 -0.35091705653E+02 -0.48864223520E+03  0.49035416301E+03  0.48891599311E+01 0.  0.
         13    1    3    3    0    0  0.95776555162E+01 -0.20896927106E+02 -0.28461656446E+03  0.28554334490E+03  0.00000000000E+00 0.  1.
          1    1    3    3  501    0  0.10931841412E+02 -0.14194778547E+02 -0.20402567074E+03  0.20481081811E+03  0.00000000000E+00 0.  1.
         -1    1    1    2    0  502 -0.20509496928E+02  0.35091705653E+02 -0.50969276003E+03  0.51131084176E+03  0.00000000000E+00 0. -1.
<mgrwt>
<rscale>  1 0.30000000E+03</rscale>
<asrwt>0</asrwt>
<pdfrwt beam="1">  1       21 0.60545755E-02 0.30000000E+03</pdfrwt>
<pdfrwt beam="2">0</pdfrwt>
<totfact> 0.20745101E+04</totfact>
</mgrwt>
</event>
<event>
 6    1  0.1295671E-001  0.3000000E+03  0.7818608E-02  0.1093470E+00
         21   -1    0    0  501  502  0.00000000000E+00  0.00000000000E+00  0.14702235091E+01  0.14702235091E+01  0.00000000000E+00 0. -1.
         13   -1    0    0    0    0 -0.00000000000E+00 -0.00000000000E+00 -0.10000000000E+04  0.10000000000E+04  0.00000000000E+00 0.  1.
    9000005    2    1    2  501    0  0.58545782249E+01 -0.37665835702E+02 -0.54807377855E+03  0.54940430205E+03  0.26887003914E+01 0.  0.
         13    1    3    3    0    0  0.58347841082E+01 -0.31864495241E+02 -0.47056829066E+03  0.47168199768E+03  0.00000000000E+00 0.  1.
          3    1    3    3  501    0  0.19794116683E-01 -0.58013404610E+01 -0.77505487892E+02  0.77722304368E+02  0.00000000000E+00 0.  1.
         -3    1    1    2    0  502 -0.58545782249E+01  0.37665835702E+02 -0.45045599794E+03  0.45206592146E+03  0.00000000000E+00 0. -1.
<mgrwt>
<rscale>  1 0.30000000E+03</rscale>
<asrwt>0</asrwt>
<pdfrwt beam="1">  1       21 0.53462786E-02 0.30000000E+03</pdfrwt>
<pdfrwt beam="2">0</pdfrwt>
<totfact> 0.25691879E+04</totfact>
</mgrwt>
</event>
<event>
 6    1  0.1295671E-001  0.3000000E+03  0.7818608E-02  0.1093470E+00
         21   -1    0    0  501  502  0.00000000000E+00  0.00000000000E+00  0.11218659470E+01  0.11218659470E+01  0.00000000000E+00 0. -1.
         13   -1    0    0    0    0 -0.00000000000E+00 -0.00000000000E+00 -0.10000000000E+04  0.10000000000E+04  0.00000000000E+00 0.  1.
    9000005    2    1    2  501    0  0.94125590652E+01  0.31518821928E+02 -0.41601667046E+03  0.41733293307E+03  0.38567503302E+01 0.  0.
         13    1    3    3    0    0  0.26043282739E+01  0.41187123800E+01 -0.57162914629E+02  0.57370246001E+02  0.00000000000E+00 0.  1.
          3    1    3    3  501    0  0.68082307913E+01  0.27400109548E+02 -0.35885375583E+03  0.35996268707E+03  0.00000000000E+00 0.  1.
         -1    1    1    2    0  502 -0.94125590652E+01 -0.31518821928E+02 -0.58286146359E+03  0.58378893287E+03  0.00000000000E+00 0. -1.
<mgrwt>
<rscale>  1 0.30000000E+03</rscale>
<asrwt>0</asrwt>
<pdfrwt beam="1">  1       21 0.40795211E-02 0.30000000E+03</pdfrwt>
<pdfrwt beam="2">0</pdfrwt>
<totfact> 0.40675592E+04</totfact>
</mgrwt>
</event>
<event>
 6    1  0.1295671E-001  0.3000000E+03  0.7818608E-02  0.1093470E+00
         21   -1    0    0  501  502  0.00000000000E+00  0.00000000000E+00  0.11560489701E+01  0.11560489701E+01  0.00000000000E+00 0. -1.
         13   -1    0    0    0    0 -0.00000000000E+00 -0.00000000000E+00 -0.10000000000E+04  0.10000000000E+04  0.00000000000E+00 0.  1.
    9000005    2    1    2  501    0  0.26396260998E+01 -0.33803905990E+02 -0.48851142548E+03  0.48969836908E+03  0.33775978512E+01 0.  0.
         13    1    3    3    0    0  0.12807682615E+01 -0.30132002641E+02 -0.43282275011E+03  0.43387222885E+03  0.00000000000E+00 0.  1.
          3    1    3    3  501    0  0.13588578382E+01 -0.36719033487E+01 -0.55688675372E+02  0.55826140235E+02  0.00000000000E+00 0.  1.
         -3    1    1    2    0  502 -0.26396260998E+01  0.33803905990E+02 -0.51033252555E+03  0.51145767989E+03  0.00000000000E+00 0. -1.
<mgrwt>
<rscale>  1 0.30000000E+03</rscale>
<asrwt>0</asrwt>
<pdfrwt beam="1">  1       21 0.42038233E-02 0.30000000E+03</pdfrwt>
<pdfrwt beam="2">0</pdfrwt>
<totfact> 0.38667000E+04</totfact>
</mgrwt>
</event>
<event>
 6    1  0.1295671E-001  0.3000000E+03  0.7818608E-02  0.1093470E+00
         21   -1    0    0  501  502  0.00000000000E+00  0.00000000000E+00  0.98318035818E+00  0.98318035818E+00  0.00000000000E+00 0. -1.
         13   -1    0    0    0    0 -0.00000000000E+00 -0.00000000000E+00 -0.10000000000E+04  0.10000000000E+04  0.00000000000E+00 0.  1.
    9000005    2    1    2  501    0 -0.12750289966E+02  0.27669686089E+02 -0.61347693005E+03  0.61424142170E+03  0.32247492464E+01 0.  0.
         13    1    3    3    0    0 -0.10372087349E+02  0.21496914008E+02 -0.50394207429E+03  0.50450699871E+03  0.00000000000E+00 0.  1.
          3    1    3    3  501    0 -0.23782026171E+01  0.61727720814E+01 -0.10953485576E+03  0.10973442299E+03  0.00000000000E+00 0.  1.
         -1    1    1    2    0  502  0.12750289966E+02 -0.27669686089E+02 -0.38553988959E+03  0.38674175865E+03  0.00000000000E+00 0. -1.
<mgrwt>
<rscale>  1 0.30000000E+03</rscale>
<asrwt>0</asrwt>
<pdfrwt beam="1">  1       21 0.35752088E-02 0.30000000E+03</pdfrwt>
<pdfrwt beam="2">0</pdfrwt>
<totfact> 0.50775247E+04</totfact>
</mgrwt>
</event>
<event>
 6    1  0.1295671E-001  0.3000000E+03  0.7818608E-02  0.1093470E+00
         21   -1    0    0  501  502  0.00000000000E+00  0.00000000000E+00  0.12337495680E+01  0.12337495680E+01  0.00000000000E+00 0. -1.
         13   -1    0    0    0    0 -0.00000000000E+00 -0.00000000000E+00 -0.10000000000E+04  0.10000000000E+04  0.00000000000E+00 0.  1.
    9000005    2    1    2  501    0  0.34329709409E+02 -0.70659953623E+01 -0.50864396137E+03  0.50985984359E+03  0.31501477761E+01 0.  0.
         13    1    3    3    0    0  0.13019310552E+01  0.27932605956E+00 -0.15949891858E+02  0.16005377152E+02  0.00000000000E+00 0.  1.
          1    1    3    3  501    0  0.33027778354E+02 -0.73453214219E+01 -0.49269406951E+03  0.49385446644E+03  0.00000000000E+00 0.  1.
         -3    1    1    2    0  502 -0.34329709409E+02  0.70659953623E+01 -0.49012228907E+03  0.49137390598E+03  0.00000000000E+00 0. -1.
<mgrwt>
<rscale>  1 0.30000000E+03</rscale>
<asrwt>0</asrwt>
<pdfrwt beam="1">  1       21 0.44863715E-02 0.30000000E+03</pdfrwt>
<pdfrwt beam="2">0</pdfrwt>
<totfact> 0.34635979E+04</totfact>
</mgrwt>
</event>
<event>
 6    1  0.1295671E-001  0.3000000E+03  0.7818608E-02  0.1093470E+00
         21   -1    0    0  501  502  0.00000000000E+00  0.00000000000E+00  0.37034075193E+01  0.37034075193E+01  0.00000000000E+00 0. -1.
         13   -1    0    0    0    0 -0.00000000000E+00 -0.00000000000E+00 -0.10000000000E+04  0.10000000000E+04  0.00000000000E+00 0.  1.
    9000005    2    1    2  501    0 -0.28748401967E+02  0.17240963954E+02 -0.91693527456E+03  0.91755272420E+03  0.29970830436E+01 0.  0.
         13    1    3    3    0    0 -0.16826707689E+02  0.95659076610E+01 -0.56719137591E+03  0.56752154284E+03  0.00000000000E+00 0.  1.
          3    1    3    3  501    0 -0.11921694278E+02  0.76750562925E+01 -0.34974389865E+03  0.35003118136E+03  0.00000000000E+00 0.  1.
         -1    1    1    2    0  502  0.28748401967E+02 -0.17240963954E+02 -0.79361317921E+02  0.86150683316E+02  0.00000000000E+00 0. -1.
<mgrwt>
<rscale>  1 0.30000000E+03</rscale>
<asrwt>0</asrwt>
<pdfrwt beam="1">  1       21 0.13466965E-01 0.30000000E+03</pdfrwt>
<pdfrwt beam="2">0</pdfrwt>
<totfact> 0.50217821E+03</totfact>
</mgrwt>
</event>
<event>
 6    1  0.1295671E-001  0.3000000E+03  0.7818608E-02  0.1093470E+00
         21   -1    0    0  501  502  0.00000000000E+00  0.00000000000E+00  0.27056506108E+01  0.27056506108E+01  0.00000000000E+00 0. -1.
         13   -1    0    0    0    0 -0.00000000000E+00 -0.00000000000E+00 -0.10000000000E+04  0.10000000000E+04  0.00000000000E+00 0.  1.
    9000005    2    1    2  501    0 -0.30620935117E+02 -0.21857457814E+02 -0.84466925764E+03  0.84551211143E+03  0.30307819004E+01 0.  0.
         13    1    3    3    0    0 -0.13839537221E+01 -0.18467861022E+01 -0.55561777850E+02  0.55609685349E+02  0.00000000000E+00 0.  1.
          3    1    3    3  501    0 -0.29236981394E+02 -0.20010671712E+02 -0.78910747980E+03  0.78990242608E+03  0.00000000000E+00 0.  1.
         -1    1    1    2    0  502  0.30620935117E+02  0.21857457814E+02 -0.15262509174E+03  0.15719353918E+03  0.00000000000E+00 0. -1.
<mgrwt>
<rscale>  1 0.30000000E+03</rscale>
<asrwt>0</asrwt>
<pdfrwt beam="1">  1       21 0.98387502E-02 0.30000000E+03</pdfrwt>
<pdfrwt beam="2">0</pdfrwt>
<totfact> 0.88566423E+03</totfact>
</mgrwt>
</event>
<event>
 6    1  0.1295671E-001  0.3000000E+03  0.7818608E-02  0.1093470E+00
         21   -1    0    0  501  502  0.00000000000E+00  0.00000000000E+00  0.17558502798E+01  0.17558502798E+01  0.00000000000E+00 0. -1.
         13   -1    0    0    0    0 -0.00000000000E+00 -0.00000000000E+00 -0.10000000000E+04  0.10000000000E+04  0.00000000000E+00 0.  1.
    9000005    2    1    2  501    0  0.29672302349E+02 -0.73056977778E+01 -0.84146723210E+03  0.84202851810E+03  0.33322439393E+01 0.  0.
         13    1    3    3    0    0  0.87064673131E+01 -0.36665430492E+01 -0.24744564561E+03  0.24762591473E+03  0.00000000000E+00 0.  1.
          3    1    3    3  501    0  0.20965835036E+02 -0.36391547286E+01 -0.59402158648E+03  0.59440260337E+03  0.00000000000E+00 0.  1.
         -3    1    1    2    0  502 -0.29672302349E+02  0.73056977778E+01 -0.15677691762E+03  0.15972733218E+03  0.00000000000E+00 0. -1.
<mgrwt>
<rscale>  1 0.30000000E+03</rscale>
<asrwt>0</asrwt>
<pdfrwt beam="1">  1       21 0.63849236E-02 0.30000000E+03</pdfrwt>
<pdfrwt beam="2">0</pdfrwt>
<totfact> 0.18926130E+04</totfact>
</mgrwt>
</event>
<event>
 6    1  0.1295671E-001  0.3000000E+03  0.7818608E-02  0.1093470E+00
         21   -1    0    0  501  502  0.00000000000E+00  0.00000000000E+00  0.26064777810E+01  0.26064777810E+01  0.00000000000E+00 0. -1.
         13   -1    0    0    0    0 -0.00000000000E+00 -0.00000000000E+00 -0.10000000000E+04  0.10000000000E+04  0.00000000000E+00 0.  1.
    9000005    2    1    2  501    0 -0.43944206893E+02  0.36132022775E+01 -0.75103771781E+03  0.75233596230E+03  0.27564570021E+01 0.  0.
         13    1    3    3    0    0 -0.69865516697E+01  0.95337379732E+00 -0.10495045526E+03  0.10518706615E+03  0.00000000000E+00 0.  1.
          3    1    3    3  501    0 -0.36957655224E+02  0.26598284801E+01 -0.64608726254E+03  0.64714889615E+03  0.00000000000E+00 0.  1.
         -1    1    1    2    0  502  0.43944206893E+02 -0.36132022775E+01 -0.24635580441E+03  0.25027051548E+03  0.00000000000E+00 0. -1.
<mgrwt>
<rscale>  1 0.30000000E+03</rscale>
<asrwt>0</asrwt>
<pdfrwt beam="1">  1       21 0.94781210E-02 0.30000000E+03</pdfrwt>
<pdfrwt beam="2">0</pdfrwt>
<totfact> 0.94665210E+03</totfact>
</mgrwt>
</event>
<event>
 6    1  0.1295671E-001  0.3000000E+03  0.7818608E-02  0.1093470E+00
         21   -1    0    0  501  502  0.00000000000E+00  0.00000000000E+00  0.20723832634E+01  0.20723832634E+01  0.00000000000E+00 0. -1.
         13   -1    0    0    0    0 -0.00000000000E+00 -0.00000000000E+00 -0.10000000000E+04  0.10000000000E+04  0.00000000000E+00 0.  1.
    9000005    2    1    2  501    0  0.35738570055E+02  0.28068932087E+02 -0.51179028243E+03  0.51381566990E+03  0.34841220562E+01 0.  0.
         13    1    3    3    0    0  0.29865230254E+01  0.16933014846E+01 -0.48152611170E+02  0.48274843886E+02  0.00000000000E+00 0.  1.
          3    1    3    3  501    0  0.32752047030E+02  0.26375630602E+02 -0.46363767126E+03  0.46554082601E+03  0.00000000000E+00 0.  1.
         -3    1    1    2    0  502 -0.35738570055E+02 -0.28068932087E+02 -0.48613733431E+03  0.48825671336E+03  0.00000000000E+00 0. -1.
<mgrwt>
<rscale>  1 0.30000000E+03</rscale>
<asrwt>0</asrwt>
<pdfrwt beam="1">  1       21 0.75359550E-02 0.30000000E+03</pdfrwt>
<pdfrwt beam="2">0</pdfrwt>
<totfact> 0.14185171E+04</totfact>
</mgrwt>
</event>
<event>
 6    1  0.1295671E-001  0.3000000E+03  0.7818608E-02  0.1093470E+00
         21   -1    0    0  501  502  0.00000000000E+00  0.00000000000E+00  0.26098141720E+01  0.26098141720E+01  0.00000000000E+00 0. -1.
         13   -1    0    0    0    0 -0.00000000000E+00 -0.00000000000E+00 -0.10000000000E+04  0.10000000000E+04  0.00000000000E+00 0.  1.
    9000005    2    1    2  501    0 -0.16122534494E+02  0.39430772078E+02 -0.22352675737E+03  0.22757476477E+03  0.33675498860E+01 0.  0.
         13    1    3    3    0    0 -0.65593215798E+01  0.12435577516E+02 -0.69399858390E+02  0.70809664823E+02  0.00000000000E+00 0.  1.
          3    1    3    3  501    0 -0.95632129138E+01  0.26995194562E+02 -0.15412689898E+03  0.15676509995E+03  0.00000000000E+00 0.  1.
         -3    1    1    2    0  502  0.16122534494E+02 -0.39430772078E+02 -0.77386342845E+03  0.77503504940E+03  0.00000000000E+00 0. -1.
<mgrwt>
<rscale>  1 0.30000000E+03</rscale>
<asrwt>0</asrwt>
<pdfrwt beam="1">  1       21 0.94902534E-02 0.30000000E+03</pdfrwt>
<pdfrwt beam="2">0</pdfrwt>
<totfact> 0.94449777E+03</totfact>
</mgrwt>
</event>
<event>
 6    1  0.1295671E-001  0.3000000E+03  0.7818608E-02  0.1093470E+00
         21   -1    0    0  501  502  0.00000000000E+00  0.00000000000E+00  0.23696090320E+01  0.23696090320E+01  0.00000000000E+00 0. -1.
         13   -1    0    0    0    0 -0.00000000000E+00 -0.00000000000E+00 -0.10000000000E+04  0.10000000000E+04  0.00000000000E+00 0.  1.
    9000005    2    1    2  501    0  0.36832119531E+02 -0.23271558997E+02 -0.72158004724E+03  0.72290232515E+03  0.34404428238E+01 0.  0.
         13    1    3    3    0    0  0.36833040263E+02 -0.23177552540E+02 -0.71590072507E+03  0.71722222494E+03  0.00000000000E+00 0.  1.
          1    1    3    3  501    0 -0.92073226817E-03 -0.94006457262E-01 -0.56793221738E+01  0.56801002117E+01  0.00000000000E+00 0.  1.
         -1    1    1    2    0  502 -0.36832119531E+02  0.23271558997E+02 -0.27605034373E+03  0.27946728388E+03  0.00000000000E+00 0. -1.
<mgrwt>
<rscale>  1 0.30000000E+03</rscale>
<asrwt>0</asrwt>
<pdfrwt beam="1">  1       21 0.86167783E-02 0.30000000E+03</pdfrwt>
<pdfrwt beam="2">0</pdfrwt>
<totfact> 0.11208166E+04</totfact>
</mgrwt>
</event>
<event>
 6    1  0.1295671E-001  0.3000000E+03  0.7818608E-02  0.1093470E+00
         21   -1    0    0  501  502  0.00000000000E+00  0.00000000000E+00  0.21281339652E+01  0.21281339652E+01  0.00000000000E+00 0. -1.
         13   -1    0    0    0    0 -0.00000000000E+00 -0.00000000000E+00 -0.10000000000E+04  0.10000000000E+04  0.00000000000E+00 0.  1.
    9000005    2    1    2  501    0 -0.52174968302E+01  0.42723458285E+02 -0.67134355994E+03  0.67277535829E+03  0.84847565694E+01 0.  0.
         13    1    3    3    0    0  0.43497390478E+00  0.17213897942E+02 -0.31895130284E+03  0.31941578087E+03  0.00000000000E+00 0.  1.
          1    1    3    3  501    0 -0.56524707350E+01  0.25509560342E+02 -0.35239225710E+03  0.35335957742E+03  0.00000000000E+00 0.  1.
         -1    1    1    2    0  502  0.52174968302E+01 -0.42723458285E+02 -0.32652830609E+03  0.32935277567E+03  0.00000000000E+00 0. -1.
<mgrwt>
<rscale>  1 0.30000000E+03</rscale>
<asrwt>0</asrwt>
<pdfrwt beam="1">  1       21 0.77386853E-02 0.30000000E+03</pdfrwt>
<pdfrwt beam="2">0</pdfrwt>
<totfact> 0.13540439E+04</totfact>
</mgrwt>
</event>
<event>
 6    1  0.1295671E-001  0.3000000E+03  0.7818608E-02  0.1093470E+00
         21   -1    0    0  501  502  0.00000000000E+00  0.00000000000E+00  0.50918054531E+01  0.50918054531E+01  0.00000000000E+00 0. -1.
         13   -1    0    0    0    0 -0.00000000000E+00 -0.00000000000E+00 -0.10000000000E+04  0.10000000000E+04  0.00000000000E+00 0.  1.
    9000005    2    1    2  501    0  0.67681281854E+01  0.41042504965E+02 -0.90571609555E+03  0.90667673904E+03  0.32815563546E+01 0.  0.
         13    1    3    3    0    0  0.31214223852E+01  0.28246817602E+02 -0.62111925479E+03  0.62176905251E+03  0.00000000000E+00 0.  1.
          1    1    3    3  501    0  0.36467058001E+01  0.12795687363E+02 -0.28459684075E+03  0.28490768653E+03  0.00000000000E+00 0.  1.
         -1    1    1    2    0  502 -0.67681281854E+01 -0.41042504965E+02 -0.89192098999E+02  0.98415066412E+02  0.00000000000E+00 0. -1.
<mgrwt>
<rscale>  1 0.30000000E+03</rscale>
<asrwt>0</asrwt>
<pdfrwt beam="1">  1       21 0.18515695E-01 0.30000000E+03</pdfrwt>
<pdfrwt beam="2">0</pdfrwt>
<totfact> 0.27775400E+03</totfact>
</mgrwt>
</event>
<event>
 6    1  0.1295671E-001  0.3000000E+03  0.7818608E-02  0.1093470E+00
         21   -1    0    0  501  502  0.00000000000E+00  0.00000000000E+00  0.20526743258E+01  0.20526743258E+01  0.00000000000E+00 0. -1.
         13   -1    0    0    0    0 -0.00000000000E+00 -0.00000000000E+00 -0.10000000000E+04  0.10000000000E+04  0.00000000000E+00 0.  1.
    9000005    2    1    2  501    0  0.22175036038E+02  0.32876528035E+02 -0.74046019436E+03  0.74152969816E+03  0.35207243080E+01 0.  0.
         13    1    3    3    0    0  0.17043342992E+02  0.26291640816E+02 -0.60781646381E+03  0.60862351219E+03  0.00000000000E+00 0.  1.
          1    1    3    3  501    0  0.51316930455E+01  0.65848872197E+01 -0.13264373056E+03  0.13290618597E+03  0.00000000000E+00 0.  1.
         -3    1    1    2    0  502 -0.22175036038E+02 -0.32876528035E+02 -0.25748713131E+03  0.26052297617E+03  0.00000000000E+00 0. -1.
<mgrwt>
<rscale>  1 0.30000000E+03</rscale>
<asrwt>0</asrwt>
<pdfrwt beam="1">  1       21 0.74642860E-02 0.30000000E+03</pdfrwt>
<pdfrwt beam="2">0</pdfrwt>
<totfact> 0.14424499E+04</totfact>
</mgrwt>
</event>
<event>
 6    1  0.1295671E-001  0.3000000E+03  0.7818608E-02  0.1093470E+00
         21   -1    0    0  501  502  0.00000000000E+00  0.00000000000E+00  0.35781955576E+01  0.35781955576E+01  0.00000000000E+00 0. -1.
         13   -1    0    0    0    0 -0.00000000000E+00 -0.00000000000E+00 -0.10000000000E+04  0.10000000000E+04  0.00000000000E+00 0.  1.
    9000005    2    1    2  501    0  0.37627748798E+02  0.27626062623E+02 -0.81171596274E+03  0.81306495514E+03  0.35735547139E+01 0.  0.
         13    1    3    3    0    0  0.15048396170E+02  0.10566244195E+02 -0.34973437377E+03  0.35021740667E+03  0.00000000000E+00 0.  1.
          1    1    3    3  501    0  0.22579352628E+02  0.17059818427E+02 -0.46198158897E+03  0.46284754847E+03  0.00000000000E+00 0.  1.
         -3    1    1    2    0  502 -0.37627748798E+02 -0.27626062623E+02 -0.18470584170E+03  0.19051324042E+03  0.00000000000E+00 0. -1.
<mgrwt>
<rscale>  1 0.30000000E+03</rscale>
<asrwt>0</asrwt>
<pdfrwt beam="1">  1       21 0.13011648E-01 0.30000000E+03</pdfrwt>
<pdfrwt beam="2">0</pdfrwt>
<totfact> 0.53477709E+03</totfact>
</mgrwt>
</event>
<event>
 6    1  0.1295671E-001  0.3000000E+03  0.7818608E-02  0.1093470E+00
         21   -1    0    0  501  502  0.00000000000E+00  0.00000000000E+00  0.20057301919E+01  0.20057301919E+01  0.00000000000E+00 0. -1.
         13   -1    0    0    0    0 -0.00000000000E+00 -0.00000000000E+00 -0.10000000000E+04  0.10000000000E+04  0.00000000000E+00 0.  1.
    9000005    2    1    2  501    0  0.37063163374E+02 -0.29159188765E+01 -0.77776731093E+03  0.77866273371E+03  0.33885469512E+01 0.  0.
         13    1    3    3    0    0  0.25355462108E+02 -0.32241814929E+01 -0.51234372716E+03  0.51298088616E+03  0.00000000000E+00 0.  1.
          3    1    3    3  501    0  0.11707701266E+02  0.30826261638E+00 -0.26542358378E+03  0.26568184755E+03  0.00000000000E+00 0.  1.
         -1    1    1    2    0  502 -0.37063163374E+02  0.29159188765E+01 -0.22022695887E+03  0.22334299648E+03  0.00000000000E+00 0. -1.
<mgrwt>
<rscale>  1 0.30000000E+03</rscale>
<asrwt>0</asrwt>
<pdfrwt beam="1">  1       21 0.72935797E-02 0.30000000E+03</pdfrwt>
<pdfrwt beam="2">0</pdfrwt>
<totfact> 0.15019998E+04</totfact>
</mgrwt>
</event>
<event>
 6    1  0.1295671E-001  0.3000000E+03  0.7818608E-02  0.1093470E+00
         21   -1    0    0  501  502  0.00000000000E+00  0.00000000000E+00  0.13654993203E+01  0.13654993203E+01  0.00000000000E+00 0. -1.
         13   -1    0    0    0    0 -0.00000000000E+00 -0.00000000000E+00 -0.10000000000E+04  0.10000000000E+04  0.00000000000E+00 0.  1.
    9000005    2    1    2  501    0 -0.13324580103E+02  0.32773208288E+02 -0.37087931658E+03  0.37261419810E+03  0.61842983339E+01 0.  0.
         13    1    3    3    0    0  0.66582179895E+00  0.12224299583E+01 -0.12828531468E+02  0.12903831730E+02  0.00000000000E+00 0.  1.
          3    1    3    3  501    0 -0.13990401902E+02  0.31550778329E+02 -0.35805078511E+03  0.35971036637E+03  0.00000000000E+00 0.  1.
         -3    1    1    2    0  502  0.13324580103E+02 -0.32773208288E+02 -0.62775518410E+03  0.62875130122E+03  0.00000000000E+00 0. -1.
<mgrwt>
<rscale>  1 0.30000000E+03</rscale>
<asrwt>0</asrwt>
<pdfrwt beam="1">  1       21 0.49654625E-02 0.30000000E+03</pdfrwt>
<pdfrwt beam="2">0</pdfrwt>
<totfact> 0.29146978E+04</totfact>
</mgrwt>
</event>
<event>
 6    1  0.1295671E-001  0.3000000E+03  0.7818608E-02  0.1093470E+00
         21   -1    0    0  501  502  0.00000000000E+00  0.00000000000E+00  0.29458469051E+01  0.29458469051E+01  0.00000000000E+00 0. -1.
         13   -1    0    0    0    0 -0.00000000000E+00 -0.00000000000E+00 -0.10000000000E+04  0.10000000000E+04  0.00000000000E+00 0.  1.
    9000005    2    1    2  501    0 -0.23019793609E+02 -0.26305095933E+02 -0.88203105022E+03  0.88272861368E+03  0.30270255217E+01 0.  0.
         13    1    3    3    0    0 -0.69384721930E+01 -0.81896282390E+01 -0.23719312395E+03  0.23743586599E+03  0.00000000000E+00 0.  1.
          1    1    3    3  501    0 -0.16081321416E+02 -0.18115467694E+02 -0.64483792627E+03  0.64529274769E+03  0.00000000000E+00 0.  1.
         -1    1    1    2    0  502  0.23019793609E+02  0.26305095933E+02 -0.11502310287E+03  0.12021723322E+03  0.00000000000E+00 0. -1.
<mgrwt>
<rscale>  1 0.30000000E+03</rscale>
<asrwt>0</asrwt>
<pdfrwt beam="1">  1       21 0.10712193E-01 0.30000000E+03</pdfrwt>
<pdfrwt beam="2">0</pdfrwt>
<totfact> 0.76059267E+03</totfact>
</mgrwt>
</event>
<event>
 6    1  0.1295671E-001  0.3000000E+03  0.7818608E-02  0.1093470E+00
         21   -1    0    0  501  502  0.00000000000E+00  0.00000000000E+00  0.16689538954E+01  0.16689538954E+01  0.00000000000E+00 0. -1.
         13   -1    0    0    0    0 -0.00000000000E+00 -0.00000000000E+00 -0.10000000000E+04  0.10000000000E+04  0.00000000000E+00 0.  1.
    9000005    2    1    2  501    0  0.94478355696E+00  0.40052682942E+02 -0.59416869452E+03  0.59552573228E+03  0.30578148462E+01 0.  0.
         13    1    3    3    0    0 -0.13485319606E+00  0.22535199844E+02 -0.31365430120E+03  0.31446283418E+03  0.00000000000E+00 0.  1.
          1    1    3    3  501    0  0.10796367530E+01  0.17517483098E+02 -0.28051439332E+03  0.28106289810E+03  0.00000000000E+00 0.  1.
         -3    1    1    2    0  502 -0.94478355696E+00 -0.40052682942E+02 -0.40416235158E+03  0.40614322161E+03  0.00000000000E+00 0. -1.
<mgrwt>
<rscale>  1 0.30000000E+03</rscale>
<asrwt>0</asrwt>
<pdfrwt beam="1">  1       21 0.60689361E-02 0.30000000E+03</pdfrwt>
<pdfrwt beam="2">0</pdfrwt>
<totfact> 0.20660480E+04</totfact>
</mgrwt>
</event>
<event>
 6    1  0.1295671E-001  0.3000000E+03  0.7818608E-02  0.1093470E+00
         21   -1    0    0  501  502  0.00000000000E+00  0.00000000000E+00  0.16212733737E+01  0.16212733737E+01  0.00000000000E+00 0. -1.
         13   -1    0    0    0    0 -0.00000000000E+00 -0.00000000000E+00 -0.10000000000E+04  0.10000000000E+04  0.00000000000E+00 0.  1.
    9000005    2    1    2  501    0  0.67622180588E+01 -0.39444535983E+02 -0.54587383809E+03  0.54735012839E+03  0.35095483516E+01 0.  0.
         13    1    3    3    0    0  0.22741240967E+01 -0.67213193664E+01 -0.10721161717E+03  0.10744616620E+03  0.00000000000E+00 0.  1.
          3    1    3    3  501    0  0.44880939621E+01 -0.32723216617E+02 -0.43866222092E+03  0.43990396219E+03  0.00000000000E+00 0.  1.
         -3    1    1    2    0  502 -0.67622180588E+01  0.39444535983E+02 -0.45250488854E+03  0.45427114498E+03  0.00000000000E+00 0. -1.
<mgrwt>
<rscale>  1 0.30000000E+03</rscale>
<asrwt>0</asrwt>
<pdfrwt beam="1">  1       21 0.58955520E-02 0.30000000E+03</pdfrwt>
<pdfrwt beam="2">0</pdfrwt>
<totfact> 0.21719403E+04</totfact>
</mgrwt>
</event>
<event>
 6    1  0.1295671E-001  0.3000000E+03  0.7818608E-02  0.1093470E+00
         21   -1    0    0  501  502  0.00000000000E+00  0.00000000000E+00  0.19529545221E+01  0.19529545221E+01  0.00000000000E+00 0. -1.
         13   -1    0    0    0    0 -0.00000000000E+00 -0.00000000000E+00 -0.10000000000E+04  0.10000000000E+04  0.00000000000E+00 0.  1.
    9000005    2    1    2  501    0 -0.82553299514E+01  0.38650444162E+02 -0.72173735052E+03  0.72283101910E+03  0.42274968552E+01 0.  0.
         13    1    3    3    0    0 -0.85835746372E+01  0.34566730416E+02 -0.63764459342E+03  0.63863852383E+03  0.00000000000E+00 0.  1.
          1    1    3    3  501    0  0.32824468571E+00  0.40837137465E+01 -0.84092757107E+02  0.84192495274E+02  0.00000000000E+00 0.  1.
         -1    1    1    2    0  502  0.82553299514E+01 -0.38650444162E+02 -0.27630969496E+03  0.27912193542E+03  0.00000000000E+00 0. -1.
<mgrwt>
<rscale>  1 0.30000000E+03</rscale>
<asrwt>0</asrwt>
<pdfrwt beam="1">  1       21 0.71016678E-02 0.30000000E+03</pdfrwt>
<pdfrwt beam="2">0</pdfrwt>
<totfact> 0.15735180E+04</totfact>
</mgrwt>
</event>
<event>
 6    1  0.1295671E-001  0.3000000E+03  0.7818608E-02  0.1093470E+00
         21   -1    0    0  501  502  0.00000000000E+00  0.00000000000E+00  0.22699122079E+01  0.22699122079E+01  0.00000000000E+00 0. -1.
         13   -1    0    0    0    0 -0.00000000000E+00 -0.00000000000E+00 -0.10000000000E+04  0.10000000000E+04  0.00000000000E+00 0.  1.
    9000005    2    1    2  501    0 -0.37277517783E+01  0.46228506648E+02 -0.38612459296E+03  0.38890847531E+03  0.25748634657E+01 0.  0.
         13    1    3    3    0    0 -0.26171524751E+01  0.19048497090E+02 -0.15432940866E+03  0.15552254212E+03  0.00000000000E+00 0.  1.
          1    1    3    3  501    0 -0.11105993032E+01  0.27180009559E+02 -0.23179518430E+03  0.23338593320E+03  0.00000000000E+00 0.  1.
         -3    1    1    2    0  502  0.37277517783E+01 -0.46228506648E+02 -0.61160549483E+03  0.61336143689E+03  0.00000000000E+00 0. -1.
<mgrwt>
<rscale>  1 0.30000000E+03</rscale>
<asrwt>0</asrwt>
<pdfrwt beam="1">  1       21 0.82542436E-02 0.30000000E+03</pdfrwt>
<pdfrwt beam="2">0</pdfrwt>
<totfact> 0.12090234E+04</totfact>
</mgrwt>
</event>
<event>
 6    1  0.1295671E-001  0.3000000E+03  0.7818608E-02  0.1093470E+00
         21   -1    0    0  501  502  0.00000000000E+00  0.00000000000E+00  0.33035301388E+01  0.33035301388E+01  0.00000000000E+00 0. -1.
         13   -1    0    0    0    0 -0.00000000000E+00 -0.00000000000E+00 -0.10000000000E+04  0.10000000000E+04  0.00000000000E+00 0.  1.
    9000005    2    1    2  501    0  0.35812152974E+02  0.29467019946E+02 -0.79434762607E+03  0.79570808185E+03  0.35192213310E+01 0.  0.
         13    1    3    3    0    0  0.25293161845E+02  0.22060077313E+02 -0.55227821153E+03  0.55329703955E+03  0.00000000000E+00 0.  1.
          1    1    3    3  501    0  0.10518991129E+02  0.74069426329E+01 -0.24206941454E+03  0.24241104230E+03  0.00000000000E+00 0.  1.
         -1    1    1    2    0  502 -0.35812152974E+02 -0.29467019946E+02 -0.20234884379E+03  0.20759544829E+03  0.00000000000E+00 0. -1.
<mgrwt>
<rscale>  1 0.30000000E+03</rscale>
<asrwt>0</asrwt>
<pdfrwt beam="1">  1       21 0.12012862E-01 0.30000000E+03</pdfrwt>
<pdfrwt beam="2">0</pdfrwt>
<totfact> 0.61850819E+03</totfact>
</mgrwt>
</event>
<event>
 6    1  0.1295671E-001  0.3000000E+03  0.7818608E-02  0.1093470E+00
         21   -1    0    0  501  502  0.00000000000E+00  0.00000000000E+00  0.19849533574E+01  0.19849533574E+01  0.00000000000E+00 0. -1.
         13   -1    0    0    0    0 -0.00000000000E+00 -0.00000000000E+00 -0.10000000000E+04  0.10000000000E+04  0.00000000000E+00 0.  1.
    9000005    2    1    2  501    0 -0.24885280791E+02  0.33279068692E+02 -0.67841604148E+03  0.67969580102E+03  0.33590139260E+01 0.  0.
         13    1    3    3    0    0 -0.23334180484E+02  0.29580161425E+02 -0.61061979001E+03  0.61178100484E+03  0.00000000000E+00 0.  1.
          3    1    3    3  501    0 -0.15511003074E+01  0.36989072671E+01 -0.67796251470E+02  0.67914796183E+02  0.00000000000E+00 0.  1.
         -3    1    1    2    0  502  0.24885280791E+02 -0.33279068692E+02 -0.31959900516E+03  0.32228915234E+03  0.00000000000E+00 0. -1.
<mgrwt>
<rscale>  1 0.30000000E+03</rscale>
<asrwt>0</asrwt>
<pdfrwt beam="1">  1       21 0.72180274E-02 0.30000000E+03</pdfrwt>
<pdfrwt beam="2">0</pdfrwt>
<totfact> 0.15295533E+04</totfact>
</mgrwt>
</event>
<event>
 6    1  0.1295671E-001  0.3000000E+03  0.7818608E-02  0.1093470E+00
         21   -1    0    0  501  502  0.00000000000E+00  0.00000000000E+00  0.15469983527E+01  0.15469983527E+01  0.00000000000E+00 0. -1.
         13   -1    0    0    0    0 -0.00000000000E+00 -0.00000000000E+00 -0.10000000000E+04  0.10000000000E+04  0.00000000000E+00 0.  1.
    9000005    2    1    2  501    0 -0.31698409786E+02  0.22791871910E+02 -0.44396461705E+03  0.44568584010E+03  0.26510864229E+01 0.  0.
         13    1    3    3    0    0 -0.19674037685E+02  0.13972626882E+02 -0.25957624971E+03  0.26069547651E+03  0.00000000000E+00 0.  1.
          1    1    3    3  501    0 -0.12024372102E+02  0.88192450284E+01 -0.18438836734E+03  0.18499036358E+03  0.00000000000E+00 0.  1.
         -1    1    1    2    0  502  0.31698409786E+02 -0.22791871910E+02 -0.55448838460E+03  0.55586115826E+03  0.00000000000E+00 0. -1.
<mgrwt>
<rscale>  1 0.30000000E+03</rscale>
<asrwt>0</asrwt>
<pdfrwt beam="1">  1       21 0.56254604E-02 0.30000000E+03</pdfrwt>
<pdfrwt beam="2">0</pdfrwt>
<totfact> 0.23544924E+04</totfact>
</mgrwt>
</event>
<event>
 6    1  0.1295671E-001  0.3000000E+03  0.7818608E-02  0.1093470E+00
         21   -1    0    0  501  502  0.00000000000E+00  0.00000000000E+00  0.26569106917E+01  0.26569106917E+01  0.00000000000E+00 0. -1.
         13   -1    0    0    0    0 -0.00000000000E+00 -0.00000000000E+00 -0.10000000000E+04  0.10000000000E+04  0.00000000000E+00 0.  1.
    9000005    2    1    2  501    0 -0.78621585438E+01 -0.45412148836E+02 -0.72288775086E+03  0.72435885177E+03  0.22291231116E+01 0.  0.
         13    1    3    3    0    0 -0.77144795316E+01 -0.43222184227E+02 -0.68132348166E+03  0.68273666744E+03  0.00000000000E+00 0.  1.
          1    1    3    3  501    0 -0.14767901226E+00 -0.21899646083E+01 -0.41564269208E+02  0.41622184335E+02  0.00000000000E+00 0.  1.
         -1    1    1    2    0  502  0.78621585438E+01  0.45412148836E+02 -0.27445533844E+03  0.27829805892E+03  0.00000000000E+00 0. -1.
<mgrwt>
<rscale>  1 0.30000000E+03</rscale>
<asrwt>0</asrwt>
<pdfrwt beam="1">  1       21 0.96615138E-02 0.30000000E+03</pdfrwt>
<pdfrwt beam="2">0</pdfrwt>
<totfact> 0.91486197E+03</totfact>
</mgrwt>
</event>
<event>
 6    1  0.1295671E-001  0.3000000E+03  0.7818608E-02  0.1093470E+00
         21   -1    0    0  501  502  0.00000000000E+00  0.00000000000E+00  0.66117845532E+01  0.66117845532E+01  0.00000000000E+00 0. -1.
         13   -1    0    0    0    0 -0.00000000000E+00 -0.00000000000E+00 -0.10000000000E+04  0.10000000000E+04  0.00000000000E+00 0.  1.
    9000005    2    1    2  501    0 -0.42093878244E+02 -0.40817493889E+02 -0.14899624007E+03  0.16018649519E+03  0.46766754544E+01 0.  0.
         13    1    3    3    0    0 -0.36891305819E+02 -0.33449607194E+02 -0.12558505588E+03  0.13509793088E+03  0.00000000000E+00 0.  1.
          1    1    3    3  501    0 -0.52025724245E+01 -0.73678866957E+01 -0.23411184192E+02  0.25088564316E+02  0.00000000000E+00 0.  1.
         -3    1    1    2    0  502  0.42093878244E+02  0.40817493889E+02 -0.84439197537E+03  0.84642528936E+03  0.00000000000E+00 0. -1.
<mgrwt>
<rscale>  1 0.30000000E+03</rscale>
<asrwt>0</asrwt>
<pdfrwt beam="1">  1       21 0.24042904E-01 0.30000000E+03</pdfrwt>
<pdfrwt beam="2">0</pdfrwt>
<totfact> 0.16830485E+03</totfact>
</mgrwt>
</event>
<event>
 6    1  0.1295671E-001  0.3000000E+03  0.7818608E-02  0.1093470E+00
         21   -1    0    0  501  502  0.00000000000E+00  0.00000000000E+00  0.19131252369E+01  0.19131252369E+01  0.00000000000E+00 0. -1.
         13   -1    0    0    0    0 -0.00000000000E+00 -0.00000000000E+00 -0.10000000000E+04  0.10000000000E+04  0.00000000000E+00 0.  1.
    9000005    2    1    2  501    0  0.30839348829E+02 -0.28901542251E+02 -0.62579863427E+03  0.62723339721E+03  0.33822104892E+01 0.  0.
         13    1    3    3    0    0  0.27491548338E+02 -0.24657246877E+02 -0.53350713249E+03  0.53478371840E+03  0.00000000000E+00 0.  1.
          1    1    3    3  501    0  0.33478004912E+01 -0.42442953742E+01 -0.92291501778E+02  0.92449678809E+02  0.00000000000E+00 0.  1.
         -3    1    1    2    0  502 -0.30839348829E+02  0.28901542251E+02 -0.37228824050E+03  0.37467972802E+03  0.00000000000E+00 0. -1.
<mgrwt>
<rscale>  1 0.30000000E+03</rscale>
<asrwt>0</asrwt>
<pdfrwt beam="1">  1       21 0.69568337E-02 0.30000000E+03</pdfrwt>
<pdfrwt beam="2">0</pdfrwt>
<totfact> 0.16309881E+04</totfact>
</mgrwt>
</event>
<event>
 6    1  0.1295671E-001  0.3000000E+03  0.7818608E-02  0.1093470E+00
         21   -1    0    0  501  502  0.00000000000E+00  0.00000000000E+00  0.20295392140E+01  0.20295392140E+01  0.00000000000E+00 0. -1.
         13   -1    0    0    0    0 -0.00000000000E+00 -0.00000000000E+00 -0.10000000000E+04  0.10000000000E+04  0.00000000000E+00 0.  1.
    9000005    2    1    2  501    0  0.38300709059E+02  0.33700702968E+01 -0.75961087058E+03  0.76058887169E+03  0.29078096197E+01 0.  0.
         13    1    3    3    0    0  0.15011142678E+01  0.70828567701E+00 -0.30850170676E+02  0.30894789907E+02  0.00000000000E+00 0.  1.
          1    1    3    3  501    0  0.36799594792E+02  0.26617846198E+01 -0.72876069990E+03  0.72969408179E+03  0.00000000000E+00 0.  1.
         -3    1    1    2    0  502 -0.38300709059E+02 -0.33700702968E+01 -0.23835959021E+03  0.24144066752E+03  0.00000000000E+00 0. -1.
<mgrwt>
<rscale>  1 0.30000000E+03</rscale>
<asrwt>0</asrwt>
<pdfrwt beam="1">  1       21 0.73801582E-02 0.30000000E+03</pdfrwt>
<pdfrwt beam="2">0</pdfrwt>
<totfact> 0.14713414E+04</totfact>
</mgrwt>
</event>
<event>
 6    1  0.1295671E-001  0.3000000E+03  0.7818608E-02  0.1093470E+00
         21   -1    0    0  501  502  0.00000000000E+00  0.00000000000E+00  0.15404470270E+01  0.15404470270E+01  0.00000000000E+00 0. -1.
         13   -1    0    0    0    0 -0.00000000000E+00 -0.00000000000E+00 -0.10000000000E+04  0.10000000000E+04  0.00000000000E+00 0.  1.
    9000005    2    1    2  501    0 -0.30637482484E+02  0.52203874308E+01 -0.80432856854E+03  0.80493742850E+03  0.37295910057E+01 0.  0.
         13    1    3    3    0    0 -0.30004834861E+02  0.47710636818E+01 -0.79331573142E+03  0.79389728736E+03  0.00000000000E+00 0.  1.
          1    1    3    3  501    0 -0.63264762269E+00  0.44932374898E+00 -0.11012837123E+02  0.11040141138E+02  0.00000000000E+00 0.  1.
         -1    1    1    2    0  502  0.30637482484E+02 -0.52203874308E+01 -0.19413098443E+03  0.19660301853E+03  0.00000000000E+00 0. -1.
<mgrwt>
<rscale>  1 0.30000000E+03</rscale>
<asrwt>0</asrwt>
<pdfrwt beam="1">  1       21 0.56016374E-02 0.30000000E+03</pdfrwt>
<pdfrwt beam="2">0</pdfrwt>
<totfact> 0.23717153E+04</totfact>
</mgrwt>
</event>
<event>
 6    1  0.1295671E-001  0.3000000E+03  0.7818608E-02  0.1093470E+00
         21   -1    0    0  501  502  0.00000000000E+00  0.00000000000E+00  0.19899887024E+01  0.19899887024E+01  0.00000000000E+00 0. -1.
         13   -1    0    0    0    0 -0.00000000000E+00 -0.00000000000E+00 -0.10000000000E+04  0.10000000000E+04  0.00000000000E+00 0.  1.
    9000005    2    1    2  501    0  0.24457074003E+02 -0.29815834877E+02 -0.75024693461E+03  0.75124375314E+03  0.30953617642E+01 0.  0.
         13    1    3    3    0    0  0.98740346707E+01 -0.14111027909E+02 -0.34985338334E+03  0.35027704393E+03  0.00000000000E+00 0.  1.
          3    1    3    3  501    0  0.14583039332E+02 -0.15704806968E+02 -0.40039355127E+03  0.40096670922E+03  0.00000000000E+00 0.  1.
         -1    1    1    2    0  502 -0.24457074003E+02  0.29815834877E+02 -0.24776307669E+03  0.25074623556E+03  0.00000000000E+00 0. -1.
<mgrwt>
<rscale>  1 0.30000000E+03</rscale>
<asrwt>0</asrwt>
<pdfrwt beam="1">  1       21 0.72363378E-02 0.30000000E+03</pdfrwt>
<pdfrwt beam="2">0</pdfrwt>
<totfact> 0.15228055E+04</totfact>
</mgrwt>
</event>
<event>
 6    1  0.1295671E-001  0.3000000E+03  0.7818608E-02  0.1093470E+00
         21   -1    0    0  501  502  0.00000000000E+00  0.00000000000E+00  0.11007773055E+01  0.11007773055E+01  0.00000000000E+00 0. -1.
         13   -1    0    0    0    0 -0.00000000000E+00 -0.00000000000E+00 -0.10000000000E+04  0.10000000000E+04  0.00000000000E+00 0.  1.
    9000005    2    1    2  501    0  0.13437885785E+02 -0.29875163616E+02 -0.56283019421E+03  0.56380305289E+03  0.47909037045E+01 0.  0.
         13    1    3    3    0    0  0.12314346961E+02 -0.26468567790E+02 -0.47188263051E+03  0.47278477682E+03  0.00000000000E+00 0.  1.
          1    1    3    3  501    0  0.11235388235E+01 -0.34065958260E+01 -0.90947563706E+02  0.91018276069E+02  0.00000000000E+00 0.  1.
         -1    1    1    2    0  502 -0.13437885785E+02  0.29875163616E+02 -0.43606902848E+03  0.43729772441E+03  0.00000000000E+00 0. -1.
<mgrwt>
<rscale>  1 0.30000000E+03</rscale>
<asrwt>0</asrwt>
<pdfrwt beam="1">  1       21 0.40028350E-02 0.30000000E+03</pdfrwt>
<pdfrwt beam="2">0</pdfrwt>
<totfact> 0.41997184E+04</totfact>
</mgrwt>
</event>
<event>
 6    1  0.1295671E-001  0.3000000E+03  0.7818608E-02  0.1093470E+00
         21   -1    0    0  501  502  0.00000000000E+00  0.00000000000E+00  0.20035454206E+01  0.20035454206E+01  0.00000000000E+00 0. -1.
         13   -1    0    0    0    0 -0.00000000000E+00 -0.00000000000E+00 -0.10000000000E+04  0.10000000000E+04  0.00000000000E+00 0.  1.
    9000005    2    1    2  501    0 -0.38204861474E+02  0.21200929190E+01 -0.75830722103E+03  0.75927935027E+03  0.33442546414E+01 0.  0.
         13    1    3    3    0    0 -0.39683648522E+01  0.96333560895E-01 -0.10104290269E+03  0.10112084545E+03  0.00000000000E+00 0.  1.
          1    1    3    3  501    0 -0.34236496622E+02  0.20237593581E+01 -0.65726431834E+03  0.65815850482E+03  0.00000000000E+00 0.  1.
         -1    1    1    2    0  502  0.38204861474E+02 -0.21200929190E+01 -0.23968923355E+03  0.24272419515E+03  0.00000000000E+00 0. -1.
<mgrwt>
<rscale>  1 0.30000000E+03</rscale>
<asrwt>0</asrwt>
<pdfrwt beam="1">  1       21 0.72856351E-02 0.30000000E+03</pdfrwt>
<pdfrwt beam="2">0</pdfrwt>
<totfact> 0.15048616E+04</totfact>
</mgrwt>
</event>
<event>
 6    1  0.1295671E-001  0.3000000E+03  0.7818608E-02  0.1093470E+00
         21   -1    0    0  501  502  0.00000000000E+00  0.00000000000E+00  0.10954466468E+01  0.10954466468E+01  0.00000000000E+00 0. -1.
         13   -1    0    0    0    0 -0.00000000000E+00 -0.00000000000E+00 -0.10000000000E+04  0.10000000000E+04  0.00000000000E+00 0.  1.
    9000005    2    1    2  501    0  0.97414151899E-01  0.32382527799E+02 -0.40311388067E+03  0.40442538434E+03  0.32331275989E+01 0.  0.
         13    1    3    3    0    0  0.27078869137E+00  0.13451388298E+01 -0.11051051149E+02  0.11135908426E+02  0.00000000000E+00 0.  1.
          1    1    3    3  501    0 -0.17337453947E+00  0.31037388969E+02 -0.39206282952E+03  0.39328947591E+03  0.00000000000E+00 0.  1.
         -1    1    1    2    0  502 -0.97414151899E-01 -0.32382527799E+02 -0.59579067268E+03  0.59667006231E+03  0.00000000000E+00 0. -1.
<mgrwt>
<rscale>  1 0.30000000E+03</rscale>
<asrwt>0</asrwt>
<pdfrwt beam="1">  1       21 0.39834508E-02 0.30000000E+03</pdfrwt>
<pdfrwt beam="2">0</pdfrwt>
<totfact> 0.42341887E+04</totfact>
</mgrwt>
</event>
<event>
 6    1  0.1295671E-001  0.3000000E+03  0.7818608E-02  0.1093470E+00
         21   -1    0    0  501  502  0.00000000000E+00  0.00000000000E+00  0.49735735840E+01  0.49735735840E+01  0.00000000000E+00 0. -1.
         13   -1    0    0    0    0 -0.00000000000E+00 -0.00000000000E+00 -0.10000000000E+04  0.10000000000E+04  0.00000000000E+00 0.  1.
    9000005    2    1    2  501    0 -0.49244948000E+02  0.35504498005E+01 -0.85620256530E+03  0.85763133587E+03  0.33173566520E+01 0.  0.
         13    1    3    3    0    0 -0.27465701417E+02  0.28693849414E+01 -0.50247285560E+03  0.50323112855E+03  0.00000000000E+00 0.  1.
          3    1    3    3  501    0 -0.21779246583E+02  0.68106485906E+00 -0.35372970970E+03  0.35440020733E+03  0.00000000000E+00 0.  1.
         -3    1    1    2    0  502  0.49244948000E+02 -0.35504498005E+01 -0.13882386112E+03  0.14734223771E+03  0.00000000000E+00 0. -1.
<mgrwt>
<rscale>  1 0.30000000E+03</rscale>
<asrwt>0</asrwt>
<pdfrwt beam="1">  1       21 0.18085760E-01 0.30000000E+03</pdfrwt>
<pdfrwt beam="2">0</pdfrwt>
<totfact> 0.29034368E+03</totfact>
</mgrwt>
</event>
<event>
 6    1  0.1295671E-001  0.3000000E+03  0.7818608E-02  0.1093470E+00
         21   -1    0    0  501  502  0.00000000000E+00  0.00000000000E+00  0.10657018977E+01  0.10657018977E+01  0.00000000000E+00 0. -1.
         13   -1    0    0    0    0 -0.00000000000E+00 -0.00000000000E+00 -0.10000000000E+04  0.10000000000E+04  0.00000000000E+00 0.  1.
    9000005    2    1    2  501    0  0.29497945173E+02  0.13457702363E+02 -0.52873582580E+03  0.52975068847E+03  0.47937389416E+01 0.  0.
         13    1    3    3    0    0  0.18684398900E+02  0.10783953040E+02 -0.33281435338E+03  0.33351280968E+03  0.00000000000E+00 0.  1.
          1    1    3    3  501    0  0.10813546273E+02  0.26737493225E+01 -0.19592147242E+03  0.19623787880E+03  0.00000000000E+00 0.  1.
         -1    1    1    2    0  502 -0.29497945173E+02 -0.13457702363E+02 -0.47019847230E+03  0.47131501342E+03  0.00000000000E+00 0. -1.
<mgrwt>
<rscale>  1 0.30000000E+03</rscale>
<asrwt>0</asrwt>
<pdfrwt beam="1">  1       21 0.38752878E-02 0.30000000E+03</pdfrwt>
<pdfrwt beam="2">0</pdfrwt>
<totfact> 0.44349250E+04</totfact>
</mgrwt>
</event>
<event>
 6    1  0.1295671E-001  0.3000000E+03  0.7818608E-02  0.1093470E+00
         21   -1    0    0  501  502  0.00000000000E+00  0.00000000000E+00  0.15963212131E+01  0.15963212131E+01  0.00000000000E+00 0. -1.
         13   -1    0    0    0    0 -0.00000000000E+00 -0.00000000000E+00 -0.10000000000E+04  0.10000000000E+04  0.00000000000E+00 0.  1.
    9000005    2    1    2  501    0  0.19371114644E+02 -0.25944867401E+02 -0.21236512401E+03  0.21489117580E+03  0.55583552425E+01 0.  0.
         13    1    3    3    0    0  0.40042190708E+01 -0.57111514200E+01 -0.32472725586E+02  0.33213384771E+02  0.00000000000E+00 0.  1.
          1    1    3    3  501    0  0.15366895573E+02 -0.20233715981E+02 -0.17989239843E+03  0.18167779103E+03  0.00000000000E+00 0.  1.
         -3    1    1    2    0  502 -0.19371114644E+02  0.25944867401E+02 -0.78603855477E+03  0.78670514541E+03  0.00000000000E+00 0. -1.
<mgrwt>
<rscale>  1 0.30000000E+03</rscale>
<asrwt>0</asrwt>
<pdfrwt beam="1">  1       21 0.58048167E-02 0.30000000E+03</pdfrwt>
<pdfrwt beam="2">0</pdfrwt>
<totfact> 0.22307658E+04</totfact>
</mgrwt>
</event>
<event>
 6    1  0.1295671E-001  0.3000000E+03  0.7818608E-02  0.1093470E+00
         21   -1    0    0  501  502  0.00000000000E+00  0.00000000000E+00  0.32908879070E+01  0.32908879070E+01  0.00000000000E+00 0. -1.
         13   -1    0    0    0    0 -0.00000000000E+00 -0.00000000000E+00 -0.10000000000E+04  0.10000000000E+04  0.00000000000E+00 0.  1.
    9000005    2    1    2  501    0  0.22467376426E+02 -0.21431183501E+02 -0.92009788205E+03  0.92062675300E+03  0.30703703402E+01 0.  0.
         13    1    3    3    0    0  0.41023465622E+01 -0.51378544446E+01 -0.22178472751E+03  0.22188215825E+03  0.00000000000E+00 0.  1.
          1    1    3    3  501    0  0.18365029864E+02 -0.16293329056E+02 -0.69831315454E+03  0.69874459475E+03  0.00000000000E+00 0.  1.
         -3    1    1    2    0  502 -0.22467376426E+02  0.21431183501E+02 -0.76611230048E+02  0.82664134902E+02  0.00000000000E+00 0. -1.
<mgrwt>
<rscale>  1 0.30000000E+03</rscale>
<asrwt>0</asrwt>
<pdfrwt beam="1">  1       21 0.11966890E-01 0.30000000E+03</pdfrwt>
<pdfrwt beam="2">0</pdfrwt>
<totfact> 0.62282686E+03</totfact>
</mgrwt>
</event>
<event>
 6    1  0.1295671E-001  0.3000000E+03  0.7818608E-02  0.1093470E+00
         21   -1    0    0  501  502  0.00000000000E+00  0.00000000000E+00  0.60667036792E+01  0.60667036792E+01  0.00000000000E+00 0. -1.
         13   -1    0    0    0    0 -0.00000000000E+00 -0.00000000000E+00 -0.10000000000E+04  0.10000000000E+04  0.00000000000E+00 0.  1.
    9000005    2    1    2  501    0  0.61577050982E+02 -0.42827206080E+02 -0.63163065130E+03  0.63608142103E+03  0.40486700422E+01 0.  0.
         13    1    3    3    0    0  0.79384176846E+01 -0.69699564540E+01 -0.82692952234E+02  0.83364999355E+02  0.00000000000E+00 0.  1.
          3    1    3    3  501    0  0.53638633298E+02 -0.35857249626E+02 -0.54893769906E+03  0.55271642167E+03  0.00000000000E+00 0.  1.
         -3    1    1    2    0  502 -0.61577050982E+02  0.42827206080E+02 -0.36230264502E+03  0.36998528265E+03  0.00000000000E+00 0. -1.
<mgrwt>
<rscale>  1 0.30000000E+03</rscale>
<asrwt>0</asrwt>
<pdfrwt beam="1">  1       21 0.22060787E-01 0.30000000E+03</pdfrwt>
<pdfrwt beam="2">0</pdfrwt>
<totfact> 0.19880022E+03</totfact>
</mgrwt>
</event>
<event>
 6    1  0.1295671E-001  0.3000000E+03  0.7818608E-02  0.1093470E+00
         21   -1    0    0  501  502  0.00000000000E+00  0.00000000000E+00  0.96895397214E+01  0.96895397214E+01  0.00000000000E+00 0. -1.
         13   -1    0    0    0    0 -0.00000000000E+00 -0.00000000000E+00 -0.10000000000E+04  0.10000000000E+04  0.00000000000E+00 0.  1.
    9000005    2    1    2  501    0 -0.23499128257E+02 -0.37748234054E+02 -0.94553872350E+03  0.94658924957E+03  0.32544676989E+01 0.  0.
         13    1    3    3    0    0 -0.19654606081E+01 -0.50417405725E+01 -0.12272595534E+03  0.12284519648E+03  0.00000000000E+00 0.  1.
          3    1    3    3  501    0 -0.21533667649E+02 -0.32706493481E+02 -0.82281276816E+03  0.82374405310E+03  0.00000000000E+00 0.  1.
         -3    1    1    2    0  502  0.23499128257E+02  0.37748234054E+02 -0.44771736777E+02  0.63100290150E+02  0.00000000000E+00 0. -1.
<mgrwt>
<rscale>  1 0.30000000E+03</rscale>
<asrwt>0</asrwt>
<pdfrwt beam="1">  1       21 0.35234764E-01 0.30000000E+03</pdfrwt>
<pdfrwt beam="2">0</pdfrwt>
<totfact> 0.78498216E+02</totfact>
</mgrwt>
</event>
<event>
 6    1  0.1295671E-001  0.3000000E+03  0.7818608E-02  0.1093470E+00
         21   -1    0    0  501  502  0.00000000000E+00  0.00000000000E+00  0.43313410524E+01  0.43313410524E+01  0.00000000000E+00 0. -1.
         13   -1    0    0    0    0 -0.00000000000E+00 -0.00000000000E+00 -0.10000000000E+04  0.10000000000E+04  0.00000000000E+00 0.  1.
    9000005    2    1    2  501    0  0.22299136588E+02  0.52986527790E+02 -0.74193960234E+03  0.74417127919E+03  0.34198881771E+01 0.  0.
         13    1    3    3    0    0  0.11918547256E+02  0.28779791129E+02 -0.42380759613E+03  0.42495082855E+03  0.00000000000E+00 0.  1.
          3    1    3    3  501    0  0.10380589332E+02  0.24206736662E+02 -0.31813200620E+03  0.31922045064E+03  0.00000000000E+00 0.  1.
         -3    1    1    2    0  502 -0.22299136588E+02 -0.52986527790E+02 -0.25372905661E+03  0.26016006186E+03  0.00000000000E+00 0. -1.
<mgrwt>
<rscale>  1 0.30000000E+03</rscale>
<asrwt>0</asrwt>
<pdfrwt beam="1">  1       21 0.15750364E-01 0.30000000E+03</pdfrwt>
<pdfrwt beam="2">0</pdfrwt>
<totfact> 0.37612489E+03</totfact>
</mgrwt>
</event>
<event>
 6    1  0.1295671E-001  0.3000000E+03  0.7818608E-02  0.1093470E+00
         21   -1    0    0  501  502  0.00000000000E+00  0.00000000000E+00  0.18543898057E+01  0.18543898057E+01  0.00000000000E+00 0. -1.
         13   -1    0    0    0    0 -0.00000000000E+00 -0.00000000000E+00 -0.10000000000E+04  0.10000000000E+04  0.00000000000E+00 0.  1.
    9000005    2    1    2  501    0  0.16447943434E+02  0.37876621252E+02 -0.63725512866E+03  0.63860913803E+03  0.47285179641E+01 0.  0.
         13    1    3    3    0    0  0.48958768690E+01  0.13755556765E+02 -0.25726337859E+03  0.25767737758E+03  0.00000000000E+00 0.  1.
          1    1    3    3  501    0  0.11552066565E+02  0.24121064487E+02 -0.37999175007E+03  0.38093176045E+03  0.00000000000E+00 0.  1.
         -3    1    1    2    0  502 -0.16447943434E+02 -0.37876621252E+02 -0.36089048153E+03  0.36324525178E+03  0.00000000000E+00 0. -1.
<mgrwt>
<rscale>  1 0.30000000E+03</rscale>
<asrwt>0</asrwt>
<pdfrwt beam="1">  1       21 0.67432499E-02 0.30000000E+03</pdfrwt>
<pdfrwt beam="2">0</pdfrwt>
<totfact> 0.17217878E+04</totfact>
</mgrwt>
</event>
<event>
 6    1  0.1295671E-001  0.3000000E+03  0.7818608E-02  0.1093470E+00
         21   -1    0    0  501  502  0.00000000000E+00  0.00000000000E+00  0.36489052709E+01  0.36489052709E+01  0.00000000000E+00 0. -1.
         13   -1    0    0    0    0 -0.00000000000E+00 -0.00000000000E+00 -0.10000000000E+04  0.10000000000E+04  0.00000000000E+00 0.  1.
    9000005    2    1    2  501    0 -0.29119599594E+02  0.33468171613E+02 -0.83777070424E+03  0.83898011697E+03  0.77339642343E+01 0.  0.
         13    1    3    3    0    0 -0.27048105888E+02  0.29156643538E+02 -0.70250503764E+03  0.70362990116E+03  0.00000000000E+00 0.  1.
          3    1    3    3  501    0 -0.20714937055E+01  0.43115280751E+01 -0.13526566660E+03  0.13535021582E+03  0.00000000000E+00 0.  1.
         -3    1    1    2    0  502  0.29119599594E+02 -0.33468171613E+02 -0.15858039049E+03  0.16466878830E+03  0.00000000000E+00 0. -1.
<mgrwt>
<rscale>  1 0.30000000E+03</rscale>
<asrwt>0</asrwt>
<pdfrwt beam="1">  1       21 0.13268774E-01 0.30000000E+03</pdfrwt>
<pdfrwt beam="2">0</pdfrwt>
<totfact> 0.51598975E+03</totfact>
</mgrwt>
</event>
<event>
 6    1  0.1295671E-001  0.3000000E+03  0.7818608E-02  0.1093470E+00
         21   -1    0    0  501  502  0.00000000000E+00  0.00000000000E+00  0.14595061852E+01  0.14595061852E+01  0.00000000000E+00 0. -1.
         13   -1    0    0    0    0 -0.00000000000E+00 -0.00000000000E+00 -0.10000000000E+04  0.10000000000E+04  0.00000000000E+00 0.  1.
    9000005    2    1    2  501    0 -0.35475291686E+02 -0.13762339937E+02 -0.54087830970E+03  0.54221820459E+03  0.18267910896E+01 0.  0.
         13    1    3    3    0    0 -0.58834784121E+01 -0.17154249528E+01 -0.93095848814E+02  0.93297347591E+02  0.00000000000E+00 0.  1.
          1    1    3    3  501    0 -0.29591813274E+02 -0.12046914984E+02 -0.44778246088E+03  0.44892085700E+03  0.00000000000E+00 0.  1.
         -1    1    1    2    0  502  0.35475291686E+02  0.13762339937E+02 -0.45766218412E+03  0.45924130160E+03  0.00000000000E+00 0. -1.
<mgrwt>
<rscale>  1 0.30000000E+03</rscale>
<asrwt>0</asrwt>
<pdfrwt beam="1">  1       21 0.53073064E-02 0.30000000E+03</pdfrwt>
<pdfrwt beam="2">0</pdfrwt>
<totfact> 0.26015492E+04</totfact>
</mgrwt>
</event>
<event>
 6    1  0.1295671E-001  0.3000000E+03  0.7818608E-02  0.1093470E+00
         21   -1    0    0  501  502  0.00000000000E+00  0.00000000000E+00  0.15960154768E+01  0.15960154768E+01  0.00000000000E+00 0. -1.
         13   -1    0    0    0    0 -0.00000000000E+00 -0.00000000000E+00 -0.10000000000E+04  0.10000000000E+04  0.00000000000E+00 0.  1.
    9000005    2    1    2  501    0 -0.29548732971E+02 -0.18161068942E+02 -0.74699422211E+03  0.74780511595E+03  0.30284537251E+01 0.  0.
         13    1    3    3    0    0 -0.29137969293E+02 -0.17430658102E+02 -0.73279274915E+03  0.73357894074E+03  0.00000000000E+00 0.  1.
          1    1    3    3  501    0 -0.41076367746E+00 -0.73041083955E+00 -0.14201472964E+02  0.14226175211E+02  0.00000000000E+00 0.  1.
         -3    1    1    2    0  502  0.29548732971E+02  0.18161068942E+02 -0.25140976241E+03  0.25379089953E+03  0.00000000000E+00 0. -1.
<mgrwt>
<rscale>  1 0.30000000E+03</rscale>
<asrwt>0</asrwt>
<pdfrwt beam="1">  1       21 0.58037049E-02 0.30000000E+03</pdfrwt>
<pdfrwt beam="2">0</pdfrwt>
<totfact> 0.22315018E+04</totfact>
</mgrwt>
</event>
<event>
 6    1  0.1295671E-001  0.3000000E+03  0.7818608E-02  0.1093470E+00
         21   -1    0    0  501  502  0.00000000000E+00  0.00000000000E+00  0.10939016070E+01  0.10939016070E+01  0.00000000000E+00 0. -1.
         13   -1    0    0    0    0 -0.00000000000E+00 -0.00000000000E+00 -0.10000000000E+04  0.10000000000E+04  0.00000000000E+00 0.  1.
    9000005    2    1    2  501    0 -0.25630145021E+02 -0.20739674878E+02 -0.46919414733E+03  0.47035687676E+03  0.23249034184E+01 0.  0.
         13    1    3    3    0    0 -0.60351301400E+01 -0.38443620927E+01 -0.94529711691E+02  0.94800149304E+02  0.00000000000E+00 0.  1.
          3    1    3    3  501    0 -0.19595014881E+02 -0.16895312785E+02 -0.37466443564E+03  0.37555672745E+03  0.00000000000E+00 0.  1.
         -1    1    1    2    0  502  0.25630145021E+02  0.20739674878E+02 -0.52971195106E+03  0.53073702485E+03  0.00000000000E+00 0. -1.
<mgrwt>
<rscale>  1 0.30000000E+03</rscale>
<asrwt>0</asrwt>
<pdfrwt beam="1">  1       21 0.39778324E-02 0.30000000E+03</pdfrwt>
<pdfrwt beam="2">0</pdfrwt>
<totfact> 0.42442623E+04</totfact>
</mgrwt>
</event>
<event>
 6    1  0.1295671E-001  0.3000000E+03  0.7818608E-02  0.1093470E+00
         21   -1    0    0  501  502  0.00000000000E+00  0.00000000000E+00  0.65296453311E+01  0.65296453311E+01  0.00000000000E+00 0. -1.
         13   -1    0    0    0    0 -0.00000000000E+00 -0.00000000000E+00 -0.10000000000E+04  0.10000000000E+04  0.00000000000E+00 0.  1.
    9000005    2    1    2  501    0 -0.18562747086E+02 -0.71658085058E+02 -0.69823858062E+03  0.70215938209E+03  0.33504724936E+01 0.  0.
         13    1    3    3    0    0 -0.23268668677E+01 -0.57618759923E+01 -0.63037366736E+02  0.63342901176E+02  0.00000000000E+00 0.  1.
          1    1    3    3  501    0 -0.16235880218E+02 -0.65896209066E+02 -0.63520121388E+03  0.63881648092E+03  0.00000000000E+00 0.  1.
         -3    1    1    2    0  502  0.18562747086E+02  0.71658085058E+02 -0.29523177405E+03  0.30437026324E+03  0.00000000000E+00 0. -1.
<mgrwt>
<rscale>  1 0.30000000E+03</rscale>
<asrwt>0</asrwt>
<pdfrwt beam="1">  1       21 0.23744215E-01 0.30000000E+03</pdfrwt>
<pdfrwt beam="2">0</pdfrwt>
<totfact> 0.17244578E+03</totfact>
</mgrwt>
</event>
<event>
 6    1  0.1295671E-001  0.3000000E+03  0.7818608E-02  0.1093470E+00
         21   -1    0    0  501  502  0.00000000000E+00  0.00000000000E+00  0.37131027958E+01  0.37131027958E+01  0.00000000000E+00 0. -1.
         13   -1    0    0    0    0 -0.00000000000E+00 -0.00000000000E+00 -0.10000000000E+04  0.10000000000E+04  0.00000000000E+00 0.  1.
    9000005    2    1    2  501    0  0.33400031369E+02 -0.11541297609E+02 -0.90687521937E+03  0.90757147924E+03  0.38161216694E+01 0.  0.
         13    1    3    3    0    0  0.11779120382E+02 -0.30973154951E+01 -0.35321813248E+03  0.35342805513E+03  0.00000000000E+00 0.  1.
          1    1    3    3  501    0  0.21620910988E+02 -0.84439821141E+01 -0.55365708689E+03  0.55414342411E+03  0.00000000000E+00 0.  1.
         -3    1    1    2    0  502 -0.33400031369E+02  0.11541297609E+02 -0.89411677836E+02  0.96141623553E+02  0.00000000000E+00 0. -1.
<mgrwt>
<rscale>  1 0.30000000E+03</rscale>
<asrwt>0</asrwt>
<pdfrwt beam="1">  1       21 0.13502220E-01 0.30000000E+03</pdfrwt>
<pdfrwt beam="2">0</pdfrwt>
<totfact> 0.49977957E+03</totfact>
</mgrwt>
</event>
<event>
 6    1  0.1295671E-001  0.3000000E+03  0.7818608E-02  0.1093470E+00
         21   -1    0    0  501  502  0.00000000000E+00  0.00000000000E+00  0.26237929346E+01  0.26237929346E+01  0.00000000000E+00 0. -1.
         13   -1    0    0    0    0 -0.00000000000E+00 -0.00000000000E+00 -0.10000000000E+04  0.10000000000E+04  0.00000000000E+00 0.  1.
    9000005    2    1    2  501    0  0.68983800165E+01 -0.50435388214E+02 -0.46037273970E+03  0.46321296620E+03  0.56459339318E+01 0.  0.
         13    1    3    3    0    0  0.41503626185E+01 -0.44299922131E+02 -0.40058379281E+03  0.40304724744E+03  0.00000000000E+00 0.  1.
          3    1    3    3  501    0  0.27480173980E+01 -0.61354660830E+01 -0.59788946891E+02  0.60165718760E+02  0.00000000000E+00 0.  1.
         -3    1    1    2    0  502 -0.68983800165E+01  0.50435388214E+02 -0.53700346737E+03  0.53941082673E+03  0.00000000000E+00 0. -1.
<mgrwt>
<rscale>  1 0.30000000E+03</rscale>
<asrwt>0</asrwt>
<pdfrwt beam="1">  1       21 0.95410853E-02 0.30000000E+03</pdfrwt>
<pdfrwt beam="2">0</pdfrwt>
<totfact> 0.93555100E+03</totfact>
</mgrwt>
</event>
<event>
 6    1  0.1295671E-001  0.3000000E+03  0.7818608E-02  0.1093470E+00
         21   -1    0    0  501  502  0.00000000000E+00  0.00000000000E+00  0.14889809917E+02  0.14889809917E+02  0.00000000000E+00 0. -1.
         13   -1    0    0    0    0 -0.00000000000E+00 -0.00000000000E+00 -0.10000000000E+04  0.10000000000E+04  0.00000000000E+00 0.  1.
    9000005    2    1    2  501    0  0.60419437606E+02 -0.56079328364E+02 -0.86662818005E+03  0.87055205945E+03  0.45919748321E+01 0.  0.
         13    1    3    3    0    0  0.23568647319E+01 -0.35428947442E+01 -0.46581013119E+02  0.46774968709E+02  0.00000000000E+00 0.  1.
          3    1    3    3  501    0  0.58062572874E+02 -0.52536433619E+02 -0.82004716694E+03  0.82377709074E+03  0.00000000000E+00 0.  1.
         -1    1    1    2    0  502 -0.60419437606E+02  0.56079328364E+02 -0.11848201003E+03  0.14433775047E+03  0.00000000000E+00 0. -1.
<mgrwt>
<rscale>  1 0.30000000E+03</rscale>
<asrwt>0</asrwt>
<pdfrwt beam="1">  1       21 0.54144878E-01 0.30000000E+03</pdfrwt>
<pdfrwt beam="2">0</pdfrwt>
<totfact> 0.31564107E+02</totfact>
</mgrwt>
</event>
<event>
 6    1  0.1295671E-001  0.3000000E+03  0.7818608E-02  0.1093470E+00
         21   -1    0    0  501  502  0.00000000000E+00  0.00000000000E+00  0.87007279300E+01  0.87007279300E+01  0.00000000000E+00 0. -1.
         13   -1    0    0    0    0 -0.00000000000E+00 -0.00000000000E+00 -0.10000000000E+04  0.10000000000E+04  0.00000000000E+00 0.  1.
    9000005    2    1    2  501    0 -0.26594918230E+02  0.37766404823E+02 -0.93379110042E+03  0.93493907926E+03  0.34163842780E+01 0.  0.
         13    1    3    3    0    0 -0.12091842679E+02  0.20101228833E+02 -0.47835468179E+03  0.47892950802E+03  0.00000000000E+00 0.  1.
          3    1    3    3  501    0 -0.14503075551E+02  0.17665175991E+02 -0.45543641863E+03  0.45600957124E+03  0.00000000000E+00 0.  1.
         -1    1    1    2    0  502  0.26594918230E+02 -0.37766404823E+02 -0.57508171646E+02  0.73761648674E+02  0.00000000000E+00 0. -1.
<mgrwt>
<rscale>  1 0.30000000E+03</rscale>
<asrwt>0</asrwt>
<pdfrwt beam="1">  1       21 0.31639077E-01 0.30000000E+03</pdfrwt>
<pdfrwt beam="2">0</pdfrwt>
<totfact> 0.97709398E+02</totfact>
</mgrwt>
</event>
<event>
 6    1  0.1295671E-001  0.3000000E+03  0.7818608E-02  0.1093470E+00
         21   -1    0    0  501  502  0.00000000000E+00  0.00000000000E+00  0.38640890965E+01  0.38640890965E+01  0.00000000000E+00 0. -1.
         13   -1    0    0    0    0 -0.00000000000E+00 -0.00000000000E+00 -0.10000000000E+04  0.10000000000E+04  0.00000000000E+00 0.  1.
    9000005    2    1    2  501    0  0.24101628031E+02 -0.27807962878E+02 -0.90204173278E+03  0.90283000757E+03  0.82803151321E+01 0.  0.
         13    1    3    3    0    0 -0.28128855294E+00 -0.11748144977E+01 -0.63087873621E+02  0.63099438273E+02  0.00000000000E+00 0.  1.
          1    1    3    3  501    0  0.24382916584E+02 -0.26633148380E+02 -0.83895385916E+03  0.83973056930E+03  0.00000000000E+00 0.  1.
         -3    1    1    2    0  502 -0.24101628031E+02  0.27807962878E+02 -0.94094178123E+02  0.10103408153E+03  0.00000000000E+00 0. -1.
<mgrwt>
<rscale>  1 0.30000000E+03</rscale>
<asrwt>0</asrwt>
<pdfrwt beam="1">  1       21 0.14051263E-01 0.30000000E+03</pdfrwt>
<pdfrwt beam="2">0</pdfrwt>
<totfact> 0.46453712E+03</totfact>
</mgrwt>
</event>
<event>
 6    1  0.1295671E-001  0.3000000E+03  0.7818608E-02  0.1093470E+00
         21   -1    0    0  501  502  0.00000000000E+00  0.00000000000E+00  0.14010328242E+01  0.14010328242E+01  0.00000000000E+00 0. -1.
         13   -1    0    0    0    0 -0.00000000000E+00 -0.00000000000E+00 -0.10000000000E+04  0.10000000000E+04  0.00000000000E+00 0.  1.
    9000005    2    1    2  501    0  0.28654207049E+02  0.22012791404E+02 -0.62688015796E+03  0.62793015084E+03  0.34518574958E+01 0.  0.
         13    1    3    3    0    0  0.22900179275E+02  0.15989758122E+02 -0.49461108990E+03  0.49539905211E+03  0.00000000000E+00 0.  1.
          3    1    3    3  501    0  0.57540277744E+01  0.60230332820E+01 -0.13226906806E+03  0.13253109873E+03  0.00000000000E+00 0.  1.
         -3    1    1    2    0  502 -0.28654207049E+02 -0.22012791404E+02 -0.37171880921E+03  0.37347088199E+03  0.00000000000E+00 0. -1.
<mgrwt>
<rscale>  1 0.30000000E+03</rscale>
<asrwt>0</asrwt>
<pdfrwt beam="1">  1       21 0.50946756E-02 0.30000000E+03</pdfrwt>
<pdfrwt beam="2">0</pdfrwt>
<totfact> 0.27897706E+04</totfact>
</mgrwt>
</event>
<event>
 6    1  0.1295671E-001  0.3000000E+03  0.7818608E-02  0.1093470E+00
         21   -1    0    0  501  502  0.00000000000E+00  0.00000000000E+00  0.20517081845E+01  0.20517081845E+01  0.00000000000E+00 0. -1.
         13   -1    0    0    0    0 -0.00000000000E+00 -0.00000000000E+00 -0.10000000000E+04  0.10000000000E+04  0.00000000000E+00 0.  1.
    9000005    2    1    2  501    0 -0.21694961824E+02  0.37732818613E+02 -0.63551373415E+03  0.63701301769E+03  0.36662572200E+01 0.  0.
         13    1    3    3    0    0 -0.44505646197E+01  0.50893190491E+01 -0.97985679064E+02  0.98218643829E+02  0.00000000000E+00 0.  1.
          1    1    3    3  501    0 -0.17244397204E+02  0.32643499563E+02 -0.53752805508E+03  0.53879437386E+03  0.00000000000E+00 0.  1.
         -3    1    1    2    0  502  0.21694961824E+02 -0.37732818613E+02 -0.36243455767E+03  0.36503869050E+03  0.00000000000E+00 0. -1.
<mgrwt>
<rscale>  1 0.30000000E+03</rscale>
<asrwt>0</asrwt>
<pdfrwt beam="1">  1       21 0.74607728E-02 0.30000000E+03</pdfrwt>
<pdfrwt beam="2">0</pdfrwt>
<totfact> 0.14436391E+04</totfact>
</mgrwt>
</event>
<event>
 6    1  0.1295671E-001  0.3000000E+03  0.7818608E-02  0.1093470E+00
         21   -1    0    0  501  502  0.00000000000E+00  0.00000000000E+00  0.13765359911E+01  0.13765359911E+01  0.00000000000E+00 0. -1.
         13   -1    0    0    0    0 -0.00000000000E+00 -0.00000000000E+00 -0.10000000000E+04  0.10000000000E+04  0.00000000000E+00 0.  1.
    9000005    2    1    2  501    0  0.17169468414E+02  0.28498289618E+02 -0.71947409323E+03  0.72025144930E+03  0.34980342161E+01 0.  0.
         13    1    3    3    0    0  0.13136197189E+02  0.18740258924E+02 -0.50030904275E+03  0.50083220267E+03  0.00000000000E+00 0.  1.
          3    1    3    3  501    0  0.40332712242E+01  0.97580306935E+01 -0.21916505048E+03  0.21941924663E+03  0.00000000000E+00 0.  1.
         -1    1    1    2    0  502 -0.17169468414E+02 -0.28498289618E+02 -0.27914937078E+03  0.28112508669E+03  0.00000000000E+00 0. -1.
<mgrwt>
<rscale>  1 0.30000000E+03</rscale>
<asrwt>0</asrwt>
<pdfrwt beam="1">  1       21 0.50055960E-02 0.30000000E+03</pdfrwt>
<pdfrwt beam="2">0</pdfrwt>
<totfact> 0.28749780E+04</totfact>
</mgrwt>
</event>
<event>
 6    1  0.1295671E-001  0.3000000E+03  0.7818608E-02  0.1093470E+00
         21   -1    0    0  501  502  0.00000000000E+00  0.00000000000E+00  0.39460063708E+01  0.39460063708E+01  0.00000000000E+00 0. -1.
         13   -1    0    0    0    0 -0.00000000000E+00 -0.00000000000E+00 -0.10000000000E+04  0.10000000000E+04  0.00000000000E+00 0.  1.
    9000005    2    1    2  501    0 -0.42586137813E+02  0.35290642479E+02 -0.26148587078E+03  0.26729864454E+03  0.38335593118E+01 0.  0.
         13    1    3    3    0    0 -0.28232381802E+02  0.22330129790E+02 -0.16207194764E+03  0.16602113809E+03  0.00000000000E+00 0.  1.
          3    1    3    3  501    0 -0.14353756011E+02  0.12960512689E+02 -0.99413923134E+02  0.10127750645E+03  0.00000000000E+00 0.  1.
         -1    1    1    2    0  502  0.42586137813E+02 -0.35290642479E+02 -0.73456812285E+03  0.73664736183E+03  0.00000000000E+00 0. -1.
<mgrwt>
<rscale>  1 0.30000000E+03</rscale>
<asrwt>0</asrwt>
<pdfrwt beam="1">  1       21 0.14349144E-01 0.30000000E+03</pdfrwt>
<pdfrwt beam="2">0</pdfrwt>
<totfact> 0.44694912E+03</totfact>
</mgrwt>
</event>
<event>
 6    1  0.1295671E-001  0.3000000E+03  0.7818608E-02  0.1093470E+00
         21   -1    0    0  501  502  0.00000000000E+00  0.00000000000E+00  0.26644476105E+01  0.26644476105E+01  0.00000000000E+00 0. -1.
         13   -1    0    0    0    0 -0.00000000000E+00 -0.00000000000E+00 -0.10000000000E+04  0.10000000000E+04  0.00000000000E+00 0.  1.
    9000005    2    1    2  501    0  0.22826633165E+02 -0.28287969415E+02 -0.85438570183E+03  0.85516555212E+03  0.34539325204E+01 0.  0.
         13    1    3    3    0    0  0.18581222062E+02 -0.24473381401E+02 -0.73959044984E+03  0.74022850641E+03  0.00000000000E+00 0.  1.
          1    1    3    3  501    0  0.42454111034E+01 -0.38145880141E+01 -0.11479525199E+03  0.11493704571E+03  0.00000000000E+00 0.  1.
         -3    1    1    2    0  502 -0.22826633165E+02  0.28287969415E+02 -0.14294985056E+03  0.14749889549E+03  0.00000000000E+00 0. -1.
<mgrwt>
<rscale>  1 0.30000000E+03</rscale>
<asrwt>0</asrwt>
<pdfrwt beam="1">  1       21 0.96889208E-02 0.30000000E+03</pdfrwt>
<pdfrwt beam="2">0</pdfrwt>
<totfact> 0.91025149E+03</totfact>
</mgrwt>
</event>
<event>
 6    1  0.1295671E-001  0.3000000E+03  0.7818608E-02  0.1093470E+00
         21   -1    0    0  501  502  0.00000000000E+00  0.00000000000E+00  0.14875110287E+01  0.14875110287E+01  0.00000000000E+00 0. -1.
         13   -1    0    0    0    0 -0.00000000000E+00 -0.00000000000E+00 -0.10000000000E+04  0.10000000000E+04  0.00000000000E+00 0.  1.
    9000005    2    1    2  501    0 -0.26367250395E+02  0.27995302948E+02 -0.47883034089E+03  0.48038435050E+03  0.34146692556E+01 0.  0.
         13    1    3    3    0    0 -0.12389511730E+02  0.10804793868E+02 -0.21026237179E+03  0.21090402690E+03  0.00000000000E+00 0.  1.
          3    1    3    3  501    0 -0.13977738665E+02  0.17190509080E+02 -0.26856796910E+03  0.26948032360E+03  0.00000000000E+00 0.  1.
         -3    1    1    2    0  502  0.26367250395E+02 -0.27995302948E+02 -0.51968214808E+03  0.52110316053E+03  0.00000000000E+00 0. -1.
<mgrwt>
<rscale>  1 0.30000000E+03</rscale>
<asrwt>0</asrwt>
<pdfrwt beam="1">  1       21 0.54091424E-02 0.30000000E+03</pdfrwt>
<pdfrwt beam="2">0</pdfrwt>
<totfact> 0.25182832E+04</totfact>
</mgrwt>
</event>
<event>
 6    1  0.1295671E-001  0.3000000E+03  0.7818608E-02  0.1093470E+00
         21   -1    0    0  501  502  0.00000000000E+00  0.00000000000E+00  0.14418292310E+01  0.14418292310E+01  0.00000000000E+00 0. -1.
         13   -1    0    0    0    0 -0.00000000000E+00 -0.00000000000E+00 -0.10000000000E+04  0.10000000000E+04  0.00000000000E+00 0.  1.
    9000005    2    1    2  501    0  0.33958233641E+02 -0.11325751226E+02 -0.66536551469E+03  0.66633172742E+03  0.22953324362E+01 0.  0.
         13    1    3    3    0    0  0.18449419284E+02 -0.51407324109E+01 -0.36701992727E+03  0.36751929911E+03  0.00000000000E+00 0.  1.
          1    1    3    3  501    0  0.15508814356E+02 -0.61850188153E+01 -0.29834558742E+03  0.29881242831E+03  0.00000000000E+00 0.  1.
         -3    1    1    2    0  502 -0.33958233641E+02  0.11325751226E+02 -0.33319265608E+03  0.33511010181E+03  0.00000000000E+00 0. -1.
<mgrwt>
<rscale>  1 0.30000000E+03</rscale>
<asrwt>0</asrwt>
<pdfrwt beam="1">  1       21 0.52430264E-02 0.30000000E+03</pdfrwt>
<pdfrwt beam="2">0</pdfrwt>
<totfact> 0.26563212E+04</totfact>
</mgrwt>
</event>
<event>
 6    1  0.1295671E-001  0.3000000E+03  0.7818608E-02  0.1093470E+00
         21   -1    0    0  501  502  0.00000000000E+00  0.00000000000E+00  0.17154154178E+01  0.17154154178E+01  0.00000000000E+00 0. -1.
         13   -1    0    0    0    0 -0.00000000000E+00 -0.00000000000E+00 -0.10000000000E+04  0.10000000000E+04  0.00000000000E+00 0.  1.
    9000005    2    1    2  501    0  0.35437213580E+02  0.20988811914E+02 -0.45973225331E+03  0.46159048556E+03  0.39629909030E+01 0.  0.
         13    1    3    3    0    0  0.32447857023E+02  0.20028381001E+02 -0.41497338424E+03  0.41672162063E+03  0.00000000000E+00 0.  1.
          3    1    3    3  501    0  0.29893565568E+01  0.96043091322E+00 -0.44758869064E+02  0.44868864929E+02  0.00000000000E+00 0.  1.
         -3    1    1    2    0  502 -0.35437213580E+02 -0.20988811914E+02 -0.53855233127E+03  0.54012492986E+03  0.00000000000E+00 0. -1.
<mgrwt>
<rscale>  1 0.30000000E+03</rscale>
<asrwt>0</asrwt>
<pdfrwt beam="1">  1       21 0.62378874E-02 0.30000000E+03</pdfrwt>
<pdfrwt beam="2">0</pdfrwt>
<totfact> 0.19703894E+04</totfact>
</mgrwt>
</event>
<event>
 6    1  0.1295671E-001  0.3000000E+03  0.7818608E-02  0.1093470E+00
         21   -1    0    0  501  502  0.00000000000E+00  0.00000000000E+00  0.95475101483E+00  0.95475101483E+00  0.00000000000E+00 0. -1.
         13   -1    0    0    0    0 -0.00000000000E+00 -0.00000000000E+00 -0.10000000000E+04  0.10000000000E+04  0.00000000000E+00 0.  1.
    9000005    2    1    2  501    0  0.16772877330E+02 -0.25188720305E+02 -0.59474012320E+03  0.59551864535E+03  0.32926835746E+01 0.  0.
         13    1    3    3    0    0  0.89526974750E+01 -0.16336967976E+02 -0.36286607222E+03  0.36334396057E+03  0.00000000000E+00 0.  1.
          3    1    3    3  501    0  0.78201798550E+01 -0.88517523283E+01 -0.23187405098E+03  0.23217468478E+03  0.00000000000E+00 0.  1.
         -3    1    1    2    0  502 -0.16772877330E+02  0.25188720305E+02 -0.40430512578E+03  0.40543610567E+03  0.00000000000E+00 0. -1.
<mgrwt>
<rscale>  1 0.30000000E+03</rscale>
<asrwt>0</asrwt>
<pdfrwt beam="1">  1       21 0.34718292E-02 0.30000000E+03</pdfrwt>
<pdfrwt beam="2">0</pdfrwt>
<totfact> 0.53333446E+04</totfact>
</mgrwt>
</event>
<event>
 6    1  0.1295671E-001  0.3000000E+03  0.7818608E-02  0.1093470E+00
         21   -1    0    0  501  502  0.00000000000E+00  0.00000000000E+00  0.11390231131E+01  0.11390231131E+01  0.00000000000E+00 0. -1.
         13   -1    0    0    0    0 -0.00000000000E+00 -0.00000000000E+00 -0.10000000000E+04  0.10000000000E+04  0.00000000000E+00 0.  1.
    9000005    2    1    2  501    0  0.31246092370E+02  0.12538271039E+02 -0.48637674846E+03  0.48755007180E+03  0.30338978883E+01 0.  0.
         13    1    3    3    0    0  0.44061881738E+01  0.19962645830E+01 -0.56110633077E+02  0.56318759847E+02  0.00000000000E+00 0.  1.
          3    1    3    3  501    0  0.26839904196E+02  0.10542006456E+02 -0.43026611539E+03  0.43123131195E+03  0.00000000000E+00 0.  1.
         -1    1    1    2    0  502 -0.31246092370E+02 -0.12538271039E+02 -0.51248422842E+03  0.51358895131E+03  0.00000000000E+00 0. -1.
<mgrwt>
<rscale>  1 0.30000000E+03</rscale>
<asrwt>0</asrwt>
<pdfrwt beam="1">  1       21 0.41419110E-02 0.30000000E+03</pdfrwt>
<pdfrwt beam="2">0</pdfrwt>
<totfact> 0.39647631E+04</totfact>
</mgrwt>
</event>
<event>
 6    1  0.1295671E-001  0.3000000E+03  0.7818608E-02  0.1093470E+00
         21   -1    0    0  501  502  0.00000000000E+00  0.00000000000E+00  0.12533831126E+01  0.12533831126E+01  0.00000000000E+00 0. -1.
         13   -1    0    0    0    0 -0.00000000000E+00 -0.00000000000E+00 -0.10000000000E+04  0.10000000000E+04  0.00000000000E+00 0.  1.
    9000005    2    1    2  501    0  0.66739139028E+01  0.31001508744E+02 -0.71825686810E+03  0.71897668580E+03  0.53769395792E+01 0.  0.
         13    1    3    3    0    0  0.69529866875E+01  0.30881645779E+02 -0.71600987453E+03  0.71670925799E+03  0.00000000000E+00 0.  1.
          3    1    3    3  501    0 -0.27907278466E+00  0.11986296487E+00 -0.22469935729E+01  0.22674278084E+01  0.00000000000E+00 0.  1.
         -1    1    1    2    0  502 -0.66739139028E+01 -0.31001508744E+02 -0.28048974878E+03  0.28227669731E+03  0.00000000000E+00 0. -1.
<mgrwt>
<rscale>  1 0.30000000E+03</rscale>
<asrwt>0</asrwt>
<pdfrwt beam="1">  1       21 0.45577664E-02 0.30000000E+03</pdfrwt>
<pdfrwt beam="2">0</pdfrwt>
<totfact> 0.33720002E+04</totfact>
</mgrwt>
</event>
<event>
 6    1  0.1295671E-001  0.3000000E+03  0.7818608E-02  0.1093470E+00
         21   -1    0    0  501  502  0.00000000000E+00  0.00000000000E+00  0.20931284098E+01  0.20931284098E+01  0.00000000000E+00 0. -1.
         13   -1    0    0    0    0 -0.00000000000E+00 -0.00000000000E+00 -0.10000000000E+04  0.10000000000E+04  0.00000000000E+00 0.  1.
    9000005    2    1    2  501    0  0.17447408721E+02 -0.32720801636E+02 -0.20693270520E+03  0.21025021796E+03  0.29911102663E+01 0.  0.
         13    1    3    3    0    0  0.10907111461E+02 -0.23316065862E+02 -0.14146916598E+03  0.14379196407E+03  0.00000000000E+00 0.  1.
          3    1    3    3  501    0  0.65402972604E+01 -0.94047357735E+01 -0.65463539217E+02  0.66458253890E+02  0.00000000000E+00 0.  1.
         -3    1    1    2    0  502 -0.17447408721E+02  0.32720801636E+02 -0.79097416639E+03  0.79184291045E+03  0.00000000000E+00 0. -1.
<mgrwt>
<rscale>  1 0.30000000E+03</rscale>
<asrwt>0</asrwt>
<pdfrwt beam="1">  1       21 0.76113921E-02 0.30000000E+03</pdfrwt>
<pdfrwt beam="2">0</pdfrwt>
<totfact> 0.13939829E+04</totfact>
</mgrwt>
</event>
<event>
 6    1  0.1295671E-001  0.3000000E+03  0.7818608E-02  0.1093470E+00
         21   -1    0    0  501  502  0.00000000000E+00  0.00000000000E+00  0.28414715859E+01  0.28414715859E+01  0.00000000000E+00 0. -1.
         13   -1    0    0    0    0 -0.00000000000E+00 -0.00000000000E+00 -0.10000000000E+04  0.10000000000E+04  0.00000000000E+00 0.  1.
    9000005    2    1    2  501    0  0.32476107347E+02  0.74947047028E+01 -0.88977980356E+03  0.89040900875E+03  0.30390626513E+01 0.  0.
         13    1    3    3    0    0  0.27305099860E+02  0.72374288078E+01 -0.76743831554E+03  0.76795801774E+03  0.00000000000E+00 0.  1.
          1    1    3    3  501    0  0.51710074864E+01  0.25727589506E+00 -0.12234148801E+03  0.12245099101E+03  0.00000000000E+00 0.  1.
         -3    1    1    2    0  502 -0.32476107347E+02 -0.74947047028E+01 -0.10737872486E+03  0.11243246283E+03  0.00000000000E+00 0. -1.
<mgrwt>
<rscale>  1 0.30000000E+03</rscale>
<asrwt>0</asrwt>
<pdfrwt beam="1">  1       21 0.10332646E-01 0.30000000E+03</pdfrwt>
<pdfrwt beam="2">0</pdfrwt>
<totfact> 0.81141003E+03</totfact>
</mgrwt>
</event>
<event>
 6    1  0.1295671E-001  0.3000000E+03  0.7818608E-02  0.1093470E+00
         21   -1    0    0  501  502  0.00000000000E+00  0.00000000000E+00  0.24997145515E+01  0.24997145515E+01  0.00000000000E+00 0. -1.
         13   -1    0    0    0    0 -0.00000000000E+00 -0.00000000000E+00 -0.10000000000E+04  0.10000000000E+04  0.00000000000E+00 0.  1.
    9000005    2    1    2  501    0 -0.90524474799E+01  0.32271072395E+02 -0.14025160392E+03  0.14459606559E+03  0.10683672735E+02 0.  0.
         13    1    3    3    0    0 -0.91926354299E+01  0.24132087439E+02 -0.12043984668E+03  0.12317718481E+03  0.00000000000E+00 0.  1.
          3    1    3    3  501    0  0.14018795000E+00  0.81389849560E+01 -0.19811757237E+02  0.21418880774E+02  0.00000000000E+00 0.  1.
         -3    1    1    2    0  502  0.90524474799E+01 -0.32271072395E+02 -0.85724868153E+03  0.85790364897E+03  0.00000000000E+00 0. -1.
<mgrwt>
<rscale>  1 0.30000000E+03</rscale>
<asrwt>0</asrwt>
<pdfrwt beam="1">  1       21 0.90898903E-02 0.30000000E+03</pdfrwt>
<pdfrwt beam="2">0</pdfrwt>
<totfact> 0.10196877E+04</totfact>
</mgrwt>
</event>
<event>
 6    1  0.1295671E-001  0.3000000E+03  0.7818608E-02  0.1093470E+00
         21   -1    0    0  501  502  0.00000000000E+00  0.00000000000E+00  0.20608799946E+01  0.20608799946E+01  0.00000000000E+00 0. -1.
         13   -1    0    0    0    0 -0.00000000000E+00 -0.00000000000E+00 -0.10000000000E+04  0.10000000000E+04  0.00000000000E+00 0.  1.
    9000005    2    1    2  501    0  0.13066937342E+02 -0.29309514954E+02 -0.85316220850E+03  0.85377012969E+03  0.28085288568E+01 0.  0.
         13    1    3    3    0    0  0.11974895688E+01 -0.25576438494E+01 -0.98951315908E+02  0.98991607944E+02  0.00000000000E+00 0.  1.
          3    1    3    3  501    0  0.11869447774E+02 -0.26751871105E+02 -0.75421089259E+03  0.75477852175E+03  0.00000000000E+00 0.  1.
         -3    1    1    2    0  502 -0.13066937342E+02  0.29309514954E+02 -0.14477691151E+03  0.14829075030E+03  0.00000000000E+00 0. -1.
<mgrwt>
<rscale>  1 0.30000000E+03</rscale>
<asrwt>0</asrwt>
<pdfrwt beam="1">  1       21 0.74941249E-02 0.30000000E+03</pdfrwt>
<pdfrwt beam="2">0</pdfrwt>
<totfact> 0.14324103E+04</totfact>
</mgrwt>
</event>
<event>
 6    1  0.1295671E-001  0.3000000E+03  0.7818608E-02  0.1093470E+00
         21   -1    0    0  501  502  0.00000000000E+00  0.00000000000E+00  0.34974973191E+01  0.34974973191E+01  0.00000000000E+00 0. -1.
         13   -1    0    0    0    0 -0.00000000000E+00 -0.00000000000E+00 -0.10000000000E+04  0.10000000000E+04  0.00000000000E+00 0.  1.
    9000005    2    1    2  501    0 -0.30847188791E+02 -0.23491264017E+02 -0.87700460711E+03  0.87786654736E+03  0.30340637176E+01 0.  0.
         13    1    3    3    0    0 -0.16227427535E+02 -0.10527806644E+02 -0.42666914305E+03  0.42710738901E+03  0.00000000000E+00 0.  1.
          1    1    3    3  501    0 -0.14619761256E+02 -0.12963457373E+02 -0.45033546405E+03  0.45075915834E+03  0.00000000000E+00 0.  1.
         -3    1    1    2    0  502  0.30847188791E+02  0.23491264017E+02 -0.11949789558E+03  0.12563094996E+03  0.00000000000E+00 0. -1.
<mgrwt>
<rscale>  1 0.30000000E+03</rscale>
<asrwt>0</asrwt>
<pdfrwt beam="1">  1       21 0.12718199E-01 0.30000000E+03</pdfrwt>
<pdfrwt beam="2">0</pdfrwt>
<totfact> 0.55750730E+03</totfact>
</mgrwt>
</event>
<event>
 6    1  0.1295671E-001  0.3000000E+03  0.7818608E-02  0.1093470E+00
         21   -1    0    0  501  502  0.00000000000E+00  0.00000000000E+00  0.10084434576E+01  0.10084434576E+01  0.00000000000E+00 0. -1.
         13   -1    0    0    0    0 -0.00000000000E+00 -0.00000000000E+00 -0.10000000000E+04  0.10000000000E+04  0.00000000000E+00 0.  1.
    9000005    2    1    2  501    0 -0.26182557511E+02  0.17694231998E+02 -0.53098325244E+03  0.53193447822E+03  0.35302370500E+01 0.  0.
         13    1    3    3    0    0 -0.17691024728E+02  0.11117276190E+02 -0.37528645574E+03  0.37586764964E+03  0.00000000000E+00 0.  1.
          1    1    3    3  501    0 -0.84915327822E+01  0.65769558074E+01 -0.15569679670E+03  0.15606682857E+03  0.00000000000E+00 0.  1.
         -1    1    1    2    0  502  0.26182557511E+02 -0.17694231998E+02 -0.46800830410E+03  0.46907396524E+03  0.00000000000E+00 0. -1.
<mgrwt>
<rscale>  1 0.30000000E+03</rscale>
<asrwt>0</asrwt>
<pdfrwt beam="1">  1       21 0.36670749E-02 0.30000000E+03</pdfrwt>
<pdfrwt beam="2">0</pdfrwt>
<totfact> 0.48659920E+04</totfact>
</mgrwt>
</event>
<event>
 6    1  0.1295671E-001  0.3000000E+03  0.7818608E-02  0.1093470E+00
         21   -1    0    0  501  502  0.00000000000E+00  0.00000000000E+00  0.16220142072E+01  0.16220142072E+01  0.00000000000E+00 0. -1.
         13   -1    0    0    0    0 -0.00000000000E+00 -0.00000000000E+00 -0.10000000000E+04  0.10000000000E+04  0.00000000000E+00 0.  1.
    9000005    2    1    2  501    0 -0.32530580418E+02 -0.16190299627E+02 -0.71400651551E+03  0.71493839491E+03  0.33525895677E+01 0.  0.
         13    1    3    3    0    0 -0.29801293705E+02 -0.14590603171E+02 -0.66767848019E+03  0.66850247249E+03  0.00000000000E+00 0.  1.
          3    1    3    3  501    0 -0.27292867135E+01 -0.15996964557E+01 -0.46328035319E+02  0.46435922423E+02  0.00000000000E+00 0.  1.
         -3    1    1    2    0  502  0.32530580418E+02  0.16190299627E+02 -0.28437147028E+03  0.28668361930E+03  0.00000000000E+00 0. -1.
<mgrwt>
<rscale>  1 0.30000000E+03</rscale>
<asrwt>0</asrwt>
<pdfrwt beam="1">  1       21 0.58982459E-02 0.30000000E+03</pdfrwt>
<pdfrwt beam="2">0</pdfrwt>
<totfact> 0.21702309E+04</totfact>
</mgrwt>
</event>
<event>
 6    1  0.1295671E-001  0.3000000E+03  0.7818608E-02  0.1093470E+00
         21   -1    0    0  501  502  0.00000000000E+00  0.00000000000E+00  0.28112150044E+01  0.28112150044E+01  0.00000000000E+00 0. -1.
         13   -1    0    0    0    0 -0.00000000000E+00 -0.00000000000E+00 -0.10000000000E+04  0.10000000000E+04  0.00000000000E+00 0.  1.
    9000005    2    1    2  501    0  0.27607197653E+02  0.40163774711E+02 -0.69539824784E+03  0.69711068430E+03  0.30490807756E+01 0.  0.
         13    1    3    3    0    0  0.27349146610E+02  0.39110756814E+02 -0.67642675728E+03  0.67810823994E+03  0.00000000000E+00 0.  1.
          1    1    3    3  501    0  0.25805104256E+00  0.10530178976E+01 -0.18971490566E+02  0.19002444351E+02  0.00000000000E+00 0.  1.
         -3    1    1    2    0  502 -0.27607197653E+02 -0.40163774711E+02 -0.30179053715E+03  0.30570053071E+03  0.00000000000E+00 0. -1.
<mgrwt>
<rscale>  1 0.30000000E+03</rscale>
<asrwt>0</asrwt>
<pdfrwt beam="1">  1       21 0.10222622E-01 0.30000000E+03</pdfrwt>
<pdfrwt beam="2">0</pdfrwt>
<totfact> 0.82710784E+03</totfact>
</mgrwt>
</event>
<event>
 6    1  0.1295671E-001  0.3000000E+03  0.7818608E-02  0.1093470E+00
         21   -1    0    0  501  502  0.00000000000E+00  0.00000000000E+00  0.18370473632E+01  0.18370473632E+01  0.00000000000E+00 0. -1.
         13   -1    0    0    0    0 -0.00000000000E+00 -0.00000000000E+00 -0.10000000000E+04  0.10000000000E+04  0.00000000000E+00 0.  1.
    9000005    2    1    2  501    0 -0.31561741108E+02 -0.82370601701E+01 -0.82362273078E+03  0.82427499706E+03  0.32977960721E+01 0.  0.
         13    1    3    3    0    0 -0.16719475918E+02 -0.59132021251E+01 -0.42894185408E+03  0.42930830532E+03  0.00000000000E+00 0.  1.
          1    1    3    3  501    0 -0.14842265190E+02 -0.23238580451E+01 -0.39468087670E+03  0.39496669174E+03  0.00000000000E+00 0.  1.
         -1    1    1    2    0  502  0.31561741108E+02  0.82370601701E+01 -0.17454022186E+03  0.17756205030E+03  0.00000000000E+00 0. -1.
<mgrwt>
<rscale>  1 0.30000000E+03</rscale>
<asrwt>0</asrwt>
<pdfrwt beam="1">  1       21 0.66801863E-02 0.30000000E+03</pdfrwt>
<pdfrwt beam="2">0</pdfrwt>
<totfact> 0.17500853E+04</totfact>
</mgrwt>
</event>
<event>
 6    1  0.1295671E-001  0.3000000E+03  0.7818608E-02  0.1093470E+00
         21   -1    0    0  501  502  0.00000000000E+00  0.00000000000E+00  0.10453928420E+01  0.10453928420E+01  0.00000000000E+00 0. -1.
         13   -1    0    0    0    0 -0.00000000000E+00 -0.00000000000E+00 -0.10000000000E+04  0.10000000000E+04  0.00000000000E+00 0.  1.
    9000005    2    1    2  501    0 -0.21430900008E+02  0.22570196343E+02 -0.60918942060E+03  0.61003951323E+03  0.82316640781E+01 0.  0.
         13    1    3    3    0    0 -0.11502824288E-01 -0.43222498894E+00 -0.25500309808E+01  0.25864277989E+01  0.00000000000E+00 0.  1.
          3    1    3    3  501    0 -0.21419397184E+02  0.23002421332E+02 -0.60663938962E+03  0.60745308543E+03  0.00000000000E+00 0.  1.
         -3    1    1    2    0  502  0.21430900008E+02 -0.22570196343E+02 -0.38976518656E+03  0.39100587961E+03  0.00000000000E+00 0. -1.
<mgrwt>
<rscale>  1 0.30000000E+03</rscale>
<asrwt>0</asrwt>
<pdfrwt beam="1">  1       21 0.38014365E-02 0.30000000E+03</pdfrwt>
<pdfrwt beam="2">0</pdfrwt>
<totfact> 0.45806983E+04</totfact>
</mgrwt>
</event>
<event>
 6    1  0.1295671E-001  0.3000000E+03  0.7818608E-02  0.1093470E+00
         21   -1    0    0  501  502  0.00000000000E+00  0.00000000000E+00  0.24193193078E+01  0.24193193078E+01  0.00000000000E+00 0. -1.
         13   -1    0    0    0    0 -0.00000000000E+00 -0.00000000000E+00 -0.10000000000E+04  0.10000000000E+04  0.00000000000E+00 0.  1.
    9000005    2    1    2  501    0 -0.23457745534E+02  0.28569524984E+02 -0.82913427944E+03  0.82996447397E+03  0.33001724181E+01 0.  0.
         13    1    3    3    0    0 -0.19945662277E+02  0.22349987115E+02 -0.67845832799E+03  0.67911932250E+03  0.00000000000E+00 0.  1.
          1    1    3    3  501    0 -0.35120832568E+01  0.62195378690E+01 -0.15067595144E+03  0.15084515147E+03  0.00000000000E+00 0.  1.
         -3    1    1    2    0  502  0.23457745534E+02 -0.28569524984E+02 -0.16844640126E+03  0.17245484533E+03  0.00000000000E+00 0. -1.
<mgrwt>
<rscale>  1 0.30000000E+03</rscale>
<asrwt>0</asrwt>
<pdfrwt beam="1">  1       21 0.87975433E-02 0.30000000E+03</pdfrwt>
<pdfrwt beam="2">0</pdfrwt>
<totfact> 0.10804525E+04</totfact>
</mgrwt>
</event>
<event>
 6    1  0.1295671E-001  0.3000000E+03  0.7818608E-02  0.1093470E+00
         21   -1    0    0  501  502  0.00000000000E+00  0.00000000000E+00  0.13339424044E+01  0.13339424044E+01  0.00000000000E+00 0. -1.
         13   -1    0    0    0    0 -0.00000000000E+00 -0.00000000000E+00 -0.10000000000E+04  0.10000000000E+04  0.00000000000E+00 0.  1.
    9000005    2    1    2  501    0  0.31558655104E+02  0.15102075318E+02 -0.64024685291E+03  0.64121125820E+03  0.34385448631E+01 0.  0.
         13    1    3    3    0    0  0.12086955085E+02  0.75123643695E+01 -0.24765564392E+03  0.24806420151E+03  0.00000000000E+00 0.  1.
          1    1    3    3  501    0  0.19471700019E+02  0.75897109484E+01 -0.39259120899E+03  0.39314705669E+03  0.00000000000E+00 0.  1.
         -1    1    1    2    0  502 -0.31558655104E+02 -0.15102075318E+02 -0.35841920469E+03  0.36012268421E+03  0.00000000000E+00 0. -1.
<mgrwt>
<rscale>  1 0.30000000E+03</rscale>
<asrwt>0</asrwt>
<pdfrwt beam="1">  1       21 0.48507099E-02 0.30000000E+03</pdfrwt>
<pdfrwt beam="2">0</pdfrwt>
<totfact> 0.30331149E+04</totfact>
</mgrwt>
</event>
<event>
 6    1  0.1295671E-001  0.3000000E+03  0.7818608E-02  0.1093470E+00
         21   -1    0    0  501  502  0.00000000000E+00  0.00000000000E+00  0.18091879734E+01  0.18091879734E+01  0.00000000000E+00 0. -1.
         13   -1    0    0    0    0 -0.00000000000E+00 -0.00000000000E+00 -0.10000000000E+04  0.10000000000E+04  0.00000000000E+00 0.  1.
    9000005    2    1    2  501    0  0.33793756013E+02  0.20913465032E+02 -0.67625627922E+03  0.67743096062E+03  0.32802838643E+01 0.  0.
         13    1    3    3    0    0  0.22356848185E+01  0.52625947779E+00 -0.42513162467E+02  0.42575159642E+02  0.00000000000E+00 0.  1.
          1    1    3    3  501    0  0.31558071194E+02  0.20387205554E+02 -0.63374311675E+03  0.63485580098E+03  0.00000000000E+00 0.  1.
         -1    1    1    2    0  502 -0.33793756013E+02 -0.20913465032E+02 -0.32193453281E+03  0.32437822735E+03  0.00000000000E+00 0. -1.
<mgrwt>
<rscale>  1 0.30000000E+03</rscale>
<asrwt>0</asrwt>
<pdfrwt beam="1">  1       21 0.65788792E-02 0.30000000E+03</pdfrwt>
<pdfrwt beam="2">0</pdfrwt>
<totfact> 0.17970653E+04</totfact>
</mgrwt>
</event>
<event>
 6    1  0.1295671E-001  0.3000000E+03  0.7818608E-02  0.1093470E+00
         21   -1    0    0  501  502  0.00000000000E+00  0.00000000000E+00  0.33938368072E+01  0.33938368072E+01  0.00000000000E+00 0. -1.
         13   -1    0    0    0    0 -0.00000000000E+00 -0.00000000000E+00 -0.10000000000E+04  0.10000000000E+04  0.00000000000E+00 0.  1.
    9000005    2    1    2  501    0  0.46920842302E+02  0.31605289642E+02 -0.61665616737E+03  0.61925524319E+03  0.34304073979E+01 0.  0.
         13    1    3    3    0    0  0.93061581969E+01  0.60108858116E+01 -0.10671966097E+03  0.10729315620E+03  0.00000000000E+00 0.  1.
          3    1    3    3  501    0  0.37614684105E+02  0.25594403831E+02 -0.50993650640E+03  0.51196208700E+03  0.00000000000E+00 0.  1.
         -1    1    1    2    0  502 -0.46920842302E+02 -0.31605289642E+02 -0.37994999582E+03  0.38413859361E+03  0.00000000000E+00 0. -1.
<mgrwt>
<rscale>  1 0.30000000E+03</rscale>
<asrwt>0</asrwt>
<pdfrwt beam="1">  1       21 0.12341251E-01 0.30000000E+03</pdfrwt>
<pdfrwt beam="2">0</pdfrwt>
<totfact> 0.58891553E+03</totfact>
</mgrwt>
</event>
<event>
 6    1  0.1295671E-001  0.3000000E+03  0.7818608E-02  0.1093470E+00
         21   -1    0    0  501  502  0.00000000000E+00  0.00000000000E+00  0.43989998543E+01  0.43989998543E+01  0.00000000000E+00 0. -1.
         13   -1    0    0    0    0 -0.00000000000E+00 -0.00000000000E+00 -0.10000000000E+04  0.10000000000E+04  0.00000000000E+00 0.  1.
    9000005    2    1    2  501    0 -0.52892299357E+02  0.44921366157E+01 -0.79866448915E+03  0.80043389503E+03  0.34175228158E+01 0.  0.
         13    1    3    3    0    0 -0.16720132464E+02  0.19589136916E+01 -0.27629185997E+03  0.27680424862E+03  0.00000000000E+00 0.  1.
          3    1    3    3  501    0 -0.36172166893E+02  0.25332229241E+01 -0.52237262918E+03  0.52362964640E+03  0.00000000000E+00 0.  1.
         -1    1    1    2    0  502  0.52892299357E+02 -0.44921366157E+01 -0.19693651100E+03  0.20396510483E+03  0.00000000000E+00 0. -1.
<mgrwt>
<rscale>  1 0.30000000E+03</rscale>
<asrwt>0</asrwt>
<pdfrwt beam="1">  1       21 0.15996397E-01 0.30000000E+03</pdfrwt>
<pdfrwt beam="2">0</pdfrwt>
<totfact> 0.36541981E+03</totfact>
</mgrwt>
</event>
<event>
 6    1  0.1295671E-001  0.3000000E+03  0.7818608E-02  0.1093470E+00
         21   -1    0    0  501  502  0.00000000000E+00  0.00000000000E+00  0.16635413333E+01  0.16635413333E+01  0.00000000000E+00 0. -1.
         13   -1    0    0    0    0 -0.00000000000E+00 -0.00000000000E+00 -0.10000000000E+04  0.10000000000E+04  0.00000000000E+00 0.  1.
    9000005    2    1    2  501    0 -0.34520991618E+02 -0.15738104236E+02 -0.68133647065E+03  0.68240129930E+03  0.35721502759E+01 0.  0.
         13    1    3    3    0    0 -0.27563951382E+02 -0.14040432679E+02 -0.55981100726E+03  0.56066502389E+03  0.00000000000E+00 0.  1.
          3    1    3    3  501    0 -0.69570402369E+01 -0.16976715569E+01 -0.12152546339E+03  0.12173627541E+03  0.00000000000E+00 0.  1.
         -1    1    1    2    0  502  0.34520991618E+02  0.15738104236E+02 -0.31699998801E+03  0.31926224203E+03  0.00000000000E+00 0. -1.
<mgrwt>
<rscale>  1 0.30000000E+03</rscale>
<asrwt>0</asrwt>
<pdfrwt beam="1">  1       21 0.60492540E-02 0.30000000E+03</pdfrwt>
<pdfrwt beam="2">0</pdfrwt>
<totfact> 0.20776596E+04</totfact>
</mgrwt>
</event>
<event>
 6    1  0.1295671E-001  0.3000000E+03  0.7818608E-02  0.1093470E+00
         21   -1    0    0  501  502  0.00000000000E+00  0.00000000000E+00  0.24765900515E+01  0.24765900515E+01  0.00000000000E+00 0. -1.
         13   -1    0    0    0    0 -0.00000000000E+00 -0.00000000000E+00 -0.10000000000E+04  0.10000000000E+04  0.00000000000E+00 0.  1.
    9000005    2    1    2  501    0  0.33193024175E+02 -0.16087058282E+02 -0.83498213328E+03  0.83580254613E+03  0.31879323670E+01 0.  0.
         13    1    3    3    0    0  0.91344608722E+01 -0.28810249656E+01 -0.21386565626E+03  0.21408002618E+03  0.00000000000E+00 0.  1.
          1    1    3    3  501    0  0.24058563303E+02 -0.13206033316E+02 -0.62111647702E+03  0.62172251995E+03  0.00000000000E+00 0.  1.
         -1    1    1    2    0  502 -0.33193024175E+02  0.16087058282E+02 -0.16254127666E+03  0.16667404392E+03  0.00000000000E+00 0. -1.
<mgrwt>
<rscale>  1 0.30000000E+03</rscale>
<asrwt>0</asrwt>
<pdfrwt beam="1">  1       21 0.90058010E-02 0.30000000E+03</pdfrwt>
<pdfrwt beam="2">0</pdfrwt>
<totfact> 0.10366249E+04</totfact>
</mgrwt>
</event>
<event>
 6    1  0.1295671E-001  0.3000000E+03  0.7818608E-02  0.1093470E+00
         21   -1    0    0  501  502  0.00000000000E+00  0.00000000000E+00  0.20651072049E+01  0.20651072049E+01  0.00000000000E+00 0. -1.
         13   -1    0    0    0    0 -0.00000000000E+00 -0.00000000000E+00 -0.10000000000E+04  0.10000000000E+04  0.00000000000E+00 0.  1.
    9000005    2    1    2  501    0 -0.46879771931E+01 -0.32153013650E+02 -0.84901652479E+03  0.84964308207E+03  0.29178975161E+01 0.  0.
         13    1    3    3    0    0 -0.50153394651E+01 -0.31393840349E+02 -0.82972556282E+03  0.83033441241E+03  0.00000000000E+00 0.  1.
          1    1    3    3  501    0  0.32736227197E+00 -0.75917330072E+00 -0.19290961970E+02  0.19308669656E+02  0.00000000000E+00 0.  1.
         -3    1    1    2    0  502  0.46879771931E+01  0.32153013650E+02 -0.14891836801E+03  0.15242202514E+03  0.00000000000E+00 0. -1.
<mgrwt>
<rscale>  1 0.30000000E+03</rscale>
<asrwt>0</asrwt>
<pdfrwt beam="1">  1       21 0.75094966E-02 0.30000000E+03</pdfrwt>
<pdfrwt beam="2">0</pdfrwt>
<totfact> 0.14272805E+04</totfact>
</mgrwt>
</event>
<event>
 6    1  0.1295671E-001  0.3000000E+03  0.7818608E-02  0.1093470E+00
         21   -1    0    0  501  502  0.00000000000E+00  0.00000000000E+00  0.11809267082E+01  0.11809267082E+01  0.00000000000E+00 0. -1.
         13   -1    0    0    0    0 -0.00000000000E+00 -0.00000000000E+00 -0.10000000000E+04  0.10000000000E+04  0.00000000000E+00 0.  1.
    9000005    2    1    2  501    0  0.23598712227E+02 -0.20408008496E+02 -0.70787152811E+03  0.70856537675E+03  0.30670493869E+01 0.  0.
         13    1    3    3    0    0  0.15992842267E+02 -0.14205133256E+02 -0.51559431476E+03  0.51603784185E+03  0.00000000000E+00 0.  1.
          3    1    3    3  501    0  0.76058699594E+01 -0.62028752393E+01 -0.19227721336E+03  0.19252753490E+03  0.00000000000E+00 0.  1.
         -3    1    1    2    0  502 -0.23598712227E+02  0.20408008496E+02 -0.29094754518E+03  0.29261554996E+03  0.00000000000E+00 0. -1.
<mgrwt>
<rscale>  1 0.30000000E+03</rscale>
<asrwt>0</asrwt>
<pdfrwt beam="1">  1       21 0.42942880E-02 0.30000000E+03</pdfrwt>
<pdfrwt beam="2">0</pdfrwt>
<totfact> 0.37300499E+04</totfact>
</mgrwt>
</event>
<event>
 6    1  0.1295671E-001  0.3000000E+03  0.7818608E-02  0.1093470E+00
         21   -1    0    0  501  502  0.00000000000E+00  0.00000000000E+00  0.17832063865E+01  0.17832063865E+01  0.00000000000E+00 0. -1.
         13   -1    0    0    0    0 -0.00000000000E+00 -0.00000000000E+00 -0.10000000000E+04  0.10000000000E+04  0.00000000000E+00 0.  1.
    9000005    2    1    2  501    0 -0.28506896680E+02  0.25468145296E+02 -0.71090620977E+03  0.71194076441E+03  0.32777056234E+01 0.  0.
         13    1    3    3    0    0 -0.21106831358E+02  0.20414591406E+02 -0.53022866013E+03  0.53104113391E+03  0.00000000000E+00 0.  1.
          3    1    3    3  501    0 -0.74000653214E+01  0.50535538901E+01 -0.18067754964E+03  0.18089963050E+03  0.00000000000E+00 0.  1.
         -1    1    1    2    0  502  0.28506896680E+02 -0.25468145296E+02 -0.28731058384E+03  0.28984244198E+03  0.00000000000E+00 0. -1.
<mgrwt>
<rscale>  1 0.30000000E+03</rscale>
<asrwt>0</asrwt>
<pdfrwt beam="1">  1       21 0.64844005E-02 0.30000000E+03</pdfrwt>
<pdfrwt beam="2">0</pdfrwt>
<totfact> 0.18426538E+04</totfact>
</mgrwt>
</event>
<event>
 6    1  0.1295671E-001  0.3000000E+03  0.7818608E-02  0.1093470E+00
         21   -1    0    0  501  502  0.00000000000E+00  0.00000000000E+00  0.14596082962E+01  0.14596082962E+01  0.00000000000E+00 0. -1.
         13   -1    0    0    0    0 -0.00000000000E+00 -0.00000000000E+00 -0.10000000000E+04  0.10000000000E+04  0.00000000000E+00 0.  1.
    9000005    2    1    2  501    0 -0.34850355487E+02 -0.14713144231E+02 -0.56507467595E+03  0.56634634646E+03  0.27876261007E+01 0.  0.
         13    1    3    3    0    0 -0.31572271169E+02 -0.14163171546E+02 -0.51783689210E+03  0.51899176347E+03  0.00000000000E+00 0.  1.
          3    1    3    3  501    0 -0.32780843184E+01 -0.54997268471E+00 -0.47237783847E+02  0.47354582984E+02  0.00000000000E+00 0.  1.
         -1    1    1    2    0  502  0.34850355487E+02  0.14713144231E+02 -0.43346571576E+03  0.43511326184E+03  0.00000000000E+00 0. -1.
<mgrwt>
<rscale>  1 0.30000000E+03</rscale>
<asrwt>0</asrwt>
<pdfrwt beam="1">  1       21 0.53076777E-02 0.30000000E+03</pdfrwt>
<pdfrwt beam="2">0</pdfrwt>
<totfact> 0.26012379E+04</totfact>
</mgrwt>
</event>
<event>
 6    1  0.1295671E-001  0.3000000E+03  0.7818608E-02  0.1093470E+00
         21   -1    0    0  501  502  0.00000000000E+00  0.00000000000E+00  0.11827696684E+01  0.11827696684E+01  0.00000000000E+00 0. -1.
         13   -1    0    0    0    0 -0.00000000000E+00 -0.00000000000E+00 -0.10000000000E+04  0.10000000000E+04  0.00000000000E+00 0.  1.
    9000005    2    1    2  501    0  0.18602420342E+02 -0.27799202134E+02 -0.61297969172E+03  0.61389805285E+03  0.28055562281E+01 0.  0.
         13    1    3    3    0    0  0.10708455646E+02 -0.16602767354E+02 -0.38609866369E+03  0.38660380366E+03  0.00000000000E+00 0.  1.
          1    1    3    3  501    0  0.78939646966E+01 -0.11196434780E+02 -0.22688102804E+03  0.22729424919E+03  0.00000000000E+00 0.  1.
         -3    1    1    2    0  502 -0.18602420342E+02  0.27799202134E+02 -0.38583753861E+03  0.38728471682E+03  0.00000000000E+00 0. -1.
<mgrwt>
<rscale>  1 0.30000000E+03</rscale>
<asrwt>0</asrwt>
<pdfrwt beam="1">  1       21 0.43009897E-02 0.30000000E+03</pdfrwt>
<pdfrwt beam="2">0</pdfrwt>
<totfact> 0.37202262E+04</totfact>
</mgrwt>
</event>
<event>
 6    1  0.1295671E-001  0.3000000E+03  0.7818608E-02  0.1093470E+00
         21   -1    0    0  501  502  0.00000000000E+00  0.00000000000E+00  0.11179723807E+01  0.11179723807E+01  0.00000000000E+00 0. -1.
         13   -1    0    0    0    0 -0.00000000000E+00 -0.00000000000E+00 -0.10000000000E+04  0.10000000000E+04  0.00000000000E+00 0.  1.
    9000005    2    1    2  501    0  0.28582365852E+02  0.16766397958E+02 -0.44290396924E+03  0.44415328307E+03  0.31857740522E+01 0.  0.
         13    1    3    3    0    0  0.25005041092E+02  0.15773161453E+02 -0.38945622387E+03  0.39057674664E+03  0.00000000000E+00 0.  1.
          3    1    3    3  501    0  0.35773247601E+01  0.99323650449E+00 -0.53447745364E+02  0.53576536429E+02  0.00000000000E+00 0.  1.
         -3    1    1    2    0  502 -0.28582365852E+02 -0.16766397958E+02 -0.55597805838E+03  0.55696468931E+03  0.00000000000E+00 0. -1.
<mgrwt>
<rscale>  1 0.30000000E+03</rscale>
<asrwt>0</asrwt>
<pdfrwt beam="1">  1       21 0.40653627E-02 0.30000000E+03</pdfrwt>
<pdfrwt beam="2">0</pdfrwt>
<totfact> 0.40914663E+04</totfact>
</mgrwt>
</event>
<event>
 6    1  0.1295671E-001  0.3000000E+03  0.7818608E-02  0.1093470E+00
         21   -1    0    0  501  502  0.00000000000E+00  0.00000000000E+00  0.37739176912E+01  0.37739176912E+01  0.00000000000E+00 0. -1.
         13   -1    0    0    0    0 -0.00000000000E+00 -0.00000000000E+00 -0.10000000000E+04  0.10000000000E+04  0.00000000000E+00 0.  1.
    9000005    2    1    2  501    0  0.26220474251E+02  0.35716096646E+02 -0.84541518953E+03  0.84658906407E+03  0.48008199615E+01 0.  0.
         13    1    3    3    0    0  0.25856693927E+02  0.35827908770E+02 -0.83896656377E+03  0.84012921792E+03  0.00000000000E+00 0.  1.
          3    1    3    3  501    0  0.36378032412E+00 -0.11181212475E+00 -0.64486257630E+01  0.64598461520E+01  0.00000000000E+00 0.  1.
         -3    1    1    2    0  502 -0.26220474251E+02 -0.35716096646E+02 -0.15081089277E+03  0.15718485362E+03  0.00000000000E+00 0. -1.
<mgrwt>
<rscale>  1 0.30000000E+03</rscale>
<asrwt>0</asrwt>
<pdfrwt beam="1">  1       21 0.13723366E-01 0.30000000E+03</pdfrwt>
<pdfrwt beam="2">0</pdfrwt>
<totfact> 0.48511837E+03</totfact>
</mgrwt>
</event>
<event>
 6    1  0.1295671E-001  0.3000000E+03  0.7818608E-02  0.1093470E+00
         21   -1    0    0  501  502  0.00000000000E+00  0.00000000000E+00  0.17609762453E+01  0.17609762453E+01  0.00000000000E+00 0. -1.
         13   -1    0    0    0    0 -0.00000000000E+00 -0.00000000000E+00 -0.10000000000E+04  0.10000000000E+04  0.00000000000E+00 0.  1.
    9000005    2    1    2  501    0 -0.31986280279E+02 -0.83133516504E+01 -0.80484996573E+03  0.80556831149E+03  0.80376111232E+01 0.  0.
         13    1    3    3    0    0 -0.28856626644E+02 -0.84401073696E+01 -0.65995517846E+03  0.66063967326E+03  0.00000000000E+00 0.  1.
          1    1    3    3  501    0 -0.31296536353E+01  0.12675571921E+00 -0.14489478727E+03  0.14492863822E+03  0.00000000000E+00 0.  1.
         -3    1    1    2    0  502  0.31986280279E+02  0.83133516504E+01 -0.19338905802E+03  0.19619266476E+03  0.00000000000E+00 0. -1.
<mgrwt>
<rscale>  1 0.30000000E+03</rscale>
<asrwt>0</asrwt>
<pdfrwt beam="1">  1       21 0.64035635E-02 0.30000000E+03</pdfrwt>
<pdfrwt beam="2">0</pdfrwt>
<totfact> 0.18830935E+04</totfact>
</mgrwt>
</event>
<event>
 6    1  0.1295671E-001  0.3000000E+03  0.7818608E-02  0.1093470E+00
         21   -1    0    0  501  502  0.00000000000E+00  0.00000000000E+00  0.13869427383E+01  0.13869427383E+01  0.00000000000E+00 0. -1.
         13   -1    0    0    0    0 -0.00000000000E+00 -0.00000000000E+00 -0.10000000000E+04  0.10000000000E+04  0.00000000000E+00 0.  1.
    9000005    2    1    2  501    0 -0.25802443090E+02  0.25199786893E+02 -0.37971685958E+03  0.38144073634E+03  0.33684651832E+01 0.  0.
         13    1    3    3    0    0 -0.55591039651E+01  0.37316980337E+01 -0.75395394235E+02  0.75692104469E+02  0.00000000000E+00 0.  1.
          1    1    3    3  501    0 -0.20243339125E+02  0.21468088859E+02 -0.30432146535E+03  0.30574863187E+03  0.00000000000E+00 0.  1.
         -3    1    1    2    0  502  0.25802443090E+02 -0.25199786893E+02 -0.61889619768E+03  0.61994620640E+03  0.00000000000E+00 0. -1.
<mgrwt>
<rscale>  1 0.30000000E+03</rscale>
<asrwt>0</asrwt>
<pdfrwt beam="1">  1       21 0.50434388E-02 0.30000000E+03</pdfrwt>
<pdfrwt beam="2">0</pdfrwt>
<totfact> 0.28382920E+04</totfact>
</mgrwt>
</event>
<event>
 6    1  0.1295671E-001  0.3000000E+03  0.7818608E-02  0.1093470E+00
         21   -1    0    0  501  502  0.00000000000E+00  0.00000000000E+00  0.52245784758E+01  0.52245784758E+01  0.00000000000E+00 0. -1.
         13   -1    0    0    0    0 -0.00000000000E+00 -0.00000000000E+00 -0.10000000000E+04  0.10000000000E+04  0.00000000000E+00 0.  1.
    9000005    2    1    2  501    0 -0.32176246379E+02  0.13939048288E+02 -0.93675406707E+03  0.93743014307E+03  0.61223428008E+01 0.  0.
         13    1    3    3    0    0 -0.12977928795E+02  0.51419286736E+01 -0.29744816864E+03  0.29777555154E+03  0.00000000000E+00 0.  1.
          3    1    3    3  501    0 -0.19198317584E+02  0.87971196145E+01 -0.63930589842E+03  0.63965459153E+03  0.00000000000E+00 0.  1.
         -3    1    1    2    0  502  0.32176246379E+02 -0.13939048288E+02 -0.58021354458E+02  0.67794435401E+02  0.00000000000E+00 0. -1.
<mgrwt>
<rscale>  1 0.30000000E+03</rscale>
<asrwt>0</asrwt>
<pdfrwt beam="1">  1       21 0.18998507E-01 0.30000000E+03</pdfrwt>
<pdfrwt beam="2">0</pdfrwt>
<totfact> 0.26454827E+03</totfact>
</mgrwt>
</event>
<event>
 6    1  0.1295671E-001  0.3000000E+03  0.7818608E-02  0.1093470E+00
         21   -1    0    0  501  502  0.00000000000E+00  0.00000000000E+00  0.14632567887E+02  0.14632567887E+02  0.00000000000E+00 0. -1.
         13   -1    0    0    0    0 -0.00000000000E+00 -0.00000000000E+00 -0.10000000000E+04  0.10000000000E+04  0.00000000000E+00 0.  1.
    9000005    2    1    2  501    0  0.22027380080E+02  0.24764896330E+02 -0.98058212915E+03  0.98114518686E+03  0.24617339063E+01 0.  0.
         13    1    3    3    0    0  0.21140989069E+02  0.23440962149E+02 -0.94574206229E+03  0.94626870840E+03  0.00000000000E+00 0.  1.
          3    1    3    3  501    0  0.88639101068E+00  0.13239341808E+01 -0.34840066864E+02  0.34876478461E+02  0.00000000000E+00 0.  1.
         -1    1    1    2    0  502 -0.22027380080E+02 -0.24764896330E+02 -0.47853029631E+01  0.33487381024E+02  0.00000000000E+00 0. -1.
<mgrwt>
<rscale>  1 0.30000000E+03</rscale>
<asrwt>0</asrwt>
<pdfrwt beam="1">  1       21 0.53209450E-01 0.30000000E+03</pdfrwt>
<pdfrwt beam="2">0</pdfrwt>
<totfact> 0.32800531E+02</totfact>
</mgrwt>
</event>
<event>
 6    1  0.1295671E-001  0.3000000E+03  0.7818608E-02  0.1093470E+00
         21   -1    0    0  501  502  0.00000000000E+00  0.00000000000E+00  0.46218070614E+01  0.46218070614E+01  0.00000000000E+00 0. -1.
         13   -1    0    0    0    0 -0.00000000000E+00 -0.00000000000E+00 -0.10000000000E+04  0.10000000000E+04  0.00000000000E+00 0.  1.
    9000005    2    1    2  501    0  0.43651738799E+02 -0.28524300264E+02 -0.81980439259E+03  0.82146813013E+03  0.33965716210E+01 0.  0.
         13    1    3    3    0    0  0.20074315011E+02 -0.12701986662E+02 -0.39961030622E+03  0.40031576965E+03  0.00000000000E+00 0.  1.
          1    1    3    3  501    0  0.23577423788E+02 -0.15822313602E+02 -0.42019408637E+03  0.42115236048E+03  0.00000000000E+00 0.  1.
         -1    1    1    2    0  502 -0.43651738799E+02  0.28524300264E+02 -0.17557380035E+03  0.18315367693E+03  0.00000000000E+00 0. -1.
<mgrwt>
<rscale>  1 0.30000000E+03</rscale>
<asrwt>0</asrwt>
<pdfrwt beam="1">  1       21 0.16806607E-01 0.30000000E+03</pdfrwt>
<pdfrwt beam="2">0</pdfrwt>
<totfact> 0.33321306E+03</totfact>
</mgrwt>
</event>
<event>
 6    1  0.1295671E-001  0.3000000E+03  0.7818608E-02  0.1093470E+00
         21   -1    0    0  501  502  0.00000000000E+00  0.00000000000E+00  0.18841244947E+01  0.18841244947E+01  0.00000000000E+00 0. -1.
         13   -1    0    0    0    0 -0.00000000000E+00 -0.00000000000E+00 -0.10000000000E+04  0.10000000000E+04  0.00000000000E+00 0.  1.
    9000005    2    1    2  501    0 -0.14287658457E+02  0.29981824871E+02 -0.82116304345E+03  0.82184148571E+03  0.34112615825E+01 0.  0.
         13    1    3    3    0    0 -0.72889455757E+01  0.13823028872E+02 -0.34741110090E+03  0.34776238710E+03  0.00000000000E+00 0.  1.
          1    1    3    3  501    0 -0.69987128814E+01  0.16158795999E+02 -0.47375194255E+03  0.47407909861E+03  0.00000000000E+00 0.  1.
         -3    1    1    2    0  502  0.14287658457E+02 -0.29981824871E+02 -0.17695283206E+03  0.18004263878E+03  0.00000000000E+00 0. -1.
<mgrwt>
<rscale>  1 0.30000000E+03</rscale>
<asrwt>0</asrwt>
<pdfrwt beam="1">  1       21 0.68513762E-02 0.30000000E+03</pdfrwt>
<pdfrwt beam="2">0</pdfrwt>
<totfact> 0.16748785E+04</totfact>
</mgrwt>
</event>
<event>
 6    1  0.1295671E-001  0.3000000E+03  0.7818608E-02  0.1093470E+00
         21   -1    0    0  501  502  0.00000000000E+00  0.00000000000E+00  0.29476581990E+01  0.29476581990E+01  0.00000000000E+00 0. -1.
         13   -1    0    0    0    0 -0.00000000000E+00 -0.00000000000E+00 -0.10000000000E+04  0.10000000000E+04  0.00000000000E+00 0.  1.
    9000005    2    1    2  501    0 -0.35864130201E+02  0.68079559005E+01 -0.86957544264E+03  0.87034696469E+03  0.31311992449E+01 0.  0.
         13    1    3    3    0    0 -0.17565523180E+02  0.48275995090E+01 -0.41956241863E+03  0.41995770793E+03  0.00000000000E+00 0.  1.
          1    1    3    3  501    0 -0.18298607021E+02  0.19803563915E+01 -0.45001302401E+03  0.45038925676E+03  0.00000000000E+00 0.  1.
         -1    1    1    2    0  502  0.35864130201E+02 -0.68079559005E+01 -0.12747689916E+03  0.13260069351E+03  0.00000000000E+00 0. -1.
<mgrwt>
<rscale>  1 0.30000000E+03</rscale>
<asrwt>0</asrwt>
<pdfrwt beam="1">  1       21 0.10718780E-01 0.30000000E+03</pdfrwt>
<pdfrwt beam="2">0</pdfrwt>
<totfact> 0.75975380E+03</totfact>
</mgrwt>
</event>
<event>
 6    1  0.1295671E-001  0.3000000E+03  0.7818608E-02  0.1093470E+00
         21   -1    0    0  501  502  0.00000000000E+00  0.00000000000E+00  0.51127051451E+01  0.51127051451E+01  0.00000000000E+00 0. -1.
         13   -1    0    0    0    0 -0.00000000000E+00 -0.00000000000E+00 -0.10000000000E+04  0.10000000000E+04  0.00000000000E+00 0.  1.
    9000005    2    1    2  501    0  0.30084742726E+02 -0.22097818958E+02 -0.92599443536E+03  0.92675690487E+03  0.43887419310E+01 0.  0.
         13    1    3    3    0    0  0.23079399581E+01 -0.47468275280E+00 -0.67426927512E+02  0.67468084783E+02  0.00000000000E+00 0.  1.
          1    1    3    3  501    0  0.27776802768E+02 -0.21623136205E+02 -0.85856750785E+03  0.85928882009E+03  0.00000000000E+00 0.  1.
         -3    1    1    2    0  502 -0.30084742726E+02  0.22097818958E+02 -0.68892859492E+02  0.78355800274E+02  0.00000000000E+00 0. -1.
<mgrwt>
<rscale>  1 0.30000000E+03</rscale>
<asrwt>0</asrwt>
<pdfrwt beam="1">  1       21 0.18591694E-01 0.30000000E+03</pdfrwt>
<pdfrwt beam="2">0</pdfrwt>
<totfact> 0.27561216E+03</totfact>
</mgrwt>
</event>
<event>
 6    1  0.1295671E-001  0.3000000E+03  0.7818608E-02  0.1093470E+00
         21   -1    0    0  501  502  0.00000000000E+00  0.00000000000E+00  0.16991799207E+01  0.16991799207E+01  0.00000000000E+00 0. -1.
         13   -1    0    0    0    0 -0.00000000000E+00 -0.00000000000E+00 -0.10000000000E+04  0.10000000000E+04  0.00000000000E+00 0.  1.
    9000005    2    1    2  501    0  0.34844446094E+02  0.14411992390E+02 -0.69997171464E+03  0.70099650933E+03  0.37234189005E+01 0.  0.
         13    1    3    3    0    0  0.24694204383E+02  0.11618781257E+02 -0.52391501818E+03  0.52462533877E+03  0.00000000000E+00 0.  1.
          3    1    3    3  501    0  0.10150241710E+02  0.27932111326E+01 -0.17605669647E+03  0.17637117056E+03  0.00000000000E+00 0.  1.
         -3    1    1    2    0  502 -0.34844446094E+02 -0.14411992390E+02 -0.29832910544E+03  0.30070267059E+03  0.00000000000E+00 0. -1.
<mgrwt>
<rscale>  1 0.30000000E+03</rscale>
<asrwt>0</asrwt>
<pdfrwt beam="1">  1       21 0.61788491E-02 0.30000000E+03</pdfrwt>
<pdfrwt beam="2">0</pdfrwt>
<totfact> 0.20030200E+04</totfact>
</mgrwt>
</event>
<event>
 6    1  0.1295671E-001  0.3000000E+03  0.7818608E-02  0.1093470E+00
         21   -1    0    0  501  502  0.00000000000E+00  0.00000000000E+00  0.35199891786E+01  0.35199891786E+01  0.00000000000E+00 0. -1.
         13   -1    0    0    0    0 -0.00000000000E+00 -0.00000000000E+00 -0.10000000000E+04  0.10000000000E+04  0.00000000000E+00 0.  1.
    9000005    2    1    2  501    0  0.22569801387E+02 -0.29099825427E+02 -0.89154459287E+03  0.89231010781E+03  0.30613134532E+01 0.  0.
         13    1    3    3    0    0  0.18520460641E+02 -0.24989984588E+02 -0.72947746929E+03  0.73014031870E+03  0.00000000000E+00 0.  1.
          3    1    3    3  501    0  0.40493407467E+01 -0.41098408390E+01 -0.16206712358E+03  0.16216978911E+03  0.00000000000E+00 0.  1.
         -1    1    1    2    0  502 -0.22569801387E+02  0.29099825427E+02 -0.10493541795E+03  0.11120988137E+03  0.00000000000E+00 0. -1.
<mgrwt>
<rscale>  1 0.30000000E+03</rscale>
<asrwt>0</asrwt>
<pdfrwt beam="1">  1       21 0.12799988E-01 0.30000000E+03</pdfrwt>
<pdfrwt beam="2">0</pdfrwt>
<totfact> 0.55102749E+03</totfact>
</mgrwt>
</event>
<event>
 6    1  0.1295671E-001  0.3000000E+03  0.7818608E-02  0.1093470E+00
         21   -1    0    0  501  502  0.00000000000E+00  0.00000000000E+00  0.28116225709E+01  0.28116225709E+01  0.00000000000E+00 0. -1.
         13   -1    0    0    0    0 -0.00000000000E+00 -0.00000000000E+00 -0.10000000000E+04  0.10000000000E+04  0.00000000000E+00 0.  1.
    9000005    2    1    2  501    0  0.26206280389E+02  0.27628831948E+02 -0.84731633538E+03  0.84817737516E+03  0.31250651559E+01 0.  0.
         13    1    3    3    0    0  0.20015741212E+02  0.22738859040E+02 -0.65917594216E+03  0.65987166050E+03  0.00000000000E+00 0.  1.
          3    1    3    3  501    0  0.61905391764E+01  0.48899729082E+01 -0.18814039322E+03  0.18830571465E+03  0.00000000000E+00 0.  1.
         -3    1    1    2    0  502 -0.26206280389E+02 -0.27628831948E+02 -0.14987204205E+03  0.15463424742E+03  0.00000000000E+00 0. -1.
<mgrwt>
<rscale>  1 0.30000000E+03</rscale>
<asrwt>0</asrwt>
<pdfrwt beam="1">  1       21 0.10224104E-01 0.30000000E+03</pdfrwt>
<pdfrwt beam="2">0</pdfrwt>
<totfact> 0.82689333E+03</totfact>
</mgrwt>
</event>
<event>
 6    1  0.1295671E-001  0.3000000E+03  0.7818608E-02  0.1093470E+00
         21   -1    0    0  501  502  0.00000000000E+00  0.00000000000E+00  0.29789196532E+01  0.29789196532E+01  0.00000000000E+00 0. -1.
         13   -1    0    0    0    0 -0.00000000000E+00 -0.00000000000E+00 -0.10000000000E+04  0.10000000000E+04  0.00000000000E+00 0.  1.
    9000005    2    1    2  501    0  0.44069681109E+02  0.31965819634E+02 -0.47369393284E+03  0.47682755955E+03  0.38248034889E+01 0.  0.
         13    1    3    3    0    0  0.98835346825E+01  0.64927332066E+01 -0.11637324310E+03  0.11697252477E+03  0.00000000000E+00 0.  1.
          1    1    3    3  501    0  0.34186146427E+02  0.25473086427E+02 -0.35732068974E+03  0.35985503478E+03  0.00000000000E+00 0.  1.
         -1    1    1    2    0  502 -0.44069681109E+02 -0.31965819634E+02 -0.52332714751E+03  0.52615136010E+03  0.00000000000E+00 0. -1.
<mgrwt>
<rscale>  1 0.30000000E+03</rscale>
<asrwt>0</asrwt>
<pdfrwt beam="1">  1       21 0.10832458E-01 0.30000000E+03</pdfrwt>
<pdfrwt beam="2">0</pdfrwt>
<totfact> 0.74549349E+03</totfact>
</mgrwt>
</event>
<event>
 6    1  0.1295671E-001  0.3000000E+03  0.7818608E-02  0.1093470E+00
         21   -1    0    0  501  502  0.00000000000E+00  0.00000000000E+00  0.27168494873E+01  0.27168494873E+01  0.00000000000E+00 0. -1.
         13   -1    0    0    0    0 -0.00000000000E+00 -0.00000000000E+00 -0.10000000000E+04  0.10000000000E+04  0.00000000000E+00 0.  1.
    9000005    2    1    2  501    0  0.58492332887E+01 -0.43799738906E+02 -0.23673461626E+03  0.24088569784E+03  0.54781595696E+01 0.  0.
         13    1    3    3    0    0  0.31259722482E+01 -0.19766283761E+02 -0.92829068745E+02  0.94961643206E+02  0.00000000000E+00 0.  1.
          1    1    3    3  501    0  0.27232610405E+01 -0.24033455146E+02 -0.14390554751E+03  0.14592405464E+03  0.00000000000E+00 0.  1.
         -3    1    1    2    0  502 -0.58492332887E+01  0.43799738906E+02 -0.76054853426E+03  0.76183115165E+03  0.00000000000E+00 0. -1.
<mgrwt>
<rscale>  1 0.30000000E+03</rscale>
<asrwt>0</asrwt>
<pdfrwt beam="1">  1       21 0.98794735E-02 0.30000000E+03</pdfrwt>
<pdfrwt beam="2">0</pdfrwt>
<totfact> 0.87915691E+03</totfact>
</mgrwt>
</event>
<event>
 6    1  0.1295671E-001  0.3000000E+03  0.7818608E-02  0.1093470E+00
         21   -1    0    0  501  502  0.00000000000E+00  0.00000000000E+00  0.15056018276E+01  0.15056018276E+01  0.00000000000E+00 0. -1.
         13   -1    0    0    0    0 -0.00000000000E+00 -0.00000000000E+00 -0.10000000000E+04  0.10000000000E+04  0.00000000000E+00 0.  1.
    9000005    2    1    2  501    0  0.25696022008E+01 -0.31292114272E+02 -0.79209896746E+03  0.79273569717E+03  0.48282551658E+01 0.  0.
         13    1    3    3    0    0 -0.50083064432E+00 -0.13281124152E+02 -0.37877307582E+03  0.37900617680E+03  0.00000000000E+00 0.  1.
          3    1    3    3  501    0  0.30704328451E+01 -0.18010990120E+02 -0.41332589164E+03  0.41372952037E+03  0.00000000000E+00 0.  1.
         -1    1    1    2    0  502 -0.25696022008E+01  0.31292114272E+02 -0.20639543071E+03  0.20876990466E+03  0.00000000000E+00 0. -1.
<mgrwt>
<rscale>  1 0.30000000E+03</rscale>
<asrwt>0</asrwt>
<pdfrwt beam="1">  1       21 0.54749273E-02 0.30000000E+03</pdfrwt>
<pdfrwt beam="2">0</pdfrwt>
<totfact> 0.24666613E+04</totfact>
</mgrwt>
</event>
<event>
 6    1  0.1295671E-001  0.3000000E+03  0.7818608E-02  0.1093470E+00
         21   -1    0    0  501  502  0.00000000000E+00  0.00000000000E+00  0.19484002380E+01  0.19484002380E+01  0.00000000000E+00 0. -1.
         13   -1    0    0    0    0 -0.00000000000E+00 -0.00000000000E+00 -0.10000000000E+04  0.10000000000E+04  0.00000000000E+00 0.  1.
    9000005    2    1    2  501    0  0.11747034579E+02  0.31596805523E+02 -0.82212458717E+03  0.82282089063E+03  0.30050421587E+01 0.  0.
         13    1    3    3    0    0  0.89529060365E+01  0.21908598493E+02 -0.54767172325E+03  0.54818286881E+03  0.00000000000E+00 0.  1.
          3    1    3    3  501    0  0.27941285420E+01  0.96882070303E+01 -0.27445286393E+03  0.27463802182E+03  0.00000000000E+00 0.  1.
         -3    1    1    2    0  502 -0.11747034579E+02 -0.31596805523E+02 -0.17592701259E+03  0.17912750961E+03  0.00000000000E+00 0. -1.
<mgrwt>
<rscale>  1 0.30000000E+03</rscale>
<asrwt>0</asrwt>
<pdfrwt beam="1">  1       21 0.70851067E-02 0.30000000E+03</pdfrwt>
<pdfrwt beam="2">0</pdfrwt>
<totfact> 0.15799315E+04</totfact>
</mgrwt>
</event>
<event>
 6    1  0.1295671E-001  0.3000000E+03  0.7818608E-02  0.1093470E+00
         21   -1    0    0  501  502  0.00000000000E+00  0.00000000000E+00  0.14237595904E+01  0.14237595904E+01  0.00000000000E+00 0. -1.
         13   -1    0    0    0    0 -0.00000000000E+00 -0.00000000000E+00 -0.10000000000E+04  0.10000000000E+04  0.00000000000E+00 0.  1.
    9000005    2    1    2  501    0  0.29671508749E+02 -0.20588888225E+02 -0.64198729112E+03  0.64301061878E+03  0.32669795141E+01 0.  0.
         13    1    3    3    0    0  0.16034400191E+02 -0.91439570160E+01 -0.32460552925E+03  0.32512991797E+03  0.00000000000E+00 0.  1.
          1    1    3    3  501    0  0.13637108559E+02 -0.11444931209E+02 -0.31738176188E+03  0.31788070082E+03  0.00000000000E+00 0.  1.
         -3    1    1    2    0  502 -0.29671508749E+02  0.20588888225E+02 -0.35658894929E+03  0.35841314081E+03  0.00000000000E+00 0. -1.
<mgrwt>
<rscale>  1 0.30000000E+03</rscale>
<asrwt>0</asrwt>
<pdfrwt beam="1">  1       21 0.51773185E-02 0.30000000E+03</pdfrwt>
<pdfrwt beam="2">0</pdfrwt>
<totfact> 0.27141790E+04</totfact>
</mgrwt>
</event>
<event>
 6    1  0.1295671E-001  0.3000000E+03  0.7818608E-02  0.1093470E+00
         21   -1    0    0  501  502  0.00000000000E+00  0.00000000000E+00  0.20561047677E+01  0.20561047677E+01  0.00000000000E+00 0. -1.
         13   -1    0    0    0    0 -0.00000000000E+00 -0.00000000000E+00 -0.10000000000E+04  0.10000000000E+04  0.00000000000E+00 0.  1.
    9000005    2    1    2  501    0  0.40309266688E+02  0.19416535214E+02 -0.42263304611E+03  0.42500808949E+03  0.33683297208E+01 0.  0.
         13    1    3    3    0    0  0.20247397499E+02  0.10523757364E+02 -0.20089529981E+03  0.20218711151E+03  0.00000000000E+00 0.  1.
          1    1    3    3  501    0  0.20061869189E+02  0.88927778503E+01 -0.22173774630E+03  0.22282097798E+03  0.00000000000E+00 0.  1.
         -1    1    1    2    0  502 -0.40309266688E+02 -0.19416535214E+02 -0.57531084912E+03  0.57704801528E+03  0.00000000000E+00 0. -1.
<mgrwt>
<rscale>  1 0.30000000E+03</rscale>
<asrwt>0</asrwt>
<pdfrwt beam="1">  1       21 0.74767604E-02 0.30000000E+03</pdfrwt>
<pdfrwt beam="2">0</pdfrwt>
<totfact> 0.14382396E+04</totfact>
</mgrwt>
</event>
<event>
 6    1  0.1295671E-001  0.3000000E+03  0.7818608E-02  0.1093470E+00
         21   -1    0    0  501  502  0.00000000000E+00  0.00000000000E+00  0.35711497212E+01  0.35711497212E+01  0.00000000000E+00 0. -1.
         13   -1    0    0    0    0 -0.00000000000E+00 -0.00000000000E+00 -0.10000000000E+04  0.10000000000E+04  0.00000000000E+00 0.  1.
    9000005    2    1    2  501    0  0.42249061581E+02  0.45388748886E+01 -0.14639334194E+03  0.15247423982E+03  0.34349173934E+01 0.  0.
         13    1    3    3    0    0  0.34320210511E+02  0.42429871896E+01 -0.12319262586E+03  0.12795429987E+03  0.00000000000E+00 0.  1.
          1    1    3    3  501    0  0.79288510708E+01  0.29588769890E+00 -0.23200716074E+02  0.24519939950E+02  0.00000000000E+00 0.  1.
         -1    1    1    2    0  502 -0.42249061581E+02 -0.45388748886E+01 -0.85003550834E+03  0.85109690990E+03  0.00000000000E+00 0. -1.
<mgrwt>
<rscale>  1 0.30000000E+03</rscale>
<asrwt>0</asrwt>
<pdfrwt beam="1">  1       21 0.12986026E-01 0.30000000E+03</pdfrwt>
<pdfrwt beam="2">0</pdfrwt>
<totfact> 0.53670543E+03</totfact>
</mgrwt>
</event>
<event>
 6    1  0.1295671E-001  0.3000000E+03  0.7818608E-02  0.1093470E+00
         21   -1    0    0  501  502  0.00000000000E+00  0.00000000000E+00  0.23807815819E+01  0.23807815819E+01  0.00000000000E+00 0. -1.
         13   -1    0    0    0    0 -0.00000000000E+00 -0.00000000000E+00 -0.10000000000E+04  0.10000000000E+04  0.00000000000E+00 0.  1.
    9000005    2    1    2  501    0 -0.12868799437E+02 -0.30198589787E+02 -0.86929930039E+03  0.86992866878E+03  0.41296821992E+01 0.  0.
         13    1    3    3    0    0 -0.72244488308E+01 -0.19480233789E+02 -0.59324633387E+03  0.59361004441E+03  0.00000000000E+00 0.  1.
          3    1    3    3  501    0 -0.56443506066E+01 -0.10718355998E+02 -0.27605296652E+03  0.27631862437E+03  0.00000000000E+00 0.  1.
         -1    1    1    2    0  502  0.12868799437E+02  0.30198589787E+02 -0.12831991803E+03  0.13245211281E+03  0.00000000000E+00 0. -1.
<mgrwt>
<rscale>  1 0.30000000E+03</rscale>
<asrwt>0</asrwt>
<pdfrwt beam="1">  1       21 0.86574058E-02 0.30000000E+03</pdfrwt>
<pdfrwt beam="2">0</pdfrwt>
<totfact> 0.11115472E+04</totfact>
</mgrwt>
</event>
<event>
 6    1  0.1295671E-001  0.3000000E+03  0.7818608E-02  0.1093470E+00
         21   -1    0    0  501  502  0.00000000000E+00  0.00000000000E+00  0.43764112255E+01  0.43764112255E+01  0.00000000000E+00 0. -1.
         13   -1    0    0    0    0 -0.00000000000E+00 -0.00000000000E+00 -0.10000000000E+04  0.10000000000E+04  0.00000000000E+00 0.  1.
    9000005    2    1    2  501    0 -0.41544755491E+02 -0.39729986862E+02 -0.74596732126E+03  0.74818763225E+03  0.36124916612E+01 0.  0.
         13    1    3    3    0    0 -0.32697211395E+02 -0.29936045550E+02 -0.55909426167E+03  0.56084905981E+03  0.00000000000E+00 0.  1.
          1    1    3    3  501    0 -0.88475440959E+01 -0.97939413119E+01 -0.18687305959E+03  0.18733857244E+03  0.00000000000E+00 0.  1.
         -3    1    1    2    0  502  0.41544755491E+02  0.39729986862E+02 -0.24965626752E+03  0.25618877898E+03  0.00000000000E+00 0. -1.
<mgrwt>
<rscale>  1 0.30000000E+03</rscale>
<asrwt>0</asrwt>
<pdfrwt beam="1">  1       21 0.15914256E-01 0.30000000E+03</pdfrwt>
<pdfrwt beam="2">0</pdfrwt>
<totfact> 0.36894246E+03</totfact>
</mgrwt>
</event>
<event>
 6    1  0.1295671E-001  0.3000000E+03  0.7818608E-02  0.1093470E+00
         21   -1    0    0  501  502  0.00000000000E+00  0.00000000000E+00  0.97216077398E+00  0.97216077398E+00  0.00000000000E+00 0. -1.
         13   -1    0    0    0    0 -0.00000000000E+00 -0.00000000000E+00 -0.10000000000E+04  0.10000000000E+04  0.00000000000E+00 0.  1.
    9000005    2    1    2  501    0 -0.10797883936E+02  0.28361989442E+02 -0.51326647627E+03  0.51426372805E+03  0.10183790250E+02 0.  0.
         13    1    3    3    0    0 -0.12654356167E+02  0.25871402834E+02 -0.44958271571E+03  0.45050425135E+03  0.00000000000E+00 0.  1.
          1    1    3    3  501    0  0.18564722316E+01  0.24905866079E+01 -0.63683760555E+02  0.63759476701E+02  0.00000000000E+00 0.  1.
         -1    1    1    2    0  502  0.10797883936E+02 -0.28361989442E+02 -0.48576136296E+03  0.48670843273E+03  0.00000000000E+00 0. -1.
<mgrwt>
<rscale>  1 0.30000000E+03</rscale>
<asrwt>0</asrwt>
<pdfrwt beam="1">  1       21 0.35351375E-02 0.30000000E+03</pdfrwt>
<pdfrwt beam="2">0</pdfrwt>
<totfact> 0.51743705E+04</totfact>
</mgrwt>
</event>
<event>
 6    1  0.1295671E-001  0.3000000E+03  0.7818608E-02  0.1093470E+00
         21   -1    0    0  501  502  0.00000000000E+00  0.00000000000E+00  0.96768971478E+00  0.96768971478E+00  0.00000000000E+00 0. -1.
         13   -1    0    0    0    0 -0.00000000000E+00 -0.00000000000E+00 -0.10000000000E+04  0.10000000000E+04  0.00000000000E+00 0.  1.
    9000005    2    1    2  501    0  0.96098816895E+01  0.28491506657E+02 -0.62410517085E+03  0.62483676083E+03  0.30980036764E+01 0.  0.
         13    1    3    3    0    0  0.72412578411E+01  0.23548517820E+02 -0.48850749791E+03  0.48912835127E+03  0.00000000000E+00 0.  1.
          3    1    3    3  501    0  0.23686238484E+01  0.49429888370E+01 -0.13559767295E+03  0.13570840956E+03  0.00000000000E+00 0.  1.
         -1    1    1    2    0  502 -0.96098816895E+01 -0.28491506657E+02 -0.37492713943E+03  0.37613092888E+03  0.00000000000E+00 0. -1.
<mgrwt>
<rscale>  1 0.30000000E+03</rscale>
<asrwt>0</asrwt>
<pdfrwt beam="1">  1       21 0.35188791E-02 0.30000000E+03</pdfrwt>
<pdfrwt beam="2">0</pdfrwt>
<totfact> 0.52144878E+04</totfact>
</mgrwt>
</event>
<event>
 6    1  0.1295671E-001  0.3000000E+03  0.7818608E-02  0.1093470E+00
         21   -1    0    0  501  502  0.00000000000E+00  0.00000000000E+00  0.16134069419E+01  0.16134069419E+01  0.00000000000E+00 0. -1.
         13   -1    0    0    0    0 -0.00000000000E+00 -0.00000000000E+00 -0.10000000000E+04  0.10000000000E+04  0.00000000000E+00 0.  1.
    9000005    2    1    2  501    0  0.10442098730E+02  0.28469861990E+02 -0.82420721923E+03  0.82481401573E+03  0.90027683215E+01 0.  0.
         13    1    3    3    0    0  0.52109304256E+01  0.23915652692E+02 -0.67943717383E+03  0.67987791950E+03  0.00000000000E+00 0.  1.
          1    1    3    3  501    0  0.52311683042E+01  0.45542092976E+01 -0.14477004540E+03  0.14493609623E+03  0.00000000000E+00 0.  1.
         -1    1    1    2    0  502 -0.10442098730E+02 -0.28469861990E+02 -0.17417937382E+03  0.17679939121E+03  0.00000000000E+00 0. -1.
<mgrwt>
<rscale>  1 0.30000000E+03</rscale>
<asrwt>0</asrwt>
<pdfrwt beam="1">  1       21 0.58669467E-02 0.30000000E+03</pdfrwt>
<pdfrwt beam="2">0</pdfrwt>
<totfact> 0.21902222E+04</totfact>
</mgrwt>
</event>
<event>
 6    1  0.1295671E-001  0.3000000E+03  0.7818608E-02  0.1093470E+00
         21   -1    0    0  501  502  0.00000000000E+00  0.00000000000E+00  0.10500438315E+01  0.10500438315E+01  0.00000000000E+00 0. -1.
         13   -1    0    0    0    0 -0.00000000000E+00 -0.00000000000E+00 -0.10000000000E+04  0.10000000000E+04  0.00000000000E+00 0.  1.
    9000005    2    1    2  501    0 -0.12820603352E+02  0.27953872419E+02 -0.65529036316E+03  0.65601714291E+03  0.26916322136E+01 0.  0.
         13    1    3    3    0    0 -0.11137024262E+02  0.24378789832E+02 -0.55003212841E+03  0.55068475645E+03  0.00000000000E+00 0.  1.
          1    1    3    3  501    0 -0.16835790896E+01  0.35750825876E+01 -0.10525823475E+03  0.10533238646E+03  0.00000000000E+00 0.  1.
         -3    1    1    2    0  502  0.12820603352E+02 -0.27953872419E+02 -0.34365959300E+03  0.34503290092E+03  0.00000000000E+00 0. -1.
<mgrwt>
<rscale>  1 0.30000000E+03</rscale>
<asrwt>0</asrwt>
<pdfrwt beam="1">  1       21 0.38183493E-02 0.30000000E+03</pdfrwt>
<pdfrwt beam="2">0</pdfrwt>
<totfact> 0.45466570E+04</totfact>
</mgrwt>
</event>
<event>
 6    1  0.1295671E-001  0.3000000E+03  0.7818608E-02  0.1093470E+00
         21   -1    0    0  501  502  0.00000000000E+00  0.00000000000E+00  0.42634912802E+01  0.42634912802E+01  0.00000000000E+00 0. -1.
         13   -1    0    0    0    0 -0.00000000000E+00 -0.00000000000E+00 -0.10000000000E+04  0.10000000000E+04  0.00000000000E+00 0.  1.
    9000005    2    1    2  501    0 -0.55845783207E+02 -0.17168742706E+02 -0.72134731019E+03  0.72372303163E+03  0.44235023080E+01 0.  0.
         13    1    3    3    0    0 -0.31841366769E+02 -0.75788663747E+01 -0.39560500391E+03  0.39695671171E+03  0.00000000000E+00 0.  1.
          1    1    3    3  501    0 -0.24004416438E+02 -0.95898763311E+01 -0.32574230628E+03  0.32676631992E+03  0.00000000000E+00 0.  1.
         -1    1    1    2    0  502  0.55845783207E+02  0.17168742706E+02 -0.27438919853E+03  0.28054045965E+03  0.00000000000E+00 0. -1.
<mgrwt>
<rscale>  1 0.30000000E+03</rscale>
<asrwt>0</asrwt>
<pdfrwt beam="1">  1       21 0.15503637E-01 0.30000000E+03</pdfrwt>
<pdfrwt beam="2">0</pdfrwt>
<totfact> 0.38733744E+03</totfact>
</mgrwt>
</event>
<event>
 6    1  0.1295671E-001  0.3000000E+03  0.7818608E-02  0.1093470E+00
         21   -1    0    0  501  502  0.00000000000E+00  0.00000000000E+00  0.11271560653E+01  0.11271560653E+01  0.00000000000E+00 0. -1.
         13   -1    0    0    0    0 -0.00000000000E+00 -0.00000000000E+00 -0.10000000000E+04  0.10000000000E+04  0.00000000000E+00 0.  1.
    9000005    2    1    2  501    0  0.13244162045E+02 -0.30515236004E+02 -0.53959157060E+03  0.54064276383E+03  0.53802938780E+01 0.  0.
         13    1    3    3    0    0  0.19236814573E+01 -0.10641837424E+02 -0.18000311797E+03  0.18032767878E+03  0.00000000000E+00 0.  1.
          1    1    3    3  501    0  0.11320480588E+02 -0.19873398580E+02 -0.35958845263E+03  0.36031508505E+03  0.00000000000E+00 0.  1.
         -3    1    1    2    0  502 -0.13244162045E+02  0.30515236004E+02 -0.45928127333E+03  0.46048439224E+03  0.00000000000E+00 0. -1.
<mgrwt>
<rscale>  1 0.30000000E+03</rscale>
<asrwt>0</asrwt>
<pdfrwt beam="1">  1       21 0.40987580E-02 0.30000000E+03</pdfrwt>
<pdfrwt beam="2">0</pdfrwt>
<totfact> 0.40354247E+04</totfact>
</mgrwt>
</event>
<event>
 6    1  0.1295671E-001  0.3000000E+03  0.7818608E-02  0.1093470E+00
         21   -1    0    0  501  502  0.00000000000E+00  0.00000000000E+00  0.11598531653E+01  0.11598531653E+01  0.00000000000E+00 0. -1.
         13   -1    0    0    0    0 -0.00000000000E+00 -0.00000000000E+00 -0.10000000000E+04  0.10000000000E+04  0.00000000000E+00 0.  1.
    9000005    2    1    2  501    0 -0.45507660267E+01 -0.32583649029E+02 -0.38665258329E+03  0.38808888124E+03  0.55096210164E+01 0.  0.
         13    1    3    3    0    0  0.48152084992E+00 -0.14723984950E+02 -0.15863686527E+03  0.15931943578E+03  0.00000000000E+00 0.  1.
          1    1    3    3  501    0 -0.50322868766E+01 -0.17859664080E+02 -0.22801571802E+03  0.22876944546E+03  0.00000000000E+00 0.  1.
         -3    1    1    2    0  502  0.45507660267E+01  0.32583649029E+02 -0.61218756355E+03  0.61307097193E+03  0.00000000000E+00 0. -1.
<mgrwt>
<rscale>  1 0.30000000E+03</rscale>
<asrwt>0</asrwt>
<pdfrwt beam="1">  1       21 0.42176568E-02 0.30000000E+03</pdfrwt>
<pdfrwt beam="2">0</pdfrwt>
<totfact> 0.38453049E+04</totfact>
</mgrwt>
</event>
<event>
 6    1  0.1295671E-001  0.3000000E+03  0.7818608E-02  0.1093470E+00
         21   -1    0    0  501  502  0.00000000000E+00  0.00000000000E+00  0.11862996709E+02  0.11862996709E+02  0.00000000000E+00 0. -1.
         13   -1    0    0    0    0 -0.00000000000E+00 -0.00000000000E+00 -0.10000000000E+04  0.10000000000E+04  0.00000000000E+00 0.  1.
    9000005    2    1    2  501    0 -0.71161366137E+02  0.88458098727E+01 -0.87484533066E+03  0.87778394738E+03  0.28490893283E+01 0.  0.
         13    1    3    3    0    0 -0.42707298627E+02  0.59960776011E+01 -0.51104597620E+03  0.51286241439E+03  0.00000000000E+00 0.  1.
          3    1    3    3  501    0 -0.28454067510E+02  0.28497322716E+01 -0.36379935446E+03  0.36492153299E+03  0.00000000000E+00 0.  1.
         -1    1    1    2    0  502  0.71161366137E+02 -0.88458098727E+01 -0.11329167263E+03  0.13407904933E+03  0.00000000000E+00 0. -1.
<mgrwt>
<rscale>  1 0.30000000E+03</rscale>
<asrwt>0</asrwt>
<pdfrwt beam="1">  1       21 0.43138261E-01 0.30000000E+03</pdfrwt>
<pdfrwt beam="2">0</pdfrwt>
<totfact> 0.51528844E+02</totfact>
</mgrwt>
</event>
<event>
 6    1  0.1295671E-001  0.3000000E+03  0.7818608E-02  0.1093470E+00
         21   -1    0    0  501  502  0.00000000000E+00  0.00000000000E+00  0.11305051419E+01  0.11305051419E+01  0.00000000000E+00 0. -1.
         13   -1    0    0    0    0 -0.00000000000E+00 -0.00000000000E+00 -0.10000000000E+04  0.10000000000E+04  0.00000000000E+00 0.  1.
    9000005    2    1    2  501    0 -0.24449501466E+02  0.21757256749E+02 -0.39389661419E+03  0.39527297842E+03  0.38766550734E+01 0.  0.
         13    1    3    3    0    0 -0.10694291102E+02  0.11462566565E+02 -0.20332702392E+03  0.20393047087E+03  0.00000000000E+00 0.  1.
          3    1    3    3  501    0 -0.13755210364E+02  0.10294690183E+02 -0.19056959027E+03  0.19134250755E+03  0.00000000000E+00 0.  1.
         -3    1    1    2    0  502  0.24449501466E+02 -0.21757256749E+02 -0.60497288067E+03  0.60585752672E+03  0.00000000000E+00 0. -1.
<mgrwt>
<rscale>  1 0.30000000E+03</rscale>
<asrwt>0</asrwt>
<pdfrwt beam="1">  1       21 0.41109365E-02 0.30000000E+03</pdfrwt>
<pdfrwt beam="2">0</pdfrwt>
<totfact> 0.40152852E+04</totfact>
</mgrwt>
</event>
<event>
 6    1  0.1295671E-001  0.3000000E+03  0.7818608E-02  0.1093470E+00
         21   -1    0    0  501  502  0.00000000000E+00  0.00000000000E+00  0.22115062687E+01  0.22115062687E+01  0.00000000000E+00 0. -1.
         13   -1    0    0    0    0 -0.00000000000E+00 -0.00000000000E+00 -0.10000000000E+04  0.10000000000E+04  0.00000000000E+00 0.  1.
    9000005    2    1    2  501    0 -0.34293497911E+02 -0.29817863349E+01 -0.15911275573E+03  0.16282963337E+03  0.34183938903E+01 0.  0.
         13    1    3    3    0    0 -0.30113425888E+02 -0.22352515472E+01 -0.13397559858E+03  0.13733636002E+03  0.00000000000E+00 0.  1.
          1    1    3    3  501    0 -0.41800720234E+01 -0.74653478774E+00 -0.25137157149E+02  0.25493273345E+02  0.00000000000E+00 0.  1.
         -3    1    1    2    0  502  0.34293497911E+02  0.29817863349E+01 -0.83867573800E+03  0.83938187290E+03  0.00000000000E+00 0. -1.
<mgrwt>
<rscale>  1 0.30000000E+03</rscale>
<asrwt>0</asrwt>
<pdfrwt beam="1">  1       21 0.80418579E-02 0.30000000E+03</pdfrwt>
<pdfrwt beam="2">0</pdfrwt>
<totfact> 0.12657298E+04</totfact>
</mgrwt>
</event>
<event>
 6    1  0.1295671E-001  0.3000000E+03  0.7818608E-02  0.1093470E+00
         21   -1    0    0  501  502  0.00000000000E+00  0.00000000000E+00  0.18747058926E+01  0.18747058926E+01  0.00000000000E+00 0. -1.
         13   -1    0    0    0    0 -0.00000000000E+00 -0.00000000000E+00 -0.10000000000E+04  0.10000000000E+04  0.00000000000E+00 0.  1.
    9000005    2    1    2  501    0  0.30662002565E+02  0.12688068589E+02 -0.82044003740E+03  0.82111742129E+03  0.32892386212E+01 0.  0.
         13    1    3    3    0    0  0.21693953300E+02  0.73290672236E+01 -0.56516323664E+03  0.56562693260E+03  0.00000000000E+00 0.  1.
          1    1    3    3  501    0  0.89680492658E+01  0.53590013654E+01 -0.25527680077E+03  0.25549048869E+03  0.00000000000E+00 0.  1.
         -1    1    1    2    0  502 -0.30662002565E+02 -0.12688068589E+02 -0.17768525671E+03  0.18075728460E+03  0.00000000000E+00 0. -1.
<mgrwt>
<rscale>  1 0.30000000E+03</rscale>
<asrwt>0</asrwt>
<pdfrwt beam="1">  1       21 0.68171267E-02 0.30000000E+03</pdfrwt>
<pdfrwt beam="2">0</pdfrwt>
<totfact> 0.16895228E+04</totfact>
</mgrwt>
</event>
<event>
 6    1  0.1295671E-001  0.3000000E+03  0.7818608E-02  0.1093470E+00
         21   -1    0    0  501  502  0.00000000000E+00  0.00000000000E+00  0.18036982792E+01  0.18036982792E+01  0.00000000000E+00 0. -1.
         13   -1    0    0    0    0 -0.00000000000E+00 -0.00000000000E+00 -0.10000000000E+04  0.10000000000E+04  0.00000000000E+00 0.  1.
    9000005    2    1    2  501    0 -0.38743043291E+02 -0.15661465310E+02 -0.41439030820E+03  0.41650399473E+03  0.31536011466E+01 0.  0.
         13    1    3    3    0    0 -0.19532025024E+02 -0.75652431631E+01 -0.19230864527E+03  0.19344598200E+03  0.00000000000E+00 0.  1.
          1    1    3    3  501    0 -0.19211018267E+02 -0.80962221473E+01 -0.22208166293E+03  0.22305801273E+03  0.00000000000E+00 0.  1.
         -3    1    1    2    0  502  0.38743043291E+02  0.15661465310E+02 -0.58380599352E+03  0.58529970355E+03  0.00000000000E+00 0. -1.
<mgrwt>
<rscale>  1 0.30000000E+03</rscale>
<asrwt>0</asrwt>
<pdfrwt beam="1">  1       21 0.65589167E-02 0.30000000E+03</pdfrwt>
<pdfrwt beam="2">0</pdfrwt>
<totfact> 0.18065517E+04</totfact>
</mgrwt>
</event>
<event>
 6    1  0.1295671E-001  0.3000000E+03  0.7818608E-02  0.1093470E+00
         21   -1    0    0  501  502  0.00000000000E+00  0.00000000000E+00  0.79089656024E+01  0.79089656024E+01  0.00000000000E+00 0. -1.
         13   -1    0    0    0    0 -0.00000000000E+00 -0.00000000000E+00 -0.10000000000E+04  0.10000000000E+04  0.00000000000E+00 0.  1.
    9000005    2    1    2  501    0  0.25500750290E+02  0.57884743899E+02 -0.85023300548E+03  0.85258790390E+03  0.30063961708E+01 0.  0.
         13    1    3    3    0    0  0.21016559243E+02  0.46167599290E+02 -0.66740506493E+03  0.66933001104E+03  0.00000000000E+00 0.  1.
          3    1    3    3  501    0  0.44841910467E+01  0.11717144609E+02 -0.18282794056E+03  0.18325789286E+03  0.00000000000E+00 0.  1.
         -1    1    1    2    0  502 -0.25500750290E+02 -0.57884743899E+02 -0.14185802891E+03  0.15532106170E+03  0.00000000000E+00 0. -1.
<mgrwt>
<rscale>  1 0.30000000E+03</rscale>
<asrwt>0</asrwt>
<pdfrwt beam="1">  1       21 0.28759936E-01 0.30000000E+03</pdfrwt>
<pdfrwt beam="2">0</pdfrwt>
<totfact> 0.11827959E+03</totfact>
</mgrwt>
</event>
<event>
 6    1  0.1295671E-001  0.3000000E+03  0.7818608E-02  0.1093470E+00
         21   -1    0    0  501  502  0.00000000000E+00  0.00000000000E+00  0.17704627371E+02  0.17704627371E+02  0.00000000000E+00 0. -1.
         13   -1    0    0    0    0 -0.00000000000E+00 -0.00000000000E+00 -0.10000000000E+04  0.10000000000E+04  0.00000000000E+00 0.  1.
    9000005    2    1    2  501    0 -0.64326186574E+02 -0.38038036780E+02 -0.91212933661E+03  0.91519597831E+03  0.43590701170E+01 0.  0.
         13    1    3    3    0    0 -0.41566408962E+02 -0.25441902348E+02 -0.61800003899E+03  0.61991862768E+03  0.00000000000E+00 0.  1.
          1    1    3    3  501    0 -0.22759777612E+02 -0.12596134432E+02 -0.29412929762E+03  0.29527735063E+03  0.00000000000E+00 0.  1.
         -3    1    1    2    0  502  0.64326186574E+02  0.38038036780E+02 -0.70166036022E+02  0.10250864906E+03  0.00000000000E+00 0. -1.
<mgrwt>
<rscale>  1 0.30000000E+03</rscale>
<asrwt>0</asrwt>
<pdfrwt beam="1">  1       21 0.64380599E-01 0.30000000E+03</pdfrwt>
<pdfrwt beam="2">0</pdfrwt>
<totfact> 0.21405836E+02</totfact>
</mgrwt>
</event>
<event>
 6    1  0.1295671E-001  0.3000000E+03  0.7818608E-02  0.1093470E+00
         21   -1    0    0  501  502  0.00000000000E+00  0.00000000000E+00  0.12420705811E+02  0.12420705811E+02  0.00000000000E+00 0. -1.
         13   -1    0    0    0    0 -0.00000000000E+00 -0.00000000000E+00 -0.10000000000E+04  0.10000000000E+04  0.00000000000E+00 0.  1.
    9000005    2    1    2  501    0 -0.45252268035E+02 -0.29333182543E+00 -0.95637843480E+03  0.95745392100E+03  0.32321022870E+01 0.  0.
         13    1    3    3    0    0 -0.33009055424E+02 -0.14572221840E+01 -0.71187040346E+03  0.71263678867E+03  0.00000000000E+00 0.  1.
          1    1    3    3  501    0 -0.12243212611E+02  0.11638903585E+01 -0.24450803134E+03  0.24481713233E+03  0.00000000000E+00 0.  1.
         -1    1    1    2    0  502  0.45252268035E+02  0.29333182543E+00 -0.31200859393E+02  0.54966784814E+02  0.00000000000E+00 0. -1.
<mgrwt>
<rscale>  1 0.30000000E+03</rscale>
<asrwt>0</asrwt>
<pdfrwt beam="1">  1       21 0.45166298E-01 0.30000000E+03</pdfrwt>
<pdfrwt beam="2">0</pdfrwt>
<totfact> 0.46740767E+02</totfact>
</mgrwt>
</event>
<event>
 6    1  0.1295671E-001  0.3000000E+03  0.7818608E-02  0.1093470E+00
         21   -1    0    0  501  502  0.00000000000E+00  0.00000000000E+00  0.12138096454E+01  0.12138096454E+01  0.00000000000E+00 0. -1.
         13   -1    0    0    0    0 -0.00000000000E+00 -0.00000000000E+00 -0.10000000000E+04  0.10000000000E+04  0.00000000000E+00 0.  1.
    9000005    2    1    2  501    0  0.85344444978E+01 -0.33610230961E+02 -0.46472693261E+03  0.46602993924E+03  0.32090495817E+01 0.  0.
         13    1    3    3    0    0  0.87425347797E+01 -0.31668501568E+02 -0.43486965102E+03  0.43610886173E+03  0.00000000000E+00 0.  1.
          1    1    3    3  501    0 -0.20809028193E+00 -0.19417293924E+01 -0.29857281596E+02  0.29921077503E+02  0.00000000000E+00 0.  1.
         -3    1    1    2    0  502 -0.85344444978E+01  0.33610230961E+02 -0.53405925774E+03  0.53518387041E+03  0.00000000000E+00 0. -1.
<mgrwt>
<rscale>  1 0.30000000E+03</rscale>
<asrwt>0</asrwt>
<pdfrwt beam="1">  1       21 0.44138626E-02 0.30000000E+03</pdfrwt>
<pdfrwt beam="2">0</pdfrwt>
<totfact> 0.35606145E+04</totfact>
</mgrwt>
</event>
<event>
 6    1  0.1295671E-001  0.3000000E+03  0.7818608E-02  0.1093470E+00
         21   -1    0    0  501  502  0.00000000000E+00  0.00000000000E+00  0.19453013933E+01  0.19453013933E+01  0.00000000000E+00 0. -1.
         13   -1    0    0    0    0 -0.00000000000E+00 -0.00000000000E+00 -0.10000000000E+04  0.10000000000E+04  0.00000000000E+00 0.  1.
    9000005    2    1    2  501    0  0.77914736119E+01  0.36093798574E+02 -0.22774412734E+03  0.23075022519E+03  0.38483152665E+01 0.  0.
         13    1    3    3    0    0  0.69719874362E+01  0.34866573533E+02 -0.21491516840E+03  0.21783667314E+03  0.00000000000E+00 0.  1.
          1    1    3    3  501    0  0.81948617574E+00  0.12272250406E+01 -0.12828958942E+02  0.12913552045E+02  0.00000000000E+00 0.  1.
         -3    1    1    2    0  502 -0.77914736119E+01 -0.36093798574E+02 -0.77031057127E+03  0.77119507620E+03  0.00000000000E+00 0. -1.
<mgrwt>
<rscale>  1 0.30000000E+03</rscale>
<asrwt>0</asrwt>
<pdfrwt beam="1">  1       21 0.70738382E-02 0.30000000E+03</pdfrwt>
<pdfrwt beam="2">0</pdfrwt>
<totfact> 0.15843183E+04</totfact>
</mgrwt>
</event>
<event>
 6    1  0.1295671E-001  0.3000000E+03  0.7818608E-02  0.1093470E+00
         21   -1    0    0  501  502  0.00000000000E+00  0.00000000000E+00  0.83365851814E+01  0.83365851814E+01  0.00000000000E+00 0. -1.
         13   -1    0    0    0    0 -0.00000000000E+00 -0.00000000000E+00 -0.10000000000E+04  0.10000000000E+04  0.00000000000E+00 0.  1.
    9000005    2    1    2  501    0  0.65564891221E+02  0.28089309966E+02 -0.81040906449E+03  0.81355233580E+03  0.40971915102E+01 0.  0.
         13    1    3    3    0    0  0.12279695786E+02  0.42754155605E+01 -0.16299166221E+03  0.16350948614E+03  0.00000000000E+00 0.  1.
          1    1    3    3  501    0  0.53285195434E+02  0.23813894406E+02 -0.64741740228E+03  0.65004284966E+03  0.00000000000E+00 0.  1.
         -3    1    1    2    0  502 -0.65564891221E+02 -0.28089309966E+02 -0.18125435033E+03  0.19478424938E+03  0.00000000000E+00 0. -1.
<mgrwt>
<rscale>  1 0.30000000E+03</rscale>
<asrwt>0</asrwt>
<pdfrwt beam="1">  1       21 0.30314919E-01 0.30000000E+03</pdfrwt>
<pdfrwt beam="2">0</pdfrwt>
<totfact> 0.10647849E+03</totfact>
</mgrwt>
</event>
<event>
 6    1  0.1295671E-001  0.3000000E+03  0.7818608E-02  0.1093470E+00
         21   -1    0    0  501  502  0.00000000000E+00  0.00000000000E+00  0.15486911057E+01  0.15486911057E+01  0.00000000000E+00 0. -1.
         13   -1    0    0    0    0 -0.00000000000E+00 -0.00000000000E+00 -0.10000000000E+04  0.10000000000E+04  0.00000000000E+00 0.  1.
    9000005    2    1    2  501    0 -0.33537156100E+02  0.18611278474E+02 -0.60789568820E+03  0.60911422093E+03  0.34417847181E+01 0.  0.
         13    1    3    3    0    0 -0.19190974081E+02  0.91567358459E+01 -0.35360865444E+03  0.35424739913E+03  0.00000000000E+00 0.  1.
          1    1    3    3  501    0 -0.14346182019E+02  0.94545426281E+01 -0.25428703376E+03  0.25486682180E+03  0.00000000000E+00 0.  1.
         -1    1    1    2    0  502  0.33537156100E+02 -0.18611278474E+02 -0.39055562070E+03  0.39243447018E+03  0.00000000000E+00 0. -1.
<mgrwt>
<rscale>  1 0.30000000E+03</rscale>
<asrwt>0</asrwt>
<pdfrwt beam="1">  1       21 0.56316159E-02 0.30000000E+03</pdfrwt>
<pdfrwt beam="2">0</pdfrwt>
<totfact> 0.23500735E+04</totfact>
</mgrwt>
</event>
<event>
 6    1  0.1295671E-001  0.3000000E+03  0.7818608E-02  0.1093470E+00
         21   -1    0    0  501  502  0.00000000000E+00  0.00000000000E+00  0.14900760096E+01  0.14900760096E+01  0.00000000000E+00 0. -1.
         13   -1    0    0    0    0 -0.00000000000E+00 -0.00000000000E+00 -0.10000000000E+04  0.10000000000E+04  0.00000000000E+00 0.  1.
    9000005    2    1    2  501    0 -0.34079212568E+02  0.52756476858E+01 -0.72250013551E+03  0.72333431295E+03  0.41057627068E+01 0.  0.
         13    1    3    3    0    0 -0.16646974507E+02  0.92931944782E+00 -0.32184584146E+03  0.32227741320E+03  0.00000000000E+00 0.  1.
          3    1    3    3  501    0 -0.17432238061E+02  0.43463282380E+01 -0.40065429405E+03  0.40105689975E+03  0.00000000000E+00 0.  1.
         -1    1    1    2    0  502  0.34079212568E+02 -0.52756476858E+01 -0.27600978848E+03  0.27815576306E+03  0.00000000000E+00 0. -1.
<mgrwt>
<rscale>  1 0.30000000E+03</rscale>
<asrwt>0</asrwt>
<pdfrwt beam="1">  1       21 0.54184696E-02 0.30000000E+03</pdfrwt>
<pdfrwt beam="2">0</pdfrwt>
<totfact> 0.25108632E+04</totfact>
</mgrwt>
</event>
<event>
 6    1  0.1295671E-001  0.3000000E+03  0.7818608E-02  0.1093470E+00
         21   -1    0    0  501  502  0.00000000000E+00  0.00000000000E+00  0.22959453819E+01  0.22959453819E+01  0.00000000000E+00 0. -1.
         13   -1    0    0    0    0 -0.00000000000E+00 -0.00000000000E+00 -0.10000000000E+04  0.10000000000E+04  0.00000000000E+00 0.  1.
    9000005    2    1    2  501    0  0.17373098196E+02  0.25987168983E+02 -0.87838927487E+03  0.87895424862E+03  0.39617515942E+01 0.  0.
         13    1    3    3    0    0  0.41245843655E+01  0.36761366931E+01 -0.13877729739E+03  0.13888723645E+03  0.00000000000E+00 0.  1.
          1    1    3    3  501    0  0.13248513831E+02  0.22311032290E+02 -0.73961197747E+03  0.74006701217E+03  0.00000000000E+00 0.  1.
         -1    1    1    2    0  502 -0.17373098196E+02 -0.25987168983E+02 -0.11931477975E+03  0.12334169676E+03  0.00000000000E+00 0. -1.
<mgrwt>
<rscale>  1 0.30000000E+03</rscale>
<asrwt>0</asrwt>
<pdfrwt beam="1">  1       21 0.83489099E-02 0.30000000E+03</pdfrwt>
<pdfrwt beam="2">0</pdfrwt>
<totfact> 0.11849936E+04</totfact>
</mgrwt>
</event>
<event>
 6    1  0.1295671E-001  0.3000000E+03  0.7818608E-02  0.1093470E+00
         21   -1    0    0  501  502  0.00000000000E+00  0.00000000000E+00  0.17139755562E+01  0.17139755562E+01  0.00000000000E+00 0. -1.
         13   -1    0    0    0    0 -0.00000000000E+00 -0.00000000000E+00 -0.10000000000E+04  0.10000000000E+04  0.00000000000E+00 0.  1.
    9000005    2    1    2  501    0  0.37370469832E+02 -0.67484472696E+01 -0.30398643111E+03  0.30637663379E+03  0.40985210996E+01 0.  0.
         13    1    3    3    0    0  0.17275255949E+02 -0.11813984047E+01 -0.14374296377E+03  0.14478214601E+03  0.00000000000E+00 0.  1.
          1    1    3    3  501    0  0.20095213883E+02 -0.55670488650E+01 -0.16024346734E+03  0.16159448777E+03  0.00000000000E+00 0.  1.
         -1    1    1    2    0  502 -0.37370469832E+02  0.67484472696E+01 -0.69429959333E+03  0.69533734177E+03  0.00000000000E+00 0. -1.
<mgrwt>
<rscale>  1 0.30000000E+03</rscale>
<asrwt>0</asrwt>
<pdfrwt beam="1">  1       21 0.62326515E-02 0.30000000E+03</pdfrwt>
<pdfrwt beam="2">0</pdfrwt>
<totfact> 0.19732498E+04</totfact>
</mgrwt>
</event>
<event>
 6    1  0.1295671E-001  0.3000000E+03  0.7818608E-02  0.1093470E+00
         21   -1    0    0  501  502  0.00000000000E+00  0.00000000000E+00  0.14539877374E+01  0.14539877374E+01  0.00000000000E+00 0. -1.
         13   -1    0    0    0    0 -0.00000000000E+00 -0.00000000000E+00 -0.10000000000E+04  0.10000000000E+04  0.00000000000E+00 0.  1.
    9000005    2    1    2  501    0  0.15494565295E+02 -0.32483023101E+02 -0.66054732985E+03  0.66154467975E+03  0.48332174238E+01 0.  0.
         13    1    3    3    0    0  0.70977351493E+01 -0.10218456808E+02 -0.24745782185E+03  0.24777039432E+03  0.00000000000E+00 0.  1.
          1    1    3    3  501    0  0.83968301460E+01 -0.22264566293E+02 -0.41308950799E+03  0.41377428543E+03  0.00000000000E+00 0.  1.
         -3    1    1    2    0  502 -0.15494565295E+02  0.32483023101E+02 -0.33799868241E+03  0.33990930799E+03  0.00000000000E+00 0. -1.
<mgrwt>
<rscale>  1 0.30000000E+03</rscale>
<asrwt>0</asrwt>
<pdfrwt beam="1">  1       21 0.52872393E-02 0.30000000E+03</pdfrwt>
<pdfrwt beam="2">0</pdfrwt>
<totfact> 0.26184590E+04</totfact>
</mgrwt>
</event>
<event>
 6    1  0.1295671E-001  0.3000000E+03  0.7818608E-02  0.1093470E+00
         21   -1    0    0  501  502  0.00000000000E+00  0.00000000000E+00  0.21243832633E+01  0.21243832633E+01  0.00000000000E+00 0. -1.
         13   -1    0    0    0    0 -0.00000000000E+00 -0.00000000000E+00 -0.10000000000E+04  0.10000000000E+04  0.00000000000E+00 0.  1.
    9000005    2    1    2  501    0 -0.43492706933E+02 -0.69011058371E+01 -0.35383241244E+03  0.35657741377E+03  0.32916715278E+01 0.  0.
         13    1    3    3    0    0 -0.33168596143E+02 -0.57313388795E+01 -0.28056927753E+03  0.28258118038E+03  0.00000000000E+00 0.  1.
          1    1    3    3  501    0 -0.10324110790E+02 -0.11697669576E+01 -0.73263134912E+02  0.73996233387E+02  0.00000000000E+00 0.  1.
         -1    1    1    2    0  502  0.43492706933E+02  0.69011058371E+01 -0.64404320430E+03  0.64554696949E+03  0.00000000000E+00 0. -1.
<mgrwt>
<rscale>  1 0.30000000E+03</rscale>
<asrwt>0</asrwt>
<pdfrwt beam="1">  1       21 0.77250463E-02 0.30000000E+03</pdfrwt>
<pdfrwt beam="2">0</pdfrwt>
<totfact> 0.13582381E+04</totfact>
</mgrwt>
</event>
<event>
 6    1  0.1295671E-001  0.3000000E+03  0.7818608E-02  0.1093470E+00
         21   -1    0    0  501  502  0.00000000000E+00  0.00000000000E+00  0.50381060240E+01  0.50381060240E+01  0.00000000000E+00 0. -1.
         13   -1    0    0    0    0 -0.00000000000E+00 -0.00000000000E+00 -0.10000000000E+04  0.10000000000E+04  0.00000000000E+00 0.  1.
    9000005    2    1    2  501    0  0.60599932634E+02  0.19324201656E+02 -0.72015249964E+03  0.72296368354E+03  0.33299209926E+01 0.  0.
         13    1    3    3    0    0  0.24591595370E+02  0.94255697256E+01 -0.29056940159E+03  0.29176045837E+03  0.00000000000E+00 0.  1.
          1    1    3    3  501    0  0.36008337264E+02  0.98986319302E+01 -0.42958309805E+03  0.43120322517E+03  0.00000000000E+00 0.  1.
         -3    1    1    2    0  502 -0.60599932634E+02 -0.19324201656E+02 -0.27480939433E+03  0.28207442248E+03  0.00000000000E+00 0. -1.
<mgrwt>
<rscale>  1 0.30000000E+03</rscale>
<asrwt>0</asrwt>
<pdfrwt beam="1">  1       21 0.18320424E-01 0.30000000E+03</pdfrwt>
<pdfrwt beam="2">0</pdfrwt>
<totfact> 0.28337053E+03</totfact>
</mgrwt>
</event>
<event>
 6    1  0.1295671E-001  0.3000000E+03  0.7818608E-02  0.1093470E+00
         21   -1    0    0  501  502  0.00000000000E+00  0.00000000000E+00  0.20524974439E+01  0.20524974439E+01  0.00000000000E+00 0. -1.
         13   -1    0    0    0    0 -0.00000000000E+00 -0.00000000000E+00 -0.10000000000E+04  0.10000000000E+04  0.00000000000E+00 0.  1.
    9000005    2    1    2  501    0  0.11671498965E+02 -0.43700725729E+02 -0.50500811813E+03  0.50704218034E+03  0.35490777601E+01 0.  0.
         13    1    3    3    0    0  0.73060818549E+01 -0.31329350614E+02 -0.34446178758E+03  0.34596073498E+03  0.00000000000E+00 0.  1.
          3    1    3    3  501    0  0.43654171099E+01 -0.12371375116E+02 -0.16054633055E+03  0.16108144537E+03  0.00000000000E+00 0.  1.
         -1    1    1    2    0  502 -0.11671498965E+02  0.43700725729E+02 -0.49293938443E+03  0.49501031710E+03  0.00000000000E+00 0. -1.
<mgrwt>
<rscale>  1 0.30000000E+03</rscale>
<asrwt>0</asrwt>
<pdfrwt beam="1">  1       21 0.74636428E-02 0.30000000E+03</pdfrwt>
<pdfrwt beam="2">0</pdfrwt>
<totfact> 0.14426675E+04</totfact>
</mgrwt>
</event>
<event>
 6    1  0.1295671E-001  0.3000000E+03  0.7818608E-02  0.1093470E+00
         21   -1    0    0  501  502  0.00000000000E+00  0.00000000000E+00  0.11927709445E+02  0.11927709445E+02  0.00000000000E+00 0. -1.
         13   -1    0    0    0    0 -0.00000000000E+00 -0.00000000000E+00 -0.10000000000E+04  0.10000000000E+04  0.00000000000E+00 0.  1.
    9000005    2    1    2  501    0 -0.65008363061E+02 -0.53977057822E+02 -0.81459159568E+03  0.81896356372E+03  0.14969696767E+01 0.  0.
         13    1    3    3    0    0 -0.48424757720E+02 -0.39666433984E+02 -0.59848283310E+03  0.60174752568E+03  0.00000000000E+00 0.  1.
          3    1    3    3  501    0 -0.16583605341E+02 -0.14310623838E+02 -0.21610876258E+03  0.21721603805E+03  0.00000000000E+00 0.  1.
         -3    1    1    2    0  502  0.65008363061E+02  0.53977057822E+02 -0.17348069488E+03  0.19296414572E+03  0.00000000000E+00 0. -1.
<mgrwt>
<rscale>  1 0.30000000E+03</rscale>
<asrwt>0</asrwt>
<pdfrwt beam="1">  1       21 0.43373580E-01 0.30000000E+03</pdfrwt>
<pdfrwt beam="2">0</pdfrwt>
<totfact> 0.50938746E+02</totfact>
</mgrwt>
</event>
<event>
 6    1  0.1295671E-001  0.3000000E+03  0.7818608E-02  0.1093470E+00
         21   -1    0    0  501  502  0.00000000000E+00  0.00000000000E+00  0.12746964730E+01  0.12746964730E+01  0.00000000000E+00 0. -1.
         13   -1    0    0    0    0 -0.00000000000E+00 -0.00000000000E+00 -0.10000000000E+04  0.10000000000E+04  0.00000000000E+00 0.  1.
    9000005    2    1    2  501    0 -0.16035156138E+02 -0.29827393552E+02 -0.65568667093E+03  0.65656858528E+03  0.32399236614E+01 0.  0.
         13    1    3    3    0    0 -0.61580949368E+01 -0.12092861320E+02 -0.29336755667E+03  0.29368126044E+03  0.00000000000E+00 0.  1.
          3    1    3    3  501    0 -0.98770612013E+01 -0.17734532231E+02 -0.36231911426E+03  0.36288732484E+03  0.00000000000E+00 0.  1.
         -1    1    1    2    0  502  0.16035156138E+02  0.29827393552E+02 -0.34303863259E+03  0.34470611119E+03  0.00000000000E+00 0. -1.
<mgrwt>
<rscale>  1 0.30000000E+03</rscale>
<asrwt>0</asrwt>
<pdfrwt beam="1">  1       21 0.46352697E-02 0.30000000E+03</pdfrwt>
<pdfrwt beam="2">0</pdfrwt>
<totfact> 0.32767738E+04</totfact>
</mgrwt>
</event>
<event>
 6    1  0.1295671E-001  0.3000000E+03  0.7818608E-02  0.1093470E+00
         21   -1    0    0  501  502  0.00000000000E+00  0.00000000000E+00  0.13229749859E+01  0.13229749859E+01  0.00000000000E+00 0. -1.
         13   -1    0    0    0    0 -0.00000000000E+00 -0.00000000000E+00 -0.10000000000E+04  0.10000000000E+04  0.00000000000E+00 0.  1.
    9000005    2    1    2  501    0  0.32663123847E+02  0.30175201683E+01 -0.28653167895E+03  0.28842257591E+03  0.33457679142E+01 0.  0.
         13    1    3    3    0    0  0.23792150687E+02  0.17225922304E+01 -0.19528012739E+03  0.19673170032E+03  0.00000000000E+00 0.  1.
          1    1    3    3  501    0  0.88709731599E+01  0.12949279379E+01 -0.91251551563E+02  0.91690875587E+02  0.00000000000E+00 0.  1.
         -1    1    1    2    0  502 -0.32663123847E+02 -0.30175201683E+01 -0.71214534606E+03  0.71290039908E+03  0.00000000000E+00 0. -1.
<mgrwt>
<rscale>  1 0.30000000E+03</rscale>
<asrwt>0</asrwt>
<pdfrwt beam="1">  1       21 0.48108283E-02 0.30000000E+03</pdfrwt>
<pdfrwt beam="2">0</pdfrwt>
<totfact> 0.30760365E+04</totfact>
</mgrwt>
</event>
<event>
 6    1  0.1295671E-001  0.3000000E+03  0.7818608E-02  0.1093470E+00
         21   -1    0    0  501  502  0.00000000000E+00  0.00000000000E+00  0.25394080269E+01  0.25394080269E+01  0.00000000000E+00 0. -1.
         13   -1    0    0    0    0 -0.00000000000E+00 -0.00000000000E+00 -0.10000000000E+04  0.10000000000E+04  0.00000000000E+00 0.  1.
    9000005    2    1    2  501    0 -0.42128822040E+02  0.82816028720E+01 -0.75996382989E+03  0.76119290486E+03  0.51179165822E+01 0.  0.
         13    1    3    3    0    0 -0.41197218095E+02  0.81825768894E+01 -0.72433563402E+03  0.72555239374E+03  0.00000000000E+00 0.  1.
          3    1    3    3  501    0 -0.93160394550E+00  0.99025982567E-01 -0.35628195864E+02  0.35640511116E+02  0.00000000000E+00 0.  1.
         -3    1    1    2    0  502  0.42128822040E+02 -0.82816028720E+01 -0.23749676208E+03  0.24134650317E+03  0.00000000000E+00 0. -1.
<mgrwt>
<rscale>  1 0.30000000E+03</rscale>
<asrwt>0</asrwt>
<pdfrwt beam="1">  1       21 0.92342305E-02 0.30000000E+03</pdfrwt>
<pdfrwt beam="2">0</pdfrwt>
<totfact> 0.99157354E+03</totfact>
</mgrwt>
</event>
<event>
 6    1  0.1295671E-001  0.3000000E+03  0.7818608E-02  0.1093470E+00
         21   -1    0    0  501  502  0.00000000000E+00  0.00000000000E+00  0.15077643947E+01  0.15077643947E+01  0.00000000000E+00 0. -1.
         13   -1    0    0    0    0 -0.00000000000E+00 -0.00000000000E+00 -0.10000000000E+04  0.10000000000E+04  0.00000000000E+00 0.  1.
    9000005    2    1    2  501    0 -0.29423415879E+02 -0.23971496441E+02 -0.60264248798E+03  0.60384283919E+03  0.27992995048E+01 0.  0.
         13    1    3    3    0    0 -0.20225576935E+02 -0.15247398344E+02 -0.38689762483E+03  0.38772584286E+03  0.00000000000E+00 0.  1.
          1    1    3    3  501    0 -0.91978389440E+01 -0.87240980976E+01 -0.21574486315E+03  0.21611699633E+03  0.00000000000E+00 0.  1.
         -1    1    1    2    0  502  0.29423415879E+02  0.23971496441E+02 -0.39584974763E+03  0.39766492521E+03  0.00000000000E+00 0. -1.
<mgrwt>
<rscale>  1 0.30000000E+03</rscale>
<asrwt>0</asrwt>
<pdfrwt beam="1">  1       21 0.54827912E-02 0.30000000E+03</pdfrwt>
<pdfrwt beam="2">0</pdfrwt>
<totfact> 0.24605998E+04</totfact>
</mgrwt>
</event>
<event>
 6    1  0.1295671E-001  0.3000000E+03  0.7818608E-02  0.1093470E+00
         21   -1    0    0  501  502  0.00000000000E+00  0.00000000000E+00  0.15740464644E+01  0.15740464644E+01  0.00000000000E+00 0. -1.
         13   -1    0    0    0    0 -0.00000000000E+00 -0.00000000000E+00 -0.10000000000E+04  0.10000000000E+04  0.00000000000E+00 0.  1.
    9000005    2    1    2  501    0  0.34891646808E+02 -0.17116974745E+02 -0.59528930684E+03  0.59656839990E+03  0.37522097158E+01 0.  0.
         13    1    3    3    0    0  0.20791270940E+01 -0.13738849409E+01 -0.26919064526E+02  0.27034170308E+02  0.00000000000E+00 0.  1.
          1    1    3    3  501    0  0.32812519714E+02 -0.15743089804E+02 -0.56837024232E+03  0.56953422959E+03  0.00000000000E+00 0.  1.
         -1    1    1    2    0  502 -0.34891646808E+02  0.17116974745E+02 -0.40313664669E+03  0.40500564656E+03  0.00000000000E+00 0. -1.
<mgrwt>
<rscale>  1 0.30000000E+03</rscale>
<asrwt>0</asrwt>
<pdfrwt beam="1">  1       21 0.57238174E-02 0.30000000E+03</pdfrwt>
<pdfrwt beam="2">0</pdfrwt>
<totfact> 0.22853779E+04</totfact>
</mgrwt>
</event>
<event>
 6    1  0.1295671E-001  0.3000000E+03  0.7818608E-02  0.1093470E+00
         21   -1    0    0  501  502  0.00000000000E+00  0.00000000000E+00  0.15681498432E+01  0.15681498432E+01  0.00000000000E+00 0. -1.
         13   -1    0    0    0    0 -0.00000000000E+00 -0.00000000000E+00 -0.10000000000E+04  0.10000000000E+04  0.00000000000E+00 0.  1.
    9000005    2    1    2  501    0 -0.23076001417E+02  0.22963086213E+02 -0.78357848602E+03  0.78426243604E+03  0.35383136194E+01 0.  0.
         13    1    3    3    0    0 -0.22844325478E+02  0.23072795109E+02 -0.77439381097E+03  0.77507418454E+03  0.00000000000E+00 0.  1.
          3    1    3    3  501    0 -0.23167593907E+00 -0.10970889643E+00 -0.91846750530E+01  0.91882514991E+01  0.00000000000E+00 0.  1.
         -3    1    1    2    0  502  0.23076001417E+02 -0.22963086213E+02 -0.21485336414E+03  0.21730571380E+03  0.00000000000E+00 0. -1.
<mgrwt>
<rscale>  1 0.30000000E+03</rscale>
<asrwt>0</asrwt>
<pdfrwt beam="1">  1       21 0.57023751E-02 0.30000000E+03</pdfrwt>
<pdfrwt beam="2">0</pdfrwt>
<totfact> 0.23001777E+04</totfact>
</mgrwt>
</event>
<event>
 6    1  0.1295671E-001  0.3000000E+03  0.7818608E-02  0.1093470E+00
         21   -1    0    0  501  502  0.00000000000E+00  0.00000000000E+00  0.17553050884E+01  0.17553050884E+01  0.00000000000E+00 0. -1.
         13   -1    0    0    0    0 -0.00000000000E+00 -0.00000000000E+00 -0.10000000000E+04  0.10000000000E+04  0.00000000000E+00 0.  1.
    9000005    2    1    2  501    0 -0.80992986396E+01 -0.33078278058E+02 -0.79032327691E+03  0.79106338028E+03  0.32585992075E+01 0.  0.
         13    1    3    3    0    0 -0.66139249710E+01 -0.21871419988E+02 -0.54968415936E+03  0.55015886621E+03  0.00000000000E+00 0.  1.
          3    1    3    3  501    0 -0.14853736686E+01 -0.11206858069E+02 -0.24063911755E+03  0.24090451407E+03  0.00000000000E+00 0.  1.
         -1    1    1    2    0  502  0.80992986396E+01  0.33078278058E+02 -0.20792141800E+03  0.21069192481E+03  0.00000000000E+00 0. -1.
<mgrwt>
<rscale>  1 0.30000000E+03</rscale>
<asrwt>0</asrwt>
<pdfrwt beam="1">  1       21 0.63829411E-02 0.30000000E+03</pdfrwt>
<pdfrwt beam="2">0</pdfrwt>
<totfact> 0.18936299E+04</totfact>
</mgrwt>
</event>
<event>
 6    1  0.1295671E-001  0.3000000E+03  0.7818608E-02  0.1093470E+00
         21   -1    0    0  501  502  0.00000000000E+00  0.00000000000E+00  0.31902010627E+01  0.31902010627E+01  0.00000000000E+00 0. -1.
         13   -1    0    0    0    0 -0.00000000000E+00 -0.00000000000E+00 -0.10000000000E+04  0.10000000000E+04  0.00000000000E+00 0.  1.
    9000005    2    1    2  501    0  0.34399113222E+02 -0.95079688579E+01 -0.88700607513E+03  0.88773216442E+03  0.38623794529E+01 0.  0.
         13    1    3    3    0    0  0.21933550472E+02 -0.67008968890E+01 -0.52513562240E+03  0.52563619031E+03  0.00000000000E+00 0.  1.
          3    1    3    3  501    0  0.12465562750E+02 -0.28070719690E+01 -0.36187045273E+03  0.36209597411E+03  0.00000000000E+00 0.  1.
         -1    1    1    2    0  502 -0.34399113222E+02  0.95079688579E+01 -0.10980372381E+03  0.11545803664E+03  0.00000000000E+00 0. -1.
<mgrwt>
<rscale>  1 0.30000000E+03</rscale>
<asrwt>0</asrwt>
<pdfrwt beam="1">  1       21 0.11600756E-01 0.30000000E+03</pdfrwt>
<pdfrwt beam="2">0</pdfrwt>
<totfact> 0.65888500E+03</totfact>
</mgrwt>
</event>
<event>
 6    1  0.1295671E-001  0.3000000E+03  0.7818608E-02  0.1093470E+00
         21   -1    0    0  501  502  0.00000000000E+00  0.00000000000E+00  0.43900986598E+01  0.43900986598E+01  0.00000000000E+00 0. -1.
         13   -1    0    0    0    0 -0.00000000000E+00 -0.00000000000E+00 -0.10000000000E+04  0.10000000000E+04  0.00000000000E+00 0.  1.
    9000005    2    1    2  501    0 -0.20063390344E+02 -0.25553330820E+02 -0.93544200236E+03  0.93601109299E+03  0.30844905575E+01 0.  0.
         13    1    3    3    0    0 -0.12986156597E+02 -0.16351602838E+02 -0.64230159653E+03  0.64264092313E+03  0.00000000000E+00 0.  1.
          3    1    3    3  501    0 -0.70772337474E+01 -0.92017279817E+01 -0.29314040582E+03  0.29337016986E+03  0.00000000000E+00 0.  1.
         -3    1    1    2    0  502  0.20063390344E+02  0.25553330820E+02 -0.60167898984E+02  0.68379005669E+02  0.00000000000E+00 0. -1.
<mgrwt>
<rscale>  1 0.30000000E+03</rscale>
<asrwt>0</asrwt>
<pdfrwt beam="1">  1       21 0.15964029E-01 0.30000000E+03</pdfrwt>
<pdfrwt beam="2">0</pdfrwt>
<totfact> 0.36680189E+03</totfact>
</mgrwt>
</event>
<event>
 6    1  0.1295671E-001  0.3000000E+03  0.7818608E-02  0.1093470E+00
         21   -1    0    0  501  502  0.00000000000E+00  0.00000000000E+00  0.16529039785E+01  0.16529039785E+01  0.00000000000E+00 0. -1.
         13   -1    0    0    0    0 -0.00000000000E+00 -0.00000000000E+00 -0.10000000000E+04  0.10000000000E+04  0.00000000000E+00 0.  1.
    9000005    2    1    2  501    0 -0.20128586890E+02 -0.31478228511E+02 -0.69511366410E+03  0.69612622247E+03  0.35598746523E+01 0.  0.
         13    1    3    3    0    0 -0.19319066308E+02 -0.31039376980E+02 -0.67141459414E+03  0.67240927007E+03  0.00000000000E+00 0.  1.
          3    1    3    3  501    0 -0.80952058203E+00 -0.43885153155E+00 -0.23699069962E+02  0.23716952403E+02  0.00000000000E+00 0.  1.
         -1    1    1    2    0  502  0.20128586890E+02  0.31478228511E+02 -0.30323343192E+03  0.30552668151E+03  0.00000000000E+00 0. -1.
<mgrwt>
<rscale>  1 0.30000000E+03</rscale>
<asrwt>0</asrwt>
<pdfrwt beam="1">  1       21 0.60105726E-02 0.30000000E+03</pdfrwt>
<pdfrwt beam="2">0</pdfrwt>
<totfact> 0.21007780E+04</totfact>
</mgrwt>
</event>
<event>
 6    1  0.1295671E-001  0.3000000E+03  0.7818608E-02  0.1093470E+00
         21   -1    0    0  501  502  0.00000000000E+00  0.00000000000E+00  0.10498298083E+01  0.10498298083E+01  0.00000000000E+00 0. -1.
         13   -1    0    0    0    0 -0.00000000000E+00 -0.00000000000E+00 -0.10000000000E+04  0.10000000000E+04  0.00000000000E+00 0.  1.
    9000005    2    1    2  501    0  0.18301865140E+02  0.24788307737E+02 -0.65019105474E+03  0.65093222231E+03  0.38641832871E+01 0.  0.
         13    1    3    3    0    0  0.41727783924E+01  0.77094797006E+01 -0.21137281343E+03  0.21155451877E+03  0.00000000000E+00 0.  1.
          3    1    3    3  501    0  0.14129086747E+02  0.17078828036E+02 -0.43881824131E+03  0.43937770354E+03  0.00000000000E+00 0.  1.
         -3    1    1    2    0  502 -0.18301865140E+02 -0.24788307737E+02 -0.34875911545E+03  0.35011760750E+03  0.00000000000E+00 0. -1.
<mgrwt>
<rscale>  1 0.30000000E+03</rscale>
<asrwt>0</asrwt>
<pdfrwt beam="1">  1       21 0.38175710E-02 0.30000000E+03</pdfrwt>
<pdfrwt beam="2">0</pdfrwt>
<totfact> 0.45482147E+04</totfact>
</mgrwt>
</event>
<event>
 6    1  0.1295671E-001  0.3000000E+03  0.7818608E-02  0.1093470E+00
         21   -1    0    0  501  502  0.00000000000E+00  0.00000000000E+00  0.37714937735E+01  0.37714937735E+01  0.00000000000E+00 0. -1.
         13   -1    0    0    0    0 -0.00000000000E+00 -0.00000000000E+00 -0.10000000000E+04  0.10000000000E+04  0.00000000000E+00 0.  1.
    9000005    2    1    2  501    0  0.49923830185E+02  0.19635407045E+02 -0.74182046173E+03  0.74376881853E+03  0.40644732971E+01 0.  0.
         13    1    3    3    0    0  0.45366648607E+02  0.18901026455E+02 -0.68550594977E+03  0.68726544273E+03  0.00000000000E+00 0.  1.
          1    1    3    3  501    0  0.45571815779E+01  0.73438058995E+00 -0.56314511964E+02  0.56503375797E+02  0.00000000000E+00 0.  1.
         -3    1    1    2    0  502 -0.49923830185E+02 -0.19635407045E+02 -0.25440804450E+03  0.26000267525E+03  0.00000000000E+00 0. -1.
<mgrwt>
<rscale>  1 0.30000000E+03</rscale>
<asrwt>0</asrwt>
<pdfrwt beam="1">  1       21 0.13714552E-01 0.30000000E+03</pdfrwt>
<pdfrwt beam="2">0</pdfrwt>
<totfact> 0.48569032E+03</totfact>
</mgrwt>
</event>
<event>
 6    1  0.1295671E-001  0.3000000E+03  0.7818608E-02  0.1093470E+00
         21   -1    0    0  501  502  0.00000000000E+00  0.00000000000E+00  0.14466696388E+01  0.14466696388E+01  0.00000000000E+00 0. -1.
         13   -1    0    0    0    0 -0.00000000000E+00 -0.00000000000E+00 -0.10000000000E+04  0.10000000000E+04  0.00000000000E+00 0.  1.
    9000005    2    1    2  501    0 -0.35653965430E+02 -0.45405961415E+01 -0.65960390705E+03  0.66059694641E+03  0.43805413161E+01 0.  0.
         13    1    3    3    0    0 -0.23184412949E+02 -0.48999958248E+01 -0.44602983996E+03  0.44665886882E+03  0.00000000000E+00 0.  1.
          1    1    3    3  501    0 -0.12469552481E+02  0.35939968336E+00 -0.21357406709E+03  0.21393807759E+03  0.00000000000E+00 0.  1.
         -1    1    1    2    0  502  0.35653965430E+02  0.45405961415E+01 -0.33894942331E+03  0.34084972323E+03  0.00000000000E+00 0. -1.
<mgrwt>
<rscale>  1 0.30000000E+03</rscale>
<asrwt>0</asrwt>
<pdfrwt beam="1">  1       21 0.52606280E-02 0.30000000E+03</pdfrwt>
<pdfrwt beam="2">0</pdfrwt>
<totfact> 0.26411470E+04</totfact>
</mgrwt>
</event>
<event>
 6    1  0.1295671E-001  0.3000000E+03  0.7818608E-02  0.1093470E+00
         21   -1    0    0  501  502  0.00000000000E+00  0.00000000000E+00  0.34586023990E+01  0.34586023990E+01  0.00000000000E+00 0. -1.
         13   -1    0    0    0    0 -0.00000000000E+00 -0.00000000000E+00 -0.10000000000E+04  0.10000000000E+04  0.00000000000E+00 0.  1.
    9000005    2    1    2  501    0 -0.20289120062E+02  0.50790510657E+02 -0.68206586785E+03  0.68426245083E+03  0.31510571695E+01 0.  0.
         13    1    3    3    0    0 -0.44613781463E+01  0.11001276840E+02 -0.13246446540E+03  0.13299536301E+03  0.00000000000E+00 0.  1.
          1    1    3    3  501    0 -0.15827741915E+02  0.39789233817E+02 -0.54960140245E+03  0.55126708783E+03  0.00000000000E+00 0.  1.
         -1    1    1    2    0  502  0.20289120062E+02 -0.50790510657E+02 -0.31447552975E+03  0.31919615157E+03  0.00000000000E+00 0. -1.
<mgrwt>
<rscale>  1 0.30000000E+03</rscale>
<asrwt>0</asrwt>
<pdfrwt beam="1">  1       21 0.12576763E-01 0.30000000E+03</pdfrwt>
<pdfrwt beam="2">0</pdfrwt>
<totfact> 0.56898798E+03</totfact>
</mgrwt>
</event>
<event>
 6    1  0.1295671E-001  0.3000000E+03  0.7818608E-02  0.1093470E+00
         21   -1    0    0  501  502  0.00000000000E+00  0.00000000000E+00  0.30477023640E+01  0.30477023640E+01  0.00000000000E+00 0. -1.
         13   -1    0    0    0    0 -0.00000000000E+00 -0.00000000000E+00 -0.10000000000E+04  0.10000000000E+04  0.00000000000E+00 0.  1.
    9000005    2    1    2  501    0 -0.94618594342E+01 -0.47878622196E+02 -0.73182706456E+03  0.73346788402E+03  0.47323579542E+01 0.  0.
         13    1    3    3    0    0 -0.46063635202E+01 -0.26573932380E+02 -0.43785406516E+03  0.43868391223E+03  0.00000000000E+00 0.  1.
          3    1    3    3  501    0 -0.48554959140E+01 -0.21304689816E+02 -0.29397299940E+03  0.29478397179E+03  0.00000000000E+00 0.  1.
         -3    1    1    2    0  502  0.94618594342E+01  0.47878622196E+02 -0.26512523307E+03  0.26957981835E+03  0.00000000000E+00 0. -1.
<mgrwt>
<rscale>  1 0.30000000E+03</rscale>
<asrwt>0</asrwt>
<pdfrwt beam="1">  1       21 0.11082577E-01 0.30000000E+03</pdfrwt>
<pdfrwt beam="2">0</pdfrwt>
<totfact> 0.71550641E+03</totfact>
</mgrwt>
</event>
<event>
 6    1  0.1295671E-001  0.3000000E+03  0.7818608E-02  0.1093470E+00
         21   -1    0    0  501  502  0.00000000000E+00  0.00000000000E+00  0.38699348931E+01  0.38699348931E+01  0.00000000000E+00 0. -1.
         13   -1    0    0    0    0 -0.00000000000E+00 -0.00000000000E+00 -0.10000000000E+04  0.10000000000E+04  0.00000000000E+00 0.  1.
    9000005    2    1    2  501    0  0.33474591029E+02  0.44842528138E+02 -0.71685876863E+03  0.71904743296E+03  0.33639415986E+01 0.  0.
         13    1    3    3    0    0  0.10992520391E+02  0.15958801153E+02 -0.23024357659E+03  0.23105761922E+03  0.00000000000E+00 0.  1.
          3    1    3    3  501    0  0.22482070639E+02  0.28883726985E+02 -0.48661519204E+03  0.48798981374E+03  0.00000000000E+00 0.  1.
         -3    1    1    2    0  502 -0.33474591029E+02 -0.44842528138E+02 -0.27927129647E+03  0.28482250193E+03  0.00000000000E+00 0. -1.
<mgrwt>
<rscale>  1 0.30000000E+03</rscale>
<asrwt>0</asrwt>
<pdfrwt beam="1">  1       21 0.14072520E-01 0.30000000E+03</pdfrwt>
<pdfrwt beam="2">0</pdfrwt>
<totfact> 0.46324811E+03</totfact>
</mgrwt>
</event>
<event>
 6    1  0.1295671E-001  0.3000000E+03  0.7818608E-02  0.1093470E+00
         21   -1    0    0  501  502  0.00000000000E+00  0.00000000000E+00  0.31509816981E+01  0.31509816981E+01  0.00000000000E+00 0. -1.
         13   -1    0    0    0    0 -0.00000000000E+00 -0.00000000000E+00 -0.10000000000E+04  0.10000000000E+04  0.00000000000E+00 0.  1.
    9000005    2    1    2  501    0 -0.52479443501E+02 -0.19775244040E+02 -0.50266197319E+03  0.50579196869E+03  0.33621466419E+01 0.  0.
         13    1    3    3    0    0 -0.50197846054E+02 -0.18185747008E+02 -0.47987794225E+03  0.48283888058E+03  0.00000000000E+00 0.  1.
          3    1    3    3  501    0 -0.22815974471E+01 -0.15894970324E+01 -0.22784030942E+02  0.22953088108E+02  0.00000000000E+00 0.  1.
         -3    1    1    2    0  502  0.52479443501E+02  0.19775244040E+02 -0.49418704511E+03  0.49735901301E+03  0.00000000000E+00 0. -1.
<mgrwt>
<rscale>  1 0.30000000E+03</rscale>
<asrwt>0</asrwt>
<pdfrwt beam="1">  1       21 0.11458139E-01 0.30000000E+03</pdfrwt>
<pdfrwt beam="2">0</pdfrwt>
<totfact> 0.67377884E+03</totfact>
</mgrwt>
</event>
<event>
 6    1  0.1295671E-001  0.3000000E+03  0.7818608E-02  0.1093470E+00
         21   -1    0    0  501  502  0.00000000000E+00  0.00000000000E+00  0.49021035928E+01  0.49021035928E+01  0.00000000000E+00 0. -1.
         13   -1    0    0    0    0 -0.00000000000E+00 -0.00000000000E+00 -0.10000000000E+04  0.10000000000E+04  0.00000000000E+00 0.  1.
    9000005    2    1    2  501    0 -0.26965925853E+02 -0.44525221274E+02 -0.83334382454E+03  0.83497848472E+03  0.41813338012E+01 0.  0.
         13    1    3    3    0    0 -0.16313631755E+02 -0.30248099489E+02 -0.53276412699E+03  0.53387142376E+03  0.00000000000E+00 0.  1.
          3    1    3    3  501    0 -0.10652294098E+02 -0.14277121785E+02 -0.30057969755E+03  0.30110706096E+03  0.00000000000E+00 0.  1.
         -3    1    1    2    0  502  0.26965925853E+02  0.44525221274E+02 -0.16175407186E+03  0.16992361887E+03  0.00000000000E+00 0. -1.
<mgrwt>
<rscale>  1 0.30000000E+03</rscale>
<asrwt>0</asrwt>
<pdfrwt beam="1">  1       21 0.17825869E-01 0.30000000E+03</pdfrwt>
<pdfrwt beam="2">0</pdfrwt>
<totfact> 0.29836546E+03</totfact>
</mgrwt>
</event>
<event>
 6    1  0.1295671E-001  0.3000000E+03  0.7818608E-02  0.1093470E+00
         21   -1    0    0  501  502  0.00000000000E+00  0.00000000000E+00  0.30961336015E+01  0.30961336015E+01  0.00000000000E+00 0. -1.
         13   -1    0    0    0    0 -0.00000000000E+00 -0.00000000000E+00 -0.10000000000E+04  0.10000000000E+04  0.00000000000E+00 0.  1.
    9000005    2    1    2  501    0 -0.32690016572E+02 -0.13679009410E+02 -0.88498531446E+03  0.88570143717E+03  0.35037859283E+01 0.  0.
         13    1    3    3    0    0 -0.87877941530E+01 -0.49756881516E+01 -0.27790864971E+03  0.27809207177E+03  0.00000000000E+00 0.  1.
          3    1    3    3  501    0 -0.23902222419E+02 -0.87033212588E+01 -0.60707666474E+03  0.60760936539E+03  0.00000000000E+00 0.  1.
         -3    1    1    2    0  502  0.32690016572E+02  0.13679009410E+02 -0.11191855194E+03  0.11739469643E+03  0.00000000000E+00 0. -1.
<mgrwt>
<rscale>  1 0.30000000E+03</rscale>
<asrwt>0</asrwt>
<pdfrwt beam="1">  1       21 0.11258691E-01 0.30000000E+03</pdfrwt>
<pdfrwt beam="2">0</pdfrwt>
<totfact> 0.69546920E+03</totfact>
</mgrwt>
</event>
<event>
 6    1  0.1295671E-001  0.3000000E+03  0.7818608E-02  0.1093470E+00
         21   -1    0    0  501  502  0.00000000000E+00  0.00000000000E+00  0.10095148460E+01  0.10095148460E+01  0.00000000000E+00 0. -1.
         13   -1    0    0    0    0 -0.00000000000E+00 -0.00000000000E+00 -0.10000000000E+04  0.10000000000E+04  0.00000000000E+00 0.  1.
    9000005    2    1    2  501    0 -0.29880450242E+02  0.92693548929E+01 -0.57984804919E+03  0.58070112346E+03  0.33574375931E+01 0.  0.
         13    1    3    3    0    0 -0.27338579981E+02  0.74623704435E+01 -0.52600833186E+03  0.52677115536E+03  0.00000000000E+00 0.  1.
          1    1    3    3  501    0 -0.25418702616E+01  0.18069844494E+01 -0.53839717330E+02  0.53929968101E+02  0.00000000000E+00 0.  1.
         -3    1    1    2    0  502  0.29880450242E+02 -0.92693548929E+01 -0.41914243596E+03  0.42030839139E+03  0.00000000000E+00 0. -1.
<mgrwt>
<rscale>  1 0.30000000E+03</rscale>
<asrwt>0</asrwt>
<pdfrwt beam="1">  1       21 0.36709708E-02 0.30000000E+03</pdfrwt>
<pdfrwt beam="2">0</pdfrwt>
<totfact> 0.48573297E+04</totfact>
</mgrwt>
</event>
<event>
 6    1  0.1295671E-001  0.3000000E+03  0.7818608E-02  0.1093470E+00
         21   -1    0    0  501  502  0.00000000000E+00  0.00000000000E+00  0.23729105375E+01  0.23729105375E+01  0.00000000000E+00 0. -1.
         13   -1    0    0    0    0 -0.00000000000E+00 -0.00000000000E+00 -0.10000000000E+04  0.10000000000E+04  0.00000000000E+00 0.  1.
    9000005    2    1    2  501    0 -0.35219679473E+02 -0.33448319475E+02 -0.46860784250E+03  0.47112854158E+03  0.30946301860E+01 0.  0.
         13    1    3    3    0    0 -0.30759568954E+02 -0.27724113792E+02 -0.39663632169E+03  0.39879211282E+03  0.00000000000E+00 0.  1.
          3    1    3    3  501    0 -0.44601105188E+01 -0.57242056825E+01 -0.71971520815E+02  0.72336428755E+02  0.00000000000E+00 0.  1.
         -1    1    1    2    0  502  0.35219679473E+02  0.33448319475E+02 -0.52901924696E+03  0.53124436896E+03  0.00000000000E+00 0. -1.
<mgrwt>
<rscale>  1 0.30000000E+03</rscale>
<asrwt>0</asrwt>
<pdfrwt beam="1">  1       21 0.86287838E-02 0.30000000E+03</pdfrwt>
<pdfrwt beam="2">0</pdfrwt>
<totfact> 0.11180653E+04</totfact>
</mgrwt>
</event>
<event>
 6    1  0.1295671E-001  0.3000000E+03  0.7818608E-02  0.1093470E+00
         21   -1    0    0  501  502  0.00000000000E+00  0.00000000000E+00  0.13155761845E+01  0.13155761845E+01  0.00000000000E+00 0. -1.
         13   -1    0    0    0    0 -0.00000000000E+00 -0.00000000000E+00 -0.10000000000E+04  0.10000000000E+04  0.00000000000E+00 0.  1.
    9000005    2    1    2  501    0 -0.39462939454E+00 -0.34904045754E+02 -0.62936728880E+03  0.63035251285E+03  0.47600528010E+01 0.  0.
         13    1    3    3    0    0  0.10920265963E+01 -0.28005934052E+02 -0.47822542816E+03  0.47904601554E+03  0.00000000000E+00 0.  1.
          1    1    3    3  501    0 -0.14866559908E+01 -0.68981117025E+01 -0.15114186064E+03  0.15130649731E+03  0.00000000000E+00 0.  1.
         -3    1    1    2    0  502  0.39462939454E+00  0.34904045754E+02 -0.36931713501E+03  0.37096306333E+03  0.00000000000E+00 0. -1.
<mgrwt>
<rscale>  1 0.30000000E+03</rscale>
<asrwt>0</asrwt>
<pdfrwt beam="1">  1       21 0.47839235E-02 0.30000000E+03</pdfrwt>
<pdfrwt beam="2">0</pdfrwt>
<totfact> 0.31055310E+04</totfact>
</mgrwt>
</event>
<event>
 6    1  0.1295671E-001  0.3000000E+03  0.7818608E-02  0.1093470E+00
         21   -1    0    0  501  502  0.00000000000E+00  0.00000000000E+00  0.26982883833E+01  0.26982883833E+01  0.00000000000E+00 0. -1.
         13   -1    0    0    0    0 -0.00000000000E+00 -0.00000000000E+00 -0.10000000000E+04  0.10000000000E+04  0.00000000000E+00 0.  1.
    9000005    2    1    2  501    0 -0.26436533060E+02 -0.28456375050E+02 -0.83116860541E+03  0.83208508684E+03  0.39605012056E+01 0.  0.
         13    1    3    3    0    0 -0.17980845732E+02 -0.21422335653E+02 -0.57256270337E+03  0.57324538949E+03  0.00000000000E+00 0.  1.
          1    1    3    3  501    0 -0.84556873285E+01 -0.70340393971E+01 -0.25860590204E+03  0.25883969735E+03  0.00000000000E+00 0.  1.
         -1    1    1    2    0  502  0.26436533060E+02  0.28456375050E+02 -0.16613310621E+03  0.17061320154E+03  0.00000000000E+00 0. -1.
<mgrwt>
<rscale>  1 0.30000000E+03</rscale>
<asrwt>0</asrwt>
<pdfrwt beam="1">  1       21 0.98119784E-02 0.30000000E+03</pdfrwt>
<pdfrwt beam="2">0</pdfrwt>
<totfact> 0.88998241E+03</totfact>
</mgrwt>
</event>
<event>
 6    1  0.1295671E-001  0.3000000E+03  0.7818608E-02  0.1093470E+00
         21   -1    0    0  501  502  0.00000000000E+00  0.00000000000E+00  0.10028212890E+01  0.10028212890E+01  0.00000000000E+00 0. -1.
         13   -1    0    0    0    0 -0.00000000000E+00 -0.00000000000E+00 -0.10000000000E+04  0.10000000000E+04  0.00000000000E+00 0.  1.
    9000005    2    1    2  501    0 -0.61501772967E+01 -0.29695656085E+02 -0.64006040180E+03  0.64078723793E+03  0.33629864836E+01 0.  0.
         13    1    3    3    0    0 -0.31909978962E+01 -0.22577033746E+02 -0.47592354420E+03  0.47646943748E+03  0.00000000000E+00 0.  1.
          1    1    3    3  501    0 -0.29591794004E+01 -0.71186223397E+01 -0.16413685759E+03  0.16431780046E+03  0.00000000000E+00 0.  1.
         -3    1    1    2    0  502  0.61501772967E+01  0.29695656085E+02 -0.35893677691E+03  0.36021558335E+03  0.00000000000E+00 0. -1.
<mgrwt>
<rscale>  1 0.30000000E+03</rscale>
<asrwt>0</asrwt>
<pdfrwt beam="1">  1       21 0.36466306E-02 0.30000000E+03</pdfrwt>
<pdfrwt beam="2">0</pdfrwt>
<totfact> 0.49118497E+04</totfact>
</mgrwt>
</event>
<event>
 6    1  0.1295671E-001  0.3000000E+03  0.7818608E-02  0.1093470E+00
         21   -1    0    0  501  502  0.00000000000E+00  0.00000000000E+00  0.31785417703E+01  0.31785417703E+01  0.00000000000E+00 0. -1.
         13   -1    0    0    0    0 -0.00000000000E+00 -0.00000000000E+00 -0.10000000000E+04  0.10000000000E+04  0.00000000000E+00 0.  1.
    9000005    2    1    2  501    0 -0.24052883061E+02  0.31424131290E+02 -0.85543239807E+03  0.85635591564E+03  0.38534884636E+01 0.  0.
         13    1    3    3    0    0 -0.20381700183E+02  0.26593048845E+02 -0.69145432154E+03  0.69226561573E+03  0.00000000000E+00 0.  1.
          3    1    3    3  501    0 -0.36711828779E+01  0.48310824457E+01 -0.16397807653E+03  0.16409029991E+03  0.00000000000E+00 0.  1.
         -1    1    1    2    0  502  0.24052883061E+02 -0.31424131290E+02 -0.14138906016E+03  0.14682262613E+03  0.00000000000E+00 0. -1.
<mgrwt>
<rscale>  1 0.30000000E+03</rscale>
<asrwt>0</asrwt>
<pdfrwt beam="1">  1       21 0.11558358E-01 0.30000000E+03</pdfrwt>
<pdfrwt beam="2">0</pdfrwt>
<totfact> 0.66326079E+03</totfact>
</mgrwt>
</event>
<event>
 6    1  0.1295671E-001  0.3000000E+03  0.7818608E-02  0.1093470E+00
         21   -1    0    0  501  502  0.00000000000E+00  0.00000000000E+00  0.19573535633E+01  0.19573535633E+01  0.00000000000E+00 0. -1.
         13   -1    0    0    0    0 -0.00000000000E+00 -0.00000000000E+00 -0.10000000000E+04  0.10000000000E+04  0.00000000000E+00 0.  1.
    9000005    2    1    2  501    0 -0.32590012345E+02  0.10072915255E+02 -0.81764945383E+03  0.81836738525E+03  0.33129090801E+01 0.  0.
         13    1    3    3    0    0 -0.14233071824E+02  0.60663120195E+01 -0.35911150963E+03  0.35944465057E+03  0.00000000000E+00 0.  1.
          1    1    3    3  501    0 -0.18356940520E+02  0.40066032359E+01 -0.45853794420E+03  0.45892273468E+03  0.00000000000E+00 0.  1.
         -1    1    1    2    0  502  0.32590012345E+02 -0.10072915255E+02 -0.18039319261E+03  0.18358996831E+03  0.00000000000E+00 0. -1.
<mgrwt>
<rscale>  1 0.30000000E+03</rscale>
<asrwt>0</asrwt>
<pdfrwt beam="1">  1       21 0.71176643E-02 0.30000000E+03</pdfrwt>
<pdfrwt beam="2">0</pdfrwt>
<totfact> 0.15673606E+04</totfact>
</mgrwt>
</event>
<event>
 6    1  0.1295671E-001  0.3000000E+03  0.7818608E-02  0.1093470E+00
         21   -1    0    0  501  502  0.00000000000E+00  0.00000000000E+00  0.92091245679E+00  0.92091245679E+00  0.00000000000E+00 0. -1.
         13   -1    0    0    0    0 -0.00000000000E+00 -0.00000000000E+00 -0.10000000000E+04  0.10000000000E+04  0.00000000000E+00 0.  1.
    9000005    2    1    2  501    0  0.14886061708E+02 -0.26080119791E+02 -0.49473930425E+03  0.49568791226E+03  0.61448924829E+01 0.  0.
         13    1    3    3    0    0  0.15095831177E+02 -0.24056980628E+02 -0.47365622807E+03  0.47450694918E+03  0.00000000000E+00 0.  1.
          1    1    3    3  501    0 -0.20976946920E+00 -0.20231391631E+01 -0.21083076184E+02  0.21180963073E+02  0.00000000000E+00 0.  1.
         -3    1    1    2    0  502 -0.14886061708E+02  0.26080119791E+02 -0.50433978329E+03  0.50523300020E+03  0.00000000000E+00 0. -1.
<mgrwt>
<rscale>  1 0.30000000E+03</rscale>
<asrwt>0</asrwt>
<pdfrwt beam="1">  1       21 0.33487796E-02 0.30000000E+03</pdfrwt>
<pdfrwt beam="2">0</pdfrwt>
<totfact> 0.56649258E+04</totfact>
</mgrwt>
</event>
<event>
 6    1  0.1295671E-001  0.3000000E+03  0.7818608E-02  0.1093470E+00
         21   -1    0    0  501  502  0.00000000000E+00  0.00000000000E+00  0.18920352794E+01  0.18920352794E+01  0.00000000000E+00 0. -1.
         13   -1    0    0    0    0 -0.00000000000E+00 -0.00000000000E+00 -0.10000000000E+04  0.10000000000E+04  0.00000000000E+00 0.  1.
    9000005    2    1    2  501    0  0.40334188855E+01  0.33738601321E+02 -0.81138447164E+03  0.81210208677E+03  0.32367932409E+01 0.  0.
         13    1    3    3    0    0  0.30498096822E+01  0.31788001316E+02 -0.75341329127E+03  0.75408975979E+03  0.00000000000E+00 0.  1.
          1    1    3    3  501    0  0.98360920333E+00  0.19506000050E+01 -0.57971180378E+02  0.58012326982E+02  0.00000000000E+00 0.  1.
         -3    1    1    2    0  502 -0.40334188855E+01 -0.33738601321E+02 -0.18672349308E+03  0.18978994851E+03  0.00000000000E+00 0. -1.
<mgrwt>
<rscale>  1 0.30000000E+03</rscale>
<asrwt>0</asrwt>
<pdfrwt beam="1">  1       21 0.68801428E-02 0.30000000E+03</pdfrwt>
<pdfrwt beam="2">0</pdfrwt>
<totfact> 0.16627283E+04</totfact>
</mgrwt>
</event>
<event>
 6    1  0.1295671E-001  0.3000000E+03  0.7818608E-02  0.1093470E+00
         21   -1    0    0  501  502  0.00000000000E+00  0.00000000000E+00  0.10042113211E+02  0.10042113211E+02  0.00000000000E+00 0. -1.
         13   -1    0    0    0    0 -0.00000000000E+00 -0.00000000000E+00 -0.10000000000E+04  0.10000000000E+04  0.00000000000E+00 0.  1.
    9000005    2    1    2  501    0 -0.71641044138E+02  0.37951053357E+02 -0.79169063691E+03  0.79583981623E+03  0.37718530295E+01 0.  0.
         13    1    3    3    0    0 -0.39400223267E+02  0.20493440019E+02 -0.45170666553E+03  0.45388464433E+03  0.00000000000E+00 0.  1.
          3    1    3    3  501    0 -0.32240820871E+02  0.17457613338E+02 -0.33998397138E+03  0.34195517190E+03  0.00000000000E+00 0.  1.
         -1    1    1    2    0  502  0.71641044138E+02 -0.37951053357E+02 -0.19826724988E+03  0.21420229698E+03  0.00000000000E+00 0. -1.
<mgrwt>
<rscale>  1 0.30000000E+03</rscale>
<asrwt>0</asrwt>
<pdfrwt beam="1">  1       21 0.36516852E-01 0.30000000E+03</pdfrwt>
<pdfrwt beam="2">0</pdfrwt>
<totfact> 0.72947590E+02</totfact>
</mgrwt>
</event>
<event>
 6    1  0.1295671E-001  0.3000000E+03  0.7818608E-02  0.1093470E+00
         21   -1    0    0  501  502  0.00000000000E+00  0.00000000000E+00  0.10402962238E+01  0.10402962238E+01  0.00000000000E+00 0. -1.
         13   -1    0    0    0    0 -0.00000000000E+00 -0.00000000000E+00 -0.10000000000E+04  0.10000000000E+04  0.00000000000E+00 0.  1.
    9000005    2    1    2  501    0 -0.31488571955E+02 -0.55312606269E+01 -0.45425647560E+03  0.45539963444E+03  0.42138360480E+01 0.  0.
         13    1    3    3    0    0 -0.24341723864E+02 -0.60445242509E+01 -0.35476669912E+03  0.35565217081E+03  0.00000000000E+00 0.  1.
          1    1    3    3  501    0 -0.71468480915E+01  0.51326362400E+00 -0.99489776477E+02  0.99747463630E+02  0.00000000000E+00 0.  1.
         -3    1    1    2    0  502  0.31488571955E+02  0.55312606269E+01 -0.54470322818E+03  0.54564066179E+03  0.00000000000E+00 0. -1.
<mgrwt>
<rscale>  1 0.30000000E+03</rscale>
<asrwt>0</asrwt>
<pdfrwt beam="1">  1       21 0.37829033E-02 0.30000000E+03</pdfrwt>
<pdfrwt beam="2">0</pdfrwt>
<totfact> 0.46184632E+04</totfact>
</mgrwt>
</event>
<event>
 6    1  0.1295671E-001  0.3000000E+03  0.7818608E-02  0.1093470E+00
         21   -1    0    0  501  502  0.00000000000E+00  0.00000000000E+00  0.27290829796E+01  0.27290829796E+01  0.00000000000E+00 0. -1.
         13   -1    0    0    0    0 -0.00000000000E+00 -0.00000000000E+00 -0.10000000000E+04  0.10000000000E+04  0.00000000000E+00 0.  1.
    9000005    2    1    2  501    0 -0.24763735413E+02 -0.23945167364E+02 -0.87542210855E+03  0.87610465502E+03  0.29807329331E+01 0.  0.
         13    1    3    3    0    0 -0.12534560251E+02 -0.10083889275E+02 -0.40078348449E+03  0.40110622217E+03  0.00000000000E+00 0.  1.
          3    1    3    3  501    0 -0.12229175162E+02 -0.13861278089E+02 -0.47463862406E+03  0.47499843285E+03  0.00000000000E+00 0.  1.
         -3    1    1    2    0  502  0.24763735413E+02  0.23945167364E+02 -0.12184880847E+03  0.12662442796E+03  0.00000000000E+00 0. -1.
<mgrwt>
<rscale>  1 0.30000000E+03</rscale>
<asrwt>0</asrwt>
<pdfrwt beam="1">  1       21 0.99239590E-02 0.30000000E+03</pdfrwt>
<pdfrwt beam="2">0</pdfrwt>
<totfact> 0.87213155E+03</totfact>
</mgrwt>
</event>
<event>
 6    1  0.1295671E-001  0.3000000E+03  0.7818608E-02  0.1093470E+00
         21   -1    0    0  501  502  0.00000000000E+00  0.00000000000E+00  0.54134552997E+01  0.54134552997E+01  0.00000000000E+00 0. -1.
         13   -1    0    0    0    0 -0.00000000000E+00 -0.00000000000E+00 -0.10000000000E+04  0.10000000000E+04  0.00000000000E+00 0.  1.
    9000005    2    1    2  501    0  0.12865204910E+02  0.69735181379E+02 -0.36445090748E+03  0.37130035000E+03  0.33131445625E+01 0.  0.
         13    1    3    3    0    0  0.62746684869E+01  0.38826439154E+02 -0.20934493140E+03  0.21300742744E+03  0.00000000000E+00 0.  1.
          3    1    3    3  501    0  0.65905364229E+01  0.30908742225E+02 -0.15510597608E+03  0.15829292256E+03  0.00000000000E+00 0.  1.
         -1    1    1    2    0  502 -0.12865204910E+02 -0.69735181379E+02 -0.63013563722E+03  0.63411310530E+03  0.00000000000E+00 0. -1.
<mgrwt>
<rscale>  1 0.30000000E+03</rscale>
<asrwt>0</asrwt>
<pdfrwt beam="1">  1       21 0.19685334E-01 0.30000000E+03</pdfrwt>
<pdfrwt beam="2">0</pdfrwt>
<totfact> 0.24728780E+03</totfact>
</mgrwt>
</event>
<event>
 6    1  0.1295671E-001  0.3000000E+03  0.7818608E-02  0.1093470E+00
         21   -1    0    0  501  502  0.00000000000E+00  0.00000000000E+00  0.24581699587E+01  0.24581699587E+01  0.00000000000E+00 0. -1.
         13   -1    0    0    0    0 -0.00000000000E+00 -0.00000000000E+00 -0.10000000000E+04  0.10000000000E+04  0.00000000000E+00 0.  1.
    9000005    2    1    2  501    0 -0.10419760115E+02  0.41949718486E+02 -0.74391831660E+03  0.74517770655E+03  0.26461826802E+01 0.  0.
         13    1    3    3    0    0 -0.20034779209E+01  0.11981705214E+02 -0.22149216593E+03  0.22182505438E+03  0.00000000000E+00 0.  1.
          3    1    3    3  501    0 -0.84162821942E+01  0.29968013272E+02 -0.52242615068E+03  0.52335265217E+03  0.00000000000E+00 0.  1.
         -1    1    1    2    0  502  0.10419760115E+02 -0.41949718486E+02 -0.25362351344E+03  0.25728046341E+03  0.00000000000E+00 0. -1.
<mgrwt>
<rscale>  1 0.30000000E+03</rscale>
<asrwt>0</asrwt>
<pdfrwt beam="1">  1       21 0.89388187E-02 0.30000000E+03</pdfrwt>
<pdfrwt beam="2">0</pdfrwt>
<totfact> 0.10504228E+04</totfact>
</mgrwt>
</event>
<event>
 6    1  0.1295671E-001  0.3000000E+03  0.7818608E-02  0.1093470E+00
         21   -1    0    0  501  502  0.00000000000E+00  0.00000000000E+00  0.16235626107E+01  0.16235626107E+01  0.00000000000E+00 0. -1.
         13   -1    0    0    0    0 -0.00000000000E+00 -0.00000000000E+00 -0.10000000000E+04  0.10000000000E+04  0.00000000000E+00 0.  1.
    9000005    2    1    2  501    0 -0.26135248631E+02  0.18206300203E+02 -0.80519447419E+03  0.80583339051E+03  0.38459585080E+01 0.  0.
         13    1    3    3    0    0 -0.11365585033E+02  0.56726068663E+01 -0.30944553528E+03  0.30970614185E+03  0.00000000000E+00 0.  1.
          3    1    3    3  501    0 -0.14769663598E+02  0.12533693337E+02 -0.49574893891E+03  0.49612724866E+03  0.00000000000E+00 0.  1.
         -1    1    1    2    0  502  0.26135248631E+02 -0.18206300203E+02 -0.19318196320E+03  0.19579017210E+03  0.00000000000E+00 0. -1.
<mgrwt>
<rscale>  1 0.30000000E+03</rscale>
<asrwt>0</asrwt>
<pdfrwt beam="1">  1       21 0.59038765E-02 0.30000000E+03</pdfrwt>
<pdfrwt beam="2">0</pdfrwt>
<totfact> 0.21666647E+04</totfact>
</mgrwt>
</event>
<event>
 6    1  0.1295671E-001  0.3000000E+03  0.7818608E-02  0.1093470E+00
         21   -1    0    0  501  502  0.00000000000E+00  0.00000000000E+00  0.12558209262E+01  0.12558209262E+01  0.00000000000E+00 0. -1.
         13   -1    0    0    0    0 -0.00000000000E+00 -0.00000000000E+00 -0.10000000000E+04  0.10000000000E+04  0.00000000000E+00 0.  1.
    9000005    2    1    2  501    0 -0.34548415476E+02 -0.75277279728E+01 -0.48227837216E+03  0.48358102976E+03  0.28150289319E+01 0.  0.
         13    1    3    3    0    0 -0.27359445140E+02 -0.57812594770E+01 -0.36506887788E+03  0.36613829053E+03  0.00000000000E+00 0.  1.
          3    1    3    3  501    0 -0.71889703355E+01 -0.17464684958E+01 -0.11720949429E+03  0.11744273923E+03  0.00000000000E+00 0.  1.
         -3    1    1    2    0  502  0.34548415476E+02  0.75277279728E+01 -0.51646580691E+03  0.51767479116E+03  0.00000000000E+00 0. -1.
<mgrwt>
<rscale>  1 0.30000000E+03</rscale>
<asrwt>0</asrwt>
<pdfrwt beam="1">  1       21 0.45666312E-02 0.30000000E+03</pdfrwt>
<pdfrwt beam="2">0</pdfrwt>
<totfact> 0.33608896E+04</totfact>
</mgrwt>
</event>
<event>
 6    1  0.1295671E-001  0.3000000E+03  0.7818608E-02  0.1093470E+00
         21   -1    0    0  501  502  0.00000000000E+00  0.00000000000E+00  0.10372739252E+01  0.10372739252E+01  0.00000000000E+00 0. -1.
         13   -1    0    0    0    0 -0.00000000000E+00 -0.00000000000E+00 -0.10000000000E+04  0.10000000000E+04  0.00000000000E+00 0.  1.
    9000005    2    1    2  501    0  0.16301846092E+02  0.27464995552E+02 -0.44904043925E+03  0.45018829489E+03  0.34797413565E+01 0.  0.
         13    1    3    3    0    0  0.73945983166E+01  0.15814366944E+02 -0.24772965810E+03  0.24834403111E+03  0.00000000000E+00 0.  1.
          1    1    3    3  501    0  0.89072477749E+01  0.11650628608E+02 -0.20131078115E+03  0.20184426377E+03  0.00000000000E+00 0.  1.
         -1    1    1    2    0  502 -0.16301846092E+02 -0.27464995552E+02 -0.54992228682E+03  0.55084897904E+03  0.00000000000E+00 0. -1.
<mgrwt>
<rscale>  1 0.30000000E+03</rscale>
<asrwt>0</asrwt>
<pdfrwt beam="1">  1       21 0.37719131E-02 0.30000000E+03</pdfrwt>
<pdfrwt beam="2">0</pdfrwt>
<totfact> 0.46410896E+04</totfact>
</mgrwt>
</event>
<event>
 6    1  0.1295671E-001  0.3000000E+03  0.7818608E-02  0.1093470E+00
         21   -1    0    0  501  502  0.00000000000E+00  0.00000000000E+00  0.56380782031E+01  0.56380782031E+01  0.00000000000E+00 0. -1.
         13   -1    0    0    0    0 -0.00000000000E+00 -0.00000000000E+00 -0.10000000000E+04  0.10000000000E+04  0.00000000000E+00 0.  1.
    9000005    2    1    2  501    0 -0.15509011891E+02  0.44009750348E+02 -0.89105322896E+03  0.89227991311E+03  0.31935781469E+01 0.  0.
         13    1    3    3    0    0 -0.10991018233E+01  0.17734455541E+01 -0.31545632894E+02  0.31614555012E+02  0.00000000000E+00 0.  1.
          1    1    3    3  501    0 -0.14409910068E+02  0.42236304794E+02 -0.85950759606E+03  0.86066535810E+03  0.00000000000E+00 0.  1.
         -3    1    1    2    0  502  0.15509011891E+02 -0.44009750348E+02 -0.10330869284E+03  0.11335816509E+03  0.00000000000E+00 0. -1.
<mgrwt>
<rscale>  1 0.30000000E+03</rscale>
<asrwt>0</asrwt>
<pdfrwt beam="1">  1       21 0.20502146E-01 0.30000000E+03</pdfrwt>
<pdfrwt beam="2">0</pdfrwt>
<totfact> 0.22881731E+03</totfact>
</mgrwt>
</event>
<event>
 6    1  0.1295671E-001  0.3000000E+03  0.7818608E-02  0.1093470E+00
         21   -1    0    0  501  502  0.00000000000E+00  0.00000000000E+00  0.21552587779E+01  0.21552587779E+01  0.00000000000E+00 0. -1.
         13   -1    0    0    0    0 -0.00000000000E+00 -0.00000000000E+00 -0.10000000000E+04  0.10000000000E+04  0.00000000000E+00 0.  1.
    9000005    2    1    2  501    0  0.24349639271E+02 -0.27249122449E+02 -0.19115024545E+03  0.19463347634E+03  0.28903579048E+01 0.  0.
         13    1    3    3    0    0  0.90583169111E+01 -0.11232209685E+02 -0.81930077587E+02  0.83191064743E+02  0.00000000000E+00 0.  1.
          3    1    3    3  501    0  0.15291322360E+02 -0.16016912763E+02 -0.10922016787E+03  0.11144241160E+03  0.00000000000E+00 0.  1.
         -3    1    1    2    0  502 -0.24349639271E+02  0.27249122449E+02 -0.80669449577E+03  0.80752178244E+03  0.00000000000E+00 0. -1.
<mgrwt>
<rscale>  1 0.30000000E+03</rscale>
<asrwt>0</asrwt>
<pdfrwt beam="1">  1       21 0.78373212E-02 0.30000000E+03</pdfrwt>
<pdfrwt beam="2">0</pdfrwt>
<totfact> 0.13242967E+04</totfact>
</mgrwt>
</event>
<event>
 6    1  0.1295671E-001  0.3000000E+03  0.7818608E-02  0.1093470E+00
         21   -1    0    0  501  502  0.00000000000E+00  0.00000000000E+00  0.33703544123E+01  0.33703544123E+01  0.00000000000E+00 0. -1.
         13   -1    0    0    0    0 -0.00000000000E+00 -0.00000000000E+00 -0.10000000000E+04  0.10000000000E+04  0.00000000000E+00 0.  1.
    9000005    2    1    2  501    0  0.17242373680E+02  0.35888803121E+02 -0.13781625699E+03  0.14363449843E+03  0.72279185709E+01 0.  0.
         13    1    3    3    0    0  0.11425818638E+02  0.30022998824E+02 -0.10576472303E+03  0.11053554373E+03  0.00000000000E+00 0.  1.
          1    1    3    3  501    0  0.58165550424E+01  0.58658042973E+01 -0.32051533966E+02  0.33098954699E+02  0.00000000000E+00 0.  1.
         -1    1    1    2    0  502 -0.17242373680E+02 -0.35888803121E+02 -0.85881338859E+03  0.85973585599E+03  0.00000000000E+00 0. -1.
<mgrwt>
<rscale>  1 0.30000000E+03</rscale>
<asrwt>0</asrwt>
<pdfrwt beam="1">  1       21 0.12255860E-01 0.30000000E+03</pdfrwt>
<pdfrwt beam="2">0</pdfrwt>
<totfact> 0.59640299E+03</totfact>
</mgrwt>
</event>
<event>
 6    1  0.1295671E-001  0.3000000E+03  0.7818608E-02  0.1093470E+00
         21   -1    0    0  501  502  0.00000000000E+00  0.00000000000E+00  0.46090784299E+01  0.46090784299E+01  0.00000000000E+00 0. -1.
         13   -1    0    0    0    0 -0.00000000000E+00 -0.00000000000E+00 -0.10000000000E+04  0.10000000000E+04  0.00000000000E+00 0.  1.
    9000005    2    1    2  501    0 -0.32156863405E+02  0.30386540859E+02 -0.87860009888E+03  0.87971911889E+03  0.31919676298E+01 0.  0.
         13    1    3    3    0    0 -0.25414327347E+02  0.23358921822E+02 -0.70863761267E+03  0.70947783148E+03  0.00000000000E+00 0.  1.
          3    1    3    3  501    0 -0.67425360583E+01  0.70276190372E+01 -0.16996248621E+03  0.17024128741E+03  0.00000000000E+00 0.  1.
         -1    1    1    2    0  502  0.32156863405E+02 -0.30386540859E+02 -0.11679082269E+03  0.12488995954E+03  0.00000000000E+00 0. -1.
<mgrwt>
<rscale>  1 0.30000000E+03</rscale>
<asrwt>0</asrwt>
<pdfrwt beam="1">  1       21 0.16760321E-01 0.30000000E+03</pdfrwt>
<pdfrwt beam="2">0</pdfrwt>
<totfact> 0.33493674E+03</totfact>
</mgrwt>
</event>
<event>
 6    1  0.1295671E-001  0.3000000E+03  0.7818608E-02  0.1093470E+00
         21   -1    0    0  501  502  0.00000000000E+00  0.00000000000E+00  0.30280094689E+01  0.30280094689E+01  0.00000000000E+00 0. -1.
         13   -1    0    0    0    0 -0.00000000000E+00 -0.00000000000E+00 -0.10000000000E+04  0.10000000000E+04  0.00000000000E+00 0.  1.
    9000005    2    1    2  501    0  0.48172361721E+02 -0.25979698740E+02 -0.54532238608E+03  0.54807429052E+03  0.36608733631E+01 0.  0.
         13    1    3    3    0    0  0.42709827276E+02 -0.23933380524E+02 -0.47873923884E+03  0.48123611134E+03  0.00000000000E+00 0.  1.
          1    1    3    3  501    0  0.54625344454E+01 -0.20463182167E+01 -0.66583147234E+02  0.66838179182E+02  0.00000000000E+00 0.  1.
         -1    1    1    2    0  502 -0.48172361721E+02  0.25979698740E+02 -0.45164960445E+03  0.45495371895E+03  0.00000000000E+00 0. -1.
<mgrwt>
<rscale>  1 0.30000000E+03</rscale>
<asrwt>0</asrwt>
<pdfrwt beam="1">  1       21 0.11010967E-01 0.30000000E+03</pdfrwt>
<pdfrwt beam="2">0</pdfrwt>
<totfact> 0.72390324E+03</totfact>
</mgrwt>
</event>
<event>
 6    1  0.1295671E-001  0.3000000E+03  0.7818608E-02  0.1093470E+00
         21   -1    0    0  501  502  0.00000000000E+00  0.00000000000E+00  0.19035192579E+01  0.19035192579E+01  0.00000000000E+00 0. -1.
         13   -1    0    0    0    0 -0.00000000000E+00 -0.00000000000E+00 -0.10000000000E+04  0.10000000000E+04  0.00000000000E+00 0.  1.
    9000005    2    1    2  501    0 -0.38907660995E+02 -0.15004039299E+02 -0.35560970316E+03  0.35806488524E+03  0.36433205602E+01 0.  0.
         13    1    3    3    0    0 -0.24909770161E+02 -0.80675361277E+01 -0.21386161414E+03  0.21545851524E+03  0.00000000000E+00 0.  1.
          3    1    3    3  501    0 -0.13997890834E+02 -0.69365031716E+01 -0.14174808902E+03  0.14260637000E+03  0.00000000000E+00 0.  1.
         -1    1    1    2    0  502  0.38907660995E+02  0.15004039299E+02 -0.64248677759E+03  0.64383863402E+03  0.00000000000E+00 0. -1.
<mgrwt>
<rscale>  1 0.30000000E+03</rscale>
<asrwt>0</asrwt>
<pdfrwt beam="1">  1       21 0.69219028E-02 0.30000000E+03</pdfrwt>
<pdfrwt beam="2">0</pdfrwt>
<totfact> 0.16453290E+04</totfact>
</mgrwt>
</event>
<event>
 6    1  0.1295671E-001  0.3000000E+03  0.7818608E-02  0.1093470E+00
         21   -1    0    0  501  502  0.00000000000E+00  0.00000000000E+00  0.14282364987E+01  0.14282364987E+01  0.00000000000E+00 0. -1.
         13   -1    0    0    0    0 -0.00000000000E+00 -0.00000000000E+00 -0.10000000000E+04  0.10000000000E+04  0.00000000000E+00 0.  1.
    9000005    2    1    2  501    0 -0.27377557931E+02  0.12739590247E+02 -0.79987217791E+03  0.80044725941E+03  0.29131189968E+01 0.  0.
         13    1    3    3    0    0 -0.14326854234E+02  0.82480184977E+01 -0.43008807688E+03  0.43040567194E+03  0.00000000000E+00 0.  1.
          3    1    3    3  501    0 -0.13050703698E+02  0.44915717490E+01 -0.36978410103E+03  0.37004158747E+03  0.00000000000E+00 0.  1.
         -1    1    1    2    0  502  0.27377557931E+02 -0.12739590247E+02 -0.19869958559E+03  0.20098097709E+03  0.00000000000E+00 0. -1.
<mgrwt>
<rscale>  1 0.30000000E+03</rscale>
<asrwt>0</asrwt>
<pdfrwt beam="1">  1       21 0.51935982E-02 0.30000000E+03</pdfrwt>
<pdfrwt beam="2">0</pdfrwt>
<totfact> 0.26996634E+04</totfact>
</mgrwt>
</event>
<event>
 6    1  0.1295671E-001  0.3000000E+03  0.7818608E-02  0.1093470E+00
         21   -1    0    0  501  502  0.00000000000E+00  0.00000000000E+00  0.11974340258E+01  0.11974340258E+01  0.00000000000E+00 0. -1.
         13   -1    0    0    0    0 -0.00000000000E+00 -0.00000000000E+00 -0.10000000000E+04  0.10000000000E+04  0.00000000000E+00 0.  1.
    9000005    2    1    2  501    0 -0.30236231346E+02  0.16103882961E+02 -0.56198040992E+03  0.56303403899E+03  0.34326653359E+01 0.  0.
         13    1    3    3    0    0 -0.12663539899E+02  0.77430253797E+01 -0.21965537517E+03  0.22015631612E+03  0.00000000000E+00 0.  1.
          3    1    3    3  501    0 -0.17572691447E+02  0.83608575815E+01 -0.34232503475E+03  0.34287772287E+03  0.00000000000E+00 0.  1.
         -3    1    1    2    0  502  0.30236231346E+02 -0.16103882961E+02 -0.43682215605E+03  0.43816339504E+03  0.00000000000E+00 0. -1.
<mgrwt>
<rscale>  1 0.30000000E+03</rscale>
<asrwt>0</asrwt>
<pdfrwt beam="1">  1       21 0.43543147E-02 0.30000000E+03</pdfrwt>
<pdfrwt beam="2">0</pdfrwt>
<totfact> 0.36434683E+04</totfact>
</mgrwt>
</event>
<event>
 6    1  0.1295671E-001  0.3000000E+03  0.7818608E-02  0.1093470E+00
         21   -1    0    0  501  502  0.00000000000E+00  0.00000000000E+00  0.99992554631E+00  0.99992554631E+00  0.00000000000E+00 0. -1.
         13   -1    0    0    0    0 -0.00000000000E+00 -0.00000000000E+00 -0.10000000000E+04  0.10000000000E+04  0.00000000000E+00 0.  1.
    9000005    2    1    2  501    0 -0.29541570333E+02 -0.10829854687E+02 -0.53669062528E+03  0.53762101264E+03  0.30880154003E+01 0.  0.
         13    1    3    3    0    0 -0.19471369491E+02 -0.71799821615E+01 -0.32828337754E+03  0.32893869086E+03  0.00000000000E+00 0.  1.
          3    1    3    3  501    0 -0.10070200842E+02 -0.36498725260E+01 -0.20840724774E+03  0.20868232178E+03  0.00000000000E+00 0.  1.
         -3    1    1    2    0  502  0.29541570333E+02  0.10829854687E+02 -0.46230944918E+03  0.46337891291E+03  0.00000000000E+00 0. -1.
<mgrwt>
<rscale>  1 0.30000000E+03</rscale>
<asrwt>0</asrwt>
<pdfrwt beam="1">  1       21 0.36361006E-02 0.30000000E+03</pdfrwt>
<pdfrwt beam="2">0</pdfrwt>
<totfact> 0.49357355E+04</totfact>
</mgrwt>
</event>
<event>
 6    1  0.1295671E-001  0.3000000E+03  0.7818608E-02  0.1093470E+00
         21   -1    0    0  501  502  0.00000000000E+00  0.00000000000E+00  0.20620039295E+01  0.20620039295E+01  0.00000000000E+00 0. -1.
         13   -1    0    0    0    0 -0.00000000000E+00 -0.00000000000E+00 -0.10000000000E+04  0.10000000000E+04  0.00000000000E+00 0.  1.
    9000005    2    1    2  501    0  0.41795774965E+02 -0.59332836029E+01 -0.66990833198E+03  0.67132713854E+03  0.10993772241E+02 0.  0.
         13    1    3    3    0    0  0.32076226491E+01  0.25201168269E+01 -0.54774372114E+02  0.54926056406E+02  0.00000000000E+00 0.  1.
          3    1    3    3  501    0  0.38588152316E+02 -0.84534004298E+01 -0.61513395986E+03  0.61640108213E+03  0.00000000000E+00 0.  1.
         -1    1    1    2    0  502 -0.41795774965E+02  0.59332836029E+01 -0.32802966409E+03  0.33073486539E+03  0.00000000000E+00 0. -1.
<mgrwt>
<rscale>  1 0.30000000E+03</rscale>
<asrwt>0</asrwt>
<pdfrwt beam="1">  1       21 0.74982119E-02 0.30000000E+03</pdfrwt>
<pdfrwt beam="2">0</pdfrwt>
<totfact> 0.14310436E+04</totfact>
</mgrwt>
</event>
<event>
 6    1  0.1295671E-001  0.3000000E+03  0.7818608E-02  0.1093470E+00
         21   -1    0    0  501  502  0.00000000000E+00  0.00000000000E+00  0.49777539701E+01  0.49777539701E+01  0.00000000000E+00 0. -1.
         13   -1    0    0    0    0 -0.00000000000E+00 -0.00000000000E+00 -0.10000000000E+04  0.10000000000E+04  0.00000000000E+00 0.  1.
    9000005    2    1    2  501    0  0.32816507728E+02 -0.10390418726E+02 -0.93609131667E+03  0.93673012825E+03  0.33905828242E+01 0.  0.
         13    1    3    3    0    0  0.25002908447E+02 -0.91305873852E+01 -0.69825190521E+03  0.69875906877E+03  0.00000000000E+00 0.  1.
          1    1    3    3  501    0  0.78135992808E+01 -0.12598313407E+01 -0.23783941145E+03  0.23797105948E+03  0.00000000000E+00 0.  1.
         -1    1    1    2    0  502 -0.32816507728E+02  0.10390418726E+02 -0.58930929362E+02  0.68247625718E+02  0.00000000000E+00 0. -1.
<mgrwt>
<rscale>  1 0.30000000E+03</rscale>
<asrwt>0</asrwt>
<pdfrwt beam="1">  1       21 0.18100962E-01 0.30000000E+03</pdfrwt>
<pdfrwt beam="2">0</pdfrwt>
<totfact> 0.28988436E+03</totfact>
</mgrwt>
</event>
<event>
 6    1  0.1295671E-001  0.3000000E+03  0.7818608E-02  0.1093470E+00
         21   -1    0    0  501  502  0.00000000000E+00  0.00000000000E+00  0.17241822779E+01  0.17241822779E+01  0.00000000000E+00 0. -1.
         13   -1    0    0    0    0 -0.00000000000E+00 -0.00000000000E+00 -0.10000000000E+04  0.10000000000E+04  0.00000000000E+00 0.  1.
    9000005    2    1    2  501    0 -0.10098308565E+02 -0.39252036610E+02 -0.39544068315E+03  0.39752810675E+03  0.35445096858E+01 0.  0.
         13    1    3    3    0    0 -0.28260537995E+01 -0.58281172343E+01 -0.64356221422E+02  0.64681347901E+02  0.00000000000E+00 0.  1.
          1    1    3    3  501    0 -0.72722547650E+01 -0.33423919375E+02 -0.33108446173E+03  0.33284675885E+03  0.00000000000E+00 0.  1.
         -3    1    1    2    0  502  0.10098308565E+02  0.39252036610E+02 -0.60283513457E+03  0.60419607553E+03  0.00000000000E+00 0. -1.
<mgrwt>
<rscale>  1 0.30000000E+03</rscale>
<asrwt>0</asrwt>
<pdfrwt beam="1">  1       21 0.62697670E-02 0.30000000E+03</pdfrwt>
<pdfrwt beam="2">0</pdfrwt>
<totfact> 0.19531111E+04</totfact>
</mgrwt>
</event>
<event>
 6    1  0.1295671E-001  0.3000000E+03  0.7818608E-02  0.1093470E+00
         21   -1    0    0  501  502  0.00000000000E+00  0.00000000000E+00  0.53882070881E+01  0.53882070881E+01  0.00000000000E+00 0. -1.
         13   -1    0    0    0    0 -0.00000000000E+00 -0.00000000000E+00 -0.10000000000E+04  0.10000000000E+04  0.00000000000E+00 0.  1.
    9000005    2    1    2  501    0 -0.25083911051E+02 -0.17836034386E+02 -0.95359080026E+03  0.95410420808E+03  0.56655817213E+01 0.  0.
         13    1    3    3    0    0 -0.19184982231E+02 -0.14935850002E+02 -0.68020439263E+03  0.68063878740E+03  0.00000000000E+00 0.  1.
          3    1    3    3  501    0 -0.58989288202E+01 -0.29001843839E+01 -0.27338640763E+03  0.27346542068E+03  0.00000000000E+00 0.  1.
         -1    1    1    2    0  502  0.25083911051E+02  0.17836034386E+02 -0.41020992650E+02  0.51283999008E+02  0.00000000000E+00 0. -1.
<mgrwt>
<rscale>  1 0.30000000E+03</rscale>
<asrwt>0</asrwt>
<pdfrwt beam="1">  1       21 0.19593522E-01 0.30000000E+03</pdfrwt>
<pdfrwt beam="2">0</pdfrwt>
<totfact> 0.24949861E+03</totfact>
</mgrwt>
</event>
<event>
 6    1  0.1295671E-001  0.3000000E+03  0.7818608E-02  0.1093470E+00
         21   -1    0    0  501  502  0.00000000000E+00  0.00000000000E+00  0.28574013349E+01  0.28574013349E+01  0.00000000000E+00 0. -1.
         13   -1    0    0    0    0 -0.00000000000E+00 -0.00000000000E+00 -0.10000000000E+04  0.10000000000E+04  0.00000000000E+00 0.  1.
    9000005    2    1    2  501    0 -0.16762684417E+02 -0.33859857500E+02 -0.85267573603E+03  0.85353174400E+03  0.57488836528E+01 0.  0.
         13    1    3    3    0    0 -0.85644187485E+01 -0.11512957305E+02 -0.34505221885E+03  0.34535044692E+03  0.00000000000E+00 0.  1.
          3    1    3    3  501    0 -0.81982656688E+01 -0.22346900195E+02 -0.50762351718E+03  0.50818129708E+03  0.00000000000E+00 0.  1.
         -3    1    1    2    0  502  0.16762684417E+02  0.33859857500E+02 -0.14446686263E+03  0.14932565733E+03  0.00000000000E+00 0. -1.
<mgrwt>
<rscale>  1 0.30000000E+03</rscale>
<asrwt>0</asrwt>
<pdfrwt beam="1">  1       21 0.10390572E-01 0.30000000E+03</pdfrwt>
<pdfrwt beam="2">0</pdfrwt>
<totfact> 0.80332672E+03</totfact>
</mgrwt>
</event>
<event>
 6    1  0.1295671E-001  0.3000000E+03  0.7818608E-02  0.1093470E+00
         21   -1    0    0  501  502  0.00000000000E+00  0.00000000000E+00  0.28787948128E+01  0.28787948128E+01  0.00000000000E+00 0. -1.
         13   -1    0    0    0    0 -0.00000000000E+00 -0.00000000000E+00 -0.10000000000E+04  0.10000000000E+04  0.00000000000E+00 0.  1.
    9000005    2    1    2  501    0  0.59257919805E+01  0.33438704708E+02 -0.88553258102E+03  0.88623710833E+03  0.97466989779E+01 0.  0.
         13    1    3    3    0    0  0.32998312665E+01  0.59825184928E+01 -0.27066748574E+03  0.27075370219E+03  0.00000000000E+00 0.  1.
          3    1    3    3  501    0  0.26259607140E+01  0.27456186216E+02 -0.61486509528E+03  0.61548340614E+03  0.00000000000E+00 0.  1.
         -3    1    1    2    0  502 -0.59257919805E+01 -0.33438704708E+02 -0.11158862416E+03  0.11664168648E+03  0.00000000000E+00 0. -1.
<mgrwt>
<rscale>  1 0.30000000E+03</rscale>
<asrwt>0</asrwt>
<pdfrwt beam="1">  1       21 0.10468367E-01 0.30000000E+03</pdfrwt>
<pdfrwt beam="2">0</pdfrwt>
<totfact> 0.79266201E+03</totfact>
</mgrwt>
</event>
<event>
 6    1  0.1295671E-001  0.3000000E+03  0.7818608E-02  0.1093470E+00
         21   -1    0    0  501  502  0.00000000000E+00  0.00000000000E+00  0.18076394144E+01  0.18076394144E+01  0.00000000000E+00 0. -1.
         13   -1    0    0    0    0 -0.00000000000E+00 -0.00000000000E+00 -0.10000000000E+04  0.10000000000E+04  0.00000000000E+00 0.  1.
    9000005    2    1    2  501    0  0.92903494775E+01  0.39050173313E+02 -0.65926840981E+03  0.66051499220E+03  0.58302766749E+01 0.  0.
         13    1    3    3    0    0  0.37341307528E+01  0.61784621779E+01 -0.12098414519E+03  0.12119934205E+03  0.00000000000E+00 0.  1.
          3    1    3    3  501    0  0.55562187248E+01  0.32871711135E+02 -0.53828426462E+03  0.53931565015E+03  0.00000000000E+00 0.  1.
         -3    1    1    2    0  502 -0.92903494775E+01 -0.39050173313E+02 -0.33892395078E+03  0.34129264721E+03  0.00000000000E+00 0. -1.
<mgrwt>
<rscale>  1 0.30000000E+03</rscale>
<asrwt>0</asrwt>
<pdfrwt beam="1">  1       21 0.65732481E-02 0.30000000E+03</pdfrwt>
<pdfrwt beam="2">0</pdfrwt>
<totfact> 0.17997335E+04</totfact>
</mgrwt>
</event>
<event>
 6    1  0.1295671E-001  0.3000000E+03  0.7818608E-02  0.1093470E+00
         21   -1    0    0  501  502  0.00000000000E+00  0.00000000000E+00  0.34482824570E+01  0.34482824570E+01  0.00000000000E+00 0. -1.
         13   -1    0    0    0    0 -0.00000000000E+00 -0.00000000000E+00 -0.10000000000E+04  0.10000000000E+04  0.00000000000E+00 0.  1.
    9000005    2    1    2  501    0  0.41944691547E+02 -0.88506112639E-01 -0.84919980112E+03  0.85024269425E+03  0.36016569131E+01 0.  0.
         13    1    3    3    0    0  0.24947666346E+02  0.10777914363E+01 -0.47697934151E+03  0.47763253650E+03  0.00000000000E+00 0.  1.
          3    1    3    3  501    0  0.16997025201E+02 -0.11662975490E+01 -0.37222045961E+03  0.37261015776E+03  0.00000000000E+00 0.  1.
         -1    1    1    2    0  502 -0.41944691547E+02  0.88506112639E-01 -0.14735191642E+03  0.15320558820E+03  0.00000000000E+00 0. -1.
<mgrwt>
<rscale>  1 0.30000000E+03</rscale>
<asrwt>0</asrwt>
<pdfrwt beam="1">  1       21 0.12539235E-01 0.30000000E+03</pdfrwt>
<pdfrwt beam="2">0</pdfrwt>
<totfact> 0.57209423E+03</totfact>
</mgrwt>
</event>
<event>
 6    1  0.1295671E-001  0.3000000E+03  0.7818608E-02  0.1093470E+00
         21   -1    0    0  501  502  0.00000000000E+00  0.00000000000E+00  0.14072986141E+01  0.14072986141E+01  0.00000000000E+00 0. -1.
         13   -1    0    0    0    0 -0.00000000000E+00 -0.00000000000E+00 -0.10000000000E+04  0.10000000000E+04  0.00000000000E+00 0.  1.
    9000005    2    1    2  501    0  0.66543503213E+01  0.35244538483E+02 -0.64189743527E+03  0.64291326694E+03  0.43236026417E+01 0.  0.
         13    1    3    3    0    0  0.99653569297E-01  0.10397401754E+00 -0.49599734355E+00  0.51648310235E+00  0.00000000000E+00 0.  1.
          1    1    3    3  501    0  0.65546967520E+01  0.35140564465E+02 -0.64140143792E+03  0.64239678384E+03  0.00000000000E+00 0.  1.
         -1    1    1    2    0  502 -0.66543503213E+01 -0.35244538483E+02 -0.35669526612E+03  0.35849403167E+03  0.00000000000E+00 0. -1.
<mgrwt>
<rscale>  1 0.30000000E+03</rscale>
<asrwt>0</asrwt>
<pdfrwt beam="1">  1       21 0.51174603E-02 0.30000000E+03</pdfrwt>
<pdfrwt beam="2">0</pdfrwt>
<totfact> 0.27686065E+04</totfact>
</mgrwt>
</event>
<event>
 6    1  0.1295671E-001  0.3000000E+03  0.7818608E-02  0.1093470E+00
         21   -1    0    0  501  502  0.00000000000E+00  0.00000000000E+00  0.17748316524E+01  0.17748316524E+01  0.00000000000E+00 0. -1.
         13   -1    0    0    0    0 -0.00000000000E+00 -0.00000000000E+00 -0.10000000000E+04  0.10000000000E+04  0.00000000000E+00 0.  1.
    9000005    2    1    2  501    0  0.22901091371E+02 -0.34113270814E+02 -0.60698629129E+03  0.60838439690E+03  0.33228524555E+01 0.  0.
         13    1    3    3    0    0  0.19107570208E+02 -0.30168637910E+02 -0.53481364548E+03  0.53600455347E+03  0.00000000000E+00 0.  1.
          3    1    3    3  501    0  0.37935211636E+01 -0.39446329041E+01 -0.72172645813E+02  0.72379843432E+02  0.00000000000E+00 0.  1.
         -3    1    1    2    0  502 -0.22901091371E+02  0.34113270814E+02 -0.39123887706E+03  0.39339043475E+03  0.00000000000E+00 0. -1.
<mgrwt>
<rscale>  1 0.30000000E+03</rscale>
<asrwt>0</asrwt>
<pdfrwt beam="1">  1       21 0.64539469E-02 0.30000000E+03</pdfrwt>
<pdfrwt beam="2">0</pdfrwt>
<totfact> 0.18577297E+04</totfact>
</mgrwt>
</event>
<event>
 6    1  0.1295671E-001  0.3000000E+03  0.7818608E-02  0.1093470E+00
         21   -1    0    0  501  502  0.00000000000E+00  0.00000000000E+00  0.51332426262E+01  0.51332426262E+01  0.00000000000E+00 0. -1.
         13   -1    0    0    0    0 -0.00000000000E+00 -0.00000000000E+00 -0.10000000000E+04  0.10000000000E+04  0.00000000000E+00 0.  1.
    9000005    2    1    2  501    0  0.16240765041E+02 -0.32045290238E+02 -0.93217584904E+03  0.93287804861E+03  0.43562549399E+01 0.  0.
         13    1    3    3    0    0  0.12917532992E+02 -0.21727698505E+02 -0.67859834321E+03  0.67906897069E+03  0.00000000000E+00 0.  1.
          3    1    3    3  501    0  0.33232320491E+01 -0.10317591733E+02 -0.25357750583E+03  0.25380907792E+03  0.00000000000E+00 0.  1.
         -1    1    1    2    0  502 -0.16240765041E+02  0.32045290238E+02 -0.62690908331E+02  0.72255194020E+02  0.00000000000E+00 0. -1.
<mgrwt>
<rscale>  1 0.30000000E+03</rscale>
<asrwt>0</asrwt>
<pdfrwt beam="1">  1       21 0.18666376E-01 0.30000000E+03</pdfrwt>
<pdfrwt beam="2">0</pdfrwt>
<totfact> 0.27353094E+03</totfact>
</mgrwt>
</event>
<event>
 6    1  0.1295671E-001  0.3000000E+03  0.7818608E-02  0.1093470E+00
         21   -1    0    0  501  502  0.00000000000E+00  0.00000000000E+00  0.18965088546E+01  0.18965088546E+01  0.00000000000E+00 0. -1.
         13   -1    0    0    0    0 -0.00000000000E+00 -0.00000000000E+00 -0.10000000000E+04  0.10000000000E+04  0.00000000000E+00 0.  1.
    9000005    2    1    2  501    0 -0.40416813332E+02  0.55271753423E+00 -0.68430503062E+03  0.68550545632E+03  0.32452140781E+01 0.  0.
         13    1    3    3    0    0 -0.84840206607E+01 -0.11352427366E+01 -0.15188672406E+03  0.15212772374E+03  0.00000000000E+00 0.  1.
          3    1    3    3  501    0 -0.31932792672E+02  0.16879602708E+01 -0.53241830656E+03  0.53337773258E+03  0.00000000000E+00 0.  1.
         -3    1    1    2    0  502  0.40416813332E+02 -0.55271753423E+00 -0.31379846052E+03  0.31639105253E+03  0.00000000000E+00 0. -1.
<mgrwt>
<rscale>  1 0.30000000E+03</rscale>
<asrwt>0</asrwt>
<pdfrwt beam="1">  1       21 0.68964104E-02 0.30000000E+03</pdfrwt>
<pdfrwt beam="2">0</pdfrwt>
<totfact> 0.16559171E+04</totfact>
</mgrwt>
</event>
<event>
 6    1  0.1295671E-001  0.3000000E+03  0.7818608E-02  0.1093470E+00
         21   -1    0    0  501  502  0.00000000000E+00  0.00000000000E+00  0.99037671184E+00  0.99037671184E+00  0.00000000000E+00 0. -1.
         13   -1    0    0    0    0 -0.00000000000E+00 -0.00000000000E+00 -0.10000000000E+04  0.10000000000E+04  0.00000000000E+00 0.  1.
    9000005    2    1    2  501    0  0.22076088201E+01 -0.31146002387E+02 -0.54960097306E+03  0.55049833249E+03  0.34982126316E+01 0.  0.
         13    1    3    3    0    0  0.51378808078E+00 -0.14033731976E+02 -0.27669406183E+03  0.27705020026E+03  0.00000000000E+00 0.  1.
          1    1    3    3  501    0  0.16938207393E+01 -0.17112270411E+02 -0.27290691122E+03  0.27344813223E+03  0.00000000000E+00 0.  1.
         -3    1    1    2    0  502 -0.22076088201E+01  0.31146002387E+02 -0.44940865023E+03  0.45049204422E+03  0.00000000000E+00 0. -1.
<mgrwt>
<rscale>  1 0.30000000E+03</rscale>
<asrwt>0</asrwt>
<pdfrwt beam="1">  1       21 0.36013775E-02 0.30000000E+03</pdfrwt>
<pdfrwt beam="2">0</pdfrwt>
<totfact> 0.50158123E+04</totfact>
</mgrwt>
</event>
<event>
 6    1  0.1295671E-001  0.3000000E+03  0.7818608E-02  0.1093470E+00
         21   -1    0    0  501  502  0.00000000000E+00  0.00000000000E+00  0.32244743220E+01  0.32244743220E+01  0.00000000000E+00 0. -1.
         13   -1    0    0    0    0 -0.00000000000E+00 -0.00000000000E+00 -0.10000000000E+04  0.10000000000E+04  0.00000000000E+00 0.  1.
    9000005    2    1    2  501    0 -0.25551270965E+02  0.44804443787E+02 -0.70752807348E+03  0.70941434135E+03  0.35252414152E+01 0.  0.
         13    1    3    3    0    0 -0.22476841918E+02  0.41421497932E+02 -0.64430755939E+03  0.64602877645E+03  0.00000000000E+00 0.  1.
          3    1    3    3  501    0 -0.30744290468E+01  0.33829458548E+01 -0.63220514089E+02  0.63385564905E+02  0.00000000000E+00 0.  1.
         -3    1    1    2    0  502  0.25551270965E+02 -0.44804443787E+02 -0.28924745220E+03  0.29381013297E+03  0.00000000000E+00 0. -1.
<mgrwt>
<rscale>  1 0.30000000E+03</rscale>
<asrwt>0</asrwt>
<pdfrwt beam="1">  1       21 0.11725386E-01 0.30000000E+03</pdfrwt>
<pdfrwt beam="2">0</pdfrwt>
<totfact> 0.64626907E+03</totfact>
</mgrwt>
</event>
<event>
 6    1  0.1295671E-001  0.3000000E+03  0.7818608E-02  0.1093470E+00
         21   -1    0    0  501  502  0.00000000000E+00  0.00000000000E+00  0.19297768696E+01  0.19297768696E+01  0.00000000000E+00 0. -1.
         13   -1    0    0    0    0 -0.00000000000E+00 -0.00000000000E+00 -0.10000000000E+04  0.10000000000E+04  0.00000000000E+00 0.  1.
    9000005    2    1    2  501    0 -0.42768034264E+02  0.91849966521E+01 -0.53195005456E+03  0.53376155874E+03  0.41318426936E+01 0.  0.
         13    1    3    3    0    0 -0.18536133273E+02  0.23116973725E+01 -0.24157218356E+03  0.24229331822E+03  0.00000000000E+00 0.  1.
          1    1    3    3  501    0 -0.24231900991E+02  0.68732992796E+01 -0.29037787100E+03  0.29146824053E+03  0.00000000000E+00 0.  1.
         -1    1    1    2    0  502  0.42768034264E+02 -0.91849966521E+01 -0.46612016857E+03  0.46816821813E+03  0.00000000000E+00 0. -1.
<mgrwt>
<rscale>  1 0.30000000E+03</rscale>
<asrwt>0</asrwt>
<pdfrwt beam="1">  1       21 0.70173852E-02 0.30000000E+03</pdfrwt>
<pdfrwt beam="2">0</pdfrwt>
<totfact> 0.16065775E+04</totfact>
</mgrwt>
</event>
<event>
 6    1  0.1295671E-001  0.3000000E+03  0.7818608E-02  0.1093470E+00
         21   -1    0    0  501  502  0.00000000000E+00  0.00000000000E+00  0.35277890256E+01  0.35277890256E+01  0.00000000000E+00 0. -1.
         13   -1    0    0    0    0 -0.00000000000E+00 -0.00000000000E+00 -0.10000000000E+04  0.10000000000E+04  0.00000000000E+00 0.  1.
    9000005    2    1    2  501    0  0.12064926109E+02  0.44673639845E+02 -0.81221702748E+03  0.81355076625E+03  0.52012493219E+01 0.  0.
         13    1    3    3    0    0  0.24539949581E+01  0.18888025064E+02 -0.33087537097E+03  0.33142312940E+03  0.00000000000E+00 0.  1.
          1    1    3    3  501    0  0.96109311505E+01  0.25785614781E+02 -0.48134165651E+03  0.48212763685E+03  0.00000000000E+00 0.  1.
         -1    1    1    2    0  502 -0.12064926109E+02 -0.44673639845E+02 -0.18425518350E+03  0.18997702278E+03  0.00000000000E+00 0. -1.
<mgrwt>
<rscale>  1 0.30000000E+03</rscale>
<asrwt>0</asrwt>
<pdfrwt beam="1">  1       21 0.12828351E-01 0.30000000E+03</pdfrwt>
<pdfrwt beam="2">0</pdfrwt>
<totfact> 0.54880695E+03</totfact>
</mgrwt>
</event>
<event>
 6    1  0.1295671E-001  0.3000000E+03  0.7818608E-02  0.1093470E+00
         21   -1    0    0  501  502  0.00000000000E+00  0.00000000000E+00  0.18080421199E+01  0.18080421199E+01  0.00000000000E+00 0. -1.
         13   -1    0    0    0    0 -0.00000000000E+00 -0.00000000000E+00 -0.10000000000E+04  0.10000000000E+04  0.00000000000E+00 0.  1.
    9000005    2    1    2  501    0 -0.41348377644E+02  0.52258237113E+01 -0.59496499991E+03  0.59643293534E+03  0.34492994843E+01 0.  0.
         13    1    3    3    0    0 -0.32864741822E+02  0.53420276129E+01 -0.48421622790E+03  0.48535964385E+03  0.00000000000E+00 0.  1.
          3    1    3    3  501    0 -0.84836358217E+01 -0.11620390162E+00 -0.11074877201E+03  0.11107329149E+03  0.00000000000E+00 0.  1.
         -1    1    1    2    0  502  0.41348377644E+02 -0.52258237113E+01 -0.40322695797E+03  0.40537510678E+03  0.00000000000E+00 0. -1.
<mgrwt>
<rscale>  1 0.30000000E+03</rscale>
<asrwt>0</asrwt>
<pdfrwt beam="1">  1       21 0.65747125E-02 0.30000000E+03</pdfrwt>
<pdfrwt beam="2">0</pdfrwt>
<totfact> 0.17990390E+04</totfact>
</mgrwt>
</event>
<event>
 6    1  0.1295671E-001  0.3000000E+03  0.7818608E-02  0.1093470E+00
         21   -1    0    0  501  502  0.00000000000E+00  0.00000000000E+00  0.64585917596E+01  0.64585917596E+01  0.00000000000E+00 0. -1.
         13   -1    0    0    0    0 -0.00000000000E+00 -0.00000000000E+00 -0.10000000000E+04  0.10000000000E+04  0.00000000000E+00 0.  1.
    9000005    2    1    2  501    0 -0.72614651754E+02  0.32954940258E+02 -0.43603310439E+03  0.44327618384E+03  0.31609005441E+01 0.  0.
         13    1    3    3    0    0 -0.42755786235E+02  0.18093048948E+02 -0.25928965072E+03  0.26341324691E+03  0.00000000000E+00 0.  1.
          3    1    3    3  501    0 -0.29858865519E+02  0.14861891309E+02 -0.17674345367E+03  0.17986293692E+03  0.00000000000E+00 0.  1.
         -1    1    1    2    0  502  0.72614651754E+02 -0.32954940258E+02 -0.55750830385E+03  0.56318240792E+03  0.00000000000E+00 0. -1.
<mgrwt>
<rscale>  1 0.30000000E+03</rscale>
<asrwt>0</asrwt>
<pdfrwt beam="1">  1       21 0.23485838E-01 0.30000000E+03</pdfrwt>
<pdfrwt beam="2">0</pdfrwt>
<totfact> 0.17614777E+03</totfact>
</mgrwt>
</event>
<event>
 6    1  0.1295671E-001  0.3000000E+03  0.7818608E-02  0.1093470E+00
         21   -1    0    0  501  502  0.00000000000E+00  0.00000000000E+00  0.13305051156E+01  0.13305051156E+01  0.00000000000E+00 0. -1.
         13   -1    0    0    0    0 -0.00000000000E+00 -0.00000000000E+00 -0.10000000000E+04  0.10000000000E+04  0.00000000000E+00 0.  1.
    9000005    2    1    2  501    0  0.22197551067E+02  0.28207901144E+02 -0.58311590482E+03  0.58422955430E+03  0.34053923347E+01 0.  0.
         13    1    3    3    0    0  0.20755840921E+02  0.24702026840E+02 -0.52084857573E+03  0.52184694490E+03  0.00000000000E+00 0.  1.
          3    1    3    3  501    0  0.14417101455E+01  0.35058743039E+01 -0.62267329095E+02  0.62382609399E+02  0.00000000000E+00 0.  1.
         -3    1    1    2    0  502 -0.22197551067E+02 -0.28207901144E+02 -0.41555359006E+03  0.41710095082E+03  0.00000000000E+00 0. -1.
<mgrwt>
<rscale>  1 0.30000000E+03</rscale>
<asrwt>0</asrwt>
<pdfrwt beam="1">  1       21 0.48382106E-02 0.30000000E+03</pdfrwt>
<pdfrwt beam="2">0</pdfrwt>
<totfact> 0.30464657E+04</totfact>
</mgrwt>
</event>
<event>
 6    1  0.1295671E-001  0.3000000E+03  0.7818608E-02  0.1093470E+00
         21   -1    0    0  501  502  0.00000000000E+00  0.00000000000E+00  0.25056989635E+01  0.25056989635E+01  0.00000000000E+00 0. -1.
         13   -1    0    0    0    0 -0.00000000000E+00 -0.00000000000E+00 -0.10000000000E+04  0.10000000000E+04  0.00000000000E+00 0.  1.
    9000005    2    1    2  501    0 -0.45552546817E+02  0.17660433365E+02 -0.39234494359E+03  0.39538736598E+03  0.31127137376E+01 0.  0.
         13    1    3    3    0    0 -0.38387563425E+02  0.15981766551E+02 -0.33673314470E+03  0.33929077887E+03  0.00000000000E+00 0.  1.
          1    1    3    3  501    0 -0.71649833920E+01  0.16786668145E+01 -0.55611798896E+02  0.56096587113E+02  0.00000000000E+00 0.  1.
         -3    1    1    2    0  502  0.45552546817E+02 -0.17660433365E+02 -0.60514935744E+03  0.60711833298E+03  0.00000000000E+00 0. -1.
<mgrwt>
<rscale>  1 0.30000000E+03</rscale>
<asrwt>0</asrwt>
<pdfrwt beam="1">  1       21 0.91116518E-02 0.30000000E+03</pdfrwt>
<pdfrwt beam="2">0</pdfrwt>
<totfact> 0.10153726E+04</totfact>
</mgrwt>
</event>
<event>
 6    1  0.1295671E-001  0.3000000E+03  0.7818608E-02  0.1093470E+00
         21   -1    0    0  501  502  0.00000000000E+00  0.00000000000E+00  0.20730815411E+01  0.20730815411E+01  0.00000000000E+00 0. -1.
         13   -1    0    0    0    0 -0.00000000000E+00 -0.00000000000E+00 -0.10000000000E+04  0.10000000000E+04  0.00000000000E+00 0.  1.
    9000005    2    1    2  501    0 -0.27507304619E+02 -0.15191175134E+02 -0.86142524622E+03  0.86200120665E+03  0.22807552696E+01 0.  0.
         13    1    3    3    0    0 -0.65978773398E+01 -0.46754431111E+01 -0.20991600467E+03  0.21007170388E+03  0.00000000000E+00 0.  1.
          1    1    3    3  501    0 -0.20909427280E+02 -0.10515732023E+02 -0.65150924155E+03  0.65192950278E+03  0.00000000000E+00 0.  1.
         -3    1    1    2    0  502  0.27507304619E+02  0.15191175134E+02 -0.13650167224E+03  0.14007187489E+03  0.00000000000E+00 0. -1.
<mgrwt>
<rscale>  1 0.30000000E+03</rscale>
<asrwt>0</asrwt>
<pdfrwt beam="1">  1       21 0.75384942E-02 0.30000000E+03</pdfrwt>
<pdfrwt beam="2">0</pdfrwt>
<totfact> 0.14176804E+04</totfact>
</mgrwt>
</event>
<event>
 6    1  0.1295671E-001  0.3000000E+03  0.7818608E-02  0.1093470E+00
         21   -1    0    0  501  502  0.00000000000E+00  0.00000000000E+00  0.10106152288E+02  0.10106152288E+02  0.00000000000E+00 0. -1.
         13   -1    0    0    0    0 -0.00000000000E+00 -0.00000000000E+00 -0.10000000000E+04  0.10000000000E+04  0.00000000000E+00 0.  1.
    9000005    2    1    2  501    0 -0.14408257852E+02 -0.29594078885E+02 -0.97215047021E+03  0.97271317374E+03  0.33127388085E+01 0.  0.
         13    1    3    3    0    0 -0.12942720230E+01 -0.50120943634E+01 -0.17138208991E+03  0.17146024895E+03  0.00000000000E+00 0.  1.
          3    1    3    3  501    0 -0.13113985829E+02 -0.24581984522E+02 -0.80076838031E+03  0.80125292479E+03  0.00000000000E+00 0.  1.
         -1    1    1    2    0  502  0.14408257852E+02  0.29594078885E+02 -0.17743377499E+02  0.37392978545E+02  0.00000000000E+00 0. -1.
<mgrwt>
<rscale>  1 0.30000000E+03</rscale>
<asrwt>0</asrwt>
<pdfrwt beam="1">  1       21 0.36749722E-01 0.30000000E+03</pdfrwt>
<pdfrwt beam="2">0</pdfrwt>
<totfact> 0.71999620E+02</totfact>
</mgrwt>
</event>
<event>
 6    1  0.1295671E-001  0.3000000E+03  0.7818608E-02  0.1093470E+00
         21   -1    0    0  501  502  0.00000000000E+00  0.00000000000E+00  0.26327417978E+01  0.26327417978E+01  0.00000000000E+00 0. -1.
         13   -1    0    0    0    0 -0.00000000000E+00 -0.00000000000E+00 -0.10000000000E+04  0.10000000000E+04  0.00000000000E+00 0.  1.
    9000005    2    1    2  501    0  0.34408580135E+02 -0.33447563445E+02 -0.67521900460E+03  0.67693013636E+03  0.33189542848E+01 0.  0.
         13    1    3    3    0    0  0.14276780836E+02 -0.15851685874E+02 -0.28779028470E+03  0.28857988561E+03  0.00000000000E+00 0.  1.
          1    1    3    3  501    0  0.20131799299E+02 -0.17595877571E+02 -0.38742871990E+03  0.38835025074E+03  0.00000000000E+00 0.  1.
         -3    1    1    2    0  502 -0.34408580135E+02  0.33447563445E+02 -0.32214825361E+03  0.32570260544E+03  0.00000000000E+00 0. -1.
<mgrwt>
<rscale>  1 0.30000000E+03</rscale>
<asrwt>0</asrwt>
<pdfrwt beam="1">  1       21 0.95736267E-02 0.30000000E+03</pdfrwt>
<pdfrwt beam="2">0</pdfrwt>
<totfact> 0.92989039E+03</totfact>
</mgrwt>
</event>
<event>
 6    1  0.1295671E-001  0.3000000E+03  0.7818608E-02  0.1093470E+00
         21   -1    0    0  501  502  0.00000000000E+00  0.00000000000E+00  0.17814024726E+01  0.17814024726E+01  0.00000000000E+00 0. -1.
         13   -1    0    0    0    0 -0.00000000000E+00 -0.00000000000E+00 -0.10000000000E+04  0.10000000000E+04  0.00000000000E+00 0.  1.
    9000005    2    1    2  501    0 -0.50439146257E+01  0.31818436889E+02 -0.82240435101E+03  0.82303995994E+03  0.28293274813E+01 0.  0.
         13    1    3    3    0    0 -0.45217307843E+00  0.52792083607E+01 -0.16196770483E+03  0.16205434862E+03  0.00000000000E+00 0.  1.
          3    1    3    3  501    0 -0.45917415473E+01  0.26539228528E+02 -0.66043664618E+03  0.66098561131E+03  0.00000000000E+00 0.  1.
         -3    1    1    2    0  502  0.50439146257E+01 -0.31818436889E+02 -0.17581424652E+03  0.17874144254E+03  0.00000000000E+00 0. -1.
<mgrwt>
<rscale>  1 0.30000000E+03</rscale>
<asrwt>0</asrwt>
<pdfrwt beam="1">  1       21 0.64778408E-02 0.30000000E+03</pdfrwt>
<pdfrwt beam="2">0</pdfrwt>
<totfact> 0.18458852E+04</totfact>
</mgrwt>
</event>
<event>
 6    1  0.1295671E-001  0.3000000E+03  0.7818608E-02  0.1093470E+00
         21   -1    0    0  501  502  0.00000000000E+00  0.00000000000E+00  0.17903364195E+01  0.17903364195E+01  0.00000000000E+00 0. -1.
         13   -1    0    0    0    0 -0.00000000000E+00 -0.00000000000E+00 -0.10000000000E+04  0.10000000000E+04  0.00000000000E+00 0.  1.
    9000005    2    1    2  501    0 -0.41518761433E+02  0.60720793265E+01 -0.43904931578E+03  0.44105780460E+03  0.26471882476E+01 0.  0.
         13    1    3    3    0    0 -0.24907011519E+02  0.42935074357E+01 -0.27598802726E+03  0.27714289567E+03  0.00000000000E+00 0.  1.
          3    1    3    3  501    0 -0.16611749914E+02  0.17785718908E+01 -0.16306128853E+03  0.16391490893E+03  0.00000000000E+00 0.  1.
         -3    1    1    2    0  502  0.41518761433E+02 -0.60720793265E+01 -0.55916034780E+03  0.56073253182E+03  0.00000000000E+00 0. -1.
<mgrwt>
<rscale>  1 0.30000000E+03</rscale>
<asrwt>0</asrwt>
<pdfrwt beam="1">  1       21 0.65103280E-02 0.30000000E+03</pdfrwt>
<pdfrwt beam="2">0</pdfrwt>
<totfact> 0.18299670E+04</totfact>
</mgrwt>
</event>
<event>
 6    1  0.1295671E-001  0.3000000E+03  0.7818608E-02  0.1093470E+00
         21   -1    0    0  501  502  0.00000000000E+00  0.00000000000E+00  0.21342104268E+01  0.21342104268E+01  0.00000000000E+00 0. -1.
         13   -1    0    0    0    0 -0.00000000000E+00 -0.00000000000E+00 -0.10000000000E+04  0.10000000000E+04  0.00000000000E+00 0.  1.
    9000005    2    1    2  501    0  0.13152203742E+01  0.46104572977E+02 -0.49699963906E+03  0.49914886056E+03  0.36854192712E+01 0.  0.
         13    1    3    3    0    0  0.18012077353E+01  0.15466567729E+02 -0.15591353283E+03  0.15668914699E+03  0.00000000000E+00 0.  1.
          1    1    3    3  501    0 -0.48598736109E+00  0.30638005248E+02 -0.34108610623E+03  0.34245971356E+03  0.00000000000E+00 0.  1.
         -1    1    1    2    0  502 -0.13152203742E+01 -0.46104572977E+02 -0.50086615051E+03  0.50298534987E+03  0.00000000000E+00 0. -1.
<mgrwt>
<rscale>  1 0.30000000E+03</rscale>
<asrwt>0</asrwt>
<pdfrwt beam="1">  1       21 0.77607816E-02 0.30000000E+03</pdfrwt>
<pdfrwt beam="2">0</pdfrwt>
<totfact> 0.13472910E+04</totfact>
</mgrwt>
</event>
<event>
 6    1  0.1295671E-001  0.3000000E+03  0.7818608E-02  0.1093470E+00
         21   -1    0    0  501  502  0.00000000000E+00  0.00000000000E+00  0.16491350406E+01  0.16491350406E+01  0.00000000000E+00 0. -1.
         13   -1    0    0    0    0 -0.00000000000E+00 -0.00000000000E+00 -0.10000000000E+04  0.10000000000E+04  0.00000000000E+00 0.  1.
    9000005    2    1    2  501    0 -0.11893825781E+02 -0.33405489566E+02 -0.74232313636E+03  0.74317749707E+03  0.34298027672E+01 0.  0.
         13    1    3    3    0    0 -0.94587286616E+01 -0.26099742849E+02 -0.60858026371E+03  0.60921310023E+03  0.00000000000E+00 0.  1.
          3    1    3    3  501    0 -0.24350971194E+01 -0.73057467171E+01 -0.13374287265E+03  0.13396439683E+03  0.00000000000E+00 0.  1.
         -3    1    1    2    0  502  0.11893825781E+02  0.33405489566E+02 -0.25602772860E+03  0.25847163797E+03  0.00000000000E+00 0. -1.
<mgrwt>
<rscale>  1 0.30000000E+03</rscale>
<asrwt>0</asrwt>
<pdfrwt beam="1">  1       21 0.59968673E-02 0.30000000E+03</pdfrwt>
<pdfrwt beam="2">0</pdfrwt>
<totfact> 0.21090653E+04</totfact>
</mgrwt>
</event>
<event>
 6    1  0.1295671E-001  0.3000000E+03  0.7818608E-02  0.1093470E+00
         21   -1    0    0  501  502  0.00000000000E+00  0.00000000000E+00  0.62665472075E+01  0.62665472075E+01  0.00000000000E+00 0. -1.
         13   -1    0    0    0    0 -0.00000000000E+00 -0.00000000000E+00 -0.10000000000E+04  0.10000000000E+04  0.00000000000E+00 0.  1.
    9000005    2    1    2  501    0 -0.19299054920E+02 -0.28265372687E+02 -0.95050432626E+03  0.95112906273E+03  0.40785919214E+01 0.  0.
         13    1    3    3    0    0 -0.15013145156E+02 -0.18661972476E+02 -0.66053986796E+03  0.66097396387E+03  0.00000000000E+00 0.  1.
          1    1    3    3  501    0 -0.42859097640E+01 -0.96034002108E+01 -0.28996445830E+03  0.29015509886E+03  0.00000000000E+00 0.  1.
         -3    1    1    2    0  502  0.19299054920E+02  0.28265372687E+02 -0.43229126530E+02  0.55137484477E+02  0.00000000000E+00 0. -1.
<mgrwt>
<rscale>  1 0.30000000E+03</rscale>
<asrwt>0</asrwt>
<pdfrwt beam="1">  1       21 0.22787492E-01 0.30000000E+03</pdfrwt>
<pdfrwt beam="2">0</pdfrwt>
<totfact> 0.18675016E+03</totfact>
</mgrwt>
</event>
<event>
 6    1  0.1295671E-001  0.3000000E+03  0.7818608E-02  0.1093470E+00
         21   -1    0    0  501  502  0.00000000000E+00  0.00000000000E+00  0.39453930485E+01  0.39453930485E+01  0.00000000000E+00 0. -1.
         13   -1    0    0    0    0 -0.00000000000E+00 -0.00000000000E+00 -0.10000000000E+04  0.10000000000E+04  0.00000000000E+00 0.  1.
    9000005    2    1    2  501    0 -0.62255822013E+02  0.16031455167E+00 -0.43965635315E+03  0.44407502421E+03  0.53949219272E+01 0.  0.
         13    1    3    3    0    0 -0.38948131432E+02 -0.37199693694E+00 -0.25638181773E+03  0.25932360437E+03  0.00000000000E+00 0.  1.
          3    1    3    3  501    0 -0.23307690581E+02  0.53231148861E+00 -0.18327453542E+03  0.18475141983E+03  0.00000000000E+00 0.  1.
         -1    1    1    2    0  502  0.62255822013E+02 -0.16031455167E+00 -0.55639825380E+03  0.55987036884E+03  0.00000000000E+00 0. -1.
<mgrwt>
<rscale>  1 0.30000000E+03</rscale>
<asrwt>0</asrwt>
<pdfrwt beam="1">  1       21 0.14346914E-01 0.30000000E+03</pdfrwt>
<pdfrwt beam="2">0</pdfrwt>
<totfact> 0.44707709E+03</totfact>
</mgrwt>
</event>
<event>
 6    1  0.1295671E-001  0.3000000E+03  0.7818608E-02  0.1093470E+00
         21   -1    0    0  501  502  0.00000000000E+00  0.00000000000E+00  0.14464025132E+01  0.14464025132E+01  0.00000000000E+00 0. -1.
         13   -1    0    0    0    0 -0.00000000000E+00 -0.00000000000E+00 -0.10000000000E+04  0.10000000000E+04  0.00000000000E+00 0.  1.
    9000005    2    1    2  501    0  0.36817042064E+02  0.92175269602E+01 -0.48980346592E+03  0.49128255260E+03  0.32640269471E+01 0.  0.
         13    1    3    3    0    0  0.12142546333E+02  0.46285108734E+01 -0.16883241665E+03  0.16933177332E+03  0.00000000000E+00 0.  1.
          3    1    3    3  501    0  0.24674495730E+02  0.45890160868E+01 -0.32097104927E+03  0.32195077928E+03  0.00000000000E+00 0.  1.
         -1    1    1    2    0  502 -0.36817042064E+02 -0.92175269602E+01 -0.50875013157E+03  0.51016384991E+03  0.00000000000E+00 0. -1.
<mgrwt>
<rscale>  1 0.30000000E+03</rscale>
<asrwt>0</asrwt>
<pdfrwt beam="1">  1       21 0.52596566E-02 0.30000000E+03</pdfrwt>
<pdfrwt beam="2">0</pdfrwt>
<totfact> 0.26419809E+04</totfact>
</mgrwt>
</event>
<event>
 6    1  0.1295671E-001  0.3000000E+03  0.7818608E-02  0.1093470E+00
         21   -1    0    0  501  502  0.00000000000E+00  0.00000000000E+00  0.20948256739E+01  0.20948256739E+01  0.00000000000E+00 0. -1.
         13   -1    0    0    0    0 -0.00000000000E+00 -0.00000000000E+00 -0.10000000000E+04  0.10000000000E+04  0.00000000000E+00 0.  1.
    9000005    2    1    2  501    0  0.91687652569E+00 -0.36913037426E+02 -0.79454519396E+03  0.79540981265E+03  0.33603301852E+01 0.  0.
         13    1    3    3    0    0  0.82841007811E+00 -0.85972587011E+01 -0.15957751024E+03  0.15981107876E+03  0.00000000000E+00 0.  1.
          1    1    3    3  501    0  0.88466447585E-01 -0.28315778725E+02 -0.63496768372E+03  0.63559873389E+03  0.00000000000E+00 0.  1.
         -1    1    1    2    0  502 -0.91687652569E+00  0.36913037426E+02 -0.20335998036E+03  0.20668501302E+03  0.00000000000E+00 0. -1.
<mgrwt>
<rscale>  1 0.30000000E+03</rscale>
<asrwt>0</asrwt>
<pdfrwt beam="1">  1       21 0.76175640E-02 0.30000000E+03</pdfrwt>
<pdfrwt beam="2">0</pdfrwt>
<totfact> 0.13920047E+04</totfact>
</mgrwt>
</event>
<event>
 6    1  0.1295671E-001  0.3000000E+03  0.7818608E-02  0.1093470E+00
         21   -1    0    0  501  502  0.00000000000E+00  0.00000000000E+00  0.44793258439E+01  0.44793258439E+01  0.00000000000E+00 0. -1.
         13   -1    0    0    0    0 -0.00000000000E+00 -0.00000000000E+00 -0.10000000000E+04  0.10000000000E+04  0.00000000000E+00 0.  1.
    9000005    2    1    2  501    0 -0.45825754567E+02 -0.38662700950E+02 -0.72057525963E+03  0.72307252920E+03  0.32207874862E+01 0.  0.
         13    1    3    3    0    0 -0.38418693143E+01 -0.44935511739E+01 -0.70972779629E+02  0.71218588937E+02  0.00000000000E+00 0.  1.
          3    1    3    3  501    0 -0.41983885252E+02 -0.34169149776E+02 -0.64960248000E+03  0.65185394026E+03  0.00000000000E+00 0.  1.
         -3    1    1    2    0  502  0.45825754567E+02  0.38662700950E+02 -0.27494541453E+03  0.28140679664E+03  0.00000000000E+00 0. -1.
<mgrwt>
<rscale>  1 0.30000000E+03</rscale>
<asrwt>0</asrwt>
<pdfrwt beam="1">  1       21 0.16288492E-01 0.30000000E+03</pdfrwt>
<pdfrwt beam="2">0</pdfrwt>
<totfact> 0.35329271E+03</totfact>
</mgrwt>
</event>
<event>
 6    1  0.1295671E-001  0.3000000E+03  0.7818608E-02  0.1093470E+00
         21   -1    0    0  501  502  0.00000000000E+00  0.00000000000E+00  0.46046353646E+01  0.46046353646E+01  0.00000000000E+00 0. -1.
         13   -1    0    0    0    0 -0.00000000000E+00 -0.00000000000E+00 -0.10000000000E+04  0.10000000000E+04  0.00000000000E+00 0.  1.
    9000005    2    1    2  501    0  0.11126666471E+02 -0.57888104947E+02 -0.74620700148E+03  0.74853887089E+03  0.32736497256E+01 0.  0.
         13    1    3    3    0    0  0.62858082728E+01 -0.29134947764E+02 -0.39610392042E+03  0.39722370566E+03  0.00000000000E+00 0.  1.
          1    1    3    3  501    0  0.48408581984E+01 -0.28753157184E+02 -0.35010308105E+03  0.35131516523E+03  0.00000000000E+00 0.  1.
         -1    1    1    2    0  502 -0.11126666471E+02  0.57888104947E+02 -0.24918836316E+03  0.25606576447E+03  0.00000000000E+00 0. -1.
<mgrwt>
<rscale>  1 0.30000000E+03</rscale>
<asrwt>0</asrwt>
<pdfrwt beam="1">  1       21 0.16744164E-01 0.30000000E+03</pdfrwt>
<pdfrwt beam="2">0</pdfrwt>
<totfact> 0.33554153E+03</totfact>
</mgrwt>
</event>
<event>
 6    1  0.1295671E-001  0.3000000E+03  0.7818608E-02  0.1093470E+00
         21   -1    0    0  501  502  0.00000000000E+00  0.00000000000E+00  0.13560118117E+01  0.13560118117E+01  0.00000000000E+00 0. -1.
         13   -1    0    0    0    0 -0.00000000000E+00 -0.00000000000E+00 -0.10000000000E+04  0.10000000000E+04  0.00000000000E+00 0.  1.
    9000005    2    1    2  501    0 -0.26144499824E+02 -0.18405207329E+02 -0.74527072708E+03  0.74597336563E+03  0.50516387467E+01 0.  0.
         13    1    3    3    0    0 -0.25343291983E+01 -0.26184911105E+01 -0.12439289629E+03  0.12444626137E+03  0.00000000000E+00 0.  1.
          1    1    3    3  501    0 -0.23610170626E+02 -0.15786716219E+02 -0.62087783079E+03  0.62152710426E+03  0.00000000000E+00 0.  1.
         -1    1    1    2    0  502  0.26144499824E+02  0.18405207329E+02 -0.25337326111E+03  0.25538264619E+03  0.00000000000E+00 0. -1.
<mgrwt>
<rscale>  1 0.30000000E+03</rscale>
<asrwt>0</asrwt>
<pdfrwt beam="1">  1       21 0.49309624E-02 0.30000000E+03</pdfrwt>
<pdfrwt beam="2">0</pdfrwt>
<totfact> 0.29495304E+04</totfact>
</mgrwt>
</event>
<event>
 6    1  0.1295671E-001  0.3000000E+03  0.7818608E-02  0.1093470E+00
         21   -1    0    0  501  502  0.00000000000E+00  0.00000000000E+00  0.16503785778E+01  0.16503785778E+01  0.00000000000E+00 0. -1.
         13   -1    0    0    0    0 -0.00000000000E+00 -0.00000000000E+00 -0.10000000000E+04  0.10000000000E+04  0.00000000000E+00 0.  1.
    9000005    2    1    2  501    0 -0.14908337037E+02 -0.27026533205E+02 -0.82440439774E+03  0.82498789571E+03  0.31185010387E+01 0.  0.
         13    1    3    3    0    0 -0.64798446266E+01 -0.14218416528E+02 -0.44275787111E+03  0.44303350233E+03  0.00000000000E+00 0.  1.
          1    1    3    3  501    0 -0.84284924105E+01 -0.12808116677E+02 -0.38164652663E+03  0.38195439338E+03  0.00000000000E+00 0.  1.
         -3    1    1    2    0  502  0.14908337037E+02  0.27026533205E+02 -0.17394522368E+03  0.17666248287E+03  0.00000000000E+00 0. -1.
<mgrwt>
<rscale>  1 0.30000000E+03</rscale>
<asrwt>0</asrwt>
<pdfrwt beam="1">  1       21 0.60013893E-02 0.30000000E+03</pdfrwt>
<pdfrwt beam="2">0</pdfrwt>
<totfact> 0.21063253E+04</totfact>
</mgrwt>
</event>
<event>
 6    1  0.1295671E-001  0.3000000E+03  0.7818608E-02  0.1093470E+00
         21   -1    0    0  501  502  0.00000000000E+00  0.00000000000E+00  0.16319437247E+01  0.16319437247E+01  0.00000000000E+00 0. -1.
         13   -1    0    0    0    0 -0.00000000000E+00 -0.00000000000E+00 -0.10000000000E+04  0.10000000000E+04  0.00000000000E+00 0.  1.
    9000005    2    1    2  501    0 -0.22348601561E+02 -0.20617427524E+02 -0.82845579987E+03  0.82902049223E+03  0.33802209829E+01 0.  0.
         13    1    3    3    0    0 -0.22450505594E+02 -0.20382000533E+02 -0.82348174096E+03  0.82403982237E+03  0.00000000000E+00 0.  1.
          1    1    3    3  501    0  0.10190403279E+00 -0.23542699091E+00 -0.49740589057E+01  0.49806698643E+01  0.00000000000E+00 0.  1.
         -1    1    1    2    0  502  0.22348601561E+02  0.20617427524E+02 -0.16991225640E+03  0.17261145149E+03  0.00000000000E+00 0. -1.
<mgrwt>
<rscale>  1 0.30000000E+03</rscale>
<asrwt>0</asrwt>
<pdfrwt beam="1">  1       21 0.59343533E-02 0.30000000E+03</pdfrwt>
<pdfrwt beam="2">0</pdfrwt>
<totfact> 0.21475198E+04</totfact>
</mgrwt>
</event>
<event>
 6    1  0.1295671E-001  0.3000000E+03  0.7818608E-02  0.1093470E+00
         21   -1    0    0  501  502  0.00000000000E+00  0.00000000000E+00  0.25919054178E+01  0.25919054178E+01  0.00000000000E+00 0. -1.
         13   -1    0    0    0    0 -0.00000000000E+00 -0.00000000000E+00 -0.10000000000E+04  0.10000000000E+04  0.00000000000E+00 0.  1.
    9000005    2    1    2  501    0 -0.30198461495E+02 -0.12437477688E+02 -0.88310766795E+03  0.88371707437E+03  0.31743371689E+01 0.  0.
         13    1    3    3    0    0 -0.16638136215E+02 -0.73055792465E+01 -0.53170778202E+03  0.53201819943E+03  0.00000000000E+00 0.  1.
          1    1    3    3  501    0 -0.13560325280E+02 -0.51318984418E+01 -0.35139988593E+03  0.35169887495E+03  0.00000000000E+00 0.  1.
         -1    1    1    2    0  502  0.30198461495E+02  0.12437477688E+02 -0.11430042663E+03  0.11887483104E+03  0.00000000000E+00 0. -1.
<mgrwt>
<rscale>  1 0.30000000E+03</rscale>
<asrwt>0</asrwt>
<pdfrwt beam="1">  1       21 0.94251305E-02 0.30000000E+03</pdfrwt>
<pdfrwt beam="2">0</pdfrwt>
<totfact> 0.95614853E+03</totfact>
</mgrwt>
</event>
<event>
 6    1  0.1295671E-001  0.3000000E+03  0.7818608E-02  0.1093470E+00
         21   -1    0    0  501  502  0.00000000000E+00  0.00000000000E+00  0.15324561142E+01  0.15324561142E+01  0.00000000000E+00 0. -1.
         13   -1    0    0    0    0 -0.00000000000E+00 -0.00000000000E+00 -0.10000000000E+04  0.10000000000E+04  0.00000000000E+00 0.  1.
    9000005    2    1    2  501    0  0.26927455841E+02 -0.18031606914E+02 -0.77949860013E+03  0.78017838442E+03  0.31649938332E+01 0.  0.
         13    1    3    3    0    0  0.16803240889E+01 -0.12168851715E+01 -0.34335396148E+02  0.34398019233E+02  0.00000000000E+00 0.  1.
          1    1    3    3  501    0  0.25247131753E+02 -0.16814721742E+02 -0.74516320398E+03  0.74578036519E+03  0.00000000000E+00 0.  1.
         -3    1    1    2    0  502 -0.26927455841E+02  0.18031606914E+02 -0.21896894376E+03  0.22135407169E+03  0.00000000000E+00 0. -1.
<mgrwt>
<rscale>  1 0.30000000E+03</rscale>
<asrwt>0</asrwt>
<pdfrwt beam="1">  1       21 0.55725794E-02 0.30000000E+03</pdfrwt>
<pdfrwt beam="2">0</pdfrwt>
<totfact> 0.23929860E+04</totfact>
</mgrwt>
</event>
<event>
 6    1  0.1295671E-001  0.3000000E+03  0.7818608E-02  0.1093470E+00
         21   -1    0    0  501  502  0.00000000000E+00  0.00000000000E+00  0.10153897372E+01  0.10153897372E+01  0.00000000000E+00 0. -1.
         13   -1    0    0    0    0 -0.00000000000E+00 -0.00000000000E+00 -0.10000000000E+04  0.10000000000E+04  0.00000000000E+00 0.  1.
    9000005    2    1    2  501    0  0.18751199783E+02 -0.24803692256E+02 -0.60106202390E+03  0.60187980453E+03  0.41124057046E+01 0.  0.
         13    1    3    3    0    0  0.14163611236E+02 -0.17000054501E+02 -0.45476451760E+03  0.45530251065E+03  0.00000000000E+00 0.  1.
          3    1    3    3  501    0  0.45875885469E+01 -0.78036377554E+01 -0.14629750630E+03  0.14657729388E+03  0.00000000000E+00 0.  1.
         -1    1    1    2    0  502 -0.18751199783E+02  0.24803692256E+02 -0.39792258636E+03  0.39913558521E+03  0.00000000000E+00 0. -1.
<mgrwt>
<rscale>  1 0.30000000E+03</rscale>
<asrwt>0</asrwt>
<pdfrwt beam="1">  1       21 0.36923341E-02 0.30000000E+03</pdfrwt>
<pdfrwt beam="2">0</pdfrwt>
<totfact> 0.48102593E+04</totfact>
</mgrwt>
</event>
<event>
 6    1  0.1295671E-001  0.3000000E+03  0.7818608E-02  0.1093470E+00
         21   -1    0    0  501  502  0.00000000000E+00  0.00000000000E+00  0.11368747928E+01  0.11368747928E+01  0.00000000000E+00 0. -1.
         13   -1    0    0    0    0 -0.00000000000E+00 -0.00000000000E+00 -0.10000000000E+04  0.10000000000E+04  0.00000000000E+00 0.  1.
    9000005    2    1    2  501    0 -0.19577047883E+01  0.31555617881E+02 -0.67178176561E+03  0.67253102362E+03  0.27654113212E+01 0.  0.
         13    1    3    3    0    0 -0.53937613656E+00  0.13425759243E+02 -0.25751791034E+03  0.25786821457E+03  0.00000000000E+00 0.  1.
          3    1    3    3  501    0 -0.14183286517E+01  0.18129858638E+02 -0.41426385527E+03  0.41466280905E+03  0.00000000000E+00 0.  1.
         -3    1    1    2    0  502  0.19577047883E+01 -0.31555617881E+02 -0.32708135960E+03  0.32860585117E+03  0.00000000000E+00 0. -1.
<mgrwt>
<rscale>  1 0.30000000E+03</rscale>
<asrwt>0</asrwt>
<pdfrwt beam="1">  1       21 0.41340989E-02 0.30000000E+03</pdfrwt>
<pdfrwt beam="2">0</pdfrwt>
<totfact> 0.39774115E+04</totfact>
</mgrwt>
</event>
<event>
 6    1  0.1295671E-001  0.3000000E+03  0.7818608E-02  0.1093470E+00
         21   -1    0    0  501  502  0.00000000000E+00  0.00000000000E+00  0.30964031808E+01  0.30964031808E+01  0.00000000000E+00 0. -1.
         13   -1    0    0    0    0 -0.00000000000E+00 -0.00000000000E+00 -0.10000000000E+04  0.10000000000E+04  0.00000000000E+00 0.  1.
    9000005    2    1    2  501    0  0.39709663178E+01 -0.44194505985E+02 -0.80082758431E+03  0.80206226276E+03  0.31828636817E+01 0.  0.
         13    1    3    3    0    0 -0.96027228754E-02 -0.14032739401E+02 -0.23918105890E+03  0.23959235548E+03  0.00000000000E+00 0.  1.
          1    1    3    3  501    0  0.39805690407E+01 -0.30161766584E+02 -0.56164652541E+03  0.56246990728E+03  0.00000000000E+00 0.  1.
         -3    1    1    2    0  502 -0.39709663178E+01  0.44194505985E+02 -0.19607601251E+03  0.20103414042E+03  0.00000000000E+00 0. -1.
<mgrwt>
<rscale>  1 0.30000000E+03</rscale>
<asrwt>0</asrwt>
<pdfrwt beam="1">  1       21 0.11259672E-01 0.30000000E+03</pdfrwt>
<pdfrwt beam="2">0</pdfrwt>
<totfact> 0.69536004E+03</totfact>
</mgrwt>
</event>
<event>
 6    1  0.1295671E-001  0.3000000E+03  0.7818608E-02  0.1093470E+00
         21   -1    0    0  501  502  0.00000000000E+00  0.00000000000E+00  0.17087463607E+01  0.17087463607E+01  0.00000000000E+00 0. -1.
         13   -1    0    0    0    0 -0.00000000000E+00 -0.00000000000E+00 -0.10000000000E+04  0.10000000000E+04  0.00000000000E+00 0.  1.
    9000005    2    1    2  501    0 -0.15831833900E+01  0.31901194691E+02 -0.81668809469E+03  0.81731812829E+03  0.30473151840E+01 0.  0.
         13    1    3    3    0    0 -0.10315825438E+01  0.32432735392E+01 -0.78413266189E+02  0.78487090022E+02  0.00000000000E+00 0.  1.
          1    1    3    3  501    0 -0.55160084619E+00  0.28657921152E+02 -0.73827482850E+03  0.73883103826E+03  0.00000000000E+00 0.  1.
         -3    1    1    2    0  502  0.15831833900E+01 -0.31901194691E+02 -0.18160315895E+03  0.18439061808E+03  0.00000000000E+00 0. -1.
<mgrwt>
<rscale>  1 0.30000000E+03</rscale>
<asrwt>0</asrwt>
<pdfrwt beam="1">  1       21 0.62136362E-02 0.30000000E+03</pdfrwt>
<pdfrwt beam="2">0</pdfrwt>
<totfact> 0.19836925E+04</totfact>
</mgrwt>
</event>
<event>
 6    1  0.1295671E-001  0.3000000E+03  0.7818608E-02  0.1093470E+00
         21   -1    0    0  501  502  0.00000000000E+00  0.00000000000E+00  0.67571178373E+01  0.67571178373E+01  0.00000000000E+00 0. -1.
         13   -1    0    0    0    0 -0.00000000000E+00 -0.00000000000E+00 -0.10000000000E+04  0.10000000000E+04  0.00000000000E+00 0.  1.
    9000005    2    1    2  501    0 -0.23257283441E+02 -0.21485205713E+02 -0.96113940599E+03  0.96166667007E+03  0.33632244926E+01 0.  0.
         13    1    3    3    0    0 -0.18286663805E+02 -0.14899049312E+02 -0.70791213572E+03  0.70830500184E+03  0.00000000000E+00 0.  1.
          1    1    3    3  501    0 -0.49706196361E+01 -0.65861564011E+01 -0.25322727027E+03  0.25336166822E+03  0.00000000000E+00 0.  1.
         -1    1    1    2    0  502  0.23257283441E+02  0.21485205713E+02 -0.32103476176E+02  0.45090447770E+02  0.00000000000E+00 0. -1.
<mgrwt>
<rscale>  1 0.30000000E+03</rscale>
<asrwt>0</asrwt>
<pdfrwt beam="1">  1       21 0.24571389E-01 0.30000000E+03</pdfrwt>
<pdfrwt beam="2">0</pdfrwt>
<totfact> 0.16132164E+03</totfact>
</mgrwt>
</event>
<event>
 6    1  0.1295671E-001  0.3000000E+03  0.7818608E-02  0.1093470E+00
         21   -1    0    0  501  502  0.00000000000E+00  0.00000000000E+00  0.35185382059E+01  0.35185382059E+01  0.00000000000E+00 0. -1.
         13   -1    0    0    0    0 -0.00000000000E+00 -0.00000000000E+00 -0.10000000000E+04  0.10000000000E+04  0.00000000000E+00 0.  1.
    9000005    2    1    2  501    0 -0.34686547046E+02  0.76628432397E+01 -0.89911976311E+03  0.89987889288E+03  0.10188116860E+02 0.  0.
         13    1    3    3    0    0 -0.22886558108E+02  0.95533700238E+00 -0.49203501300E+03  0.49256792550E+03  0.00000000000E+00 0.  1.
          1    1    3    3  501    0 -0.11799988938E+02  0.67075062373E+01 -0.40708475011E+03  0.40731096738E+03  0.00000000000E+00 0.  1.
         -1    1    1    2    0  502  0.34686547046E+02 -0.76628432397E+01 -0.97361698687E+02  0.10363964533E+03  0.00000000000E+00 0. -1.
<mgrwt>
<rscale>  1 0.30000000E+03</rscale>
<asrwt>0</asrwt>
<pdfrwt beam="1">  1       21 0.12794711E-01 0.30000000E+03</pdfrwt>
<pdfrwt beam="2">0</pdfrwt>
<totfact> 0.55144206E+03</totfact>
</mgrwt>
</event>
<event>
 6    1  0.1295671E-001  0.3000000E+03  0.7818608E-02  0.1093470E+00
         21   -1    0    0  501  502  0.00000000000E+00  0.00000000000E+00  0.53249487695E+01  0.53249487695E+01  0.00000000000E+00 0. -1.
         13   -1    0    0    0    0 -0.00000000000E+00 -0.00000000000E+00 -0.10000000000E+04  0.10000000000E+04  0.00000000000E+00 0.  1.
    9000005    2    1    2  501    0 -0.25960735737E+02  0.21149728841E+02 -0.94389048377E+03  0.94449450309E+03  0.43988833550E+01 0.  0.
         13    1    3    3    0    0 -0.80597699454E+01  0.48298228191E+01 -0.30607265672E+03  0.30621684844E+03  0.00000000000E+00 0.  1.
          1    1    3    3  501    0 -0.17900965792E+02  0.16319906022E+02 -0.63781782706E+03  0.63827765465E+03  0.00000000000E+00 0.  1.
         -1    1    1    2    0  502  0.25960735737E+02 -0.21149728841E+02 -0.50784567458E+02  0.60830445682E+02  0.00000000000E+00 0. -1.
<mgrwt>
<rscale>  1 0.30000000E+03</rscale>
<asrwt>0</asrwt>
<pdfrwt beam="1">  1       21 0.19363491E-01 0.30000000E+03</pdfrwt>
<pdfrwt beam="2">0</pdfrwt>
<totfact> 0.25516533E+03</totfact>
</mgrwt>
</event>
<event>
 6    1  0.1295671E-001  0.3000000E+03  0.7818608E-02  0.1093470E+00
         21   -1    0    0  501  502  0.00000000000E+00  0.00000000000E+00  0.43106969507E+01  0.43106969507E+01  0.00000000000E+00 0. -1.
         13   -1    0    0    0    0 -0.00000000000E+00 -0.00000000000E+00 -0.10000000000E+04  0.10000000000E+04  0.00000000000E+00 0.  1.
    9000005    2    1    2  501    0 -0.63798851544E+02 -0.15922673667E+01 -0.61490443535E+03  0.61821492614E+03  0.30661879002E+01 0.  0.
         13    1    3    3    0    0 -0.63085165264E+01 -0.42444755535E+00 -0.69929260751E+02  0.70214521615E+02  0.00000000000E+00 0.  1.
          3    1    3    3  501    0 -0.57490335018E+02 -0.11678198114E+01 -0.54497517460E+03  0.54800040452E+03  0.00000000000E+00 0.  1.
         -3    1    1    2    0  502  0.63798851544E+02  0.15922673667E+01 -0.38078486770E+03  0.38609577082E+03  0.00000000000E+00 0. -1.
<mgrwt>
<rscale>  1 0.30000000E+03</rscale>
<asrwt>0</asrwt>
<pdfrwt beam="1">  1       21 0.15675295E-01 0.30000000E+03</pdfrwt>
<pdfrwt beam="2">0</pdfrwt>
<totfact> 0.37948500E+03</totfact>
</mgrwt>
</event>
<event>
 6    1  0.1295671E-001  0.3000000E+03  0.7818608E-02  0.1093470E+00
         21   -1    0    0  501  502  0.00000000000E+00  0.00000000000E+00  0.14408746302E+01  0.14408746302E+01  0.00000000000E+00 0. -1.
         13   -1    0    0    0    0 -0.00000000000E+00 -0.00000000000E+00 -0.10000000000E+04  0.10000000000E+04  0.00000000000E+00 0.  1.
    9000005    2    1    2  501    0  0.24300417775E+02  0.25321626354E+02 -0.31181303035E+03  0.31379860274E+03  0.32406974999E+01 0.  0.
         13    1    3    3    0    0  0.82041840049E+01  0.74253675658E+01 -0.87080926370E+02  0.87781162307E+02  0.00000000000E+00 0.  1.
          3    1    3    3  501    0  0.16096233771E+02  0.17896258788E+02 -0.22473210398E+03  0.22601744043E+03  0.00000000000E+00 0.  1.
         -1    1    1    2    0  502 -0.24300417775E+02 -0.25321626354E+02 -0.68674609502E+03  0.68764227189E+03  0.00000000000E+00 0. -1.
<mgrwt>
<rscale>  1 0.30000000E+03</rscale>
<asrwt>0</asrwt>
<pdfrwt beam="1">  1       21 0.52395552E-02 0.30000000E+03</pdfrwt>
<pdfrwt beam="2">0</pdfrwt>
<totfact> 0.26593298E+04</totfact>
</mgrwt>
</event>
<event>
 6    1  0.1295671E-001  0.3000000E+03  0.7818608E-02  0.1093470E+00
         21   -1    0    0  501  502  0.00000000000E+00  0.00000000000E+00  0.23675134104E+01  0.23675134104E+01  0.00000000000E+00 0. -1.
         13   -1    0    0    0    0 -0.00000000000E+00 -0.00000000000E+00 -0.10000000000E+04  0.10000000000E+04  0.00000000000E+00 0.  1.
    9000005    2    1    2  501    0 -0.45500284037E+02 -0.66340255875E+01 -0.33654780045E+03  0.33968565279E+03  0.27630748726E+01 0.  0.
         13    1    3    3    0    0 -0.40201649021E+02 -0.49563380589E+01 -0.29639765590E+03  0.29915265049E+03  0.00000000000E+00 0.  1.
          1    1    3    3  501    0 -0.52986350162E+01 -0.16776875286E+01 -0.40150144544E+02  0.40533002300E+02  0.00000000000E+00 0.  1.
         -3    1    1    2    0  502  0.45500284037E+02  0.66340255875E+01 -0.66108468614E+03  0.66268186062E+03  0.00000000000E+00 0. -1.
<mgrwt>
<rscale>  1 0.30000000E+03</rscale>
<asrwt>0</asrwt>
<pdfrwt beam="1">  1       21 0.86091578E-02 0.30000000E+03</pdfrwt>
<pdfrwt beam="2">0</pdfrwt>
<totfact> 0.11225684E+04</totfact>
</mgrwt>
</event>
<event>
 6    1  0.1295671E-001  0.3000000E+03  0.7818608E-02  0.1093470E+00
         21   -1    0    0  501  502  0.00000000000E+00  0.00000000000E+00  0.12151189234E+01  0.12151189234E+01  0.00000000000E+00 0. -1.
         13   -1    0    0    0    0 -0.00000000000E+00 -0.00000000000E+00 -0.10000000000E+04  0.10000000000E+04  0.00000000000E+00 0.  1.
    9000005    2    1    2  501    0 -0.16539439715E+02 -0.30571297740E+02 -0.48535314345E+03  0.48660817521E+03  0.34183353661E+01 0.  0.
         13    1    3    3    0    0 -0.16638074063E+02 -0.29663390946E+02 -0.47348161993E+03  0.47470157645E+03  0.00000000000E+00 0.  1.
          1    1    3    3  501    0  0.98634348014E-01 -0.90790679378E+00 -0.11871523511E+02  0.11906598757E+02  0.00000000000E+00 0.  1.
         -3    1    1    2    0  502  0.16539439715E+02  0.30571297740E+02 -0.51343173763E+03  0.51460694371E+03  0.00000000000E+00 0. -1.
<mgrwt>
<rscale>  1 0.30000000E+03</rscale>
<asrwt>0</asrwt>
<pdfrwt beam="1">  1       21 0.44186236E-02 0.30000000E+03</pdfrwt>
<pdfrwt beam="2">0</pdfrwt>
<totfact> 0.35541162E+04</totfact>
</mgrwt>
</event>
<event>
 6    1  0.1295671E-001  0.3000000E+03  0.7818608E-02  0.1093470E+00
         21   -1    0    0  501  502  0.00000000000E+00  0.00000000000E+00  0.18470267945E+01  0.18470267945E+01  0.00000000000E+00 0. -1.
         13   -1    0    0    0    0 -0.00000000000E+00 -0.00000000000E+00 -0.10000000000E+04  0.10000000000E+04  0.00000000000E+00 0.  1.
    9000005    2    1    2  501    0 -0.27384010818E+02  0.23701932368E+02 -0.76806775240E+03  0.76892885558E+03  0.34419511948E+01 0.  0.
         13    1    3    3    0    0 -0.10955303177E+02  0.11523534211E+02 -0.32061066780E+03  0.32100468971E+03  0.00000000000E+00 0.  1.
          3    1    3    3  501    0 -0.16428707642E+02  0.12178398157E+02 -0.44745708460E+03  0.44792416588E+03  0.00000000000E+00 0.  1.
         -3    1    1    2    0  502  0.27384010818E+02 -0.23701932368E+02 -0.23008522081E+03  0.23291817121E+03  0.00000000000E+00 0. -1.
<mgrwt>
<rscale>  1 0.30000000E+03</rscale>
<asrwt>0</asrwt>
<pdfrwt beam="1">  1       21 0.67164752E-02 0.30000000E+03</pdfrwt>
<pdfrwt beam="2">0</pdfrwt>
<totfact> 0.17337154E+04</totfact>
</mgrwt>
</event>
<event>
 6    1  0.1295671E-001  0.3000000E+03  0.7818608E-02  0.1093470E+00
         21   -1    0    0  501  502  0.00000000000E+00  0.00000000000E+00  0.18758105450E+01  0.18758105450E+01  0.00000000000E+00 0. -1.
         13   -1    0    0    0    0 -0.00000000000E+00 -0.00000000000E+00 -0.10000000000E+04  0.10000000000E+04  0.00000000000E+00 0.  1.
    9000005    2    1    2  501    0  0.17613559036E+02  0.32283127628E+02 -0.23667116831E+03  0.23953524282E+03  0.33842061621E+01 0.  0.
         13    1    3    3    0    0  0.14225342491E+02  0.28494371096E+02 -0.20382979349E+03  0.20630287023E+03  0.00000000000E+00 0.  1.
          1    1    3    3  501    0  0.33882165452E+01  0.37887565318E+01 -0.32841374828E+02  0.33232372591E+02  0.00000000000E+00 0.  1.
         -1    1    1    2    0  502 -0.17613559036E+02 -0.32283127628E+02 -0.76145302114E+03  0.76234056772E+03  0.00000000000E+00 0. -1.
<mgrwt>
<rscale>  1 0.30000000E+03</rscale>
<asrwt>0</asrwt>
<pdfrwt beam="1">  1       21 0.68211436E-02 0.30000000E+03</pdfrwt>
<pdfrwt beam="2">0</pdfrwt>
<totfact> 0.16877951E+04</totfact>
</mgrwt>
</event>
<event>
 6    1  0.1295671E-001  0.3000000E+03  0.7818608E-02  0.1093470E+00
         21   -1    0    0  501  502  0.00000000000E+00  0.00000000000E+00  0.21175623080E+01  0.21175623080E+01  0.00000000000E+00 0. -1.
         13   -1    0    0    0    0 -0.00000000000E+00 -0.00000000000E+00 -0.10000000000E+04  0.10000000000E+04  0.00000000000E+00 0.  1.
    9000005    2    1    2  501    0 -0.34690849566E+02 -0.23296698130E+02 -0.29186585952E+03  0.29486541502E+03  0.37069981435E+01 0.  0.
         13    1    3    3    0    0 -0.77925122410E+01 -0.65208342814E+01 -0.79431611742E+02  0.80078870314E+02  0.00000000000E+00 0.  1.
          3    1    3    3  501    0 -0.26898337325E+02 -0.16775863848E+02 -0.21243424777E+03  0.21478654470E+03  0.00000000000E+00 0.  1.
         -1    1    1    2    0  502  0.34690849566E+02  0.23296698130E+02 -0.70601657818E+03  0.70725214729E+03  0.00000000000E+00 0. -1.
<mgrwt>
<rscale>  1 0.30000000E+03</rscale>
<asrwt>0</asrwt>
<pdfrwt beam="1">  1       21 0.77002428E-02 0.30000000E+03</pdfrwt>
<pdfrwt beam="2">0</pdfrwt>
<totfact> 0.13659173E+04</totfact>
</mgrwt>
</event>
<event>
 6    1  0.1295671E-001  0.3000000E+03  0.7818608E-02  0.1093470E+00
         21   -1    0    0  501  502  0.00000000000E+00  0.00000000000E+00  0.34382441605E+01  0.34382441605E+01  0.00000000000E+00 0. -1.
         13   -1    0    0    0    0 -0.00000000000E+00 -0.00000000000E+00 -0.10000000000E+04  0.10000000000E+04  0.00000000000E+00 0.  1.
    9000005    2    1    2  501    0  0.23954588657E+02 -0.50699929025E+02 -0.35351733420E+03  0.35795359421E+03  0.34590326095E+01 0.  0.
         13    1    3    3    0    0  0.76395689886E+01 -0.15247783509E+02 -0.11758054982E+03  0.11881095746E+03  0.00000000000E+00 0.  1.
          3    1    3    3  501    0  0.16315019669E+02 -0.35452145516E+02 -0.23593678439E+03  0.23914263676E+03  0.00000000000E+00 0.  1.
         -3    1    1    2    0  502 -0.23954588657E+02  0.50699929025E+02 -0.64304442164E+03  0.64548464995E+03  0.00000000000E+00 0. -1.
<mgrwt>
<rscale>  1 0.30000000E+03</rscale>
<asrwt>0</asrwt>
<pdfrwt beam="1">  1       21 0.12502732E-01 0.30000000E+03</pdfrwt>
<pdfrwt beam="2">0</pdfrwt>
<totfact> 0.57514041E+03</totfact>
</mgrwt>
</event>
<event>
 6    1  0.1295671E-001  0.3000000E+03  0.7818608E-02  0.1093470E+00
         21   -1    0    0  501  502  0.00000000000E+00  0.00000000000E+00  0.32586062082E+01  0.32586062082E+01  0.00000000000E+00 0. -1.
         13   -1    0    0    0    0 -0.00000000000E+00 -0.00000000000E+00 -0.10000000000E+04  0.10000000000E+04  0.00000000000E+00 0.  1.
    9000005    2    1    2  501    0 -0.16666844677E+02  0.31374499772E+02 -0.89047476522E+03  0.89121067318E+03  0.70009680157E+01 0.  0.
         13    1    3    3    0    0  0.27759179425E+00 -0.14468221340E+00 -0.33923158351E+01  0.34067281770E+01  0.00000000000E+00 0.  1.
          3    1    3    3  501    0 -0.16944436472E+02  0.31519181985E+02 -0.88708244938E+03  0.88780394500E+03  0.00000000000E+00 0.  1.
         -1    1    1    2    0  502  0.16666844677E+02 -0.31374499772E+02 -0.10626662858E+03  0.11204793303E+03  0.00000000000E+00 0. -1.
<mgrwt>
<rscale>  1 0.30000000E+03</rscale>
<asrwt>0</asrwt>
<pdfrwt beam="1">  1       21 0.11849502E-01 0.30000000E+03</pdfrwt>
<pdfrwt beam="2">0</pdfrwt>
<totfact> 0.63406027E+03</totfact>
</mgrwt>
</event>
<event>
 6    1  0.1295671E-001  0.3000000E+03  0.7818608E-02  0.1093470E+00
         21   -1    0    0  501  502  0.00000000000E+00  0.00000000000E+00  0.12787900662E+01  0.12787900662E+01  0.00000000000E+00 0. -1.
         13   -1    0    0    0    0 -0.00000000000E+00 -0.00000000000E+00 -0.10000000000E+04  0.10000000000E+04  0.00000000000E+00 0.  1.
    9000005    2    1    2  501    0  0.32275211001E+02  0.68948863371E-01 -0.71316752285E+03  0.71390690173E+03  0.36680634878E+01 0.  0.
         13    1    3    3    0    0  0.15271194961E+02 -0.10680016833E+01 -0.30546109730E+03  0.30584445718E+03  0.00000000000E+00 0.  1.
          1    1    3    3  501    0  0.17004016040E+02  0.11369505467E+01 -0.40770642556E+03  0.40806244456E+03  0.00000000000E+00 0.  1.
         -1    1    1    2    0  502 -0.32275211001E+02 -0.68948863371E-01 -0.28555368708E+03  0.28737188833E+03  0.00000000000E+00 0. -1.
<mgrwt>
<rscale>  1 0.30000000E+03</rscale>
<asrwt>0</asrwt>
<pdfrwt beam="1">  1       21 0.46501555E-02 0.30000000E+03</pdfrwt>
<pdfrwt beam="2">0</pdfrwt>
<totfact> 0.32589671E+04</totfact>
</mgrwt>
</event>
<event>
 6    1  0.1295671E-001  0.3000000E+03  0.7818608E-02  0.1093470E+00
         21   -1    0    0  501  502  0.00000000000E+00  0.00000000000E+00  0.55898282574E+01  0.55898282574E+01  0.00000000000E+00 0. -1.
         13   -1    0    0    0    0 -0.00000000000E+00 -0.00000000000E+00 -0.10000000000E+04  0.10000000000E+04  0.00000000000E+00 0.  1.
    9000005    2    1    2  501    0  0.17531954175E+02  0.69068828280E+02 -0.64864508219E+03  0.65255814468E+03  0.37171332663E+01 0.  0.
         13    1    3    3    0    0  0.80347891553E+01  0.34373923371E+02 -0.30542146786E+03  0.30745470800E+03  0.00000000000E+00 0.  1.
          1    1    3    3  501    0  0.94971650196E+01  0.34694904909E+02 -0.34322361434E+03  0.34510343668E+03  0.00000000000E+00 0.  1.
         -3    1    1    2    0  502 -0.17531954175E+02 -0.69068828280E+02 -0.34576508955E+03  0.35303168358E+03  0.00000000000E+00 0. -1.
<mgrwt>
<rscale>  1 0.30000000E+03</rscale>
<asrwt>0</asrwt>
<pdfrwt beam="1">  1       21 0.20326691E-01 0.30000000E+03</pdfrwt>
<pdfrwt beam="2">0</pdfrwt>
<totfact> 0.23260925E+03</totfact>
</mgrwt>
</event>
<event>
 6    1  0.1295671E-001  0.3000000E+03  0.7818608E-02  0.1093470E+00
         21   -1    0    0  501  502  0.00000000000E+00  0.00000000000E+00  0.30937397680E+01  0.30937397680E+01  0.00000000000E+00 0. -1.
         13   -1    0    0    0    0 -0.00000000000E+00 -0.00000000000E+00 -0.10000000000E+04  0.10000000000E+04  0.00000000000E+00 0.  1.
    9000005    2    1    2  501    0  0.17862474092E+02 -0.52585742174E+02 -0.51201299321E+03  0.51503041533E+03  0.38334365608E+01 0.  0.
         13    1    3    3    0    0  0.13779766772E+01 -0.39705724045E+01 -0.30343776939E+02  0.30633463139E+02  0.00000000000E+00 0.  1.
          3    1    3    3  501    0  0.16484497415E+02 -0.48615169769E+02 -0.48166921627E+03  0.48439695219E+03  0.00000000000E+00 0.  1.
         -3    1    1    2    0  502 -0.17862474092E+02  0.52585742174E+02 -0.48489326702E+03  0.48806332444E+03  0.00000000000E+00 0. -1.
<mgrwt>
<rscale>  1 0.30000000E+03</rscale>
<asrwt>0</asrwt>
<pdfrwt beam="1">  1       21 0.11249987E-01 0.30000000E+03</pdfrwt>
<pdfrwt beam="2">0</pdfrwt>
<totfact> 0.69643965E+03</totfact>
</mgrwt>
</event>
<event>
 6    1  0.1295671E-001  0.3000000E+03  0.7818608E-02  0.1093470E+00
         21   -1    0    0  501  502  0.00000000000E+00  0.00000000000E+00  0.37207262167E+01  0.37207262167E+01  0.00000000000E+00 0. -1.
         13   -1    0    0    0    0 -0.00000000000E+00 -0.00000000000E+00 -0.10000000000E+04  0.10000000000E+04  0.00000000000E+00 0.  1.
    9000005    2    1    2  501    0  0.32742244917E+02 -0.15831217765E+02 -0.90097073377E+03  0.90170896288E+03  0.28475575002E+01 0.  0.
         13    1    3    3    0    0  0.15182419552E+02 -0.64310121902E+01 -0.37962910533E+03  0.37998700162E+03  0.00000000000E+00 0.  1.
          1    1    3    3  501    0  0.17559825365E+02 -0.94002055744E+01 -0.52134162843E+03  0.52172196127E+03  0.00000000000E+00 0.  1.
         -3    1    1    2    0  502 -0.32742244917E+02  0.15831217765E+02 -0.95308540018E+02  0.10201176333E+03  0.00000000000E+00 0. -1.
<mgrwt>
<rscale>  1 0.30000000E+03</rscale>
<asrwt>0</asrwt>
<pdfrwt beam="1">  1       21 0.13529942E-01 0.30000000E+03</pdfrwt>
<pdfrwt beam="2">0</pdfrwt>
<totfact> 0.49790557E+03</totfact>
</mgrwt>
</event>
<event>
 6    1  0.1295671E-001  0.3000000E+03  0.7818608E-02  0.1093470E+00
         21   -1    0    0  501  502  0.00000000000E+00  0.00000000000E+00  0.15348494214E+01  0.15348494214E+01  0.00000000000E+00 0. -1.
         13   -1    0    0    0    0 -0.00000000000E+00 -0.00000000000E+00 -0.10000000000E+04  0.10000000000E+04  0.00000000000E+00 0.  1.
    9000005    2    1    2  501    0  0.12461403256E+02 -0.36350296848E+02 -0.40790265838E+03  0.40972348772E+03  0.34823871814E+01 0.  0.
         13    1    3    3    0    0  0.24038583397E+01 -0.82892288880E+01 -0.10724010980E+03  0.10758685329E+03  0.00000000000E+00 0.  1.
          3    1    3    3  501    0  0.10057544916E+02 -0.28061067960E+02 -0.30066254858E+03  0.30213663443E+03  0.00000000000E+00 0.  1.
         -1    1    1    2    0  502 -0.12461403256E+02  0.36350296848E+02 -0.59056249220E+03  0.59181136170E+03  0.00000000000E+00 0. -1.
<mgrwt>
<rscale>  1 0.30000000E+03</rscale>
<asrwt>0</asrwt>
<pdfrwt beam="1">  1       21 0.55812824E-02 0.30000000E+03</pdfrwt>
<pdfrwt beam="2">0</pdfrwt>
<totfact> 0.23865847E+04</totfact>
</mgrwt>
</event>
<event>
 6    1  0.1295671E-001  0.3000000E+03  0.7818608E-02  0.1093470E+00
         21   -1    0    0  501  502  0.00000000000E+00  0.00000000000E+00  0.96320154861E+00  0.96320154861E+00  0.00000000000E+00 0. -1.
         13   -1    0    0    0    0 -0.00000000000E+00 -0.00000000000E+00 -0.10000000000E+04  0.10000000000E+04  0.00000000000E+00 0.  1.
    9000005    2    1    2  501    0  0.27609011621E+02  0.11835484256E+02 -0.62026275487E+03  0.62099989766E+03  0.35569095718E+01 0.  0.
         13    1    3    3    0    0  0.15068897782E+02  0.54951580817E+01 -0.36196480350E+03  0.36232000692E+03  0.00000000000E+00 0.  1.
          3    1    3    3  501    0  0.12540113840E+02  0.63403261740E+01 -0.25829795137E+03  0.25867989074E+03  0.00000000000E+00 0.  1.
         -3    1    1    2    0  502 -0.27609011621E+02 -0.11835484256E+02 -0.37877404358E+03  0.37996330389E+03  0.00000000000E+00 0. -1.
<mgrwt>
<rscale>  1 0.30000000E+03</rscale>
<asrwt>0</asrwt>
<pdfrwt beam="1">  1       21 0.35025585E-02 0.30000000E+03</pdfrwt>
<pdfrwt beam="2">0</pdfrwt>
<totfact> 0.52552464E+04</totfact>
</mgrwt>
</event>
<event>
 6    1  0.1295671E-001  0.3000000E+03  0.7818608E-02  0.1093470E+00
         21   -1    0    0  501  502  0.00000000000E+00  0.00000000000E+00  0.15615745876E+01  0.15615745876E+01  0.00000000000E+00 0. -1.
         13   -1    0    0    0    0 -0.00000000000E+00 -0.00000000000E+00 -0.10000000000E+04  0.10000000000E+04  0.00000000000E+00 0.  1.
    9000005    2    1    2  501    0 -0.29923786993E+02  0.80697456261E+01 -0.80936954908E+03  0.80996931530E+03  0.32666377765E+01 0.  0.
         13    1    3    3    0    0 -0.13434053919E+02  0.33447767650E+01 -0.40357361522E+03  0.40381100064E+03  0.00000000000E+00 0.  1.
          3    1    3    3  501    0 -0.16489733074E+02  0.47249688611E+01 -0.40579593386E+03  0.40615831466E+03  0.00000000000E+00 0.  1.
         -3    1    1    2    0  502  0.29923786993E+02 -0.80697456261E+01 -0.18906887633E+03  0.19159225929E+03  0.00000000000E+00 0. -1.
<mgrwt>
<rscale>  1 0.30000000E+03</rscale>
<asrwt>0</asrwt>
<pdfrwt beam="1">  1       21 0.56784650E-02 0.30000000E+03</pdfrwt>
<pdfrwt beam="2">0</pdfrwt>
<totfact> 0.23168546E+04</totfact>
</mgrwt>
</event>
<event>
 6    1  0.1295671E-001  0.3000000E+03  0.7818608E-02  0.1093470E+00
         21   -1    0    0  501  502  0.00000000000E+00  0.00000000000E+00  0.50920068836E+01  0.50920068836E+01  0.00000000000E+00 0. -1.
         13   -1    0    0    0    0 -0.00000000000E+00 -0.00000000000E+00 -0.10000000000E+04  0.10000000000E+04  0.00000000000E+00 0.  1.
    9000005    2    1    2  501    0 -0.27336494466E+02 -0.24793771853E+02 -0.92751865163E+03  0.92825882136E+03  0.34022420153E+01 0.  0.
         13    1    3    3    0    0 -0.26774814189E+02 -0.24629890734E+02 -0.90181636877E+03  0.90254987960E+03  0.00000000000E+00 0.  1.
          3    1    3    3  501    0 -0.56168027673E+00 -0.16388111871E+00 -0.25702282864E+02  0.25708941755E+02  0.00000000000E+00 0.  1.
         -1    1    1    2    0  502  0.27336494466E+02  0.24793771853E+02 -0.67389341484E+02  0.76833185526E+02  0.00000000000E+00 0. -1.
<mgrwt>
<rscale>  1 0.30000000E+03</rscale>
<asrwt>0</asrwt>
<pdfrwt beam="1">  1       21 0.18516428E-01 0.30000000E+03</pdfrwt>
<pdfrwt beam="2">0</pdfrwt>
<totfact> 0.27773324E+03</totfact>
</mgrwt>
</event>
<event>
 6    1  0.1295671E-001  0.3000000E+03  0.7818608E-02  0.1093470E+00
         21   -1    0    0  501  502  0.00000000000E+00  0.00000000000E+00  0.24089982271E+01  0.24089982271E+01  0.00000000000E+00 0. -1.
         13   -1    0    0    0    0 -0.00000000000E+00 -0.00000000000E+00 -0.10000000000E+04  0.10000000000E+04  0.00000000000E+00 0.  1.
    9000005    2    1    2  501    0 -0.35904625638E+02 -0.33317026337E+02 -0.48238847257E+03  0.48488333463E+03  0.37474452449E+01 0.  0.
         13    1    3    3    0    0 -0.16254822408E+01 -0.58448790121E+00 -0.17052137285E+02  0.17139405024E+02  0.00000000000E+00 0.  1.
          3    1    3    3  501    0 -0.34279143397E+02 -0.32732538436E+02 -0.46533633529E+03  0.46774392960E+03  0.00000000000E+00 0.  1.
         -3    1    1    2    0  502  0.35904625638E+02  0.33317026337E+02 -0.51520252920E+03  0.51752566360E+03  0.00000000000E+00 0. -1.
<mgrwt>
<rscale>  1 0.30000000E+03</rscale>
<asrwt>0</asrwt>
<pdfrwt beam="1">  1       21 0.87600120E-02 0.30000000E+03</pdfrwt>
<pdfrwt beam="2">0</pdfrwt>
<totfact> 0.10886493E+04</totfact>
</mgrwt>
</event>
<event>
 6    1  0.1295671E-001  0.3000000E+03  0.7818608E-02  0.1093470E+00
         21   -1    0    0  501  502  0.00000000000E+00  0.00000000000E+00  0.30189472625E+01  0.30189472625E+01  0.00000000000E+00 0. -1.
         13   -1    0    0    0    0 -0.00000000000E+00 -0.00000000000E+00 -0.10000000000E+04  0.10000000000E+04  0.00000000000E+00 0.  1.
    9000005    2    1    2  501    0  0.88582107011E+01  0.54154285838E+02 -0.49578613106E+03  0.49882899884E+03  0.39150688532E+01 0.  0.
         13    1    3    3    0    0  0.17051912682E+01  0.14448867552E+02 -0.14643782341E+03  0.14715880393E+03  0.00000000000E+00 0.  1.
          3    1    3    3  501    0  0.71530194329E+01  0.39705418286E+02 -0.34934830765E+03  0.35167019491E+03  0.00000000000E+00 0.  1.
         -3    1    1    2    0  502 -0.88582107011E+01 -0.54154285838E+02 -0.50119492168E+03  0.50418994842E+03  0.00000000000E+00 0. -1.
<mgrwt>
<rscale>  1 0.30000000E+03</rscale>
<asrwt>0</asrwt>
<pdfrwt beam="1">  1       21 0.10978013E-01 0.30000000E+03</pdfrwt>
<pdfrwt beam="2">0</pdfrwt>
<totfact> 0.72781727E+03</totfact>
</mgrwt>
</event>
<event>
 6    1  0.1295671E-001  0.3000000E+03  0.7818608E-02  0.1093470E+00
         21   -1    0    0  501  502  0.00000000000E+00  0.00000000000E+00  0.30253012712E+01  0.30253012712E+01  0.00000000000E+00 0. -1.
         13   -1    0    0    0    0 -0.00000000000E+00 -0.00000000000E+00 -0.10000000000E+04  0.10000000000E+04  0.00000000000E+00 0.  1.
    9000005    2    1    2  501    0 -0.26045602737E+02 -0.16146381903E+02 -0.82948030656E+02  0.88485073059E+02  0.31864233950E+01 0.  0.
         13    1    3    3    0    0 -0.27422683741E+01 -0.26127956835E+01 -0.83539420127E+01  0.91725178807E+01  0.00000000000E+00 0.  1.
          1    1    3    3  501    0 -0.23303334363E+02 -0.13533586219E+02 -0.74594088644E+02  0.79312555179E+02  0.00000000000E+00 0.  1.
         -1    1    1    2    0  502  0.26045602737E+02  0.16146381903E+02 -0.91402666807E+03  0.91454022821E+03  0.00000000000E+00 0. -1.
<mgrwt>
<rscale>  1 0.30000000E+03</rscale>
<asrwt>0</asrwt>
<pdfrwt beam="1">  1       21 0.11001119E-01 0.30000000E+03</pdfrwt>
<pdfrwt beam="2">0</pdfrwt>
<totfact> 0.72506960E+03</totfact>
</mgrwt>
</event>
<event>
 6    1  0.1295671E-001  0.3000000E+03  0.7818608E-02  0.1093470E+00
         21   -1    0    0  501  502  0.00000000000E+00  0.00000000000E+00  0.17532546468E+01  0.17532546468E+01  0.00000000000E+00 0. -1.
         13   -1    0    0    0    0 -0.00000000000E+00 -0.00000000000E+00 -0.10000000000E+04  0.10000000000E+04  0.00000000000E+00 0.  1.
    9000005    2    1    2  501    0 -0.32976674531E+02 -0.51736274990E+01 -0.80097560502E+03  0.80167794309E+03  0.33729988983E+01 0.  0.
         13    1    3    3    0    0 -0.29263426819E+02 -0.56257292057E+01 -0.71764648470E+03  0.71826490516E+03  0.00000000000E+00 0.  1.
          3    1    3    3  501    0 -0.37132477119E+01  0.45210170678E+00 -0.83329120316E+02  0.83413037933E+02  0.00000000000E+00 0.  1.
         -3    1    1    2    0  502  0.32976674531E+02  0.51736274990E+01 -0.19727114033E+03  0.20007531155E+03  0.00000000000E+00 0. -1.
<mgrwt>
<rscale>  1 0.30000000E+03</rscale>
<asrwt>0</asrwt>
<pdfrwt beam="1">  1       21 0.63754849E-02 0.30000000E+03</pdfrwt>
<pdfrwt beam="2">0</pdfrwt>
<totfact> 0.18974618E+04</totfact>
</mgrwt>
</event>
<event>
 6    1  0.1295671E-001  0.3000000E+03  0.7818608E-02  0.1093470E+00
         21   -1    0    0  501  502  0.00000000000E+00  0.00000000000E+00  0.12748042227E+01  0.12748042227E+01  0.00000000000E+00 0. -1.
         13   -1    0    0    0    0 -0.00000000000E+00 -0.00000000000E+00 -0.10000000000E+04  0.10000000000E+04  0.00000000000E+00 0.  1.
    9000005    2    1    2  501    0  0.27691235718E+02 -0.15989630911E+02 -0.72093710470E+03  0.72165238671E+03  0.30635724537E+01 0.  0.
         13    1    3    3    0    0  0.15945041612E+02 -0.95083527792E+01 -0.45145315343E+03  0.45183470747E+03  0.00000000000E+00 0.  1.
          3    1    3    3  501    0  0.11746194105E+02 -0.64812781318E+01 -0.26948395127E+03  0.26981767924E+03  0.00000000000E+00 0.  1.
         -1    1    1    2    0  502 -0.27691235718E+02  0.15989630911E+02 -0.27778809108E+03  0.27962241751E+03  0.00000000000E+00 0. -1.
<mgrwt>
<rscale>  1 0.30000000E+03</rscale>
<asrwt>0</asrwt>
<pdfrwt beam="1">  1       21 0.46356615E-02 0.30000000E+03</pdfrwt>
<pdfrwt beam="2">0</pdfrwt>
<totfact> 0.32763031E+04</totfact>
</mgrwt>
</event>
<event>
 6    1  0.1295671E-001  0.3000000E+03  0.7818608E-02  0.1093470E+00
         21   -1    0    0  501  502  0.00000000000E+00  0.00000000000E+00  0.12830629611E+01  0.12830629611E+01  0.00000000000E+00 0. -1.
         13   -1    0    0    0    0 -0.00000000000E+00 -0.00000000000E+00 -0.10000000000E+04  0.10000000000E+04  0.00000000000E+00 0.  1.
    9000005    2    1    2  501    0 -0.25124339625E+02 -0.19685529273E+02 -0.72516496168E+03  0.72587530031E+03  0.34608454153E+01 0.  0.
         13    1    3    3    0    0 -0.23580886305E+02 -0.18057141817E+02 -0.68992302870E+03  0.69056202046E+03  0.00000000000E+00 0.  1.
          1    1    3    3  501    0 -0.15434533201E+01 -0.16283874558E+01 -0.35241932985E+02  0.35313279858E+02  0.00000000000E+00 0.  1.
         -3    1    1    2    0  502  0.25124339625E+02  0.19685529273E+02 -0.27355197536E+03  0.27540776265E+03  0.00000000000E+00 0. -1.
<mgrwt>
<rscale>  1 0.30000000E+03</rscale>
<asrwt>0</asrwt>
<pdfrwt beam="1">  1       21 0.46656933E-02 0.30000000E+03</pdfrwt>
<pdfrwt beam="2">0</pdfrwt>
<totfact> 0.32405417E+04</totfact>
</mgrwt>
</event>
<event>
 6    1  0.1295671E-001  0.3000000E+03  0.7818608E-02  0.1093470E+00
         21   -1    0    0  501  502  0.00000000000E+00  0.00000000000E+00  0.13806719906E+02  0.13806719906E+02  0.00000000000E+00 0. -1.
         13   -1    0    0    0    0 -0.00000000000E+00 -0.00000000000E+00 -0.10000000000E+04  0.10000000000E+04  0.00000000000E+00 0.  1.
    9000005    2    1    2  501    0 -0.47677437310E+02  0.18510714522E+02 -0.94944664234E+03  0.95082974025E+03  0.35332293845E+01 0.  0.
         13    1    3    3    0    0 -0.18434373362E+02  0.86068570283E+01 -0.35731007945E+03  0.35788880533E+03  0.00000000000E+00 0.  1.
          3    1    3    3  501    0 -0.29243063948E+02  0.99038574935E+01 -0.59213656290E+03  0.59294093492E+03  0.00000000000E+00 0.  1.
         -1    1    1    2    0  502  0.47677437310E+02 -0.18510714522E+02 -0.36746637751E+02  0.62976979656E+02  0.00000000000E+00 0. -1.
<mgrwt>
<rscale>  1 0.30000000E+03</rscale>
<asrwt>0</asrwt>
<pdfrwt beam="1">  1       21 0.50206360E-01 0.30000000E+03</pdfrwt>
<pdfrwt beam="2">0</pdfrwt>
<totfact> 0.37238364E+02</totfact>
</mgrwt>
</event>
<event>
 6    1  0.1295671E-001  0.3000000E+03  0.7818608E-02  0.1093470E+00
         21   -1    0    0  501  502  0.00000000000E+00  0.00000000000E+00  0.19912101198E+01  0.19912101198E+01  0.00000000000E+00 0. -1.
         13   -1    0    0    0    0 -0.00000000000E+00 -0.00000000000E+00 -0.10000000000E+04  0.10000000000E+04  0.00000000000E+00 0.  1.
    9000005    2    1    2  501    0  0.16219059170E+01 -0.39803100002E+02 -0.72234442414E+03  0.72346336611E+03  0.55549682122E+01 0.  0.
         13    1    3    3    0    0  0.28577502339E+01 -0.28134896850E+02 -0.47545658117E+03  0.47629686093E+03  0.00000000000E+00 0.  1.
          3    1    3    3  501    0 -0.12358443169E+01 -0.11668203152E+02 -0.24688784297E+03  0.24716650518E+03  0.00000000000E+00 0.  1.
         -1    1    1    2    0  502 -0.16219059170E+01  0.39803100002E+02 -0.27566436574E+03  0.27852784401E+03  0.00000000000E+00 0. -1.
<mgrwt>
<rscale>  1 0.30000000E+03</rscale>
<asrwt>0</asrwt>
<pdfrwt beam="1">  1       21 0.72407793E-02 0.30000000E+03</pdfrwt>
<pdfrwt beam="2">0</pdfrwt>
<totfact> 0.15211755E+04</totfact>
</mgrwt>
</event>
<event>
 6    1  0.1295671E-001  0.3000000E+03  0.7818608E-02  0.1093470E+00
         21   -1    0    0  501  502  0.00000000000E+00  0.00000000000E+00  0.10479942114E+01  0.10479942114E+01  0.00000000000E+00 0. -1.
         13   -1    0    0    0    0 -0.00000000000E+00 -0.00000000000E+00 -0.10000000000E+04  0.10000000000E+04  0.00000000000E+00 0.  1.
    9000005    2    1    2  501    0  0.14896687135E+02  0.28496878230E+02 -0.45526888749E+03  0.45641479977E+03  0.32750851944E+01 0.  0.
         13    1    3    3    0    0  0.13315440589E+01  0.33663873639E+01 -0.39103118429E+02  0.39270337971E+02  0.00000000000E+00 0.  1.
          3    1    3    3  501    0  0.13565143076E+02  0.25130490866E+02 -0.41616576906E+03  0.41714446180E+03  0.00000000000E+00 0.  1.
         -3    1    1    2    0  502 -0.14896687135E+02 -0.28496878230E+02 -0.54368311830E+03  0.54463319444E+03  0.00000000000E+00 0. -1.
<mgrwt>
<rscale>  1 0.30000000E+03</rscale>
<asrwt>0</asrwt>
<pdfrwt beam="1">  1       21 0.38108961E-02 0.30000000E+03</pdfrwt>
<pdfrwt beam="2">0</pdfrwt>
<totfact> 0.45616093E+04</totfact>
</mgrwt>
</event>
<event>
 6    1  0.1295671E-001  0.3000000E+03  0.7818608E-02  0.1093470E+00
         21   -1    0    0  501  502  0.00000000000E+00  0.00000000000E+00  0.10213551828E+02  0.10213551828E+02  0.00000000000E+00 0. -1.
         13   -1    0    0    0    0 -0.00000000000E+00 -0.00000000000E+00 -0.10000000000E+04  0.10000000000E+04  0.00000000000E+00 0.  1.
    9000005    2    1    2  501    0  0.50566324461E+02 -0.14129656610E+02 -0.92646675637E+03  0.92795795180E+03  0.29511510227E+01 0.  0.
         13    1    3    3    0    0  0.38436283644E+02 -0.98346960978E+01 -0.68290625626E+03  0.68405776364E+03  0.00000000000E+00 0.  1.
          3    1    3    3  501    0  0.12130040818E+02 -0.42949605121E+01 -0.24356050010E+03  0.24390018817E+03  0.00000000000E+00 0.  1.
         -3    1    1    2    0  502 -0.50566324461E+02  0.14129656610E+02 -0.63319691803E+02  0.82255600025E+02  0.00000000000E+00 0. -1.
<mgrwt>
<rscale>  1 0.30000000E+03</rscale>
<asrwt>0</asrwt>
<pdfrwt beam="1">  1       21 0.37140267E-01 0.30000000E+03</pdfrwt>
<pdfrwt beam="2">0</pdfrwt>
<totfact> 0.70448523E+02</totfact>
</mgrwt>
</event>
<event>
 6    1  0.1295671E-001  0.3000000E+03  0.7818608E-02  0.1093470E+00
         21   -1    0    0  501  502  0.00000000000E+00  0.00000000000E+00  0.15233934792E+01  0.15233934792E+01  0.00000000000E+00 0. -1.
         13   -1    0    0    0    0 -0.00000000000E+00 -0.00000000000E+00 -0.10000000000E+04  0.10000000000E+04  0.00000000000E+00 0.  1.
    9000005    2    1    2  501    0  0.33300317663E+02  0.98759568674E+01 -0.72654533333E+03  0.72738280359E+03  0.33430387322E+01 0.  0.
         13    1    3    3    0    0  0.26675408062E+02  0.67830865392E+01 -0.55614271107E+03  0.55682340354E+03  0.00000000000E+00 0.  1.
          3    1    3    3  501    0  0.66249096009E+01  0.30928703282E+01 -0.17040262226E+03  0.17055940005E+03  0.00000000000E+00 0.  1.
         -3    1    1    2    0  502 -0.33300317663E+02 -0.98759568674E+01 -0.27193127320E+03  0.27414058988E+03  0.00000000000E+00 0. -1.
<mgrwt>
<rscale>  1 0.30000000E+03</rscale>
<asrwt>0</asrwt>
<pdfrwt beam="1">  1       21 0.55396243E-02 0.30000000E+03</pdfrwt>
<pdfrwt beam="2">0</pdfrwt>
<totfact> 0.24174665E+04</totfact>
</mgrwt>
</event>
<event>
 6    1  0.1295671E-001  0.3000000E+03  0.7818608E-02  0.1093470E+00
         21   -1    0    0  501  502  0.00000000000E+00  0.00000000000E+00  0.20708359223E+01  0.20708359223E+01  0.00000000000E+00 0. -1.
         13   -1    0    0    0    0 -0.00000000000E+00 -0.00000000000E+00 -0.10000000000E+04  0.10000000000E+04  0.00000000000E+00 0.  1.
    9000005    2    1    2  501    0 -0.55984991589E+00 -0.45434626080E+02 -0.48939252925E+03  0.49150827595E+03  0.32739833816E+01 0.  0.
         13    1    3    3    0    0  0.97345576235E+00 -0.34527689786E+02 -0.37180432072E+03  0.37340535867E+03  0.00000000000E+00 0.  1.
          3    1    3    3  501    0 -0.15333056782E+01 -0.10906936295E+02 -0.11758820853E+03  0.11810291728E+03  0.00000000000E+00 0.  1.
         -3    1    1    2    0  502  0.55984991589E+00  0.45434626080E+02 -0.50853663483E+03  0.51056255997E+03  0.00000000000E+00 0. -1.
<mgrwt>
<rscale>  1 0.30000000E+03</rscale>
<asrwt>0</asrwt>
<pdfrwt beam="1">  1       21 0.75303283E-02 0.30000000E+03</pdfrwt>
<pdfrwt beam="2">0</pdfrwt>
<totfact> 0.14203737E+04</totfact>
</mgrwt>
</event>
<event>
 6    1  0.1295671E-001  0.3000000E+03  0.7818608E-02  0.1093470E+00
         21   -1    0    0  501  502  0.00000000000E+00  0.00000000000E+00  0.11968467870E+01  0.11968467870E+01  0.00000000000E+00 0. -1.
         13   -1    0    0    0    0 -0.00000000000E+00 -0.00000000000E+00 -0.10000000000E+04  0.10000000000E+04  0.00000000000E+00 0.  1.
    9000005    2    1    2  501    0 -0.73952077424E+01  0.33662421535E+02 -0.51766497042E+03  0.51882582914E+03  0.39206715308E+01 0.  0.
         13    1    3    3    0    0 -0.71814610482E+01  0.33278267232E+02 -0.50115882731E+03  0.50231383282E+03  0.00000000000E+00 0.  1.
          1    1    3    3  501    0 -0.21374669426E+00  0.38415430284E+00 -0.16506143111E+02  0.16511996323E+02  0.00000000000E+00 0.  1.
         -3    1    1    2    0  502  0.73952077424E+01 -0.33662421535E+02 -0.48113818279E+03  0.48237101764E+03  0.00000000000E+00 0. -1.
<mgrwt>
<rscale>  1 0.30000000E+03</rscale>
<asrwt>0</asrwt>
<pdfrwt beam="1">  1       21 0.43521793E-02 0.30000000E+03</pdfrwt>
<pdfrwt beam="2">0</pdfrwt>
<totfact> 0.36464947E+04</totfact>
</mgrwt>
</event>
<event>
 6    1  0.1295671E-001  0.3000000E+03  0.7818608E-02  0.1093470E+00
         21   -1    0    0  501  502  0.00000000000E+00  0.00000000000E+00  0.35052602074E+01  0.35052602074E+01  0.00000000000E+00 0. -1.
         13   -1    0    0    0    0 -0.00000000000E+00 -0.00000000000E+00 -0.10000000000E+04  0.10000000000E+04  0.00000000000E+00 0.  1.
    9000005    2    1    2  501    0 -0.54862356148E+01  0.44782250900E+02 -0.82269441986E+03  0.82394440705E+03  0.47674592929E+01 0.  0.
         13    1    3    3    0    0 -0.14801375646E+01  0.13791778220E+02 -0.29446471140E+03  0.29479123158E+03  0.00000000000E+00 0.  1.
          1    1    3    3  501    0 -0.40060980502E+01  0.30990472680E+02 -0.52822970846E+03  0.52915317547E+03  0.00000000000E+00 0.  1.
         -3    1    1    2    0  502  0.54862356148E+01 -0.44782250900E+02 -0.17380031994E+03  0.17956085316E+03  0.00000000000E+00 0. -1.
<mgrwt>
<rscale>  1 0.30000000E+03</rscale>
<asrwt>0</asrwt>
<pdfrwt beam="1">  1       21 0.12746428E-01 0.30000000E+03</pdfrwt>
<pdfrwt beam="2">0</pdfrwt>
<totfact> 0.55525788E+03</totfact>
</mgrwt>
</event>
<event>
 6    1  0.1295671E-001  0.3000000E+03  0.7818608E-02  0.1093470E+00
         21   -1    0    0  501  502  0.00000000000E+00  0.00000000000E+00  0.37807707966E+01  0.37807707966E+01  0.00000000000E+00 0. -1.
         13   -1    0    0    0    0 -0.00000000000E+00 -0.00000000000E+00 -0.10000000000E+04  0.10000000000E+04  0.00000000000E+00 0.  1.
    9000005    2    1    2  501    0  0.45362919634E+02  0.15399841225E+02 -0.81250493378E+03  0.81392321385E+03  0.34323515179E+01 0.  0.
         13    1    3    3    0    0  0.30152892013E+02  0.10852499336E+02 -0.51719697883E+03  0.51818885414E+03  0.00000000000E+00 0.  1.
          1    1    3    3  501    0  0.15210027620E+02  0.45473418897E+01 -0.29530795494E+03  0.29573435971E+03  0.00000000000E+00 0.  1.
         -3    1    1    2    0  502 -0.45362919634E+02 -0.15399841225E+02 -0.18371429543E+03  0.18985755695E+03  0.00000000000E+00 0. -1.
<mgrwt>
<rscale>  1 0.30000000E+03</rscale>
<asrwt>0</asrwt>
<pdfrwt beam="1">  1       21 0.13748286E-01 0.30000000E+03</pdfrwt>
<pdfrwt beam="2">0</pdfrwt>
<totfact> 0.48350675E+03</totfact>
</mgrwt>
</event>
<event>
 6    1  0.1295671E-001  0.3000000E+03  0.7818608E-02  0.1093470E+00
         21   -1    0    0  501  502  0.00000000000E+00  0.00000000000E+00  0.18499299637E+01  0.18499299637E+01  0.00000000000E+00 0. -1.
         13   -1    0    0    0    0 -0.00000000000E+00 -0.00000000000E+00 -0.10000000000E+04  0.10000000000E+04  0.00000000000E+00 0.  1.
    9000005    2    1    2  501    0  0.24158956771E+02  0.18960825025E+02 -0.15017140245E+03  0.15331531738E+03  0.33118500014E+01 0.  0.
         13    1    3    3    0    0  0.14748289740E+01  0.21892880526E+01 -0.15150613039E+02  0.15378854903E+02  0.00000000000E+00 0.  1.
          1    1    3    3  501    0  0.22684127797E+02  0.16771536973E+02 -0.13502078942E+03  0.13793646248E+03  0.00000000000E+00 0.  1.
         -1    1    1    2    0  502 -0.24158956771E+02 -0.18960825025E+02 -0.84797866758E+03  0.84853461258E+03  0.00000000000E+00 0. -1.
<mgrwt>
<rscale>  1 0.30000000E+03</rscale>
<asrwt>0</asrwt>
<pdfrwt beam="1">  1       21 0.67270322E-02 0.30000000E+03</pdfrwt>
<pdfrwt beam="2">0</pdfrwt>
<totfact> 0.17289973E+04</totfact>
</mgrwt>
</event>
<event>
 6    1  0.1295671E-001  0.3000000E+03  0.7818608E-02  0.1093470E+00
         21   -1    0    0  501  502  0.00000000000E+00  0.00000000000E+00  0.13911791133E+01  0.13911791133E+01  0.00000000000E+00 0. -1.
         13   -1    0    0    0    0 -0.00000000000E+00 -0.00000000000E+00 -0.10000000000E+04  0.10000000000E+04  0.00000000000E+00 0.  1.
    9000005    2    1    2  501    0 -0.17804272699E+02  0.24813473264E+02 -0.78594815790E+03  0.78654877602E+03  0.34306824481E+01 0.  0.
         13    1    3    3    0    0 -0.58883155116E+01  0.96099131289E+01 -0.32739888322E+03  0.32759281345E+03  0.00000000000E+00 0.  1.
          1    1    3    3  501    0 -0.11915957187E+02  0.15203560135E+02 -0.45854927468E+03  0.45895596258E+03  0.00000000000E+00 0.  1.
         -3    1    1    2    0  502  0.17804272699E+02 -0.24813473264E+02 -0.21266066299E+03  0.21484240309E+03  0.00000000000E+00 0. -1.
<mgrwt>
<rscale>  1 0.30000000E+03</rscale>
<asrwt>0</asrwt>
<pdfrwt beam="1">  1       21 0.50588438E-02 0.30000000E+03</pdfrwt>
<pdfrwt beam="2">0</pdfrwt>
<totfact> 0.28235662E+04</totfact>
</mgrwt>
</event>
<event>
 6    1  0.1295671E-001  0.3000000E+03  0.7818608E-02  0.1093470E+00
         21   -1    0    0  501  502  0.00000000000E+00  0.00000000000E+00  0.28904068654E+01  0.28904068654E+01  0.00000000000E+00 0. -1.
         13   -1    0    0    0    0 -0.00000000000E+00 -0.00000000000E+00 -0.10000000000E+04  0.10000000000E+04  0.00000000000E+00 0.  1.
    9000005    2    1    2  501    0 -0.35654973716E+02  0.12104762551E+02 -0.85608659843E+03  0.85692709824E+03  0.46888456553E+01 0.  0.
         13    1    3    3    0    0 -0.10549119136E+02  0.14601994744E+01 -0.25483809685E+03  0.25506052556E+03  0.00000000000E+00 0.  1.
          1    1    3    3  501    0 -0.25105854579E+02  0.10644563077E+02 -0.60124850158E+03  0.60186657268E+03  0.00000000000E+00 0.  1.
         -1    1    1    2    0  502  0.35654973716E+02 -0.12104762551E+02 -0.14102299471E+03  0.14596330862E+03  0.00000000000E+00 0. -1.
<mgrwt>
<rscale>  1 0.30000000E+03</rscale>
<asrwt>0</asrwt>
<pdfrwt beam="1">  1       21 0.10510593E-01 0.30000000E+03</pdfrwt>
<pdfrwt beam="2">0</pdfrwt>
<totfact> 0.78696314E+03</totfact>
</mgrwt>
</event>
<event>
 6    1  0.1295671E-001  0.3000000E+03  0.7818608E-02  0.1093470E+00
         21   -1    0    0  501  502  0.00000000000E+00  0.00000000000E+00  0.12711711017E+02  0.12711711017E+02  0.00000000000E+00 0. -1.
         13   -1    0    0    0    0 -0.00000000000E+00 -0.00000000000E+00 -0.10000000000E+04  0.10000000000E+04  0.00000000000E+00 0.  1.
    9000005    2    1    2  501    0  0.13572124127E+02 -0.97847383769E+02 -0.73756485958E+03  0.74415984590E+03  0.36933862189E+01 0.  0.
         13    1    3    3    0    0  0.63476257703E+01 -0.51297036348E+02 -0.39851347238E+03  0.40185154717E+03  0.00000000000E+00 0.  1.
          3    1    3    3  501    0  0.72244983568E+01 -0.46550347422E+02 -0.33905138720E+03  0.34230829873E+03  0.00000000000E+00 0.  1.
         -1    1    1    2    0  502 -0.13572124127E+02  0.97847383769E+02 -0.24972342940E+03  0.26855186511E+03  0.00000000000E+00 0. -1.
<mgrwt>
<rscale>  1 0.30000000E+03</rscale>
<asrwt>0</asrwt>
<pdfrwt beam="1">  1       21 0.46224501E-01 0.30000000E+03</pdfrwt>
<pdfrwt beam="2">0</pdfrwt>
<totfact> 0.44487701E+02</totfact>
</mgrwt>
</event>
<event>
 6    1  0.1295671E-001  0.3000000E+03  0.7818608E-02  0.1093470E+00
         21   -1    0    0  501  502  0.00000000000E+00  0.00000000000E+00  0.13311541860E+01  0.13311541860E+01  0.00000000000E+00 0. -1.
         13   -1    0    0    0    0 -0.00000000000E+00 -0.00000000000E+00 -0.10000000000E+04  0.10000000000E+04  0.00000000000E+00 0.  1.
    9000005    2    1    2  501    0  0.32942626148E+02  0.27808217384E+01 -0.29008029034E+03  0.29197180200E+03  0.28299702204E+01 0.  0.
         13    1    3    3    0    0  0.74945875292E+01  0.11388628384E+01 -0.57451033944E+02  0.57949004755E+02  0.00000000000E+00 0.  1.
          1    1    3    3  501    0  0.25448038619E+02  0.16419589001E+01 -0.23262925640E+03  0.23402279725E+03  0.00000000000E+00 0.  1.
         -1    1    1    2    0  502 -0.32942626148E+02 -0.27808217384E+01 -0.70858855547E+03  0.70935935218E+03  0.00000000000E+00 0. -1.
<mgrwt>
<rscale>  1 0.30000000E+03</rscale>
<asrwt>0</asrwt>
<pdfrwt beam="1">  1       21 0.48405709E-02 0.30000000E+03</pdfrwt>
<pdfrwt beam="2">0</pdfrwt>
<totfact> 0.30439376E+04</totfact>
</mgrwt>
</event>
<event>
 6    1  0.1295671E-001  0.3000000E+03  0.7818608E-02  0.1093470E+00
         21   -1    0    0  501  502  0.00000000000E+00  0.00000000000E+00  0.14627341703E+01  0.14627341703E+01  0.00000000000E+00 0. -1.
         13   -1    0    0    0    0 -0.00000000000E+00 -0.00000000000E+00 -0.10000000000E+04  0.10000000000E+04  0.00000000000E+00 0.  1.
    9000005    2    1    2  501    0 -0.20479021711E+01 -0.31186785242E+02 -0.78719952756E+03  0.78782648000E+03  0.32644951409E+01 0.  0.
         13    1    3    3    0    0 -0.28617580328E+01 -0.26534094153E+02 -0.67660527693E+03  0.67713141160E+03  0.00000000000E+00 0.  1.
          3    1    3    3  501    0  0.81385586171E+00 -0.46526910892E+01 -0.11059425063E+03  0.11069506840E+03  0.00000000000E+00 0.  1.
         -3    1    1    2    0  502  0.20479021711E+01  0.31186785242E+02 -0.21133773827E+03  0.21363625417E+03  0.00000000000E+00 0. -1.
<mgrwt>
<rscale>  1 0.30000000E+03</rscale>
<asrwt>0</asrwt>
<pdfrwt beam="1">  1       21 0.53190446E-02 0.30000000E+03</pdfrwt>
<pdfrwt beam="2">0</pdfrwt>
<totfact> 0.25917362E+04</totfact>
</mgrwt>
</event>
<event>
 6    1  0.1295671E-001  0.3000000E+03  0.7818608E-02  0.1093470E+00
         21   -1    0    0  501  502  0.00000000000E+00  0.00000000000E+00  0.33632702699E+01  0.33632702699E+01  0.00000000000E+00 0. -1.
         13   -1    0    0    0    0 -0.00000000000E+00 -0.00000000000E+00 -0.10000000000E+04  0.10000000000E+04  0.00000000000E+00 0.  1.
    9000005    2    1    2  501    0 -0.38276201943E+01 -0.51715515179E+02 -0.72267261307E+03  0.72453450131E+03  0.23222208602E+01 0.  0.
         13    1    3    3    0    0 -0.17320441502E+01 -0.19720669989E+02 -0.26074401670E+03  0.26149444936E+03  0.00000000000E+00 0.  1.
          3    1    3    3  501    0 -0.20955760441E+01 -0.31994845190E+02 -0.46192859637E+03  0.46304005194E+03  0.00000000000E+00 0.  1.
         -3    1    1    2    0  502  0.38276201943E+01  0.51715515179E+02 -0.27396411666E+03  0.27882876896E+03  0.00000000000E+00 0. -1.
<mgrwt>
<rscale>  1 0.30000000E+03</rscale>
<asrwt>0</asrwt>
<pdfrwt beam="1">  1       21 0.12230099E-01 0.30000000E+03</pdfrwt>
<pdfrwt beam="2">0</pdfrwt>
<totfact> 0.59869019E+03</totfact>
</mgrwt>
</event>
<event>
 6    1  0.1295671E-001  0.3000000E+03  0.7818608E-02  0.1093470E+00
         21   -1    0    0  501  502  0.00000000000E+00  0.00000000000E+00  0.14789925460E+01  0.14789925460E+01  0.00000000000E+00 0. -1.
         13   -1    0    0    0    0 -0.00000000000E+00 -0.00000000000E+00 -0.10000000000E+04  0.10000000000E+04  0.00000000000E+00 0.  1.
    9000005    2    1    2  501    0  0.33544665114E+02  0.13595138470E+02 -0.66675966924E+03  0.66774907498E+03  0.32090900347E+01 0.  0.
         13    1    3    3    0    0  0.89370348771E+01  0.46808576677E+01 -0.20544376806E+03  0.20569132907E+03  0.00000000000E+00 0.  1.
          3    1    3    3  501    0  0.24607630237E+02  0.89142808026E+01 -0.46131590118E+03  0.46205774590E+03  0.00000000000E+00 0.  1.
         -3    1    1    2    0  502 -0.33544665114E+02 -0.13595138470E+02 -0.33176133821E+03  0.33372991757E+03  0.00000000000E+00 0. -1.
<mgrwt>
<rscale>  1 0.30000000E+03</rscale>
<asrwt>0</asrwt>
<pdfrwt beam="1">  1       21 0.53781661E-02 0.30000000E+03</pdfrwt>
<pdfrwt beam="2">0</pdfrwt>
<totfact> 0.25431700E+04</totfact>
</mgrwt>
</event>
<event>
 6    1  0.1295671E-001  0.3000000E+03  0.7818608E-02  0.1093470E+00
         21   -1    0    0  501  502  0.00000000000E+00  0.00000000000E+00  0.44645112445E+01  0.44645112445E+01  0.00000000000E+00 0. -1.
         13   -1    0    0    0    0 -0.00000000000E+00 -0.00000000000E+00 -0.10000000000E+04  0.10000000000E+04  0.00000000000E+00 0.  1.
    9000005    2    1    2  501    0  0.16132982144E+02 -0.26977330844E+02 -0.94076958138E+03  0.94131901178E+03  0.67843342655E+01 0.  0.
         13    1    3    3    0    0  0.14685396903E+02 -0.21217179663E+02 -0.69800537733E+03  0.69848216612E+03  0.00000000000E+00 0.  1.
          3    1    3    3  501    0  0.14475852404E+01 -0.57601511807E+01 -0.24276420405E+03  0.24283684566E+03  0.00000000000E+00 0.  1.
         -3    1    1    2    0  502 -0.16132982144E+02  0.26977330844E+02 -0.54765907377E+02  0.63145499469E+02  0.00000000000E+00 0. -1.
<mgrwt>
<rscale>  1 0.30000000E+03</rscale>
<asrwt>0</asrwt>
<pdfrwt beam="1">  1       21 0.16234621E-01 0.30000000E+03</pdfrwt>
<pdfrwt beam="2">0</pdfrwt>
<totfact> 0.35548360E+03</totfact>
</mgrwt>
</event>
<event>
 6    1  0.1295671E-001  0.3000000E+03  0.7818608E-02  0.1093470E+00
         21   -1    0    0  501  502  0.00000000000E+00  0.00000000000E+00  0.19965691810E+01  0.19965691810E+01  0.00000000000E+00 0. -1.
         13   -1    0    0    0    0 -0.00000000000E+00 -0.00000000000E+00 -0.10000000000E+04  0.10000000000E+04  0.00000000000E+00 0.  1.
    9000005    2    1    2  501    0  0.27243109266E+02  0.18892818387E+02 -0.16530888415E+03  0.16864230259E+03  0.37514604686E+01 0.  0.
         13    1    3    3    0    0  0.21270159830E+02  0.12807633126E+02 -0.12128460220E+03  0.12379987842E+03  0.00000000000E+00 0.  1.
          1    1    3    3  501    0  0.59729494363E+01  0.60851852613E+01 -0.44024281943E+02  0.44842424168E+02  0.00000000000E+00 0.  1.
         -1    1    1    2    0  502 -0.27243109266E+02 -0.18892818387E+02 -0.83269454667E+03  0.83335426659E+03  0.00000000000E+00 0. -1.
<mgrwt>
<rscale>  1 0.30000000E+03</rscale>
<asrwt>0</asrwt>
<pdfrwt beam="1">  1       21 0.72602669E-02 0.30000000E+03</pdfrwt>
<pdfrwt beam="2">0</pdfrwt>
<totfact> 0.15140551E+04</totfact>
</mgrwt>
</event>
<event>
 6    1  0.1295671E-001  0.3000000E+03  0.7818608E-02  0.1093470E+00
         21   -1    0    0  501  502  0.00000000000E+00  0.00000000000E+00  0.66922733498E+01  0.66922733498E+01  0.00000000000E+00 0. -1.
         13   -1    0    0    0    0 -0.00000000000E+00 -0.00000000000E+00 -0.10000000000E+04  0.10000000000E+04  0.00000000000E+00 0.  1.
    9000005    2    1    2  501    0  0.73751876719E+02  0.23507084961E+02 -0.33468655494E+03  0.34353786434E+03  0.33543725670E+01 0.  0.
         13    1    3    3    0    0  0.25367090152E+02  0.66981946655E+01 -0.11729542981E+03  0.12019389722E+03  0.00000000000E+00 0.  1.
          1    1    3    3  501    0  0.48384786567E+02  0.16808890296E+02 -0.21739112513E+03  0.22334396712E+03  0.00000000000E+00 0.  1.
         -1    1    1    2    0  502 -0.73751876719E+02 -0.23507084961E+02 -0.65862117171E+03  0.66315440900E+03  0.00000000000E+00 0. -1.
<mgrwt>
<rscale>  1 0.30000000E+03</rscale>
<asrwt>0</asrwt>
<pdfrwt beam="1">  1       21 0.24335591E-01 0.30000000E+03</pdfrwt>
<pdfrwt beam="2">0</pdfrwt>
<totfact> 0.16438485E+03</totfact>
</mgrwt>
</event>
<event>
 6    1  0.1295671E-001  0.3000000E+03  0.7818608E-02  0.1093470E+00
         21   -1    0    0  501  502  0.00000000000E+00  0.00000000000E+00  0.40141542962E+01  0.40141542962E+01  0.00000000000E+00 0. -1.
         13   -1    0    0    0    0 -0.00000000000E+00 -0.00000000000E+00 -0.10000000000E+04  0.10000000000E+04  0.00000000000E+00 0.  1.
    9000005    2    1    2  501    0 -0.15841174139E+02 -0.47885008832E+02 -0.80159027926E+03  0.80318200268E+03  0.32305974345E+01 0.  0.
         13    1    3    3    0    0 -0.57500360156E+01 -0.12958935539E+02 -0.23161617631E+03  0.23204967152E+03  0.00000000000E+00 0.  1.
          3    1    3    3  501    0 -0.10091138124E+02 -0.34926073292E+02 -0.56997410295E+03  0.57113233116E+03  0.00000000000E+00 0.  1.
         -1    1    1    2    0  502  0.15841174139E+02  0.47885008832E+02 -0.19439556645E+03  0.20083215162E+03  0.00000000000E+00 0. -1.
<mgrwt>
<rscale>  1 0.30000000E+03</rscale>
<asrwt>0</asrwt>
<pdfrwt beam="1">  1       21 0.14596955E-01 0.30000000E+03</pdfrwt>
<pdfrwt beam="2">0</pdfrwt>
<totfact> 0.43306161E+03</totfact>
</mgrwt>
</event>
<event>
 6    1  0.1295671E-001  0.3000000E+03  0.7818608E-02  0.1093470E+00
         21   -1    0    0  501  502  0.00000000000E+00  0.00000000000E+00  0.20375364667E+01  0.20375364667E+01  0.00000000000E+00 0. -1.
         13   -1    0    0    0    0 -0.00000000000E+00 -0.00000000000E+00 -0.10000000000E+04  0.10000000000E+04  0.00000000000E+00 0.  1.
    9000005    2    1    2  501    0  0.24609019564E+02  0.31226045969E+02 -0.73481353551E+03  0.73590217972E+03  0.45184463817E+01 0.  0.
         13    1    3    3    0    0  0.14661312311E+02  0.21864275373E+02 -0.47043604327E+03  0.47117201893E+03  0.00000000000E+00 0.  1.
          3    1    3    3  501    0  0.99477072528E+01  0.93617705955E+01 -0.26437749224E+03  0.26473016079E+03  0.00000000000E+00 0.  1.
         -3    1    1    2    0  502 -0.24609019564E+02 -0.31226045969E+02 -0.26314892802E+03  0.26613535674E+03  0.00000000000E+00 0. -1.
<mgrwt>
<rscale>  1 0.30000000E+03</rscale>
<asrwt>0</asrwt>
<pdfrwt beam="1">  1       21 0.74092391E-02 0.30000000E+03</pdfrwt>
<pdfrwt beam="2">0</pdfrwt>
<totfact> 0.14612559E+04</totfact>
</mgrwt>
</event>
<event>
 6    1  0.1295671E-001  0.3000000E+03  0.7818608E-02  0.1093470E+00
         21   -1    0    0  501  502  0.00000000000E+00  0.00000000000E+00  0.43654984679E+01  0.43654984679E+01  0.00000000000E+00 0. -1.
         13   -1    0    0    0    0 -0.00000000000E+00 -0.00000000000E+00 -0.10000000000E+04  0.10000000000E+04  0.00000000000E+00 0.  1.
    9000005    2    1    2  501    0  0.26558528935E+02  0.54765890793E+02 -0.69277190115E+03  0.69544736536E+03  0.30777764192E+01 0.  0.
         13    1    3    3    0    0  0.42400436610E+01  0.99784638422E+01 -0.13577346679E+03  0.13620566066E+03  0.00000000000E+00 0.  1.
          3    1    3    3  501    0  0.22318485274E+02  0.44787426951E+02 -0.55699843436E+03  0.55924170470E+03  0.00000000000E+00 0.  1.
         -3    1    1    2    0  502 -0.26558528935E+02 -0.54765890793E+02 -0.30286260038E+03  0.30891813311E+03  0.00000000000E+00 0. -1.
<mgrwt>
<rscale>  1 0.30000000E+03</rscale>
<asrwt>0</asrwt>
<pdfrwt beam="1">  1       21 0.15874573E-01 0.30000000E+03</pdfrwt>
<pdfrwt beam="2">0</pdfrwt>
<totfact> 0.37066254E+03</totfact>
</mgrwt>
</event>
<event>
 6    1  0.1295671E-001  0.3000000E+03  0.7818608E-02  0.1093470E+00
         21   -1    0    0  501  502  0.00000000000E+00  0.00000000000E+00  0.98584647799E+00  0.98584647799E+00  0.00000000000E+00 0. -1.
         13   -1    0    0    0    0 -0.00000000000E+00 -0.00000000000E+00 -0.10000000000E+04  0.10000000000E+04  0.00000000000E+00 0.  1.
    9000005    2    1    2  501    0  0.28814531604E+01  0.31049779028E+02 -0.45670367188E+03  0.45777957806E+03  0.33921423866E+01 0.  0.
         13    1    3    3    0    0  0.83643949120E+00  0.18687334709E+01 -0.23271762098E+02  0.23361650347E+02  0.00000000000E+00 0.  1.
          1    1    3    3  501    0  0.20450136692E+01  0.29181045557E+02 -0.43343190978E+03  0.43441792771E+03  0.00000000000E+00 0.  1.
         -3    1    1    2    0  502 -0.28814531604E+01 -0.31049779028E+02 -0.54231048164E+03  0.54320626842E+03  0.00000000000E+00 0. -1.
<mgrwt>
<rscale>  1 0.30000000E+03</rscale>
<asrwt>0</asrwt>
<pdfrwt beam="1">  1       21 0.35849038E-02 0.30000000E+03</pdfrwt>
<pdfrwt beam="2">0</pdfrwt>
<totfact> 0.50545223E+04</totfact>
</mgrwt>
</event>
<event>
 6    1  0.1295671E-001  0.3000000E+03  0.7818608E-02  0.1093470E+00
         21   -1    0    0  501  502  0.00000000000E+00  0.00000000000E+00  0.13519604792E+01  0.13519604792E+01  0.00000000000E+00 0. -1.
         13   -1    0    0    0    0 -0.00000000000E+00 -0.00000000000E+00 -0.10000000000E+04  0.10000000000E+04  0.00000000000E+00 0.  1.
    9000005    2    1    2  501    0 -0.25509919233E+02  0.18780077721E+02 -0.74990347073E+03  0.75059848034E+03  0.62782146311E+01 0.  0.
         13    1    3    3    0    0 -0.21741201623E+02  0.17094324106E+02 -0.59841336369E+03  0.59905212595E+03  0.00000000000E+00 0.  1.
          3    1    3    3  501    0 -0.37687176091E+01  0.16857536156E+01 -0.15149010704E+03  0.15154635439E+03  0.00000000000E+00 0.  1.
         -3    1    1    2    0  502  0.25509919233E+02 -0.18780077721E+02 -0.24874456879E+03  0.25075348014E+03  0.00000000000E+00 0. -1.
<mgrwt>
<rscale>  1 0.30000000E+03</rscale>
<asrwt>0</asrwt>
<pdfrwt beam="1">  1       21 0.49162303E-02 0.30000000E+03</pdfrwt>
<pdfrwt beam="2">0</pdfrwt>
<totfact> 0.29646028E+04</totfact>
</mgrwt>
</event>
<event>
 6    1  0.1295671E-001  0.3000000E+03  0.7818608E-02  0.1093470E+00
         21   -1    0    0  501  502  0.00000000000E+00  0.00000000000E+00  0.48439825618E+01  0.48439825618E+01  0.00000000000E+00 0. -1.
         13   -1    0    0    0    0 -0.00000000000E+00 -0.00000000000E+00 -0.10000000000E+04  0.10000000000E+04  0.00000000000E+00 0.  1.
    9000005    2    1    2  501    0 -0.12582160049E+02 -0.52241567992E+02 -0.81670915980E+03  0.81848204123E+03  0.33923338887E+01 0.  0.
         13    1    3    3    0    0 -0.10444883602E+02 -0.38536541713E+02 -0.62040515270E+03  0.62168859901E+03  0.00000000000E+00 0.  1.
          3    1    3    3  501    0 -0.21372764470E+01 -0.13705026279E+02 -0.19630400710E+03  0.19679344222E+03  0.00000000000E+00 0.  1.
         -3    1    1    2    0  502  0.12582160049E+02  0.52241567992E+02 -0.17844685764E+03  0.18636194134E+03  0.00000000000E+00 0. -1.
<mgrwt>
<rscale>  1 0.30000000E+03</rscale>
<asrwt>0</asrwt>
<pdfrwt beam="1">  1       21 0.17614519E-01 0.30000000E+03</pdfrwt>
<pdfrwt beam="2">0</pdfrwt>
<totfact> 0.30513254E+03</totfact>
</mgrwt>
</event>
<event>
 6    1  0.1295671E-001  0.3000000E+03  0.7818608E-02  0.1093470E+00
         21   -1    0    0  501  502  0.00000000000E+00  0.00000000000E+00  0.29799565802E+01  0.29799565802E+01  0.00000000000E+00 0. -1.
         13   -1    0    0    0    0 -0.00000000000E+00 -0.00000000000E+00 -0.10000000000E+04  0.10000000000E+04  0.00000000000E+00 0.  1.
    9000005    2    1    2  501    0  0.22973952855E+02  0.24548210996E+02 -0.89342872661E+03  0.89406908434E+03  0.37710574619E+01 0.  0.
         13    1    3    3    0    0  0.12810799313E+02  0.11209210025E+02 -0.42818276595E+03  0.42852099601E+03  0.00000000000E+00 0.  1.
          1    1    3    3  501    0  0.10163153543E+02  0.13339000971E+02 -0.46524596066E+03  0.46554808833E+03  0.00000000000E+00 0.  1.
         -1    1    1    2    0  502 -0.22973952855E+02 -0.24548210996E+02 -0.10359131681E+03  0.10891087224E+03  0.00000000000E+00 0. -1.
<mgrwt>
<rscale>  1 0.30000000E+03</rscale>
<asrwt>0</asrwt>
<pdfrwt beam="1">  1       21 0.10836229E-01 0.30000000E+03</pdfrwt>
<pdfrwt beam="2">0</pdfrwt>
<totfact> 0.74502743E+03</totfact>
</mgrwt>
</event>
<event>
 6    1  0.1295671E-001  0.3000000E+03  0.7818608E-02  0.1093470E+00
         21   -1    0    0  501  502  0.00000000000E+00  0.00000000000E+00  0.19905621050E+01  0.19905621050E+01  0.00000000000E+00 0. -1.
         13   -1    0    0    0    0 -0.00000000000E+00 -0.00000000000E+00 -0.10000000000E+04  0.10000000000E+04  0.00000000000E+00 0.  1.
    9000005    2    1    2  501    0 -0.56488527564E+00 -0.43068439163E+02 -0.62712788524E+03  0.62861630529E+03  0.37236127877E+01 0.  0.
         13    1    3    3    0    0  0.13817514655E+01 -0.26226552633E+02 -0.38936900193E+03  0.39025371358E+03  0.00000000000E+00 0.  1.
          1    1    3    3  501    0 -0.19466367412E+01 -0.16841886530E+02 -0.23775888330E+03  0.23836259171E+03  0.00000000000E+00 0.  1.
         -1    1    1    2    0  502  0.56488527564E+00  0.43068439163E+02 -0.37088155266E+03  0.37337425681E+03  0.00000000000E+00 0. -1.
<mgrwt>
<rscale>  1 0.30000000E+03</rscale>
<asrwt>0</asrwt>
<pdfrwt beam="1">  1       21 0.72384229E-02 0.30000000E+03</pdfrwt>
<pdfrwt beam="2">0</pdfrwt>
<totfact> 0.15220400E+04</totfact>
</mgrwt>
</event>
<event>
 6    1  0.1295671E-001  0.3000000E+03  0.7818608E-02  0.1093470E+00
         21   -1    0    0  501  502  0.00000000000E+00  0.00000000000E+00  0.14527335021E+01  0.14527335021E+01  0.00000000000E+00 0. -1.
         13   -1    0    0    0    0 -0.00000000000E+00 -0.00000000000E+00 -0.10000000000E+04  0.10000000000E+04  0.00000000000E+00 0.  1.
    9000005    2    1    2  501    0  0.11978026357E+02 -0.30413074815E+02 -0.75527778344E+03  0.75599709673E+03  0.43187814786E+01 0.  0.
         13    1    3    3    0    0  0.87317384566E+01 -0.23048276877E+02 -0.52402526435E+03  0.52460455964E+03  0.00000000000E+00 0.  1.
          1    1    3    3  501    0  0.32462879007E+01 -0.73647979381E+01 -0.23125251909E+03  0.23139253709E+03  0.00000000000E+00 0.  1.
         -1    1    1    2    0  502 -0.11978026357E+02  0.30413074815E+02 -0.24326948306E+03  0.24545563677E+03  0.00000000000E+00 0. -1.
<mgrwt>
<rscale>  1 0.30000000E+03</rscale>
<asrwt>0</asrwt>
<pdfrwt beam="1">  1       21 0.52826784E-02 0.30000000E+03</pdfrwt>
<pdfrwt beam="2">0</pdfrwt>
<totfact> 0.26223259E+04</totfact>
</mgrwt>
</event>
<event>
 6    1  0.1295671E-001  0.3000000E+03  0.7818608E-02  0.1093470E+00
         21   -1    0    0  501  502  0.00000000000E+00  0.00000000000E+00  0.17544046944E+01  0.17544046944E+01  0.00000000000E+00 0. -1.
         13   -1    0    0    0    0 -0.00000000000E+00 -0.00000000000E+00 -0.10000000000E+04  0.10000000000E+04  0.00000000000E+00 0.  1.
    9000005    2    1    2  501    0 -0.27067190851E+02 -0.20147723817E+02 -0.79530460790E+03  0.79602738176E+03  0.34072821800E+01 0.  0.
         13    1    3    3    0    0 -0.10415347293E+01 -0.16264136052E+01 -0.37211869918E+02  0.37261954841E+02  0.00000000000E+00 0.  1.
          3    1    3    3  501    0 -0.26025656122E+02 -0.18521310212E+02 -0.75809273798E+03  0.75876542692E+03  0.00000000000E+00 0.  1.
         -3    1    1    2    0  502  0.27067190851E+02  0.20147723817E+02 -0.20294098741E+03  0.20572702294E+03  0.00000000000E+00 0. -1.
<mgrwt>
<rscale>  1 0.30000000E+03</rscale>
<asrwt>0</asrwt>
<pdfrwt beam="1">  1       21 0.63796669E-02 0.30000000E+03</pdfrwt>
<pdfrwt beam="2">0</pdfrwt>
<totfact> 0.18953111E+04</totfact>
</mgrwt>
</event>
<event>
 6    1  0.1295671E-001  0.3000000E+03  0.7818608E-02  0.1093470E+00
         21   -1    0    0  501  502  0.00000000000E+00  0.00000000000E+00  0.20355272136E+01  0.20355272136E+01  0.00000000000E+00 0. -1.
         13   -1    0    0    0    0 -0.00000000000E+00 -0.00000000000E+00 -0.10000000000E+04  0.10000000000E+04  0.00000000000E+00 0.  1.
    9000005    2    1    2  501    0  0.78626896438E+01 -0.44243555872E+02 -0.53446873735E+03  0.53636653438E+03  0.35935869342E+01 0.  0.
         13    1    3    3    0    0  0.57399058969E+01 -0.23728983614E+02 -0.27803473904E+03  0.27910450963E+03  0.00000000000E+00 0.  1.
          3    1    3    3  501    0  0.21227837469E+01 -0.20514572257E+02 -0.25643399831E+03  0.25726202475E+03  0.00000000000E+00 0.  1.
         -3    1    1    2    0  502 -0.78626896438E+01  0.44243555872E+02 -0.46349573543E+03  0.46566899284E+03  0.00000000000E+00 0. -1.
<mgrwt>
<rscale>  1 0.30000000E+03</rscale>
<asrwt>0</asrwt>
<pdfrwt beam="1">  1       21 0.74019327E-02 0.30000000E+03</pdfrwt>
<pdfrwt beam="2">0</pdfrwt>
<totfact> 0.14637800E+04</totfact>
</mgrwt>
</event>
<event>
 6    1  0.1295671E-001  0.3000000E+03  0.7818608E-02  0.1093470E+00
         21   -1    0    0  501  502  0.00000000000E+00  0.00000000000E+00  0.38664084389E+01  0.38664084389E+01  0.00000000000E+00 0. -1.
         13   -1    0    0    0    0 -0.00000000000E+00 -0.00000000000E+00 -0.10000000000E+04  0.10000000000E+04  0.00000000000E+00 0.  1.
    9000005    2    1    2  501    0  0.42685558827E+02 -0.22600782612E+02 -0.81388589780E+03  0.81532709108E+03  0.38933934168E+01 0.  0.
         13    1    3    3    0    0  0.35818194391E+02 -0.17433451295E+02 -0.67946508688E+03  0.68063181866E+03  0.00000000000E+00 0.  1.
          1    1    3    3  501    0  0.68673644351E+01 -0.51673313176E+01 -0.13442081092E+03  0.13469527243E+03  0.00000000000E+00 0.  1.
         -1    1    1    2    0  502 -0.42685558827E+02  0.22600782612E+02 -0.18224769376E+03  0.18853931735E+03  0.00000000000E+00 0. -1.
<mgrwt>
<rscale>  1 0.30000000E+03</rscale>
<asrwt>0</asrwt>
<pdfrwt beam="1">  1       21 0.14059697E-01 0.30000000E+03</pdfrwt>
<pdfrwt beam="2">0</pdfrwt>
<totfact> 0.46402506E+03</totfact>
</mgrwt>
</event>
<event>
 6    1  0.1295671E-001  0.3000000E+03  0.7818608E-02  0.1093470E+00
         21   -1    0    0  501  502  0.00000000000E+00  0.00000000000E+00  0.60184534121E+01  0.60184534121E+01  0.00000000000E+00 0. -1.
         13   -1    0    0    0    0 -0.00000000000E+00 -0.00000000000E+00 -0.10000000000E+04  0.10000000000E+04  0.00000000000E+00 0.  1.
    9000005    2    1    2  501    0 -0.71203299362E+02  0.27181437415E+02 -0.40877032505E+03  0.41586515621E+03  0.64737262466E+01 0.  0.
         13    1    3    3    0    0 -0.18701020810E+02  0.41434030904E+01 -0.10304991429E+03  0.10481498368E+03  0.00000000000E+00 0.  1.
          1    1    3    3  501    0 -0.52502278551E+02  0.23038034324E+02 -0.30572041076E+03  0.31105017253E+03  0.00000000000E+00 0.  1.
         -3    1    1    2    0  502  0.71203299362E+02 -0.27181437415E+02 -0.58521122154E+03  0.59015329720E+03  0.00000000000E+00 0. -1.
<mgrwt>
<rscale>  1 0.30000000E+03</rscale>
<asrwt>0</asrwt>
<pdfrwt beam="1">  1       21 0.21885331E-01 0.30000000E+03</pdfrwt>
<pdfrwt beam="2">0</pdfrwt>
<totfact> 0.20187986E+03</totfact>
</mgrwt>
</event>
<event>
 6    1  0.1295671E-001  0.3000000E+03  0.7818608E-02  0.1093470E+00
         21   -1    0    0  501  502  0.00000000000E+00  0.00000000000E+00  0.15579696881E+01  0.15579696881E+01  0.00000000000E+00 0. -1.
         13   -1    0    0    0    0 -0.00000000000E+00 -0.00000000000E+00 -0.10000000000E+04  0.10000000000E+04  0.00000000000E+00 0.  1.
    9000005    2    1    2  501    0 -0.39130086123E+02 -0.44422261618E+01 -0.48354336467E+03  0.48515547852E+03  0.32796037037E+01 0.  0.
         13    1    3    3    0    0 -0.15042501388E+02 -0.26325815829E+00 -0.19275361378E+03  0.19333986081E+03  0.00000000000E+00 0.  1.
          1    1    3    3  501    0 -0.24087584735E+02 -0.41789680035E+01 -0.29078975089E+03  0.29181561770E+03  0.00000000000E+00 0.  1.
         -1    1    1    2    0  502  0.39130086123E+02  0.44422261618E+01 -0.51489866564E+03  0.51640249117E+03  0.00000000000E+00 0. -1.
<mgrwt>
<rscale>  1 0.30000000E+03</rscale>
<asrwt>0</asrwt>
<pdfrwt beam="1">  1       21 0.56653563E-02 0.30000000E+03</pdfrwt>
<pdfrwt beam="2">0</pdfrwt>
<totfact> 0.23260766E+04</totfact>
</mgrwt>
</event>
<event>
 6    1  0.1295671E-001  0.3000000E+03  0.7818608E-02  0.1093470E+00
         21   -1    0    0  501  502  0.00000000000E+00  0.00000000000E+00  0.24336835421E+01  0.24336835421E+01  0.00000000000E+00 0. -1.
         13   -1    0    0    0    0 -0.00000000000E+00 -0.00000000000E+00 -0.10000000000E+04  0.10000000000E+04  0.00000000000E+00 0.  1.
    9000005    2    1    2  501    0  0.39419607684E+02  0.28600517204E+02 -0.42344254464E+03  0.42624794923E+03  0.34395581633E+01 0.  0.
         13    1    3    3    0    0  0.75818159329E+01  0.67114840396E+01 -0.96911520406E+02  0.97439061666E+02  0.00000000000E+00 0.  1.
          1    1    3    3  501    0  0.31837791751E+02  0.21889033164E+02 -0.32653102423E+03  0.32880888757E+03  0.00000000000E+00 0.  1.
         -3    1    1    2    0  502 -0.39419607684E+02 -0.28600517204E+02 -0.57412377182E+03  0.57618573431E+03  0.00000000000E+00 0. -1.
<mgrwt>
<rscale>  1 0.30000000E+03</rscale>
<asrwt>0</asrwt>
<pdfrwt beam="1">  1       21 0.88497770E-02 0.30000000E+03</pdfrwt>
<pdfrwt beam="2">0</pdfrwt>
<totfact> 0.10691997E+04</totfact>
</mgrwt>
</event>
<event>
 6    1  0.1295671E-001  0.3000000E+03  0.7818608E-02  0.1093470E+00
         21   -1    0    0  501  502  0.00000000000E+00  0.00000000000E+00  0.12776762561E+01  0.12776762561E+01  0.00000000000E+00 0. -1.
         13   -1    0    0    0    0 -0.00000000000E+00 -0.00000000000E+00 -0.10000000000E+04  0.10000000000E+04  0.00000000000E+00 0.  1.
    9000005    2    1    2  501    0  0.28755796940E+01  0.30640880966E+02 -0.75314596768E+03  0.75378044556E+03  0.29964863001E+01 0.  0.
         13    1    3    3    0    0  0.23307861753E+01  0.17242677776E+02 -0.45681255507E+03  0.45714379901E+03  0.00000000000E+00 0.  1.
          3    1    3    3  501    0  0.54479351870E+00  0.13398203190E+02 -0.29633341261E+03  0.29663664655E+03  0.00000000000E+00 0.  1.
         -3    1    1    2    0  502 -0.28755796940E+01 -0.30640880966E+02 -0.24557635606E+03  0.24749723069E+03  0.00000000000E+00 0. -1.
<mgrwt>
<rscale>  1 0.30000000E+03</rscale>
<asrwt>0</asrwt>
<pdfrwt beam="1">  1       21 0.46461053E-02 0.30000000E+03</pdfrwt>
<pdfrwt beam="2">0</pdfrwt>
<totfact> 0.32637970E+04</totfact>
</mgrwt>
</event>
<event>
 6    1  0.1295671E-001  0.3000000E+03  0.7818608E-02  0.1093470E+00
         21   -1    0    0  501  502  0.00000000000E+00  0.00000000000E+00  0.94115223502E+00  0.94115223502E+00  0.00000000000E+00 0. -1.
         13   -1    0    0    0    0 -0.00000000000E+00 -0.00000000000E+00 -0.10000000000E+04  0.10000000000E+04  0.00000000000E+00 0.  1.
    9000005    2    1    2  501    0 -0.27833079629E+01 -0.30396365592E+02 -0.53549899181E+03  0.53637745811E+03  0.31498407204E+01 0.  0.
         13    1    3    3    0    0  0.31474086123E-01 -0.13415289198E+01 -0.14734833625E+02  0.14795810637E+02  0.00000000000E+00 0.  1.
          3    1    3    3  501    0 -0.28147820490E+01 -0.29054836672E+02 -0.52076415819E+03  0.52158164748E+03  0.00000000000E+00 0.  1.
         -3    1    1    2    0  502  0.27833079629E+01  0.30396365592E+02 -0.46355985595E+03  0.46456369412E+03  0.00000000000E+00 0. -1.
<mgrwt>
<rscale>  1 0.30000000E+03</rscale>
<asrwt>0</asrwt>
<pdfrwt beam="1">  1       21 0.34223790E-02 0.30000000E+03</pdfrwt>
<pdfrwt beam="2">0</pdfrwt>
<totfact> 0.54628684E+04</totfact>
</mgrwt>
</event>
<event>
 6    1  0.1295671E-001  0.3000000E+03  0.7818608E-02  0.1093470E+00
         21   -1    0    0  501  502  0.00000000000E+00  0.00000000000E+00  0.26977815854E+01  0.26977815854E+01  0.00000000000E+00 0. -1.
         13   -1    0    0    0    0 -0.00000000000E+00 -0.00000000000E+00 -0.10000000000E+04  0.10000000000E+04  0.00000000000E+00 0.  1.
    9000005    2    1    2  501    0 -0.35019677687E+02  0.36800338937E+02 -0.60031090951E+03  0.60246941913E+03  0.39459009128E+01 0.  0.
         13    1    3    3    0    0 -0.26211443643E+02  0.26965411399E+02 -0.46342629585E+03  0.46494957240E+03  0.00000000000E+00 0.  1.
          3    1    3    3  501    0 -0.88082340441E+01  0.98349275378E+01 -0.13688461367E+03  0.13751984673E+03  0.00000000000E+00 0.  1.
         -1    1    1    2    0  502  0.35019677687E+02 -0.36800338937E+02 -0.39699130890E+03  0.40022836246E+03  0.00000000000E+00 0. -1.
<mgrwt>
<rscale>  1 0.30000000E+03</rscale>
<asrwt>0</asrwt>
<pdfrwt beam="1">  1       21 0.98101355E-02 0.30000000E+03</pdfrwt>
<pdfrwt beam="2">0</pdfrwt>
<totfact> 0.89028084E+03</totfact>
</mgrwt>
</event>
<event>
 6    1  0.1295671E-001  0.3000000E+03  0.7818608E-02  0.1093470E+00
         21   -1    0    0  501  502  0.00000000000E+00  0.00000000000E+00  0.10060861418E+01  0.10060861418E+01  0.00000000000E+00 0. -1.
         13   -1    0    0    0    0 -0.00000000000E+00 -0.00000000000E+00 -0.10000000000E+04  0.10000000000E+04  0.00000000000E+00 0.  1.
    9000005    2    1    2  501    0 -0.24520526998E+02 -0.19033185305E+02 -0.40523147131E+03  0.40643283030E+03  0.34032065214E+01 0.  0.
         13    1    3    3    0    0 -0.17707006166E+02 -0.14962435447E+02 -0.28649195047E+03  0.28742833928E+03  0.00000000000E+00 0.  1.
          3    1    3    3  501    0 -0.68135208321E+01 -0.40707498585E+01 -0.11873952085E+03  0.11900449101E+03  0.00000000000E+00 0.  1.
         -1    1    1    2    0  502  0.24520526998E+02  0.19033185305E+02 -0.59376244254E+03  0.59457325584E+03  0.00000000000E+00 0. -1.
<mgrwt>
<rscale>  1 0.30000000E+03</rscale>
<asrwt>0</asrwt>
<pdfrwt beam="1">  1       21 0.36585028E-02 0.30000000E+03</pdfrwt>
<pdfrwt beam="2">0</pdfrwt>
<totfact> 0.48851372E+04</totfact>
</mgrwt>
</event>
<event>
 6    1  0.1295671E-001  0.3000000E+03  0.7818608E-02  0.1093470E+00
         21   -1    0    0  501  502  0.00000000000E+00  0.00000000000E+00  0.94707434868E+01  0.94707434868E+01  0.00000000000E+00 0. -1.
         13   -1    0    0    0    0 -0.00000000000E+00 -0.00000000000E+00 -0.10000000000E+04  0.10000000000E+04  0.00000000000E+00 0.  1.
    9000005    2    1    2  501    0 -0.23138986873E+02 -0.36789113375E+02 -0.94685483315E+03  0.94785656628E+03  0.30238398867E+01 0.  0.
         13    1    3    3    0    0 -0.20154671666E+02 -0.32564017888E+02 -0.81208643364E+03  0.81298893089E+03  0.00000000000E+00 0.  1.
          3    1    3    3  501    0 -0.29843152066E+01 -0.42250954876E+01 -0.13476839951E+03  0.13486763539E+03  0.00000000000E+00 0.  1.
         -1    1    1    2    0  502  0.23138986873E+02  0.36789113375E+02 -0.43674423361E+02  0.61614177202E+02  0.00000000000E+00 0. -1.
<mgrwt>
<rscale>  1 0.30000000E+03</rscale>
<asrwt>0</asrwt>
<pdfrwt beam="1">  1       21 0.34439140E-01 0.30000000E+03</pdfrwt>
<pdfrwt beam="2">0</pdfrwt>
<totfact> 0.82250336E+02</totfact>
</mgrwt>
</event>
<event>
 6    1  0.1295671E-001  0.3000000E+03  0.7818608E-02  0.1093470E+00
         21   -1    0    0  501  502  0.00000000000E+00  0.00000000000E+00  0.11411051856E+01  0.11411051856E+01  0.00000000000E+00 0. -1.
         13   -1    0    0    0    0 -0.00000000000E+00 -0.00000000000E+00 -0.10000000000E+04  0.10000000000E+04  0.00000000000E+00 0.  1.
    9000005    2    1    2  501    0  0.30575060729E+02 -0.14923290311E+01 -0.70933198729E+03  0.71000043203E+03  0.34181729451E+01 0.  0.
         13    1    3    3    0    0  0.23850591658E+02 -0.24384518313E+01 -0.56655904694E+03  0.56706609001E+03  0.00000000000E+00 0.  1.
          1    1    3    3  501    0  0.67244690708E+01  0.94612280024E+00 -0.14277294034E+03  0.14293434201E+03  0.00000000000E+00 0.  1.
         -3    1    1    2    0  502 -0.30575060729E+02  0.14923290311E+01 -0.28952690753E+03  0.29114067316E+03  0.00000000000E+00 0. -1.
<mgrwt>
<rscale>  1 0.30000000E+03</rscale>
<asrwt>0</asrwt>
<pdfrwt beam="1">  1       21 0.41494822E-02 0.30000000E+03</pdfrwt>
<pdfrwt beam="2">0</pdfrwt>
<totfact> 0.39525645E+04</totfact>
</mgrwt>
</event>
<event>
 6    1  0.1295671E-001  0.3000000E+03  0.7818608E-02  0.1093470E+00
         21   -1    0    0  501  502  0.00000000000E+00  0.00000000000E+00  0.26054766233E+01  0.26054766233E+01  0.00000000000E+00 0. -1.
         13   -1    0    0    0    0 -0.00000000000E+00 -0.00000000000E+00 -0.10000000000E+04  0.10000000000E+04  0.00000000000E+00 0.  1.
    9000005    2    1    2  501    0  0.15556560870E+02 -0.27613809040E+02 -0.89148545809E+03  0.89205567271E+03  0.35315985537E+01 0.  0.
         13    1    3    3    0    0  0.14108047946E+02 -0.25885361750E+02 -0.84729939854E+03  0.84781210167E+03  0.00000000000E+00 0.  1.
          3    1    3    3  501    0  0.14485129239E+01 -0.17284472903E+01 -0.44186059554E+02  0.44243571043E+02  0.00000000000E+00 0.  1.
         -3    1    1    2    0  502 -0.15556560870E+02  0.27613809040E+02 -0.10590906528E+03  0.11054980391E+03  0.00000000000E+00 0. -1.
<mgrwt>
<rscale>  1 0.30000000E+03</rscale>
<asrwt>0</asrwt>
<pdfrwt beam="1">  1       21 0.94744804E-02 0.30000000E+03</pdfrwt>
<pdfrwt beam="2">0</pdfrwt>
<totfact> 0.94729999E+03</totfact>
</mgrwt>
</event>
<event>
 6    1  0.1295671E-001  0.3000000E+03  0.7818608E-02  0.1093470E+00
         21   -1    0    0  501  502  0.00000000000E+00  0.00000000000E+00  0.35287869845E+01  0.35287869845E+01  0.00000000000E+00 0. -1.
         13   -1    0    0    0    0 -0.00000000000E+00 -0.00000000000E+00 -0.10000000000E+04  0.10000000000E+04  0.00000000000E+00 0.  1.
    9000005    2    1    2  501    0 -0.28206868531E+02 -0.12069368774E+02 -0.92784746452E+03  0.92835887311E+03  0.28253785225E+01 0.  0.
         13    1    3    3    0    0 -0.26244058789E+02 -0.10576442398E+02 -0.83791806134E+03  0.83839566392E+03  0.00000000000E+00 0.  1.
          3    1    3    3  501    0 -0.19628097411E+01 -0.14929263754E+01 -0.89929403175E+02  0.89963209184E+02  0.00000000000E+00 0.  1.
         -1    1    1    2    0  502  0.28206868531E+02  0.12069368774E+02 -0.68623748496E+02  0.75169913879E+02  0.00000000000E+00 0. -1.
<mgrwt>
<rscale>  1 0.30000000E+03</rscale>
<asrwt>0</asrwt>
<pdfrwt beam="1">  1       21 0.12831980E-01 0.30000000E+03</pdfrwt>
<pdfrwt beam="2">0</pdfrwt>
<totfact> 0.54852381E+03</totfact>
</mgrwt>
</event>
<event>
 6    1  0.1295671E-001  0.3000000E+03  0.7818608E-02  0.1093470E+00
         21   -1    0    0  501  502  0.00000000000E+00  0.00000000000E+00  0.92739801276E+00  0.92739801276E+00  0.00000000000E+00 0. -1.
         13   -1    0    0    0    0 -0.00000000000E+00 -0.00000000000E+00 -0.10000000000E+04  0.10000000000E+04  0.00000000000E+00 0.  1.
    9000005    2    1    2  501    0 -0.12973783450E+02  0.27295213048E+02 -0.54875884038E+03  0.54960065207E+03  0.33562100404E+01 0.  0.
         13    1    3    3    0    0 -0.10483124299E+02  0.24581970411E+02 -0.48135466689E+03  0.48209592873E+03  0.00000000000E+00 0.  1.
          1    1    3    3  501    0 -0.24906591508E+01  0.27132426372E+01 -0.67404173491E+02  0.67504723335E+02  0.00000000000E+00 0.  1.
         -1    1    1    2    0  502  0.12973783450E+02 -0.27295213048E+02 -0.45031376161E+03  0.45132674594E+03  0.00000000000E+00 0. -1.
<mgrwt>
<rscale>  1 0.30000000E+03</rscale>
<asrwt>0</asrwt>
<pdfrwt beam="1">  1       21 0.33723635E-02 0.30000000E+03</pdfrwt>
<pdfrwt beam="2">0</pdfrwt>
<totfact> 0.55989270E+04</totfact>
</mgrwt>
</event>
<event>
 6    1  0.1295671E-001  0.3000000E+03  0.7818608E-02  0.1093470E+00
         21   -1    0    0  501  502  0.00000000000E+00  0.00000000000E+00  0.23298796521E+01  0.23298796521E+01  0.00000000000E+00 0. -1.
         13   -1    0    0    0    0 -0.00000000000E+00 -0.00000000000E+00 -0.10000000000E+04  0.10000000000E+04  0.00000000000E+00 0.  1.
    9000005    2    1    2  501    0  0.30830796493E+02 -0.30182447406E+01 -0.88172403044E+03  0.88231678212E+03  0.92730979706E+01 0.  0.
         13    1    3    3    0    0  0.40889553539E+00  0.15107505411E+01 -0.37448344834E+02  0.37481036453E+02  0.00000000000E+00 0.  1.
          3    1    3    3  501    0  0.30421900958E+02 -0.45289952817E+01 -0.84427568560E+03  0.84483574567E+03  0.00000000000E+00 0.  1.
         -3    1    1    2    0  502 -0.30830796493E+02  0.30182447406E+01 -0.11594608991E+03  0.12001309753E+03  0.00000000000E+00 0. -1.
<mgrwt>
<rscale>  1 0.30000000E+03</rscale>
<asrwt>0</asrwt>
<pdfrwt beam="1">  1       21 0.84723075E-02 0.30000000E+03</pdfrwt>
<pdfrwt beam="2">0</pdfrwt>
<totfact> 0.11547511E+04</totfact>
</mgrwt>
</event>
<event>
 6    1  0.1295671E-001  0.3000000E+03  0.7818608E-02  0.1093470E+00
         21   -1    0    0  501  502  0.00000000000E+00  0.00000000000E+00  0.97377824629E+00  0.97377824629E+00  0.00000000000E+00 0. -1.
         13   -1    0    0    0    0 -0.00000000000E+00 -0.00000000000E+00 -0.10000000000E+04  0.10000000000E+04  0.00000000000E+00 0.  1.
    9000005    2    1    2  501    0  0.30686024380E+02 -0.19718465988E+01 -0.57351565823E+03  0.57435361939E+03  0.40434640567E+01 0.  0.
         13    1    3    3    0    0  0.28905979589E+02 -0.15579177730E+01 -0.51834037472E+03  0.51914807794E+03  0.00000000000E+00 0.  1.
          1    1    3    3  501    0  0.17800447904E+01 -0.41392882575E+00 -0.55175283503E+02  0.55205541445E+02  0.00000000000E+00 0.  1.
         -3    1    1    2    0  502 -0.30686024380E+02  0.19718465988E+01 -0.42551056353E+03  0.42662015886E+03  0.00000000000E+00 0. -1.
<mgrwt>
<rscale>  1 0.30000000E+03</rscale>
<asrwt>0</asrwt>
<pdfrwt beam="1">  1       21 0.35410193E-02 0.30000000E+03</pdfrwt>
<pdfrwt beam="2">0</pdfrwt>
<totfact> 0.51599753E+04</totfact>
</mgrwt>
</event>
<event>
 6    1  0.1295671E-001  0.3000000E+03  0.7818608E-02  0.1093470E+00
         21   -1    0    0  501  502  0.00000000000E+00  0.00000000000E+00  0.33961134497E+01  0.33961134497E+01  0.00000000000E+00 0. -1.
         13   -1    0    0    0    0 -0.00000000000E+00 -0.00000000000E+00 -0.10000000000E+04  0.10000000000E+04  0.00000000000E+00 0.  1.
    9000005    2    1    2  501    0  0.18701534010E+02 -0.26771796396E+02 -0.91372317293E+03  0.91431362838E+03  0.35913547831E+01 0.  0.
         13    1    3    3    0    0  0.12283974170E+02 -0.17408776818E+02 -0.54692850967E+03  0.54734336227E+03  0.00000000000E+00 0.  1.
          3    1    3    3  501    0  0.64175598400E+01 -0.93630195773E+01 -0.36679466326E+03  0.36697026611E+03  0.00000000000E+00 0.  1.
         -3    1    1    2    0  502 -0.18701534010E+02  0.26771796396E+02 -0.82880713620E+02  0.89082485073E+02  0.00000000000E+00 0. -1.
<mgrwt>
<rscale>  1 0.30000000E+03</rscale>
<asrwt>0</asrwt>
<pdfrwt beam="1">  1       21 0.12349529E-01 0.30000000E+03</pdfrwt>
<pdfrwt beam="2">0</pdfrwt>
<totfact> 0.58819721E+03</totfact>
</mgrwt>
</event>
<event>
 6    1  0.1295671E-001  0.3000000E+03  0.7818608E-02  0.1093470E+00
         21   -1    0    0  501  502  0.00000000000E+00  0.00000000000E+00  0.18581232330E+01  0.18581232330E+01  0.00000000000E+00 0. -1.
         13   -1    0    0    0    0 -0.00000000000E+00 -0.00000000000E+00 -0.10000000000E+04  0.10000000000E+04  0.00000000000E+00 0.  1.
    9000005    2    1    2  501    0 -0.37897364563E+02 -0.20949848857E-01 -0.73690664684E+03  0.73788832186E+03  0.33998098338E+01 0.  0.
         13    1    3    3    0    0 -0.20392561211E+02 -0.24214728443E+00 -0.36374306759E+03  0.36431433462E+03  0.00000000000E+00 0.  1.
          1    1    3    3  501    0 -0.17504803352E+02  0.22119743557E+00 -0.37316357925E+03  0.37357398724E+03  0.00000000000E+00 0.  1.
         -1    1    1    2    0  502  0.37897364563E+02  0.20949848857E-01 -0.26123522993E+03  0.26396980137E+03  0.00000000000E+00 0. -1.
<mgrwt>
<rscale>  1 0.30000000E+03</rscale>
<asrwt>0</asrwt>
<pdfrwt beam="1">  1       21 0.67568260E-02 0.30000000E+03</pdfrwt>
<pdfrwt beam="2">0</pdfrwt>
<totfact> 0.17157880E+04</totfact>
</mgrwt>
</event>
<event>
 6    1  0.1295671E-001  0.3000000E+03  0.7818608E-02  0.1093470E+00
         21   -1    0    0  501  502  0.00000000000E+00  0.00000000000E+00  0.83097325798E+01  0.83097325798E+01  0.00000000000E+00 0. -1.
         13   -1    0    0    0    0 -0.00000000000E+00 -0.00000000000E+00 -0.10000000000E+04  0.10000000000E+04  0.00000000000E+00 0.  1.
    9000005    2    1    2  501    0 -0.78138214334E+02 -0.67328562336E+01 -0.75269801809E+03  0.75677801066E+03  0.27819217375E+01 0.  0.
         13    1    3    3    0    0 -0.59122772111E+02 -0.59997354879E+01 -0.56250646572E+03  0.56563682959E+03  0.00000000000E+00 0.  1.
          1    1    3    3  501    0 -0.19015442222E+02 -0.73312074576E+00 -0.19019155237E+03  0.19114118108E+03  0.00000000000E+00 0.  1.
         -1    1    1    2    0  502  0.78138214334E+02  0.67328562336E+01 -0.23899224933E+03  0.25153172192E+03  0.00000000000E+00 0. -1.
<mgrwt>
<rscale>  1 0.30000000E+03</rscale>
<asrwt>0</asrwt>
<pdfrwt beam="1">  1       21 0.30217273E-01 0.30000000E+03</pdfrwt>
<pdfrwt beam="2">0</pdfrwt>
<totfact> 0.10716882E+03</totfact>
</mgrwt>
</event>
<event>
 6    1  0.1295671E-001  0.3000000E+03  0.7818608E-02  0.1093470E+00
         21   -1    0    0  501  502  0.00000000000E+00  0.00000000000E+00  0.22414662078E+01  0.22414662078E+01  0.00000000000E+00 0. -1.
         13   -1    0    0    0    0 -0.00000000000E+00 -0.00000000000E+00 -0.10000000000E+04  0.10000000000E+04  0.00000000000E+00 0.  1.
    9000005    2    1    2  501    0 -0.25139289014E+02  0.18716434363E+02 -0.87422102900E+03  0.87479028395E+03  0.36530246302E+01 0.  0.
         13    1    3    3    0    0 -0.19075004801E+02  0.13951452219E+02 -0.61282987478E+03  0.61328537749E+03  0.00000000000E+00 0.  1.
          1    1    3    3  501    0 -0.60642842129E+01  0.47649821439E+01 -0.26139115422E+03  0.26150490646E+03  0.00000000000E+00 0.  1.
         -1    1    1    2    0  502  0.25139289014E+02 -0.18716434363E+02 -0.12353750480E+03  0.12745118226E+03  0.00000000000E+00 0. -1.
<mgrwt>
<rscale>  1 0.30000000E+03</rscale>
<asrwt>0</asrwt>
<pdfrwt beam="1">  1       21 0.81508034E-02 0.30000000E+03</pdfrwt>
<pdfrwt beam="2">0</pdfrwt>
<totfact> 0.12361439E+04</totfact>
</mgrwt>
</event>
<event>
 6    1  0.1295671E-001  0.3000000E+03  0.7818608E-02  0.1093470E+00
         21   -1    0    0  501  502  0.00000000000E+00  0.00000000000E+00  0.30327801036E+01  0.30327801036E+01  0.00000000000E+00 0. -1.
         13   -1    0    0    0    0 -0.00000000000E+00 -0.00000000000E+00 -0.10000000000E+04  0.10000000000E+04  0.00000000000E+00 0.  1.
    9000005    2    1    2  501    0  0.25154701615E+02 -0.24212573379E+02 -0.88581915714E+03  0.88652999225E+03  0.63906401014E+01 0.  0.
         13    1    3    3    0    0  0.19501854155E+02 -0.19270383293E+02 -0.75279519783E+03  0.75329428503E+03  0.00000000000E+00 0.  1.
          1    1    3    3  501    0  0.56528474608E+01 -0.49421900859E+01 -0.13302395931E+03  0.13323570722E+03  0.00000000000E+00 0.  1.
         -3    1    1    2    0  502 -0.25154701615E+02  0.24212573379E+02 -0.11114806276E+03  0.11650278785E+03  0.00000000000E+00 0. -1.
<mgrwt>
<rscale>  1 0.30000000E+03</rscale>
<asrwt>0</asrwt>
<pdfrwt beam="1">  1       21 0.11028315E-01 0.30000000E+03</pdfrwt>
<pdfrwt beam="2">0</pdfrwt>
<totfact> 0.72185551E+03</totfact>
</mgrwt>
</event>
<event>
 6    1  0.1295671E-001  0.3000000E+03  0.7818608E-02  0.1093470E+00
         21   -1    0    0  501  502  0.00000000000E+00  0.00000000000E+00  0.26835394427E+01  0.26835394427E+01  0.00000000000E+00 0. -1.
         13   -1    0    0    0    0 -0.00000000000E+00 -0.00000000000E+00 -0.10000000000E+04  0.10000000000E+04  0.00000000000E+00 0.  1.
    9000005    2    1    2  501    0  0.41513354386E+02 -0.30309158141E+02 -0.55663226402E+03  0.55901185369E+03  0.35737319595E+01 0.  0.
         13    1    3    3    0    0  0.38658454242E+02 -0.29235885566E+02 -0.52163421975E+03  0.52388116239E+03  0.00000000000E+00 0.  1.
          1    1    3    3  501    0  0.28549001441E+01 -0.10732725747E+01 -0.34998044267E+02  0.35130691302E+02  0.00000000000E+00 0.  1.
         -3    1    1    2    0  502 -0.41513354386E+02  0.30309158141E+02 -0.44068419654E+03  0.44367168575E+03  0.00000000000E+00 0. -1.
<mgrwt>
<rscale>  1 0.30000000E+03</rscale>
<asrwt>0</asrwt>
<pdfrwt beam="1">  1       21 0.97583458E-02 0.30000000E+03</pdfrwt>
<pdfrwt beam="2">0</pdfrwt>
<totfact> 0.89873056E+03</totfact>
</mgrwt>
</event>
<event>
 6    1  0.1295671E-001  0.3000000E+03  0.7818608E-02  0.1093470E+00
         21   -1    0    0  501  502  0.00000000000E+00  0.00000000000E+00  0.11203743559E+01  0.11203743559E+01  0.00000000000E+00 0. -1.
         13   -1    0    0    0    0 -0.00000000000E+00 -0.00000000000E+00 -0.10000000000E+04  0.10000000000E+04  0.00000000000E+00 0.  1.
    9000005    2    1    2  501    0 -0.20898256489E+02 -0.25658976813E+02 -0.56525650488E+03  0.56623633110E+03  0.36805075423E+01 0.  0.
         13    1    3    3    0    0 -0.13378289412E+02 -0.18512434243E+02 -0.36977333736E+03  0.37047808285E+03  0.00000000000E+00 0.  1.
          3    1    3    3  501    0 -0.75199670770E+01 -0.71465425701E+01 -0.19548316751E+03  0.19575824825E+03  0.00000000000E+00 0.  1.
         -3    1    1    2    0  502  0.20898256489E+02  0.25658976813E+02 -0.43362312077E+03  0.43488404326E+03  0.00000000000E+00 0. -1.
<mgrwt>
<rscale>  1 0.30000000E+03</rscale>
<asrwt>0</asrwt>
<pdfrwt beam="1">  1       21 0.40740972E-02 0.30000000E+03</pdfrwt>
<pdfrwt beam="2">0</pdfrwt>
<totfact> 0.40766920E+04</totfact>
</mgrwt>
</event>
<event>
 6    1  0.1295671E-001  0.3000000E+03  0.7818608E-02  0.1093470E+00
         21   -1    0    0  501  502  0.00000000000E+00  0.00000000000E+00  0.26599867613E+01  0.26599867613E+01  0.00000000000E+00 0. -1.
         13   -1    0    0    0    0 -0.00000000000E+00 -0.00000000000E+00 -0.10000000000E+04  0.10000000000E+04  0.00000000000E+00 0.  1.
    9000005    2    1    2  501    0 -0.16755880706E+02 -0.29771301395E+02 -0.87407849983E+03  0.87475185327E+03  0.32389832566E+01 0.  0.
         13    1    3    3    0    0 -0.11918566102E+02 -0.18182138964E+02 -0.54051751097E+03  0.54095454713E+03  0.00000000000E+00 0.  1.
          1    1    3    3  501    0 -0.48373146044E+01 -0.11589162430E+02 -0.33356098886E+03  0.33379730614E+03  0.00000000000E+00 0.  1.
         -1    1    1    2    0  502  0.16755880706E+02  0.29771301395E+02 -0.12326151341E+03  0.12790813349E+03  0.00000000000E+00 0. -1.
<mgrwt>
<rscale>  1 0.30000000E+03</rscale>
<asrwt>0</asrwt>
<pdfrwt beam="1">  1       21 0.96726995E-02 0.30000000E+03</pdfrwt>
<pdfrwt beam="2">0</pdfrwt>
<totfact> 0.91297597E+03</totfact>
</mgrwt>
</event>
<event>
 6    1  0.1295671E-001  0.3000000E+03  0.7818608E-02  0.1093470E+00
         21   -1    0    0  501  502  0.00000000000E+00  0.00000000000E+00  0.35044925007E+01  0.35044925007E+01  0.00000000000E+00 0. -1.
         13   -1    0    0    0    0 -0.00000000000E+00 -0.00000000000E+00 -0.10000000000E+04  0.10000000000E+04  0.00000000000E+00 0.  1.
    9000005    2    1    2  501    0 -0.29887445121E+02  0.19361970802E+02 -0.89876314538E+03  0.89948641766E+03  0.56990142109E+01 0.  0.
         13    1    3    3    0    0 -0.19101418175E+02  0.15526191417E+02 -0.61626151300E+03  0.61675293205E+03  0.00000000000E+00 0.  1.
          1    1    3    3  501    0 -0.10786026946E+02  0.38357793847E+01 -0.28250163239E+03  0.28273348560E+03  0.00000000000E+00 0.  1.
         -1    1    1    2    0  502  0.29887445121E+02 -0.19361970802E+02 -0.97732362118E+02  0.10401807484E+03  0.00000000000E+00 0. -1.
<mgrwt>
<rscale>  1 0.30000000E+03</rscale>
<asrwt>0</asrwt>
<pdfrwt beam="1">  1       21 0.12743636E-01 0.30000000E+03</pdfrwt>
<pdfrwt beam="2">0</pdfrwt>
<totfact> 0.55547973E+03</totfact>
</mgrwt>
</event>
<event>
 6    1  0.1295671E-001  0.3000000E+03  0.7818608E-02  0.1093470E+00
         21   -1    0    0  501  502  0.00000000000E+00  0.00000000000E+00  0.20756946302E+01  0.20756946302E+01  0.00000000000E+00 0. -1.
         13   -1    0    0    0    0 -0.00000000000E+00 -0.00000000000E+00 -0.10000000000E+04  0.10000000000E+04  0.00000000000E+00 0.  1.
    9000005    2    1    2  501    0  0.36834407641E+02  0.72077940389E+01 -0.78255956428E+03  0.78346485870E+03  0.29978811202E+01 0.  0.
         13    1    3    3    0    0  0.27997842560E+02  0.56839174278E+01 -0.62064698934E+03  0.62130416986E+03  0.00000000000E+00 0.  1.
          3    1    3    3  501    0  0.88365650814E+01  0.15238766111E+01 -0.16191257494E+03  0.16216068885E+03  0.00000000000E+00 0.  1.
         -1    1    1    2    0  502 -0.36834407641E+02 -0.72077940389E+01 -0.21536474109E+03  0.21861083593E+03  0.00000000000E+00 0. -1.
<mgrwt>
<rscale>  1 0.30000000E+03</rscale>
<asrwt>0</asrwt>
<pdfrwt beam="1">  1       21 0.75479964E-02 0.30000000E+03</pdfrwt>
<pdfrwt beam="2">0</pdfrwt>
<totfact> 0.14145563E+04</totfact>
</mgrwt>
</event>
<event>
 6    1  0.1295671E-001  0.3000000E+03  0.7818608E-02  0.1093470E+00
         21   -1    0    0  501  502  0.00000000000E+00  0.00000000000E+00  0.11658760596E+01  0.11658760596E+01  0.00000000000E+00 0. -1.
         13   -1    0    0    0    0 -0.00000000000E+00 -0.00000000000E+00 -0.10000000000E+04  0.10000000000E+04  0.00000000000E+00 0.  1.
    9000005    2    1    2  501    0 -0.14729845607E+02  0.27891322716E+02 -0.31666341640E+03  0.31826634577E+03  0.47805160250E+01 0.  0.
         13    1    3    3    0    0 -0.24284328597E+00  0.17105520138E+01 -0.28868181116E+02  0.28919834751E+02  0.00000000000E+00 0.  1.
          1    1    3    3  501    0 -0.14487002321E+02  0.26180770702E+02 -0.28779523528E+03  0.28934651102E+03  0.00000000000E+00 0.  1.
         -1    1    1    2    0  502  0.14729845607E+02 -0.27891322716E+02 -0.68217070754E+03  0.68289953029E+03  0.00000000000E+00 0. -1.
<mgrwt>
<rscale>  1 0.30000000E+03</rscale>
<asrwt>0</asrwt>
<pdfrwt beam="1">  1       21 0.42395582E-02 0.30000000E+03</pdfrwt>
<pdfrwt beam="2">0</pdfrwt>
<totfact> 0.38118060E+04</totfact>
</mgrwt>
</event>
<event>
 6    1  0.1295671E-001  0.3000000E+03  0.7818608E-02  0.1093470E+00
         21   -1    0    0  501  502  0.00000000000E+00  0.00000000000E+00  0.25810974352E+01  0.25810974352E+01  0.00000000000E+00 0. -1.
         13   -1    0    0    0    0 -0.00000000000E+00 -0.00000000000E+00 -0.10000000000E+04  0.10000000000E+04  0.00000000000E+00 0.  1.
    9000005    2    1    2  501    0 -0.28019982761E+01 -0.42220950417E+02 -0.77563991797E+03  0.77680160799E+03  0.36049925311E+01 0.  0.
         13    1    3    3    0    0 -0.19296068717E+01 -0.38234848973E+02 -0.71544830321E+03  0.71647184287E+03  0.00000000000E+00 0.  1.
          1    1    3    3  501    0 -0.87239140437E+00 -0.39861014443E+01 -0.60191614764E+02  0.60329765120E+02  0.00000000000E+00 0.  1.
         -1    1    1    2    0  502  0.28019982761E+01  0.42220950417E+02 -0.22177898459E+03  0.22577948945E+03  0.00000000000E+00 0. -1.
<mgrwt>
<rscale>  1 0.30000000E+03</rscale>
<asrwt>0</asrwt>
<pdfrwt beam="1">  1       21 0.93858286E-02 0.30000000E+03</pdfrwt>
<pdfrwt beam="2">0</pdfrwt>
<totfact> 0.96328447E+03</totfact>
</mgrwt>
</event>
<event>
 6    1  0.1295671E-001  0.3000000E+03  0.7818608E-02  0.1093470E+00
         21   -1    0    0  501  502  0.00000000000E+00  0.00000000000E+00  0.66742228176E+01  0.66742228176E+01  0.00000000000E+00 0. -1.
         13   -1    0    0    0    0 -0.00000000000E+00 -0.00000000000E+00 -0.10000000000E+04  0.10000000000E+04  0.00000000000E+00 0.  1.
    9000005    2    1    2  501    0 -0.80317319831E+02 -0.99221718252E+01 -0.55395691499E+03  0.55991442335E+03  0.93046465978E+01 0.  0.
         13    1    3    3    0    0 -0.20946939368E+02 -0.66284578465E+01 -0.14295553594E+03  0.14463400699E+03  0.00000000000E+00 0.  1.
          1    1    3    3  501    0 -0.59370380463E+02 -0.32937139787E+01 -0.41100137905E+03  0.41528041636E+03  0.00000000000E+00 0.  1.
         -3    1    1    2    0  502  0.80317319831E+02  0.99221718252E+01 -0.43936886219E+03  0.44675979947E+03  0.00000000000E+00 0. -1.
<mgrwt>
<rscale>  1 0.30000000E+03</rscale>
<asrwt>0</asrwt>
<pdfrwt beam="1">  1       21 0.24269952E-01 0.30000000E+03</pdfrwt>
<pdfrwt beam="2">0</pdfrwt>
<totfact> 0.16525243E+03</totfact>
</mgrwt>
</event>
<event>
 6    1  0.1295671E-001  0.3000000E+03  0.7818608E-02  0.1093470E+00
         21   -1    0    0  501  502  0.00000000000E+00  0.00000000000E+00  0.24111580287E+01  0.24111580287E+01  0.00000000000E+00 0. -1.
         13   -1    0    0    0    0 -0.00000000000E+00 -0.00000000000E+00 -0.10000000000E+04  0.10000000000E+04  0.00000000000E+00 0.  1.
    9000005    2    1    2  501    0 -0.38508890658E+02  0.76447418959E+01 -0.79943040588E+03  0.80040090449E+03  0.33551950095E+01 0.  0.
         13    1    3    3    0    0 -0.28184404772E+02  0.48291951317E+01 -0.60697697798E+03  0.60765017370E+03  0.00000000000E+00 0.  1.
          3    1    3    3  501    0 -0.10324485886E+02  0.28155467642E+01 -0.19245342789E+03  0.19275073079E+03  0.00000000000E+00 0.  1.
         -1    1    1    2    0  502  0.38508890658E+02 -0.76447418959E+01 -0.19815843609E+03  0.20201025353E+03  0.00000000000E+00 0. -1.
<mgrwt>
<rscale>  1 0.30000000E+03</rscale>
<asrwt>0</asrwt>
<pdfrwt beam="1">  1       21 0.87678659E-02 0.30000000E+03</pdfrwt>
<pdfrwt beam="2">0</pdfrwt>
<totfact> 0.10869263E+04</totfact>
</mgrwt>
</event>
<event>
 6    1  0.1295671E-001  0.3000000E+03  0.7818608E-02  0.1093470E+00
         21   -1    0    0  501  502  0.00000000000E+00  0.00000000000E+00  0.59065466647E+01  0.59065466647E+01  0.00000000000E+00 0. -1.
         13   -1    0    0    0    0 -0.00000000000E+00 -0.00000000000E+00 -0.10000000000E+04  0.10000000000E+04  0.00000000000E+00 0.  1.
    9000005    2    1    2  501    0 -0.31924128154E+02  0.48924702901E+02 -0.82372043563E+03  0.82579618695E+03  0.33481046559E+01 0.  0.
         13    1    3    3    0    0 -0.28857738318E+02  0.43795400536E+02 -0.75241581984E+03  0.75424158736E+03  0.00000000000E+00 0.  1.
          3    1    3    3  501    0 -0.30663898359E+01  0.51293023647E+01 -0.71304615788E+02  0.71554599587E+02  0.00000000000E+00 0.  1.
         -1    1    1    2    0  502  0.31924128154E+02 -0.48924702901E+02 -0.17037301771E+03  0.18011035971E+03  0.00000000000E+00 0. -1.
<mgrwt>
<rscale>  1 0.30000000E+03</rscale>
<asrwt>0</asrwt>
<pdfrwt beam="1">  1       21 0.21478397E-01 0.30000000E+03</pdfrwt>
<pdfrwt beam="2">0</pdfrwt>
<totfact> 0.20929767E+03</totfact>
</mgrwt>
</event>
<event>
 6    1  0.1295671E-001  0.3000000E+03  0.7818608E-02  0.1093470E+00
         21   -1    0    0  501  502  0.00000000000E+00  0.00000000000E+00  0.16056854049E+01  0.16056854049E+01  0.00000000000E+00 0. -1.
         13   -1    0    0    0    0 -0.00000000000E+00 -0.00000000000E+00 -0.10000000000E+04  0.10000000000E+04  0.00000000000E+00 0.  1.
    9000005    2    1    2  501    0  0.31100413443E+02 -0.22441924717E+02 -0.64025352895E+03  0.64141726521E+03  0.45443451462E+01 0.  0.
         13    1    3    3    0    0  0.17297705467E+02 -0.10130167783E+02 -0.31249013303E+03  0.31313242272E+03  0.00000000000E+00 0.  1.
          1    1    3    3  501    0  0.13802707976E+02 -0.12311756934E+02 -0.32776339592E+03  0.32828484249E+03  0.00000000000E+00 0.  1.
         -1    1    1    2    0  502 -0.31100413443E+02  0.22441924717E+02 -0.35814078565E+03  0.36018842020E+03  0.00000000000E+00 0. -1.
<mgrwt>
<rscale>  1 0.30000000E+03</rscale>
<asrwt>0</asrwt>
<pdfrwt beam="1">  1       21 0.58388683E-02 0.30000000E+03</pdfrwt>
<pdfrwt beam="2">0</pdfrwt>
<totfact> 0.22084018E+04</totfact>
</mgrwt>
</event>
<event>
 6    1  0.1295671E-001  0.3000000E+03  0.7818608E-02  0.1093470E+00
         21   -1    0    0  501  502  0.00000000000E+00  0.00000000000E+00  0.12831566043E+01  0.12831566043E+01  0.00000000000E+00 0. -1.
         13   -1    0    0    0    0 -0.00000000000E+00 -0.00000000000E+00 -0.10000000000E+04  0.10000000000E+04  0.00000000000E+00 0.  1.
    9000005    2    1    2  501    0  0.35671945117E+02 -0.15938457339E+01 -0.48104419721E+03  0.48238047149E+03  0.35173271455E+01 0.  0.
         13    1    3    3    0    0  0.34589066936E+02 -0.91750619454E+00 -0.46492590038E+03  0.46621168820E+03  0.00000000000E+00 0.  1.
          3    1    3    3  501    0  0.10828781815E+01 -0.67633953940E+00 -0.16118296837E+02  0.16168783295E+02  0.00000000000E+00 0.  1.
         -1    1    1    2    0  502 -0.35671945117E+02  0.15938457339E+01 -0.51767264618E+03  0.51890268511E+03  0.00000000000E+00 0. -1.
<mgrwt>
<rscale>  1 0.30000000E+03</rscale>
<asrwt>0</asrwt>
<pdfrwt beam="1">  1       21 0.46660339E-02 0.30000000E+03</pdfrwt>
<pdfrwt beam="2">0</pdfrwt>
<totfact> 0.32401398E+04</totfact>
</mgrwt>
</event>
<event>
 6    1  0.1295671E-001  0.3000000E+03  0.7818608E-02  0.1093470E+00
         21   -1    0    0  501  502  0.00000000000E+00  0.00000000000E+00  0.24435683492E+01  0.24435683492E+01  0.00000000000E+00 0. -1.
         13   -1    0    0    0    0 -0.00000000000E+00 -0.00000000000E+00 -0.10000000000E+04  0.10000000000E+04  0.00000000000E+00 0.  1.
    9000005    2    1    2  501    0 -0.11858940714E+02  0.35902182482E+02 -0.82131345495E+03  0.82219044627E+03  0.34260004481E+01 0.  0.
         13    1    3    3    0    0 -0.47145805437E+01  0.13116764877E+02 -0.26861559100E+03  0.26897697396E+03  0.00000000000E+00 0.  1.
          1    1    3    3  501    0 -0.71443601705E+01  0.22785417605E+02 -0.55269786395E+03  0.55321347232E+03  0.00000000000E+00 0.  1.
         -1    1    1    2    0  502  0.11858940714E+02 -0.35902182482E+02 -0.17624297670E+03  0.18025312208E+03  0.00000000000E+00 0. -1.
<mgrwt>
<rscale>  1 0.30000000E+03</rscale>
<asrwt>0</asrwt>
<pdfrwt beam="1">  1       21 0.88857218E-02 0.30000000E+03</pdfrwt>
<pdfrwt beam="2">0</pdfrwt>
<totfact> 0.10615589E+04</totfact>
</mgrwt>
</event>
<event>
 6    1  0.1295671E-001  0.3000000E+03  0.7818608E-02  0.1093470E+00
         21   -1    0    0  501  502  0.00000000000E+00  0.00000000000E+00  0.23026754039E+01  0.23026754039E+01  0.00000000000E+00 0. -1.
         13   -1    0    0    0    0 -0.00000000000E+00 -0.00000000000E+00 -0.10000000000E+04  0.10000000000E+04  0.00000000000E+00 0.  1.
    9000005    2    1    2  501    0  0.18551827791E+02 -0.39823914755E+02 -0.69970248485E+03  0.70108674120E+03  0.29894624162E+01 0.  0.
         13    1    3    3    0    0  0.99638647768E+00 -0.42444791615E+01 -0.69273897356E+02  0.69410959108E+02  0.00000000000E+00 0.  1.
          3    1    3    3  501    0  0.17555441313E+02 -0.35579435594E+02 -0.63042858749E+03  0.63167578209E+03  0.00000000000E+00 0.  1.
         -3    1    1    2    0  502 -0.18551827791E+02  0.39823914755E+02 -0.29799483975E+03  0.30121593420E+03  0.00000000000E+00 0. -1.
<mgrwt>
<rscale>  1 0.30000000E+03</rscale>
<asrwt>0</asrwt>
<pdfrwt beam="1">  1       21 0.83733828E-02 0.30000000E+03</pdfrwt>
<pdfrwt beam="2">0</pdfrwt>
<totfact> 0.11789002E+04</totfact>
</mgrwt>
</event>
<event>
 6    1  0.1295671E-001  0.3000000E+03  0.7818608E-02  0.1093470E+00
         21   -1    0    0  501  502  0.00000000000E+00  0.00000000000E+00  0.20291323136E+01  0.20291323136E+01  0.00000000000E+00 0. -1.
         13   -1    0    0    0    0 -0.00000000000E+00 -0.00000000000E+00 -0.10000000000E+04  0.10000000000E+04  0.00000000000E+00 0.  1.
    9000005    2    1    2  501    0  0.31418584557E+02 -0.17575693243E+02 -0.20001824726E+03  0.20326482609E+03  0.36411317765E+01 0.  0.
         13    1    3    3    0    0  0.23414323796E+02 -0.13075427049E+02 -0.15743319295E+03  0.15970099434E+03  0.00000000000E+00 0.  1.
          1    1    3    3  501    0  0.80042607614E+01 -0.45002661939E+01 -0.42585054306E+02  0.43563831746E+02  0.00000000000E+00 0.  1.
         -3    1    1    2    0  502 -0.31418584557E+02  0.17575693243E+02 -0.79795262043E+03  0.79876430623E+03  0.00000000000E+00 0. -1.
<mgrwt>
<rscale>  1 0.30000000E+03</rscale>
<asrwt>0</asrwt>
<pdfrwt beam="1">  1       21 0.73786785E-02 0.30000000E+03</pdfrwt>
<pdfrwt beam="2">0</pdfrwt>
<totfact> 0.14718573E+04</totfact>
</mgrwt>
</event>
<event>
 6    1  0.1295671E-001  0.3000000E+03  0.7818608E-02  0.1093470E+00
         21   -1    0    0  501  502  0.00000000000E+00  0.00000000000E+00  0.21010904047E+01  0.21010904047E+01  0.00000000000E+00 0. -1.
         13   -1    0    0    0    0 -0.00000000000E+00 -0.00000000000E+00 -0.10000000000E+04  0.10000000000E+04  0.00000000000E+00 0.  1.
    9000005    2    1    2  501    0  0.30569513219E+02  0.66288738401E+01 -0.86486185784E+03  0.86543619276E+03  0.39158008762E+01 0.  0.
         13    1    3    3    0    0  0.69481868090E+01  0.17564462418E+01 -0.15683949522E+03  0.15700315176E+03  0.00000000000E+00 0.  1.
          1    1    3    3  501    0  0.23621326410E+02  0.48724275983E+01 -0.70802236262E+03  0.70843304100E+03  0.00000000000E+00 0.  1.
         -1    1    1    2    0  502 -0.30569513219E+02 -0.66288738401E+01 -0.13303705176E+03  0.13666489764E+03  0.00000000000E+00 0. -1.
<mgrwt>
<rscale>  1 0.30000000E+03</rscale>
<asrwt>0</asrwt>
<pdfrwt beam="1">  1       21 0.76403449E-02 0.30000000E+03</pdfrwt>
<pdfrwt beam="2">0</pdfrwt>
<totfact> 0.13847405E+04</totfact>
</mgrwt>
</event>
<event>
 6    1  0.1295671E-001  0.3000000E+03  0.7818608E-02  0.1093470E+00
         21   -1    0    0  501  502  0.00000000000E+00  0.00000000000E+00  0.27550090967E+01  0.27550090967E+01  0.00000000000E+00 0. -1.
         13   -1    0    0    0    0 -0.00000000000E+00 -0.00000000000E+00 -0.10000000000E+04  0.10000000000E+04  0.00000000000E+00 0.  1.
    9000005    2    1    2  501    0  0.14728045180E+02  0.27190362805E+02 -0.90362994985E+03  0.90416491297E+03  0.32973356558E+01 0.  0.
         13    1    3    3    0    0  0.10629284234E+02  0.17411807931E+02 -0.56009000323E+03  0.56046138534E+03  0.00000000000E+00 0.  1.
          1    1    3    3  501    0  0.40987609459E+01  0.97785548739E+01 -0.34353994662E+03  0.34370352762E+03  0.00000000000E+00 0.  1.
         -1    1    1    2    0  502 -0.14728045180E+02 -0.27190362805E+02 -0.93615041050E+02  0.98590096131E+02  0.00000000000E+00 0. -1.
<mgrwt>
<rscale>  1 0.30000000E+03</rscale>
<asrwt>0</asrwt>
<pdfrwt beam="1">  1       21 0.10018236E-01 0.30000000E+03</pdfrwt>
<pdfrwt beam="2">0</pdfrwt>
<totfact> 0.85752339E+03</totfact>
</mgrwt>
</event>
<event>
 6    1  0.1295671E-001  0.3000000E+03  0.7818608E-02  0.1093470E+00
         21   -1    0    0  501  502  0.00000000000E+00  0.00000000000E+00  0.12964756973E+01  0.12964756973E+01  0.00000000000E+00 0. -1.
         13   -1    0    0    0    0 -0.00000000000E+00 -0.00000000000E+00 -0.10000000000E+04  0.10000000000E+04  0.00000000000E+00 0.  1.
    9000005    2    1    2  501    0  0.32040347292E+02 -0.69985761555E+00 -0.72636561550E+03  0.72707938975E+03  0.32183786349E+01 0.  0.
         13    1    3    3    0    0  0.10002108546E+02 -0.59917578516E+00 -0.19571358375E+03  0.19596991619E+03  0.00000000000E+00 0.  1.
          3    1    3    3  501    0  0.22038238746E+02 -0.10068183039E+00 -0.53065203175E+03  0.53110947356E+03  0.00000000000E+00 0.  1.
         -3    1    1    2    0  502 -0.32040347292E+02  0.69985761555E+00 -0.27233790880E+03  0.27421708595E+03  0.00000000000E+00 0. -1.
<mgrwt>
<rscale>  1 0.30000000E+03</rscale>
<asrwt>0</asrwt>
<pdfrwt beam="1">  1       21 0.47144670E-02 0.30000000E+03</pdfrwt>
<pdfrwt beam="2">0</pdfrwt>
<totfact> 0.31837524E+04</totfact>
</mgrwt>
</event>
<event>
 6    1  0.1295671E-001  0.3000000E+03  0.7818608E-02  0.1093470E+00
         21   -1    0    0  501  502  0.00000000000E+00  0.00000000000E+00  0.13617244379E+01  0.13617244379E+01  0.00000000000E+00 0. -1.
         13   -1    0    0    0    0 -0.00000000000E+00 -0.00000000000E+00 -0.10000000000E+04  0.10000000000E+04  0.00000000000E+00 0.  1.
    9000005    2    1    2  501    0 -0.29613433705E+02  0.19279203060E+02 -0.64080692674E+03  0.64178987164E+03  0.34754643160E+01 0.  0.
         13    1    3    3    0    0 -0.22448224551E+02  0.13097286697E+02 -0.48490435147E+03  0.48560034161E+03  0.00000000000E+00 0.  1.
          3    1    3    3  501    0 -0.71652091537E+01  0.61819163626E+01 -0.15590257527E+03  0.15618953002E+03  0.00000000000E+00 0.  1.
         -3    1    1    2    0  502  0.29613433705E+02 -0.19279203060E+02 -0.35783134882E+03  0.35957185280E+03  0.00000000000E+00 0. -1.
<mgrwt>
<rscale>  1 0.30000000E+03</rscale>
<asrwt>0</asrwt>
<pdfrwt beam="1">  1       21 0.49517357E-02 0.30000000E+03</pdfrwt>
<pdfrwt beam="2">0</pdfrwt>
<totfact> 0.29284798E+04</totfact>
</mgrwt>
</event>
<event>
 6    1  0.1295671E-001  0.3000000E+03  0.7818608E-02  0.1093470E+00
         21   -1    0    0  501  502  0.00000000000E+00  0.00000000000E+00  0.14136201536E+01  0.14136201536E+01  0.00000000000E+00 0. -1.
         13   -1    0    0    0    0 -0.00000000000E+00 -0.00000000000E+00 -0.10000000000E+04  0.10000000000E+04  0.00000000000E+00 0.  1.
    9000005    2    1    2  501    0  0.32459413241E+02 -0.10167145249E+01 -0.75046372924E+03  0.75117474036E+03  0.36103232436E+01 0.  0.
         13    1    3    3    0    0  0.18007589788E+02 -0.17721285791E+01 -0.44719901280E+03  0.44756493471E+03  0.00000000000E+00 0.  1.
          3    1    3    3  501    0  0.14451823453E+02  0.75541405415E+00 -0.30326471645E+03  0.30360980566E+03  0.00000000000E+00 0.  1.
         -1    1    1    2    0  502 -0.32459413241E+02  0.10167145249E+01 -0.24812265060E+03  0.25023887979E+03  0.00000000000E+00 0. -1.
<mgrwt>
<rscale>  1 0.30000000E+03</rscale>
<asrwt>0</asrwt>
<pdfrwt beam="1">  1       21 0.51404478E-02 0.30000000E+03</pdfrwt>
<pdfrwt beam="2">0</pdfrwt>
<totfact> 0.27475058E+04</totfact>
</mgrwt>
</event>
<event>
 6    1  0.1295671E-001  0.3000000E+03  0.7818608E-02  0.1093470E+00
         21   -1    0    0  501  502  0.00000000000E+00  0.00000000000E+00  0.13904612954E+01  0.13904612954E+01  0.00000000000E+00 0. -1.
         13   -1    0    0    0    0 -0.00000000000E+00 -0.00000000000E+00 -0.10000000000E+04  0.10000000000E+04  0.00000000000E+00 0.  1.
    9000005    2    1    2  501    0  0.32142117523E+02 -0.16104641976E+02 -0.62955840203E+03  0.63059238054E+03  0.32393849418E+01 0.  0.
         13    1    3    3    0    0  0.27335481827E+02 -0.14321119166E+02 -0.52124326671E+03  0.52215597872E+03  0.00000000000E+00 0.  1.
          3    1    3    3  501    0  0.48066356957E+01 -0.17835228098E+01 -0.10831513532E+03  0.10843640182E+03  0.00000000000E+00 0.  1.
         -3    1    1    2    0  502 -0.32142117523E+02  0.16104641976E+02 -0.36905113668E+03  0.37079808076E+03  0.00000000000E+00 0. -1.
<mgrwt>
<rscale>  1 0.30000000E+03</rscale>
<asrwt>0</asrwt>
<pdfrwt beam="1">  1       21 0.50562336E-02 0.30000000E+03</pdfrwt>
<pdfrwt beam="2">0</pdfrwt>
<totfact> 0.28260530E+04</totfact>
</mgrwt>
</event>
<event>
 6    1  0.1295671E-001  0.3000000E+03  0.7818608E-02  0.1093470E+00
         21   -1    0    0  501  502  0.00000000000E+00  0.00000000000E+00  0.10381136836E+01  0.10381136836E+01  0.00000000000E+00 0. -1.
         13   -1    0    0    0    0 -0.00000000000E+00 -0.00000000000E+00 -0.10000000000E+04  0.10000000000E+04  0.00000000000E+00 0.  1.
    9000005    2    1    2  501    0  0.26490382289E+02 -0.15134313961E+02 -0.65699670926E+03  0.65771469454E+03  0.36270681408E+01 0.  0.
         13    1    3    3    0    0  0.39939937651E+01 -0.30743075587E+01 -0.85747915884E+02  0.85895916269E+02  0.00000000000E+00 0.  1.
          1    1    3    3  501    0  0.22496388523E+02 -0.12060006402E+02 -0.57124879337E+03  0.57181877827E+03  0.00000000000E+00 0.  1.
         -1    1    1    2    0  502 -0.26490382289E+02  0.15134313961E+02 -0.34196517706E+03  0.34332341914E+03  0.00000000000E+00 0. -1.
<mgrwt>
<rscale>  1 0.30000000E+03</rscale>
<asrwt>0</asrwt>
<pdfrwt beam="1">  1       21 0.37749668E-02 0.30000000E+03</pdfrwt>
<pdfrwt beam="2">0</pdfrwt>
<totfact> 0.46347853E+04</totfact>
</mgrwt>
</event>
<event>
 6    1  0.1295671E-001  0.3000000E+03  0.7818608E-02  0.1093470E+00
         21   -1    0    0  501  502  0.00000000000E+00  0.00000000000E+00  0.30818409304E+01  0.30818409304E+01  0.00000000000E+00 0. -1.
         13   -1    0    0    0    0 -0.00000000000E+00 -0.00000000000E+00 -0.10000000000E+04  0.10000000000E+04  0.00000000000E+00 0.  1.
    9000005    2    1    2  501    0  0.38842658375E+02  0.39495210042E+02 -0.52379488345E+03  0.52672666077E+03  0.33573082881E+01 0.  0.
         13    1    3    3    0    0  0.23165985984E+02  0.23274988227E+02 -0.29478244967E+03  0.29660593490E+03  0.00000000000E+00 0.  1.
          3    1    3    3  501    0  0.15676672391E+02  0.16220221816E+02 -0.22901243378E+03  0.23012072588E+03  0.00000000000E+00 0.  1.
         -3    1    1    2    0  502 -0.38842658375E+02 -0.39495210042E+02 -0.47312327562E+03  0.47635518016E+03  0.00000000000E+00 0. -1.
<mgrwt>
<rscale>  1 0.30000000E+03</rscale>
<asrwt>0</asrwt>
<pdfrwt beam="1">  1       21 0.11206718E-01 0.30000000E+03</pdfrwt>
<pdfrwt beam="2">0</pdfrwt>
<totfact> 0.70129372E+03</totfact>
</mgrwt>
</event>
<event>
 6    1  0.1295671E-001  0.3000000E+03  0.7818608E-02  0.1093470E+00
         21   -1    0    0  501  502  0.00000000000E+00  0.00000000000E+00  0.82401201614E+01  0.82401201614E+01  0.00000000000E+00 0. -1.
         13   -1    0    0    0    0 -0.00000000000E+00 -0.00000000000E+00 -0.10000000000E+04  0.10000000000E+04  0.00000000000E+00 0.  1.
    9000005    2    1    2  501    0  0.26699286005E+02  0.59316257861E+02 -0.84742598542E+03  0.84992542281E+03  0.33396484531E+01 0.  0.
         13    1    3    3    0    0  0.51494263038E+01  0.85635386163E+01 -0.13299484440E+03  0.13336970954E+03  0.00000000000E+00 0.  1.
          3    1    3    3  501    0  0.21549859701E+02  0.50752719245E+02 -0.71443114102E+03  0.71655571327E+03  0.00000000000E+00 0.  1.
         -3    1    1    2    0  502 -0.26699286005E+02 -0.59316257861E+02 -0.14433389442E+03  0.15831469735E+03  0.00000000000E+00 0. -1.
<mgrwt>
<rscale>  1 0.30000000E+03</rscale>
<asrwt>0</asrwt>
<pdfrwt beam="1">  1       21 0.29964137E-01 0.30000000E+03</pdfrwt>
<pdfrwt beam="2">0</pdfrwt>
<totfact> 0.10898841E+03</totfact>
</mgrwt>
</event>
<event>
 6    1  0.1295671E-001  0.3000000E+03  0.7818608E-02  0.1093470E+00
         21   -1    0    0  501  502  0.00000000000E+00  0.00000000000E+00  0.24819097056E+01  0.24819097056E+01  0.00000000000E+00 0. -1.
         13   -1    0    0    0    0 -0.00000000000E+00 -0.00000000000E+00 -0.10000000000E+04  0.10000000000E+04  0.00000000000E+00 0.  1.
    9000005    2    1    2  501    0 -0.33017710658E+02 -0.28563129470E+01 -0.87269051326E+03  0.87332986083E+03  0.42410069961E+01 0.  0.
         13    1    3    3    0    0 -0.25720369717E+02 -0.46172123996E+00 -0.67925010147E+03  0.67973704545E+03  0.00000000000E+00 0.  1.
          3    1    3    3  501    0 -0.72973409415E+01 -0.23945917071E+01 -0.19344041179E+03  0.19359281538E+03  0.00000000000E+00 0.  1.
         -3    1    1    2    0  502  0.33017710658E+02  0.28563129470E+01 -0.12482757703E+03  0.12915204887E+03  0.00000000000E+00 0. -1.
<mgrwt>
<rscale>  1 0.30000000E+03</rscale>
<asrwt>0</asrwt>
<pdfrwt beam="1">  1       21 0.90251452E-02 0.30000000E+03</pdfrwt>
<pdfrwt beam="2">0</pdfrwt>
<totfact> 0.10326911E+04</totfact>
</mgrwt>
</event>
<event>
 6    1  0.1295671E-001  0.3000000E+03  0.7818608E-02  0.1093470E+00
         21   -1    0    0  501  502  0.00000000000E+00  0.00000000000E+00  0.11427316080E+01  0.11427316080E+01  0.00000000000E+00 0. -1.
         13   -1    0    0    0    0 -0.00000000000E+00 -0.00000000000E+00 -0.10000000000E+04  0.10000000000E+04  0.00000000000E+00 0.  1.
    9000005    2    1    2  501    0 -0.31857847811E+02  0.87952851231E+01 -0.60186424040E+03  0.60277638792E+03  0.25554757832E+01 0.  0.
         13    1    3    3    0    0 -0.16203752456E+02  0.35182391919E+01 -0.31759927949E+03  0.31803182535E+03  0.00000000000E+00 0.  1.
          3    1    3    3  501    0 -0.15654095355E+02  0.52770459312E+01 -0.28426496091E+03  0.28474456258E+03  0.00000000000E+00 0.  1.
         -3    1    1    2    0  502  0.31857847811E+02 -0.87952851231E+01 -0.39699302799E+03  0.39836634368E+03  0.00000000000E+00 0. -1.
<mgrwt>
<rscale>  1 0.30000000E+03</rscale>
<asrwt>0</asrwt>
<pdfrwt beam="1">  1       21 0.41553964E-02 0.30000000E+03</pdfrwt>
<pdfrwt beam="2">0</pdfrwt>
<totfact> 0.39430761E+04</totfact>
</mgrwt>
</event>
<event>
 6    1  0.1295671E-001  0.3000000E+03  0.7818608E-02  0.1093470E+00
         21   -1    0    0  501  502  0.00000000000E+00  0.00000000000E+00  0.10844771691E+01  0.10844771691E+01  0.00000000000E+00 0. -1.
         13   -1    0    0    0    0 -0.00000000000E+00 -0.00000000000E+00 -0.10000000000E+04  0.10000000000E+04  0.00000000000E+00 0.  1.
    9000005    2    1    2  501    0  0.20522893814E+02  0.24447343366E+02 -0.61862164431E+03  0.61945337805E+03  0.32995470357E+01 0.  0.
         13    1    3    3    0    0  0.91974726757E+01  0.87867783922E+01 -0.26139643949E+03  0.26170574995E+03  0.00000000000E+00 0.  1.
          3    1    3    3  501    0  0.11325421138E+02  0.15660564973E+02 -0.35722520482E+03  0.35774762811E+03  0.00000000000E+00 0.  1.
         -1    1    1    2    0  502 -0.20522893814E+02 -0.24447343366E+02 -0.38029387852E+03  0.38163109911E+03  0.00000000000E+00 0. -1.
<mgrwt>
<rscale>  1 0.30000000E+03</rscale>
<asrwt>0</asrwt>
<pdfrwt beam="1">  1       21 0.39435617E-02 0.30000000E+03</pdfrwt>
<pdfrwt beam="2">0</pdfrwt>
<totfact> 0.43065299E+04</totfact>
</mgrwt>
</event>
<event>
 6    1  0.1295671E-001  0.3000000E+03  0.7818608E-02  0.1093470E+00
         21   -1    0    0  501  502  0.00000000000E+00  0.00000000000E+00  0.26215059018E+02  0.26215059018E+02  0.00000000000E+00 0. -1.
         13   -1    0    0    0    0 -0.00000000000E+00 -0.00000000000E+00 -0.10000000000E+04  0.10000000000E+04  0.00000000000E+00 0.  1.
    9000005    2    1    2  501    0  0.97120309019E-01 -0.37629130453E+02 -0.98594687414E+03  0.98666921841E+03  0.29911598480E+01 0.  0.
         13    1    3    3    0    0 -0.12779136453E-01 -0.37370796231E+01 -0.12390425357E+03  0.12396059850E+03  0.00000000000E+00 0.  1.
          1    1    3    3  501    0  0.10989944547E+00 -0.33892050829E+02 -0.86204262057E+03  0.86270861991E+03  0.00000000000E+00 0.  1.
         -1    1    1    2    0  502 -0.97120309019E-01  0.37629130453E+02  0.12161933162E+02  0.39545840605E+02  0.00000000000E+00 0. -1.
<mgrwt>
<rscale>  1 0.30000000E+03</rscale>
<asrwt>0</asrwt>
<pdfrwt beam="1">  1       21 0.95327688E-01 0.30000000E+03</pdfrwt>
<pdfrwt beam="2">0</pdfrwt>
<totfact> 0.83247847E+01</totfact>
</mgrwt>
</event>
<event>
 6    1  0.1295671E-001  0.3000000E+03  0.7818608E-02  0.1093470E+00
         21   -1    0    0  501  502  0.00000000000E+00  0.00000000000E+00  0.10405741127E+01  0.10405741127E+01  0.00000000000E+00 0. -1.
         13   -1    0    0    0    0 -0.00000000000E+00 -0.00000000000E+00 -0.10000000000E+04  0.10000000000E+04  0.00000000000E+00 0.  1.
    9000005    2    1    2  501    0 -0.29613172427E+02  0.11617648919E+02 -0.57595633197E+03  0.57684306444E+03  0.32116834139E+01 0.  0.
         13    1    3    3    0    0 -0.18389431308E+02  0.83422317270E+01 -0.38485895599E+03  0.38538834961E+03  0.00000000000E+00 0.  1.
          3    1    3    3  501    0 -0.11223741119E+02  0.32754171920E+01 -0.19109737599E+03  0.19145471483E+03  0.00000000000E+00 0.  1.
         -1    1    1    2    0  502  0.29613172427E+02 -0.11617648919E+02 -0.42300309391E+03  0.42419750967E+03  0.00000000000E+00 0. -1.
<mgrwt>
<rscale>  1 0.30000000E+03</rscale>
<asrwt>0</asrwt>
<pdfrwt beam="1">  1       21 0.37839138E-02 0.30000000E+03</pdfrwt>
<pdfrwt beam="2">0</pdfrwt>
<totfact> 0.46163915E+04</totfact>
</mgrwt>
</event>
<event>
 6    1  0.1295671E-001  0.3000000E+03  0.7818608E-02  0.1093470E+00
         21   -1    0    0  501  502  0.00000000000E+00  0.00000000000E+00  0.69544254475E+01  0.69544254475E+01  0.00000000000E+00 0. -1.
         13   -1    0    0    0    0 -0.00000000000E+00 -0.00000000000E+00 -0.10000000000E+04  0.10000000000E+04  0.00000000000E+00 0.  1.
    9000005    2    1    2  501    0 -0.48848197053E+02  0.53075866388E+02 -0.74898031780E+03  0.75245286651E+03  0.32566728983E+01 0.  0.
         13    1    3    3    0    0 -0.35553750411E+02  0.37395703784E+02 -0.52277660793E+03  0.52531694207E+03  0.00000000000E+00 0.  1.
          3    1    3    3  501    0 -0.13294446642E+02  0.15680162604E+02 -0.22620370987E+03  0.22713592444E+03  0.00000000000E+00 0.  1.
         -3    1    1    2    0  502  0.48848197053E+02 -0.53075866388E+02 -0.24406525675E+03  0.25450155893E+03  0.00000000000E+00 0. -1.
<mgrwt>
<rscale>  1 0.30000000E+03</rscale>
<asrwt>0</asrwt>
<pdfrwt beam="1">  1       21 0.25288873E-01 0.30000000E+03</pdfrwt>
<pdfrwt beam="2">0</pdfrwt>
<totfact> 0.15248880E+03</totfact>
</mgrwt>
</event>
<event>
 6    1  0.1295671E-001  0.3000000E+03  0.7818608E-02  0.1093470E+00
         21   -1    0    0  501  502  0.00000000000E+00  0.00000000000E+00  0.30163609554E+01  0.30163609554E+01  0.00000000000E+00 0. -1.
         13   -1    0    0    0    0 -0.00000000000E+00 -0.00000000000E+00 -0.10000000000E+04  0.10000000000E+04  0.00000000000E+00 0.  1.
    9000005    2    1    2  501    0  0.15193496655E+02 -0.44358922105E+02 -0.75918527001E+03  0.76063933930E+03  0.33725331590E+01 0.  0.
         13    1    3    3    0    0  0.12034633261E+02 -0.35971751683E+02 -0.59189816282E+03  0.59311232871E+03  0.00000000000E+00 0.  1.
          1    1    3    3  501    0  0.31588633946E+01 -0.83871704226E+01 -0.16728710719E+03  0.16752701059E+03  0.00000000000E+00 0.  1.
         -3    1    1    2    0  502 -0.15193496655E+02  0.44358922105E+02 -0.23779836904E+03  0.24237702166E+03  0.00000000000E+00 0. -1.
<mgrwt>
<rscale>  1 0.30000000E+03</rscale>
<asrwt>0</asrwt>
<pdfrwt beam="1">  1       21 0.10968608E-01 0.30000000E+03</pdfrwt>
<pdfrwt beam="2">0</pdfrwt>
<totfact> 0.72894017E+03</totfact>
</mgrwt>
</event>
<event>
 6    1  0.1295671E-001  0.3000000E+03  0.7818608E-02  0.1093470E+00
         21   -1    0    0  501  502  0.00000000000E+00  0.00000000000E+00  0.10852938093E+01  0.10852938093E+01  0.00000000000E+00 0. -1.
         13   -1    0    0    0    0 -0.00000000000E+00 -0.00000000000E+00 -0.10000000000E+04  0.10000000000E+04  0.00000000000E+00 0.  1.
    9000005    2    1    2  501    0 -0.12605623288E+02  0.28063737498E+02 -0.67602375262E+03  0.67673202499E+03  0.34123935377E+01 0.  0.
         13    1    3    3    0    0 -0.11678573741E+02  0.26331770540E+02 -0.64770601849E+03  0.64834623282E+03  0.00000000000E+00 0.  1.
          1    1    3    3  501    0 -0.92704954678E+00  0.17319669579E+01 -0.28317734132E+02  0.28385792164E+02  0.00000000000E+00 0.  1.
         -3    1    1    2    0  502  0.12605623288E+02 -0.28063737498E+02 -0.32289095357E+03  0.32435326882E+03  0.00000000000E+00 0. -1.
<mgrwt>
<rscale>  1 0.30000000E+03</rscale>
<asrwt>0</asrwt>
<pdfrwt beam="1">  1       21 0.39465313E-02 0.30000000E+03</pdfrwt>
<pdfrwt beam="2">0</pdfrwt>
<totfact> 0.43010779E+04</totfact>
</mgrwt>
</event>
<event>
 6    1  0.1295671E-001  0.3000000E+03  0.7818608E-02  0.1093470E+00
         21   -1    0    0  501  502  0.00000000000E+00  0.00000000000E+00  0.10538691994E+01  0.10538691994E+01  0.00000000000E+00 0. -1.
         13   -1    0    0    0    0 -0.00000000000E+00 -0.00000000000E+00 -0.10000000000E+04  0.10000000000E+04  0.00000000000E+00 0.  1.
    9000005    2    1    2  501    0  0.10566391726E+02 -0.30040196331E+02 -0.59219901151E+03  0.59306210326E+03  0.29878169911E+01 0.  0.
         13    1    3    3    0    0  0.89000160129E+01 -0.23234186154E+02 -0.48017288740E+03  0.48081705407E+03  0.00000000000E+00 0.  1.
          1    1    3    3  501    0  0.16663757134E+01 -0.68060101772E+01 -0.11202612411E+03  0.11224504918E+03  0.00000000000E+00 0.  1.
         -3    1    1    2    0  502 -0.10566391726E+02  0.30040196331E+02 -0.40674711929E+03  0.40799176594E+03  0.00000000000E+00 0. -1.
<mgrwt>
<rscale>  1 0.30000000E+03</rscale>
<asrwt>0</asrwt>
<pdfrwt beam="1">  1       21 0.38322597E-02 0.30000000E+03</pdfrwt>
<pdfrwt beam="2">0</pdfrwt>
<totfact> 0.45189554E+04</totfact>
</mgrwt>
</event>
<event>
 6    1  0.1295671E-001  0.3000000E+03  0.7818608E-02  0.1093470E+00
         21   -1    0    0  501  502  0.00000000000E+00  0.00000000000E+00  0.12366680562E+01  0.12366680562E+01  0.00000000000E+00 0. -1.
         13   -1    0    0    0    0 -0.00000000000E+00 -0.00000000000E+00 -0.10000000000E+04  0.10000000000E+04  0.00000000000E+00 0.  1.
    9000005    2    1    2  501    0 -0.23525319256E+02  0.26014190722E+02 -0.48159783107E+03  0.48288318436E+03  0.30854630593E+01 0.  0.
         13    1    3    3    0    0 -0.20043184968E+02  0.22638572303E+02 -0.39982215103E+03  0.40096382215E+03  0.00000000000E+00 0.  1.
          3    1    3    3  501    0 -0.34821342871E+01  0.33756184185E+01 -0.81775680039E+02  0.81919362209E+02  0.00000000000E+00 0.  1.
         -3    1    1    2    0  502  0.23525319256E+02 -0.26014190722E+02 -0.51716550088E+03  0.51835348370E+03  0.00000000000E+00 0. -1.
<mgrwt>
<rscale>  1 0.30000000E+03</rscale>
<asrwt>0</asrwt>
<pdfrwt beam="1">  1       21 0.44969842E-02 0.30000000E+03</pdfrwt>
<pdfrwt beam="2">0</pdfrwt>
<totfact> 0.34497410E+04</totfact>
</mgrwt>
</event>
<event>
 6    1  0.1295671E-001  0.3000000E+03  0.7818608E-02  0.1093470E+00
         21   -1    0    0  501  502  0.00000000000E+00  0.00000000000E+00  0.20852904554E+01  0.20852904554E+01  0.00000000000E+00 0. -1.
         13   -1    0    0    0    0 -0.00000000000E+00 -0.00000000000E+00 -0.10000000000E+04  0.10000000000E+04  0.00000000000E+00 0.  1.
    9000005    2    1    2  501    0  0.19420021985E+02  0.28830269233E+02 -0.82355324707E+03  0.82429259861E+03  0.31647564049E+01 0.  0.
         13    1    3    3    0    0  0.89236597394E+00  0.10959147537E+01 -0.21706073810E+02  0.21752034075E+02  0.00000000000E+00 0.  1.
          3    1    3    3  501    0  0.18527656011E+02  0.27734354479E+02 -0.80184717326E+03  0.80254056453E+03  0.00000000000E+00 0.  1.
         -3    1    1    2    0  502 -0.19420021985E+02 -0.28830269233E+02 -0.17436146248E+03  0.17779269185E+03  0.00000000000E+00 0. -1.
<mgrwt>
<rscale>  1 0.30000000E+03</rscale>
<asrwt>0</asrwt>
<pdfrwt beam="1">  1       21 0.75828904E-02 0.30000000E+03</pdfrwt>
<pdfrwt beam="2">0</pdfrwt>
<totfact> 0.14031748E+04</totfact>
</mgrwt>
</event>
<event>
 6    1  0.1295671E-001  0.3000000E+03  0.7818608E-02  0.1093470E+00
         21   -1    0    0  501  502  0.00000000000E+00  0.00000000000E+00  0.96819288725E+01  0.96819288725E+01  0.00000000000E+00 0. -1.
         13   -1    0    0    0    0 -0.00000000000E+00 -0.00000000000E+00 -0.10000000000E+04  0.10000000000E+04  0.00000000000E+00 0.  1.
    9000005    2    1    2  501    0  0.51996066190E+02  0.83236226559E+01 -0.92157710641E+03  0.92308981708E+03  0.41921064267E+01 0.  0.
         13    1    3    3    0    0  0.34028949019E+02  0.56900918351E+01 -0.56832099680E+03  0.56936728209E+03  0.00000000000E+00 0.  1.
          1    1    3    3  501    0  0.17967117171E+02  0.26335308209E+01 -0.35325610961E+03  0.35372253499E+03  0.00000000000E+00 0.  1.
         -3    1    1    2    0  502 -0.51996066190E+02 -0.83236226559E+01 -0.68740964719E+02  0.86592111788E+02  0.00000000000E+00 0. -1.
<mgrwt>
<rscale>  1 0.30000000E+03</rscale>
<asrwt>0</asrwt>
<pdfrwt beam="1">  1       21 0.35207088E-01 0.30000000E+03</pdfrwt>
<pdfrwt beam="2">0</pdfrwt>
<totfact> 0.78624584E+02</totfact>
</mgrwt>
</event>
<event>
 6    1  0.1295671E-001  0.3000000E+03  0.7818608E-02  0.1093470E+00
         21   -1    0    0  501  502  0.00000000000E+00  0.00000000000E+00  0.92366584787E+00  0.92366584787E+00  0.00000000000E+00 0. -1.
         13   -1    0    0    0    0 -0.00000000000E+00 -0.00000000000E+00 -0.10000000000E+04  0.10000000000E+04  0.00000000000E+00 0.  1.
    9000005    2    1    2  501    0  0.22006462327E+02 -0.20513626879E+02 -0.44121355161E+03  0.44225025730E+03  0.32861355023E+01 0.  0.
         13    1    3    3    0    0  0.14583572415E+02 -0.12589319555E+02 -0.26120440914E+03  0.26191394561E+03  0.00000000000E+00 0.  1.
          3    1    3    3  501    0  0.74228899118E+01 -0.79243073235E+01 -0.18000914247E+03  0.18033631169E+03  0.00000000000E+00 0.  1.
         -1    1    1    2    0  502 -0.22006462327E+02  0.20513626879E+02 -0.55786278254E+03  0.55867340855E+03  0.00000000000E+00 0. -1.
<mgrwt>
<rscale>  1 0.30000000E+03</rscale>
<asrwt>0</asrwt>
<pdfrwt beam="1">  1       21 0.33587920E-02 0.30000000E+03</pdfrwt>
<pdfrwt beam="2">0</pdfrwt>
<totfact> 0.56367589E+04</totfact>
</mgrwt>
</event>
<event>
 6    1  0.1295671E-001  0.3000000E+03  0.7818608E-02  0.1093470E+00
         21   -1    0    0  501  502  0.00000000000E+00  0.00000000000E+00  0.23309465280E+01  0.23309465280E+01  0.00000000000E+00 0. -1.
         13   -1    0    0    0    0 -0.00000000000E+00 -0.00000000000E+00 -0.10000000000E+04  0.10000000000E+04  0.00000000000E+00 0.  1.
    9000005    2    1    2  501    0 -0.79809243022E+01 -0.36174614823E+02 -0.81981568495E+03  0.82066058955E+03  0.37078347224E+01 0.  0.
         13    1    3    3    0    0 -0.56952221575E+01 -0.31039264112E+02 -0.71050740190E+03  0.71120787371E+03  0.00000000000E+00 0.  1.
          3    1    3    3  501    0 -0.22857021447E+01 -0.51353507114E+01 -0.10930828305E+03  0.10945271583E+03  0.00000000000E+00 0.  1.
         -1    1    1    2    0  502  0.79809243022E+01  0.36174614823E+02 -0.17785336852E+03  0.18167035698E+03  0.00000000000E+00 0. -1.
<mgrwt>
<rscale>  1 0.30000000E+03</rscale>
<asrwt>0</asrwt>
<pdfrwt beam="1">  1       21 0.84761871E-02 0.30000000E+03</pdfrwt>
<pdfrwt beam="2">0</pdfrwt>
<totfact> 0.11538195E+04</totfact>
</mgrwt>
</event>
<event>
 6    1  0.1295671E-001  0.3000000E+03  0.7818608E-02  0.1093470E+00
         21   -1    0    0  501  502  0.00000000000E+00  0.00000000000E+00  0.25262048011E+01  0.25262048011E+01  0.00000000000E+00 0. -1.
         13   -1    0    0    0    0 -0.00000000000E+00 -0.00000000000E+00 -0.10000000000E+04  0.10000000000E+04  0.00000000000E+00 0.  1.
    9000005    2    1    2  501    0  0.42310410914E+02  0.26996160152E+02 -0.49835060334E+03  0.50088597098E+03  0.38037537516E+01 0.  0.
         13    1    3    3    0    0  0.15965045393E+02  0.12313804204E+02 -0.19463924195E+03  0.19568072709E+03  0.00000000000E+00 0.  1.
          1    1    3    3  501    0  0.26345365522E+02  0.14682355948E+02 -0.30371136139E+03  0.30520524389E+03  0.00000000000E+00 0.  1.
         -3    1    1    2    0  502 -0.42310410914E+02 -0.26996160152E+02 -0.49912319186E+03  0.50164023382E+03  0.00000000000E+00 0. -1.
<mgrwt>
<rscale>  1 0.30000000E+03</rscale>
<asrwt>0</asrwt>
<pdfrwt beam="1">  1       21 0.91862186E-02 0.30000000E+03</pdfrwt>
<pdfrwt beam="2">0</pdfrwt>
<totfact> 0.10007940E+04</totfact>
</mgrwt>
</event>
<event>
 6    1  0.1295671E-001  0.3000000E+03  0.7818608E-02  0.1093470E+00
         21   -1    0    0  501  502  0.00000000000E+00  0.00000000000E+00  0.11101309215E+01  0.11101309215E+01  0.00000000000E+00 0. -1.
         13   -1    0    0    0    0 -0.00000000000E+00 -0.00000000000E+00 -0.10000000000E+04  0.10000000000E+04  0.00000000000E+00 0.  1.
    9000005    2    1    2  501    0 -0.15964902533E+02 -0.25460503146E+02 -0.71389522818E+03  0.71453542744E+03  0.33711894771E+01 0.  0.
         13    1    3    3    0    0 -0.93716561753E+01 -0.12729294349E+02 -0.34580909097E+03  0.34617017530E+03  0.00000000000E+00 0.  1.
          1    1    3    3  501    0 -0.65932463574E+01 -0.12731208797E+02 -0.36808613721E+03  0.36836525214E+03  0.00000000000E+00 0.  1.
         -3    1    1    2    0  502  0.15964902533E+02  0.25460503146E+02 -0.28499464090E+03  0.28657470348E+03  0.00000000000E+00 0. -1.
<mgrwt>
<rscale>  1 0.30000000E+03</rscale>
<asrwt>0</asrwt>
<pdfrwt beam="1">  1       21 0.40368482E-02 0.30000000E+03</pdfrwt>
<pdfrwt beam="2">0</pdfrwt>
<totfact> 0.41402851E+04</totfact>
</mgrwt>
</event>
<event>
 6    1  0.1295671E-001  0.3000000E+03  0.7818608E-02  0.1093470E+00
         21   -1    0    0  501  502  0.00000000000E+00  0.00000000000E+00  0.22947093705E+01  0.22947093705E+01  0.00000000000E+00 0. -1.
         13   -1    0    0    0    0 -0.00000000000E+00 -0.00000000000E+00 -0.10000000000E+04  0.10000000000E+04  0.00000000000E+00 0.  1.
    9000005    2    1    2  501    0  0.43356460869E+02  0.34373531431E+01 -0.70823662011E+03  0.70957691129E+03  0.29470133734E+01 0.  0.
         13    1    3    3    0    0  0.62544455515E+01  0.13434591678E+01 -0.11434178288E+03  0.11452059327E+03  0.00000000000E+00 0.  1.
          3    1    3    3  501    0  0.37102015317E+02  0.20938939754E+01 -0.59389483723E+03  0.59505631802E+03  0.00000000000E+00 0.  1.
         -1    1    1    2    0  502 -0.43356460869E+02 -0.34373531431E+01 -0.28946867052E+03  0.29271779808E+03  0.00000000000E+00 0. -1.
<mgrwt>
<rscale>  1 0.30000000E+03</rscale>
<asrwt>0</asrwt>
<pdfrwt beam="1">  1       21 0.83444153E-02 0.30000000E+03</pdfrwt>
<pdfrwt beam="2">0</pdfrwt>
<totfact> 0.11861179E+04</totfact>
</mgrwt>
</event>
<event>
 6    1  0.1295671E-001  0.3000000E+03  0.7818608E-02  0.1093470E+00
         21   -1    0    0  501  502  0.00000000000E+00  0.00000000000E+00  0.84013024437E+01  0.84013024437E+01  0.00000000000E+00 0. -1.
         13   -1    0    0    0    0 -0.00000000000E+00 -0.00000000000E+00 -0.10000000000E+04  0.10000000000E+04  0.00000000000E+00 0.  1.
    9000005    2    1    2  501    0 -0.48862546427E+02 -0.18484848579E+01 -0.92223266841E+03  0.92353310264E+03  0.30547725649E+01 0.  0.
         13    1    3    3    0    0 -0.35469536833E+01  0.50877883961E+00 -0.76824047947E+02  0.76907568414E+02  0.00000000000E+00 0.  1.
          3    1    3    3  501    0 -0.45315592743E+02 -0.23572636975E+01 -0.84540862047E+03  0.84662553422E+03  0.00000000000E+00 0.  1.
         -3    1    1    2    0  502  0.48862546427E+02  0.18484848579E+01 -0.69366029142E+02  0.84868199807E+02  0.00000000000E+00 0. -1.
<mgrwt>
<rscale>  1 0.30000000E+03</rscale>
<asrwt>0</asrwt>
<pdfrwt beam="1">  1       21 0.30550255E-01 0.30000000E+03</pdfrwt>
<pdfrwt beam="2">0</pdfrwt>
<totfact> 0.10484054E+03</totfact>
</mgrwt>
</event>
<event>
 6    1  0.1295671E-001  0.3000000E+03  0.7818608E-02  0.1093470E+00
         21   -1    0    0  501  502  0.00000000000E+00  0.00000000000E+00  0.20622760767E+02  0.20622760767E+02  0.00000000000E+00 0. -1.
         13   -1    0    0    0    0 -0.00000000000E+00 -0.00000000000E+00 -0.10000000000E+04  0.10000000000E+04  0.00000000000E+00 0.  1.
    9000005    2    1    2  501    0 -0.69001384690E+02  0.37952400840E+00 -0.93722127333E+03  0.93976201263E+03  0.27550098414E+01 0.  0.
         13    1    3    3    0    0 -0.13267343540E+02  0.78103098688E-01 -0.19544694680E+03  0.19589675218E+03  0.00000000000E+00 0.  1.
          3    1    3    3  501    0 -0.55734041150E+02  0.30142090971E+00 -0.74177432653E+03  0.74386526045E+03  0.00000000000E+00 0.  1.
         -3    1    1    2    0  502  0.69001384690E+02 -0.37952400840E+00 -0.42155965905E+02  0.80860748136E+02  0.00000000000E+00 0. -1.
<mgrwt>
<rscale>  1 0.30000000E+03</rscale>
<asrwt>0</asrwt>
<pdfrwt beam="1">  1       21 0.74992015E-01 0.30000000E+03</pdfrwt>
<pdfrwt beam="2">0</pdfrwt>
<totfact> 0.15010054E+02</totfact>
</mgrwt>
</event>
<event>
 6    1  0.1295671E-001  0.3000000E+03  0.7818608E-02  0.1093470E+00
         21   -1    0    0  501  502  0.00000000000E+00  0.00000000000E+00  0.32440660914E+01  0.32440660914E+01  0.00000000000E+00 0. -1.
         13   -1    0    0    0    0 -0.00000000000E+00 -0.00000000000E+00 -0.10000000000E+04  0.10000000000E+04  0.00000000000E+00 0.  1.
    9000005    2    1    2  501    0  0.24561393728E+02 -0.20512922439E+02 -0.91325597037E+03  0.91382211152E+03  0.32159032628E+01 0.  0.
         13    1    3    3    0    0  0.16056761089E-02 -0.44599112424E+00 -0.13258154290E+02  0.13265653616E+02  0.00000000000E+00 0.  1.
          3    1    3    3  501    0  0.24559788052E+02 -0.20066931314E+02 -0.89999781608E+03  0.90055645790E+03  0.00000000000E+00 0.  1.
         -3    1    1    2    0  502 -0.24561393728E+02  0.20512922439E+02 -0.83499963541E+02  0.89421954576E+02  0.00000000000E+00 0. -1.
<mgrwt>
<rscale>  1 0.30000000E+03</rscale>
<asrwt>0</asrwt>
<pdfrwt beam="1">  1       21 0.11796629E-01 0.30000000E+03</pdfrwt>
<pdfrwt beam="2">0</pdfrwt>
<totfact> 0.63921877E+03</totfact>
</mgrwt>
</event>
<event>
 6    1  0.1295671E-001  0.3000000E+03  0.7818608E-02  0.1093470E+00
         21   -1    0    0  501  502  0.00000000000E+00  0.00000000000E+00  0.13310872378E+01  0.13310872378E+01  0.00000000000E+00 0. -1.
         13   -1    0    0    0    0 -0.00000000000E+00 -0.00000000000E+00 -0.10000000000E+04  0.10000000000E+04  0.00000000000E+00 0.  1.
    9000005    2    1    2  501    0  0.66726810628E+01  0.29300230165E+02 -0.78248247382E+03  0.78306610025E+03  0.32660943530E+01 0.  0.
         13    1    3    3    0    0  0.51228556007E+01  0.26602761889E+02 -0.71104087584E+03  0.71155679865E+03  0.00000000000E+00 0.  1.
          1    1    3    3  501    0  0.15498254621E+01  0.26974682752E+01 -0.71441597977E+02  0.71509301601E+02  0.00000000000E+00 0.  1.
         -1    1    1    2    0  502 -0.66726810628E+01 -0.29300230165E+02 -0.21618643894E+03  0.21826498699E+03  0.00000000000E+00 0. -1.
<mgrwt>
<rscale>  1 0.30000000E+03</rscale>
<asrwt>0</asrwt>
<pdfrwt beam="1">  1       21 0.48403274E-02 0.30000000E+03</pdfrwt>
<pdfrwt beam="2">0</pdfrwt>
<totfact> 0.30441982E+04</totfact>
</mgrwt>
</event>
<event>
 6    1  0.1295671E-001  0.3000000E+03  0.7818608E-02  0.1093470E+00
         21   -1    0    0  501  502  0.00000000000E+00  0.00000000000E+00  0.43521747205E+01  0.43521747205E+01  0.00000000000E+00 0. -1.
         13   -1    0    0    0    0 -0.00000000000E+00 -0.00000000000E+00 -0.10000000000E+04  0.10000000000E+04  0.00000000000E+00 0.  1.
    9000005    2    1    2  501    0 -0.93265519512E+01 -0.62884224683E+02 -0.62907171308E+03  0.63230452142E+03  0.60313626529E+01 0.  0.
         13    1    3    3    0    0 -0.59273786416E+01 -0.20757841831E+02 -0.20836724685E+03  0.20948253239E+03  0.00000000000E+00 0.  1.
          3    1    3    3  501    0 -0.33991733095E+01 -0.42126382852E+02 -0.42070446622E+03  0.42282198904E+03  0.00000000000E+00 0.  1.
         -3    1    1    2    0  502  0.93265519512E+01  0.62884224683E+02 -0.36657611220E+03  0.37204765330E+03  0.00000000000E+00 0. -1.
<mgrwt>
<rscale>  1 0.30000000E+03</rscale>
<asrwt>0</asrwt>
<pdfrwt beam="1">  1       21 0.15826123E-01 0.30000000E+03</pdfrwt>
<pdfrwt beam="2">0</pdfrwt>
<totfact> 0.37277899E+03</totfact>
</mgrwt>
</event>
<event>
 6    1  0.1295671E-001  0.3000000E+03  0.7818608E-02  0.1093470E+00
         21   -1    0    0  501  502  0.00000000000E+00  0.00000000000E+00  0.13342188979E+01  0.13342188979E+01  0.00000000000E+00 0. -1.
         13   -1    0    0    0    0 -0.00000000000E+00 -0.00000000000E+00 -0.10000000000E+04  0.10000000000E+04  0.00000000000E+00 0.  1.
    9000005    2    1    2  501    0 -0.15226542039E+02 -0.33095815945E+02 -0.51574558040E+03  0.51704184763E+03  0.34040989962E+01 0.  0.
         13    1    3    3    0    0 -0.91744367810E+01 -0.19648099073E+02 -0.33010895558E+03  0.33082040542E+03  0.00000000000E+00 0.  1.
          3    1    3    3  501    0 -0.60521052583E+01 -0.13447716872E+02 -0.18563662481E+03  0.18622144221E+03  0.00000000000E+00 0.  1.
         -3    1    1    2    0  502  0.15226542039E+02  0.33095815945E+02 -0.48292020071E+03  0.48429237127E+03  0.00000000000E+00 0. -1.
<mgrwt>
<rscale>  1 0.30000000E+03</rscale>
<asrwt>0</asrwt>
<pdfrwt beam="1">  1       21 0.48517153E-02 0.30000000E+03</pdfrwt>
<pdfrwt beam="2">0</pdfrwt>
<totfact> 0.30320450E+04</totfact>
</mgrwt>
</event>
<event>
 6    1  0.1295671E-001  0.3000000E+03  0.7818608E-02  0.1093470E+00
         21   -1    0    0  501  502  0.00000000000E+00  0.00000000000E+00  0.15992573557E+01  0.15992573557E+01  0.00000000000E+00 0. -1.
         13   -1    0    0    0    0 -0.00000000000E+00 -0.00000000000E+00 -0.10000000000E+04  0.10000000000E+04  0.00000000000E+00 0.  1.
    9000005    2    1    2  501    0 -0.18395991564E+02  0.30542088623E+02 -0.72485856052E+03  0.72574321323E+03  0.34708928493E+01 0.  0.
         13    1    3    3    0    0 -0.13825641759E+02  0.24772310377E+02 -0.59559336994E+03  0.59626862910E+03  0.00000000000E+00 0.  1.
          3    1    3    3  501    0 -0.45703498049E+01  0.57697782460E+01 -0.12926519059E+03  0.12947458413E+03  0.00000000000E+00 0.  1.
         -3    1    1    2    0  502  0.18395991564E+02 -0.30542088623E+02 -0.27354218212E+03  0.27585604413E+03  0.00000000000E+00 0. -1.
<mgrwt>
<rscale>  1 0.30000000E+03</rscale>
<asrwt>0</asrwt>
<pdfrwt beam="1">  1       21 0.58154936E-02 0.30000000E+03</pdfrwt>
<pdfrwt beam="2">0</pdfrwt>
<totfact> 0.22237162E+04</totfact>
</mgrwt>
</event>
<event>
 6    1  0.1295671E-001  0.3000000E+03  0.7818608E-02  0.1093470E+00
         21   -1    0    0  501  502  0.00000000000E+00  0.00000000000E+00  0.15976114724E+01  0.15976114724E+01  0.00000000000E+00 0. -1.
         13   -1    0    0    0    0 -0.00000000000E+00 -0.00000000000E+00 -0.10000000000E+04  0.10000000000E+04  0.00000000000E+00 0.  1.
    9000005    2    1    2  501    0  0.10905188231E+02  0.36757874240E+02 -0.63902316203E+03  0.64017888909E+03  0.28885946860E+01 0.  0.
         13    1    3    3    0    0  0.10868508774E+02  0.36162489100E+02 -0.63329797155E+03  0.63442270678E+03  0.00000000000E+00 0.  1.
          1    1    3    3  501    0  0.36679456879E-01  0.59538514027E+00 -0.57251904739E+01  0.57561823121E+01  0.00000000000E+00 0.  1.
         -3    1    1    2    0  502 -0.10905188231E+02 -0.36757874240E+02 -0.35937922650E+03  0.36141872238E+03  0.00000000000E+00 0. -1.
<mgrwt>
<rscale>  1 0.30000000E+03</rscale>
<asrwt>0</asrwt>
<pdfrwt beam="1">  1       21 0.58095085E-02 0.30000000E+03</pdfrwt>
<pdfrwt beam="2">0</pdfrwt>
<totfact> 0.22276637E+04</totfact>
</mgrwt>
</event>
<event>
 6    1  0.1295671E-001  0.3000000E+03  0.7818608E-02  0.1093470E+00
         21   -1    0    0  501  502  0.00000000000E+00  0.00000000000E+00  0.25845924670E+01  0.25845924670E+01  0.00000000000E+00 0. -1.
         13   -1    0    0    0    0 -0.00000000000E+00 -0.00000000000E+00 -0.10000000000E+04  0.10000000000E+04  0.00000000000E+00 0.  1.
    9000005    2    1    2  501    0  0.30592938357E+01  0.50704364941E+02 -0.49993600397E+03  0.50251854796E+03  0.29310530508E+01 0.  0.
         13    1    3    3    0    0  0.13683935650E+01  0.37539813064E+02 -0.36006745195E+03  0.36202165684E+03  0.00000000000E+00 0.  1.
          3    1    3    3  501    0  0.16909002707E+01  0.13164551877E+02 -0.13986855203E+03  0.14049689113E+03  0.00000000000E+00 0.  1.
         -3    1    1    2    0  502 -0.30592938357E+01 -0.50704364941E+02 -0.49747940356E+03  0.50006604451E+03  0.00000000000E+00 0. -1.
<mgrwt>
<rscale>  1 0.30000000E+03</rscale>
<asrwt>0</asrwt>
<pdfrwt beam="1">  1       21 0.93985379E-02 0.30000000E+03</pdfrwt>
<pdfrwt beam="2">0</pdfrwt>
<totfact> 0.96096816E+03</totfact>
</mgrwt>
</event>
<event>
 6    1  0.1295671E-001  0.3000000E+03  0.7818608E-02  0.1093470E+00
         21   -1    0    0  501  502  0.00000000000E+00  0.00000000000E+00  0.12492417166E+01  0.12492417166E+01  0.00000000000E+00 0. -1.
         13   -1    0    0    0    0 -0.00000000000E+00 -0.00000000000E+00 -0.10000000000E+04  0.10000000000E+04  0.00000000000E+00 0.  1.
    9000005    2    1    2  501    0 -0.99849272088E+01 -0.33278623663E+02 -0.57757525179E+03  0.57864307419E+03  0.52412078696E+01 0.  0.
         13    1    3    3    0    0 -0.37762106104E+01 -0.89333555976E+01 -0.12845391943E+03  0.12881954054E+03  0.00000000000E+00 0.  1.
          1    1    3    3  501    0 -0.62087165983E+01 -0.24345268065E+02 -0.44912133237E+03  0.44982353365E+03  0.00000000000E+00 0.  1.
         -1    1    1    2    0  502  0.99849272088E+01  0.33278623663E+02 -0.42117550649E+03  0.42260616753E+03  0.00000000000E+00 0. -1.
<mgrwt>
<rscale>  1 0.30000000E+03</rscale>
<asrwt>0</asrwt>
<pdfrwt beam="1">  1       21 0.45427067E-02 0.30000000E+03</pdfrwt>
<pdfrwt beam="2">0</pdfrwt>
<totfact> 0.33910076E+04</totfact>
</mgrwt>
</event>
<event>
 6    1  0.1295671E-001  0.3000000E+03  0.7818608E-02  0.1093470E+00
         21   -1    0    0  501  502  0.00000000000E+00  0.00000000000E+00  0.29667600958E+01  0.29667600958E+01  0.00000000000E+00 0. -1.
         13   -1    0    0    0    0 -0.00000000000E+00 -0.00000000000E+00 -0.10000000000E+04  0.10000000000E+04  0.00000000000E+00 0.  1.
    9000005    2    1    2  501    0 -0.42338759647E+02  0.22291321815E+02 -0.73769810944E+03  0.73925444812E+03  0.30273406351E+01 0.  0.
         13    1    3    3    0    0 -0.18018699024E+02  0.79353467814E+01 -0.29416944868E+03  0.29482758992E+03  0.00000000000E+00 0.  1.
          3    1    3    3  501    0 -0.24320060624E+02  0.14355975034E+02 -0.44352866077E+03  0.44442685820E+03  0.00000000000E+00 0.  1.
         -1    1    1    2    0  502  0.42338759647E+02 -0.22291321815E+02 -0.25933513046E+03  0.26371231198E+03  0.00000000000E+00 0. -1.
<mgrwt>
<rscale>  1 0.30000000E+03</rscale>
<asrwt>0</asrwt>
<pdfrwt beam="1">  1       21 0.10788241E-01 0.30000000E+03</pdfrwt>
<pdfrwt beam="2">0</pdfrwt>
<totfact> 0.75099173E+03</totfact>
</mgrwt>
</event>
<event>
 6    1  0.1295671E-001  0.3000000E+03  0.7818608E-02  0.1093470E+00
         21   -1    0    0  501  502  0.00000000000E+00  0.00000000000E+00  0.15456083268E+01  0.15456083268E+01  0.00000000000E+00 0. -1.
         13   -1    0    0    0    0 -0.00000000000E+00 -0.00000000000E+00 -0.10000000000E+04  0.10000000000E+04  0.00000000000E+00 0.  1.
    9000005    2    1    2  501    0  0.14369997891E+02 -0.34267305891E+02 -0.33901533640E+03  0.34106047397E+03  0.31785995051E+01 0.  0.
         13    1    3    3    0    0  0.20413307549E+01 -0.45047500601E+01 -0.36176921083E+02  0.36513414294E+02  0.00000000000E+00 0.  1.
          3    1    3    3  501    0  0.12328667136E+02 -0.29762555831E+02 -0.30283841532E+03  0.30454705967E+03  0.00000000000E+00 0.  1.
         -1    1    1    2    0  502 -0.14369997891E+02  0.34267305891E+02 -0.65943905527E+03  0.66048513436E+03  0.00000000000E+00 0. -1.
<mgrwt>
<rscale>  1 0.30000000E+03</rscale>
<asrwt>0</asrwt>
<pdfrwt beam="1">  1       21 0.56204058E-02 0.30000000E+03</pdfrwt>
<pdfrwt beam="2">0</pdfrwt>
<totfact> 0.23581306E+04</totfact>
</mgrwt>
</event>
<event>
 6    1  0.1295671E-001  0.3000000E+03  0.7818608E-02  0.1093470E+00
         21   -1    0    0  501  502  0.00000000000E+00  0.00000000000E+00  0.50645903140E+01  0.50645903140E+01  0.00000000000E+00 0. -1.
         13   -1    0    0    0    0 -0.00000000000E+00 -0.00000000000E+00 -0.10000000000E+04  0.10000000000E+04  0.00000000000E+00 0.  1.
    9000005    2    1    2  501    0 -0.95518071893E+01 -0.56385957636E+02 -0.79640576710E+03  0.79846199540E+03  0.29663094788E+01 0.  0.
         13    1    3    3    0    0 -0.18529191977E+01 -0.18941725056E+02 -0.25907796911E+03  0.25977608885E+03  0.00000000000E+00 0.  1.
          3    1    3    3  501    0 -0.76988879916E+01 -0.37444232580E+02 -0.53732779798E+03  0.53868590655E+03  0.00000000000E+00 0.  1.
         -3    1    1    2    0  502  0.95518071893E+01  0.56385957636E+02 -0.19852964259E+03  0.20660259491E+03  0.00000000000E+00 0. -1.
<mgrwt>
<rscale>  1 0.30000000E+03</rscale>
<asrwt>0</asrwt>
<pdfrwt beam="1">  1       21 0.18416731E-01 0.30000000E+03</pdfrwt>
<pdfrwt beam="2">0</pdfrwt>
<totfact> 0.28057985E+03</totfact>
</mgrwt>
</event>
<event>
 6    1  0.1295671E-001  0.3000000E+03  0.7818608E-02  0.1093470E+00
         21   -1    0    0  501  502  0.00000000000E+00  0.00000000000E+00  0.10289256950E+02  0.10289256950E+02  0.00000000000E+00 0. -1.
         13   -1    0    0    0    0 -0.00000000000E+00 -0.00000000000E+00 -0.10000000000E+04  0.10000000000E+04  0.00000000000E+00 0.  1.
    9000005    2    1    2  501    0  0.51375932618E+02  0.27592319293E+02 -0.90811820255E+03  0.90999885261E+03  0.42917853248E+01 0.  0.
         13    1    3    3    0    0  0.48813531574E+02  0.25983532482E+02 -0.87353436001E+03  0.87528291595E+03  0.00000000000E+00 0.  1.
          1    1    3    3  501    0  0.25624010440E+01  0.16087868114E+01 -0.34583842534E+02  0.34715936665E+02  0.00000000000E+00 0.  1.
         -3    1    1    2    0  502 -0.51375932618E+02 -0.27592319293E+02 -0.81592540502E+02  0.10029040434E+03  0.00000000000E+00 0. -1.
<mgrwt>
<rscale>  1 0.30000000E+03</rscale>
<asrwt>0</asrwt>
<pdfrwt beam="1">  1       21 0.37415559E-01 0.30000000E+03</pdfrwt>
<pdfrwt beam="2">0</pdfrwt>
<totfact> 0.69383404E+02</totfact>
</mgrwt>
</event>
<event>
 6    1  0.1295671E-001  0.3000000E+03  0.7818608E-02  0.1093470E+00
         21   -1    0    0  501  502  0.00000000000E+00  0.00000000000E+00  0.19343853749E+01  0.19343853749E+01  0.00000000000E+00 0. -1.
         13   -1    0    0    0    0 -0.00000000000E+00 -0.00000000000E+00 -0.10000000000E+04  0.10000000000E+04  0.00000000000E+00 0.  1.
    9000005    2    1    2  501    0  0.33794338253E+01  0.41830090283E+02 -0.64784031814E+03  0.64920370153E+03  0.26816504828E+01 0.  0.
         13    1    3    3    0    0  0.10848553463E+01  0.67060372061E+01 -0.11818949715E+03  0.11838456438E+03  0.00000000000E+00 0.  1.
          3    1    3    3  501    0  0.22945784791E+01  0.35124053077E+02 -0.52965082099E+03  0.53081913715E+03  0.00000000000E+00 0.  1.
         -1    1    1    2    0  502 -0.33794338253E+01 -0.41830090283E+02 -0.35022529648E+03  0.35273068384E+03  0.00000000000E+00 0. -1.
<mgrwt>
<rscale>  1 0.30000000E+03</rscale>
<asrwt>0</asrwt>
<pdfrwt beam="1">  1       21 0.70341435E-02 0.30000000E+03</pdfrwt>
<pdfrwt beam="2">0</pdfrwt>
<totfact> 0.15999202E+04</totfact>
</mgrwt>
</event>
<event>
 6    1  0.1295671E-001  0.3000000E+03  0.7818608E-02  0.1093470E+00
         21   -1    0    0  501  502  0.00000000000E+00  0.00000000000E+00  0.10876446599E+02  0.10876446599E+02  0.00000000000E+00 0. -1.
         13   -1    0    0    0    0 -0.00000000000E+00 -0.00000000000E+00 -0.10000000000E+04  0.10000000000E+04  0.00000000000E+00 0.  1.
    9000005    2    1    2  501    0  0.79194739555E+02 -0.58779520639E+02 -0.33130025987E+03  0.34570103790E+03  0.47441119902E+01 0.  0.
         13    1    3    3    0    0  0.37444619672E+02 -0.25487134301E+02 -0.15721117294E+03  0.16360637657E+03  0.00000000000E+00 0.  1.
          1    1    3    3  501    0  0.41750119882E+02 -0.33292386338E+02 -0.17408908693E+03  0.18209466133E+03  0.00000000000E+00 0.  1.
         -1    1    1    2    0  502 -0.79194739555E+02  0.58779520639E+02 -0.65782329353E+03  0.66517540870E+03  0.00000000000E+00 0. -1.
<mgrwt>
<rscale>  1 0.30000000E+03</rscale>
<asrwt>0</asrwt>
<pdfrwt beam="1">  1       21 0.39550798E-01 0.30000000E+03</pdfrwt>
<pdfrwt beam="2">0</pdfrwt>
<totfact> 0.61841468E+02</totfact>
</mgrwt>
</event>
<event>
 6    1  0.1295671E-001  0.3000000E+03  0.7818608E-02  0.1093470E+00
         21   -1    0    0  501  502  0.00000000000E+00  0.00000000000E+00  0.10459020582E+01  0.10459020582E+01  0.00000000000E+00 0. -1.
         13   -1    0    0    0    0 -0.00000000000E+00 -0.00000000000E+00 -0.10000000000E+04  0.10000000000E+04  0.00000000000E+00 0.  1.
    9000005    2    1    2  501    0 -0.50985036283E+01  0.31092481362E+02 -0.39415586126E+03  0.39542750386E+03  0.33661121289E+01 0.  0.
         13    1    3    3    0    0 -0.39157443869E+01  0.24976415871E+02 -0.33154905198E+03  0.33251154607E+03  0.00000000000E+00 0.  1.
          1    1    3    3  501    0 -0.11827592414E+01  0.61160654907E+01 -0.62606809278E+02  0.62915957788E+02  0.00000000000E+00 0.  1.
         -3    1    1    2    0  502  0.50985036283E+01 -0.31092481362E+02 -0.60479823669E+03  0.60561839820E+03  0.00000000000E+00 0. -1.
<mgrwt>
<rscale>  1 0.30000000E+03</rscale>
<asrwt>0</asrwt>
<pdfrwt beam="1">  1       21 0.38032882E-02 0.30000000E+03</pdfrwt>
<pdfrwt beam="2">0</pdfrwt>
<totfact> 0.45769518E+04</totfact>
</mgrwt>
</event>
<event>
 6    1  0.1295671E-001  0.3000000E+03  0.7818608E-02  0.1093470E+00
         21   -1    0    0  501  502  0.00000000000E+00  0.00000000000E+00  0.34195071750E+01  0.34195071750E+01  0.00000000000E+00 0. -1.
         13   -1    0    0    0    0 -0.00000000000E+00 -0.00000000000E+00 -0.10000000000E+04  0.10000000000E+04  0.00000000000E+00 0.  1.
    9000005    2    1    2  501    0 -0.25247572356E+02 -0.23372388482E+02 -0.90385770132E+03  0.90451943378E+03  0.35990825298E+01 0.  0.
         13    1    3    3    0    0 -0.52779541325E+01 -0.59463018294E+01 -0.24459441528E+03  0.24472360591E+03  0.00000000000E+00 0.  1.
          1    1    3    3  501    0 -0.19969618224E+02 -0.17426086653E+02 -0.65926328604E+03  0.65979582787E+03  0.00000000000E+00 0.  1.
         -3    1    1    2    0  502  0.25247572356E+02  0.23372388482E+02 -0.92722791505E+02  0.98900073396E+02  0.00000000000E+00 0. -1.
<mgrwt>
<rscale>  1 0.30000000E+03</rscale>
<asrwt>0</asrwt>
<pdfrwt beam="1">  1       21 0.12434598E-01 0.30000000E+03</pdfrwt>
<pdfrwt beam="2">0</pdfrwt>
<totfact> 0.58089240E+03</totfact>
</mgrwt>
</event>
<event>
 6    1  0.1295671E-001  0.3000000E+03  0.7818608E-02  0.1093470E+00
         21   -1    0    0  501  502  0.00000000000E+00  0.00000000000E+00  0.11003822356E+01  0.11003822356E+01  0.00000000000E+00 0. -1.
         13   -1    0    0    0    0 -0.00000000000E+00 -0.00000000000E+00 -0.10000000000E+04  0.10000000000E+04  0.00000000000E+00 0.  1.
    9000005    2    1    2  501    0 -0.26618247806E+02 -0.13943381869E+02 -0.70653812583E+03  0.70719871334E+03  0.55630820990E+01 0.  0.
         13    1    3    3    0    0 -0.99442749654E+01 -0.83107587038E+01 -0.29825335805E+03  0.29853479346E+03  0.00000000000E+00 0.  1.
          3    1    3    3  501    0 -0.16673972841E+02 -0.56326231653E+01 -0.40828476778E+03  0.40866391988E+03  0.00000000000E+00 0.  1.
         -1    1    1    2    0  502  0.26618247806E+02  0.13943381869E+02 -0.29236149193E+03  0.29390166890E+03  0.00000000000E+00 0. -1.
<mgrwt>
<rscale>  1 0.30000000E+03</rscale>
<asrwt>0</asrwt>
<pdfrwt beam="1">  1       21 0.40013984E-02 0.30000000E+03</pdfrwt>
<pdfrwt beam="2">0</pdfrwt>
<totfact> 0.42022580E+04</totfact>
</mgrwt>
</event>
<event>
 6    1  0.1295671E-001  0.3000000E+03  0.7818608E-02  0.1093470E+00
         21   -1    0    0  501  502  0.00000000000E+00  0.00000000000E+00  0.91475737119E+00  0.91475737119E+00  0.00000000000E+00 0. -1.
         13   -1    0    0    0    0 -0.00000000000E+00 -0.00000000000E+00 -0.10000000000E+04  0.10000000000E+04  0.00000000000E+00 0.  1.
    9000005    2    1    2  501    0 -0.20631146477E+02 -0.21972809459E+02 -0.51870966383E+03  0.51959454664E+03  0.32138727105E+01 0.  0.
         13    1    3    3    0    0 -0.53406432612E+00 -0.34453856118E+00 -0.21268848535E+02  0.21278342264E+02  0.00000000000E+00 0.  1.
          1    1    3    3  501    0 -0.20097082151E+02 -0.21628270898E+02 -0.49744081530E+03  0.49831620437E+03  0.00000000000E+00 0.  1.
         -1    1    1    2    0  502  0.20631146477E+02  0.21972809459E+02 -0.48037557879E+03  0.48132021074E+03  0.00000000000E+00 0. -1.
<mgrwt>
<rscale>  1 0.30000000E+03</rscale>
<asrwt>0</asrwt>
<pdfrwt beam="1">  1       21 0.33263975E-02 0.30000000E+03</pdfrwt>
<pdfrwt beam="2">0</pdfrwt>
<totfact> 0.57286924E+04</totfact>
</mgrwt>
</event>
<event>
 6    1  0.1295671E-001  0.3000000E+03  0.7818608E-02  0.1093470E+00
         21   -1    0    0  501  502  0.00000000000E+00  0.00000000000E+00  0.66193611915E+01  0.66193611915E+01  0.00000000000E+00 0. -1.
         13   -1    0    0    0    0 -0.00000000000E+00 -0.00000000000E+00 -0.10000000000E+04  0.10000000000E+04  0.00000000000E+00 0.  1.
    9000005    2    1    2  501    0  0.49959649780E+02 -0.58247165696E+02 -0.66354493115E+03  0.66797457242E+03  0.30748695456E+01 0.  0.
         13    1    3    3    0    0  0.31342131924E+02 -0.34424026451E+02 -0.40745958414E+03  0.41011054063E+03  0.00000000000E+00 0.  1.
          3    1    3    3  501    0  0.18617517856E+02 -0.23823139245E+02 -0.25608534701E+03  0.25786403179E+03  0.00000000000E+00 0.  1.
         -1    1    1    2    0  502 -0.49959649780E+02  0.58247165696E+02 -0.32983570766E+03  0.33864478878E+03  0.00000000000E+00 0. -1.
<mgrwt>
<rscale>  1 0.30000000E+03</rscale>
<asrwt>0</asrwt>
<pdfrwt beam="1">  1       21 0.24070455E-01 0.30000000E+03</pdfrwt>
<pdfrwt beam="2">0</pdfrwt>
<totfact> 0.16793014E+03</totfact>
</mgrwt>
</event>
<event>
 6    1  0.1295671E-001  0.3000000E+03  0.7818608E-02  0.1093470E+00
         21   -1    0    0  501  502  0.00000000000E+00  0.00000000000E+00  0.24443431080E+01  0.24443431080E+01  0.00000000000E+00 0. -1.
         13   -1    0    0    0    0 -0.00000000000E+00 -0.00000000000E+00 -0.10000000000E+04  0.10000000000E+04  0.00000000000E+00 0.  1.
    9000005    2    1    2  501    0 -0.41032296568E+02 -0.35457965409E+01 -0.77544038258E+03  0.77654299934E+03  0.38756739792E+01 0.  0.
         13    1    3    3    0    0 -0.94183463926E+01 -0.24381144167E+01 -0.17731190624E+03  0.17757860722E+03  0.00000000000E+00 0.  1.
          3    1    3    3  501    0 -0.31613950176E+02 -0.11076821242E+01 -0.59812847634E+03  0.59896439211E+03  0.00000000000E+00 0.  1.
         -3    1    1    2    0  502  0.41032296568E+02  0.35457965409E+01 -0.22211527431E+03  0.22590134377E+03  0.00000000000E+00 0. -1.
<mgrwt>
<rscale>  1 0.30000000E+03</rscale>
<asrwt>0</asrwt>
<pdfrwt beam="1">  1       21 0.88885391E-02 0.30000000E+03</pdfrwt>
<pdfrwt beam="2">0</pdfrwt>
<totfact> 0.10609636E+04</totfact>
</mgrwt>
</event>
<event>
 6    1  0.1295671E-001  0.3000000E+03  0.7818608E-02  0.1093470E+00
         21   -1    0    0  501  502  0.00000000000E+00  0.00000000000E+00  0.13286935907E+01  0.13286935907E+01  0.00000000000E+00 0. -1.
         13   -1    0    0    0    0 -0.00000000000E+00 -0.00000000000E+00 -0.10000000000E+04  0.10000000000E+04  0.00000000000E+00 0.  1.
    9000005    2    1    2  501    0 -0.33713835490E+02 -0.12631497507E+02 -0.43640086335E+03  0.43790680143E+03  0.45250159599E+01 0.  0.
         13    1    3    3    0    0 -0.94958589249E+01 -0.26953407431E+01 -0.14313977344E+03  0.14347972310E+03  0.00000000000E+00 0.  1.
          1    1    3    3  501    0 -0.24217976565E+02 -0.99361567637E+01 -0.29326108991E+03  0.29442707833E+03  0.00000000000E+00 0.  1.
         -1    1    1    2    0  502  0.33713835490E+02  0.12631497507E+02 -0.56227044306E+03  0.56342189216E+03  0.00000000000E+00 0. -1.
<mgrwt>
<rscale>  1 0.30000000E+03</rscale>
<asrwt>0</asrwt>
<pdfrwt beam="1">  1       21 0.48316232E-02 0.30000000E+03</pdfrwt>
<pdfrwt beam="2">0</pdfrwt>
<totfact> 0.30535389E+04</totfact>
</mgrwt>
</event>
<event>
 6    1  0.1295671E-001  0.3000000E+03  0.7818608E-02  0.1093470E+00
         21   -1    0    0  501  502  0.00000000000E+00  0.00000000000E+00  0.13439726160E+01  0.13439726160E+01  0.00000000000E+00 0. -1.
         13   -1    0    0    0    0 -0.00000000000E+00 -0.00000000000E+00 -0.10000000000E+04  0.10000000000E+04  0.00000000000E+00 0.  1.
    9000005    2    1    2  501    0 -0.58821457954E+01 -0.29661514842E+02 -0.78143270609E+03  0.78202599247E+03  0.36295520045E+01 0.  0.
         13    1    3    3    0    0 -0.14993171250E+01 -0.15521541034E+02 -0.37656815631E+03  0.37689088943E+03  0.00000000000E+00 0.  1.
          1    1    3    3  501    0 -0.43828286703E+01 -0.14139973808E+02 -0.40486454978E+03  0.40513510304E+03  0.00000000000E+00 0.  1.
         -3    1    1    2    0  502  0.58821457954E+01  0.29661514842E+02 -0.21722332129E+03  0.21931798014E+03  0.00000000000E+00 0. -1.
<mgrwt>
<rscale>  1 0.30000000E+03</rscale>
<asrwt>0</asrwt>
<pdfrwt beam="1">  1       21 0.48871835E-02 0.30000000E+03</pdfrwt>
<pdfrwt beam="2">0</pdfrwt>
<totfact> 0.29946746E+04</totfact>
</mgrwt>
</event>
<event>
 6    1  0.1295671E-001  0.3000000E+03  0.7818608E-02  0.1093470E+00
         21   -1    0    0  501  502  0.00000000000E+00  0.00000000000E+00  0.44741450465E+01  0.44741450465E+01  0.00000000000E+00 0. -1.
         13   -1    0    0    0    0 -0.00000000000E+00 -0.00000000000E+00 -0.10000000000E+04  0.10000000000E+04  0.00000000000E+00 0.  1.
    9000005    2    1    2  501    0 -0.32620706247E+02 -0.13563209457E+02 -0.92416090498E+03  0.92484357798E+03  0.37675333155E+01 0.  0.
         13    1    3    3    0    0 -0.32576837668E+02 -0.13327381317E+02 -0.90967325255E+03  0.91035393988E+03  0.00000000000E+00 0.  1.
          1    1    3    3  501    0 -0.43868579433E-01 -0.23582813999E+00 -0.14487652430E+02  0.14489638101E+02  0.00000000000E+00 0.  1.
         -1    1    1    2    0  502  0.32620706247E+02  0.13563209457E+02 -0.71364949972E+02  0.79630567067E+02  0.00000000000E+00 0. -1.
<mgrwt>
<rscale>  1 0.30000000E+03</rscale>
<asrwt>0</asrwt>
<pdfrwt beam="1">  1       21 0.16269653E-01 0.30000000E+03</pdfrwt>
<pdfrwt beam="2">0</pdfrwt>
<totfact> 0.35405658E+03</totfact>
</mgrwt>
</event>
<event>
 6    1  0.1295671E-001  0.3000000E+03  0.7818608E-02  0.1093470E+00
         21   -1    0    0  501  502  0.00000000000E+00  0.00000000000E+00  0.63167616647E+01  0.63167616647E+01  0.00000000000E+00 0. -1.
         13   -1    0    0    0    0 -0.00000000000E+00 -0.00000000000E+00 -0.10000000000E+04  0.10000000000E+04  0.00000000000E+00 0.  1.
    9000005    2    1    2  501    0 -0.12291474251E+02 -0.49001576857E+02 -0.88519561349E+03  0.88664304017E+03  0.35173358514E+01 0.  0.
         13    1    3    3    0    0 -0.90843933724E+01 -0.29447977000E+02 -0.54721958813E+03  0.54808666028E+03  0.00000000000E+00 0.  1.
          3    1    3    3  501    0 -0.32070808787E+01 -0.19553599856E+02 -0.33797602537E+03  0.33855637988E+03  0.00000000000E+00 0.  1.
         -3    1    1    2    0  502  0.12291474251E+02  0.49001576857E+02 -0.10848762484E+03  0.11967372150E+03  0.00000000000E+00 0. -1.
<mgrwt>
<rscale>  1 0.30000000E+03</rscale>
<asrwt>0</asrwt>
<pdfrwt beam="1">  1       21 0.22970091E-01 0.30000000E+03</pdfrwt>
<pdfrwt beam="2">0</pdfrwt>
<totfact> 0.18389015E+03</totfact>
</mgrwt>
</event>
<event>
 6    1  0.1295671E-001  0.3000000E+03  0.7818608E-02  0.1093470E+00
         21   -1    0    0  501  502  0.00000000000E+00  0.00000000000E+00  0.22626594550E+01  0.22626594550E+01  0.00000000000E+00 0. -1.
         13   -1    0    0    0    0 -0.00000000000E+00 -0.00000000000E+00 -0.10000000000E+04  0.10000000000E+04  0.00000000000E+00 0.  1.
    9000005    2    1    2  501    0  0.41838002612E+02 -0.11752152432E+01 -0.73582131518E+03  0.73702351465E+03  0.43420826392E+01 0.  0.
         13    1    3    3    0    0  0.21017509871E+02 -0.73234966980E-01 -0.40630436901E+03  0.40684761442E+03  0.00000000000E+00 0.  1.
          1    1    3    3  501    0  0.20820492741E+02 -0.11019802763E+01 -0.32951694617E+03  0.33017590023E+03  0.00000000000E+00 0.  1.
         -1    1    1    2    0  502 -0.41838002612E+02  0.11752152432E+01 -0.26191602537E+03  0.26523914481E+03  0.00000000000E+00 0. -1.
<mgrwt>
<rscale>  1 0.30000000E+03</rscale>
<asrwt>0</asrwt>
<pdfrwt beam="1">  1       21 0.82278699E-02 0.30000000E+03</pdfrwt>
<pdfrwt beam="2">0</pdfrwt>
<totfact> 0.12158509E+04</totfact>
</mgrwt>
</event>
<event>
 6    1  0.1295671E-001  0.3000000E+03  0.7818608E-02  0.1093470E+00
         21   -1    0    0  501  502  0.00000000000E+00  0.00000000000E+00  0.18590543317E+01  0.18590543317E+01  0.00000000000E+00 0. -1.
         13   -1    0    0    0    0 -0.00000000000E+00 -0.00000000000E+00 -0.10000000000E+04  0.10000000000E+04  0.00000000000E+00 0.  1.
    9000005    2    1    2  501    0  0.28976361014E+02 -0.30930069743E+02 -0.58720112573E+03  0.58873941752E+03  0.35554136908E+01 0.  0.
         13    1    3    3    0    0  0.24867689560E+02 -0.28112541666E+02 -0.51288639669E+03  0.51425788559E+03  0.00000000000E+00 0.  1.
          3    1    3    3  501    0  0.41086714542E+01 -0.28175280767E+01 -0.74314729049E+02  0.74481531934E+02  0.00000000000E+00 0.  1.
         -3    1    1    2    0  502 -0.28976361014E+02  0.30930069743E+02 -0.41093981993E+03  0.41311963681E+03  0.00000000000E+00 0. -1.
<mgrwt>
<rscale>  1 0.30000000E+03</rscale>
<asrwt>0</asrwt>
<pdfrwt beam="1">  1       21 0.67602118E-02 0.30000000E+03</pdfrwt>
<pdfrwt beam="2">0</pdfrwt>
<totfact> 0.17142966E+04</totfact>
</mgrwt>
</event>
<event>
 6    1  0.1295671E-001  0.3000000E+03  0.7818608E-02  0.1093470E+00
         21   -1    0    0  501  502  0.00000000000E+00  0.00000000000E+00  0.16817096871E+01  0.16817096871E+01  0.00000000000E+00 0. -1.
         13   -1    0    0    0    0 -0.00000000000E+00 -0.00000000000E+00 -0.10000000000E+04  0.10000000000E+04  0.00000000000E+00 0.  1.
    9000005    2    1    2  501    0 -0.46205092033E+01  0.34809675347E+02 -0.75689021644E+03  0.75771331530E+03  0.36886102826E+01 0.  0.
         13    1    3    3    0    0 -0.15706242462E+01  0.10977518102E+02 -0.27728206623E+03  0.27750372433E+03  0.00000000000E+00 0.  1.
          1    1    3    3  501    0 -0.30498849571E+01  0.23832157246E+02 -0.47960815021E+03  0.48020959098E+03  0.00000000000E+00 0.  1.
         -3    1    1    2    0  502  0.46205092033E+01 -0.34809675347E+02 -0.24142807387E+03  0.24396839438E+03  0.00000000000E+00 0. -1.
<mgrwt>
<rscale>  1 0.30000000E+03</rscale>
<asrwt>0</asrwt>
<pdfrwt beam="1">  1       21 0.61153208E-02 0.30000000E+03</pdfrwt>
<pdfrwt beam="2">0</pdfrwt>
<totfact> 0.20390786E+04</totfact>
</mgrwt>
</event>
<event>
 6    1  0.1295671E-001  0.3000000E+03  0.7818608E-02  0.1093470E+00
         21   -1    0    0  501  502  0.00000000000E+00  0.00000000000E+00  0.60397034032E+01  0.60397034032E+01  0.00000000000E+00 0. -1.
         13   -1    0    0    0    0 -0.00000000000E+00 -0.00000000000E+00 -0.10000000000E+04  0.10000000000E+04  0.00000000000E+00 0.  1.
    9000005    2    1    2  501    0 -0.84048678129E+01  0.31887705417E+02 -0.95243340429E+03  0.95301187727E+03  0.38446132701E+01 0.  0.
         13    1    3    3    0    0 -0.71204900095E+01  0.22609465964E+02 -0.64319000514E+03  0.64362665579E+03  0.00000000000E+00 0.  1.
          1    1    3    3  501    0 -0.12843778033E+01  0.92782394529E+01 -0.30924339915E+03  0.30938522148E+03  0.00000000000E+00 0.  1.
         -1    1    1    2    0  502  0.84048678129E+01 -0.31887705417E+02 -0.41526892306E+02  0.53027826132E+02  0.00000000000E+00 0. -1.
<mgrwt>
<rscale>  1 0.30000000E+03</rscale>
<asrwt>0</asrwt>
<pdfrwt beam="1">  1       21 0.21962604E-01 0.30000000E+03</pdfrwt>
<pdfrwt beam="2">0</pdfrwt>
<totfact> 0.20051499E+03</totfact>
</mgrwt>
</event>
<event>
 6    1  0.1295671E-001  0.3000000E+03  0.7818608E-02  0.1093470E+00
         21   -1    0    0  501  502  0.00000000000E+00  0.00000000000E+00  0.18402218130E+01  0.18402218130E+01  0.00000000000E+00 0. -1.
         13   -1    0    0    0    0 -0.00000000000E+00 -0.00000000000E+00 -0.10000000000E+04  0.10000000000E+04  0.00000000000E+00 0.  1.
    9000005    2    1    2  501    0  0.26462226200E+02 -0.20444721827E+02 -0.81239332514E+03  0.81308797376E+03  0.33018602255E+01 0.  0.
         13    1    3    3    0    0  0.12319441854E+02 -0.79254820708E+01 -0.38035967774E+03  0.38064165086E+03  0.00000000000E+00 0.  1.
          3    1    3    3  501    0  0.14142784346E+02 -0.12519239756E+02 -0.43203364739E+03  0.43244632290E+03  0.00000000000E+00 0.  1.
         -3    1    1    2    0  502 -0.26462226200E+02  0.20444721827E+02 -0.18576645305E+03  0.18875224805E+03  0.00000000000E+00 0. -1.
<mgrwt>
<rscale>  1 0.30000000E+03</rscale>
<asrwt>0</asrwt>
<pdfrwt beam="1">  1       21 0.66917298E-02 0.30000000E+03</pdfrwt>
<pdfrwt beam="2">0</pdfrwt>
<totfact> 0.17448524E+04</totfact>
</mgrwt>
</event>
<event>
 6    1  0.1295671E-001  0.3000000E+03  0.7818608E-02  0.1093470E+00
         21   -1    0    0  501  502  0.00000000000E+00  0.00000000000E+00  0.14551850621E+01  0.14551850621E+01  0.00000000000E+00 0. -1.
         13   -1    0    0    0    0 -0.00000000000E+00 -0.00000000000E+00 -0.10000000000E+04  0.10000000000E+04  0.00000000000E+00 0.  1.
    9000005    2    1    2  501    0 -0.94682186609E+01  0.33886183663E+02 -0.69134990533E+03  0.69225196209E+03  0.31885433605E+01 0.  0.
         13    1    3    3    0    0 -0.43100220845E+01  0.20977681117E+02 -0.41056742571E+03  0.41112558963E+03  0.00000000000E+00 0.  1.
          3    1    3    3  501    0 -0.51581965764E+01  0.12908502546E+02 -0.28078247962E+03  0.28112637246E+03  0.00000000000E+00 0.  1.
         -1    1    1    2    0  502  0.94682186609E+01 -0.33886183663E+02 -0.30719490960E+03  0.30920322297E+03  0.00000000000E+00 0. -1.
<mgrwt>
<rscale>  1 0.30000000E+03</rscale>
<asrwt>0</asrwt>
<pdfrwt beam="1">  1       21 0.52915932E-02 0.30000000E+03</pdfrwt>
<pdfrwt beam="2">0</pdfrwt>
<totfact> 0.26147757E+04</totfact>
</mgrwt>
</event>
<event>
 6    1  0.1295671E-001  0.3000000E+03  0.7818608E-02  0.1093470E+00
         21   -1    0    0  501  502  0.00000000000E+00  0.00000000000E+00  0.12426889850E+01  0.12426889850E+01  0.00000000000E+00 0. -1.
         13   -1    0    0    0    0 -0.00000000000E+00 -0.00000000000E+00 -0.10000000000E+04  0.10000000000E+04  0.00000000000E+00 0.  1.
    9000005    2    1    2  501    0  0.10508602930E+02  0.31235034802E+02 -0.67473832633E+03  0.67555209874E+03  0.35736487856E+01 0.  0.
         13    1    3    3    0    0  0.61253548032E+01  0.22401950884E+02 -0.45399649416E+03  0.45459012757E+03  0.00000000000E+00 0.  1.
          3    1    3    3  501    0  0.43832481266E+01  0.88330839178E+01 -0.22074183216E+03  0.22096197117E+03  0.00000000000E+00 0.  1.
         -3    1    1    2    0  502 -0.10508602930E+02 -0.31235034802E+02 -0.32401898469E+03  0.32569059024E+03  0.00000000000E+00 0. -1.
<mgrwt>
<rscale>  1 0.30000000E+03</rscale>
<asrwt>0</asrwt>
<pdfrwt beam="1">  1       21 0.45188786E-02 0.30000000E+03</pdfrwt>
<pdfrwt beam="2">0</pdfrwt>
<totfact> 0.34214224E+04</totfact>
</mgrwt>
</event>
<event>
 6    1  0.1295671E-001  0.3000000E+03  0.7818608E-02  0.1093470E+00
         21   -1    0    0  501  502  0.00000000000E+00  0.00000000000E+00  0.42703796656E+01  0.42703796656E+01  0.00000000000E+00 0. -1.
         13   -1    0    0    0    0 -0.00000000000E+00 -0.00000000000E+00 -0.10000000000E+04  0.10000000000E+04  0.00000000000E+00 0.  1.
    9000005    2    1    2  501    0  0.94119042088E+01  0.47320520185E+02 -0.83640370947E+03  0.83779947697E+03  0.29971361444E+01 0.  0.
         13    1    3    3    0    0  0.73142431250E+01  0.31486173685E+02 -0.54287747885E+03  0.54383897831E+03  0.00000000000E+00 0.  1.
          3    1    3    3  501    0  0.20976610838E+01  0.15834346499E+02 -0.29352623062E+03  0.29396049867E+03  0.00000000000E+00 0.  1.
         -1    1    1    2    0  502 -0.94119042088E+01 -0.47320520185E+02 -0.15932591086E+03  0.16647090269E+03  0.00000000000E+00 0. -1.
<mgrwt>
<rscale>  1 0.30000000E+03</rscale>
<asrwt>0</asrwt>
<pdfrwt beam="1">  1       21 0.15528686E-01 0.30000000E+03</pdfrwt>
<pdfrwt beam="2">0</pdfrwt>
<totfact> 0.38617683E+03</totfact>
</mgrwt>
</event>
<event>
 6    1  0.1295671E-001  0.3000000E+03  0.7818608E-02  0.1093470E+00
         21   -1    0    0  501  502  0.00000000000E+00  0.00000000000E+00  0.17116293605E+01  0.17116293605E+01  0.00000000000E+00 0. -1.
         13   -1    0    0    0    0 -0.00000000000E+00 -0.00000000000E+00 -0.10000000000E+04  0.10000000000E+04  0.00000000000E+00 0.  1.
    9000005    2    1    2  501    0  0.23175874358E+02  0.21728810618E+02 -0.81956679347E+03  0.82018845037E+03  0.31784912570E+01 0.  0.
         13    1    3    3    0    0  0.61094095468E+01  0.77054559052E+01 -0.24577522550E+03  0.24597186913E+03  0.00000000000E+00 0.  1.
          3    1    3    3  501    0  0.17066464811E+02  0.14023354712E+02 -0.57379156797E+03  0.57421658124E+03  0.00000000000E+00 0.  1.
         -3    1    1    2    0  502 -0.23175874358E+02 -0.21728810618E+02 -0.17872157717E+03  0.18152317899E+03  0.00000000000E+00 0. -1.
<mgrwt>
<rscale>  1 0.30000000E+03</rscale>
<asrwt>0</asrwt>
<pdfrwt beam="1">  1       21 0.62241199E-02 0.30000000E+03</pdfrwt>
<pdfrwt beam="2">0</pdfrwt>
<totfact> 0.19779246E+04</totfact>
</mgrwt>
</event>
<event>
 6    1  0.1295671E-001  0.3000000E+03  0.7818608E-02  0.1093470E+00
         21   -1    0    0  501  502  0.00000000000E+00  0.00000000000E+00  0.99693382615E+00  0.99693382615E+00  0.00000000000E+00 0. -1.
         13   -1    0    0    0    0 -0.00000000000E+00 -0.00000000000E+00 -0.10000000000E+04  0.10000000000E+04  0.00000000000E+00 0.  1.
    9000005    2    1    2  501    0 -0.30666725685E+02 -0.15597725875E+01 -0.53178779973E+03  0.53277371126E+03  0.10328722582E+02 0.  0.
         13    1    3    3    0    0 -0.19180354218E+02 -0.28765248352E+01 -0.40354605304E+03  0.40401185293E+03  0.00000000000E+00 0.  1.
          1    1    3    3  501    0 -0.11486371467E+02  0.13167522477E+01 -0.12824174669E+03  0.12876185833E+03  0.00000000000E+00 0.  1.
         -1    1    1    2    0  502  0.30666725685E+02  0.15597725875E+01 -0.46721526644E+03  0.46822322257E+03  0.00000000000E+00 0. -1.
<mgrwt>
<rscale>  1 0.30000000E+03</rscale>
<asrwt>0</asrwt>
<pdfrwt beam="1">  1       21 0.36252216E-02 0.30000000E+03</pdfrwt>
<pdfrwt beam="2">0</pdfrwt>
<totfact> 0.49606060E+04</totfact>
</mgrwt>
</event>
<event>
 6    1  0.1295671E-001  0.3000000E+03  0.7818608E-02  0.1093470E+00
         21   -1    0    0  501  502  0.00000000000E+00  0.00000000000E+00  0.57089033815E+01  0.57089033815E+01  0.00000000000E+00 0. -1.
         13   -1    0    0    0    0 -0.00000000000E+00 -0.00000000000E+00 -0.10000000000E+04  0.10000000000E+04  0.00000000000E+00 0.  1.
    9000005    2    1    2  501    0 -0.17713771421E+02 -0.53004116763E+02 -0.83543276395E+03  0.83730705081E+03  0.34612368566E+01 0.  0.
         13    1    3    3    0    0 -0.96837880648E+00 -0.57458172067E+01 -0.79142254088E+02  0.79356465112E+02  0.00000000000E+00 0.  1.
          1    1    3    3  501    0 -0.16745392615E+02 -0.47258299556E+02 -0.75629050986E+03  0.75795058570E+03  0.00000000000E+00 0.  1.
         -3    1    1    2    0  502  0.17713771421E+02  0.53004116763E+02 -0.15885833267E+03  0.16840185257E+03  0.00000000000E+00 0. -1.
<mgrwt>
<rscale>  1 0.30000000E+03</rscale>
<asrwt>0</asrwt>
<pdfrwt beam="1">  1       21 0.20759692E-01 0.30000000E+03</pdfrwt>
<pdfrwt beam="2">0</pdfrwt>
<totfact> 0.22341483E+03</totfact>
</mgrwt>
</event>
<event>
 6    1  0.1295671E-001  0.3000000E+03  0.7818608E-02  0.1093470E+00
         21   -1    0    0  501  502  0.00000000000E+00  0.00000000000E+00  0.12333566464E+01  0.12333566464E+01  0.00000000000E+00 0. -1.
         13   -1    0    0    0    0 -0.00000000000E+00 -0.00000000000E+00 -0.10000000000E+04  0.10000000000E+04  0.00000000000E+00 0.  1.
    9000005    2    1    2  501    0  0.12189515955E+02  0.28669066553E+02 -0.27831769570E+03  0.28011118541E+03  0.55710658520E+01 0.  0.
         13    1    3    3    0    0  0.27472464585E+01  0.76701437873E+01 -0.53374530523E+02  0.53992767825E+02  0.00000000000E+00 0.  1.
          3    1    3    3  501    0  0.94422694967E+01  0.20998922765E+02 -0.22494316518E+03  0.22611841759E+03  0.00000000000E+00 0.  1.
         -1    1    1    2    0  502 -0.12189515955E+02 -0.28669066553E+02 -0.72044894765E+03  0.72112217124E+03  0.00000000000E+00 0. -1.
<mgrwt>
<rscale>  1 0.30000000E+03</rscale>
<asrwt>0</asrwt>
<pdfrwt beam="1">  1       21 0.44849427E-02 0.30000000E+03</pdfrwt>
<pdfrwt beam="2">0</pdfrwt>
<totfact> 0.34654700E+04</totfact>
</mgrwt>
</event>
<event>
 6    1  0.1295671E-001  0.3000000E+03  0.7818608E-02  0.1093470E+00
         21   -1    0    0  501  502  0.00000000000E+00  0.00000000000E+00  0.18567186677E+01  0.18567186677E+01  0.00000000000E+00 0. -1.
         13   -1    0    0    0    0 -0.00000000000E+00 -0.00000000000E+00 -0.10000000000E+04  0.10000000000E+04  0.00000000000E+00 0.  1.
    9000005    2    1    2  501    0 -0.38163913548E+02 -0.19774596293E+02 -0.52888107413E+03  0.53063008735E+03  0.23622173617E+01 0.  0.
         13    1    3    3    0    0 -0.18574585693E+02 -0.98373187481E+01 -0.27299988375E+03  0.27380782421E+03  0.00000000000E+00 0.  1.
          3    1    3    3  501    0 -0.19589327855E+02 -0.99372775445E+01 -0.25588119038E+03  0.25682226314E+03  0.00000000000E+00 0.  1.
         -1    1    1    2    0  502  0.38163913548E+02  0.19774596293E+02 -0.46926220720E+03  0.47122663132E+03  0.00000000000E+00 0. -1.
<mgrwt>
<rscale>  1 0.30000000E+03</rscale>
<asrwt>0</asrwt>
<pdfrwt beam="1">  1       21 0.67517185E-02 0.30000000E+03</pdfrwt>
<pdfrwt beam="2">0</pdfrwt>
<totfact> 0.17180414E+04</totfact>
</mgrwt>
</event>
<event>
 6    1  0.1295671E-001  0.3000000E+03  0.7818608E-02  0.1093470E+00
         21   -1    0    0  501  502  0.00000000000E+00  0.00000000000E+00  0.24017011889E+01  0.24017011889E+01  0.00000000000E+00 0. -1.
         13   -1    0    0    0    0 -0.00000000000E+00 -0.00000000000E+00 -0.10000000000E+04  0.10000000000E+04  0.00000000000E+00 0.  1.
    9000005    2    1    2  501    0 -0.89330667136E+01  0.38132931162E+02 -0.19935627749E+03  0.20319944599E+03  0.36289604736E+01 0.  0.
         13    1    3    3    0    0 -0.47066899572E+01  0.22743032583E+02 -0.10935394613E+03  0.11179304090E+03  0.00000000000E+00 0.  1.
          1    1    3    3  501    0 -0.42263767564E+01  0.15389898578E+02 -0.90002331366E+02  0.91406405082E+02  0.00000000000E+00 0.  1.
         -1    1    1    2    0  502  0.89330667136E+01 -0.38132931162E+02 -0.79824202132E+03  0.79920225520E+03  0.00000000000E+00 0. -1.
<mgrwt>
<rscale>  1 0.30000000E+03</rscale>
<asrwt>0</asrwt>
<pdfrwt beam="1">  1       21 0.87334773E-02 0.30000000E+03</pdfrwt>
<pdfrwt beam="2">0</pdfrwt>
<totfact> 0.10945017E+04</totfact>
</mgrwt>
</event>
<event>
 6    1  0.1295671E-001  0.3000000E+03  0.7818608E-02  0.1093470E+00
         21   -1    0    0  501  502  0.00000000000E+00  0.00000000000E+00  0.13809132261E+01  0.13809132261E+01  0.00000000000E+00 0. -1.
         13   -1    0    0    0    0 -0.00000000000E+00 -0.00000000000E+00 -0.10000000000E+04  0.10000000000E+04  0.00000000000E+00 0.  1.
    9000005    2    1    2  501    0  0.23374232876E+01  0.36421288614E+02 -0.41146610597E+03  0.41309476119E+03  0.33093122549E+01 0.  0.
         13    1    3    3    0    0  0.27797572817E+01  0.27686577573E+02 -0.32385313084E+03  0.32504634128E+03  0.00000000000E+00 0.  1.
          1    1    3    3  501    0 -0.44233399409E+00  0.87347110417E+01 -0.87612975137E+02  0.88048419910E+02  0.00000000000E+00 0.  1.
         -1    1    1    2    0  502 -0.23374232876E+01 -0.36421288614E+02 -0.58715298080E+03  0.58828615203E+03  0.00000000000E+00 0. -1.
<mgrwt>
<rscale>  1 0.30000000E+03</rscale>
<asrwt>0</asrwt>
<pdfrwt beam="1">  1       21 0.50215132E-02 0.30000000E+03</pdfrwt>
<pdfrwt beam="2">0</pdfrwt>
<totfact> 0.28594579E+04</totfact>
</mgrwt>
</event>
<event>
 6    1  0.1295671E-001  0.3000000E+03  0.7818608E-02  0.1093470E+00
         21   -1    0    0  501  502  0.00000000000E+00  0.00000000000E+00  0.25171422795E+01  0.25171422795E+01  0.00000000000E+00 0. -1.
         13   -1    0    0    0    0 -0.00000000000E+00 -0.00000000000E+00 -0.10000000000E+04  0.10000000000E+04  0.00000000000E+00 0.  1.
    9000005    2    1    2  501    0 -0.28564555563E+02 -0.34105870583E+02 -0.72988712720E+03  0.73124860515E+03  0.31874505611E+01 0.  0.
         13    1    3    3    0    0 -0.12383641689E+02 -0.12622209265E+02 -0.30120461957E+03  0.30172321355E+03  0.00000000000E+00 0.  1.
          3    1    3    3  501    0 -0.16180913874E+02 -0.21483661317E+02 -0.42868250763E+03  0.42952539159E+03  0.00000000000E+00 0.  1.
         -3    1    1    2    0  502  0.28564555563E+02  0.34105870583E+02 -0.26759573053E+03  0.27126853713E+03  0.00000000000E+00 0. -1.
<mgrwt>
<rscale>  1 0.30000000E+03</rscale>
<asrwt>0</asrwt>
<pdfrwt beam="1">  1       21 0.91532640E-02 0.30000000E+03</pdfrwt>
<pdfrwt beam="2">0</pdfrwt>
<totfact> 0.10071978E+04</totfact>
</mgrwt>
</event>
<event>
 6    1  0.1295671E-001  0.3000000E+03  0.7818608E-02  0.1093470E+00
         21   -1    0    0  501  502  0.00000000000E+00  0.00000000000E+00  0.35153900353E+01  0.35153900353E+01  0.00000000000E+00 0. -1.
         13   -1    0    0    0    0 -0.00000000000E+00 -0.00000000000E+00 -0.10000000000E+04  0.10000000000E+04  0.00000000000E+00 0.  1.
    9000005    2    1    2  501    0  0.58538441331E+01 -0.33599816759E+02 -0.90859975844E+03  0.90924470368E+03  0.30323201578E+01 0.  0.
         13    1    3    3    0    0  0.24772247535E+01 -0.20451940308E+02 -0.52005584443E+03  0.52046373537E+03  0.00000000000E+00 0.  1.
          3    1    3    3  501    0  0.33766193796E+01 -0.13147876451E+02 -0.38854391401E+03  0.38878096832E+03  0.00000000000E+00 0.  1.
         -1    1    1    2    0  502 -0.58538441331E+01  0.33599816759E+02 -0.87884851526E+02  0.94270686351E+02  0.00000000000E+00 0. -1.
<mgrwt>
<rscale>  1 0.30000000E+03</rscale>
<asrwt>0</asrwt>
<pdfrwt beam="1">  1       21 0.12783263E-01 0.30000000E+03</pdfrwt>
<pdfrwt beam="2">0</pdfrwt>
<totfact> 0.55234319E+03</totfact>
</mgrwt>
</event>
<event>
 6    1  0.1295671E-001  0.3000000E+03  0.7818608E-02  0.1093470E+00
         21   -1    0    0  501  502  0.00000000000E+00  0.00000000000E+00  0.24580208107E+01  0.24580208107E+01  0.00000000000E+00 0. -1.
         13   -1    0    0    0    0 -0.00000000000E+00 -0.00000000000E+00 -0.10000000000E+04  0.10000000000E+04  0.00000000000E+00 0.  1.
    9000005    2    1    2  501    0  0.18473556265E+02  0.37431956350E+02 -0.76873111148E+03  0.76987075371E+03  0.33214481215E+01 0.  0.
         13    1    3    3    0    0  0.45265569173E+01  0.66777919766E+01 -0.16161222093E+03  0.16181344993E+03  0.00000000000E+00 0.  1.
          3    1    3    3  501    0  0.13946999348E+02  0.30754164373E+02 -0.60711889055E+03  0.60805730378E+03  0.00000000000E+00 0.  1.
         -3    1    1    2    0  502 -0.18473556265E+02 -0.37431956350E+02 -0.22881086770E+03  0.23258726710E+03  0.00000000000E+00 0. -1.
<mgrwt>
<rscale>  1 0.30000000E+03</rscale>
<asrwt>0</asrwt>
<pdfrwt beam="1">  1       21 0.89382763E-02 0.30000000E+03</pdfrwt>
<pdfrwt beam="2">0</pdfrwt>
<totfact> 0.10505356E+04</totfact>
</mgrwt>
</event>
<event>
 6    1  0.1295671E-001  0.3000000E+03  0.7818608E-02  0.1093470E+00
         21   -1    0    0  501  502  0.00000000000E+00  0.00000000000E+00  0.67872174385E+01  0.67872174385E+01  0.00000000000E+00 0. -1.
         13   -1    0    0    0    0 -0.00000000000E+00 -0.00000000000E+00 -0.10000000000E+04  0.10000000000E+04  0.00000000000E+00 0.  1.
    9000005    2    1    2  501    0 -0.23603246807E+02 -0.28832948999E+02 -0.94552987911E+03  0.94627183519E+03  0.38963525463E+01 0.  0.
         13    1    3    3    0    0 -0.89387275761E+01 -0.11424725882E+02 -0.41644715840E+03  0.41669972516E+03  0.00000000000E+00 0.  1.
          1    1    3    3  501    0 -0.14664519231E+02 -0.17408223117E+02 -0.52908272072E+03  0.52957211003E+03  0.00000000000E+00 0.  1.
         -1    1    1    2    0  502  0.23603246807E+02  0.28832948999E+02 -0.47682903447E+02  0.60515382251E+02  0.00000000000E+00 0. -1.
<mgrwt>
<rscale>  1 0.30000000E+03</rscale>
<asrwt>0</asrwt>
<pdfrwt beam="1">  1       21 0.24680843E-01 0.30000000E+03</pdfrwt>
<pdfrwt beam="2">0</pdfrwt>
<totfact> 0.15992757E+03</totfact>
</mgrwt>
</event>
<event>
 6    1  0.1295671E-001  0.3000000E+03  0.7818608E-02  0.1093470E+00
         21   -1    0    0  501  502  0.00000000000E+00  0.00000000000E+00  0.40202399708E+01  0.40202399708E+01  0.00000000000E+00 0. -1.
         13   -1    0    0    0    0 -0.00000000000E+00 -0.00000000000E+00 -0.10000000000E+04  0.10000000000E+04  0.00000000000E+00 0.  1.
    9000005    2    1    2  501    0  0.51671493460E+02  0.29096710845E+02 -0.67487126728E+03  0.67748199422E+03  0.37501042830E+01 0.  0.
         13    1    3    3    0    0  0.54810840258E+01  0.43718075486E+01 -0.74650207001E+02  0.74978719572E+02  0.00000000000E+00 0.  1.
          1    1    3    3  501    0  0.46190409434E+02  0.24724903296E+02 -0.60022106028E+03  0.60250327465E+03  0.00000000000E+00 0.  1.
         -1    1    1    2    0  502 -0.51671493460E+02 -0.29096710845E+02 -0.32110849275E+03  0.32653824575E+03  0.00000000000E+00 0. -1.
<mgrwt>
<rscale>  1 0.30000000E+03</rscale>
<asrwt>0</asrwt>
<pdfrwt beam="1">  1       21 0.14619085E-01 0.30000000E+03</pdfrwt>
<pdfrwt beam="2">0</pdfrwt>
<totfact> 0.43185270E+03</totfact>
</mgrwt>
</event>
<event>
 6    1  0.1295671E-001  0.3000000E+03  0.7818608E-02  0.1093470E+00
         21   -1    0    0  501  502  0.00000000000E+00  0.00000000000E+00  0.26402271986E+01  0.26402271986E+01  0.00000000000E+00 0. -1.
         13   -1    0    0    0    0 -0.00000000000E+00 -0.00000000000E+00 -0.10000000000E+04  0.10000000000E+04  0.00000000000E+00 0.  1.
    9000005    2    1    2  501    0  0.28771116773E+02  0.29222015323E+02 -0.79821050260E+03  0.79931257251E+03  0.88813720593E+01 0.  0.
         13    1    3    3    0    0  0.20015177532E+01  0.57807142459E+01 -0.88979894892E+02  0.89189934553E+02  0.00000000000E+00 0.  1.
          1    1    3    3  501    0  0.26769599020E+02  0.23441301077E+02 -0.70923060771E+03  0.71012263796E+03  0.00000000000E+00 0.  1.
         -3    1    1    2    0  502 -0.28771116773E+02 -0.29222015323E+02 -0.19914927020E+03  0.20332765469E+03  0.00000000000E+00 0. -1.
<mgrwt>
<rscale>  1 0.30000000E+03</rscale>
<asrwt>0</asrwt>
<pdfrwt beam="1">  1       21 0.96008464E-02 0.30000000E+03</pdfrwt>
<pdfrwt beam="2">0</pdfrwt>
<totfact> 0.92519571E+03</totfact>
</mgrwt>
</event>
<event>
 6    1  0.1295671E-001  0.3000000E+03  0.7818608E-02  0.1093470E+00
         21   -1    0    0  501  502  0.00000000000E+00  0.00000000000E+00  0.18687093585E+01  0.18687093585E+01  0.00000000000E+00 0. -1.
         13   -1    0    0    0    0 -0.00000000000E+00 -0.00000000000E+00 -0.10000000000E+04  0.10000000000E+04  0.00000000000E+00 0.  1.
    9000005    2    1    2  501    0  0.14497315396E+02  0.35118741437E+02 -0.73673603070E+03  0.73772673982E+03  0.41551840215E+01 0.  0.
         13    1    3    3    0    0  0.88389246625E+01  0.17119496733E+02 -0.34753425611E+03  0.34806789988E+03  0.00000000000E+00 0.  1.
          3    1    3    3  501    0  0.56583907333E+01  0.17999244704E+02 -0.38920177459E+03  0.38965883994E+03  0.00000000000E+00 0.  1.
         -1    1    1    2    0  502 -0.14497315396E+02 -0.35118741437E+02 -0.26139525994E+03  0.26414196954E+03  0.00000000000E+00 0. -1.
<mgrwt>
<rscale>  1 0.30000000E+03</rscale>
<asrwt>0</asrwt>
<pdfrwt beam="1">  1       21 0.67953211E-02 0.30000000E+03</pdfrwt>
<pdfrwt beam="2">0</pdfrwt>
<totfact> 0.16989490E+04</totfact>
</mgrwt>
</event>
<event>
 6    1  0.1295671E-001  0.3000000E+03  0.7818608E-02  0.1093470E+00
         21   -1    0    0  501  502  0.00000000000E+00  0.00000000000E+00  0.27495095329E+01  0.27495095329E+01  0.00000000000E+00 0. -1.
         13   -1    0    0    0    0 -0.00000000000E+00 -0.00000000000E+00 -0.10000000000E+04  0.10000000000E+04  0.00000000000E+00 0.  1.
    9000005    2    1    2  501    0 -0.31918900734E+02 -0.24264021758E+02 -0.82140920937E+03  0.82239509424E+03  0.36114851238E+01 0.  0.
         13    1    3    3    0    0 -0.31046732838E+02 -0.22816128335E+02 -0.77902961671E+03  0.77998180686E+03  0.00000000000E+00 0.  1.
          1    1    3    3  501    0 -0.87216789620E+00 -0.14478934225E+01 -0.42379592662E+02  0.42413287381E+02  0.00000000000E+00 0.  1.
         -3    1    1    2    0  502  0.31918900734E+02  0.24264021758E+02 -0.17584128110E+03  0.18035441529E+03  0.00000000000E+00 0. -1.
<mgrwt>
<rscale>  1 0.30000000E+03</rscale>
<asrwt>0</asrwt>
<pdfrwt beam="1">  1       21 0.99982376E-02 0.30000000E+03</pdfrwt>
<pdfrwt beam="2">0</pdfrwt>
<totfact> 0.86059076E+03</totfact>
</mgrwt>
</event>
<event>
 6    1  0.1295671E-001  0.3000000E+03  0.7818608E-02  0.1093470E+00
         21   -1    0    0  501  502  0.00000000000E+00  0.00000000000E+00  0.17103588509E+01  0.17103588509E+01  0.00000000000E+00 0. -1.
         13   -1    0    0    0    0 -0.00000000000E+00 -0.00000000000E+00 -0.10000000000E+04  0.10000000000E+04  0.00000000000E+00 0.  1.
    9000005    2    1    2  501    0 -0.28982585282E+02 -0.27063438542E+02 -0.36109560396E+03  0.36328365124E+03  0.35434597778E+01 0.  0.
         13    1    3    3    0    0  0.10063137154E+00 -0.52680986417E-01 -0.73055102071E+00  0.73932858265E+00  0.00000000000E+00 0.  1.
          3    1    3    3  501    0 -0.29083216653E+02 -0.27010757555E+02 -0.36036505294E+03  0.36254432266E+03  0.00000000000E+00 0.  1.
         -3    1    1    2    0  502  0.28982585282E+02  0.27063438542E+02 -0.63719403719E+03  0.63842670761E+03  0.00000000000E+00 0. -1.
<mgrwt>
<rscale>  1 0.30000000E+03</rscale>
<asrwt>0</asrwt>
<pdfrwt beam="1">  1       21 0.62194998E-02 0.30000000E+03</pdfrwt>
<pdfrwt beam="2">0</pdfrwt>
<totfact> 0.19804633E+04</totfact>
</mgrwt>
</event>
<event>
 6    1  0.1295671E-001  0.3000000E+03  0.7818608E-02  0.1093470E+00
         21   -1    0    0  501  502  0.00000000000E+00  0.00000000000E+00  0.44476145206E+01  0.44476145206E+01  0.00000000000E+00 0. -1.
         13   -1    0    0    0    0 -0.00000000000E+00 -0.00000000000E+00 -0.10000000000E+04  0.10000000000E+04  0.00000000000E+00 0.  1.
    9000005    2    1    2  501    0 -0.63249990676E+01 -0.33062564207E+02 -0.93127481305E+03  0.93188905139E+03  0.33597511121E+01 0.  0.
         13    1    3    3    0    0  0.73688756252E-01 -0.65266165828E+01 -0.18663660715E+03  0.18675070357E+03  0.00000000000E+00 0.  1.
          3    1    3    3  501    0 -0.63986878239E+01 -0.26535947624E+02 -0.74463820590E+03  0.74513834783E+03  0.00000000000E+00 0.  1.
         -1    1    1    2    0  502  0.63249990676E+01  0.33062564207E+02 -0.64277572432E+02  0.72558563126E+02  0.00000000000E+00 0. -1.
<mgrwt>
<rscale>  1 0.30000000E+03</rscale>
<asrwt>0</asrwt>
<pdfrwt beam="1">  1       21 0.16173178E-01 0.30000000E+03</pdfrwt>
<pdfrwt beam="2">0</pdfrwt>
<totfact> 0.35800729E+03</totfact>
</mgrwt>
</event>
<event>
 6    1  0.1295671E-001  0.3000000E+03  0.7818608E-02  0.1093470E+00
         21   -1    0    0  501  502  0.00000000000E+00  0.00000000000E+00  0.14635975550E+01  0.14635975550E+01  0.00000000000E+00 0. -1.
         13   -1    0    0    0    0 -0.00000000000E+00 -0.00000000000E+00 -0.10000000000E+04  0.10000000000E+04  0.00000000000E+00 0.  1.
    9000005    2    1    2  501    0  0.96793975381E-02 -0.31529917393E+02 -0.78220105086E+03  0.78284264675E+03  0.31606681366E+01 0.  0.
         13    1    3    3    0    0 -0.88558834697E+00 -0.21707569754E+02 -0.56575739456E+03  0.56617438334E+03  0.00000000000E+00 0.  1.
          1    1    3    3  501    0  0.89526774450E+00 -0.98223476385E+01 -0.21644365630E+03  0.21666826341E+03  0.00000000000E+00 0.  1.
         -1    1    1    2    0  502 -0.96793975381E-02  0.31529917393E+02 -0.21633535159E+03  0.21862095080E+03  0.00000000000E+00 0. -1.
<mgrwt>
<rscale>  1 0.30000000E+03</rscale>
<asrwt>0</asrwt>
<pdfrwt beam="1">  1       21 0.53221842E-02 0.30000000E+03</pdfrwt>
<pdfrwt beam="2">0</pdfrwt>
<totfact> 0.25891212E+04</totfact>
</mgrwt>
</event>
<event>
 6    1  0.1295671E-001  0.3000000E+03  0.7818608E-02  0.1093470E+00
         21   -1    0    0  501  502  0.00000000000E+00  0.00000000000E+00  0.93814255319E+00  0.93814255319E+00  0.00000000000E+00 0. -1.
         13   -1    0    0    0    0 -0.00000000000E+00 -0.00000000000E+00 -0.10000000000E+04  0.10000000000E+04  0.00000000000E+00 0.  1.
    9000005    2    1    2  501    0 -0.45926982923E+01  0.30121692717E+02 -0.46989990252E+03  0.47089966867E+03  0.34885985253E+01 0.  0.
         13    1    3    3    0    0 -0.18510062265E+01  0.22258813766E+02 -0.34640809723E+03  0.34712742738E+03  0.00000000000E+00 0.  1.
          3    1    3    3  501    0 -0.27416920658E+01  0.78628789508E+01 -0.12349180529E+03  0.12377224129E+03  0.00000000000E+00 0.  1.
         -3    1    1    2    0  502  0.45926982923E+01 -0.30121692717E+02 -0.52916195493E+03  0.53003847388E+03  0.00000000000E+00 0. -1.
<mgrwt>
<rscale>  1 0.30000000E+03</rscale>
<asrwt>0</asrwt>
<pdfrwt beam="1">  1       21 0.34114347E-02 0.30000000E+03</pdfrwt>
<pdfrwt beam="2">0</pdfrwt>
<totfact> 0.54921967E+04</totfact>
</mgrwt>
</event>
<event>
 6    1  0.1295671E-001  0.3000000E+03  0.7818608E-02  0.1093470E+00
         21   -1    0    0  501  502  0.00000000000E+00  0.00000000000E+00  0.21794132885E+01  0.21794132885E+01  0.00000000000E+00 0. -1.
         13   -1    0    0    0    0 -0.00000000000E+00 -0.00000000000E+00 -0.10000000000E+04  0.10000000000E+04  0.00000000000E+00 0.  1.
    9000005    2    1    2  501    0  0.32948907974E+02  0.93943288921E+01 -0.83901093672E+03  0.83971591313E+03  0.30949770444E+01 0.  0.
         13    1    3    3    0    0  0.23579972890E+01  0.36957222858E+00 -0.42898339607E+02  0.42964686382E+02  0.00000000000E+00 0.  1.
          3    1    3    3  501    0  0.30590910685E+02  0.90247566635E+01 -0.79611259711E+03  0.79675122675E+03  0.00000000000E+00 0.  1.
         -3    1    1    2    0  502 -0.32948907974E+02 -0.93943288921E+01 -0.15880964999E+03  0.16246350015E+03  0.00000000000E+00 0. -1.
<mgrwt>
<rscale>  1 0.30000000E+03</rscale>
<asrwt>0</asrwt>
<pdfrwt beam="1">  1       21 0.79251559E-02 0.30000000E+03</pdfrwt>
<pdfrwt beam="2">0</pdfrwt>
<totfact> 0.12986458E+04</totfact>
</mgrwt>
</event>
<event>
 6    1  0.1295671E-001  0.3000000E+03  0.7818608E-02  0.1093470E+00
         21   -1    0    0  501  502  0.00000000000E+00  0.00000000000E+00  0.13929631726E+01  0.13929631726E+01  0.00000000000E+00 0. -1.
         13   -1    0    0    0    0 -0.00000000000E+00 -0.00000000000E+00 -0.10000000000E+04  0.10000000000E+04  0.00000000000E+00 0.  1.
    9000005    2    1    2  501    0 -0.27278649832E+02 -0.24418245753E+02 -0.59312128444E+03  0.59425776345E+03  0.30093030887E+01 0.  0.
         13    1    3    3    0    0 -0.72883190252E+01 -0.74980997228E+01 -0.18844532368E+03  0.18873521429E+03  0.00000000000E+00 0.  1.
          3    1    3    3  501    0 -0.19990330806E+02 -0.16920146030E+02 -0.40467596075E+03  0.40552254916E+03  0.00000000000E+00 0.  1.
         -3    1    1    2    0  502  0.27278649832E+02  0.24418245753E+02 -0.40548575239E+03  0.40713519972E+03  0.00000000000E+00 0. -1.
<mgrwt>
<rscale>  1 0.30000000E+03</rscale>
<asrwt>0</asrwt>
<pdfrwt beam="1">  1       21 0.50653313E-02 0.30000000E+03</pdfrwt>
<pdfrwt beam="2">0</pdfrwt>
<totfact> 0.28174003E+04</totfact>
</mgrwt>
</event>
<event>
 6    1  0.1295671E-001  0.3000000E+03  0.7818608E-02  0.1093470E+00
         21   -1    0    0  501  502  0.00000000000E+00  0.00000000000E+00  0.38702829491E+01  0.38702829491E+01  0.00000000000E+00 0. -1.
         13   -1    0    0    0    0 -0.00000000000E+00 -0.00000000000E+00 -0.10000000000E+04  0.10000000000E+04  0.00000000000E+00 0.  1.
    9000005    2    1    2  501    0 -0.34567052554E+02  0.66628369530E+01 -0.91176186752E+03  0.91245251360E+03  0.45400429899E+01 0.  0.
         13    1    3    3    0    0 -0.12443770078E+01  0.43631132375E+00 -0.63256365399E+02  0.63270108307E+02  0.00000000000E+00 0.  1.
          3    1    3    3  501    0 -0.33322675546E+02  0.62265256293E+01 -0.84850550212E+03  0.84918240529E+03  0.00000000000E+00 0.  1.
         -3    1    1    2    0  502  0.34567052554E+02 -0.66628369530E+01 -0.84367849529E+02  0.91417769348E+02  0.00000000000E+00 0. -1.
<mgrwt>
<rscale>  1 0.30000000E+03</rscale>
<asrwt>0</asrwt>
<pdfrwt beam="1">  1       21 0.14073786E-01 0.30000000E+03</pdfrwt>
<pdfrwt beam="2">0</pdfrwt>
<totfact> 0.46317153E+03</totfact>
</mgrwt>
</event>
<event>
 6    1  0.1295671E-001  0.3000000E+03  0.7818608E-02  0.1093470E+00
         21   -1    0    0  501  502  0.00000000000E+00  0.00000000000E+00  0.11599390392E+01  0.11599390392E+01  0.00000000000E+00 0. -1.
         13   -1    0    0    0    0 -0.00000000000E+00 -0.00000000000E+00 -0.10000000000E+04  0.10000000000E+04  0.00000000000E+00 0.  1.
    9000005    2    1    2  501    0  0.19195772730E+02  0.25977449402E+02 -0.34604495329E+03  0.34756621342E+03  0.34434642970E+01 0.  0.
         13    1    3    3    0    0  0.96910197030E+00  0.29946351973E+01 -0.34906921574E+02  0.35048540231E+02  0.00000000000E+00 0.  1.
          1    1    3    3  501    0  0.18226670760E+02  0.22982814205E+02 -0.31113803172E+03  0.31251767319E+03  0.00000000000E+00 0.  1.
         -3    1    1    2    0  502 -0.19195772730E+02 -0.25977449402E+02 -0.65279510767E+03  0.65359372561E+03  0.00000000000E+00 0. -1.
<mgrwt>
<rscale>  1 0.30000000E+03</rscale>
<asrwt>0</asrwt>
<pdfrwt beam="1">  1       21 0.42179690E-02 0.30000000E+03</pdfrwt>
<pdfrwt beam="2">0</pdfrwt>
<totfact> 0.38448240E+04</totfact>
</mgrwt>
</event>
<event>
 6    1  0.1295671E-001  0.3000000E+03  0.7818608E-02  0.1093470E+00
         21   -1    0    0  501  502  0.00000000000E+00  0.00000000000E+00  0.14282636979E+01  0.14282636979E+01  0.00000000000E+00 0. -1.
         13   -1    0    0    0    0 -0.00000000000E+00 -0.00000000000E+00 -0.10000000000E+04  0.10000000000E+04  0.00000000000E+00 0.  1.
    9000005    2    1    2  501    0  0.29185848671E+02 -0.16424610282E+02 -0.26992236626E+03  0.27200966917E+03  0.30975356364E+01 0.  0.
         13    1    3    3    0    0  0.23541194965E+02 -0.11791736291E+02 -0.21225923347E+03  0.21388598622E+03  0.00000000000E+00 0.  1.
          1    1    3    3  501    0  0.56446537059E+01 -0.46328739901E+01 -0.57663132788E+02  0.58123682951E+02  0.00000000000E+00 0.  1.
         -3    1    1    2    0  502 -0.29185848671E+02  0.16424610282E+02 -0.72864937004E+03  0.72941859453E+03  0.00000000000E+00 0. -1.
<mgrwt>
<rscale>  1 0.30000000E+03</rscale>
<asrwt>0</asrwt>
<pdfrwt beam="1">  1       21 0.51936971E-02 0.30000000E+03</pdfrwt>
<pdfrwt beam="2">0</pdfrwt>
<totfact> 0.26995756E+04</totfact>
</mgrwt>
</event>
<event>
 6    1  0.1295671E-001  0.3000000E+03  0.7818608E-02  0.1093470E+00
         21   -1    0    0  501  502  0.00000000000E+00  0.00000000000E+00  0.27551098143E+01  0.27551098143E+01  0.00000000000E+00 0. -1.
         13   -1    0    0    0    0 -0.00000000000E+00 -0.00000000000E+00 -0.10000000000E+04  0.10000000000E+04  0.00000000000E+00 0.  1.
    9000005    2    1    2  501    0 -0.30930237917E+02  0.18033017013E+02 -0.86508707374E+03  0.86583338850E+03  0.31531203255E+01 0.  0.
         13    1    3    3    0    0 -0.21941873499E+02  0.11368823191E+02 -0.61405478719E+03  0.61455185104E+03  0.00000000000E+00 0.  1.
          1    1    3    3  501    0 -0.89883644179E+01  0.66641938223E+01 -0.25103228655E+03  0.25128153746E+03  0.00000000000E+00 0.  1.
         -3    1    1    2    0  502  0.30930237917E+02 -0.18033017013E+02 -0.13215781644E+03  0.13692172131E+03  0.00000000000E+00 0. -1.
<mgrwt>
<rscale>  1 0.30000000E+03</rscale>
<asrwt>0</asrwt>
<pdfrwt beam="1">  1       21 0.10018602E-01 0.30000000E+03</pdfrwt>
<pdfrwt beam="2">0</pdfrwt>
<totfact> 0.85746737E+03</totfact>
</mgrwt>
</event>
<event>
 6    1  0.1295671E-001  0.3000000E+03  0.7818608E-02  0.1093470E+00
         21   -1    0    0  501  502  0.00000000000E+00  0.00000000000E+00  0.13993818835E+01  0.13993818835E+01  0.00000000000E+00 0. -1.
         13   -1    0    0    0    0 -0.00000000000E+00 -0.00000000000E+00 -0.10000000000E+04  0.10000000000E+04  0.00000000000E+00 0.  1.
    9000005    2    1    2  501    0  0.32727805241E+02 -0.15484552824E+02 -0.37837940347E+03  0.38012228130E+03  0.33309395452E+01 0.  0.
         13    1    3    3    0    0  0.61952513904E+01 -0.26406861115E+01 -0.84628266199E+02  0.84895805567E+02  0.00000000000E+00 0.  1.
          1    1    3    3  501    0  0.26532553851E+02 -0.12843866712E+02 -0.29375113727E+03  0.29522647573E+03  0.00000000000E+00 0.  1.
         -1    1    1    2    0  502 -0.32727805241E+02  0.15484552824E+02 -0.62022121465E+03  0.62127710058E+03  0.00000000000E+00 0. -1.
<mgrwt>
<rscale>  1 0.30000000E+03</rscale>
<asrwt>0</asrwt>
<pdfrwt beam="1">  1       21 0.50886721E-02 0.30000000E+03</pdfrwt>
<pdfrwt beam="2">0</pdfrwt>
<totfact> 0.27953889E+04</totfact>
</mgrwt>
</event>
<event>
 6    1  0.1295671E-001  0.3000000E+03  0.7818608E-02  0.1093470E+00
         21   -1    0    0  501  502  0.00000000000E+00  0.00000000000E+00  0.62499116961E+01  0.62499116961E+01  0.00000000000E+00 0. -1.
         13   -1    0    0    0    0 -0.00000000000E+00 -0.00000000000E+00 -0.10000000000E+04  0.10000000000E+04  0.00000000000E+00 0.  1.
    9000005    2    1    2  501    0 -0.33296308273E+02  0.56442223010E+02 -0.21667403899E+03  0.22641559910E+03  0.46920849559E+01 0.  0.
         13    1    3    3    0    0 -0.13936850356E+02  0.19654500910E+02 -0.83053000614E+02  0.86477373427E+02  0.00000000000E+00 0.  1.
          1    1    3    3  501    0 -0.19359457917E+02  0.36787722100E+02 -0.13362103837E+03  0.13993822567E+03  0.00000000000E+00 0.  1.
         -1    1    1    2    0  502  0.33296308273E+02 -0.56442223010E+02 -0.77707604932E+03  0.77983431260E+03  0.00000000000E+00 0. -1.
<mgrwt>
<rscale>  1 0.30000000E+03</rscale>
<asrwt>0</asrwt>
<pdfrwt beam="1">  1       21 0.22727000E-01 0.30000000E+03</pdfrwt>
<pdfrwt beam="2">0</pdfrwt>
<totfact> 0.18771195E+03</totfact>
</mgrwt>
</event>
<event>
 6    1  0.1295671E-001  0.3000000E+03  0.7818608E-02  0.1093470E+00
         21   -1    0    0  501  502  0.00000000000E+00  0.00000000000E+00  0.14006243853E+01  0.14006243853E+01  0.00000000000E+00 0. -1.
         13   -1    0    0    0    0 -0.00000000000E+00 -0.00000000000E+00 -0.10000000000E+04  0.10000000000E+04  0.00000000000E+00 0.  1.
    9000005    2    1    2  501    0  0.37209948838E+02  0.40695161637E+00 -0.54332223624E+03  0.54460524400E+03  0.33276868312E+01 0.  0.
         13    1    3    3    0    0  0.27209984052E+02  0.14608476436E+01 -0.38324576337E+03  0.38421326428E+03  0.00000000000E+00 0.  1.
          3    1    3    3  501    0  0.99999647861E+01 -0.10538960272E+01 -0.16007647287E+03  0.16039197972E+03  0.00000000000E+00 0.  1.
         -3    1    1    2    0  502 -0.37209948838E+02 -0.40695161637E+00 -0.45527713937E+03  0.45679538038E+03  0.00000000000E+00 0. -1.
<mgrwt>
<rscale>  1 0.30000000E+03</rscale>
<asrwt>0</asrwt>
<pdfrwt beam="1">  1       21 0.50931903E-02 0.30000000E+03</pdfrwt>
<pdfrwt beam="2">0</pdfrwt>
<totfact> 0.27911589E+04</totfact>
</mgrwt>
</event>
<event>
 6    1  0.1295671E-001  0.3000000E+03  0.7818608E-02  0.1093470E+00
         21   -1    0    0  501  502  0.00000000000E+00  0.00000000000E+00  0.30007629607E+01  0.30007629607E+01  0.00000000000E+00 0. -1.
         13   -1    0    0    0    0 -0.00000000000E+00 -0.00000000000E+00 -0.10000000000E+04  0.10000000000E+04  0.00000000000E+00 0.  1.
    9000005    2    1    2  501    0 -0.28019006469E+02  0.13426028335E+02 -0.91139156467E+03  0.91192938146E+03  0.39101987927E+01 0.  0.
         13    1    3    3    0    0 -0.14005540481E+02  0.80429009997E+01 -0.42730936212E+03  0.42761446933E+03  0.00000000000E+00 0.  1.
          3    1    3    3  501    0 -0.14013465988E+02  0.53831273349E+01 -0.48408220254E+03  0.48431491213E+03  0.00000000000E+00 0.  1.
         -3    1    1    2    0  502  0.28019006469E+02 -0.13426028335E+02 -0.85607672372E+02  0.91071381505E+02  0.00000000000E+00 0. -1.
<mgrwt>
<rscale>  1 0.30000000E+03</rscale>
<asrwt>0</asrwt>
<pdfrwt beam="1">  1       21 0.10911888E-01 0.30000000E+03</pdfrwt>
<pdfrwt beam="2">0</pdfrwt>
<totfact> 0.73576813E+03</totfact>
</mgrwt>
</event>
<event>
 6    1  0.1295671E-001  0.3000000E+03  0.7818608E-02  0.1093470E+00
         21   -1    0    0  501  502  0.00000000000E+00  0.00000000000E+00  0.12981506795E+01  0.12981506795E+01  0.00000000000E+00 0. -1.
         13   -1    0    0    0    0 -0.00000000000E+00 -0.00000000000E+00 -0.10000000000E+04  0.10000000000E+04  0.00000000000E+00 0.  1.
    9000005    2    1    2  501    0  0.12293136142E+02  0.29815451193E+02 -0.72088875132E+03  0.72161940685E+03  0.37274985796E+01 0.  0.
         13    1    3    3    0    0  0.12232585028E+02  0.27802784255E+02 -0.66253003328E+03  0.66322596145E+03  0.00000000000E+00 0.  1.
          3    1    3    3  501    0  0.60551113288E-01  0.20126669373E+01 -0.58358718038E+02  0.58393445399E+02  0.00000000000E+00 0.  1.
         -3    1    1    2    0  502 -0.12293136142E+02 -0.29815451193E+02 -0.27781309801E+03  0.27967874383E+03  0.00000000000E+00 0. -1.
<mgrwt>
<rscale>  1 0.30000000E+03</rscale>
<asrwt>0</asrwt>
<pdfrwt beam="1">  1       21 0.47205579E-02 0.30000000E+03</pdfrwt>
<pdfrwt beam="2">0</pdfrwt>
<totfact> 0.31767702E+04</totfact>
</mgrwt>
</event>
<event>
 6    1  0.1295671E-001  0.3000000E+03  0.7818608E-02  0.1093470E+00
         21   -1    0    0  501  502  0.00000000000E+00  0.00000000000E+00  0.30693685705E+01  0.30693685705E+01  0.00000000000E+00 0. -1.
         13   -1    0    0    0    0 -0.00000000000E+00 -0.00000000000E+00 -0.10000000000E+04  0.10000000000E+04  0.00000000000E+00 0.  1.
    9000005    2    1    2  501    0  0.30814364098E+02  0.33958930519E+01 -0.91402117804E+03  0.91455363785E+03  0.35476001523E+01 0.  0.
         13    1    3    3    0    0  0.50852469635E+01  0.54404980279E+00 -0.11595308427E+03  0.11606581529E+03  0.00000000000E+00 0.  1.
          3    1    3    3  501    0  0.25729117135E+02  0.28518432491E+01 -0.79806809377E+03  0.79848782256E+03  0.00000000000E+00 0.  1.
         -3    1    1    2    0  502 -0.30814364098E+02 -0.33958930519E+01 -0.82909453389E+02  0.88515730725E+02  0.00000000000E+00 0. -1.
<mgrwt>
<rscale>  1 0.30000000E+03</rscale>
<asrwt>0</asrwt>
<pdfrwt beam="1">  1       21 0.11161364E-01 0.30000000E+03</pdfrwt>
<pdfrwt beam="2">0</pdfrwt>
<totfact> 0.70643659E+03</totfact>
</mgrwt>
</event>
<event>
 6    1  0.1295671E-001  0.3000000E+03  0.7818608E-02  0.1093470E+00
         21   -1    0    0  501  502  0.00000000000E+00  0.00000000000E+00  0.18319824244E+01  0.18319824244E+01  0.00000000000E+00 0. -1.
         13   -1    0    0    0    0 -0.00000000000E+00 -0.00000000000E+00 -0.10000000000E+04  0.10000000000E+04  0.00000000000E+00 0.  1.
    9000005    2    1    2  501    0  0.11462581519E+02 -0.37734260980E+02 -0.69261240133E+03  0.69374189845E+03  0.32585205184E+01 0.  0.
         13    1    3    3    0    0  0.56725238993E+01 -0.14747262447E+02 -0.29681367949E+03  0.29723394760E+03  0.00000000000E+00 0.  1.
          3    1    3    3  501    0  0.57900576193E+01 -0.22986998534E+02 -0.39579872185E+03  0.39650795085E+03  0.00000000000E+00 0.  1.
         -3    1    1    2    0  502 -0.11462581519E+02  0.37734260980E+02 -0.30555561624E+03  0.30809008398E+03  0.00000000000E+00 0. -1.
<mgrwt>
<rscale>  1 0.30000000E+03</rscale>
<asrwt>0</asrwt>
<pdfrwt beam="1">  1       21 0.66617683E-02 0.30000000E+03</pdfrwt>
<pdfrwt beam="2">0</pdfrwt>
<totfact> 0.17584848E+04</totfact>
</mgrwt>
</event>
<event>
 6    1  0.1295671E-001  0.3000000E+03  0.7818608E-02  0.1093470E+00
         21   -1    0    0  501  502  0.00000000000E+00  0.00000000000E+00  0.33392067989E+01  0.33392067989E+01  0.00000000000E+00 0. -1.
         13   -1    0    0    0    0 -0.00000000000E+00 -0.00000000000E+00 -0.10000000000E+04  0.10000000000E+04  0.00000000000E+00 0.  1.
    9000005    2    1    2  501    0 -0.56641976757E+02 -0.85875071236E+01 -0.43595506530E+03  0.43971435630E+03  0.31364562413E+01 0.  0.
         13    1    3    3    0    0 -0.38081107434E+02 -0.58897653008E+01 -0.30425333881E+03  0.30668380175E+03  0.00000000000E+00 0.  1.
          3    1    3    3  501    0 -0.18560869323E+02 -0.26977418229E+01 -0.13170172649E+03  0.13303055454E+03  0.00000000000E+00 0.  1.
         -1    1    1    2    0  502  0.56641976757E+02  0.85875071236E+01 -0.56070572790E+03  0.56362485050E+03  0.00000000000E+00 0. -1.
<mgrwt>
<rscale>  1 0.30000000E+03</rscale>
<asrwt>0</asrwt>
<pdfrwt beam="1">  1       21 0.12142596E-01 0.30000000E+03</pdfrwt>
<pdfrwt beam="2">0</pdfrwt>
<totfact> 0.60655798E+03</totfact>
</mgrwt>
</event>
<event>
 6    1  0.1295671E-001  0.3000000E+03  0.7818608E-02  0.1093470E+00
         21   -1    0    0  501  502  0.00000000000E+00  0.00000000000E+00  0.47916315209E+01  0.47916315209E+01  0.00000000000E+00 0. -1.
         13   -1    0    0    0    0 -0.00000000000E+00 -0.00000000000E+00 -0.10000000000E+04  0.10000000000E+04  0.00000000000E+00 0.  1.
    9000005    2    1    2  501    0 -0.17733628251E+02 -0.59729023974E+02 -0.27977041821E+03  0.28664575597E+03  0.35020905413E+01 0.  0.
         13    1    3    3    0    0 -0.58830390261E+01 -0.17640664298E+02 -0.90422531799E+02  0.92314882018E+02  0.00000000000E+00 0.  1.
          3    1    3    3  501    0 -0.11850589225E+02 -0.42088359676E+02 -0.18934788641E+03  0.19433087396E+03  0.00000000000E+00 0.  1.
         -1    1    1    2    0  502  0.17733628251E+02  0.59729023974E+02 -0.71543795027E+03  0.71814587555E+03  0.00000000000E+00 0. -1.
<mgrwt>
<rscale>  1 0.30000000E+03</rscale>
<asrwt>0</asrwt>
<pdfrwt beam="1">  1       21 0.17424151E-01 0.30000000E+03</pdfrwt>
<pdfrwt beam="2">0</pdfrwt>
<totfact> 0.31142398E+03</totfact>
</mgrwt>
</event>
<event>
 6    1  0.1295671E-001  0.3000000E+03  0.7818608E-02  0.1093470E+00
         21   -1    0    0  501  502  0.00000000000E+00  0.00000000000E+00  0.23352189731E+01  0.23352189731E+01  0.00000000000E+00 0. -1.
         13   -1    0    0    0    0 -0.00000000000E+00 -0.00000000000E+00 -0.10000000000E+04  0.10000000000E+04  0.00000000000E+00 0.  1.
    9000005    2    1    2  501    0 -0.90684411882E+01 -0.47215345429E+02 -0.45553851939E+03  0.45808122586E+03  0.33972580786E+01 0.  0.
         13    1    3    3    0    0 -0.46215598539E+01 -0.15871059730E+02 -0.16067693169E+03  0.16152500032E+03  0.00000000000E+00 0.  1.
          1    1    3    3  501    0 -0.44468813344E+01 -0.31344285699E+02 -0.29486158770E+03  0.29655622553E+03  0.00000000000E+00 0.  1.
         -3    1    1    2    0  502  0.90684411882E+01  0.47215345429E+02 -0.54212626163E+03  0.54425399312E+03  0.00000000000E+00 0. -1.
<mgrwt>
<rscale>  1 0.30000000E+03</rscale>
<asrwt>0</asrwt>
<pdfrwt beam="1">  1       21 0.84917233E-02 0.30000000E+03</pdfrwt>
<pdfrwt beam="2">0</pdfrwt>
<totfact> 0.11501001E+04</totfact>
</mgrwt>
</event>
<event>
 6    1  0.1295671E-001  0.3000000E+03  0.7818608E-02  0.1093470E+00
         21   -1    0    0  501  502  0.00000000000E+00  0.00000000000E+00  0.11237355531E+01  0.11237355531E+01  0.00000000000E+00 0. -1.
         13   -1    0    0    0    0 -0.00000000000E+00 -0.00000000000E+00 -0.10000000000E+04  0.10000000000E+04  0.00000000000E+00 0.  1.
    9000005    2    1    2  501    0 -0.25493505259E+02 -0.19363167404E+02 -0.64460335907E+03  0.64540735619E+03  0.35091079786E+01 0.  0.
         13    1    3    3    0    0 -0.11156573467E+02 -0.64074151008E+01 -0.26763389127E+03  0.26794294889E+03  0.00000000000E+00 0.  1.
          1    1    3    3  501    0 -0.14336931792E+02 -0.12955752303E+02 -0.37696946780E+03  0.37746440731E+03  0.00000000000E+00 0.  1.
         -3    1    1    2    0  502  0.25493505259E+02  0.19363167404E+02 -0.35427290538E+03  0.35571637936E+03  0.00000000000E+00 0. -1.
<mgrwt>
<rscale>  1 0.30000000E+03</rscale>
<asrwt>0</asrwt>
<pdfrwt beam="1">  1       21 0.40863197E-02 0.30000000E+03</pdfrwt>
<pdfrwt beam="2">0</pdfrwt>
<totfact> 0.40561569E+04</totfact>
</mgrwt>
</event>
<event>
 6    1  0.1295671E-001  0.3000000E+03  0.7818608E-02  0.1093470E+00
         21   -1    0    0  501  502  0.00000000000E+00  0.00000000000E+00  0.12511868159E+01  0.12511868159E+01  0.00000000000E+00 0. -1.
         13   -1    0    0    0    0 -0.00000000000E+00 -0.00000000000E+00 -0.10000000000E+04  0.10000000000E+04  0.00000000000E+00 0.  1.
    9000005    2    1    2  501    0 -0.27461105677E+02 -0.22083677771E+02 -0.46544997255E+03  0.46678935042E+03  0.26114294493E+01 0.  0.
         13    1    3    3    0    0 -0.19654287215E+02 -0.16715706120E+02 -0.32798608470E+03  0.32899935804E+03  0.00000000000E+00 0.  1.
          3    1    3    3  501    0 -0.78068184628E+01 -0.53679716511E+01 -0.13746388786E+03  0.13778999237E+03  0.00000000000E+00 0.  1.
         -1    1    1    2    0  502  0.27461105677E+02  0.22083677771E+02 -0.53329884063E+03  0.53446183640E+03  0.00000000000E+00 0. -1.
<mgrwt>
<rscale>  1 0.30000000E+03</rscale>
<asrwt>0</asrwt>
<pdfrwt beam="1">  1       21 0.45497798E-02 0.30000000E+03</pdfrwt>
<pdfrwt beam="2">0</pdfrwt>
<totfact> 0.33820595E+04</totfact>
</mgrwt>
</event>
<event>
 6    1  0.1295671E-001  0.3000000E+03  0.7818608E-02  0.1093470E+00
         21   -1    0    0  501  502  0.00000000000E+00  0.00000000000E+00  0.17088288199E+01  0.17088288199E+01  0.00000000000E+00 0. -1.
         13   -1    0    0    0    0 -0.00000000000E+00 -0.00000000000E+00 -0.10000000000E+04  0.10000000000E+04  0.00000000000E+00 0.  1.
    9000005    2    1    2  501    0  0.14977275351E+02  0.26508123883E+02 -0.83762370641E+03  0.83818196973E+03  0.29225722294E+01 0.  0.
         13    1    3    3    0    0  0.14994144741E+02  0.26116763532E+02 -0.83188176078E+03  0.83242667763E+03  0.00000000000E+00 0.  1.
          3    1    3    3  501    0 -0.16869389449E-01  0.39136035159E+00 -0.57419456323E+01  0.57552920990E+01  0.00000000000E+00 0.  1.
         -1    1    1    2    0  502 -0.14977275351E+02 -0.26508123883E+02 -0.16066746477E+03  0.16352685909E+03  0.00000000000E+00 0. -1.
<mgrwt>
<rscale>  1 0.30000000E+03</rscale>
<asrwt>0</asrwt>
<pdfrwt beam="1">  1       21 0.62139361E-02 0.30000000E+03</pdfrwt>
<pdfrwt beam="2">0</pdfrwt>
<totfact> 0.19835272E+04</totfact>
</mgrwt>
</event>
<event>
 6    1  0.1295671E-001  0.3000000E+03  0.7818608E-02  0.1093470E+00
         21   -1    0    0  501  502  0.00000000000E+00  0.00000000000E+00  0.17467905651E+01  0.17467905651E+01  0.00000000000E+00 0. -1.
         13   -1    0    0    0    0 -0.00000000000E+00 -0.00000000000E+00 -0.10000000000E+04  0.10000000000E+04  0.00000000000E+00 0.  1.
    9000005    2    1    2  501    0  0.30187558997E+02  0.15512765831E+02 -0.79087662025E+03  0.79161115731E+03  0.32343927327E+01 0.  0.
         13    1    3    3    0    0  0.21589858865E+02  0.11328275771E+02 -0.60003178846E+03  0.60052693445E+03  0.00000000000E+00 0.  1.
          3    1    3    3  501    0  0.85977001323E+01  0.41844900606E+01 -0.19084483179E+03  0.19108422286E+03  0.00000000000E+00 0.  1.
         -1    1    1    2    0  502 -0.30187558997E+02 -0.15512765831E+02 -0.20737658919E+03  0.21013563326E+03  0.00000000000E+00 0. -1.
<mgrwt>
<rscale>  1 0.30000000E+03</rscale>
<asrwt>0</asrwt>
<pdfrwt beam="1">  1       21 0.63519791E-02 0.30000000E+03</pdfrwt>
<pdfrwt beam="2">0</pdfrwt>
<totfact> 0.19096210E+04</totfact>
</mgrwt>
</event>
<event>
 6    1  0.1295671E-001  0.3000000E+03  0.7818608E-02  0.1093470E+00
         21   -1    0    0  501  502  0.00000000000E+00  0.00000000000E+00  0.70803739901E+01  0.70803739901E+01  0.00000000000E+00 0. -1.
         13   -1    0    0    0    0 -0.00000000000E+00 -0.00000000000E+00 -0.10000000000E+04  0.10000000000E+04  0.00000000000E+00 0.  1.
    9000005    2    1    2  501    0 -0.49085962952E+02  0.22127094822E+02 -0.88333230824E+03  0.88498033181E+03  0.38962581606E+01 0.  0.
         13    1    3    3    0    0 -0.20763491050E+02  0.90658830201E+01 -0.34080703626E+03  0.34155929025E+03  0.00000000000E+00 0.  1.
          1    1    3    3  501    0 -0.28322471902E+02  0.13061211802E+02 -0.54252527198E+03  0.54342104156E+03  0.00000000000E+00 0.  1.
         -1    1    1    2    0  502  0.49085962952E+02 -0.22127094822E+02 -0.10958731777E+03  0.12210004218E+03  0.00000000000E+00 0. -1.
<mgrwt>
<rscale>  1 0.30000000E+03</rscale>
<asrwt>0</asrwt>
<pdfrwt beam="1">  1       21 0.25746869E-01 0.30000000E+03</pdfrwt>
<pdfrwt beam="2">0</pdfrwt>
<totfact> 0.14720765E+03</totfact>
</mgrwt>
</event>
<event>
 6    1  0.1295671E-001  0.3000000E+03  0.7818608E-02  0.1093470E+00
         21   -1    0    0  501  502  0.00000000000E+00  0.00000000000E+00  0.59784377681E+01  0.59784377681E+01  0.00000000000E+00 0. -1.
         13   -1    0    0    0    0 -0.00000000000E+00 -0.00000000000E+00 -0.10000000000E+04  0.10000000000E+04  0.00000000000E+00 0.  1.
    9000005    2    1    2  501    0  0.33067158806E+02 -0.55875843319E+02 -0.22843288064E+03  0.23764154796E+03  0.87394222488E+01 0.  0.
         13    1    3    3    0    0  0.15938647983E+02 -0.34430649815E+02 -0.13974656339E+03  0.14480542851E+03  0.00000000000E+00 0.  1.
          1    1    3    3  501    0  0.17128510824E+02 -0.21445193504E+02 -0.88686317243E+02  0.92836119445E+02  0.00000000000E+00 0.  1.
         -3    1    1    2    0  502 -0.33067158806E+02  0.55875843319E+02 -0.76558868160E+03  0.76833688981E+03  0.00000000000E+00 0. -1.
<mgrwt>
<rscale>  1 0.30000000E+03</rscale>
<asrwt>0</asrwt>
<pdfrwt beam="1">  1       21 0.21739820E-01 0.30000000E+03</pdfrwt>
<pdfrwt beam="2">0</pdfrwt>
<totfact> 0.20448731E+03</totfact>
</mgrwt>
</event>
<event>
 6    1  0.1295671E-001  0.3000000E+03  0.7818608E-02  0.1093470E+00
         21   -1    0    0  501  502  0.00000000000E+00  0.00000000000E+00  0.21506608573E+01  0.21506608573E+01  0.00000000000E+00 0. -1.
         13   -1    0    0    0    0 -0.00000000000E+00 -0.00000000000E+00 -0.10000000000E+04  0.10000000000E+04  0.00000000000E+00 0.  1.
    9000005    2    1    2  501    0 -0.13889159847E+02 -0.27004415965E+02 -0.87742127049E+03  0.87795296779E+03  0.33437265219E+01 0.  0.
         13    1    3    3    0    0 -0.82998350416E+01 -0.17401487394E+02 -0.51218856580E+03  0.51255129105E+03  0.00000000000E+00 0.  1.
          1    1    3    3  501    0 -0.55893248059E+01 -0.96029285701E+01 -0.36523270469E+03  0.36540167674E+03  0.00000000000E+00 0.  1.
         -3    1    1    2    0  502  0.13889159847E+02  0.27004415965E+02 -0.12042806866E+03  0.12419769307E+03  0.00000000000E+00 0. -1.
<mgrwt>
<rscale>  1 0.30000000E+03</rscale>
<asrwt>0</asrwt>
<pdfrwt beam="1">  1       21 0.78206014E-02 0.30000000E+03</pdfrwt>
<pdfrwt beam="2">0</pdfrwt>
<totfact> 0.13292678E+04</totfact>
</mgrwt>
</event>
<event>
 6    1  0.1295671E-001  0.3000000E+03  0.7818608E-02  0.1093470E+00
         21   -1    0    0  501  502  0.00000000000E+00  0.00000000000E+00  0.27276571300E+01  0.27276571300E+01  0.00000000000E+00 0. -1.
         13   -1    0    0    0    0 -0.00000000000E+00 -0.00000000000E+00 -0.10000000000E+04  0.10000000000E+04  0.00000000000E+00 0.  1.
    9000005    2    1    2  501    0  0.37755292458E+02 -0.27001811216E+02 -0.72786110008E+03  0.72934701103E+03  0.32743821989E+01 0.  0.
         13    1    3    3    0    0  0.22991844388E+02 -0.17568892406E+02 -0.47338868247E+03  0.47427221675E+03  0.00000000000E+00 0.  1.
          1    1    3    3  501    0  0.14763448069E+02 -0.94329188105E+01 -0.25447241761E+03  0.25507479428E+03  0.00000000000E+00 0.  1.
         -3    1    1    2    0  502 -0.37755292458E+02  0.27001811216E+02 -0.26941124279E+03  0.27338064610E+03  0.00000000000E+00 0. -1.
<mgrwt>
<rscale>  1 0.30000000E+03</rscale>
<asrwt>0</asrwt>
<pdfrwt beam="1">  1       21 0.99187741E-02 0.30000000E+03</pdfrwt>
<pdfrwt beam="2">0</pdfrwt>
<totfact> 0.87294595E+03</totfact>
</mgrwt>
</event>
<event>
 6    1  0.1295671E-001  0.3000000E+03  0.7818608E-02  0.1093470E+00
         21   -1    0    0  501  502  0.00000000000E+00  0.00000000000E+00  0.37635890503E+01  0.37635890503E+01  0.00000000000E+00 0. -1.
         13   -1    0    0    0    0 -0.00000000000E+00 -0.00000000000E+00 -0.10000000000E+04  0.10000000000E+04  0.00000000000E+00 0.  1.
    9000005    2    1    2  501    0 -0.76624003015E+01  0.59371357603E+02 -0.60733416689E+03  0.61028090085E+03  0.20777832211E+01 0.  0.
         13    1    3    3    0    0 -0.28360863728E+01  0.15212094374E+02 -0.15975907593E+03  0.16050673987E+03  0.00000000000E+00 0.  1.
          1    1    3    3  501    0 -0.48263139287E+01  0.44159263229E+02 -0.44757509097E+03  0.44977416098E+03  0.00000000000E+00 0.  1.
         -1    1    1    2    0  502  0.76624003015E+01 -0.59371357603E+02 -0.38890224406E+03  0.39348268820E+03  0.00000000000E+00 0. -1.
<mgrwt>
<rscale>  1 0.30000000E+03</rscale>
<asrwt>0</asrwt>
<pdfrwt beam="1">  1       21 0.13685807E-01 0.30000000E+03</pdfrwt>
<pdfrwt beam="2">0</pdfrwt>
<totfact> 0.48756257E+03</totfact>
</mgrwt>
</event>
<event>
 6    1  0.1295671E-001  0.3000000E+03  0.7818608E-02  0.1093470E+00
         21   -1    0    0  501  502  0.00000000000E+00  0.00000000000E+00  0.44399518799E+01  0.44399518799E+01  0.00000000000E+00 0. -1.
         13   -1    0    0    0    0 -0.00000000000E+00 -0.00000000000E+00 -0.10000000000E+04  0.10000000000E+04  0.00000000000E+00 0.  1.
    9000005    2    1    2  501    0  0.13334708056E+02 -0.64747210357E+02 -0.55786009090E+03  0.56177611979E+03  0.38094700239E+01 0.  0.
         13    1    3    3    0    0  0.46908679138E+01 -0.29379875090E+02 -0.26235083412E+03  0.26403246290E+03  0.00000000000E+00 0.  1.
          3    1    3    3  501    0  0.86438401421E+01 -0.35367335268E+02 -0.29550925678E+03  0.29774365689E+03  0.00000000000E+00 0.  1.
         -1    1    1    2    0  502 -0.13334708056E+02  0.64747210357E+02 -0.43769995722E+03  0.44266383209E+03  0.00000000000E+00 0. -1.
<mgrwt>
<rscale>  1 0.30000000E+03</rscale>
<asrwt>0</asrwt>
<pdfrwt beam="1">  1       21 0.16145314E-01 0.30000000E+03</pdfrwt>
<pdfrwt beam="2">0</pdfrwt>
<totfact> 0.35916063E+03</totfact>
</mgrwt>
</event>
<event>
 6    1  0.1295671E-001  0.3000000E+03  0.7818608E-02  0.1093470E+00
         21   -1    0    0  501  502  0.00000000000E+00  0.00000000000E+00  0.55770133710E+01  0.55770133710E+01  0.00000000000E+00 0. -1.
         13   -1    0    0    0    0 -0.00000000000E+00 -0.00000000000E+00 -0.10000000000E+04  0.10000000000E+04  0.00000000000E+00 0.  1.
    9000005    2    1    2  501    0  0.51279029232E+02  0.28839847078E+02 -0.80672932170E+03  0.80887879916E+03  0.33819557848E+01 0.  0.
         13    1    3    3    0    0  0.56695947733E+01  0.25152602814E+01 -0.97492608149E+02  0.97689710220E+02  0.00000000000E+00 0.  1.
          1    1    3    3  501    0  0.45609434458E+02  0.26324586797E+02 -0.70923671355E+03  0.71118908894E+03  0.00000000000E+00 0.  1.
         -3    1    1    2    0  502 -0.51279029232E+02 -0.28839847078E+02 -0.18769366493E+03  0.19669821421E+03  0.00000000000E+00 0. -1.
<mgrwt>
<rscale>  1 0.30000000E+03</rscale>
<asrwt>0</asrwt>
<pdfrwt beam="1">  1       21 0.20280091E-01 0.30000000E+03</pdfrwt>
<pdfrwt beam="2">0</pdfrwt>
<totfact> 0.23363202E+03</totfact>
</mgrwt>
</event>
<event>
 6    1  0.1295671E-001  0.3000000E+03  0.7818608E-02  0.1093470E+00
         21   -1    0    0  501  502  0.00000000000E+00  0.00000000000E+00  0.17889715911E+01  0.17889715911E+01  0.00000000000E+00 0. -1.
         13   -1    0    0    0    0 -0.00000000000E+00 -0.00000000000E+00 -0.10000000000E+04  0.10000000000E+04  0.00000000000E+00 0.  1.
    9000005    2    1    2  501    0  0.41724322851E+02  0.16974979502E+01 -0.57373923912E+03  0.57526804535E+03  0.35789498337E+01 0.  0.
         13    1    3    3    0    0  0.10652942382E+01  0.59630093826E+00 -0.19717328569E+02  0.19755087257E+02  0.00000000000E+00 0.  1.
          1    1    3    3  501    0  0.40659028613E+02  0.11011970120E+01 -0.55402191055E+03  0.55551295810E+03  0.00000000000E+00 0.  1.
         -3    1    1    2    0  502 -0.41724322851E+02 -0.16974979502E+01 -0.42447178929E+03  0.42652092624E+03  0.00000000000E+00 0. -1.
<mgrwt>
<rscale>  1 0.30000000E+03</rscale>
<asrwt>0</asrwt>
<pdfrwt beam="1">  1       21 0.65053650E-02 0.30000000E+03</pdfrwt>
<pdfrwt beam="2">0</pdfrwt>
<totfact> 0.18323851E+04</totfact>
</mgrwt>
</event>
<event>
 6    1  0.1295671E-001  0.3000000E+03  0.7818608E-02  0.1093470E+00
         21   -1    0    0  501  502  0.00000000000E+00  0.00000000000E+00  0.16886252856E+01  0.16886252856E+01  0.00000000000E+00 0. -1.
         13   -1    0    0    0    0 -0.00000000000E+00 -0.00000000000E+00 -0.10000000000E+04  0.10000000000E+04  0.00000000000E+00 0.  1.
    9000005    2    1    2  501    0  0.29036170038E+02 -0.25570870350E+02 -0.33360004539E+03  0.33585221902E+03  0.32793525748E+01 0.  0.
         13    1    3    3    0    0  0.14753328473E+02 -0.11040616226E+02 -0.16477060764E+03  0.16579779567E+03  0.00000000000E+00 0.  1.
          3    1    3    3  501    0  0.14282841564E+02 -0.14530254124E+02 -0.16882943775E+03  0.17005442335E+03  0.00000000000E+00 0.  1.
         -1    1    1    2    0  502 -0.29036170038E+02  0.25570870350E+02 -0.66471132932E+03  0.66583640627E+03  0.00000000000E+00 0. -1.
<mgrwt>
<rscale>  1 0.30000000E+03</rscale>
<asrwt>0</asrwt>
<pdfrwt beam="1">  1       21 0.61404685E-02 0.30000000E+03</pdfrwt>
<pdfrwt beam="2">0</pdfrwt>
<totfact> 0.20246851E+04</totfact>
</mgrwt>
</event>
<event>
 6    1  0.1295671E-001  0.3000000E+03  0.7818608E-02  0.1093470E+00
         21   -1    0    0  501  502  0.00000000000E+00  0.00000000000E+00  0.56489983371E+01  0.56489983371E+01  0.00000000000E+00 0. -1.
         13   -1    0    0    0    0 -0.00000000000E+00 -0.00000000000E+00 -0.10000000000E+04  0.10000000000E+04  0.00000000000E+00 0.  1.
    9000005    2    1    2  501    0 -0.35505349613E+02  0.52201042151E+01 -0.55886425785E+02  0.66498510121E+02  0.32984726989E+01 0.  0.
         13    1    3    3    0    0 -0.19654603488E+02  0.35760086549E+01 -0.28313804684E+02  0.34652024643E+02  0.00000000000E+00 0.  1.
          3    1    3    3  501    0 -0.15850746124E+02  0.16440955602E+01 -0.27572621101E+02  0.31846485478E+02  0.00000000000E+00 0.  1.
         -1    1    1    2    0  502  0.35505349613E+02 -0.52201042151E+01 -0.93846457588E+03  0.93915048822E+03  0.00000000000E+00 0. -1.
<mgrwt>
<rscale>  1 0.30000000E+03</rscale>
<asrwt>0</asrwt>
<pdfrwt beam="1">  1       21 0.20541855E-01 0.30000000E+03</pdfrwt>
<pdfrwt beam="2">0</pdfrwt>
<totfact> 0.22797181E+03</totfact>
</mgrwt>
</event>
<event>
 6    1  0.1295671E-001  0.3000000E+03  0.7818608E-02  0.1093470E+00
         21   -1    0    0  501  502  0.00000000000E+00  0.00000000000E+00  0.12412818408E+01  0.12412818408E+01  0.00000000000E+00 0. -1.
         13   -1    0    0    0    0 -0.00000000000E+00 -0.00000000000E+00 -0.10000000000E+04  0.10000000000E+04  0.00000000000E+00 0.  1.
    9000005    2    1    2  501    0 -0.22360401209E+02  0.25526865519E+02 -0.60330830955E+03  0.60433747224E+03  0.95527785155E+01 0.  0.
         13    1    3    3    0    0 -0.20931319796E+02  0.19818041277E+02 -0.45474230431E+03  0.45565495524E+03  0.00000000000E+00 0.  1.
          3    1    3    3  501    0 -0.14290814131E+01  0.57088242421E+01 -0.14856600524E+03  0.14868251700E+03  0.00000000000E+00 0.  1.
         -1    1    1    2    0  502  0.22360401209E+02 -0.25526865519E+02 -0.39545040861E+03  0.39690380960E+03  0.00000000000E+00 0. -1.
<mgrwt>
<rscale>  1 0.30000000E+03</rscale>
<asrwt>0</asrwt>
<pdfrwt beam="1">  1       21 0.45137617E-02 0.30000000E+03</pdfrwt>
<pdfrwt beam="2">0</pdfrwt>
<totfact> 0.34280085E+04</totfact>
</mgrwt>
</event>
<event>
 6    1  0.1295671E-001  0.3000000E+03  0.7818608E-02  0.1093470E+00
         21   -1    0    0  501  502  0.00000000000E+00  0.00000000000E+00  0.12236276062E+01  0.12236276062E+01  0.00000000000E+00 0. -1.
         13   -1    0    0    0    0 -0.00000000000E+00 -0.00000000000E+00 -0.10000000000E+04  0.10000000000E+04  0.00000000000E+00 0.  1.
    9000005    2    1    2  501    0 -0.34576069621E+02  0.42272409493E+01 -0.53838514995E+03  0.53951652147E+03  0.24765081124E+01 0.  0.
         13    1    3    3    0    0 -0.16074258530E+02  0.18747483038E+01 -0.26925101853E+03  0.26973692266E+03  0.00000000000E+00 0.  1.
          3    1    3    3  501    0 -0.18501811090E+02  0.23524926455E+01 -0.26913413142E+03  0.26977959880E+03  0.00000000000E+00 0.  1.
         -1    1    1    2    0  502  0.34576069621E+02 -0.42272409493E+01 -0.46039122244E+03  0.46170710614E+03  0.00000000000E+00 0. -1.
<mgrwt>
<rscale>  1 0.30000000E+03</rscale>
<asrwt>0</asrwt>
<pdfrwt beam="1">  1       21 0.44495643E-02 0.30000000E+03</pdfrwt>
<pdfrwt beam="2">0</pdfrwt>
<totfact> 0.35123284E+04</totfact>
</mgrwt>
</event>
<event>
 6    1  0.1295671E-001  0.3000000E+03  0.7818608E-02  0.1093470E+00
         21   -1    0    0  501  502  0.00000000000E+00  0.00000000000E+00  0.14586844275E+01  0.14586844275E+01  0.00000000000E+00 0. -1.
         13   -1    0    0    0    0 -0.00000000000E+00 -0.00000000000E+00 -0.10000000000E+04  0.10000000000E+04  0.00000000000E+00 0.  1.
    9000005    2    1    2  501    0 -0.33693959873E+02  0.17596852824E+02 -0.53760239709E+03  0.53895504257E+03  0.33568425331E+01 0.  0.
         13    1    3    3    0    0 -0.88976504577E+01  0.57415860265E+01 -0.13382381596E+03  0.13424212346E+03  0.00000000000E+00 0.  1.
          3    1    3    3  501    0 -0.24796309415E+02  0.11855266797E+02 -0.40377858113E+03  0.40471291910E+03  0.00000000000E+00 0.  1.
         -3    1    1    2    0  502  0.33693959873E+02 -0.17596852824E+02 -0.46093891848E+03  0.46250364186E+03  0.00000000000E+00 0. -1.
<mgrwt>
<rscale>  1 0.30000000E+03</rscale>
<asrwt>0</asrwt>
<pdfrwt beam="1">  1       21 0.53043182E-02 0.30000000E+03</pdfrwt>
<pdfrwt beam="2">0</pdfrwt>
<totfact> 0.26040566E+04</totfact>
</mgrwt>
</event>
<event>
 6    1  0.1295671E-001  0.3000000E+03  0.7818608E-02  0.1093470E+00
         21   -1    0    0  501  502  0.00000000000E+00  0.00000000000E+00  0.13700834662E+01  0.13700834662E+01  0.00000000000E+00 0. -1.
         13   -1    0    0    0    0 -0.00000000000E+00 -0.00000000000E+00 -0.10000000000E+04  0.10000000000E+04  0.00000000000E+00 0.  1.
    9000005    2    1    2  501    0 -0.33677374756E+02  0.12205255471E+02 -0.61796706621E+03  0.61902555370E+03  0.51193136305E+01 0.  0.
         13    1    3    3    0    0 -0.24139159277E+02  0.86848521724E+01 -0.47945913864E+03  0.48014496903E+03  0.00000000000E+00 0.  1.
          1    1    3    3  501    0 -0.95382154790E+01  0.35204032985E+01 -0.13850792758E+03  0.13888058466E+03  0.00000000000E+00 0.  1.
         -3    1    1    2    0  502  0.33677374756E+02 -0.12205255471E+02 -0.38066285032E+03  0.38234452977E+03  0.00000000000E+00 0. -1.
<mgrwt>
<rscale>  1 0.30000000E+03</rscale>
<asrwt>0</asrwt>
<pdfrwt beam="1">  1       21 0.49821322E-02 0.30000000E+03</pdfrwt>
<pdfrwt beam="2">0</pdfrwt>
<totfact> 0.28980968E+04</totfact>
</mgrwt>
</event>
<event>
 6    1  0.1295671E-001  0.3000000E+03  0.7818608E-02  0.1093470E+00
         21   -1    0    0  501  502  0.00000000000E+00  0.00000000000E+00  0.11979644997E+01  0.11979644997E+01  0.00000000000E+00 0. -1.
         13   -1    0    0    0    0 -0.00000000000E+00 -0.00000000000E+00 -0.10000000000E+04  0.10000000000E+04  0.00000000000E+00 0.  1.
    9000005    2    1    2  501    0 -0.31321827210E+02 -0.80891549957E+01 -0.67613880934E+03  0.67691714668E+03  0.25773412835E+01 0.  0.
         13    1    3    3    0    0 -0.12936261508E+02 -0.35197373837E+01 -0.25431392943E+03  0.25466705738E+03  0.00000000000E+00 0.  1.
          3    1    3    3  501    0 -0.18385565702E+02 -0.45694176119E+01 -0.42182487991E+03  0.42225008930E+03  0.00000000000E+00 0.  1.
         -3    1    1    2    0  502  0.31321827210E+02  0.80891549957E+01 -0.32266322616E+03  0.32428081781E+03  0.00000000000E+00 0. -1.
<mgrwt>
<rscale>  1 0.30000000E+03</rscale>
<asrwt>0</asrwt>
<pdfrwt beam="1">  1       21 0.43562437E-02 0.30000000E+03</pdfrwt>
<pdfrwt beam="2">0</pdfrwt>
<totfact> 0.36407377E+04</totfact>
</mgrwt>
</event>
<event>
 6    1  0.1295671E-001  0.3000000E+03  0.7818608E-02  0.1093470E+00
         21   -1    0    0  501  502  0.00000000000E+00  0.00000000000E+00  0.10178605366E+01  0.10178605366E+01  0.00000000000E+00 0. -1.
         13   -1    0    0    0    0 -0.00000000000E+00 -0.00000000000E+00 -0.10000000000E+04  0.10000000000E+04  0.00000000000E+00 0.  1.
    9000005    2    1    2  501    0  0.30493552286E+02 -0.86267741480E+01 -0.54555224215E+03  0.54648188864E+03  0.33057135425E+01 0.  0.
         13    1    3    3    0    0  0.18812778099E+02 -0.50081931848E+01 -0.30731583152E+03  0.30793184785E+03  0.00000000000E+00 0.  1.
          1    1    3    3  501    0  0.11680774186E+02 -0.36185809632E+01 -0.23823641062E+03  0.23855004079E+03  0.00000000000E+00 0.  1.
         -1    1    1    2    0  502 -0.30493552286E+02  0.86267741480E+01 -0.45342989732E+03  0.45453597189E+03  0.00000000000E+00 0. -1.
<mgrwt>
<rscale>  1 0.30000000E+03</rscale>
<asrwt>0</asrwt>
<pdfrwt beam="1">  1       21 0.37013188E-02 0.30000000E+03</pdfrwt>
<pdfrwt beam="2">0</pdfrwt>
<totfact> 0.47906773E+04</totfact>
</mgrwt>
</event>
<event>
 6    1  0.1295671E-001  0.3000000E+03  0.7818608E-02  0.1093470E+00
         21   -1    0    0  501  502  0.00000000000E+00  0.00000000000E+00  0.16396013290E+01  0.16396013290E+01  0.00000000000E+00 0. -1.
         13   -1    0    0    0    0 -0.00000000000E+00 -0.00000000000E+00 -0.10000000000E+04  0.10000000000E+04  0.00000000000E+00 0.  1.
    9000005    2    1    2  501    0  0.11228143021E+02  0.33282548389E+02 -0.74728252959E+03  0.74811663281E+03  0.36766884217E+01 0.  0.
         13    1    3    3    0    0  0.59202145703E+01  0.19808578309E+02 -0.40370610347E+03  0.40423513788E+03  0.00000000000E+00 0.  1.
          3    1    3    3  501    0  0.53079284511E+01  0.13473970080E+02 -0.34357642612E+03  0.34388149494E+03  0.00000000000E+00 0.  1.
         -3    1    1    2    0  502 -0.11228143021E+02 -0.33282548389E+02 -0.25107786908E+03  0.25352296852E+03  0.00000000000E+00 0. -1.
<mgrwt>
<rscale>  1 0.30000000E+03</rscale>
<asrwt>0</asrwt>
<pdfrwt beam="1">  1       21 0.59621992E-02 0.30000000E+03</pdfrwt>
<pdfrwt beam="2">0</pdfrwt>
<totfact> 0.21302570E+04</totfact>
</mgrwt>
</event>
<event>
 6    1  0.1295671E-001  0.3000000E+03  0.7818608E-02  0.1093470E+00
         21   -1    0    0  501  502  0.00000000000E+00  0.00000000000E+00  0.33777955352E+01  0.33777955352E+01  0.00000000000E+00 0. -1.
         13   -1    0    0    0    0 -0.00000000000E+00 -0.00000000000E+00 -0.10000000000E+04  0.10000000000E+04  0.00000000000E+00 0.  1.
    9000005    2    1    2  501    0 -0.39389356738E+02  0.26505588229E+01 -0.86633746745E+03  0.86724308437E+03  0.33783109998E+01 0.  0.
         13    1    3    3    0    0 -0.38214798806E+02  0.23652565757E+01 -0.84942567341E+03  0.85028815112E+03  0.00000000000E+00 0.  1.
          3    1    3    3  501    0 -0.11745579323E+01  0.28530224721E+00 -0.16911794039E+02  0.16954933245E+02  0.00000000000E+00 0.  1.
         -1    1    1    2    0  502  0.39389356738E+02 -0.26505588229E+01 -0.13028473701E+03  0.13613471117E+03  0.00000000000E+00 0. -1.
<mgrwt>
<rscale>  1 0.30000000E+03</rscale>
<asrwt>0</asrwt>
<pdfrwt beam="1">  1       21 0.12282919E-01 0.30000000E+03</pdfrwt>
<pdfrwt beam="2">0</pdfrwt>
<totfact> 0.59401480E+03</totfact>
</mgrwt>
</event>
<event>
 6    1  0.1295671E-001  0.3000000E+03  0.7818608E-02  0.1093470E+00
         21   -1    0    0  501  502  0.00000000000E+00  0.00000000000E+00  0.14631996976E+01  0.14631996976E+01  0.00000000000E+00 0. -1.
         13   -1    0    0    0    0 -0.00000000000E+00 -0.00000000000E+00 -0.10000000000E+04  0.10000000000E+04  0.00000000000E+00 0.  1.
    9000005    2    1    2  501    0 -0.32646926933E+02 -0.72682291837E+01 -0.74159040216E+03  0.74234913116E+03  0.26942476992E+01 0.  0.
         13    1    3    3    0    0 -0.13504819006E+00 -0.13963763638E+00 -0.18205465965E+01  0.18308813706E+01  0.00000000000E+00 0.  1.
          1    1    3    3  501    0 -0.32511878743E+02 -0.71285915473E+01 -0.73976985556E+03  0.74051824979E+03  0.00000000000E+00 0.  1.
         -3    1    1    2    0  502  0.32646926933E+02  0.72682291837E+01 -0.25694639814E+03  0.25911406853E+03  0.00000000000E+00 0. -1.
<mgrwt>
<rscale>  1 0.30000000E+03</rscale>
<asrwt>0</asrwt>
<pdfrwt beam="1">  1       21 0.53207374E-02 0.30000000E+03</pdfrwt>
<pdfrwt beam="2">0</pdfrwt>
<totfact> 0.25903257E+04</totfact>
</mgrwt>
</event>
<event>
 6    1  0.1295671E-001  0.3000000E+03  0.7818608E-02  0.1093470E+00
         21   -1    0    0  501  502  0.00000000000E+00  0.00000000000E+00  0.28859009482E+01  0.28859009482E+01  0.00000000000E+00 0. -1.
         13   -1    0    0    0    0 -0.00000000000E+00 -0.00000000000E+00 -0.10000000000E+04  0.10000000000E+04  0.00000000000E+00 0.  1.
    9000005    2    1    2  501    0  0.49564712798E+02 -0.16722228390E+02 -0.61097988142E+03  0.61322460225E+03  0.34210564987E+01 0.  0.
         13    1    3    3    0    0  0.34798932607E+02 -0.11509464206E+02 -0.40942336274E+03  0.41106072962E+03  0.00000000000E+00 0.  1.
          1    1    3    3  501    0  0.14765780191E+02 -0.52127641836E+01 -0.20155651868E+03  0.20216387263E+03  0.00000000000E+00 0.  1.
         -3    1    1    2    0  502 -0.49564712798E+02  0.16722228390E+02 -0.38613421763E+03  0.38966129870E+03  0.00000000000E+00 0. -1.
<mgrwt>
<rscale>  1 0.30000000E+03</rscale>
<asrwt>0</asrwt>
<pdfrwt beam="1">  1       21 0.10494207E-01 0.30000000E+03</pdfrwt>
<pdfrwt beam="2">0</pdfrwt>
<totfact> 0.78916711E+03</totfact>
</mgrwt>
</event>
<event>
 6    1  0.1295671E-001  0.3000000E+03  0.7818608E-02  0.1093470E+00
         21   -1    0    0  501  502  0.00000000000E+00  0.00000000000E+00  0.12431767092E+01  0.12431767092E+01  0.00000000000E+00 0. -1.
         13   -1    0    0    0    0 -0.00000000000E+00 -0.00000000000E+00 -0.10000000000E+04  0.10000000000E+04  0.00000000000E+00 0.  1.
    9000005    2    1    2  501    0 -0.97906931409E+01 -0.28818753473E+02 -0.25043683717E+03  0.25230447437E+03  0.35440308693E+01 0.  0.
         13    1    3    3    0    0 -0.19617160168E+01 -0.10793310233E+02 -0.85418831921E+02  0.86120385056E+02  0.00000000000E+00 0.  1.
          1    1    3    3  501    0 -0.78289771242E+01 -0.18025443240E+02 -0.16501800525E+03  0.16618408932E+03  0.00000000000E+00 0.  1.
         -3    1    1    2    0  502  0.97906931409E+01  0.28818753473E+02 -0.74831998612E+03  0.74893870233E+03  0.00000000000E+00 0. -1.
<mgrwt>
<rscale>  1 0.30000000E+03</rscale>
<asrwt>0</asrwt>
<pdfrwt beam="1">  1       21 0.45206521E-02 0.30000000E+03</pdfrwt>
<pdfrwt beam="2">0</pdfrwt>
<totfact> 0.34191441E+04</totfact>
</mgrwt>
</event>
<event>
 6    1  0.1295671E-001  0.3000000E+03  0.7818608E-02  0.1093470E+00
         21   -1    0    0  501  502  0.00000000000E+00  0.00000000000E+00  0.18328647616E+01  0.18328647616E+01  0.00000000000E+00 0. -1.
         13   -1    0    0    0    0 -0.00000000000E+00 -0.00000000000E+00 -0.10000000000E+04  0.10000000000E+04  0.00000000000E+00 0.  1.
    9000005    2    1    2  501    0  0.16005345049E+02  0.31714271340E+02 -0.77787156328E+03  0.77869141836E+03  0.37669608970E+01 0.  0.
         13    1    3    3    0    0  0.12928785388E+02  0.22762256071E+02 -0.54751053183E+03  0.54813598337E+03  0.00000000000E+00 0.  1.
          3    1    3    3  501    0  0.30765596610E+01  0.89520152689E+01 -0.23036103145E+03  0.23055543500E+03  0.00000000000E+00 0.  1.
         -1    1    1    2    0  502 -0.16005345049E+02 -0.31714271340E+02 -0.22029557196E+03  0.22314144640E+03  0.00000000000E+00 0. -1.
<mgrwt>
<rscale>  1 0.30000000E+03</rscale>
<asrwt>0</asrwt>
<pdfrwt beam="1">  1       21 0.66649768E-02 0.30000000E+03</pdfrwt>
<pdfrwt beam="2">0</pdfrwt>
<totfact> 0.17570171E+04</totfact>
</mgrwt>
</event>
<event>
 6    1  0.1295671E-001  0.3000000E+03  0.7818608E-02  0.1093470E+00
         21   -1    0    0  501  502  0.00000000000E+00  0.00000000000E+00  0.19509907019E+02  0.19509907019E+02  0.00000000000E+00 0. -1.
         13   -1    0    0    0    0 -0.00000000000E+00 -0.00000000000E+00 -0.10000000000E+04  0.10000000000E+04  0.00000000000E+00 0.  1.
    9000005    2    1    2  501    0  0.64817567073E+02 -0.65469076741E+02 -0.10728977938E+03  0.14146303772E+03  0.36300511304E+01 0.  0.
         13    1    3    3    0    0  0.58040457672E+02 -0.57104351355E+02 -0.94040513239E+02  0.12439139762E+03  0.00000000000E+00 0.  1.
          1    1    3    3  501    0  0.67771094003E+01 -0.83647253857E+01 -0.13249266136E+02  0.17071640102E+02  0.00000000000E+00 0.  1.
         -3    1    1    2    0  502 -0.64817567073E+02  0.65469076741E+02 -0.87320031361E+03  0.87804686930E+03  0.00000000000E+00 0. -1.
<mgrwt>
<rscale>  1 0.30000000E+03</rscale>
<asrwt>0</asrwt>
<pdfrwt beam="1">  1       21 0.70945266E-01 0.30000000E+03</pdfrwt>
<pdfrwt beam="2">0</pdfrwt>
<totfact> 0.17097471E+02</totfact>
</mgrwt>
</event>
<event>
 6    1  0.1295671E-001  0.3000000E+03  0.7818608E-02  0.1093470E+00
         21   -1    0    0  501  502  0.00000000000E+00  0.00000000000E+00  0.21769127426E+01  0.21769127426E+01  0.00000000000E+00 0. -1.
         13   -1    0    0    0    0 -0.00000000000E+00 -0.00000000000E+00 -0.10000000000E+04  0.10000000000E+04  0.00000000000E+00 0.  1.
    9000005    2    1    2  501    0  0.43535324231E+02 -0.55372664306E+01 -0.33056110763E+03  0.33347328987E+03  0.27934582987E+01 0.  0.
         13    1    3    3    0    0  0.74711712695E+01 -0.10755827730E+01 -0.65235036064E+02  0.65670276448E+02  0.00000000000E+00 0.  1.
          3    1    3    3  501    0  0.36064152962E+02 -0.44616836577E+01 -0.26532607156E+03  0.26780301343E+03  0.00000000000E+00 0.  1.
         -1    1    1    2    0  502 -0.43535324231E+02  0.55372664306E+01 -0.66726197963E+03  0.66870362287E+03  0.00000000000E+00 0. -1.
<mgrwt>
<rscale>  1 0.30000000E+03</rscale>
<asrwt>0</asrwt>
<pdfrwt beam="1">  1       21 0.79160630E-02 0.30000000E+03</pdfrwt>
<pdfrwt beam="2">0</pdfrwt>
<totfact> 0.13012656E+04</totfact>
</mgrwt>
</event>
<event>
 6    1  0.1295671E-001  0.3000000E+03  0.7818608E-02  0.1093470E+00
         21   -1    0    0  501  502  0.00000000000E+00  0.00000000000E+00  0.95392169130E+01  0.95392169130E+01  0.00000000000E+00 0. -1.
         13   -1    0    0    0    0 -0.00000000000E+00 -0.00000000000E+00 -0.10000000000E+04  0.10000000000E+04  0.00000000000E+00 0.  1.
    9000005    2    1    2  501    0  0.67215543464E+02 -0.59028595339E+02 -0.69757829644E+03  0.70330000431E+03  0.36210562729E+01 0.  0.
         13    1    3    3    0    0  0.57435860621E+02 -0.50525129760E+02 -0.60612252732E+03  0.61093058931E+03  0.00000000000E+00 0.  1.
          1    1    3    3  501    0  0.97796828429E+01 -0.85034655782E+01 -0.91455769117E+02  0.92369415004E+02  0.00000000000E+00 0.  1.
         -3    1    1    2    0  502 -0.67215543464E+02  0.59028595339E+02 -0.29288248665E+03  0.30623921260E+03  0.00000000000E+00 0. -1.
<mgrwt>
<rscale>  1 0.30000000E+03</rscale>
<asrwt>0</asrwt>
<pdfrwt beam="1">  1       21 0.34688135E-01 0.30000000E+03</pdfrwt>
<pdfrwt beam="2">0</pdfrwt>
<totfact> 0.81048984E+02</totfact>
</mgrwt>
</event>
<event>
 6    1  0.1295671E-001  0.3000000E+03  0.7818608E-02  0.1093470E+00
         21   -1    0    0  501  502  0.00000000000E+00  0.00000000000E+00  0.15271779808E+01  0.15271779808E+01  0.00000000000E+00 0. -1.
         13   -1    0    0    0    0 -0.00000000000E+00 -0.00000000000E+00 -0.10000000000E+04  0.10000000000E+04  0.00000000000E+00 0.  1.
    9000005    2    1    2  501    0 -0.20389844985E+02 -0.33216781933E+02 -0.48962918519E+03  0.49119302557E+03  0.38404418032E+01 0.  0.
         13    1    3    3    0    0 -0.14857198401E+02 -0.26553926891E+02 -0.39334382777E+03  0.39451896561E+03  0.00000000000E+00 0.  1.
          1    1    3    3  501    0 -0.55326465841E+01 -0.66628550418E+01 -0.96285357422E+02  0.96674059962E+02  0.00000000000E+00 0.  1.
         -3    1    1    2    0  502  0.20389844985E+02  0.33216781933E+02 -0.50884363683E+03  0.51033415241E+03  0.00000000000E+00 0. -1.
<mgrwt>
<rscale>  1 0.30000000E+03</rscale>
<asrwt>0</asrwt>
<pdfrwt beam="1">  1       21 0.55533862E-02 0.30000000E+03</pdfrwt>
<pdfrwt beam="2">0</pdfrwt>
<totfact> 0.24071970E+04</totfact>
</mgrwt>
</event>
<event>
 6    1  0.1295671E-001  0.3000000E+03  0.7818608E-02  0.1093470E+00
         21   -1    0    0  501  502  0.00000000000E+00  0.00000000000E+00  0.93761066049E+00  0.93761066049E+00  0.00000000000E+00 0. -1.
         13   -1    0    0    0    0 -0.00000000000E+00 -0.00000000000E+00 -0.10000000000E+04  0.10000000000E+04  0.00000000000E+00 0.  1.
    9000005    2    1    2  501    0 -0.24470497239E+02  0.18046475948E+02 -0.45924916139E+03  0.46026876414E+03  0.36142047061E+01 0.  0.
         13    1    3    3    0    0 -0.83920546830E+01  0.41598765013E+01 -0.13579639987E+03  0.13611904118E+03  0.00000000000E+00 0.  1.
          3    1    3    3  501    0 -0.16078442556E+02  0.13886599446E+02 -0.32345276152E+03  0.32414972296E+03  0.00000000000E+00 0.  1.
         -1    1    1    2    0  502  0.24470497239E+02 -0.18046475948E+02 -0.53981322795E+03  0.54066884652E+03  0.00000000000E+00 0. -1.
<mgrwt>
<rscale>  1 0.30000000E+03</rscale>
<asrwt>0</asrwt>
<pdfrwt beam="1">  1       21 0.34095005E-02 0.30000000E+03</pdfrwt>
<pdfrwt beam="2">0</pdfrwt>
<totfact> 0.54974053E+04</totfact>
</mgrwt>
</event>
<event>
 6    1  0.1295671E-001  0.3000000E+03  0.7818608E-02  0.1093470E+00
         21   -1    0    0  501  502  0.00000000000E+00  0.00000000000E+00  0.13195908722E+01  0.13195908722E+01  0.00000000000E+00 0. -1.
         13   -1    0    0    0    0 -0.00000000000E+00 -0.00000000000E+00 -0.10000000000E+04  0.10000000000E+04  0.00000000000E+00 0.  1.
    9000005    2    1    2  501    0  0.19999389163E+02  0.28379780361E+02 -0.64335822262E+03  0.64430524421E+03  0.37493465525E+01 0.  0.
         13    1    3    3    0    0  0.11199573950E+02  0.17852269697E+02 -0.36254278881E+03  0.36315479855E+03  0.00000000000E+00 0.  1.
          1    1    3    3  501    0  0.87998152127E+01  0.10527510664E+02 -0.28081543381E+03  0.28115044566E+03  0.00000000000E+00 0.  1.
         -3    1    1    2    0  502 -0.19999389163E+02 -0.28379780361E+02 -0.35532218651E+03  0.35701434667E+03  0.00000000000E+00 0. -1.
<mgrwt>
<rscale>  1 0.30000000E+03</rscale>
<asrwt>0</asrwt>
<pdfrwt beam="1">  1       21 0.47985224E-02 0.30000000E+03</pdfrwt>
<pdfrwt beam="2">0</pdfrwt>
<totfact> 0.30894723E+04</totfact>
</mgrwt>
</event>
<event>
 6    1  0.1295671E-001  0.3000000E+03  0.7818608E-02  0.1093470E+00
         21   -1    0    0  501  502  0.00000000000E+00  0.00000000000E+00  0.51561565073E+01  0.51561565073E+01  0.00000000000E+00 0. -1.
         13   -1    0    0    0    0 -0.00000000000E+00 -0.00000000000E+00 -0.10000000000E+04  0.10000000000E+04  0.00000000000E+00 0.  1.
    9000005    2    1    2  501    0  0.36521793599E+02  0.64961837585E+01 -0.92769007280E+03  0.92843803134E+03  0.35021499459E+01 0.  0.
         13    1    3    3    0    0  0.24189016483E+02  0.26294835391E+01 -0.59957184417E+03  0.60006534563E+03  0.00000000000E+00 0.  1.
          1    1    3    3  501    0  0.12332777116E+02  0.38667002194E+01 -0.32811822863E+03  0.32837268571E+03  0.00000000000E+00 0.  1.
         -1    1    1    2    0  502 -0.36521793599E+02 -0.64961837585E+01 -0.67153770694E+02  0.76718125169E+02  0.00000000000E+00 0. -1.
<mgrwt>
<rscale>  1 0.30000000E+03</rscale>
<asrwt>0</asrwt>
<pdfrwt beam="1">  1       21 0.18749700E-01 0.30000000E+03</pdfrwt>
<pdfrwt beam="2">0</pdfrwt>
<totfact> 0.27123596E+03</totfact>
</mgrwt>
</event>
<event>
 6    1  0.1295671E-001  0.3000000E+03  0.7818608E-02  0.1093470E+00
         21   -1    0    0  501  502  0.00000000000E+00  0.00000000000E+00  0.59581772656E+01  0.59581772656E+01  0.00000000000E+00 0. -1.
         13   -1    0    0    0    0 -0.00000000000E+00 -0.00000000000E+00 -0.10000000000E+04  0.10000000000E+04  0.00000000000E+00 0.  1.
    9000005    2    1    2  501    0  0.68064149937E+02  0.95110186765E+01 -0.72571466612E+03  0.72896963787E+03  0.34304989926E+01 0.  0.
         13    1    3    3    0    0  0.78316407659E+01  0.51412112314E+00 -0.93185759144E+02  0.93515691865E+02  0.00000000000E+00 0.  1.
          1    1    3    3  501    0  0.60232509171E+02  0.89968975534E+01 -0.63252890698E+03  0.63545394600E+03  0.00000000000E+00 0.  1.
         -3    1    1    2    0  502 -0.68064149937E+02 -0.95110186765E+01 -0.26832715661E+03  0.27698853940E+03  0.00000000000E+00 0. -1.
<mgrwt>
<rscale>  1 0.30000000E+03</rscale>
<asrwt>0</asrwt>
<pdfrwt beam="1">  1       21 0.21666145E-01 0.30000000E+03</pdfrwt>
<pdfrwt beam="2">0</pdfrwt>
<totfact> 0.20582640E+03</totfact>
</mgrwt>
</event>
<event>
 6    1  0.1295671E-001  0.3000000E+03  0.7818608E-02  0.1093470E+00
         21   -1    0    0  501  502  0.00000000000E+00  0.00000000000E+00  0.12549119776E+01  0.12549119776E+01  0.00000000000E+00 0. -1.
         13   -1    0    0    0    0 -0.00000000000E+00 -0.00000000000E+00 -0.10000000000E+04  0.10000000000E+04  0.00000000000E+00 0.  1.
    9000005    2    1    2  501    0  0.12012390873E+02 -0.33211143212E+02 -0.48309290462E+03  0.48439472603E+03  0.34955036246E+01 0.  0.
         13    1    3    3    0    0  0.22808771805E+01 -0.10598771769E+02 -0.13861986660E+03  0.13904317236E+03  0.00000000000E+00 0.  1.
          1    1    3    3  501    0  0.97315136921E+01 -0.22612371443E+02 -0.34447303802E+03  0.34535155367E+03  0.00000000000E+00 0.  1.
         -1    1    1    2    0  502 -0.12012390873E+02  0.33211143212E+02 -0.51565218341E+03  0.51686018595E+03  0.00000000000E+00 0. -1.
<mgrwt>
<rscale>  1 0.30000000E+03</rscale>
<asrwt>0</asrwt>
<pdfrwt beam="1">  1       21 0.45633259E-02 0.30000000E+03</pdfrwt>
<pdfrwt beam="2">0</pdfrwt>
<totfact> 0.33650255E+04</totfact>
</mgrwt>
</event>
<event>
 6    1  0.1295671E-001  0.3000000E+03  0.7818608E-02  0.1093470E+00
         21   -1    0    0  501  502  0.00000000000E+00  0.00000000000E+00  0.24586361109E+01  0.24586361109E+01  0.00000000000E+00 0. -1.
         13   -1    0    0    0    0 -0.00000000000E+00 -0.00000000000E+00 -0.10000000000E+04  0.10000000000E+04  0.00000000000E+00 0.  1.
    9000005    2    1    2  501    0 -0.46231878957E+02  0.19754130745E+01 -0.67792848343E+03  0.67951331219E+03  0.31660551937E+01 0.  0.
         13    1    3    3    0    0 -0.29453324558E+02 -0.68270392915E-01 -0.41962500381E+03  0.42065739838E+03  0.00000000000E+00 0.  1.
          3    1    3    3  501    0 -0.16778554399E+02  0.20436834674E+01 -0.25830347962E+03  0.25885591381E+03  0.00000000000E+00 0.  1.
         -3    1    1    2    0  502  0.46231878957E+02 -0.19754130745E+01 -0.31961288046E+03  0.32294532392E+03  0.00000000000E+00 0. -1.
<mgrwt>
<rscale>  1 0.30000000E+03</rscale>
<asrwt>0</asrwt>
<pdfrwt beam="1">  1       21 0.89405138E-02 0.30000000E+03</pdfrwt>
<pdfrwt beam="2">0</pdfrwt>
<totfact> 0.10500702E+04</totfact>
</mgrwt>
</event>
<event>
 6    1  0.1295671E-001  0.3000000E+03  0.7818608E-02  0.1093470E+00
         21   -1    0    0  501  502  0.00000000000E+00  0.00000000000E+00  0.92383935859E+00  0.92383935859E+00  0.00000000000E+00 0. -1.
         13   -1    0    0    0    0 -0.00000000000E+00 -0.00000000000E+00 -0.10000000000E+04  0.10000000000E+04  0.00000000000E+00 0.  1.
    9000005    2    1    2  501    0 -0.25875074440E+02 -0.15441158180E+02 -0.55022182513E+03  0.55105923378E+03  0.37780211470E+01 0.  0.
         13    1    3    3    0    0 -0.24534563420E+02 -0.15460578717E+02 -0.53032394174E+03  0.53111623726E+03  0.00000000000E+00 0.  1.
          3    1    3    3  501    0 -0.13405110202E+01  0.19420537362E-01 -0.19897883388E+02  0.19942996522E+02  0.00000000000E+00 0.  1.
         -3    1    1    2    0  502  0.25875074440E+02  0.15441158180E+02 -0.44885433551E+03  0.44986460558E+03  0.00000000000E+00 0. -1.
<mgrwt>
<rscale>  1 0.30000000E+03</rscale>
<asrwt>0</asrwt>
<pdfrwt beam="1">  1       21 0.33594229E-02 0.30000000E+03</pdfrwt>
<pdfrwt beam="2">0</pdfrwt>
<totfact> 0.56349913E+04</totfact>
</mgrwt>
</event>
<event>
 6    1  0.1295671E-001  0.3000000E+03  0.7818608E-02  0.1093470E+00
         21   -1    0    0  501  502  0.00000000000E+00  0.00000000000E+00  0.29745279001E+01  0.29745279001E+01  0.00000000000E+00 0. -1.
         13   -1    0    0    0    0 -0.00000000000E+00 -0.00000000000E+00 -0.10000000000E+04  0.10000000000E+04  0.00000000000E+00 0.  1.
    9000005    2    1    2  501    0  0.41965203306E+02 -0.34732206127E+02 -0.50978957327E+03  0.51270294445E+03  0.33905458235E+01 0.  0.
         13    1    3    3    0    0  0.33068704932E+01 -0.16395309914E+01 -0.34070048813E+02  0.34269398601E+02  0.00000000000E+00 0.  1.
          3    1    3    3  501    0  0.38658332813E+02 -0.33092675136E+02 -0.47571952446E+03  0.47843354585E+03  0.00000000000E+00 0.  1.
         -3    1    1    2    0  502 -0.41965203306E+02  0.34732206127E+02 -0.48723589883E+03  0.49027158345E+03  0.00000000000E+00 0. -1.
<mgrwt>
<rscale>  1 0.30000000E+03</rscale>
<asrwt>0</asrwt>
<pdfrwt beam="1">  1       21 0.10816488E-01 0.30000000E+03</pdfrwt>
<pdfrwt beam="2">0</pdfrwt>
<totfact> 0.74747228E+03</totfact>
</mgrwt>
</event>
<event>
 6    1  0.1295671E-001  0.3000000E+03  0.7818608E-02  0.1093470E+00
         21   -1    0    0  501  502  0.00000000000E+00  0.00000000000E+00  0.23291063787E+01  0.23291063787E+01  0.00000000000E+00 0. -1.
         13   -1    0    0    0    0 -0.00000000000E+00 -0.00000000000E+00 -0.10000000000E+04  0.10000000000E+04  0.00000000000E+00 0.  1.
    9000005    2    1    2  501    0  0.26045356902E+02  0.39108482893E+02 -0.61097652585E+03  0.61279044576E+03  0.34613906241E+01 0.  0.
         13    1    3    3    0    0  0.17257360275E+02  0.28595726149E+02 -0.42656681140E+03  0.42787238357E+03  0.00000000000E+00 0.  1.
          3    1    3    3  501    0  0.87879966274E+01  0.10512756744E+02 -0.18440971446E+03  0.18491806219E+03  0.00000000000E+00 0.  1.
         -1    1    1    2    0  502 -0.26045356902E+02 -0.39108482893E+02 -0.38669436777E+03  0.38953866061E+03  0.00000000000E+00 0. -1.
<mgrwt>
<rscale>  1 0.30000000E+03</rscale>
<asrwt>0</asrwt>
<pdfrwt beam="1">  1       21 0.84694956E-02 0.30000000E+03</pdfrwt>
<pdfrwt beam="2">0</pdfrwt>
<totfact> 0.11554271E+04</totfact>
</mgrwt>
</event>
<event>
 6    1  0.1295671E-001  0.3000000E+03  0.7818608E-02  0.1093470E+00
         21   -1    0    0  501  502  0.00000000000E+00  0.00000000000E+00  0.41964894033E+01  0.41964894033E+01  0.00000000000E+00 0. -1.
         13   -1    0    0    0    0 -0.00000000000E+00 -0.00000000000E+00 -0.10000000000E+04  0.10000000000E+04  0.00000000000E+00 0.  1.
    9000005    2    1    2  501    0  0.57840558843E+02  0.44911577542E+01 -0.72090817072E+03  0.72324605137E+03  0.32495331663E+01 0.  0.
         13    1    3    3    0    0  0.18677853872E+02  0.39591413880E+00 -0.24581577854E+03  0.24652467616E+03  0.00000000000E+00 0.  1.
          1    1    3    3  501    0  0.39162704971E+02  0.40952436154E+01 -0.47509239218E+03  0.47672137522E+03  0.00000000000E+00 0.  1.
         -3    1    1    2    0  502 -0.57840558843E+02 -0.44911577542E+01 -0.27489533987E+03  0.28095043803E+03  0.00000000000E+00 0. -1.
<mgrwt>
<rscale>  1 0.30000000E+03</rscale>
<asrwt>0</asrwt>
<pdfrwt beam="1">  1       21 0.15259994E-01 0.30000000E+03</pdfrwt>
<pdfrwt beam="2">0</pdfrwt>
<totfact> 0.39889839E+03</totfact>
</mgrwt>
</event>
<event>
 6    1  0.1295671E-001  0.3000000E+03  0.7818608E-02  0.1093470E+00
         21   -1    0    0  501  502  0.00000000000E+00  0.00000000000E+00  0.15167907013E+02  0.15167907013E+02  0.00000000000E+00 0. -1.
         13   -1    0    0    0    0 -0.00000000000E+00 -0.00000000000E+00 -0.10000000000E+04  0.10000000000E+04  0.00000000000E+00 0.  1.
    9000005    2    1    2  501    0  0.34941150646E+02  0.93645169123E+02 -0.78891752805E+03  0.79522969191E+03  0.30158119290E+01 0.  0.
         13    1    3    3    0    0  0.28528610548E+02  0.79436207876E+02 -0.66322929735E+03  0.66857841246E+03  0.00000000000E+00 0.  1.
          3    1    3    3  501    0  0.64125400979E+01  0.14208961247E+02 -0.12568823070E+03  0.12665127945E+03  0.00000000000E+00 0.  1.
         -3    1    1    2    0  502 -0.34941150646E+02 -0.93645169123E+02 -0.19591456494E+03  0.21993821511E+03  0.00000000000E+00 0. -1.
<mgrwt>
<rscale>  1 0.30000000E+03</rscale>
<asrwt>0</asrwt>
<pdfrwt beam="1">  1       21 0.55156142E-01 0.30000000E+03</pdfrwt>
<pdfrwt beam="2">0</pdfrwt>
<totfact> 0.30298245E+02</totfact>
</mgrwt>
</event>
<event>
 6    1  0.1295671E-001  0.3000000E+03  0.7818608E-02  0.1093470E+00
         21   -1    0    0  501  502  0.00000000000E+00  0.00000000000E+00  0.18852704131E+01  0.18852704131E+01  0.00000000000E+00 0. -1.
         13   -1    0    0    0    0 -0.00000000000E+00 -0.00000000000E+00 -0.10000000000E+04  0.10000000000E+04  0.00000000000E+00 0.  1.
    9000005    2    1    2  501    0  0.42919236436E+02  0.40803360113E+01 -0.44524481120E+03  0.44733693469E+03  0.29463939699E+01 0.  0.
         13    1    3    3    0    0  0.30603604209E+02  0.32307309312E+01 -0.33074419832E+03  0.33217276068E+03  0.00000000000E+00 0.  1.
          1    1    3    3  501    0  0.12315632227E+02  0.84960508012E+00 -0.11450061287E+03  0.11516417401E+03  0.00000000000E+00 0.  1.
         -3    1    1    2    0  502 -0.42919236436E+02 -0.40803360113E+01 -0.55286991839E+03  0.55454833573E+03  0.00000000000E+00 0. -1.
<mgrwt>
<rscale>  1 0.30000000E+03</rscale>
<asrwt>0</asrwt>
<pdfrwt beam="1">  1       21 0.68555432E-02 0.30000000E+03</pdfrwt>
<pdfrwt beam="2">0</pdfrwt>
<totfact> 0.16731100E+04</totfact>
</mgrwt>
</event>
<event>
 6    1  0.1295671E-001  0.3000000E+03  0.7818608E-02  0.1093470E+00
         21   -1    0    0  501  502  0.00000000000E+00  0.00000000000E+00  0.32873489980E+01  0.32873489980E+01  0.00000000000E+00 0. -1.
         13   -1    0    0    0    0 -0.00000000000E+00 -0.00000000000E+00 -0.10000000000E+04  0.10000000000E+04  0.00000000000E+00 0.  1.
    9000005    2    1    2  501    0  0.14118878874E+02 -0.32488833595E+02 -0.89262164963E+03  0.89333370597E+03  0.41028991217E+01 0.  0.
         13    1    3    3    0    0  0.10426107380E+02 -0.20637736434E+02 -0.54408316058E+03  0.54457424242E+03  0.00000000000E+00 0.  1.
          1    1    3    3  501    0  0.36927714939E+01 -0.11851097160E+02 -0.34853848905E+03  0.34875946355E+03  0.00000000000E+00 0.  1.
         -1    1    1    2    0  502 -0.14118878874E+02  0.32488833595E+02 -0.10409100137E+03  0.10995364303E+03  0.00000000000E+00 0. -1.
<mgrwt>
<rscale>  1 0.30000000E+03</rscale>
<asrwt>0</asrwt>
<pdfrwt beam="1">  1       21 0.11954022E-01 0.30000000E+03</pdfrwt>
<pdfrwt beam="2">0</pdfrwt>
<totfact> 0.62404381E+03</totfact>
</mgrwt>
</event>
<event>
 6    1  0.1295671E-001  0.3000000E+03  0.7818608E-02  0.1093470E+00
         21   -1    0    0  501  502  0.00000000000E+00  0.00000000000E+00  0.34272810327E+01  0.34272810327E+01  0.00000000000E+00 0. -1.
         13   -1    0    0    0    0 -0.00000000000E+00 -0.00000000000E+00 -0.10000000000E+04  0.10000000000E+04  0.00000000000E+00 0.  1.
    9000005    2    1    2  501    0  0.53243348449E+02  0.88654923226E+01 -0.69193726012E+03  0.69404691014E+03  0.32388919226E+01 0.  0.
         13    1    3    3    0    0  0.52434925892E+01  0.18329437060E+01 -0.67871257185E+02  0.68098175078E+02  0.00000000000E+00 0.  1.
          3    1    3    3  501    0  0.47999855859E+02  0.70325486166E+01 -0.62406600294E+03  0.62594873506E+03  0.00000000000E+00 0.  1.
         -3    1    1    2    0  502 -0.53243348449E+02 -0.88654923226E+01 -0.30463545884E+03  0.30938037089E+03  0.00000000000E+00 0. -1.
<mgrwt>
<rscale>  1 0.30000000E+03</rscale>
<asrwt>0</asrwt>
<pdfrwt beam="1">  1       21 0.12462866E-01 0.30000000E+03</pdfrwt>
<pdfrwt beam="2">0</pdfrwt>
<totfact> 0.57849540E+03</totfact>
</mgrwt>
</event>
<event>
 6    1  0.1295671E-001  0.3000000E+03  0.7818608E-02  0.1093470E+00
         21   -1    0    0  501  502  0.00000000000E+00  0.00000000000E+00  0.11494446645E+01  0.11494446645E+01  0.00000000000E+00 0. -1.
         13   -1    0    0    0    0 -0.00000000000E+00 -0.00000000000E+00 -0.10000000000E+04  0.10000000000E+04  0.00000000000E+00 0.  1.
    9000005    2    1    2  501    0 -0.19509815431E+02 -0.26929632752E+02 -0.41010544259E+03  0.41146593141E+03  0.34497324249E+01 0.  0.
         13    1    3    3    0    0 -0.11424673668E+02 -0.17477374490E+02 -0.24022792692E+03  0.24113365310E+03  0.00000000000E+00 0.  1.
          3    1    3    3  501    0 -0.80851417631E+01 -0.94522582617E+01 -0.16987751567E+03  0.17033227831E+03  0.00000000000E+00 0.  1.
         -1    1    1    2    0  502  0.19509815431E+02  0.26929632752E+02 -0.58874511274E+03  0.58968351325E+03  0.00000000000E+00 0. -1.
<mgrwt>
<rscale>  1 0.30000000E+03</rscale>
<asrwt>0</asrwt>
<pdfrwt beam="1">  1       21 0.41798076E-02 0.30000000E+03</pdfrwt>
<pdfrwt beam="2">0</pdfrwt>
<totfact> 0.39042856E+04</totfact>
</mgrwt>
</event>
<event>
 6    1  0.1295671E-001  0.3000000E+03  0.7818608E-02  0.1093470E+00
         21   -1    0    0  501  502  0.00000000000E+00  0.00000000000E+00  0.49926687459E+01  0.49926687459E+01  0.00000000000E+00 0. -1.
         13   -1    0    0    0    0 -0.00000000000E+00 -0.00000000000E+00 -0.10000000000E+04  0.10000000000E+04  0.00000000000E+00 0.  1.
    9000005    2    1    2  501    0 -0.66264348624E+02  0.24990481929E+01 -0.32499709215E+03  0.33170897695E+03  0.32444320956E+01 0.  0.
         13    1    3    3    0    0 -0.29483776200E+02  0.19847507248E+01 -0.15158491216E+03  0.15443839513E+03  0.00000000000E+00 0.  1.
          1    1    3    3  501    0 -0.36780572424E+02  0.51429746805E+00 -0.17341217999E+03  0.17727058182E+03  0.00000000000E+00 0.  1.
         -1    1    1    2    0  502  0.66264348624E+02 -0.24990481929E+01 -0.67001023910E+03  0.67328369180E+03  0.00000000000E+00 0. -1.
<mgrwt>
<rscale>  1 0.30000000E+03</rscale>
<asrwt>0</asrwt>
<pdfrwt beam="1">  1       21 0.18155197E-01 0.30000000E+03</pdfrwt>
<pdfrwt beam="2">0</pdfrwt>
<totfact> 0.28825426E+03</totfact>
</mgrwt>
</event>
<event>
 6    1  0.1295671E-001  0.3000000E+03  0.7818608E-02  0.1093470E+00
         21   -1    0    0  501  502  0.00000000000E+00  0.00000000000E+00  0.37387947680E+01  0.37387947680E+01  0.00000000000E+00 0. -1.
         13   -1    0    0    0    0 -0.00000000000E+00 -0.00000000000E+00 -0.10000000000E+04  0.10000000000E+04  0.00000000000E+00 0.  1.
    9000005    2    1    2  501    0 -0.35045578757E+02  0.46877930543E+02 -0.64253779998E+03  0.64520569953E+03  0.31364521906E+01 0.  0.
         13    1    3    3    0    0 -0.31817092166E+02  0.43320521372E+02 -0.58121389272E+03  0.58369391295E+03  0.00000000000E+00 0.  1.
          3    1    3    3  501    0 -0.32284865912E+01  0.35574091711E+01 -0.61323907266E+02  0.61511786579E+02  0.00000000000E+00 0.  1.
         -1    1    1    2    0  502  0.35045578757E+02 -0.46877930543E+02 -0.35372340525E+03  0.35853309524E+03  0.00000000000E+00 0. -1.
<mgrwt>
<rscale>  1 0.30000000E+03</rscale>
<asrwt>0</asrwt>
<pdfrwt beam="1">  1       21 0.13595646E-01 0.30000000E+03</pdfrwt>
<pdfrwt beam="2">0</pdfrwt>
<totfact> 0.49350581E+03</totfact>
</mgrwt>
</event>
<event>
 6    1  0.1295671E-001  0.3000000E+03  0.7818608E-02  0.1093470E+00
         21   -1    0    0  501  502  0.00000000000E+00  0.00000000000E+00  0.15332912585E+01  0.15332912585E+01  0.00000000000E+00 0. -1.
         13   -1    0    0    0    0 -0.00000000000E+00 -0.00000000000E+00 -0.10000000000E+04  0.10000000000E+04  0.00000000000E+00 0.  1.
    9000005    2    1    2  501    0  0.15996070536E+02 -0.29471108924E+02 -0.75719247590E+03  0.75794003198E+03  0.28680970766E+01 0.  0.
         13    1    3    3    0    0  0.13724264204E+02 -0.22889772803E+02 -0.60492074191E+03  0.60550920812E+03  0.00000000000E+00 0.  1.
          3    1    3    3  501    0  0.22718063318E+01 -0.65813361202E+01 -0.15227173399E+03  0.15243082386E+03  0.00000000000E+00 0.  1.
         -3    1    1    2    0  502 -0.15996070536E+02  0.29471108924E+02 -0.24127423284E+03  0.24359325928E+03  0.00000000000E+00 0. -1.
<mgrwt>
<rscale>  1 0.30000000E+03</rscale>
<asrwt>0</asrwt>
<pdfrwt beam="1">  1       21 0.55756163E-02 0.30000000E+03</pdfrwt>
<pdfrwt beam="2">0</pdfrwt>
<totfact> 0.23907493E+04</totfact>
</mgrwt>
</event>
<event>
 6    1  0.1295671E-001  0.3000000E+03  0.7818608E-02  0.1093470E+00
         21   -1    0    0  501  502  0.00000000000E+00  0.00000000000E+00  0.53925380347E+01  0.53925380347E+01  0.00000000000E+00 0. -1.
         13   -1    0    0    0    0 -0.00000000000E+00 -0.00000000000E+00 -0.10000000000E+04  0.10000000000E+04  0.00000000000E+00 0.  1.
    9000005    2    1    2  501    0 -0.70043376917E+02 -0.21852667586E+02 -0.48457233089E+03  0.49010674485E+03  0.32655396895E+01 0.  0.
         13    1    3    3    0    0 -0.36800318718E+02 -0.12335072998E+02 -0.24682290666E+03  0.24985588793E+03  0.00000000000E+00 0.  1.
          1    1    3    3  501    0 -0.33243058198E+02 -0.95175945877E+01 -0.23774942424E+03  0.24025085692E+03  0.00000000000E+00 0.  1.
         -3    1    1    2    0  502  0.70043376917E+02  0.21852667586E+02 -0.51003513107E+03  0.51528579318E+03  0.00000000000E+00 0. -1.
<mgrwt>
<rscale>  1 0.30000000E+03</rscale>
<asrwt>0</asrwt>
<pdfrwt beam="1">  1       21 0.19609271E-01 0.30000000E+03</pdfrwt>
<pdfrwt beam="2">0</pdfrwt>
<totfact> 0.24911735E+03</totfact>
</mgrwt>
</event>
<event>
 6    1  0.1295671E-001  0.3000000E+03  0.7818608E-02  0.1093470E+00
         21   -1    0    0  501  502  0.00000000000E+00  0.00000000000E+00  0.19880912748E+01  0.19880912748E+01  0.00000000000E+00 0. -1.
         13   -1    0    0    0    0 -0.00000000000E+00 -0.00000000000E+00 -0.10000000000E+04  0.10000000000E+04  0.00000000000E+00 0.  1.
    9000005    2    1    2  501    0 -0.10413772223E+02  0.33569689034E+02 -0.80689476975E+03  0.80766585506E+03  0.30973088094E+01 0.  0.
         13    1    3    3    0    0 -0.46532795876E+01  0.12268513096E+02 -0.33029955468E+03  0.33056007812E+03  0.00000000000E+00 0.  1.
          1    1    3    3  501    0 -0.57604926350E+01  0.21301175938E+02 -0.47659521506E+03  0.47710577694E+03  0.00000000000E+00 0.  1.
         -3    1    1    2    0  502  0.10413772223E+02 -0.33569689034E+02 -0.19111713898E+03  0.19432223621E+03  0.00000000000E+00 0. -1.
<mgrwt>
<rscale>  1 0.30000000E+03</rscale>
<asrwt>0</asrwt>
<pdfrwt beam="1">  1       21 0.72294381E-02 0.30000000E+03</pdfrwt>
<pdfrwt beam="2">0</pdfrwt>
<totfact> 0.15253429E+04</totfact>
</mgrwt>
</event>
<event>
 6    1  0.1295671E-001  0.3000000E+03  0.7818608E-02  0.1093470E+00
         21   -1    0    0  501  502  0.00000000000E+00  0.00000000000E+00  0.18471327052E+01  0.18471327052E+01  0.00000000000E+00 0. -1.
         13   -1    0    0    0    0 -0.00000000000E+00 -0.00000000000E+00 -0.10000000000E+04  0.10000000000E+04  0.00000000000E+00 0.  1.
    9000005    2    1    2  501    0  0.36992381124E+02  0.60199435064E+01 -0.74339969353E+03  0.74435178221E+03  0.34344380215E+01 0.  0.
         13    1    3    3    0    0  0.30951905767E+02  0.41060272032E+01 -0.59918829246E+03  0.60000124145E+03  0.00000000000E+00 0.  1.
          1    1    3    3  501    0  0.60404753568E+01  0.19139163032E+01 -0.14421140107E+03  0.14435054076E+03  0.00000000000E+00 0.  1.
         -1    1    1    2    0  502 -0.36992381124E+02 -0.60199435064E+01 -0.25475317377E+03  0.25749535049E+03  0.00000000000E+00 0. -1.
<mgrwt>
<rscale>  1 0.30000000E+03</rscale>
<asrwt>0</asrwt>
<pdfrwt beam="1">  1       21 0.67168604E-02 0.30000000E+03</pdfrwt>
<pdfrwt beam="2">0</pdfrwt>
<totfact> 0.17335429E+04</totfact>
</mgrwt>
</event>
<event>
 6    1  0.1295671E-001  0.3000000E+03  0.7818608E-02  0.1093470E+00
         21   -1    0    0  501  502  0.00000000000E+00  0.00000000000E+00  0.24543604126E+02  0.24543604126E+02  0.00000000000E+00 0. -1.
         13   -1    0    0    0    0 -0.00000000000E+00 -0.00000000000E+00 -0.10000000000E+04  0.10000000000E+04  0.00000000000E+00 0.  1.
    9000005    2    1    2  501    0  0.42945255511E+01  0.15646119716E+03 -0.46681422105E+03  0.49236373681E+03  0.28254531441E+01 0.  0.
         13    1    3    3    0    0  0.21877762242E+00  0.55446573641E+02 -0.16647529094E+03  0.17546621579E+03  0.00000000000E+00 0.  1.
          3    1    3    3  501    0  0.40757479287E+01  0.10101462352E+03 -0.30033893011E+03  0.31689752102E+03  0.00000000000E+00 0.  1.
         -1    1    1    2    0  502 -0.42945255511E+01 -0.15646119716E+03 -0.50864217482E+03  0.53217986731E+03  0.00000000000E+00 0. -1.
<mgrwt>
<rscale>  1 0.30000000E+03</rscale>
<asrwt>0</asrwt>
<pdfrwt beam="1">  1       21 0.89249658E-01 0.30000000E+03</pdfrwt>
<pdfrwt beam="2">0</pdfrwt>
<totfact> 0.98250703E+01</totfact>
</mgrwt>
</event>
<event>
 6    1  0.1295671E-001  0.3000000E+03  0.7818608E-02  0.1093470E+00
         21   -1    0    0  501  502  0.00000000000E+00  0.00000000000E+00  0.44762255696E+01  0.44762255696E+01  0.00000000000E+00 0. -1.
         13   -1    0    0    0    0 -0.00000000000E+00 -0.00000000000E+00 -0.10000000000E+04  0.10000000000E+04  0.00000000000E+00 0.  1.
    9000005    2    1    2  501    0  0.27133255565E+02  0.60799345322E+02 -0.54293196377E+03  0.54701352652E+03  0.39883528359E+01 0.  0.
         13    1    3    3    0    0  0.17877870259E+02  0.44419833294E+02 -0.38773187336E+03  0.39067729068E+03  0.00000000000E+00 0.  1.
          1    1    3    3  501    0  0.92553853053E+01  0.16379512028E+02 -0.15520009042E+03  0.15633623584E+03  0.00000000000E+00 0.  1.
         -3    1    1    2    0  502 -0.27133255565E+02 -0.60799345322E+02 -0.45259181066E+03  0.45746269905E+03  0.00000000000E+00 0. -1.
<mgrwt>
<rscale>  1 0.30000000E+03</rscale>
<asrwt>0</asrwt>
<pdfrwt beam="1">  1       21 0.16277218E-01 0.30000000E+03</pdfrwt>
<pdfrwt beam="2">0</pdfrwt>
<totfact> 0.35374953E+03</totfact>
</mgrwt>
</event>
<event>
 6    1  0.1295671E-001  0.3000000E+03  0.7818608E-02  0.1093470E+00
         21   -1    0    0  501  502  0.00000000000E+00  0.00000000000E+00  0.40157047528E+01  0.40157047528E+01  0.00000000000E+00 0. -1.
         13   -1    0    0    0    0 -0.00000000000E+00 -0.00000000000E+00 -0.10000000000E+04  0.10000000000E+04  0.00000000000E+00 0.  1.
    9000005    2    1    2  501    0  0.81136823361E+01  0.35128130751E+02 -0.91077459770E+03  0.91149268077E+03  0.29532807499E+01 0.  0.
         13    1    3    3    0    0  0.24345153372E+01  0.16267511942E+02 -0.43236842975E+03  0.43268119656E+03  0.00000000000E+00 0.  1.
          1    1    3    3  501    0  0.56791669988E+01  0.18860618809E+02 -0.47840616795E+03  0.47881148421E+03  0.00000000000E+00 0.  1.
         -3    1    1    2    0  502 -0.81136823361E+01 -0.35128130751E+02 -0.85209697543E+02  0.92523023981E+02  0.00000000000E+00 0. -1.
<mgrwt>
<rscale>  1 0.30000000E+03</rscale>
<asrwt>0</asrwt>
<pdfrwt beam="1">  1       21 0.14602594E-01 0.30000000E+03</pdfrwt>
<pdfrwt beam="2">0</pdfrwt>
<totfact> 0.43275314E+03</totfact>
</mgrwt>
</event>
<event>
 6    1  0.1295671E-001  0.3000000E+03  0.7818608E-02  0.1093470E+00
         21   -1    0    0  501  502  0.00000000000E+00  0.00000000000E+00  0.42836871820E+01  0.42836871820E+01  0.00000000000E+00 0. -1.
         13   -1    0    0    0    0 -0.00000000000E+00 -0.00000000000E+00 -0.10000000000E+04  0.10000000000E+04  0.00000000000E+00 0.  1.
    9000005    2    1    2  501    0 -0.47038316565E+02 -0.32456469778E+02 -0.25409145584E+03  0.26046015022E+03  0.33160615808E+01 0.  0.
         13    1    3    3    0    0 -0.61678311378E+01 -0.32076056938E+01 -0.28017122811E+02  0.28866763688E+02  0.00000000000E+00 0.  1.
          3    1    3    3  501    0 -0.40870485427E+02 -0.29248864084E+02 -0.22607433303E+03  0.23159338653E+03  0.00000000000E+00 0.  1.
         -1    1    1    2    0  502  0.47038316565E+02  0.32456469778E+02 -0.74162485698E+03  0.74382353697E+03  0.00000000000E+00 0. -1.
<mgrwt>
<rscale>  1 0.30000000E+03</rscale>
<asrwt>0</asrwt>
<pdfrwt beam="1">  1       21 0.15577077E-01 0.30000000E+03</pdfrwt>
<pdfrwt beam="2">0</pdfrwt>
<totfact> 0.38394907E+03</totfact>
</mgrwt>
</event>
<event>
 6    1  0.1295671E-001  0.3000000E+03  0.7818608E-02  0.1093470E+00
         21   -1    0    0  501  502  0.00000000000E+00  0.00000000000E+00  0.19317740391E+01  0.19317740391E+01  0.00000000000E+00 0. -1.
         13   -1    0    0    0    0 -0.00000000000E+00 -0.00000000000E+00 -0.10000000000E+04  0.10000000000E+04  0.00000000000E+00 0.  1.
    9000005    2    1    2  501    0 -0.37727969829E+02 -0.14027037042E+02 -0.69862139984E+03  0.69979180788E+03  0.40689788327E+01 0.  0.
         13    1    3    3    0    0 -0.33088729136E+02 -0.12874257019E+02 -0.59257338571E+03  0.59363610734E+03  0.00000000000E+00 0.  1.
          3    1    3    3  501    0 -0.46392406932E+01 -0.11527800224E+01 -0.10604801413E+03  0.10615570054E+03  0.00000000000E+00 0.  1.
         -1    1    1    2    0  502  0.37727969829E+02  0.14027037042E+02 -0.29944682612E+03  0.30213996616E+03  0.00000000000E+00 0. -1.
<mgrwt>
<rscale>  1 0.30000000E+03</rscale>
<asrwt>0</asrwt>
<pdfrwt beam="1">  1       21 0.70246477E-02 0.30000000E+03</pdfrwt>
<pdfrwt beam="2">0</pdfrwt>
<totfact> 0.16036873E+04</totfact>
</mgrwt>
</event>
<event>
 6    1  0.1295671E-001  0.3000000E+03  0.7818608E-02  0.1093470E+00
         21   -1    0    0  501  502  0.00000000000E+00  0.00000000000E+00  0.77600437299E+01  0.77600437299E+01  0.00000000000E+00 0. -1.
         13   -1    0    0    0    0 -0.00000000000E+00 -0.00000000000E+00 -0.10000000000E+04  0.10000000000E+04  0.00000000000E+00 0.  1.
    9000005    2    1    2  501    0  0.36866847834E+02 -0.31194834511E+02 -0.91720005327E+03  0.91852289221E+03  0.98022253803E+01 0.  0.
         13    1    3    3    0    0  0.42978927652E+00 -0.29965889803E+01 -0.40488779871E+02  0.40601792569E+02  0.00000000000E+00 0.  1.
          1    1    3    3  501    0  0.36437058557E+02 -0.28198245531E+02 -0.87671127340E+03  0.87792109964E+03  0.00000000000E+00 0.  1.
         -1    1    1    2    0  502 -0.36866847834E+02  0.31194834511E+02 -0.75039902997E+02  0.89237151519E+02  0.00000000000E+00 0. -1.
<mgrwt>
<rscale>  1 0.30000000E+03</rscale>
<asrwt>0</asrwt>
<pdfrwt beam="1">  1       21 0.28218400E-01 0.30000000E+03</pdfrwt>
<pdfrwt beam="2">0</pdfrwt>
<totfact> 0.12283213E+03</totfact>
</mgrwt>
</event>
<event>
 6    1  0.1295671E-001  0.3000000E+03  0.7818608E-02  0.1093470E+00
         21   -1    0    0  501  502  0.00000000000E+00  0.00000000000E+00  0.57011743441E+01  0.57011743441E+01  0.00000000000E+00 0. -1.
         13   -1    0    0    0    0 -0.00000000000E+00 -0.00000000000E+00 -0.10000000000E+04  0.10000000000E+04  0.00000000000E+00 0.  1.
    9000005    2    1    2  501    0  0.69120518656E+02  0.21295182101E+02 -0.35419946785E+03  0.36152858975E+03  0.38114696680E+01 0.  0.
         13    1    3    3    0    0  0.38827603606E+02  0.11994016465E+02 -0.20839086115E+03  0.21231625054E+03  0.00000000000E+00 0.  1.
          1    1    3    3  501    0  0.30292915049E+02  0.93011656361E+01 -0.14580860670E+03  0.14921233921E+03  0.00000000000E+00 0.  1.
         -3    1    1    2    0  502 -0.69120518656E+02 -0.21295182101E+02 -0.64009935780E+03  0.64417258459E+03  0.00000000000E+00 0. -1.
<mgrwt>
<rscale>  1 0.30000000E+03</rscale>
<asrwt>0</asrwt>
<pdfrwt beam="1">  1       21 0.20731587E-01 0.30000000E+03</pdfrwt>
<pdfrwt beam="2">0</pdfrwt>
<totfact> 0.22399517E+03</totfact>
</mgrwt>
</event>
<event>
 6    1  0.1295671E-001  0.3000000E+03  0.7818608E-02  0.1093470E+00
         21   -1    0    0  501  502  0.00000000000E+00  0.00000000000E+00  0.10600752033E+01  0.10600752033E+01  0.00000000000E+00 0. -1.
         13   -1    0    0    0    0 -0.00000000000E+00 -0.00000000000E+00 -0.10000000000E+04  0.10000000000E+04  0.00000000000E+00 0.  1.
    9000005    2    1    2  501    0  0.17963092401E+02 -0.25430556772E+02 -0.35861953355E+03  0.35998317704E+03  0.32453051102E+01 0.  0.
         13    1    3    3    0    0  0.15327325068E+02 -0.23325174700E+02 -0.31579344177E+03  0.31702442892E+03  0.00000000000E+00 0.  1.
          3    1    3    3  501    0  0.26357673334E+01 -0.21053820720E+01 -0.42826091779E+02  0.42958748122E+02  0.00000000000E+00 0.  1.
         -1    1    1    2    0  502 -0.17963092401E+02  0.25430556772E+02 -0.64032039125E+03  0.64107689816E+03  0.00000000000E+00 0. -1.
<mgrwt>
<rscale>  1 0.30000000E+03</rscale>
<asrwt>0</asrwt>
<pdfrwt beam="1">  1       21 0.38548270E-02 0.30000000E+03</pdfrwt>
<pdfrwt beam="2">0</pdfrwt>
<totfact> 0.44745746E+04</totfact>
</mgrwt>
</event>
<event>
 6    1  0.1295671E-001  0.3000000E+03  0.7818608E-02  0.1093470E+00
         21   -1    0    0  501  502  0.00000000000E+00  0.00000000000E+00  0.15225781147E+01  0.15225781147E+01  0.00000000000E+00 0. -1.
         13   -1    0    0    0    0 -0.00000000000E+00 -0.00000000000E+00 -0.10000000000E+04  0.10000000000E+04  0.00000000000E+00 0.  1.
    9000005    2    1    2  501    0 -0.28968804216E+02  0.24743084091E+02 -0.39469891258E+03  0.39654332217E+03  0.28218673537E+01 0.  0.
         13    1    3    3    0    0 -0.22761009369E+02  0.19688996558E+02 -0.32295019367E+03  0.32434942226E+03  0.00000000000E+00 0.  1.
          3    1    3    3  501    0 -0.62077948471E+01  0.50540875328E+01 -0.71748718912E+02  0.72193899902E+02  0.00000000000E+00 0.  1.
         -3    1    1    2    0  502  0.28968804216E+02 -0.24743084091E+02 -0.60377850931E+03  0.60497925595E+03  0.00000000000E+00 0. -1.
<mgrwt>
<rscale>  1 0.30000000E+03</rscale>
<asrwt>0</asrwt>
<pdfrwt beam="1">  1       21 0.55366594E-02 0.30000000E+03</pdfrwt>
<pdfrwt beam="2">0</pdfrwt>
<totfact> 0.24196879E+04</totfact>
</mgrwt>
</event>
<event>
 6    1  0.1295671E-001  0.3000000E+03  0.7818608E-02  0.1093470E+00
         21   -1    0    0  501  502  0.00000000000E+00  0.00000000000E+00  0.14276125972E+01  0.14276125972E+01  0.00000000000E+00 0. -1.
         13   -1    0    0    0    0 -0.00000000000E+00 -0.00000000000E+00 -0.10000000000E+04  0.10000000000E+04  0.00000000000E+00 0.  1.
    9000005    2    1    2  501    0 -0.22320933166E+02 -0.30079794773E+02 -0.46509071074E+03  0.46663258883E+03  0.57953110905E+01 0.  0.
         13    1    3    3    0    0  0.23351515016E+00 -0.58170383636E+00 -0.39681351196E+01  0.40173380497E+01  0.00000000000E+00 0.  1.
          1    1    3    3  501    0 -0.22554448316E+02 -0.29498090937E+02 -0.46112257562E+03  0.46261525078E+03  0.00000000000E+00 0.  1.
         -1    1    1    2    0  502  0.22320933166E+02  0.30079794773E+02 -0.53348167667E+03  0.53479502377E+03  0.00000000000E+00 0. -1.
<mgrwt>
<rscale>  1 0.30000000E+03</rscale>
<asrwt>0</asrwt>
<pdfrwt beam="1">  1       21 0.51913295E-02 0.30000000E+03</pdfrwt>
<pdfrwt beam="2">0</pdfrwt>
<totfact> 0.27016791E+04</totfact>
</mgrwt>
</event>
<event>
 6    1  0.1295671E-001  0.3000000E+03  0.7818608E-02  0.1093470E+00
         21   -1    0    0  501  502  0.00000000000E+00  0.00000000000E+00  0.58980487637E+01  0.58980487637E+01  0.00000000000E+00 0. -1.
         13   -1    0    0    0    0 -0.00000000000E+00 -0.00000000000E+00 -0.10000000000E+04  0.10000000000E+04  0.00000000000E+00 0.  1.
    9000005    2    1    2  501    0  0.60567272762E+02 -0.15175907755E+02 -0.78976596726E+03  0.79223500317E+03  0.27045323087E+01 0.  0.
         13    1    3    3    0    0  0.36980266490E+01 -0.15365169431E+01 -0.46999834168E+02  0.47170125050E+02  0.00000000000E+00 0.  1.
          3    1    3    3  501    0  0.56869246113E+02 -0.13639390812E+02 -0.74276613309E+03  0.74506487812E+03  0.00000000000E+00 0.  1.
         -1    1    1    2    0  502 -0.60567272762E+02  0.15175907755E+02 -0.20433598398E+03  0.21366304560E+03  0.00000000000E+00 0. -1.
<mgrwt>
<rscale>  1 0.30000000E+03</rscale>
<asrwt>0</asrwt>
<pdfrwt beam="1">  1       21 0.21447495E-01 0.30000000E+03</pdfrwt>
<pdfrwt beam="2">0</pdfrwt>
<totfact> 0.20987725E+03</totfact>
</mgrwt>
</event>
<event>
 6    1  0.1295671E-001  0.3000000E+03  0.7818608E-02  0.1093470E+00
         21   -1    0    0  501  502  0.00000000000E+00  0.00000000000E+00  0.96643675747E+00  0.96643675747E+00  0.00000000000E+00 0. -1.
         13   -1    0    0    0    0 -0.00000000000E+00 -0.00000000000E+00 -0.10000000000E+04  0.10000000000E+04  0.00000000000E+00 0.  1.
    9000005    2    1    2  501    0  0.13230287454E+02  0.26956090034E+02 -0.62455751930E+03  0.62528841134E+03  0.34396429615E+01 0.  0.
         13    1    3    3    0    0  0.18445390520E+01  0.16605150494E+01 -0.49144138682E+02  0.49206767841E+02  0.00000000000E+00 0.  1.
          3    1    3    3  501    0  0.11385748402E+02  0.25295574984E+02 -0.57541338062E+03  0.57608164350E+03  0.00000000000E+00 0.  1.
         -1    1    1    2    0  502 -0.13230287454E+02 -0.26956090034E+02 -0.37447604394E+03  0.37567802542E+03  0.00000000000E+00 0. -1.
<mgrwt>
<rscale>  1 0.30000000E+03</rscale>
<asrwt>0</asrwt>
<pdfrwt beam="1">  1       21 0.35143229E-02 0.30000000E+03</pdfrwt>
<pdfrwt beam="2">0</pdfrwt>
<totfact> 0.52258168E+04</totfact>
</mgrwt>
</event>
<event>
 6    1  0.1295671E-001  0.3000000E+03  0.7818608E-02  0.1093470E+00
         21   -1    0    0  501  502  0.00000000000E+00  0.00000000000E+00  0.12893145692E+01  0.12893145692E+01  0.00000000000E+00 0. -1.
         13   -1    0    0    0    0 -0.00000000000E+00 -0.00000000000E+00 -0.10000000000E+04  0.10000000000E+04  0.00000000000E+00 0.  1.
    9000005    2    1    2  501    0 -0.20390611950E+02  0.27738872356E+02 -0.36021533362E+03  0.36186649954E+03  0.26560910045E+01 0.  0.
         13    1    3    3    0    0 -0.69189129867E+01  0.91813033465E+01 -0.10758034976E+03  0.10819288028E+03  0.00000000000E+00 0.  1.
          1    1    3    3  501    0 -0.13471698964E+02  0.18557569010E+02 -0.25263498386E+03  0.25367361926E+03  0.00000000000E+00 0.  1.
         -1    1    1    2    0  502  0.20390611950E+02 -0.27738872356E+02 -0.63849535181E+03  0.63942281503E+03  0.00000000000E+00 0. -1.
<mgrwt>
<rscale>  1 0.30000000E+03</rscale>
<asrwt>0</asrwt>
<pdfrwt beam="1">  1       21 0.46884265E-02 0.30000000E+03</pdfrwt>
<pdfrwt beam="2">0</pdfrwt>
<totfact> 0.32138767E+04</totfact>
</mgrwt>
</event>
<event>
 6    1  0.1295671E-001  0.3000000E+03  0.7818608E-02  0.1093470E+00
         21   -1    0    0  501  502  0.00000000000E+00  0.00000000000E+00  0.16360018121E+01  0.16360018121E+01  0.00000000000E+00 0. -1.
         13   -1    0    0    0    0 -0.00000000000E+00 -0.00000000000E+00 -0.10000000000E+04  0.10000000000E+04  0.00000000000E+00 0.  1.
    9000005    2    1    2  501    0  0.31691605316E+02  0.15490198772E+02 -0.74338310257E+03  0.74422667557E+03  0.32562770150E+01 0.  0.
         13    1    3    3    0    0  0.43196472143E+00  0.57664093616E+00 -0.23258767446E+02  0.23269924181E+02  0.00000000000E+00 0.  1.
          1    1    3    3  501    0  0.31259640595E+02  0.14913557836E+02 -0.72012433512E+03  0.72095675139E+03  0.00000000000E+00 0.  1.
         -3    1    1    2    0  502 -0.31691605316E+02 -0.15490198772E+02 -0.25498089562E+03  0.25740932624E+03  0.00000000000E+00 0. -1.
<mgrwt>
<rscale>  1 0.30000000E+03</rscale>
<asrwt>0</asrwt>
<pdfrwt beam="1">  1       21 0.59491100E-02 0.30000000E+03</pdfrwt>
<pdfrwt beam="2">0</pdfrwt>
<totfact> 0.21383445E+04</totfact>
</mgrwt>
</event>
<event>
 6    1  0.1295671E-001  0.3000000E+03  0.7818608E-02  0.1093470E+00
         21   -1    0    0  501  502  0.00000000000E+00  0.00000000000E+00  0.15998548065E+01  0.15998548065E+01  0.00000000000E+00 0. -1.
         13   -1    0    0    0    0 -0.00000000000E+00 -0.00000000000E+00 -0.10000000000E+04  0.10000000000E+04  0.00000000000E+00 0.  1.
    9000005    2    1    2  501    0 -0.10978684448E+02  0.29905412948E+02 -0.80137803260E+03  0.80201884848E+03  0.35520341159E+01 0.  0.
         13    1    3    3    0    0 -0.26467856238E+01  0.49322254912E+01 -0.17018900323E+03  0.17028102990E+03  0.00000000000E+00 0.  1.
          1    1    3    3  501    0 -0.83318988244E+01  0.24973187456E+02 -0.63118902937E+03  0.63173781858E+03  0.00000000000E+00 0.  1.
         -3    1    1    2    0  502  0.10978684448E+02 -0.29905412948E+02 -0.19702211260E+03  0.19958100633E+03  0.00000000000E+00 0. -1.
<mgrwt>
<rscale>  1 0.30000000E+03</rscale>
<asrwt>0</asrwt>
<pdfrwt beam="1">  1       21 0.58176661E-02 0.30000000E+03</pdfrwt>
<pdfrwt beam="2">0</pdfrwt>
<totfact> 0.22222859E+04</totfact>
</mgrwt>
</event>
<event>
 6    1  0.1295671E-001  0.3000000E+03  0.7818608E-02  0.1093470E+00
         21   -1    0    0  501  502  0.00000000000E+00  0.00000000000E+00  0.41310351486E+01  0.41310351486E+01  0.00000000000E+00 0. -1.
         13   -1    0    0    0    0 -0.00000000000E+00 -0.00000000000E+00 -0.10000000000E+04  0.10000000000E+04  0.00000000000E+00 0.  1.
    9000005    2    1    2  501    0  0.25343601181E+02 -0.25056829768E+02 -0.91566061078E+03  0.91636131997E+03  0.36839888004E+01 0.  0.
         13    1    3    3    0    0  0.74765560196E+01 -0.52409871706E+01 -0.22136943590E+03  0.22155765387E+03  0.00000000000E+00 0.  1.
          3    1    3    3  501    0  0.17867045161E+02 -0.19815842597E+02 -0.69429117488E+03  0.69480366611E+03  0.00000000000E+00 0.  1.
         -3    1    1    2    0  502 -0.25343601181E+02  0.25056829768E+02 -0.80208354072E+02  0.87769715174E+02  0.00000000000E+00 0. -1.
<mgrwt>
<rscale>  1 0.30000000E+03</rscale>
<asrwt>0</asrwt>
<pdfrwt beam="1">  1       21 0.15021978E-01 0.30000000E+03</pdfrwt>
<pdfrwt beam="2">0</pdfrwt>
<totfact> 0.41068907E+03</totfact>
</mgrwt>
</event>
<event>
 6    1  0.1295671E-001  0.3000000E+03  0.7818608E-02  0.1093470E+00
         21   -1    0    0  501  502  0.00000000000E+00  0.00000000000E+00  0.10436816040E+01  0.10436816040E+01  0.00000000000E+00 0. -1.
         13   -1    0    0    0    0 -0.00000000000E+00 -0.00000000000E+00 -0.10000000000E+04  0.10000000000E+04  0.00000000000E+00 0.  1.
    9000005    2    1    2  501    0  0.29852012592E+02 -0.10234684064E+02 -0.60168682365E+03  0.60252273753E+03  0.32747621642E+01 0.  0.
         13    1    3    3    0    0  0.26918331599E+02 -0.86375241410E+01 -0.55233474954E+03  0.55305775372E+03  0.00000000000E+00 0.  1.
          1    1    3    3  501    0  0.29336809937E+01 -0.15971599232E+01 -0.49352074111E+02  0.49464983807E+02  0.00000000000E+00 0.  1.
         -1    1    1    2    0  502 -0.29852012592E+02  0.10234684064E+02 -0.39726949475E+03  0.39852094408E+03  0.00000000000E+00 0. -1.
<mgrwt>
<rscale>  1 0.30000000E+03</rscale>
<asrwt>0</asrwt>
<pdfrwt beam="1">  1       21 0.37952138E-02 0.30000000E+03</pdfrwt>
<pdfrwt beam="2">0</pdfrwt>
<totfact> 0.45933239E+04</totfact>
</mgrwt>
</event>
<event>
 6    1  0.1295671E-001  0.3000000E+03  0.7818608E-02  0.1093470E+00
         21   -1    0    0  501  502  0.00000000000E+00  0.00000000000E+00  0.11020818179E+01  0.11020818179E+01  0.00000000000E+00 0. -1.
         13   -1    0    0    0    0 -0.00000000000E+00 -0.00000000000E+00 -0.10000000000E+04  0.10000000000E+04  0.00000000000E+00 0.  1.
    9000005    2    1    2  501    0 -0.55393386959E+01  0.29761556986E+02 -0.30556620352E+03  0.30710979000E+03  0.54114538165E+01 0.  0.
         13    1    3    3    0    0 -0.31813558539E+01  0.11434017940E+02 -0.96100084560E+02  0.96830181472E+02  0.00000000000E+00 0.  1.
          3    1    3    3  501    0 -0.23579828420E+01  0.18327539046E+02 -0.20946611896E+03  0.21027960852E+03  0.00000000000E+00 0.  1.
         -3    1    1    2    0  502  0.55393386959E+01 -0.29761556986E+02 -0.69333171467E+03  0.69399229182E+03  0.00000000000E+00 0. -1.
<mgrwt>
<rscale>  1 0.30000000E+03</rscale>
<asrwt>0</asrwt>
<pdfrwt beam="1">  1       21 0.40075787E-02 0.30000000E+03</pdfrwt>
<pdfrwt beam="2">0</pdfrwt>
<totfact> 0.41913497E+04</totfact>
</mgrwt>
</event>
<event>
 6    1  0.1295671E-001  0.3000000E+03  0.7818608E-02  0.1093470E+00
         21   -1    0    0  501  502  0.00000000000E+00  0.00000000000E+00  0.30339387707E+02  0.30339387707E+02  0.00000000000E+00 0. -1.
         13   -1    0    0    0    0 -0.00000000000E+00 -0.00000000000E+00 -0.10000000000E+04  0.10000000000E+04  0.00000000000E+00 0.  1.
    9000005    2    1    2  501    0  0.82816452241E+02  0.58969264075E+02 -0.90312598837E+03  0.90883714473E+03  0.35307097282E+01 0.  0.
         13    1    3    3    0    0  0.72607498771E+02  0.53083781801E+02 -0.79906777642E+03  0.80411382781E+03  0.00000000000E+00 0.  1.
          1    1    3    3  501    0  0.10208953470E+02  0.58854822743E+01 -0.10405821195E+03  0.10472331692E+03  0.00000000000E+00 0.  1.
         -1    1    1    2    0  502 -0.82816452241E+02 -0.58969264075E+02 -0.66534623927E+02  0.12150224298E+03  0.00000000000E+00 0. -1.
<mgrwt>
<rscale>  1 0.30000000E+03</rscale>
<asrwt>0</asrwt>
<pdfrwt beam="1">  1       21 0.11032528E+00 0.30000000E+03</pdfrwt>
<pdfrwt beam="2">0</pdfrwt>
<totfact> 0.56980326E+01</totfact>
</mgrwt>
</event>
<event>
 6    1  0.1295671E-001  0.3000000E+03  0.7818608E-02  0.1093470E+00
         21   -1    0    0  501  502  0.00000000000E+00  0.00000000000E+00  0.12979972945E+01  0.12979972945E+01  0.00000000000E+00 0. -1.
         13   -1    0    0    0    0 -0.00000000000E+00 -0.00000000000E+00 -0.10000000000E+04  0.10000000000E+04  0.00000000000E+00 0.  1.
    9000005    2    1    2  501    0  0.14342817351E+02  0.32968463647E+02 -0.49729060987E+03  0.49859925961E+03  0.32611368597E+01 0.  0.
         13    1    3    3    0    0  0.63428850416E+01  0.11273006012E+02 -0.16695378318E+03  0.16745410885E+03  0.00000000000E+00 0.  1.
          1    1    3    3  501    0  0.79999323093E+01  0.21695457635E+02 -0.33033682670E+03  0.33114515076E+03  0.00000000000E+00 0.  1.
         -1    1    1    2    0  502 -0.14342817351E+02 -0.32968463647E+02 -0.50141139283E+03  0.50269873768E+03  0.00000000000E+00 0. -1.
<mgrwt>
<rscale>  1 0.30000000E+03</rscale>
<asrwt>0</asrwt>
<pdfrwt beam="1">  1       21 0.47200001E-02 0.30000000E+03</pdfrwt>
<pdfrwt beam="2">0</pdfrwt>
<totfact> 0.31774086E+04</totfact>
</mgrwt>
</event>
<event>
 6    1  0.1295671E-001  0.3000000E+03  0.7818608E-02  0.1093470E+00
         21   -1    0    0  501  502  0.00000000000E+00  0.00000000000E+00  0.11975005911E+01  0.11975005911E+01  0.00000000000E+00 0. -1.
         13   -1    0    0    0    0 -0.00000000000E+00 -0.00000000000E+00 -0.10000000000E+04  0.10000000000E+04  0.00000000000E+00 0.  1.
    9000005    2    1    2  501    0 -0.33419237020E+02 -0.35744988622E+01 -0.38897627879E+03  0.39044579834E+03  0.39690725508E+01 0.  0.
         13    1    3    3    0    0 -0.78493357421E+01  0.84373789272E+00 -0.90474541722E+02  0.90818316792E+02  0.00000000000E+00 0.  1.
          3    1    3    3  501    0 -0.25569901278E+02 -0.44182367549E+01 -0.29850173707E+03  0.29962748155E+03  0.00000000000E+00 0.  1.
         -3    1    1    2    0  502  0.33419237020E+02  0.35744988622E+01 -0.60982622062E+03  0.61075170225E+03  0.00000000000E+00 0. -1.
<mgrwt>
<rscale>  1 0.30000000E+03</rscale>
<asrwt>0</asrwt>
<pdfrwt beam="1">  1       21 0.43545568E-02 0.30000000E+03</pdfrwt>
<pdfrwt beam="2">0</pdfrwt>
<totfact> 0.36431254E+04</totfact>
</mgrwt>
</event>
<event>
 6    1  0.1295671E-001  0.3000000E+03  0.7818608E-02  0.1093470E+00
         21   -1    0    0  501  502  0.00000000000E+00  0.00000000000E+00  0.10471855237E+01  0.10471855237E+01  0.00000000000E+00 0. -1.
         13   -1    0    0    0    0 -0.00000000000E+00 -0.00000000000E+00 -0.10000000000E+04  0.10000000000E+04  0.00000000000E+00 0.  1.
    9000005    2    1    2  501    0  0.25372872109E+02 -0.19630699654E+02 -0.44503532633E+03  0.44620150366E+03  0.31926758880E+01 0.  0.
         13    1    3    3    0    0  0.11290899782E+02 -0.10549879780E+02 -0.20389020585E+03  0.20447493838E+03  0.00000000000E+00 0.  1.
          1    1    3    3  501    0  0.14081972327E+02 -0.90808198742E+01 -0.24114512048E+03  0.24172656529E+03  0.00000000000E+00 0.  1.
         -3    1    1    2    0  502 -0.25372872109E+02  0.19630699654E+02 -0.55391748815E+03  0.55484568186E+03  0.00000000000E+00 0. -1.
<mgrwt>
<rscale>  1 0.30000000E+03</rscale>
<asrwt>0</asrwt>
<pdfrwt beam="1">  1       21 0.38079554E-02 0.30000000E+03</pdfrwt>
<pdfrwt beam="2">0</pdfrwt>
<totfact> 0.45675301E+04</totfact>
</mgrwt>
</event>
<event>
 6    1  0.1295671E-001  0.3000000E+03  0.7818608E-02  0.1093470E+00
         21   -1    0    0  501  502  0.00000000000E+00  0.00000000000E+00  0.18022480003E+02  0.18022480003E+02  0.00000000000E+00 0. -1.
         13   -1    0    0    0    0 -0.00000000000E+00 -0.00000000000E+00 -0.10000000000E+04  0.10000000000E+04  0.00000000000E+00 0.  1.
    9000005    2    1    2  501    0 -0.62770316160E+02 -0.24123975737E+02 -0.93152890339E+03  0.93395618644E+03  0.24457185310E+01 0.  0.
         13    1    3    3    0    0 -0.61917140520E+02 -0.23474622691E+02 -0.91605660425E+03  0.91844678256E+03  0.00000000000E+00 0.  1.
          1    1    3    3  501    0 -0.85317564025E+00 -0.64935304574E+00 -0.15472299139E+02  0.15509403879E+02  0.00000000000E+00 0.  1.
         -3    1    1    2    0  502  0.62770316160E+02  0.24123975737E+02 -0.50448616609E+02  0.84066293566E+02  0.00000000000E+00 0. -1.
<mgrwt>
<rscale>  1 0.30000000E+03</rscale>
<asrwt>0</asrwt>
<pdfrwt beam="1">  1       21 0.65536429E-01 0.30000000E+03</pdfrwt>
<pdfrwt beam="2">0</pdfrwt>
<totfact> 0.20551173E+02</totfact>
</mgrwt>
</event>
<event>
 6    1  0.1295671E-001  0.3000000E+03  0.7818608E-02  0.1093470E+00
         21   -1    0    0  501  502  0.00000000000E+00  0.00000000000E+00  0.72425266568E+01  0.72425266568E+01  0.00000000000E+00 0. -1.
         13   -1    0    0    0    0 -0.00000000000E+00 -0.00000000000E+00 -0.10000000000E+04  0.10000000000E+04  0.00000000000E+00 0.  1.
    9000005    2    1    2  501    0  0.16986258860E+02  0.63089155670E+02 -0.81897608376E+03  0.82158492267E+03  0.33443731758E+01 0.  0.
         13    1    3    3    0    0  0.76306772475E+01  0.31527258768E+02 -0.42471770411E+03  0.42595460259E+03  0.00000000000E+00 0.  1.
          3    1    3    3  501    0  0.93555816128E+01  0.31561896902E+02 -0.39425837965E+03  0.39563032008E+03  0.00000000000E+00 0.  1.
         -1    1    1    2    0  502 -0.16986258860E+02 -0.63089155670E+02 -0.17378138958E+03  0.18565760399E+03  0.00000000000E+00 0. -1.
<mgrwt>
<rscale>  1 0.30000000E+03</rscale>
<asrwt>0</asrwt>
<pdfrwt beam="1">  1       21 0.26336516E-01 0.30000000E+03</pdfrwt>
<pdfrwt beam="2">0</pdfrwt>
<totfact> 0.14079091E+03</totfact>
</mgrwt>
</event>
<event>
 6    1  0.1295671E-001  0.3000000E+03  0.7818608E-02  0.1093470E+00
         21   -1    0    0  501  502  0.00000000000E+00  0.00000000000E+00  0.20491105997E+01  0.20491105997E+01  0.00000000000E+00 0. -1.
         13   -1    0    0    0    0 -0.00000000000E+00 -0.00000000000E+00 -0.10000000000E+04  0.10000000000E+04  0.00000000000E+00 0.  1.
    9000005    2    1    2  501    0 -0.35232469883E+02 -0.15837237404E+02 -0.75820558110E+03  0.75921180318E+03  0.58918464646E+01 0.  0.
         13    1    3    3    0    0 -0.38377983774E+01 -0.22998745468E+01 -0.12955045488E+03  0.12962769179E+03  0.00000000000E+00 0.  1.
          3    1    3    3  501    0 -0.31394671506E+02 -0.13537362857E+02 -0.62865512622E+03  0.62958411139E+03  0.00000000000E+00 0.  1.
         -3    1    1    2    0  502  0.35232469883E+02  0.15837237404E+02 -0.23974530830E+03  0.24283730742E+03  0.00000000000E+00 0. -1.
<mgrwt>
<rscale>  1 0.30000000E+03</rscale>
<asrwt>0</asrwt>
<pdfrwt beam="1">  1       21 0.74513270E-02 0.30000000E+03</pdfrwt>
<pdfrwt beam="2">0</pdfrwt>
<totfact> 0.14468440E+04</totfact>
</mgrwt>
</event>
<event>
 6    1  0.1295671E-001  0.3000000E+03  0.7818608E-02  0.1093470E+00
         21   -1    0    0  501  502  0.00000000000E+00  0.00000000000E+00  0.13411963563E+01  0.13411963563E+01  0.00000000000E+00 0. -1.
         13   -1    0    0    0    0 -0.00000000000E+00 -0.00000000000E+00 -0.10000000000E+04  0.10000000000E+04  0.00000000000E+00 0.  1.
    9000005    2    1    2  501    0 -0.22968532376E+02  0.21751320774E+02 -0.74984450415E+03  0.75052407360E+03  0.43510016108E+01 0.  0.
         13    1    3    3    0    0 -0.21619160163E+02  0.20755914438E+02 -0.68099584985E+03  0.68165500334E+03  0.00000000000E+00 0.  1.
          3    1    3    3  501    0 -0.13493722133E+01  0.99540633602E+00 -0.68848654303E+02  0.68869070260E+02  0.00000000000E+00 0.  1.
         -3    1    1    2    0  502  0.22968532376E+02 -0.21751320774E+02 -0.24881429949E+03  0.25081712275E+03  0.00000000000E+00 0. -1.
<mgrwt>
<rscale>  1 0.30000000E+03</rscale>
<asrwt>0</asrwt>
<pdfrwt beam="1">  1       21 0.48770879E-02 0.30000000E+03</pdfrwt>
<pdfrwt beam="2">0</pdfrwt>
<totfact> 0.30052380E+04</totfact>
</mgrwt>
</event>
<event>
 6    1  0.1295671E-001  0.3000000E+03  0.7818608E-02  0.1093470E+00
         21   -1    0    0  501  502  0.00000000000E+00  0.00000000000E+00  0.13799206268E+01  0.13799206268E+01  0.00000000000E+00 0. -1.
         13   -1    0    0    0    0 -0.00000000000E+00 -0.00000000000E+00 -0.10000000000E+04  0.10000000000E+04  0.00000000000E+00 0.  1.
    9000005    2    1    2  501    0  0.34604638679E+02 -0.13194464148E+02 -0.51818496041E+03  0.51951948602E+03  0.36425624874E+01 0.  0.
         13    1    3    3    0    0  0.30784162546E+02 -0.10636765880E+02 -0.46211006683E+03  0.46325642933E+03  0.00000000000E+00 0.  1.
          3    1    3    3  501    0  0.38204761334E+01 -0.25576982676E+01 -0.56074893578E+02  0.56263056690E+02  0.00000000000E+00 0.  1.
         -3    1    1    2    0  502 -0.34604638679E+02  0.13194464148E+02 -0.48043511897E+03  0.48186043461E+03  0.00000000000E+00 0. -1.
<mgrwt>
<rscale>  1 0.30000000E+03</rscale>
<asrwt>0</asrwt>
<pdfrwt beam="1">  1       21 0.50179038E-02 0.30000000E+03</pdfrwt>
<pdfrwt beam="2">0</pdfrwt>
<totfact> 0.28629658E+04</totfact>
</mgrwt>
</event>
<event>
 6    1  0.1295671E-001  0.3000000E+03  0.7818608E-02  0.1093470E+00
         21   -1    0    0  501  502  0.00000000000E+00  0.00000000000E+00  0.27100853450E+01  0.27100853450E+01  0.00000000000E+00 0. -1.
         13   -1    0    0    0    0 -0.00000000000E+00 -0.00000000000E+00 -0.10000000000E+04  0.10000000000E+04  0.00000000000E+00 0.  1.
    9000005    2    1    2  501    0 -0.36392325853E+02 -0.41007394434E+01 -0.85475886505E+03  0.85554922932E+03  0.32479163501E+01 0.  0.
         13    1    3    3    0    0 -0.17872567229E+02 -0.17662147908E+01 -0.45654176234E+03  0.45689487734E+03  0.00000000000E+00 0.  1.
          1    1    3    3  501    0 -0.18519758624E+02 -0.23345246526E+01 -0.39821710271E+03  0.39865435198E+03  0.00000000000E+00 0.  1.
         -1    1    1    2    0  502  0.36392325853E+02  0.41007394434E+01 -0.14253104960E+03  0.14716085602E+03  0.00000000000E+00 0. -1.
<mgrwt>
<rscale>  1 0.30000000E+03</rscale>
<asrwt>0</asrwt>
<pdfrwt beam="1">  1       21 0.98548766E-02 0.30000000E+03</pdfrwt>
<pdfrwt beam="2">0</pdfrwt>
<totfact> 0.88307857E+03</totfact>
</mgrwt>
</event>
<event>
 6    1  0.1295671E-001  0.3000000E+03  0.7818608E-02  0.1093470E+00
         21   -1    0    0  501  502  0.00000000000E+00  0.00000000000E+00  0.41499313086E+01  0.41499313086E+01  0.00000000000E+00 0. -1.
         13   -1    0    0    0    0 -0.00000000000E+00 -0.00000000000E+00 -0.10000000000E+04  0.10000000000E+04  0.00000000000E+00 0.  1.
    9000005    2    1    2  501    0  0.84289252633E+01 -0.34966764014E+02 -0.91438294295E+03  0.91509593677E+03  0.32689094267E+01 0.  0.
         13    1    3    3    0    0  0.36584000107E+01 -0.94306082798E+01 -0.24175947158E+03  0.24197099488E+03  0.00000000000E+00 0.  1.
          3    1    3    3  501    0  0.47705252526E+01 -0.25536155734E+02 -0.67262347137E+03  0.67312494189E+03  0.00000000000E+00 0.  1.
         -3    1    1    2    0  502 -0.84289252633E+01  0.34966764014E+02 -0.81467125742E+02  0.89053994539E+02  0.00000000000E+00 0. -1.
<mgrwt>
<rscale>  1 0.30000000E+03</rscale>
<asrwt>0</asrwt>
<pdfrwt beam="1">  1       21 0.15090691E-01 0.30000000E+03</pdfrwt>
<pdfrwt beam="2">0</pdfrwt>
<totfact> 0.40723303E+03</totfact>
</mgrwt>
</event>
<event>
 6    1  0.1295671E-001  0.3000000E+03  0.7818608E-02  0.1093470E+00
         21   -1    0    0  501  502  0.00000000000E+00  0.00000000000E+00  0.12401199878E+01  0.12401199878E+01  0.00000000000E+00 0. -1.
         13   -1    0    0    0    0 -0.00000000000E+00 -0.00000000000E+00 -0.10000000000E+04  0.10000000000E+04  0.00000000000E+00 0.  1.
    9000005    2    1    2  501    0  0.27643250852E+02 -0.18911635853E+02 -0.34976171764E+03  0.35137827771E+03  0.34111039915E+01 0.  0.
         13    1    3    3    0    0  0.19337445512E+01 -0.39206619667E+00 -0.22403743258E+02  0.22490460108E+02  0.00000000000E+00 0.  1.
          1    1    3    3  501    0  0.25709506301E+02 -0.18519569656E+02 -0.32735797438E+03  0.32888781760E+03  0.00000000000E+00 0.  1.
         -1    1    1    2    0  502 -0.27643250852E+02  0.18911635853E+02 -0.64899816237E+03  0.64986184228E+03  0.00000000000E+00 0. -1.
<mgrwt>
<rscale>  1 0.30000000E+03</rscale>
<asrwt>0</asrwt>
<pdfrwt beam="1">  1       21 0.45095367E-02 0.30000000E+03</pdfrwt>
<pdfrwt beam="2">0</pdfrwt>
<totfact> 0.34334613E+04</totfact>
</mgrwt>
</event>
<event>
 6    1  0.1295671E-001  0.3000000E+03  0.7818608E-02  0.1093470E+00
         21   -1    0    0  501  502  0.00000000000E+00  0.00000000000E+00  0.10768310752E+01  0.10768310752E+01  0.00000000000E+00 0. -1.
         13   -1    0    0    0    0 -0.00000000000E+00 -0.00000000000E+00 -0.10000000000E+04  0.10000000000E+04  0.00000000000E+00 0.  1.
    9000005    2    1    2  501    0  0.26672796013E+02 -0.14246348129E+02 -0.69177541041E+03  0.69244413345E+03  0.33560423921E+01 0.  0.
         13    1    3    3    0    0  0.26485873164E+02 -0.13801437650E+02 -0.67275999035E+03  0.67342259078E+03  0.00000000000E+00 0.  1.
          1    1    3    3  501    0  0.18692284889E+00 -0.44491047883E+00 -0.19015420066E+02  0.19021542676E+02  0.00000000000E+00 0.  1.
         -1    1    1    2    0  502 -0.26672796013E+02  0.14246348129E+02 -0.30714775851E+03  0.30863269762E+03  0.00000000000E+00 0. -1.
<mgrwt>
<rscale>  1 0.30000000E+03</rscale>
<asrwt>0</asrwt>
<pdfrwt beam="1">  1       21 0.39157576E-02 0.30000000E+03</pdfrwt>
<pdfrwt beam="2">0</pdfrwt>
<totfact> 0.43581057E+04</totfact>
</mgrwt>
</event>
<event>
 6    1  0.1295671E-001  0.3000000E+03  0.7818608E-02  0.1093470E+00
         21   -1    0    0  501  502  0.00000000000E+00  0.00000000000E+00  0.12146163683E+02  0.12146163683E+02  0.00000000000E+00 0. -1.
         13   -1    0    0    0    0 -0.00000000000E+00 -0.00000000000E+00 -0.10000000000E+04  0.10000000000E+04  0.00000000000E+00 0.  1.
    9000005    2    1    2  501    0 -0.12708734471E+02 -0.95319668094E+02 -0.74106264416E+03  0.74728158775E+03  0.29287822016E+01 0.  0.
         13    1    3    3    0    0 -0.17950193143E+01 -0.18682570368E+02 -0.15200018728E+03  0.15315455417E+03  0.00000000000E+00 0.  1.
          1    1    3    3  501    0 -0.10913715156E+02 -0.76637097727E+02 -0.58906245688E+03  0.59412703358E+03  0.00000000000E+00 0.  1.
         -1    1    1    2    0  502  0.12708734471E+02  0.95319668094E+02 -0.24679119216E+03  0.26486457593E+03  0.00000000000E+00 0. -1.
<mgrwt>
<rscale>  1 0.30000000E+03</rscale>
<asrwt>0</asrwt>
<pdfrwt beam="1">  1       21 0.44167961E-01 0.30000000E+03</pdfrwt>
<pdfrwt beam="2">0</pdfrwt>
<totfact> 0.49015698E+02</totfact>
</mgrwt>
</event>
<event>
 6    1  0.1295671E-001  0.3000000E+03  0.7818608E-02  0.1093470E+00
         21   -1    0    0  501  502  0.00000000000E+00  0.00000000000E+00  0.13415103201E+01  0.13415103201E+01  0.00000000000E+00 0. -1.
         13   -1    0    0    0    0 -0.00000000000E+00 -0.00000000000E+00 -0.10000000000E+04  0.10000000000E+04  0.00000000000E+00 0.  1.
    9000005    2    1    2  501    0 -0.34964614299E+02  0.37366186909E+01 -0.62645795338E+03  0.62748361513E+03  0.70450929074E+01 0.  0.
         13    1    3    3    0    0 -0.33343862051E+02  0.20973743223E+01 -0.56963235109E+03  0.57061127532E+03  0.00000000000E+00 0.  1.
          3    1    3    3  501    0 -0.16207522484E+01  0.16392443685E+01 -0.56825602289E+02  0.56872339810E+02  0.00000000000E+00 0.  1.
         -3    1    1    2    0  502  0.34964614299E+02 -0.37366186909E+01 -0.37220053630E+03  0.37385789519E+03  0.00000000000E+00 0. -1.
<mgrwt>
<rscale>  1 0.30000000E+03</rscale>
<asrwt>0</asrwt>
<pdfrwt beam="1">  1       21 0.48782296E-02 0.30000000E+03</pdfrwt>
<pdfrwt beam="2">0</pdfrwt>
<totfact> 0.30040405E+04</totfact>
</mgrwt>
</event>
<event>
 6    1  0.1295671E-001  0.3000000E+03  0.7818608E-02  0.1093470E+00
         21   -1    0    0  501  502  0.00000000000E+00  0.00000000000E+00  0.99027545992E+00  0.99027545992E+00  0.00000000000E+00 0. -1.
         13   -1    0    0    0    0 -0.00000000000E+00 -0.00000000000E+00 -0.10000000000E+04  0.10000000000E+04  0.00000000000E+00 0.  1.
    9000005    2    1    2  501    0 -0.96098729541E+01 -0.29566793299E+02 -0.56665084370E+03  0.56751507805E+03  0.36932681124E+01 0.  0.
         13    1    3    3    0    0 -0.26866140119E+01 -0.45290117190E+01 -0.82612582794E+02  0.82780243282E+02  0.00000000000E+00 0.  1.
          1    1    3    3  501    0 -0.69232589422E+01 -0.25037781580E+02 -0.48403826090E+03  0.48473483477E+03  0.00000000000E+00 0.  1.
         -1    1    1    2    0  502  0.96098729541E+01  0.29566793299E+02 -0.43235888084E+03  0.43347519741E+03  0.00000000000E+00 0. -1.
<mgrwt>
<rscale>  1 0.30000000E+03</rscale>
<asrwt>0</asrwt>
<pdfrwt beam="1">  1       21 0.36010093E-02 0.30000000E+03</pdfrwt>
<pdfrwt beam="2">0</pdfrwt>
<totfact> 0.50166724E+04</totfact>
</mgrwt>
</event>
<event>
 6    1  0.1295671E-001  0.3000000E+03  0.7818608E-02  0.1093470E+00
         21   -1    0    0  501  502  0.00000000000E+00  0.00000000000E+00  0.23965552973E+01  0.23965552973E+01  0.00000000000E+00 0. -1.
         13   -1    0    0    0    0 -0.00000000000E+00 -0.00000000000E+00 -0.10000000000E+04  0.10000000000E+04  0.00000000000E+00 0.  1.
    9000005    2    1    2  501    0  0.27710390202E+02 -0.12678641599E+02 -0.89087680432E+03  0.89140471125E+03  0.35021539856E+01 0.  0.
         13    1    3    3    0    0  0.21286526271E+02 -0.82977347693E+01 -0.64141944670E+03  0.64182620327E+03  0.00000000000E+00 0.  1.
          3    1    3    3  501    0  0.64238639308E+01 -0.43809068293E+01 -0.24945735763E+03  0.24957850798E+03  0.00000000000E+00 0.  1.
         -1    1    1    2    0  502 -0.27710390202E+02  0.12678641599E+02 -0.10672664038E+03  0.11099184404E+03  0.00000000000E+00 0. -1.
<mgrwt>
<rscale>  1 0.30000000E+03</rscale>
<asrwt>0</asrwt>
<pdfrwt beam="1">  1       21 0.87147649E-02 0.30000000E+03</pdfrwt>
<pdfrwt beam="2">0</pdfrwt>
<totfact> 0.10986575E+04</totfact>
</mgrwt>
</event>
<event>
 6    1  0.1295671E-001  0.3000000E+03  0.7818608E-02  0.1093470E+00
         21   -1    0    0  501  502  0.00000000000E+00  0.00000000000E+00  0.23572107107E+01  0.23572107107E+01  0.00000000000E+00 0. -1.
         13   -1    0    0    0    0 -0.00000000000E+00 -0.00000000000E+00 -0.10000000000E+04  0.10000000000E+04  0.00000000000E+00 0.  1.
    9000005    2    1    2  501    0 -0.32827220667E+02 -0.16117298916E+02 -0.82815136998E+03  0.82896535692E+03  0.33878658645E+01 0.  0.
         13    1    3    3    0    0 -0.20707248143E+00  0.10406400610E+00 -0.10811484556E+02  0.10813968126E+02  0.00000000000E+00 0.  1.
          3    1    3    3  501    0 -0.32620148185E+02 -0.16221362922E+02 -0.81733988542E+03  0.81815138879E+03  0.00000000000E+00 0.  1.
         -1    1    1    2    0  502  0.32827220667E+02  0.16117298916E+02 -0.16949141931E+03  0.17339185379E+03  0.00000000000E+00 0. -1.
<mgrwt>
<rscale>  1 0.30000000E+03</rscale>
<asrwt>0</asrwt>
<pdfrwt beam="1">  1       21 0.85716934E-02 0.30000000E+03</pdfrwt>
<pdfrwt beam="2">0</pdfrwt>
<totfact> 0.11312416E+04</totfact>
</mgrwt>
</event>
<event>
 6    1  0.1295671E-001  0.3000000E+03  0.7818608E-02  0.1093470E+00
         21   -1    0    0  501  502  0.00000000000E+00  0.00000000000E+00  0.11965378755E+02  0.11965378755E+02  0.00000000000E+00 0. -1.
         13   -1    0    0    0    0 -0.00000000000E+00 -0.00000000000E+00 -0.10000000000E+04  0.10000000000E+04  0.00000000000E+00 0.  1.
    9000005    2    1    2  501    0 -0.17262538323E+01  0.35115632941E+02 -0.97314497892E+03  0.97378437461E+03  0.29615209459E+01 0.  0.
         13    1    3    3    0    0  0.72528511521E+00  0.15022893974E+02 -0.41717251369E+03  0.41744355254E+03  0.00000000000E+00 0.  1.
          3    1    3    3  501    0 -0.24515389475E+01  0.20092738967E+02 -0.55597246523E+03  0.55634082207E+03  0.00000000000E+00 0.  1.
         -1    1    1    2    0  502  0.17262538323E+01 -0.35115632941E+02 -0.14889642326E+02  0.38181004148E+02  0.00000000000E+00 0. -1.
<mgrwt>
<rscale>  1 0.30000000E+03</rscale>
<asrwt>0</asrwt>
<pdfrwt beam="1">  1       21 0.43510560E-01 0.30000000E+03</pdfrwt>
<pdfrwt beam="2">0</pdfrwt>
<totfact> 0.50599638E+02</totfact>
</mgrwt>
</event>
<event>
 6    1  0.1295671E-001  0.3000000E+03  0.7818608E-02  0.1093470E+00
         21   -1    0    0  501  502  0.00000000000E+00  0.00000000000E+00  0.17034694066E+01  0.17034694066E+01  0.00000000000E+00 0. -1.
         13   -1    0    0    0    0 -0.00000000000E+00 -0.00000000000E+00 -0.10000000000E+04  0.10000000000E+04  0.00000000000E+00 0.  1.
    9000005    2    1    2  501    0 -0.40861883860E+02  0.34313266371E+01 -0.54930614288E+03  0.55084447170E+03  0.33054258944E+01 0.  0.
         13    1    3    3    0    0 -0.15226729635E+02  0.21507778235E+01 -0.18812653302E+03  0.18875399749E+03  0.00000000000E+00 0.  1.
          3    1    3    3  501    0 -0.25635154225E+02  0.12805488135E+01 -0.36117960986E+03  0.36209047422E+03  0.00000000000E+00 0.  1.
         -1    1    1    2    0  502  0.40861883860E+02 -0.34313266371E+01 -0.44899038771E+03  0.45085899770E+03  0.00000000000E+00 0. -1.
<mgrwt>
<rscale>  1 0.30000000E+03</rscale>
<asrwt>0</asrwt>
<pdfrwt beam="1">  1       21 0.61944473E-02 0.30000000E+03</pdfrwt>
<pdfrwt beam="2">0</pdfrwt>
<totfact> 0.19943178E+04</totfact>
</mgrwt>
</event>
<event>
 6    1  0.1295671E-001  0.3000000E+03  0.7818608E-02  0.1093470E+00
         21   -1    0    0  501  502  0.00000000000E+00  0.00000000000E+00  0.38561772799E+01  0.38561772799E+01  0.00000000000E+00 0. -1.
         13   -1    0    0    0    0 -0.00000000000E+00 -0.00000000000E+00 -0.10000000000E+04  0.10000000000E+04  0.00000000000E+00 0.  1.
    9000005    2    1    2  501    0  0.50971577809E+02 -0.20985910810E+02 -0.72883503738E+03  0.73092304093E+03  0.30773130242E+01 0.  0.
         13    1    3    3    0    0  0.16397810232E+02 -0.74362107693E+01 -0.22114075303E+03  0.22187252660E+03  0.00000000000E+00 0.  1.
          1    1    3    3  501    0  0.34573767577E+02 -0.13549700040E+02 -0.50769428435E+03  0.50905051432E+03  0.00000000000E+00 0.  1.
         -1    1    1    2    0  502 -0.50971577809E+02  0.20985910810E+02 -0.26730878534E+03  0.27293313635E+03  0.00000000000E+00 0. -1.
<mgrwt>
<rscale>  1 0.30000000E+03</rscale>
<asrwt>0</asrwt>
<pdfrwt beam="1">  1       21 0.14022492E-01 0.30000000E+03</pdfrwt>
<pdfrwt beam="2">0</pdfrwt>
<totfact> 0.46629023E+03</totfact>
</mgrwt>
</event>
<event>
 6    1  0.1295671E-001  0.3000000E+03  0.7818608E-02  0.1093470E+00
         21   -1    0    0  501  502  0.00000000000E+00  0.00000000000E+00  0.13058092190E+01  0.13058092190E+01  0.00000000000E+00 0. -1.
         13   -1    0    0    0    0 -0.00000000000E+00 -0.00000000000E+00 -0.10000000000E+04  0.10000000000E+04  0.00000000000E+00 0.  1.
    9000005    2    1    2  501    0 -0.25270210887E+02 -0.19985157239E+02 -0.72475871810E+03  0.72548225464E+03  0.33633712111E+01 0.  0.
         13    1    3    3    0    0 -0.17765872171E+02 -0.12047736447E+02 -0.47489927081E+03  0.47538415159E+03  0.00000000000E+00 0.  1.
          1    1    3    3  501    0 -0.75043387167E+01 -0.79374207928E+01 -0.24985944729E+03  0.25009810305E+03  0.00000000000E+00 0.  1.
         -3    1    1    2    0  502  0.25270210887E+02  0.19985157239E+02 -0.27393547268E+03  0.27582355458E+03  0.00000000000E+00 0. -1.
<mgrwt>
<rscale>  1 0.30000000E+03</rscale>
<asrwt>0</asrwt>
<pdfrwt beam="1">  1       21 0.47484072E-02 0.30000000E+03</pdfrwt>
<pdfrwt beam="2">0</pdfrwt>
<totfact> 0.31451487E+04</totfact>
</mgrwt>
</event>
<event>
 6    1  0.1295671E-001  0.3000000E+03  0.7818608E-02  0.1093470E+00
         21   -1    0    0  501  502  0.00000000000E+00  0.00000000000E+00  0.37461980073E+01  0.37461980073E+01  0.00000000000E+00 0. -1.
         13   -1    0    0    0    0 -0.00000000000E+00 -0.00000000000E+00 -0.10000000000E+04  0.10000000000E+04  0.00000000000E+00 0.  1.
    9000005    2    1    2  501    0  0.12115914809E+02 -0.52145331356E+02 -0.74041296247E+03  0.74236435828E+03  0.52492352285E+01 0.  0.
         13    1    3    3    0    0  0.11693979733E+02 -0.52055478897E+02 -0.73544705279E+03  0.73737974579E+03  0.00000000000E+00 0.  1.
          1    1    3    3  501    0  0.42193507587E+00 -0.89852458993E-01 -0.49659096806E+01  0.49846124853E+01  0.00000000000E+00 0.  1.
         -3    1    1    2    0  502 -0.12115914809E+02  0.52145331356E+02 -0.25584083952E+03  0.26138183973E+03  0.00000000000E+00 0. -1.
<mgrwt>
<rscale>  1 0.30000000E+03</rscale>
<asrwt>0</asrwt>
<pdfrwt beam="1">  1       21 0.13622567E-01 0.30000000E+03</pdfrwt>
<pdfrwt beam="2">0</pdfrwt>
<totfact> 0.49171991E+03</totfact>
</mgrwt>
</event>
<event>
 6    1  0.1295671E-001  0.3000000E+03  0.7818608E-02  0.1093470E+00
         21   -1    0    0  501  502  0.00000000000E+00  0.00000000000E+00  0.32140004263E+01  0.32140004263E+01  0.00000000000E+00 0. -1.
         13   -1    0    0    0    0 -0.00000000000E+00 -0.00000000000E+00 -0.10000000000E+04  0.10000000000E+04  0.00000000000E+00 0.  1.
    9000005    2    1    2  501    0  0.49565549309E+02  0.11093360298E+02 -0.72076645601E+03  0.72256013041E+03  0.30085945138E+01 0.  0.
         13    1    3    3    0    0  0.28748268560E+02  0.57902999524E+01 -0.43498588945E+03  0.43597329567E+03  0.00000000000E+00 0.  1.
          3    1    3    3  501    0  0.20817280748E+02  0.53030603460E+01 -0.28578056656E+03  0.28658683475E+03  0.00000000000E+00 0.  1.
         -3    1    1    2    0  502 -0.49565549309E+02 -0.11093360298E+02 -0.27601954357E+03  0.28065387001E+03  0.00000000000E+00 0. -1.
<mgrwt>
<rscale>  1 0.30000000E+03</rscale>
<asrwt>0</asrwt>
<pdfrwt beam="1">  1       21 0.11687299E-01 0.30000000E+03</pdfrwt>
<pdfrwt beam="2">0</pdfrwt>
<totfact> 0.65008592E+03</totfact>
</mgrwt>
</event>
<event>
 6    1  0.1295671E-001  0.3000000E+03  0.7818608E-02  0.1093470E+00
         21   -1    0    0  501  502  0.00000000000E+00  0.00000000000E+00  0.14849482289E+01  0.14849482289E+01  0.00000000000E+00 0. -1.
         13   -1    0    0    0    0 -0.00000000000E+00 -0.00000000000E+00 -0.10000000000E+04  0.10000000000E+04  0.00000000000E+00 0.  1.
    9000005    2    1    2  501    0  0.25432905072E+02 -0.21805905247E+02 -0.74569847506E+03  0.74645837780E+03  0.34005763224E+01 0.  0.
         13    1    3    3    0    0  0.12751812904E+02 -0.11215458582E+02 -0.41530961332E+03  0.41565667342E+03  0.00000000000E+00 0.  1.
          3    1    3    3  501    0  0.12681092167E+02 -0.10590446666E+02 -0.33038886174E+03  0.33080170438E+03  0.00000000000E+00 0.  1.
         -1    1    1    2    0  502 -0.25432905072E+02  0.21805905247E+02 -0.25281657671E+03  0.25502657043E+03  0.00000000000E+00 0. -1.
<mgrwt>
<rscale>  1 0.30000000E+03</rscale>
<asrwt>0</asrwt>
<pdfrwt beam="1">  1       21 0.53998231E-02 0.30000000E+03</pdfrwt>
<pdfrwt beam="2">0</pdfrwt>
<totfact> 0.25257308E+04</totfact>
</mgrwt>
</event>
<event>
 6    1  0.1295671E-001  0.3000000E+03  0.7818608E-02  0.1093470E+00
         21   -1    0    0  501  502  0.00000000000E+00  0.00000000000E+00  0.16408675282E+01  0.16408675282E+01  0.00000000000E+00 0. -1.
         13   -1    0    0    0    0 -0.00000000000E+00 -0.00000000000E+00 -0.10000000000E+04  0.10000000000E+04  0.00000000000E+00 0.  1.
    9000005    2    1    2  501    0  0.30252824723E+02  0.15240704251E+02 -0.77200265788E+03  0.77276368199E+03  0.53001849917E+01 0.  0.
         13    1    3    3    0    0  0.17255740503E+02  0.11205848011E+02 -0.49350365118E+03  0.49393236919E+03  0.00000000000E+00 0.  1.
          1    1    3    3  501    0  0.12997084220E+02  0.40348562402E+01 -0.27849900670E+03  0.27883131280E+03  0.00000000000E+00 0.  1.
         -1    1    1    2    0  502 -0.30252824723E+02 -0.15240704251E+02 -0.22635647459E+03  0.22887718554E+03  0.00000000000E+00 0. -1.
<mgrwt>
<rscale>  1 0.30000000E+03</rscale>
<asrwt>0</asrwt>
<pdfrwt beam="1">  1       21 0.59668036E-02 0.30000000E+03</pdfrwt>
<pdfrwt beam="2">0</pdfrwt>
<totfact> 0.21274235E+04</totfact>
</mgrwt>
</event>
<event>
 6    1  0.1295671E-001  0.3000000E+03  0.7818608E-02  0.1093470E+00
         21   -1    0    0  501  502  0.00000000000E+00  0.00000000000E+00  0.10710462769E+01  0.10710462769E+01  0.00000000000E+00 0. -1.
         13   -1    0    0    0    0 -0.00000000000E+00 -0.00000000000E+00 -0.10000000000E+04  0.10000000000E+04  0.00000000000E+00 0.  1.
    9000005    2    1    2  501    0  0.98472562905E+01 -0.30894855174E+02 -0.55270149439E+03  0.55366697165E+03  0.40881608248E+01 0.  0.
         13    1    3    3    0    0  0.99687136259E+01 -0.30794172119E+02 -0.55199134363E+03  0.55293950821E+03  0.00000000000E+00 0.  1.
          3    1    3    3  501    0 -0.12145733542E+00 -0.10068305506E+00 -0.71015075444E+00  0.72746343959E+00  0.00000000000E+00 0.  1.
         -1    1    1    2    0  502 -0.98472562905E+01  0.30894855174E+02 -0.44622745933E+03  0.44740407463E+03  0.00000000000E+00 0. -1.
<mgrwt>
<rscale>  1 0.30000000E+03</rscale>
<asrwt>0</asrwt>
<pdfrwt beam="1">  1       21 0.38947219E-02 0.30000000E+03</pdfrwt>
<pdfrwt beam="2">0</pdfrwt>
<totfact> 0.43977726E+04</totfact>
</mgrwt>
</event>
<event>
 6    1  0.1295671E-001  0.3000000E+03  0.7818608E-02  0.1093470E+00
         21   -1    0    0  501  502  0.00000000000E+00  0.00000000000E+00  0.12920851992E+01  0.12920851992E+01  0.00000000000E+00 0. -1.
         13   -1    0    0    0    0 -0.00000000000E+00 -0.00000000000E+00 -0.10000000000E+04  0.10000000000E+04  0.00000000000E+00 0.  1.
    9000005    2    1    2  501    0 -0.12410591833E+02  0.31742350487E+02 -0.65588407170E+03  0.65677824368E+03  0.34851469878E+01 0.  0.
         13    1    3    3    0    0 -0.33210975434E+01  0.91694539843E+01 -0.15921000262E+03  0.15950841203E+03  0.00000000000E+00 0.  1.
          1    1    3    3  501    0 -0.90894942900E+01  0.22572896503E+02 -0.49667406908E+03  0.49726983164E+03  0.00000000000E+00 0.  1.
         -3    1    1    2    0  502  0.12410591833E+02 -0.31742350487E+02 -0.34282384310E+03  0.34451384152E+03  0.00000000000E+00 0. -1.
<mgrwt>
<rscale>  1 0.30000000E+03</rscale>
<asrwt>0</asrwt>
<pdfrwt beam="1">  1       21 0.46985015E-02 0.30000000E+03</pdfrwt>
<pdfrwt beam="2">0</pdfrwt>
<totfact> 0.32021689E+04</totfact>
</mgrwt>
</event>
<event>
 6    1  0.1295671E-001  0.3000000E+03  0.7818608E-02  0.1093470E+00
         21   -1    0    0  501  502  0.00000000000E+00  0.00000000000E+00  0.10437077435E+01  0.10437077435E+01  0.00000000000E+00 0. -1.
         13   -1    0    0    0    0 -0.00000000000E+00 -0.00000000000E+00 -0.10000000000E+04  0.10000000000E+04  0.00000000000E+00 0.  1.
    9000005    2    1    2  501    0  0.11214276985E+02 -0.28346706268E+02 -0.33778233016E+03  0.33916735681E+03  0.28805547577E+01 0.  0.
         13    1    3    3    0    0  0.29655579980E+01 -0.11030551829E+02 -0.12058895272E+03  0.12112870480E+03  0.00000000000E+00 0.  1.
          1    1    3    3  501    0  0.82487189866E+01 -0.17316154439E+02 -0.21719337744E+03  0.21803865201E+03  0.00000000000E+00 0.  1.
         -3    1    1    2    0  502 -0.11214276985E+02  0.28346706268E+02 -0.66117396210E+03  0.66187635093E+03  0.00000000000E+00 0. -1.
<mgrwt>
<rscale>  1 0.30000000E+03</rscale>
<asrwt>0</asrwt>
<pdfrwt beam="1">  1       21 0.37953089E-02 0.30000000E+03</pdfrwt>
<pdfrwt beam="2">0</pdfrwt>
<totfact> 0.45931307E+04</totfact>
</mgrwt>
</event>
<event>
 6    1  0.1295671E-001  0.3000000E+03  0.7818608E-02  0.1093470E+00
         21   -1    0    0  501  502  0.00000000000E+00  0.00000000000E+00  0.19843417167E+01  0.19843417167E+01  0.00000000000E+00 0. -1.
         13   -1    0    0    0    0 -0.00000000000E+00 -0.00000000000E+00 -0.10000000000E+04  0.10000000000E+04  0.00000000000E+00 0.  1.
    9000005    2    1    2  501    0  0.32298019875E+02  0.22247651725E+02 -0.73472137620E+03  0.73578516990E+03  0.51181552211E+01 0.  0.
         13    1    3    3    0    0  0.87715173917E+01  0.73784799083E+01 -0.25448871565E+03  0.25474671318E+03  0.00000000000E+00 0.  1.
          1    1    3    3  501    0  0.23526502483E+02  0.14869171816E+02 -0.48023266055E+03  0.48103845672E+03  0.00000000000E+00 0.  1.
         -1    1    1    2    0  502 -0.32298019875E+02 -0.22247651725E+02 -0.26329428209E+03  0.26619917181E+03  0.00000000000E+00 0. -1.
<mgrwt>
<rscale>  1 0.30000000E+03</rscale>
<asrwt>0</asrwt>
<pdfrwt beam="1">  1       21 0.72158033E-02 0.30000000E+03</pdfrwt>
<pdfrwt beam="2">0</pdfrwt>
<totfact> 0.15303761E+04</totfact>
</mgrwt>
</event>
<event>
 6    1  0.1295671E-001  0.3000000E+03  0.7818608E-02  0.1093470E+00
         21   -1    0    0  501  502  0.00000000000E+00  0.00000000000E+00  0.92634901962E+00  0.92634901962E+00  0.00000000000E+00 0. -1.
         13   -1    0    0    0    0 -0.00000000000E+00 -0.00000000000E+00 -0.10000000000E+04  0.10000000000E+04  0.00000000000E+00 0.  1.
    9000005    2    1    2  501    0  0.27557157256E+02 -0.12497437577E+02 -0.50883912300E+03  0.50975888747E+03  0.46138266221E+01 0.  0.
         13    1    3    3    0    0  0.10740821705E+02 -0.72137250390E+01 -0.22885374855E+03  0.22921919925E+03  0.00000000000E+00 0.  1.
          3    1    3    3  501    0  0.16816335551E+02 -0.52837125382E+01 -0.27998537445E+03  0.28053968821E+03  0.00000000000E+00 0.  1.
         -1    1    1    2    0  502 -0.27557157256E+02  0.12497437577E+02 -0.49023452798E+03  0.49116746155E+03  0.00000000000E+00 0. -1.
<mgrwt>
<rscale>  1 0.30000000E+03</rscale>
<asrwt>0</asrwt>
<pdfrwt beam="1">  1       21 0.33685490E-02 0.30000000E+03</pdfrwt>
<pdfrwt beam="2">0</pdfrwt>
<totfact> 0.56095202E+04</totfact>
</mgrwt>
</event>
<event>
 6    1  0.1295671E-001  0.3000000E+03  0.7818608E-02  0.1093470E+00
         21   -1    0    0  501  502  0.00000000000E+00  0.00000000000E+00  0.39894136189E+01  0.39894136189E+01  0.00000000000E+00 0. -1.
         13   -1    0    0    0    0 -0.00000000000E+00 -0.00000000000E+00 -0.10000000000E+04  0.10000000000E+04  0.00000000000E+00 0.  1.
    9000005    2    1    2  501    0 -0.14585842406E+02 -0.61399120635E+02 -0.48925379909E+03  0.49331824714E+03  0.33187675350E+01 0.  0.
         13    1    3    3    0    0 -0.20302010783E+01 -0.46947110689E+01 -0.38460854477E+02  0.38799476228E+02  0.00000000000E+00 0.  1.
          1    1    3    3  501    0 -0.12555641327E+02 -0.56704409566E+02 -0.45079294462E+03  0.45451877091E+03  0.00000000000E+00 0.  1.
         -1    1    1    2    0  502  0.14585842406E+02  0.61399120635E+02 -0.50675678729E+03  0.51067116648E+03  0.00000000000E+00 0. -1.
<mgrwt>
<rscale>  1 0.30000000E+03</rscale>
<asrwt>0</asrwt>
<pdfrwt beam="1">  1       21 0.14506989E-01 0.30000000E+03</pdfrwt>
<pdfrwt beam="2">0</pdfrwt>
<totfact> 0.43802834E+03</totfact>
</mgrwt>
</event>
<event>
 6    1  0.1295671E-001  0.3000000E+03  0.7818608E-02  0.1093470E+00
         21   -1    0    0  501  502  0.00000000000E+00  0.00000000000E+00  0.13202418289E+01  0.13202418289E+01  0.00000000000E+00 0. -1.
         13   -1    0    0    0    0 -0.00000000000E+00 -0.00000000000E+00 -0.10000000000E+04  0.10000000000E+04  0.00000000000E+00 0.  1.
    9000005    2    1    2  501    0  0.35658831811E+02 -0.53698640872E+01 -0.44354478986E+03  0.44501527082E+03  0.24945792294E+01 0.  0.
         13    1    3    3    0    0  0.17783204500E+02 -0.36706562966E+01 -0.23248322555E+03  0.23319126536E+03  0.00000000000E+00 0.  1.
          3    1    3    3  501    0  0.17875627310E+02 -0.16992077906E+01 -0.21106156431E+03  0.21182400546E+03  0.00000000000E+00 0.  1.
         -1    1    1    2    0  502 -0.35658831811E+02  0.53698640872E+01 -0.55513496831E+03  0.55630497101E+03  0.00000000000E+00 0. -1.
<mgrwt>
<rscale>  1 0.30000000E+03</rscale>
<asrwt>0</asrwt>
<pdfrwt beam="1">  1       21 0.48008895E-02 0.30000000E+03</pdfrwt>
<pdfrwt beam="2">0</pdfrwt>
<totfact> 0.30868807E+04</totfact>
</mgrwt>
</event>
<event>
 6    1  0.1295671E-001  0.3000000E+03  0.7818608E-02  0.1093470E+00
         21   -1    0    0  501  502  0.00000000000E+00  0.00000000000E+00  0.11043955769E+01  0.11043955769E+01  0.00000000000E+00 0. -1.
         13   -1    0    0    0    0 -0.00000000000E+00 -0.00000000000E+00 -0.10000000000E+04  0.10000000000E+04  0.00000000000E+00 0.  1.
    9000005    2    1    2  501    0  0.31603524092E+02 -0.97645746317E+01 -0.51932990184E+03  0.52039929602E+03  0.42131571173E+01 0.  0.
         13    1    3    3    0    0  0.11127905586E+02 -0.37439446590E+01 -0.15432991351E+03  0.15477586895E+03  0.00000000000E+00 0.  1.
          3    1    3    3  501    0  0.20475618506E+02 -0.60206299727E+01 -0.36499998833E+03  0.36562342707E+03  0.00000000000E+00 0.  1.
         -1    1    1    2    0  502 -0.31603524092E+02  0.97645746317E+01 -0.47956570258E+03  0.48070509956E+03  0.00000000000E+00 0. -1.
<mgrwt>
<rscale>  1 0.30000000E+03</rscale>
<asrwt>0</asrwt>
<pdfrwt beam="1">  1       21 0.40159924E-02 0.30000000E+03</pdfrwt>
<pdfrwt beam="2">0</pdfrwt>
<totfact> 0.41765705E+04</totfact>
</mgrwt>
</event>
<event>
 6    1  0.1295671E-001  0.3000000E+03  0.7818608E-02  0.1093470E+00
         21   -1    0    0  501  502  0.00000000000E+00  0.00000000000E+00  0.12649712712E+01  0.12649712712E+01  0.00000000000E+00 0. -1.
         13   -1    0    0    0    0 -0.00000000000E+00 -0.00000000000E+00 -0.10000000000E+04  0.10000000000E+04  0.00000000000E+00 0.  1.
    9000005    2    1    2  501    0  0.27880276224E+02 -0.14591810701E+02 -0.73124686903E+03  0.73193219139E+03  0.35381602959E+01 0.  0.
         13    1    3    3    0    0  0.17568039597E+02 -0.92308782278E+01 -0.49945471371E+03  0.49984883332E+03  0.00000000000E+00 0.  1.
          1    1    3    3  501    0  0.10312236627E+02 -0.53609324731E+01 -0.23179215533E+03  0.23208335807E+03  0.00000000000E+00 0.  1.
         -1    1    1    2    0  502 -0.27880276224E+02  0.14591810701E+02 -0.26748815970E+03  0.26933277988E+03  0.00000000000E+00 0. -1.
<mgrwt>
<rscale>  1 0.30000000E+03</rscale>
<asrwt>0</asrwt>
<pdfrwt beam="1">  1       21 0.45999052E-02 0.30000000E+03</pdfrwt>
<pdfrwt beam="2">0</pdfrwt>
<totfact> 0.33196946E+04</totfact>
</mgrwt>
</event>
<event>
 6    1  0.1295671E-001  0.3000000E+03  0.7818608E-02  0.1093470E+00
         21   -1    0    0  501  502  0.00000000000E+00  0.00000000000E+00  0.18814163191E+01  0.18814163191E+01  0.00000000000E+00 0. -1.
         13   -1    0    0    0    0 -0.00000000000E+00 -0.00000000000E+00 -0.10000000000E+04  0.10000000000E+04  0.00000000000E+00 0.  1.
    9000005    2    1    2  501    0 -0.38473919448E+02  0.14117776737E+02 -0.66174255860E+03  0.66301804511E+03  0.31875040378E+01 0.  0.
         13    1    3    3    0    0 -0.10092254315E+02  0.41121338167E+01 -0.19866114831E+03  0.19895983285E+03  0.00000000000E+00 0.  1.
          1    1    3    3  501    0 -0.28381665132E+02  0.10005642921E+02 -0.46308141030E+03  0.46405821226E+03  0.00000000000E+00 0.  1.
         -1    1    1    2    0  502  0.38473919448E+02 -0.14117776737E+02 -0.33637602508E+03  0.33886337121E+03  0.00000000000E+00 0. -1.
<mgrwt>
<rscale>  1 0.30000000E+03</rscale>
<asrwt>0</asrwt>
<pdfrwt beam="1">  1       21 0.68415283E-02 0.30000000E+03</pdfrwt>
<pdfrwt beam="2">0</pdfrwt>
<totfact> 0.16790692E+04</totfact>
</mgrwt>
</event>
<event>
 6    1  0.1295671E-001  0.3000000E+03  0.7818608E-02  0.1093470E+00
         21   -1    0    0  501  502  0.00000000000E+00  0.00000000000E+00  0.13717629699E+01  0.13717629699E+01  0.00000000000E+00 0. -1.
         13   -1    0    0    0    0 -0.00000000000E+00 -0.00000000000E+00 -0.10000000000E+04  0.10000000000E+04  0.00000000000E+00 0.  1.
    9000005    2    1    2  501    0  0.92627701147E+01 -0.34500878620E+02 -0.62854664807E+03  0.62957007924E+03  0.33891504807E+01 0.  0.
         13    1    3    3    0    0  0.89274633912E+01 -0.33818964240E+02 -0.62127693122E+03  0.62226075500E+03  0.00000000000E+00 0.  1.
          3    1    3    3  501    0  0.33530672354E+00 -0.68191437992E+00 -0.72697168449E+01  0.73093242386E+01  0.00000000000E+00 0.  1.
         -1    1    1    2    0  502 -0.92627701147E+01  0.34500878620E+02 -0.37008158896E+03  0.37180168373E+03  0.00000000000E+00 0. -1.
<mgrwt>
<rscale>  1 0.30000000E+03</rscale>
<asrwt>0</asrwt>
<pdfrwt beam="1">  1       21 0.49882395E-02 0.30000000E+03</pdfrwt>
<pdfrwt beam="2">0</pdfrwt>
<totfact> 0.28920515E+04</totfact>
</mgrwt>
</event>
<event>
 6    1  0.1295671E-001  0.3000000E+03  0.7818608E-02  0.1093470E+00
         21   -1    0    0  501  502  0.00000000000E+00  0.00000000000E+00  0.30535273202E+01  0.30535273202E+01  0.00000000000E+00 0. -1.
         13   -1    0    0    0    0 -0.00000000000E+00 -0.00000000000E+00 -0.10000000000E+04  0.10000000000E+04  0.00000000000E+00 0.  1.
    9000005    2    1    2  501    0 -0.22682812721E+02  0.34122983707E+02 -0.83473059730E+03  0.83574280371E+03  0.34606174591E+01 0.  0.
         13    1    3    3    0    0 -0.14969641548E+01  0.39605584750E+01 -0.95607837729E+02  0.95701544190E+02  0.00000000000E+00 0.  1.
          1    1    3    3  501    0 -0.21185848566E+02  0.30162425232E+02 -0.73912275957E+03  0.74004125952E+03  0.00000000000E+00 0.  1.
         -1    1    1    2    0  502  0.22682812721E+02 -0.34122983707E+02 -0.16221587538E+03  0.16731072361E+03  0.00000000000E+00 0. -1.
<mgrwt>
<rscale>  1 0.30000000E+03</rscale>
<asrwt>0</asrwt>
<pdfrwt beam="1">  1       21 0.11103759E-01 0.30000000E+03</pdfrwt>
<pdfrwt beam="2">0</pdfrwt>
<totfact> 0.71305083E+03</totfact>
</mgrwt>
</event>
<event>
 6    1  0.1295671E-001  0.3000000E+03  0.7818608E-02  0.1093470E+00
         21   -1    0    0  501  502  0.00000000000E+00  0.00000000000E+00  0.53441164921E+01  0.53441164921E+01  0.00000000000E+00 0. -1.
         13   -1    0    0    0    0 -0.00000000000E+00 -0.00000000000E+00 -0.10000000000E+04  0.10000000000E+04  0.00000000000E+00 0.  1.
    9000005    2    1    2  501    0 -0.14142246671E+02  0.71473878314E+02 -0.53441370987E+03  0.53937053697E+03  0.37475894745E+01 0.  0.
         13    1    3    3    0    0 -0.92088484946E+01  0.37251131162E+02 -0.28480670602E+03  0.28738007840E+03  0.00000000000E+00 0.  1.
          3    1    3    3  501    0 -0.49333981765E+01  0.34222747153E+02 -0.24960700385E+03  0.25199045857E+03  0.00000000000E+00 0.  1.
         -1    1    1    2    0  502  0.14142246671E+02 -0.71473878314E+02 -0.46024217363E+03  0.46597357952E+03  0.00000000000E+00 0. -1.
<mgrwt>
<rscale>  1 0.30000000E+03</rscale>
<asrwt>0</asrwt>
<pdfrwt beam="1">  1       21 0.19433192E-01 0.30000000E+03</pdfrwt>
<pdfrwt beam="2">0</pdfrwt>
<totfact> 0.25342870E+03</totfact>
</mgrwt>
</event>
<event>
 6    1  0.1295671E-001  0.3000000E+03  0.7818608E-02  0.1093470E+00
         21   -1    0    0  501  502  0.00000000000E+00  0.00000000000E+00  0.10272553390E+01  0.10272553390E+01  0.00000000000E+00 0. -1.
         13   -1    0    0    0    0 -0.00000000000E+00 -0.00000000000E+00 -0.10000000000E+04  0.10000000000E+04  0.00000000000E+00 0.  1.
    9000005    2    1    2  501    0  0.28222918344E+02 -0.11009038159E+02 -0.66029303326E+03  0.66099537602E+03  0.32039510110E+01 0.  0.
         13    1    3    3    0    0  0.21252819792E+02 -0.75819842188E+01 -0.46304137472E+03  0.46359085791E+03  0.00000000000E+00 0.  1.
          1    1    3    3  501    0  0.69700985520E+01 -0.34270539407E+01 -0.19725165854E+03  0.19740451811E+03  0.00000000000E+00 0.  1.
         -1    1    1    2    0  502 -0.28222918344E+02  0.11009038159E+02 -0.33867971140E+03  0.34003187932E+03  0.00000000000E+00 0. -1.
<mgrwt>
<rscale>  1 0.30000000E+03</rscale>
<asrwt>0</asrwt>
<pdfrwt beam="1">  1       21 0.37354818E-02 0.30000000E+03</pdfrwt>
<pdfrwt beam="2">0</pdfrwt>
<totfact> 0.47173540E+04</totfact>
</mgrwt>
</event>
<event>
 6    1  0.1295671E-001  0.3000000E+03  0.7818608E-02  0.1093470E+00
         21   -1    0    0  501  502  0.00000000000E+00  0.00000000000E+00  0.11164634541E+02  0.11164634541E+02  0.00000000000E+00 0. -1.
         13   -1    0    0    0    0 -0.00000000000E+00 -0.00000000000E+00 -0.10000000000E+04  0.10000000000E+04  0.00000000000E+00 0.  1.
    9000005    2    1    2  501    0  0.66211212957E+02 -0.46531829426E+01 -0.88776956243E+03  0.89025196616E+03  0.28618956288E+01 0.  0.
         13    1    3    3    0    0  0.44661626937E+02 -0.19803911775E+01 -0.60661443005E+03  0.60825952488E+03  0.00000000000E+00 0.  1.
          1    1    3    3  501    0  0.21549586020E+02 -0.26727917650E+01 -0.28115513238E+03  0.28199244128E+03  0.00000000000E+00 0.  1.
         -1    1    1    2    0  502 -0.66211212957E+02  0.46531829426E+01 -0.10106580303E+03  0.12091266838E+03  0.00000000000E+00 0. -1.
<mgrwt>
<rscale>  1 0.30000000E+03</rscale>
<asrwt>0</asrwt>
<pdfrwt beam="1">  1       21 0.40598757E-01 0.30000000E+03</pdfrwt>
<pdfrwt beam="2">0</pdfrwt>
<totfact> 0.58554250E+02</totfact>
</mgrwt>
</event>
<event>
 6    1  0.1295671E-001  0.3000000E+03  0.7818608E-02  0.1093470E+00
         21   -1    0    0  501  502  0.00000000000E+00  0.00000000000E+00  0.70687674629E+01  0.70687674629E+01  0.00000000000E+00 0. -1.
         13   -1    0    0    0    0 -0.00000000000E+00 -0.00000000000E+00 -0.10000000000E+04  0.10000000000E+04  0.00000000000E+00 0.  1.
    9000005    2    1    2  501    0 -0.28754707111E+01 -0.37187589662E+02 -0.94767550297E+03  0.94842351006E+03  0.52067607502E+01 0.  0.
         13    1    3    3    0    0 -0.22080086643E+01 -0.85518812210E+01 -0.26566285458E+03  0.26580963541E+03  0.00000000000E+00 0.  1.
          3    1    3    3  501    0 -0.66746204685E+00 -0.28635708441E+02 -0.68201264839E+03  0.68261387465E+03  0.00000000000E+00 0.  1.
         -1    1    1    2    0  502  0.28754707111E+01  0.37187589662E+02 -0.45255729569E+02  0.58645257400E+02  0.00000000000E+00 0. -1.
<mgrwt>
<rscale>  1 0.30000000E+03</rscale>
<asrwt>0</asrwt>
<pdfrwt beam="1">  1       21 0.25704663E-01 0.30000000E+03</pdfrwt>
<pdfrwt beam="2">0</pdfrwt>
<totfact> 0.14768327E+03</totfact>
</mgrwt>
</event>
<event>
 6    1  0.1295671E-001  0.3000000E+03  0.7818608E-02  0.1093470E+00
         21   -1    0    0  501  502  0.00000000000E+00  0.00000000000E+00  0.16248769007E+01  0.16248769007E+01  0.00000000000E+00 0. -1.
         13   -1    0    0    0    0 -0.00000000000E+00 -0.00000000000E+00 -0.10000000000E+04  0.10000000000E+04  0.00000000000E+00 0.  1.
    9000005    2    1    2  501    0 -0.19463167922E+02  0.27550735873E+02 -0.77216278393E+03  0.77291134353E+03  0.43269069803E+01 0.  0.
         13    1    3    3    0    0 -0.52653990790E+01  0.97928873909E+01 -0.22026679228E+03  0.22054723951E+03  0.00000000000E+00 0.  1.
          1    1    3    3  501    0 -0.14197768843E+02  0.17757848482E+02 -0.55189599165E+03  0.55236410403E+03  0.00000000000E+00 0.  1.
         -1    1    1    2    0  502  0.19463167922E+02 -0.27550735873E+02 -0.22621233917E+03  0.22871353337E+03  0.00000000000E+00 0. -1.
<mgrwt>
<rscale>  1 0.30000000E+03</rscale>
<asrwt>0</asrwt>
<pdfrwt beam="1">  1       21 0.59086557E-02 0.30000000E+03</pdfrwt>
<pdfrwt beam="2">0</pdfrwt>
<totfact> 0.21636450E+04</totfact>
</mgrwt>
</event>
<event>
 6    1  0.1295671E-001  0.3000000E+03  0.7818608E-02  0.1093470E+00
         21   -1    0    0  501  502  0.00000000000E+00  0.00000000000E+00  0.16493089337E+01  0.16493089337E+01  0.00000000000E+00 0. -1.
         13   -1    0    0    0    0 -0.00000000000E+00 -0.00000000000E+00 -0.10000000000E+04  0.10000000000E+04  0.00000000000E+00 0.  1.
    9000005    2    1    2  501    0 -0.28984071017E+02  0.13801648932E+02 -0.80510678252E+03  0.80575706795E+03  0.41181805993E+01 0.  0.
         13    1    3    3    0    0 -0.20179225990E+02  0.99594311255E+01 -0.60803997791E+03  0.60845624836E+03  0.00000000000E+00 0.  1.
          3    1    3    3  501    0 -0.88048450273E+01  0.38422178065E+01 -0.19706680461E+03  0.19730081959E+03  0.00000000000E+00 0.  1.
         -3    1    1    2    0  502  0.28984071017E+02 -0.13801648932E+02 -0.19324390855E+03  0.19589224098E+03  0.00000000000E+00 0. -1.
<mgrwt>
<rscale>  1 0.30000000E+03</rscale>
<asrwt>0</asrwt>
<pdfrwt beam="1">  1       21 0.59974997E-02 0.30000000E+03</pdfrwt>
<pdfrwt beam="2">0</pdfrwt>
<totfact> 0.21086818E+04</totfact>
</mgrwt>
</event>
<event>
 6    1  0.1295671E-001  0.3000000E+03  0.7818608E-02  0.1093470E+00
         21   -1    0    0  501  502  0.00000000000E+00  0.00000000000E+00  0.37617386785E+01  0.37617386785E+01  0.00000000000E+00 0. -1.
         13   -1    0    0    0    0 -0.00000000000E+00 -0.00000000000E+00 -0.10000000000E+04  0.10000000000E+04  0.00000000000E+00 0.  1.
    9000005    2    1    2  501    0 -0.51431745599E+02 -0.33515304828E+01 -0.22701354737E+03  0.23281224761E+03  0.31519421984E+01 0.  0.
         13    1    3    3    0    0 -0.34424269134E+02 -0.22286751633E+01 -0.14511018847E+03  0.14915416218E+03  0.00000000000E+00 0.  1.
          3    1    3    3  501    0 -0.17007476465E+02 -0.11228553195E+01 -0.81903358895E+02  0.83658085432E+02  0.00000000000E+00 0.  1.
         -3    1    1    2    0  502  0.51431745599E+02  0.33515304828E+01 -0.76922471396E+03  0.77094949106E+03  0.00000000000E+00 0. -1.
<mgrwt>
<rscale>  1 0.30000000E+03</rscale>
<asrwt>0</asrwt>
<pdfrwt beam="1">  1       21 0.13679079E-01 0.30000000E+03</pdfrwt>
<pdfrwt beam="2">0</pdfrwt>
<totfact> 0.48800239E+03</totfact>
</mgrwt>
</event>
<event>
 6    1  0.1295671E-001  0.3000000E+03  0.7818608E-02  0.1093470E+00
         21   -1    0    0  501  502  0.00000000000E+00  0.00000000000E+00  0.14454012777E+01  0.14454012777E+01  0.00000000000E+00 0. -1.
         13   -1    0    0    0    0 -0.00000000000E+00 -0.00000000000E+00 -0.10000000000E+04  0.10000000000E+04  0.00000000000E+00 0.  1.
    9000005    2    1    2  501    0 -0.31905105363E+02 -0.19859629257E+02 -0.43000247413E+03  0.43165258016E+03  0.30792167315E+01 0.  0.
         13    1    3    3    0    0 -0.11439816878E+02 -0.54100971540E+01 -0.14495079409E+03  0.14550213493E+03  0.00000000000E+00 0.  1.
          1    1    3    3  501    0 -0.20465288485E+02 -0.14449532103E+02 -0.28505168004E+03  0.28615044523E+03  0.00000000000E+00 0.  1.
         -1    1    1    2    0  502  0.31905105363E+02  0.19859629257E+02 -0.56855212459E+03  0.56979282112E+03  0.00000000000E+00 0. -1.
<mgrwt>
<rscale>  1 0.30000000E+03</rscale>
<asrwt>0</asrwt>
<pdfrwt beam="1">  1       21 0.52560157E-02 0.30000000E+03</pdfrwt>
<pdfrwt beam="2">0</pdfrwt>
<totfact> 0.26451102E+04</totfact>
</mgrwt>
</event>
<event>
 6    1  0.1295671E-001  0.3000000E+03  0.7818608E-02  0.1093470E+00
         21   -1    0    0  501  502  0.00000000000E+00  0.00000000000E+00  0.22088581822E+01  0.22088581822E+01  0.00000000000E+00 0. -1.
         13   -1    0    0    0    0 -0.00000000000E+00 -0.00000000000E+00 -0.10000000000E+04  0.10000000000E+04  0.00000000000E+00 0.  1.
    9000005    2    1    2  501    0 -0.16932243424E+02 -0.35539865910E+02 -0.77221584121E+03  0.77322414432E+03  0.29135913215E+01 0.  0.
         13    1    3    3    0    0 -0.41705304605E+01 -0.10328942857E+02 -0.19699415487E+03  0.19730883771E+03  0.00000000000E+00 0.  1.
          1    1    3    3  501    0 -0.12761712963E+02 -0.25210923053E+02 -0.57522168634E+03  0.57591530661E+03  0.00000000000E+00 0.  1.
         -3    1    1    2    0  502  0.16932243424E+02  0.35539865910E+02 -0.22557530061E+03  0.22898471386E+03  0.00000000000E+00 0. -1.
<mgrwt>
<rscale>  1 0.30000000E+03</rscale>
<asrwt>0</asrwt>
<pdfrwt beam="1">  1       21 0.80322285E-02 0.30000000E+03</pdfrwt>
<pdfrwt beam="2">0</pdfrwt>
<totfact> 0.12683970E+04</totfact>
</mgrwt>
</event>
<event>
 6    1  0.1295671E-001  0.3000000E+03  0.7818608E-02  0.1093470E+00
         21   -1    0    0  501  502  0.00000000000E+00  0.00000000000E+00  0.27658777679E+01  0.27658777679E+01  0.00000000000E+00 0. -1.
         13   -1    0    0    0    0 -0.00000000000E+00 -0.00000000000E+00 -0.10000000000E+04  0.10000000000E+04  0.00000000000E+00 0.  1.
    9000005    2    1    2  501    0  0.38411981416E+02  0.93082482785E+01 -0.82908716982E+03  0.83003625840E+03  0.35399565165E+01 0.  0.
         13    1    3    3    0    0  0.15418374351E+02  0.29006509831E+01 -0.29735012809E+03  0.29776372969E+03  0.00000000000E+00 0.  1.
          1    1    3    3  501    0  0.22993607065E+02  0.64075972954E+01 -0.53173704174E+03  0.53227252871E+03  0.00000000000E+00 0.  1.
         -3    1    1    2    0  502 -0.38411981416E+02 -0.93082482785E+01 -0.16814695241E+03  0.17272961937E+03  0.00000000000E+00 0. -1.
<mgrwt>
<rscale>  1 0.30000000E+03</rscale>
<asrwt>0</asrwt>
<pdfrwt beam="1">  1       21 0.10057759E-01 0.30000000E+03</pdfrwt>
<pdfrwt beam="2">0</pdfrwt>
<totfact> 0.85151026E+03</totfact>
</mgrwt>
</event>
<event>
 6    1  0.1295671E-001  0.3000000E+03  0.7818608E-02  0.1093470E+00
         21   -1    0    0  501  502  0.00000000000E+00  0.00000000000E+00  0.22522763815E+01  0.22522763815E+01  0.00000000000E+00 0. -1.
         13   -1    0    0    0    0 -0.00000000000E+00 -0.00000000000E+00 -0.10000000000E+04  0.10000000000E+04  0.00000000000E+00 0.  1.
    9000005    2    1    2  501    0 -0.45981608679E+02 -0.23112852130E+01 -0.61820962546E+03  0.61993196783E+03  0.35851571831E+01 0.  0.
         13    1    3    3    0    0 -0.39846253573E+02 -0.26235544608E+01 -0.54888963279E+03  0.55034029105E+03  0.00000000000E+00 0.  1.
          3    1    3    3  501    0 -0.61353551057E+01  0.31226924779E+00 -0.69319992662E+02  0.69591676779E+02  0.00000000000E+00 0.  1.
         -3    1    1    2    0  502  0.45981608679E+02  0.23112852130E+01 -0.37953809816E+03  0.38232030855E+03  0.00000000000E+00 0. -1.
<mgrwt>
<rscale>  1 0.30000000E+03</rscale>
<asrwt>0</asrwt>
<pdfrwt beam="1">  1       21 0.81901132E-02 0.30000000E+03</pdfrwt>
<pdfrwt beam="2">0</pdfrwt>
<totfact> 0.12257286E+04</totfact>
</mgrwt>
</event>
<event>
 6    1  0.1295671E-001  0.3000000E+03  0.7818608E-02  0.1093470E+00
         21   -1    0    0  501  502  0.00000000000E+00  0.00000000000E+00  0.17617571137E+01  0.17617571137E+01  0.00000000000E+00 0. -1.
         13   -1    0    0    0    0 -0.00000000000E+00 -0.00000000000E+00 -0.10000000000E+04  0.10000000000E+04  0.00000000000E+00 0.  1.
    9000005    2    1    2  501    0  0.89214630791E+01 -0.31167175393E+02 -0.81642518323E+03  0.81708102182E+03  0.45090007704E+01 0.  0.
         13    1    3    3    0    0  0.82228296840E+01 -0.30908246277E+02 -0.79625624511E+03  0.79689832632E+03  0.00000000000E+00 0.  1.
          1    1    3    3  501    0  0.69863339512E+00 -0.25892911577E+00 -0.20168938121E+02  0.20182695505E+02  0.00000000000E+00 0.  1.
         -3    1    1    2    0  502 -0.89214630791E+01  0.31167175393E+02 -0.18181305966E+03  0.18468073529E+03  0.00000000000E+00 0. -1.
<mgrwt>
<rscale>  1 0.30000000E+03</rscale>
<asrwt>0</asrwt>
<pdfrwt beam="1">  1       21 0.64064030E-02 0.30000000E+03</pdfrwt>
<pdfrwt beam="2">0</pdfrwt>
<totfact> 0.18816498E+04</totfact>
</mgrwt>
</event>
<event>
 6    1  0.1295671E-001  0.3000000E+03  0.7818608E-02  0.1093470E+00
         21   -1    0    0  501  502  0.00000000000E+00  0.00000000000E+00  0.33603898217E+01  0.33603898217E+01  0.00000000000E+00 0. -1.
         13   -1    0    0    0    0 -0.00000000000E+00 -0.00000000000E+00 -0.10000000000E+04  0.10000000000E+04  0.00000000000E+00 0.  1.
    9000005    2    1    2  501    0  0.18260310494E+02  0.28769442808E+02 -0.90403022648E+03  0.90468102152E+03  0.39975662687E+01 0.  0.
         13    1    3    3    0    0  0.10767335297E+02  0.20398354309E+02 -0.61724187649E+03  0.61767269849E+03  0.00000000000E+00 0.  1.
          3    1    3    3  501    0  0.74929751975E+01  0.83710884985E+01 -0.28678834999E+03  0.28700832303E+03  0.00000000000E+00 0.  1.
         -3    1    1    2    0  502 -0.18260310494E+02 -0.28769442808E+02 -0.92609383698E+02  0.98679368298E+02  0.00000000000E+00 0. -1.
<mgrwt>
<rscale>  1 0.30000000E+03</rscale>
<asrwt>0</asrwt>
<pdfrwt beam="1">  1       21 0.12219625E-01 0.30000000E+03</pdfrwt>
<pdfrwt beam="2">0</pdfrwt>
<totfact> 0.59962398E+03</totfact>
</mgrwt>
</event>
<event>
 6    1  0.1295671E-001  0.3000000E+03  0.7818608E-02  0.1093470E+00
         21   -1    0    0  501  502  0.00000000000E+00  0.00000000000E+00  0.19318332397E+01  0.19318332397E+01  0.00000000000E+00 0. -1.
         13   -1    0    0    0    0 -0.00000000000E+00 -0.00000000000E+00 -0.10000000000E+04  0.10000000000E+04  0.00000000000E+00 0.  1.
    9000005    2    1    2  501    0  0.24663369511E+02  0.34054099297E+02 -0.35618247999E+03  0.35867045685E+03  0.32517826550E+01 0.  0.
         13    1    3    3    0    0  0.11319586441E+02  0.17198713473E+02 -0.16286788640E+03  0.16416417759E+03  0.00000000000E+00 0.  1.
          3    1    3    3  501    0  0.13343783070E+02  0.16855385825E+02 -0.19331459359E+03  0.19450627926E+03  0.00000000000E+00 0.  1.
         -3    1    1    2    0  502 -0.24663369511E+02 -0.34054099297E+02 -0.64188568677E+03  0.64326137639E+03  0.00000000000E+00 0. -1.
<mgrwt>
<rscale>  1 0.30000000E+03</rscale>
<asrwt>0</asrwt>
<pdfrwt beam="1">  1       21 0.70248630E-02 0.30000000E+03</pdfrwt>
<pdfrwt beam="2">0</pdfrwt>
<totfact> 0.16036017E+04</totfact>
</mgrwt>
</event>
<event>
 6    1  0.1295671E-001  0.3000000E+03  0.7818608E-02  0.1093470E+00
         21   -1    0    0  501  502  0.00000000000E+00  0.00000000000E+00  0.23674996130E+01  0.23674996130E+01  0.00000000000E+00 0. -1.
         13   -1    0    0    0    0 -0.00000000000E+00 -0.00000000000E+00 -0.10000000000E+04  0.10000000000E+04  0.00000000000E+00 0.  1.
    9000005    2    1    2  501    0 -0.57402400073E+01 -0.48065019431E+02 -0.54444987427E+03  0.54660693851E+03  0.32067397240E+01 0.  0.
         13    1    3    3    0    0 -0.15295860873E+01 -0.16383519352E+02 -0.20183103043E+03  0.20250067700E+03  0.00000000000E+00 0.  1.
          3    1    3    3  501    0 -0.42106539200E+01 -0.31681500079E+02 -0.34261884384E+03  0.34410626151E+03  0.00000000000E+00 0.  1.
         -3    1    1    2    0  502  0.57402400073E+01  0.48065019431E+02 -0.45318262611E+03  0.45576056111E+03  0.00000000000E+00 0. -1.
<mgrwt>
<rscale>  1 0.30000000E+03</rscale>
<asrwt>0</asrwt>
<pdfrwt beam="1">  1       21 0.86091077E-02 0.30000000E+03</pdfrwt>
<pdfrwt beam="2">0</pdfrwt>
<totfact> 0.11225799E+04</totfact>
</mgrwt>
</event>
<event>
 6    1  0.1295671E-001  0.3000000E+03  0.7818608E-02  0.1093470E+00
         21   -1    0    0  501  502  0.00000000000E+00  0.00000000000E+00  0.40682712366E+02  0.40682712366E+02  0.00000000000E+00 0. -1.
         13   -1    0    0    0    0 -0.00000000000E+00 -0.00000000000E+00 -0.10000000000E+04  0.10000000000E+04  0.00000000000E+00 0.  1.
    9000005    2    1    2  501    0 -0.43551533265E+02 -0.36737456167E+02 -0.97880206112E+03  0.98046616038E+03  0.37470061423E+01 0.  0.
         13    1    3    3    0    0 -0.37985475453E+02 -0.33377785207E+02 -0.85641101669E+03  0.85790255997E+03  0.00000000000E+00 0.  1.
          3    1    3    3  501    0 -0.55660578114E+01 -0.33596709604E+01 -0.12239104443E+03  0.12256360041E+03  0.00000000000E+00 0.  1.
         -3    1    1    2    0  502  0.43551533265E+02  0.36737456167E+02  0.19484773488E+02  0.60216551987E+02  0.00000000000E+00 0. -1.
<mgrwt>
<rscale>  1 0.30000000E+03</rscale>
<asrwt>0</asrwt>
<pdfrwt beam="1">  1       21 0.14793745E+00 0.30000000E+03</pdfrwt>
<pdfrwt beam="2">0</pdfrwt>
<totfact> 0.24944559E+01</totfact>
</mgrwt>
</event>
<event>
 6    1  0.1295671E-001  0.3000000E+03  0.7818608E-02  0.1093470E+00
         21   -1    0    0  501  502  0.00000000000E+00  0.00000000000E+00  0.21762933602E+01  0.21762933602E+01  0.00000000000E+00 0. -1.
         13   -1    0    0    0    0 -0.00000000000E+00 -0.00000000000E+00 -0.10000000000E+04  0.10000000000E+04  0.00000000000E+00 0.  1.
    9000005    2    1    2  501    0  0.43319154723E+02  0.12133282438E+02 -0.63002286438E+03  0.63163449373E+03  0.30916524755E+01 0.  0.
         13    1    3    3    0    0  0.22283564614E+02  0.53195034988E+01 -0.33830037459E+03  0.33907520967E+03  0.00000000000E+00 0.  1.
          3    1    3    3  501    0  0.21035590110E+02  0.68137789387E+01 -0.29172248980E+03  0.29255928406E+03  0.00000000000E+00 0.  1.
         -1    1    1    2    0  502 -0.43319154723E+02 -0.12133282438E+02 -0.36780084226E+03  0.37054179963E+03  0.00000000000E+00 0. -1.
<mgrwt>
<rscale>  1 0.30000000E+03</rscale>
<asrwt>0</asrwt>
<pdfrwt beam="1">  1       21 0.79138107E-02 0.30000000E+03</pdfrwt>
<pdfrwt beam="2">0</pdfrwt>
<totfact> 0.13019158E+04</totfact>
</mgrwt>
</event>
<event>
 6    1  0.1295671E-001  0.3000000E+03  0.7818608E-02  0.1093470E+00
         21   -1    0    0  501  502  0.00000000000E+00  0.00000000000E+00  0.36561393496E+01  0.36561393496E+01  0.00000000000E+00 0. -1.
         13   -1    0    0    0    0 -0.00000000000E+00 -0.00000000000E+00 -0.10000000000E+04  0.10000000000E+04  0.00000000000E+00 0.  1.
    9000005    2    1    2  501    0 -0.33505539104E+02 -0.15730252260E+02 -0.89487875298E+03  0.89565044478E+03  0.34168254536E+01 0.  0.
         13    1    3    3    0    0 -0.27345083876E+02 -0.11728450392E+02 -0.69450885077E+03  0.69514592278E+03  0.00000000000E+00 0.  1.
          3    1    3    3  501    0 -0.61604552282E+01 -0.40018018674E+01 -0.20036990221E+03  0.20050452199E+03  0.00000000000E+00 0.  1.
         -1    1    1    2    0  502  0.33505539104E+02  0.15730252260E+02 -0.10146510767E+03  0.10800569457E+03  0.00000000000E+00 0. -1.
<mgrwt>
<rscale>  1 0.30000000E+03</rscale>
<asrwt>0</asrwt>
<pdfrwt beam="1">  1       21 0.13295080E-01 0.30000000E+03</pdfrwt>
<pdfrwt beam="2">0</pdfrwt>
<totfact> 0.51412391E+03</totfact>
</mgrwt>
</event>
<event>
 6    1  0.1295671E-001  0.3000000E+03  0.7818608E-02  0.1093470E+00
         21   -1    0    0  501  502  0.00000000000E+00  0.00000000000E+00  0.96575074653E+00  0.96575074653E+00  0.00000000000E+00 0. -1.
         13   -1    0    0    0    0 -0.00000000000E+00 -0.00000000000E+00 -0.10000000000E+04  0.10000000000E+04  0.00000000000E+00 0.  1.
    9000005    2    1    2  501    0 -0.17654734523E+02  0.24328700382E+02 -0.62230718155E+03  0.62304134183E+03  0.32726303011E+01 0.  0.
         13    1    3    3    0    0 -0.95939899234E+00  0.26793970813E+01 -0.48827205089E+02  0.48910076385E+02  0.00000000000E+00 0.  1.
          3    1    3    3  501    0 -0.16695335530E+02  0.21649303301E+02 -0.57347997646E+03  0.57413126545E+03  0.00000000000E+00 0.  1.
         -1    1    1    2    0  502  0.17654734523E+02 -0.24328700382E+02 -0.37672706770E+03  0.37792440892E+03  0.00000000000E+00 0. -1.
<mgrwt>
<rscale>  1 0.30000000E+03</rscale>
<asrwt>0</asrwt>
<pdfrwt beam="1">  1       21 0.35118283E-02 0.30000000E+03</pdfrwt>
<pdfrwt beam="2">0</pdfrwt>
<totfact> 0.52320358E+04</totfact>
</mgrwt>
</event>
<event>
 6    1  0.1295671E-001  0.3000000E+03  0.7818608E-02  0.1093470E+00
         21   -1    0    0  501  502  0.00000000000E+00  0.00000000000E+00  0.88395152423E+01  0.88395152423E+01  0.00000000000E+00 0. -1.
         13   -1    0    0    0    0 -0.00000000000E+00 -0.00000000000E+00 -0.10000000000E+04  0.10000000000E+04  0.00000000000E+00 0.  1.
    9000005    2    1    2  501    0  0.78434441477E+02  0.40076956257E+02 -0.67172249364E+03  0.67748056455E+03  0.32684633557E+01 0.  0.
         13    1    3    3    0    0  0.46395053271E+02  0.21901401374E+02 -0.39196942751E+03  0.39531279318E+03  0.00000000000E+00 0.  1.
          1    1    3    3  501    0  0.32039388206E+02  0.18175554882E+02 -0.27975306613E+03  0.28216777137E+03  0.00000000000E+00 0.  1.
         -3    1    1    2    0  502 -0.78434441477E+02 -0.40076956257E+02 -0.31943799112E+03  0.33135895069E+03  0.00000000000E+00 0. -1.
<mgrwt>
<rscale>  1 0.30000000E+03</rscale>
<asrwt>0</asrwt>
<pdfrwt beam="1">  1       21 0.32143760E-01 0.30000000E+03</pdfrwt>
<pdfrwt beam="2">0</pdfrwt>
<totfact> 0.94635036E+02</totfact>
</mgrwt>
</event>
<event>
 6    1  0.1295671E-001  0.3000000E+03  0.7818608E-02  0.1093470E+00
         21   -1    0    0  501  502  0.00000000000E+00  0.00000000000E+00  0.15526997590E+01  0.15526997590E+01  0.00000000000E+00 0. -1.
         13   -1    0    0    0    0 -0.00000000000E+00 -0.00000000000E+00 -0.10000000000E+04  0.10000000000E+04  0.00000000000E+00 0.  1.
    9000005    2    1    2  501    0 -0.30866873567E+02 -0.23685399448E+02 -0.56832078620E+03  0.56967009984E+03  0.46631100443E+01 0.  0.
         13    1    3    3    0    0 -0.12294664156E+02 -0.11647749761E+02 -0.26842745538E+03  0.26896120100E+03  0.00000000000E+00 0.  1.
          3    1    3    3  501    0 -0.18572209411E+02 -0.12037649686E+02 -0.29989333082E+03  0.30070889885E+03  0.00000000000E+00 0.  1.
         -1    1    1    2    0  502  0.30866873567E+02  0.23685399448E+02 -0.43012651404E+03  0.43188259991E+03  0.00000000000E+00 0. -1.
<mgrwt>
<rscale>  1 0.30000000E+03</rscale>
<asrwt>0</asrwt>
<pdfrwt beam="1">  1       21 0.56461928E-02 0.30000000E+03</pdfrwt>
<pdfrwt beam="2">0</pdfrwt>
<totfact> 0.23396597E+04</totfact>
</mgrwt>
</event>
<event>
 6    1  0.1295671E-001  0.3000000E+03  0.7818608E-02  0.1093470E+00
         21   -1    0    0  501  502  0.00000000000E+00  0.00000000000E+00  0.10477321849E+01  0.10477321849E+01  0.00000000000E+00 0. -1.
         13   -1    0    0    0    0 -0.00000000000E+00 -0.00000000000E+00 -0.10000000000E+04  0.10000000000E+04  0.00000000000E+00 0.  1.
    9000005    2    1    2  501    0  0.32100527302E+02  0.35626396189E+01 -0.49372268822E+03  0.49478686627E+03  0.29688248192E+01 0.  0.
         13    1    3    3    0    0  0.12275223794E+02  0.28166186442E+01 -0.19082264527E+03  0.19123780068E+03  0.00000000000E+00 0.  1.
          1    1    3    3  501    0  0.19825303508E+02  0.74602097469E+00 -0.30290004295E+03  0.30354906560E+03  0.00000000000E+00 0.  1.
         -1    1    1    2    0  502 -0.32100527302E+02 -0.35626396189E+01 -0.50522957960E+03  0.50626086591E+03  0.00000000000E+00 0. -1.
<mgrwt>
<rscale>  1 0.30000000E+03</rscale>
<asrwt>0</asrwt>
<pdfrwt beam="1">  1       21 0.38099433E-02 0.30000000E+03</pdfrwt>
<pdfrwt beam="2">0</pdfrwt>
<totfact> 0.45635264E+04</totfact>
</mgrwt>
</event>
<event>
 6    1  0.1295671E-001  0.3000000E+03  0.7818608E-02  0.1093470E+00
         21   -1    0    0  501  502  0.00000000000E+00  0.00000000000E+00  0.16170821066E+01  0.16170821066E+01  0.00000000000E+00 0. -1.
         13   -1    0    0    0    0 -0.00000000000E+00 -0.00000000000E+00 -0.10000000000E+04  0.10000000000E+04  0.00000000000E+00 0.  1.
    9000005    2    1    2  501    0 -0.37848647697E+02  0.12637745187E+00 -0.66682019483E+03  0.66790107196E+03  0.31833294985E+01 0.  0.
         13    1    3    3    0    0 -0.29267416945E+02  0.93837596353E-01 -0.53782853550E+03  0.53862428844E+03  0.00000000000E+00 0.  1.
          3    1    3    3  501    0 -0.85812307523E+01  0.32539855516E-01 -0.12899165933E+03  0.12927678352E+03  0.00000000000E+00 0.  1.
         -3    1    1    2    0  502  0.37848647697E+02 -0.12637745187E+00 -0.33156272306E+03  0.33371601015E+03  0.00000000000E+00 0. -1.
<mgrwt>
<rscale>  1 0.30000000E+03</rscale>
<asrwt>0</asrwt>
<pdfrwt beam="1">  1       21 0.58803110E-02 0.30000000E+03</pdfrwt>
<pdfrwt beam="2">0</pdfrwt>
<totfact> 0.21816512E+04</totfact>
</mgrwt>
</event>
<event>
 6    1  0.1295671E-001  0.3000000E+03  0.7818608E-02  0.1093470E+00
         21   -1    0    0  501  502  0.00000000000E+00  0.00000000000E+00  0.25375812132E+01  0.25375812132E+01  0.00000000000E+00 0. -1.
         13   -1    0    0    0    0 -0.00000000000E+00 -0.00000000000E+00 -0.10000000000E+04  0.10000000000E+04  0.00000000000E+00 0.  1.
    9000005    2    1    2  501    0 -0.50106613469E+02 -0.15178334052E+01 -0.54262300022E+03  0.54494401350E+03  0.33587123566E+01 0.  0.
         13    1    3    3    0    0 -0.37478494831E+02  0.32614155484E+00 -0.40450254318E+03  0.40623521682E+03  0.00000000000E+00 0.  1.
          1    1    3    3  501    0 -0.12628118638E+02 -0.18439749601E+01 -0.13812045704E+03  0.13870879668E+03  0.00000000000E+00 0.  1.
         -3    1    1    2    0  502  0.50106613469E+02  0.15178334052E+01 -0.45483941857E+03  0.45759356771E+03  0.00000000000E+00 0. -1.
<mgrwt>
<rscale>  1 0.30000000E+03</rscale>
<asrwt>0</asrwt>
<pdfrwt beam="1">  1       21 0.92275875E-02 0.30000000E+03</pdfrwt>
<pdfrwt beam="2">0</pdfrwt>
<totfact> 0.99284164E+03</totfact>
</mgrwt>
</event>
<event>
 6    1  0.1295671E-001  0.3000000E+03  0.7818608E-02  0.1093470E+00
         21   -1    0    0  501  502  0.00000000000E+00  0.00000000000E+00  0.33006993837E+01  0.33006993837E+01  0.00000000000E+00 0. -1.
         13   -1    0    0    0    0 -0.00000000000E+00 -0.00000000000E+00 -0.10000000000E+04  0.10000000000E+04  0.00000000000E+00 0.  1.
    9000005    2    1    2  501    0  0.21443074955E+02 -0.43665536162E+02 -0.76495003183E+03  0.76650076675E+03  0.28965015944E+01 0.  0.
         13    1    3    3    0    0  0.10461519369E+02 -0.22898309137E+02 -0.37576649214E+03  0.37660885885E+03  0.00000000000E+00 0.  1.
          1    1    3    3  501    0  0.10981555586E+02 -0.20767227025E+02 -0.38918353970E+03  0.38989190791E+03  0.00000000000E+00 0.  1.
         -1    1    1    2    0  502 -0.21443074955E+02  0.43665536162E+02 -0.23174926878E+03  0.23679993263E+03  0.00000000000E+00 0. -1.
<mgrwt>
<rscale>  1 0.30000000E+03</rscale>
<asrwt>0</asrwt>
<pdfrwt beam="1">  1       21 0.12002569E-01 0.30000000E+03</pdfrwt>
<pdfrwt beam="2">0</pdfrwt>
<totfact> 0.61947132E+03</totfact>
</mgrwt>
</event>
<event>
 6    1  0.1295671E-001  0.3000000E+03  0.7818608E-02  0.1093470E+00
         21   -1    0    0  501  502  0.00000000000E+00  0.00000000000E+00  0.15308858176E+01  0.15308858176E+01  0.00000000000E+00 0. -1.
         13   -1    0    0    0    0 -0.00000000000E+00 -0.00000000000E+00 -0.10000000000E+04  0.10000000000E+04  0.00000000000E+00 0.  1.
    9000005    2    1    2  501    0  0.38647805321E+02 -0.18716695912E+01 -0.56899527490E+03  0.57031755737E+03  0.30557130858E+01 0.  0.
         13    1    3    3    0    0  0.85614503580E+01  0.53887355025E+00 -0.13866182128E+03  0.13892692143E+03  0.00000000000E+00 0.  1.
          3    1    3    3  501    0  0.30086354963E+02 -0.24105431414E+01 -0.43033345362E+03  0.43139063594E+03  0.00000000000E+00 0.  1.
         -1    1    1    2    0  502 -0.38647805321E+02  0.18716695912E+01 -0.42947383929E+03  0.43121332845E+03  0.00000000000E+00 0. -1.
<mgrwt>
<rscale>  1 0.30000000E+03</rscale>
<asrwt>0</asrwt>
<pdfrwt beam="1">  1       21 0.55668693E-02 0.30000000E+03</pdfrwt>
<pdfrwt beam="2">0</pdfrwt>
<totfact> 0.23972004E+04</totfact>
</mgrwt>
</event>
<event>
 6    1  0.1295671E-001  0.3000000E+03  0.7818608E-02  0.1093470E+00
         21   -1    0    0  501  502  0.00000000000E+00  0.00000000000E+00  0.21633205426E+01  0.21633205426E+01  0.00000000000E+00 0. -1.
         13   -1    0    0    0    0 -0.00000000000E+00 -0.00000000000E+00 -0.10000000000E+04  0.10000000000E+04  0.00000000000E+00 0.  1.
    9000005    2    1    2  501    0 -0.36903811246E+02  0.21683181446E+02 -0.69405193082E+03  0.69537801263E+03  0.32320491477E+01 0.  0.
         13    1    3    3    0    0 -0.14668915081E+02  0.10412764266E+02 -0.29722335459E+03  0.29776723333E+03  0.00000000000E+00 0.  1.
          1    1    3    3  501    0 -0.22234896165E+02  0.11270417180E+02 -0.39682857622E+03  0.39761077930E+03  0.00000000000E+00 0.  1.
         -1    1    1    2    0  502  0.36903811246E+02 -0.21683181446E+02 -0.30378474864E+03  0.30678530791E+03  0.00000000000E+00 0. -1.
<mgrwt>
<rscale>  1 0.30000000E+03</rscale>
<asrwt>0</asrwt>
<pdfrwt beam="1">  1       21 0.78666367E-02 0.30000000E+03</pdfrwt>
<pdfrwt beam="2">0</pdfrwt>
<totfact> 0.13156494E+04</totfact>
</mgrwt>
</event>
<event>
 6    1  0.1295671E-001  0.3000000E+03  0.7818608E-02  0.1093470E+00
         21   -1    0    0  501  502  0.00000000000E+00  0.00000000000E+00  0.15163318631E+01  0.15163318631E+01  0.00000000000E+00 0. -1.
         13   -1    0    0    0    0 -0.00000000000E+00 -0.00000000000E+00 -0.10000000000E+04  0.10000000000E+04  0.00000000000E+00 0.  1.
    9000005    2    1    2  501    0  0.35411147182E+02 -0.35063274892E+01 -0.70124720402E+03  0.70215741805E+03  0.33398956327E+01 0.  0.
         13    1    3    3    0    0  0.98062361727E+01  0.52550620148E+00 -0.19249428275E+03  0.19274461683E+03  0.00000000000E+00 0.  1.
          3    1    3    3  501    0  0.25604911009E+02 -0.40318336907E+01 -0.50875292127E+03  0.50941280122E+03  0.00000000000E+00 0.  1.
         -1    1    1    2    0  502 -0.35411147182E+02  0.35063274892E+01 -0.29723646412E+03  0.29935891381E+03  0.00000000000E+00 0. -1.
<mgrwt>
<rscale>  1 0.30000000E+03</rscale>
<asrwt>0</asrwt>
<pdfrwt beam="1">  1       21 0.55139457E-02 0.30000000E+03</pdfrwt>
<pdfrwt beam="2">0</pdfrwt>
<totfact> 0.24368098E+04</totfact>
</mgrwt>
</event>
<event>
 6    1  0.1295671E-001  0.3000000E+03  0.7818608E-02  0.1093470E+00
         21   -1    0    0  501  502  0.00000000000E+00  0.00000000000E+00  0.25369754999E+01  0.25369754999E+01  0.00000000000E+00 0. -1.
         13   -1    0    0    0    0 -0.00000000000E+00 -0.00000000000E+00 -0.10000000000E+04  0.10000000000E+04  0.00000000000E+00 0.  1.
    9000005    2    1    2  501    0 -0.87150565433E+01 -0.39628729271E+02 -0.79532567984E+03  0.79636739845E+03  0.34216821669E+01 0.  0.
         13    1    3    3    0    0 -0.68939419480E+01 -0.23553853195E+02 -0.47963663073E+03  0.48026410232E+03  0.00000000000E+00 0.  1.
          1    1    3    3  501    0 -0.18211145954E+01 -0.16074876076E+02 -0.31568904911E+03  0.31610329613E+03  0.00000000000E+00 0.  1.
         -3    1    1    2    0  502  0.87150565433E+01  0.39628729271E+02 -0.20213734466E+03  0.20616957705E+03  0.00000000000E+00 0. -1.
<mgrwt>
<rscale>  1 0.30000000E+03</rscale>
<asrwt>0</asrwt>
<pdfrwt beam="1">  1       21 0.92253849E-02 0.30000000E+03</pdfrwt>
<pdfrwt beam="2">0</pdfrwt>
<totfact> 0.99326264E+03</totfact>
</mgrwt>
</event>
<event>
 6    1  0.1295671E-001  0.3000000E+03  0.7818608E-02  0.1093470E+00
         21   -1    0    0  501  502  0.00000000000E+00  0.00000000000E+00  0.48596749287E+01  0.48596749287E+01  0.00000000000E+00 0. -1.
         13   -1    0    0    0    0 -0.00000000000E+00 -0.00000000000E+00 -0.10000000000E+04  0.10000000000E+04  0.00000000000E+00 0.  1.
    9000005    2    1    2  501    0 -0.46718069730E+02  0.38255922398E+02 -0.74802076624E+03  0.75046987562E+03  0.48860865373E+01 0.  0.
         13    1    3    3    0    0 -0.10732474682E+02  0.11037479708E+02 -0.17553388604E+03  0.17620771016E+03  0.00000000000E+00 0.  1.
          3    1    3    3  501    0 -0.35985595048E+02  0.27218442689E+02 -0.57248688020E+03  0.57426216546E+03  0.00000000000E+00 0.  1.
         -3    1    1    2    0  502  0.46718069730E+02 -0.38255922398E+02 -0.24711955883E+03  0.25438979931E+03  0.00000000000E+00 0. -1.
<mgrwt>
<rscale>  1 0.30000000E+03</rscale>
<asrwt>0</asrwt>
<pdfrwt beam="1">  1       21 0.17671582E-01 0.30000000E+03</pdfrwt>
<pdfrwt beam="2">0</pdfrwt>
<totfact> 0.30328328E+03</totfact>
</mgrwt>
</event>
<event>
 6    1  0.1295671E-001  0.3000000E+03  0.7818608E-02  0.1093470E+00
         21   -1    0    0  501  502  0.00000000000E+00  0.00000000000E+00  0.13624024772E+01  0.13624024772E+01  0.00000000000E+00 0. -1.
         13   -1    0    0    0    0 -0.00000000000E+00 -0.00000000000E+00 -0.10000000000E+04  0.10000000000E+04  0.00000000000E+00 0.  1.
    9000005    2    1    2  501    0 -0.31566755541E+02  0.20037130091E+01 -0.24379226444E+03  0.24585465811E+03  0.30610117029E+01 0.  0.
         13    1    3    3    0    0 -0.26054865591E+02  0.13483443360E+01 -0.19161986987E+03  0.19338781912E+03  0.00000000000E+00 0.  1.
          1    1    3    3  501    0 -0.55118899504E+01  0.65536867310E+00 -0.52172394571E+02  0.52466838995E+02  0.00000000000E+00 0.  1.
         -3    1    1    2    0  502  0.31566755541E+02 -0.20037130091E+01 -0.75484533308E+03  0.75550774436E+03  0.00000000000E+00 0. -1.
<mgrwt>
<rscale>  1 0.30000000E+03</rscale>
<asrwt>0</asrwt>
<pdfrwt beam="1">  1       21 0.49542013E-02 0.30000000E+03</pdfrwt>
<pdfrwt beam="2">0</pdfrwt>
<totfact> 0.29259968E+04</totfact>
</mgrwt>
</event>
<event>
 6    1  0.1295671E-001  0.3000000E+03  0.7818608E-02  0.1093470E+00
         21   -1    0    0  501  502  0.00000000000E+00  0.00000000000E+00  0.25262789853E+01  0.25262789853E+01  0.00000000000E+00 0. -1.
         13   -1    0    0    0    0 -0.00000000000E+00 -0.00000000000E+00 -0.10000000000E+04  0.10000000000E+04  0.00000000000E+00 0.  1.
    9000005    2    1    2  501    0 -0.30418248987E+02  0.14324261094E+02 -0.12725244651E+03  0.13165572550E+03  0.30968672582E+01 0.  0.
         13    1    3    3    0    0 -0.21073349780E+02  0.97855550888E+01 -0.93293932205E+02  0.96143647454E+02  0.00000000000E+00 0.  1.
          1    1    3    3  501    0 -0.93448992067E+01  0.45387060049E+01 -0.33958514302E+02  0.35512078044E+02  0.00000000000E+00 0.  1.
         -3    1    1    2    0  502  0.30418248987E+02 -0.14324261094E+02 -0.87022127451E+03  0.87087055349E+03  0.00000000000E+00 0. -1.
<mgrwt>
<rscale>  1 0.30000000E+03</rscale>
<asrwt>0</asrwt>
<pdfrwt beam="1">  1       21 0.91864884E-02 0.30000000E+03</pdfrwt>
<pdfrwt beam="2">0</pdfrwt>
<totfact> 0.10007418E+04</totfact>
</mgrwt>
</event>
<event>
 6    1  0.1295671E-001  0.3000000E+03  0.7818608E-02  0.1093470E+00
         21   -1    0    0  501  502  0.00000000000E+00  0.00000000000E+00  0.10563321907E+01  0.10563321907E+01  0.00000000000E+00 0. -1.
         13   -1    0    0    0    0 -0.00000000000E+00 -0.00000000000E+00 -0.10000000000E+04  0.10000000000E+04  0.00000000000E+00 0.  1.
    9000005    2    1    2  501    0  0.20007778164E+02  0.24854907393E+02 -0.58911952659E+03  0.58999197673E+03  0.32616531583E+01 0.  0.
         13    1    3    3    0    0  0.62359727743E+01  0.54812374568E+01 -0.15014590222E+03  0.15037527481E+03  0.00000000000E+00 0.  1.
          3    1    3    3  501    0  0.13771805389E+02  0.19373669936E+02 -0.43897362437E+03  0.43961670191E+03  0.00000000000E+00 0.  1.
         -1    1    1    2    0  502 -0.20007778164E+02 -0.24854907393E+02 -0.40982414122E+03  0.41106435546E+03  0.00000000000E+00 0. -1.
<mgrwt>
<rscale>  1 0.30000000E+03</rscale>
<asrwt>0</asrwt>
<pdfrwt beam="1">  1       21 0.38412161E-02 0.30000000E+03</pdfrwt>
<pdfrwt beam="2">0</pdfrwt>
<totfact> 0.45012596E+04</totfact>
</mgrwt>
</event>
<event>
 6    1  0.1295671E-001  0.3000000E+03  0.7818608E-02  0.1093470E+00
         21   -1    0    0  501  502  0.00000000000E+00  0.00000000000E+00  0.21700290272E+01  0.21700290272E+01  0.00000000000E+00 0. -1.
         13   -1    0    0    0    0 -0.00000000000E+00 -0.00000000000E+00 -0.10000000000E+04  0.10000000000E+04  0.00000000000E+00 0.  1.
    9000005    2    1    2  501    0  0.14594927693E+02 -0.26469169748E+02 -0.87998007983E+03  0.88050563118E+03  0.34054042682E+01 0.  0.
         13    1    3    3    0    0  0.23096025623E+01 -0.33667636714E+01 -0.90472507201E+02  0.90564584253E+02  0.00000000000E+00 0.  1.
          3    1    3    3  501    0  0.12285325131E+02 -0.23102406076E+02 -0.78950757263E+03  0.78994104693E+03  0.00000000000E+00 0.  1.
         -3    1    1    2    0  502 -0.14594927693E+02  0.26469169748E+02 -0.11784989114E+03  0.12166439785E+03  0.00000000000E+00 0. -1.
<mgrwt>
<rscale>  1 0.30000000E+03</rscale>
<asrwt>0</asrwt>
<pdfrwt beam="1">  1       21 0.78910313E-02 0.30000000E+03</pdfrwt>
<pdfrwt beam="2">0</pdfrwt>
<totfact> 0.13085198E+04</totfact>
</mgrwt>
</event>
<event>
 6    1  0.1295671E-001  0.3000000E+03  0.7818608E-02  0.1093470E+00
         21   -1    0    0  501  502  0.00000000000E+00  0.00000000000E+00  0.15905797518E+01  0.15905797518E+01  0.00000000000E+00 0. -1.
         13   -1    0    0    0    0 -0.00000000000E+00 -0.00000000000E+00 -0.10000000000E+04  0.10000000000E+04  0.00000000000E+00 0.  1.
    9000005    2    1    2  501    0  0.28484437450E+01 -0.31844706665E+02 -0.20315452456E+03  0.20569325717E+03  0.39694108218E+01 0.  0.
         13    1    3    3    0    0  0.34625392721E+01 -0.30714125707E+02 -0.19341280739E+03  0.19586694657E+03  0.00000000000E+00 0.  1.
          3    1    3    3  501    0 -0.61409552702E+00 -0.11305809586E+01 -0.97417171612E+01  0.98263105929E+01  0.00000000000E+00 0.  1.
         -1    1    1    2    0  502 -0.28484437450E+01  0.31844706665E+02 -0.79525489569E+03  0.79589732258E+03  0.00000000000E+00 0. -1.
<mgrwt>
<rscale>  1 0.30000000E+03</rscale>
<asrwt>0</asrwt>
<pdfrwt beam="1">  1       21 0.57839386E-02 0.30000000E+03</pdfrwt>
<pdfrwt beam="2">0</pdfrwt>
<totfact> 0.22446500E+04</totfact>
</mgrwt>
</event>
<event>
 6    1  0.1295671E-001  0.3000000E+03  0.7818608E-02  0.1093470E+00
         21   -1    0    0  501  502  0.00000000000E+00  0.00000000000E+00  0.28554738604E+01  0.28554738604E+01  0.00000000000E+00 0. -1.
         13   -1    0    0    0    0 -0.00000000000E+00 -0.00000000000E+00 -0.10000000000E+04  0.10000000000E+04  0.00000000000E+00 0.  1.
    9000005    2    1    2  501    0 -0.51597244799E+02 -0.13413204355E+02 -0.52458201640E+03  0.52729526176E+03  0.34367749504E+01 0.  0.
         13    1    3    3    0    0 -0.38542699530E+02 -0.10756179145E+02 -0.38024375382E+03  0.38234349399E+03  0.00000000000E+00 0.  1.
          1    1    3    3  501    0 -0.13054545269E+02 -0.26570252094E+01 -0.14433826258E+03  0.14495176777E+03  0.00000000000E+00 0.  1.
         -1    1    1    2    0  502  0.51597244799E+02  0.13413204355E+02 -0.47256250974E+03  0.47556021210E+03  0.00000000000E+00 0. -1.
<mgrwt>
<rscale>  1 0.30000000E+03</rscale>
<asrwt>0</asrwt>
<pdfrwt beam="1">  1       21 0.10383563E-01 0.30000000E+03</pdfrwt>
<pdfrwt beam="2">0</pdfrwt>
<totfact> 0.80429826E+03</totfact>
</mgrwt>
</event>
<event>
 6    1  0.1295671E-001  0.3000000E+03  0.7818608E-02  0.1093470E+00
         21   -1    0    0  501  502  0.00000000000E+00  0.00000000000E+00  0.12612309470E+01  0.12612309470E+01  0.00000000000E+00 0. -1.
         13   -1    0    0    0    0 -0.00000000000E+00 -0.00000000000E+00 -0.10000000000E+04  0.10000000000E+04  0.00000000000E+00 0.  1.
    9000005    2    1    2  501    0  0.33237290964E+02 -0.11881936451E+02 -0.52946746091E+03  0.53066431365E+03  0.47878693856E+01 0.  0.
         13    1    3    3    0    0  0.11789784825E+02 -0.47754905036E+01 -0.22533051474E+03  0.22568926693E+03  0.00000000000E+00 0.  1.
          1    1    3    3  501    0  0.21447506139E+02 -0.71064459472E+01 -0.30413694617E+03  0.30497504672E+03  0.00000000000E+00 0.  1.
         -1    1    1    2    0  502 -0.33237290964E+02  0.11881936451E+02 -0.46927130814E+03  0.47059691730E+03  0.00000000000E+00 0. -1.
<mgrwt>
<rscale>  1 0.30000000E+03</rscale>
<asrwt>0</asrwt>
<pdfrwt beam="1">  1       21 0.45863040E-02 0.30000000E+03</pdfrwt>
<pdfrwt beam="2">0</pdfrwt>
<totfact> 0.33364373E+04</totfact>
</mgrwt>
</event>
<event>
 6    1  0.1295671E-001  0.3000000E+03  0.7818608E-02  0.1093470E+00
         21   -1    0    0  501  502  0.00000000000E+00  0.00000000000E+00  0.16046003541E+01  0.16046003541E+01  0.00000000000E+00 0. -1.
         13   -1    0    0    0    0 -0.00000000000E+00 -0.00000000000E+00 -0.10000000000E+04  0.10000000000E+04  0.00000000000E+00 0.  1.
    9000005    2    1    2  501    0 -0.33514849314E+02 -0.20843999524E+02 -0.56285193392E+03  0.56427654503E+03  0.69283697974E+01 0.  0.
         13    1    3    3    0    0 -0.27637863660E+02 -0.15371747739E+02 -0.41263241099E+03  0.41384254100E+03  0.00000000000E+00 0.  1.
          1    1    3    3  501    0 -0.58769856541E+01 -0.54722517850E+01 -0.15021952293E+03  0.15043400403E+03  0.00000000000E+00 0.  1.
         -1    1    1    2    0  502  0.33514849314E+02  0.20843999524E+02 -0.43554346572E+03  0.43732805533E+03  0.00000000000E+00 0. -1.
<mgrwt>
<rscale>  1 0.30000000E+03</rscale>
<asrwt>0</asrwt>
<pdfrwt beam="1">  1       21 0.58349227E-02 0.30000000E+03</pdfrwt>
<pdfrwt beam="2">0</pdfrwt>
<totfact> 0.22109753E+04</totfact>
</mgrwt>
</event>
<event>
 6    1  0.1295671E-001  0.3000000E+03  0.7818608E-02  0.1093470E+00
         21   -1    0    0  501  502  0.00000000000E+00  0.00000000000E+00  0.35136941300E+01  0.35136941300E+01  0.00000000000E+00 0. -1.
         13   -1    0    0    0    0 -0.00000000000E+00 -0.00000000000E+00 -0.10000000000E+04  0.10000000000E+04  0.00000000000E+00 0.  1.
    9000005    2    1    2  501    0 -0.63692899034E+01 -0.39447939756E+02 -0.86873149793E+03  0.86965556492E+03  0.31109948586E+01 0.  0.
         13    1    3    3    0    0 -0.43573011418E+01 -0.31717125565E+02 -0.71573535975E+03  0.71645102227E+03  0.00000000000E+00 0.  1.
          1    1    3    3  501    0 -0.20119887616E+01 -0.77308141901E+01 -0.15299613819E+03  0.15320454264E+03  0.00000000000E+00 0.  1.
         -1    1    1    2    0  502  0.63692899034E+01  0.39447939756E+02 -0.12775480794E+03  0.13385812921E+03  0.00000000000E+00 0. -1.
<mgrwt>
<rscale>  1 0.30000000E+03</rscale>
<asrwt>0</asrwt>
<pdfrwt beam="1">  1       21 0.12777097E-01 0.30000000E+03</pdfrwt>
<pdfrwt beam="2">0</pdfrwt>
<totfact> 0.55282954E+03</totfact>
</mgrwt>
</event>
<event>
 6    1  0.1295671E-001  0.3000000E+03  0.7818608E-02  0.1093470E+00
         21   -1    0    0  501  502  0.00000000000E+00  0.00000000000E+00  0.25568116988E+01  0.25568116988E+01  0.00000000000E+00 0. -1.
         13   -1    0    0    0    0 -0.00000000000E+00 -0.00000000000E+00 -0.10000000000E+04  0.10000000000E+04  0.00000000000E+00 0.  1.
    9000005    2    1    2  501    0 -0.38217017019E+02  0.20856631866E+02 -0.75295970719E+03  0.75422696649E+03  0.38022169772E+01 0.  0.
         13    1    3    3    0    0 -0.22178721269E+02  0.14207818296E+02 -0.44996082603E+03  0.45073107586E+03  0.00000000000E+00 0.  1.
          3    1    3    3  501    0 -0.16038295750E+02  0.66488135704E+01 -0.30299888116E+03  0.30349589064E+03  0.00000000000E+00 0.  1.
         -3    1    1    2    0  502  0.38217017019E+02 -0.20856631866E+02 -0.24448348111E+03  0.24832984520E+03  0.00000000000E+00 0. -1.
<mgrwt>
<rscale>  1 0.30000000E+03</rscale>
<asrwt>0</asrwt>
<pdfrwt beam="1">  1       21 0.92975167E-02 0.30000000E+03</pdfrwt>
<pdfrwt beam="2">0</pdfrwt>
<totfact> 0.97961395E+03</totfact>
</mgrwt>
</event>
<event>
 6    1  0.1295671E-001  0.3000000E+03  0.7818608E-02  0.1093470E+00
         21   -1    0    0  501  502  0.00000000000E+00  0.00000000000E+00  0.24576312937E+01  0.24576312937E+01  0.00000000000E+00 0. -1.
         13   -1    0    0    0    0 -0.00000000000E+00 -0.00000000000E+00 -0.10000000000E+04  0.10000000000E+04  0.00000000000E+00 0.  1.
    9000005    2    1    2  501    0 -0.25817800138E+02 -0.38408425959E+02 -0.67767300050E+03  0.67925772612E+03  0.29320464162E+01 0.  0.
         13    1    3    3    0    0 -0.61185580887E+01 -0.10332253225E+02 -0.16027944799E+03  0.16072863360E+03  0.00000000000E+00 0.  1.
          1    1    3    3  501    0 -0.19699242050E+02 -0.28076172734E+02 -0.51739355251E+03  0.51852909252E+03  0.00000000000E+00 0.  1.
         -3    1    1    2    0  502  0.25817800138E+02  0.38408425959E+02 -0.31986936820E+03  0.32319990517E+03  0.00000000000E+00 0. -1.
<mgrwt>
<rscale>  1 0.30000000E+03</rscale>
<asrwt>0</asrwt>
<pdfrwt beam="1">  1       21 0.89368599E-02 0.30000000E+03</pdfrwt>
<pdfrwt beam="2">0</pdfrwt>
<totfact> 0.10508304E+04</totfact>
</mgrwt>
</event>
<event>
 6    1  0.1295671E-001  0.3000000E+03  0.7818608E-02  0.1093470E+00
         21   -1    0    0  501  502  0.00000000000E+00  0.00000000000E+00  0.29071356311E+01  0.29071356311E+01  0.00000000000E+00 0. -1.
         13   -1    0    0    0    0 -0.00000000000E+00 -0.00000000000E+00 -0.10000000000E+04  0.10000000000E+04  0.00000000000E+00 0.  1.
    9000005    2    1    2  501    0  0.29470372028E+02  0.30018235003E+02 -0.18613422914E+03  0.19085818063E+03  0.33610410708E+01 0.  0.
         13    1    3    3    0    0  0.17483127413E+02  0.19633508500E+02 -0.11148194971E+03  0.11453977261E+03  0.00000000000E+00 0.  1.
          3    1    3    3  501    0  0.11987244615E+02  0.10384726503E+02 -0.74652279434E+02  0.76318408020E+02  0.00000000000E+00 0.  1.
         -1    1    1    2    0  502 -0.29470372028E+02 -0.30018235003E+02 -0.81095863523E+03  0.81204895500E+03  0.00000000000E+00 0. -1.
<mgrwt>
<rscale>  1 0.30000000E+03</rscale>
<asrwt>0</asrwt>
<pdfrwt beam="1">  1       21 0.10571425E-01 0.30000000E+03</pdfrwt>
<pdfrwt beam="2">0</pdfrwt>
<totfact> 0.77886179E+03</totfact>
</mgrwt>
</event>
<event>
 6    1  0.1295671E-001  0.3000000E+03  0.7818608E-02  0.1093470E+00
         21   -1    0    0  501  502  0.00000000000E+00  0.00000000000E+00  0.14082520796E+01  0.14082520796E+01  0.00000000000E+00 0. -1.
         13   -1    0    0    0    0 -0.00000000000E+00 -0.00000000000E+00 -0.10000000000E+04  0.10000000000E+04  0.00000000000E+00 0.  1.
    9000005    2    1    2  501    0 -0.26410617816E+02  0.15138700918E+02 -0.79138353497E+03  0.79197581784E+03  0.33310084190E+01 0.  0.
         13    1    3    3    0    0 -0.12442822108E+02  0.65227269989E+01 -0.40603541352E+03  0.40627838587E+03  0.00000000000E+00 0.  1.
          3    1    3    3  501    0 -0.13967795708E+02  0.86159739194E+01 -0.38534812145E+03  0.38569743197E+03  0.00000000000E+00 0.  1.
         -3    1    1    2    0  502  0.26410617816E+02 -0.15138700918E+02 -0.20720821295E+03  0.20943243424E+03  0.00000000000E+00 0. -1.
<mgrwt>
<rscale>  1 0.30000000E+03</rscale>
<asrwt>0</asrwt>
<pdfrwt beam="1">  1       21 0.51209275E-02 0.30000000E+03</pdfrwt>
<pdfrwt beam="2">0</pdfrwt>
<totfact> 0.27654078E+04</totfact>
</mgrwt>
</event>
<event>
 6    1  0.1295671E-001  0.3000000E+03  0.7818608E-02  0.1093470E+00
         21   -1    0    0  501  502  0.00000000000E+00  0.00000000000E+00  0.12910834194E+01  0.12910834194E+01  0.00000000000E+00 0. -1.
         13   -1    0    0    0    0 -0.00000000000E+00 -0.00000000000E+00 -0.10000000000E+04  0.10000000000E+04  0.00000000000E+00 0.  1.
    9000005    2    1    2  501    0  0.30811265726E+02 -0.76320968905E+01 -0.73291224983E+03  0.73360572511E+03  0.30677290622E+01 0.  0.
         13    1    3    3    0    0  0.16071268391E+02 -0.33740073350E+01 -0.34624815177E+03  0.34663734969E+03  0.00000000000E+00 0.  1.
          1    1    3    3  501    0  0.14739997335E+02 -0.42580895554E+01 -0.38666409806E+03  0.38696837542E+03  0.00000000000E+00 0.  1.
         -3    1    1    2    0  502 -0.30811265726E+02  0.76320968905E+01 -0.26579666675E+03  0.26768535831E+03  0.00000000000E+00 0. -1.
<mgrwt>
<rscale>  1 0.30000000E+03</rscale>
<asrwt>0</asrwt>
<pdfrwt beam="1">  1       21 0.46948587E-02 0.30000000E+03</pdfrwt>
<pdfrwt beam="2">0</pdfrwt>
<totfact> 0.32063944E+04</totfact>
</mgrwt>
</event>
<event>
 6    1  0.1295671E-001  0.3000000E+03  0.7818608E-02  0.1093470E+00
         21   -1    0    0  501  502  0.00000000000E+00  0.00000000000E+00  0.75585924107E+01  0.75585924107E+01  0.00000000000E+00 0. -1.
         13   -1    0    0    0    0 -0.00000000000E+00 -0.00000000000E+00 -0.10000000000E+04  0.10000000000E+04  0.00000000000E+00 0.  1.
    9000005    2    1    2  501    0  0.52835423445E+02 -0.42273356149E+02 -0.81242937850E+03  0.81524907828E+03  0.33084687410E+01 0.  0.
         13    1    3    3    0    0  0.13502307882E+02 -0.94916779129E+01 -0.18643298480E+03  0.18716212781E+03  0.00000000000E+00 0.  1.
          1    1    3    3  501    0  0.39333115563E+02 -0.32781678236E+02 -0.62599639371E+03  0.62808695046E+03  0.00000000000E+00 0.  1.
         -3    1    1    2    0  502 -0.52835423445E+02  0.42273356149E+02 -0.18001202909E+03  0.19230951414E+03  0.00000000000E+00 0. -1.
<mgrwt>
<rscale>  1 0.30000000E+03</rscale>
<asrwt>0</asrwt>
<pdfrwt beam="1">  1       21 0.27485849E-01 0.30000000E+03</pdfrwt>
<pdfrwt beam="2">0</pdfrwt>
<totfact> 0.12940411E+03</totfact>
</mgrwt>
</event>
<event>
 6    1  0.1295671E-001  0.3000000E+03  0.7818608E-02  0.1093470E+00
         21   -1    0    0  501  502  0.00000000000E+00  0.00000000000E+00  0.13719297440E+01  0.13719297440E+01  0.00000000000E+00 0. -1.
         13   -1    0    0    0    0 -0.00000000000E+00 -0.00000000000E+00 -0.10000000000E+04  0.10000000000E+04  0.00000000000E+00 0.  1.
    9000005    2    1    2  501    0  0.30341160403E+01 -0.31701523619E+02 -0.75395889821E+03  0.75463888330E+03  0.34105031563E+01 0.  0.
         13    1    3    3    0    0  0.11805043481E+01 -0.24397692094E+02 -0.55466531888E+03  0.55520289709E+03  0.00000000000E+00 0.  1.
          3    1    3    3  501    0  0.18536116922E+01 -0.73038315258E+01 -0.19929357933E+03  0.19943598621E+03  0.00000000000E+00 0.  1.
         -1    1    1    2    0  502 -0.30341160403E+01  0.31701523619E+02 -0.24466917204E+03  0.24673304645E+03  0.00000000000E+00 0. -1.
<mgrwt>
<rscale>  1 0.30000000E+03</rscale>
<asrwt>0</asrwt>
<pdfrwt beam="1">  1       21 0.49888460E-02 0.30000000E+03</pdfrwt>
<pdfrwt beam="2">0</pdfrwt>
<totfact> 0.28914522E+04</totfact>
</mgrwt>
</event>
<event>
 6    1  0.1295671E-001  0.3000000E+03  0.7818608E-02  0.1093470E+00
         21   -1    0    0  501  502  0.00000000000E+00  0.00000000000E+00  0.13945277164E+01  0.13945277164E+01  0.00000000000E+00 0. -1.
         13   -1    0    0    0    0 -0.00000000000E+00 -0.00000000000E+00 -0.10000000000E+04  0.10000000000E+04  0.00000000000E+00 0.  1.
    9000005    2    1    2  501    0  0.23399933673E+00 -0.37144223588E+02 -0.46403893123E+03  0.46553901089E+03  0.38331266156E+01 0.  0.
         13    1    3    3    0    0  0.15218973195E+00 -0.59172584498E+00 -0.15940610435E+02  0.15952315263E+02  0.00000000000E+00 0.  1.
          3    1    3    3  501    0  0.81809604779E-01 -0.36552497743E+02 -0.44809832079E+03  0.44958669562E+03  0.00000000000E+00 0.  1.
         -1    1    1    2    0  502 -0.23399933673E+00  0.37144223588E+02 -0.53456654105E+03  0.53585551683E+03  0.00000000000E+00 0. -1.
<mgrwt>
<rscale>  1 0.30000000E+03</rscale>
<asrwt>0</asrwt>
<pdfrwt beam="1">  1       21 0.50710206E-02 0.30000000E+03</pdfrwt>
<pdfrwt beam="2">0</pdfrwt>
<totfact> 0.28120103E+04</totfact>
</mgrwt>
</event>
<event>
 6    1  0.1295671E-001  0.3000000E+03  0.7818608E-02  0.1093470E+00
         21   -1    0    0  501  502  0.00000000000E+00  0.00000000000E+00  0.33926398832E+01  0.33926398832E+01  0.00000000000E+00 0. -1.
         13   -1    0    0    0    0 -0.00000000000E+00 -0.00000000000E+00 -0.10000000000E+04  0.10000000000E+04  0.00000000000E+00 0.  1.
    9000005    2    1    2  501    0 -0.20528960383E+02 -0.37104280624E+02 -0.84205258284E+03  0.84312615857E+03  0.33167957699E+01 0.  0.
         13    1    3    3    0    0 -0.12081769617E+02 -0.25021433366E+02 -0.54344692817E+03  0.54415678349E+03  0.00000000000E+00 0.  1.
          3    1    3    3  501    0 -0.84471907657E+01 -0.12082847258E+02 -0.29860565467E+03  0.29896937507E+03  0.00000000000E+00 0.  1.
         -1    1    1    2    0  502  0.20528960383E+02  0.37104280624E+02 -0.15455477727E+03  0.16026648132E+03  0.00000000000E+00 0. -1.
<mgrwt>
<rscale>  1 0.30000000E+03</rscale>
<asrwt>0</asrwt>
<pdfrwt beam="1">  1       21 0.12336898E-01 0.30000000E+03</pdfrwt>
<pdfrwt beam="2">0</pdfrwt>
<totfact> 0.58929372E+03</totfact>
</mgrwt>
</event>
<event>
 6    1  0.1295671E-001  0.3000000E+03  0.7818608E-02  0.1093470E+00
         21   -1    0    0  501  502  0.00000000000E+00  0.00000000000E+00  0.99639488711E+00  0.99639488711E+00  0.00000000000E+00 0. -1.
         13   -1    0    0    0    0 -0.00000000000E+00 -0.00000000000E+00 -0.10000000000E+04  0.10000000000E+04  0.00000000000E+00 0.  1.
    9000005    2    1    2  501    0 -0.13493304252E+02  0.28255176501E+02 -0.55375931900E+03  0.55465247080E+03  0.30912327192E+01 0.  0.
         13    1    3    3    0    0 -0.99868762342E+01  0.23434438278E+02 -0.45779048935E+03  0.45849868346E+03  0.00000000000E+00 0.  1.
          3    1    3    3  501    0 -0.35064280182E+01  0.48207382224E+01 -0.95968829648E+02  0.96153787333E+02  0.00000000000E+00 0.  1.
         -1    1    1    2    0  502  0.13493304252E+02 -0.28255176501E+02 -0.44524428611E+03  0.44634392409E+03  0.00000000000E+00 0. -1.
<mgrwt>
<rscale>  1 0.30000000E+03</rscale>
<asrwt>0</asrwt>
<pdfrwt beam="1">  1       21 0.36232618E-02 0.30000000E+03</pdfrwt>
<pdfrwt beam="2">0</pdfrwt>
<totfact> 0.49651072E+04</totfact>
</mgrwt>
</event>
<event>
 6    1  0.1295671E-001  0.3000000E+03  0.7818608E-02  0.1093470E+00
         21   -1    0    0  501  502  0.00000000000E+00  0.00000000000E+00  0.31046217848E+01  0.31046217848E+01  0.00000000000E+00 0. -1.
         13   -1    0    0    0    0 -0.00000000000E+00 -0.00000000000E+00 -0.10000000000E+04  0.10000000000E+04  0.00000000000E+00 0.  1.
    9000005    2    1    2  501    0 -0.16963961668E+02 -0.34697967181E+02 -0.85976790972E+03  0.86064175807E+03  0.34135358650E+01 0.  0.
         13    1    3    3    0    0 -0.29874197548E+01 -0.95014741655E+01 -0.22031297615E+03  0.22053800159E+03  0.00000000000E+00 0.  1.
          1    1    3    3  501    0 -0.13976541913E+02 -0.25196493015E+02 -0.63945493358E+03  0.64010375648E+03  0.00000000000E+00 0.  1.
         -3    1    1    2    0  502  0.16963961668E+02  0.34697967181E+02 -0.13712746849E+03  0.14246286371E+03  0.00000000000E+00 0. -1.
<mgrwt>
<rscale>  1 0.30000000E+03</rscale>
<asrwt>0</asrwt>
<pdfrwt beam="1">  1       21 0.11289558E-01 0.30000000E+03</pdfrwt>
<pdfrwt beam="2">0</pdfrwt>
<totfact> 0.69204446E+03</totfact>
</mgrwt>
</event>
<event>
 6    1  0.1295671E-001  0.3000000E+03  0.7818608E-02  0.1093470E+00
         21   -1    0    0  501  502  0.00000000000E+00  0.00000000000E+00  0.31814416376E+01  0.31814416376E+01  0.00000000000E+00 0. -1.
         13   -1    0    0    0    0 -0.00000000000E+00 -0.00000000000E+00 -0.10000000000E+04  0.10000000000E+04  0.00000000000E+00 0.  1.
    9000005    2    1    2  501    0  0.48603055509E+02 -0.20971355172E+02 -0.67086935422E+03  0.67296191099E+03  0.31604531385E+01 0.  0.
         13    1    3    3    0    0  0.23962009994E+02 -0.10342697487E+02 -0.31073061721E+03  0.31182473569E+03  0.00000000000E+00 0.  1.
          1    1    3    3  501    0  0.24641045515E+02 -0.10628657685E+02 -0.36013873701E+03  0.36113717530E+03  0.00000000000E+00 0.  1.
         -3    1    1    2    0  502 -0.48603055509E+02  0.20971355172E+02 -0.32594920414E+03  0.33021953065E+03  0.00000000000E+00 0. -1.
<mgrwt>
<rscale>  1 0.30000000E+03</rscale>
<asrwt>0</asrwt>
<pdfrwt beam="1">  1       21 0.11568903E-01 0.30000000E+03</pdfrwt>
<pdfrwt beam="2">0</pdfrwt>
<totfact> 0.66216840E+03</totfact>
</mgrwt>
</event>
<event>
 6    1  0.1295671E-001  0.3000000E+03  0.7818608E-02  0.1093470E+00
         21   -1    0    0  501  502  0.00000000000E+00  0.00000000000E+00  0.94125989937E+01  0.94125989937E+01  0.00000000000E+00 0. -1.
         13   -1    0    0    0    0 -0.00000000000E+00 -0.00000000000E+00 -0.10000000000E+04  0.10000000000E+04  0.00000000000E+00 0.  1.
    9000005    2    1    2  501    0 -0.36932533014E+02 -0.37053398227E+02 -0.92031168708E+03  0.92180185603E+03  0.28450111082E+01 0.  0.
         13    1    3    3    0    0 -0.30423202409E+02 -0.31171377741E+02 -0.74839735462E+03  0.74966380894E+03  0.00000000000E+00 0.  1.
          1    1    3    3  501    0 -0.65093306047E+01 -0.58820204857E+01 -0.17191433246E+03  0.17213804708E+03  0.00000000000E+00 0.  1.
         -1    1    1    2    0  502  0.36932533014E+02  0.37053398227E+02 -0.70275713928E+02  0.87610742966E+02  0.00000000000E+00 0. -1.
<mgrwt>
<rscale>  1 0.30000000E+03</rscale>
<asrwt>0</asrwt>
<pdfrwt beam="1">  1       21 0.34227705E-01 0.30000000E+03</pdfrwt>
<pdfrwt beam="2">0</pdfrwt>
<totfact> 0.83290616E+02</totfact>
</mgrwt>
</event>
<event>
 6    1  0.1295671E-001  0.3000000E+03  0.7818608E-02  0.1093470E+00
         21   -1    0    0  501  502  0.00000000000E+00  0.00000000000E+00  0.28373736364E+01  0.28373736364E+01  0.00000000000E+00 0. -1.
         13   -1    0    0    0    0 -0.00000000000E+00 -0.00000000000E+00 -0.10000000000E+04  0.10000000000E+04  0.00000000000E+00 0.  1.
    9000005    2    1    2  501    0 -0.21147529084E+02  0.23504372633E+02 -0.90196182831E+03  0.90252353875E+03  0.37315885226E+01 0.  0.
         13    1    3    3    0    0 -0.15032966145E+02  0.18762214307E+02 -0.70474875232E+03  0.70515871593E+03  0.00000000000E+00 0.  1.
          1    1    3    3  501    0 -0.61145629391E+01  0.47421583267E+01 -0.19721307599E+03  0.19736482282E+03  0.00000000000E+00 0.  1.
         -1    1    1    2    0  502  0.21147529084E+02 -0.23504372633E+02 -0.95200798052E+02  0.10031383488E+03  0.00000000000E+00 0. -1.
<mgrwt>
<rscale>  1 0.30000000E+03</rscale>
<asrwt>0</asrwt>
<pdfrwt beam="1">  1       21 0.10317744E-01 0.30000000E+03</pdfrwt>
<pdfrwt beam="2">0</pdfrwt>
<totfact> 0.81350947E+03</totfact>
</mgrwt>
</event>
<event>
 6    1  0.1295671E-001  0.3000000E+03  0.7818608E-02  0.1093470E+00
         21   -1    0    0  501  502  0.00000000000E+00  0.00000000000E+00  0.19072953754E+01  0.19072953754E+01  0.00000000000E+00 0. -1.
         13   -1    0    0    0    0 -0.00000000000E+00 -0.00000000000E+00 -0.10000000000E+04  0.10000000000E+04  0.00000000000E+00 0.  1.
    9000005    2    1    2  501    0 -0.41678949538E+01  0.35117469900E+02 -0.79216819186E+03  0.79296827796E+03  0.41997164304E+01 0.  0.
         13    1    3    3    0    0  0.61662908775E+00  0.21733139116E+01 -0.39956333967E+02  0.40020146788E+02  0.00000000000E+00 0.  1.
          1    1    3    3  501    0 -0.47845240416E+01  0.32944155988E+02 -0.75221185789E+03  0.75294813117E+03  0.00000000000E+00 0.  1.
         -3    1    1    2    0  502  0.41678949538E+01 -0.35117469900E+02 -0.20592451276E+03  0.20893901741E+03  0.00000000000E+00 0. -1.
<mgrwt>
<rscale>  1 0.30000000E+03</rscale>
<asrwt>0</asrwt>
<pdfrwt beam="1">  1       21 0.69356342E-02 0.30000000E+03</pdfrwt>
<pdfrwt beam="2">0</pdfrwt>
<totfact> 0.16396686E+04</totfact>
</mgrwt>
</event>
<event>
 6    1  0.1295671E-001  0.3000000E+03  0.7818608E-02  0.1093470E+00
         21   -1    0    0  501  502  0.00000000000E+00  0.00000000000E+00  0.13883932040E+01  0.13883932040E+01  0.00000000000E+00 0. -1.
         13   -1    0    0    0    0 -0.00000000000E+00 -0.00000000000E+00 -0.10000000000E+04  0.10000000000E+04  0.00000000000E+00 0.  1.
    9000005    2    1    2  501    0 -0.29841799415E+02  0.82777414680E+01 -0.77662562660E+03  0.77725265442E+03  0.39078020177E+01 0.  0.
         13    1    3    3    0    0 -0.15111554328E+02  0.57136617619E+01 -0.43533313105E+03  0.43563280409E+03  0.00000000000E+00 0.  1.
          1    1    3    3  501    0 -0.14730245087E+02  0.25640797061E+01 -0.34129249555E+03  0.34161985034E+03  0.00000000000E+00 0.  1.
         -3    1    1    2    0  502  0.29841799415E+02 -0.82777414680E+01 -0.22198598019E+03  0.22413573878E+03  0.00000000000E+00 0. -1.
<mgrwt>
<rscale>  1 0.30000000E+03</rscale>
<asrwt>0</asrwt>
<pdfrwt beam="1">  1       21 0.50487132E-02 0.30000000E+03</pdfrwt>
<pdfrwt beam="2">0</pdfrwt>
<totfact> 0.28332367E+04</totfact>
</mgrwt>
</event>
<event>
 6    1  0.1295671E-001  0.3000000E+03  0.7818608E-02  0.1093470E+00
         21   -1    0    0  501  502  0.00000000000E+00  0.00000000000E+00  0.35639630276E+01  0.35639630276E+01  0.00000000000E+00 0. -1.
         13   -1    0    0    0    0 -0.00000000000E+00 -0.00000000000E+00 -0.10000000000E+04  0.10000000000E+04  0.00000000000E+00 0.  1.
    9000005    2    1    2  501    0 -0.35400507388E+01  0.34646545938E+02 -0.90568609217E+03  0.90636073475E+03  0.30933564392E+01 0.  0.
         13    1    3    3    0    0 -0.40259206720E+00  0.95482803630E+01 -0.28229195551E+03  0.28245367741E+03  0.00000000000E+00 0.  1.
          1    1    3    3  501    0 -0.31374586716E+01  0.25098265575E+02 -0.62339413666E+03  0.62390705734E+03  0.00000000000E+00 0.  1.
         -3    1    1    2    0  502  0.35400507388E+01 -0.34646545938E+02 -0.90749944806E+02  0.97203228274E+02  0.00000000000E+00 0. -1.
<mgrwt>
<rscale>  1 0.30000000E+03</rscale>
<asrwt>0</asrwt>
<pdfrwt beam="1">  1       21 0.12959893E-01 0.30000000E+03</pdfrwt>
<pdfrwt beam="2">0</pdfrwt>
<totfact> 0.53868314E+03</totfact>
</mgrwt>
</event>
<event>
 6    1  0.1295671E-001  0.3000000E+03  0.7818608E-02  0.1093470E+00
         21   -1    0    0  501  502  0.00000000000E+00  0.00000000000E+00  0.22183468018E+01  0.22183468018E+01  0.00000000000E+00 0. -1.
         13   -1    0    0    0    0 -0.00000000000E+00 -0.00000000000E+00 -0.10000000000E+04  0.10000000000E+04  0.00000000000E+00 0.  1.
    9000005    2    1    2  501    0  0.13653703079E+02  0.29724650435E+02 -0.85839623857E+03  0.85904616981E+03  0.68000762130E+01 0.  0.
         13    1    3    3    0    0  0.15832179192E+01  0.44516132117E+01 -0.74439063196E+02  0.74588856867E+02  0.00000000000E+00 0.  1.
          1    1    3    3  501    0  0.12070485160E+02  0.25273037223E+02 -0.78395717537E+03  0.78445731295E+03  0.00000000000E+00 0.  1.
         -3    1    1    2    0  502 -0.13653703079E+02 -0.29724650435E+02 -0.13938541463E+03  0.14317217699E+03  0.00000000000E+00 0. -1.
<mgrwt>
<rscale>  1 0.30000000E+03</rscale>
<asrwt>0</asrwt>
<pdfrwt beam="1">  1       21 0.80667327E-02 0.30000000E+03</pdfrwt>
<pdfrwt beam="2">0</pdfrwt>
<totfact> 0.12588796E+04</totfact>
</mgrwt>
</event>
<event>
 6    1  0.1295671E-001  0.3000000E+03  0.7818608E-02  0.1093470E+00
         21   -1    0    0  501  502  0.00000000000E+00  0.00000000000E+00  0.10780614319E+01  0.10780614319E+01  0.00000000000E+00 0. -1.
         13   -1    0    0    0    0 -0.00000000000E+00 -0.00000000000E+00 -0.10000000000E+04  0.10000000000E+04  0.00000000000E+00 0.  1.
    9000005    2    1    2  501    0  0.18993220818E+02 -0.26627875292E+02 -0.46330795240E+03  0.46446635046E+03  0.22239081656E+01 0.  0.
         13    1    3    3    0    0  0.92738790946E+01 -0.13658809652E+02 -0.21899253066E+03  0.21961397132E+03  0.00000000000E+00 0.  1.
          3    1    3    3  501    0  0.97193417238E+01 -0.12969065640E+02 -0.24431542174E+03  0.24485237913E+03  0.00000000000E+00 0.  1.
         -3    1    1    2    0  502 -0.18993220818E+02  0.26627875292E+02 -0.53561398617E+03  0.53661171098E+03  0.00000000000E+00 0. -1.
<mgrwt>
<rscale>  1 0.30000000E+03</rscale>
<asrwt>0</asrwt>
<pdfrwt beam="1">  1       21 0.39202317E-02 0.30000000E+03</pdfrwt>
<pdfrwt beam="2">0</pdfrwt>
<totfact> 0.43497414E+04</totfact>
</mgrwt>
</event>
<event>
 6    1  0.1295671E-001  0.3000000E+03  0.7818608E-02  0.1093470E+00
         21   -1    0    0  501  502  0.00000000000E+00  0.00000000000E+00  0.16319286101E+01  0.16319286101E+01  0.00000000000E+00 0. -1.
         13   -1    0    0    0    0 -0.00000000000E+00 -0.00000000000E+00 -0.10000000000E+04  0.10000000000E+04  0.00000000000E+00 0.  1.
    9000005    2    1    2  501    0  0.38775440267E+02 -0.10024168718E+02 -0.44113617584E+03  0.44296261305E+03  0.32760039623E+01 0.  0.
         13    1    3    3    0    0  0.23746187119E+02 -0.57245462830E+01 -0.28574352529E+03  0.28678565878E+03  0.00000000000E+00 0.  1.
          1    1    3    3  501    0  0.15029253148E+02 -0.42996224353E+01 -0.15539265055E+03  0.15617695428E+03  0.00000000000E+00 0.  1.
         -3    1    1    2    0  502 -0.38775440267E+02  0.10024168718E+02 -0.55723189555E+03  0.55866931556E+03  0.00000000000E+00 0. -1.
<mgrwt>
<rscale>  1 0.30000000E+03</rscale>
<asrwt>0</asrwt>
<pdfrwt beam="1">  1       21 0.59342984E-02 0.30000000E+03</pdfrwt>
<pdfrwt beam="2">0</pdfrwt>
<totfact> 0.21475541E+04</totfact>
</mgrwt>
</event>
<event>
 6    1  0.1295671E-001  0.3000000E+03  0.7818608E-02  0.1093470E+00
         21   -1    0    0  501  502  0.00000000000E+00  0.00000000000E+00  0.99353548965E+00  0.99353548965E+00  0.00000000000E+00 0. -1.
         13   -1    0    0    0    0 -0.00000000000E+00 -0.00000000000E+00 -0.10000000000E+04  0.10000000000E+04  0.00000000000E+00 0.  1.
    9000005    2    1    2  501    0  0.29597189869E+02 -0.78959645401E+01 -0.61295854180E+03  0.61373220443E+03  0.32718322595E+01 0.  0.
         13    1    3    3    0    0  0.19294883555E+02 -0.41632218778E+01 -0.41835775873E+03  0.41882315987E+03  0.00000000000E+00 0.  1.
          3    1    3    3  501    0  0.10302306314E+02 -0.37327426623E+01 -0.19460078307E+03  0.19490904457E+03  0.00000000000E+00 0.  1.
         -3    1    1    2    0  502 -0.29597189869E+02  0.78959645401E+01 -0.38604792271E+03  0.38726133106E+03  0.00000000000E+00 0. -1.
<mgrwt>
<rscale>  1 0.30000000E+03</rscale>
<asrwt>0</asrwt>
<pdfrwt beam="1">  1       21 0.36128639E-02 0.30000000E+03</pdfrwt>
<pdfrwt beam="2">0</pdfrwt>
<totfact> 0.49890973E+04</totfact>
</mgrwt>
</event>
<event>
 6    1  0.1295671E-001  0.3000000E+03  0.7818608E-02  0.1093470E+00
         21   -1    0    0  501  502  0.00000000000E+00  0.00000000000E+00  0.20867537737E+01  0.20867537737E+01  0.00000000000E+00 0. -1.
         13   -1    0    0    0    0 -0.00000000000E+00 -0.00000000000E+00 -0.10000000000E+04  0.10000000000E+04  0.00000000000E+00 0.  1.
    9000005    2    1    2  501    0 -0.32808333435E+02  0.79026007933E+01 -0.83642154366E+03  0.83710673122E+03  0.28005219241E+01 0.  0.
         13    1    3    3    0    0 -0.95951147476E+01  0.29172658955E+01 -0.22120695640E+03  0.22143417584E+03  0.00000000000E+00 0.  1.
          1    1    3    3  501    0 -0.23213218688E+02  0.49853348979E+01 -0.61521458725E+03  0.61567255539E+03  0.00000000000E+00 0.  1.
         -1    1    1    2    0  502  0.32808333435E+02 -0.79026007933E+01 -0.16149170257E+03  0.16498002255E+03  0.00000000000E+00 0. -1.
<mgrwt>
<rscale>  1 0.30000000E+03</rscale>
<asrwt>0</asrwt>
<pdfrwt beam="1">  1       21 0.75882115E-02 0.30000000E+03</pdfrwt>
<pdfrwt beam="2">0</pdfrwt>
<totfact> 0.14014516E+04</totfact>
</mgrwt>
</event>
<event>
 6    1  0.1295671E-001  0.3000000E+03  0.7818608E-02  0.1093470E+00
         21   -1    0    0  501  502  0.00000000000E+00  0.00000000000E+00  0.10736913473E+02  0.10736913473E+02  0.00000000000E+00 0. -1.
         13   -1    0    0    0    0 -0.00000000000E+00 -0.00000000000E+00 -0.10000000000E+04  0.10000000000E+04  0.00000000000E+00 0.  1.
    9000005    2    1    2  501    0  0.22389280396E+02  0.26228523268E+02 -0.97118512912E+03  0.97180071112E+03  0.26175948280E+01 0.  0.
         13    1    3    3    0    0  0.92024016051E+01  0.12398794806E+02 -0.45571247156E+03  0.45597398066E+03  0.00000000000E+00 0.  1.
          3    1    3    3  501    0  0.13186878791E+02  0.13829728461E+02 -0.51547265756E+03  0.51582673046E+03  0.00000000000E+00 0.  1.
         -1    1    1    2    0  502 -0.22389280396E+02 -0.26228523268E+02 -0.18077957406E+02  0.38936202350E+02  0.00000000000E+00 0. -1.
<mgrwt>
<rscale>  1 0.30000000E+03</rscale>
<asrwt>0</asrwt>
<pdfrwt beam="1">  1       21 0.39043404E-01 0.30000000E+03</pdfrwt>
<pdfrwt beam="2">0</pdfrwt>
<totfact> 0.63525632E+02</totfact>
</mgrwt>
</event>
<event>
 6    1  0.1295671E-001  0.3000000E+03  0.7818608E-02  0.1093470E+00
         21   -1    0    0  501  502  0.00000000000E+00  0.00000000000E+00  0.25263440092E+01  0.25263440092E+01  0.00000000000E+00 0. -1.
         13   -1    0    0    0    0 -0.00000000000E+00 -0.00000000000E+00 -0.10000000000E+04  0.10000000000E+04  0.00000000000E+00 0.  1.
    9000005    2    1    2  501    0 -0.40492295065E+02  0.86378362473E+01 -0.78251227169E+03  0.78361395305E+03  0.33367492226E+01 0.  0.
         13    1    3    3    0    0 -0.15707066458E+02  0.48823706320E+01 -0.29789564079E+03  0.29834939631E+03  0.00000000000E+00 0.  1.
          3    1    3    3  501    0 -0.24785228607E+02  0.37554656153E+01 -0.48461663091E+03  0.48526455674E+03  0.00000000000E+00 0.  1.
         -1    1    1    2    0  502  0.40492295065E+02 -0.86378362473E+01 -0.21496138430E+03  0.21891239096E+03  0.00000000000E+00 0. -1.
<mgrwt>
<rscale>  1 0.30000000E+03</rscale>
<asrwt>0</asrwt>
<pdfrwt beam="1">  1       21 0.91867249E-02 0.30000000E+03</pdfrwt>
<pdfrwt beam="2">0</pdfrwt>
<totfact> 0.10006961E+04</totfact>
</mgrwt>
</event>
<event>
 6    1  0.1295671E-001  0.3000000E+03  0.7818608E-02  0.1093470E+00
         21   -1    0    0  501  502  0.00000000000E+00  0.00000000000E+00  0.19825026041E+01  0.19825026041E+01  0.00000000000E+00 0. -1.
         13   -1    0    0    0    0 -0.00000000000E+00 -0.00000000000E+00 -0.10000000000E+04  0.10000000000E+04  0.00000000000E+00 0.  1.
    9000005    2    1    2  501    0 -0.29840506295E+02  0.18101564713E+02 -0.80865451240E+03  0.80943000964E+03  0.60578557378E+01 0.  0.
         13    1    3    3    0    0 -0.65033028128E+01  0.22355205220E+01 -0.20674094433E+03  0.20685528411E+03  0.00000000000E+00 0.  1.
          3    1    3    3  501    0 -0.23337203483E+02  0.15866044191E+02 -0.60191356807E+03  0.60257472553E+03  0.00000000000E+00 0.  1.
         -1    1    1    2    0  502  0.29840506295E+02 -0.18101564713E+02 -0.18936298500E+03  0.19255249297E+03  0.00000000000E+00 0. -1.
<mgrwt>
<rscale>  1 0.30000000E+03</rscale>
<asrwt>0</asrwt>
<pdfrwt beam="1">  1       21 0.72091156E-02 0.30000000E+03</pdfrwt>
<pdfrwt beam="2">0</pdfrwt>
<totfact> 0.15328540E+04</totfact>
</mgrwt>
</event>
<event>
 6    1  0.1295671E-001  0.3000000E+03  0.7818608E-02  0.1093470E+00
         21   -1    0    0  501  502  0.00000000000E+00  0.00000000000E+00  0.15412265840E+01  0.15412265840E+01  0.00000000000E+00 0. -1.
         13   -1    0    0    0    0 -0.00000000000E+00 -0.00000000000E+00 -0.10000000000E+04  0.10000000000E+04  0.00000000000E+00 0.  1.
    9000005    2    1    2  501    0  0.91859029359E+01 -0.35258259453E+02 -0.68428650435E+03  0.68526327869E+03  0.31961565063E+01 0.  0.
         13    1    3    3    0    0  0.60528436912E+01 -0.17875656603E+02 -0.33747455502E+03  0.33800185103E+03  0.00000000000E+00 0.  1.
          1    1    3    3  501    0  0.31330592446E+01 -0.17382602850E+02 -0.34681194933E+03  0.34726142766E+03  0.00000000000E+00 0.  1.
         -1    1    1    2    0  502 -0.91859029359E+01  0.35258259453E+02 -0.31417226906E+03  0.31627794789E+03  0.00000000000E+00 0. -1.
<mgrwt>
<rscale>  1 0.30000000E+03</rscale>
<asrwt>0</asrwt>
<pdfrwt beam="1">  1       21 0.56044721E-02 0.30000000E+03</pdfrwt>
<pdfrwt beam="2">0</pdfrwt>
<totfact> 0.23696558E+04</totfact>
</mgrwt>
</event>
<event>
 6    1  0.1295671E-001  0.3000000E+03  0.7818608E-02  0.1093470E+00
         21   -1    0    0  501  502  0.00000000000E+00  0.00000000000E+00  0.18851785522E+01  0.18851785522E+01  0.00000000000E+00 0. -1.
         13   -1    0    0    0    0 -0.00000000000E+00 -0.00000000000E+00 -0.10000000000E+04  0.10000000000E+04  0.00000000000E+00 0.  1.
    9000005    2    1    2  501    0 -0.14067525833E+02 -0.38659230584E+02 -0.34563210562E+03  0.34810683244E+03  0.49379108036E+01 0.  0.
         13    1    3    3    0    0 -0.48460499109E+01 -0.84801493416E+01 -0.92999540188E+02  0.93511023990E+02  0.00000000000E+00 0.  1.
          3    1    3    3  501    0 -0.92214759223E+01 -0.30179081242E+02 -0.25263256544E+03  0.25459580845E+03  0.00000000000E+00 0.  1.
         -1    1    1    2    0  502  0.14067525833E+02  0.38659230584E+02 -0.65248271582E+03  0.65377834611E+03  0.00000000000E+00 0. -1.
<mgrwt>
<rscale>  1 0.30000000E+03</rscale>
<asrwt>0</asrwt>
<pdfrwt beam="1">  1       21 0.68552092E-02 0.30000000E+03</pdfrwt>
<pdfrwt beam="2">0</pdfrwt>
<totfact> 0.16732517E+04</totfact>
</mgrwt>
</event>
<event>
 6    1  0.1295671E-001  0.3000000E+03  0.7818608E-02  0.1093470E+00
         21   -1    0    0  501  502  0.00000000000E+00  0.00000000000E+00  0.23399637826E+01  0.23399637826E+01  0.00000000000E+00 0. -1.
         13   -1    0    0    0    0 -0.00000000000E+00 -0.00000000000E+00 -0.10000000000E+04  0.10000000000E+04  0.00000000000E+00 0.  1.
    9000005    2    1    2  501    0  0.35826046746E+02  0.28068617066E+02 -0.34593652993E+03  0.34902925552E+03  0.88309442293E+01 0.  0.
         13    1    3    3    0    0  0.50999810045E+01  0.85605993619E+01 -0.75051138397E+02  0.75709755266E+02  0.00000000000E+00 0.  1.
          3    1    3    3  501    0  0.30726065741E+02  0.19508017704E+02 -0.27088539153E+03  0.27331950025E+03  0.00000000000E+00 0.  1.
         -1    1    1    2    0  502 -0.35826046746E+02 -0.28068617066E+02 -0.65172350629E+03  0.65331070827E+03  0.00000000000E+00 0. -1.
<mgrwt>
<rscale>  1 0.30000000E+03</rscale>
<asrwt>0</asrwt>
<pdfrwt beam="1">  1       21 0.85089772E-02 0.30000000E+03</pdfrwt>
<pdfrwt beam="2">0</pdfrwt>
<totfact> 0.11459910E+04</totfact>
</mgrwt>
</event>
<event>
 6    1  0.1295671E-001  0.3000000E+03  0.7818608E-02  0.1093470E+00
         21   -1    0    0  501  502  0.00000000000E+00  0.00000000000E+00  0.24049994493E+01  0.24049994493E+01  0.00000000000E+00 0. -1.
         13   -1    0    0    0    0 -0.00000000000E+00 -0.00000000000E+00 -0.10000000000E+04  0.10000000000E+04  0.00000000000E+00 0.  1.
    9000005    2    1    2  501    0  0.32875981174E+02 -0.33419712139E+02 -0.64455360248E+03  0.64626466749E+03  0.33115972365E+01 0.  0.
         13    1    3    3    0    0  0.15362489748E+01 -0.18698338966E+01 -0.44290337230E+02  0.44356401023E+02  0.00000000000E+00 0.  1.
          1    1    3    3  501    0  0.31339732199E+02 -0.31549878242E+02 -0.60026326525E+03  0.60190826646E+03  0.00000000000E+00 0.  1.
         -1    1    1    2    0  502 -0.32875981174E+02  0.33419712139E+02 -0.35304139807E+03  0.35614033196E+03  0.00000000000E+00 0. -1.
<mgrwt>
<rscale>  1 0.30000000E+03</rscale>
<asrwt>0</asrwt>
<pdfrwt beam="1">  1       21 0.87454710E-02 0.30000000E+03</pdfrwt>
<pdfrwt beam="2">0</pdfrwt>
<totfact> 0.10918505E+04</totfact>
</mgrwt>
</event>
<event>
 6    1  0.1295671E-001  0.3000000E+03  0.7818608E-02  0.1093470E+00
         21   -1    0    0  501  502  0.00000000000E+00  0.00000000000E+00  0.60038235433E+01  0.60038235433E+01  0.00000000000E+00 0. -1.
         13   -1    0    0    0    0 -0.00000000000E+00 -0.00000000000E+00 -0.10000000000E+04  0.10000000000E+04  0.00000000000E+00 0.  1.
    9000005    2    1    2  501    0  0.39862045738E+02 -0.55946056268E+02 -0.72942584473E+03  0.73266080766E+03  0.32942704884E+01 0.  0.
         13    1    3    3    0    0  0.35571776237E+02 -0.48667778841E+02 -0.64792960270E+03  0.65072780332E+03  0.00000000000E+00 0.  1.
          1    1    3    3  501    0  0.42902695014E+01 -0.72782774268E+01 -0.81496242028E+02  0.81933004336E+02  0.00000000000E+00 0.  1.
         -3    1    1    2    0  502 -0.39862045738E+02  0.55946056268E+02 -0.26457033173E+03  0.27334301589E+03  0.00000000000E+00 0. -1.
<mgrwt>
<rscale>  1 0.30000000E+03</rscale>
<asrwt>0</asrwt>
<pdfrwt beam="1">  1       21 0.21832132E-01 0.30000000E+03</pdfrwt>
<pdfrwt beam="2">0</pdfrwt>
<totfact> 0.20282747E+03</totfact>
</mgrwt>
</event>
<event>
 6    1  0.1295671E-001  0.3000000E+03  0.7818608E-02  0.1093470E+00
         21   -1    0    0  501  502  0.00000000000E+00  0.00000000000E+00  0.20672200146E+01  0.20672200146E+01  0.00000000000E+00 0. -1.
         13   -1    0    0    0    0 -0.00000000000E+00 -0.00000000000E+00 -0.10000000000E+04  0.10000000000E+04  0.00000000000E+00 0.  1.
    9000005    2    1    2  501    0  0.35191469070E+02  0.12724358387E+02 -0.21870190971E+03  0.22193832171E+03  0.50739075337E+01 0.  0.
         13    1    3    3    0    0  0.33773543419E+02  0.11016227720E+02 -0.20739780345E+03  0.21041829384E+03  0.00000000000E+00 0.  1.
          1    1    3    3  501    0  0.14179256509E+01  0.17081306674E+01 -0.11304106264E+02  0.11520027862E+02  0.00000000000E+00 0.  1.
         -3    1    1    2    0  502 -0.35191469070E+02 -0.12724358387E+02 -0.77923087027E+03  0.78012889831E+03  0.00000000000E+00 0. -1.
<mgrwt>
<rscale>  1 0.30000000E+03</rscale>
<asrwt>0</asrwt>
<pdfrwt beam="1">  1       21 0.75171795E-02 0.30000000E+03</pdfrwt>
<pdfrwt beam="2">0</pdfrwt>
<totfact> 0.14247272E+04</totfact>
</mgrwt>
</event>
<event>
 6    1  0.1295671E-001  0.3000000E+03  0.7818608E-02  0.1093470E+00
         21   -1    0    0  501  502  0.00000000000E+00  0.00000000000E+00  0.21490112004E+01  0.21490112004E+01  0.00000000000E+00 0. -1.
         13   -1    0    0    0    0 -0.00000000000E+00 -0.00000000000E+00 -0.10000000000E+04  0.10000000000E+04  0.00000000000E+00 0.  1.
    9000005    2    1    2  501    0  0.43593081762E+02  0.13258404723E+02 -0.41060649454E+03  0.41313947128E+03  0.32229337076E+01 0.  0.
         13    1    3    3    0    0  0.29165012192E+02  0.10367764239E+02 -0.28245795822E+03  0.28414888111E+03  0.00000000000E+00 0.  1.
          1    1    3    3  501    0  0.14428069571E+02  0.28906404845E+01 -0.12814853631E+03  0.12899059017E+03  0.00000000000E+00 0.  1.
         -1    1    1    2    0  502 -0.43593081762E+02 -0.13258404723E+02 -0.58724449426E+03  0.58900953992E+03  0.00000000000E+00 0. -1.
<mgrwt>
<rscale>  1 0.30000000E+03</rscale>
<asrwt>0</asrwt>
<pdfrwt beam="1">  1       21 0.78146027E-02 0.30000000E+03</pdfrwt>
<pdfrwt beam="2">0</pdfrwt>
<totfact> 0.13310584E+04</totfact>
</mgrwt>
</event>
<event>
 6    1  0.1295671E-001  0.3000000E+03  0.7818608E-02  0.1093470E+00
         21   -1    0    0  501  502  0.00000000000E+00  0.00000000000E+00  0.27201890582E+01  0.27201890582E+01  0.00000000000E+00 0. -1.
         13   -1    0    0    0    0 -0.00000000000E+00 -0.00000000000E+00 -0.10000000000E+04  0.10000000000E+04  0.00000000000E+00 0.  1.
    9000005    2    1    2  501    0 -0.33786546857E+02 -0.17880172974E+02 -0.83948613197E+03  0.84036232366E+03  0.32615821934E+01 0.  0.
         13    1    3    3    0    0 -0.32342545275E+02 -0.17710710886E+02 -0.81396691063E+03  0.81480171889E+03  0.00000000000E+00 0.  1.
          3    1    3    3  501    0 -0.14440015822E+01 -0.16946208827E+00 -0.25519221342E+02  0.25560604763E+02  0.00000000000E+00 0.  1.
         -3    1    1    2    0  502  0.33786546857E+02  0.17880172974E+02 -0.15779367897E+03  0.16235786540E+03  0.00000000000E+00 0. -1.
<mgrwt>
<rscale>  1 0.30000000E+03</rscale>
<asrwt>0</asrwt>
<pdfrwt beam="1">  1       21 0.98916174E-02 0.30000000E+03</pdfrwt>
<pdfrwt beam="2">0</pdfrwt>
<totfact> 0.87723053E+03</totfact>
</mgrwt>
</event>
<event>
 6    1  0.1295671E-001  0.3000000E+03  0.7818608E-02  0.1093470E+00
         21   -1    0    0  501  502  0.00000000000E+00  0.00000000000E+00  0.36978778377E+01  0.36978778377E+01  0.00000000000E+00 0. -1.
         13   -1    0    0    0    0 -0.00000000000E+00 -0.00000000000E+00 -0.10000000000E+04  0.10000000000E+04  0.00000000000E+00 0.  1.
    9000005    2    1    2  501    0  0.33347108029E+02 -0.21586599262E+02 -0.87801483814E+03  0.87891850277E+03  0.31092814706E+01 0.  0.
         13    1    3    3    0    0  0.17288609650E+02 -0.96687548354E+01 -0.41740759418E+03  0.41787735105E+03  0.00000000000E+00 0.  1.
          1    1    3    3  501    0  0.16058498379E+02 -0.11917844426E+02 -0.46060724396E+03  0.46104115172E+03  0.00000000000E+00 0.  1.
         -1    1    1    2    0  502 -0.33347108029E+02  0.21586599262E+02 -0.11828728402E+03  0.12477937507E+03  0.00000000000E+00 0. -1.
<mgrwt>
<rscale>  1 0.30000000E+03</rscale>
<asrwt>0</asrwt>
<pdfrwt beam="1">  1       21 0.13446857E-01 0.30000000E+03</pdfrwt>
<pdfrwt beam="2">0</pdfrwt>
<totfact> 0.50355402E+03</totfact>
</mgrwt>
</event>
<event>
 6    1  0.1295671E-001  0.3000000E+03  0.7818608E-02  0.1093470E+00
         21   -1    0    0  501  502  0.00000000000E+00  0.00000000000E+00  0.16633996155E+01  0.16633996155E+01  0.00000000000E+00 0. -1.
         13   -1    0    0    0    0 -0.00000000000E+00 -0.00000000000E+00 -0.10000000000E+04  0.10000000000E+04  0.00000000000E+00 0.  1.
    9000005    2    1    2  501    0  0.11389151862E+02  0.33939066137E+02 -0.73839390860E+03  0.73926718012E+03  0.29709195634E+01 0.  0.
         13    1    3    3    0    0  0.58724188835E+01  0.20943967705E+02 -0.46712749331E+03  0.46763364944E+03  0.00000000000E+00 0.  1.
          3    1    3    3  501    0  0.55167329782E+01  0.12995098432E+02 -0.27126641529E+03  0.27163353068E+03  0.00000000000E+00 0.  1.
         -1    1    1    2    0  502 -0.11389151862E+02 -0.33939066137E+02 -0.25994269179E+03  0.26239621949E+03  0.00000000000E+00 0. -1.
<mgrwt>
<rscale>  1 0.30000000E+03</rscale>
<asrwt>0</asrwt>
<pdfrwt beam="1">  1       21 0.60487386E-02 0.30000000E+03</pdfrwt>
<pdfrwt beam="2">0</pdfrwt>
<totfact> 0.20779650E+04</totfact>
</mgrwt>
</event>
<event>
 6    1  0.1295671E-001  0.3000000E+03  0.7818608E-02  0.1093470E+00
         21   -1    0    0  501  502  0.00000000000E+00  0.00000000000E+00  0.77924717223E+01  0.77924717223E+01  0.00000000000E+00 0. -1.
         13   -1    0    0    0    0 -0.00000000000E+00 -0.00000000000E+00 -0.10000000000E+04  0.10000000000E+04  0.00000000000E+00 0.  1.
    9000005    2    1    2  501    0 -0.52511705074E+02  0.21804910056E+02 -0.88143025245E+03  0.88327525158E+03  0.47902865737E+01 0.  0.
         13    1    3    3    0    0 -0.10012160530E+02  0.62545803456E+01 -0.18222519498E+03  0.18260718720E+03  0.00000000000E+00 0.  1.
          1    1    3    3  501    0 -0.42499544544E+02  0.15550329710E+02 -0.69920505747E+03  0.70066806438E+03  0.00000000000E+00 0.  1.
         -3    1    1    2    0  502  0.52511705074E+02 -0.21804910056E+02 -0.11077727583E+03  0.12451722014E+03  0.00000000000E+00 0. -1.
<mgrwt>
<rscale>  1 0.30000000E+03</rscale>
<asrwt>0</asrwt>
<pdfrwt beam="1">  1       21 0.28336321E-01 0.30000000E+03</pdfrwt>
<pdfrwt beam="2">0</pdfrwt>
<totfact> 0.12181953E+03</totfact>
</mgrwt>
</event>
<event>
 6    1  0.1295671E-001  0.3000000E+03  0.7818608E-02  0.1093470E+00
         21   -1    0    0  501  502  0.00000000000E+00  0.00000000000E+00  0.48957642185E+01  0.48957642185E+01  0.00000000000E+00 0. -1.
         13   -1    0    0    0    0 -0.00000000000E+00 -0.00000000000E+00 -0.10000000000E+04  0.10000000000E+04  0.00000000000E+00 0.  1.
    9000005    2    1    2  501    0  0.56343414989E+02 -0.38635192375E+02 -0.60500460085E+03  0.60885917036E+03  0.34152272743E+01 0.  0.
         13    1    3    3    0    0  0.18655646731E+02 -0.13718292650E+02 -0.19251800182E+03  0.19390566194E+03  0.00000000000E+00 0.  1.
          3    1    3    3  501    0  0.37687768258E+02 -0.24916899725E+02 -0.41248659904E+03  0.41495350843E+03  0.00000000000E+00 0.  1.
         -1    1    1    2    0  502 -0.56343414989E+02  0.38635192375E+02 -0.39009963493E+03  0.39603659386E+03  0.00000000000E+00 0. -1.
<mgrwt>
<rscale>  1 0.30000000E+03</rscale>
<asrwt>0</asrwt>
<pdfrwt beam="1">  1       21 0.17802817E-01 0.30000000E+03</pdfrwt>
<pdfrwt beam="2">0</pdfrwt>
<totfact> 0.29909272E+03</totfact>
</mgrwt>
</event>
<event>
 6    1  0.1295671E-001  0.3000000E+03  0.7818608E-02  0.1093470E+00
         21   -1    0    0  501  502  0.00000000000E+00  0.00000000000E+00  0.10969084134E+01  0.10969084134E+01  0.00000000000E+00 0. -1.
         13   -1    0    0    0    0 -0.00000000000E+00 -0.00000000000E+00 -0.10000000000E+04  0.10000000000E+04  0.00000000000E+00 0.  1.
    9000005    2    1    2  501    0 -0.29883881665E+01  0.31035036335E+02 -0.33690093567E+03  0.33836094411E+03  0.37126942959E+01 0.  0.
         13    1    3    3    0    0 -0.30196216383E+01  0.24725010411E+02 -0.25308162943E+03  0.25430445417E+03  0.00000000000E+00 0.  1.
          1    1    3    3  501    0  0.31233471758E-01  0.63100259247E+01 -0.83819306243E+02  0.84056489944E+02  0.00000000000E+00 0.  1.
         -1    1    1    2    0  502  0.29883881665E+01 -0.31035036335E+02 -0.66200215591E+03  0.66273596430E+03  0.00000000000E+00 0. -1.
<mgrwt>
<rscale>  1 0.30000000E+03</rscale>
<asrwt>0</asrwt>
<pdfrwt beam="1">  1       21 0.39887663E-02 0.30000000E+03</pdfrwt>
<pdfrwt beam="2">0</pdfrwt>
<totfact> 0.42246924E+04</totfact>
</mgrwt>
</event>
<event>
 6    1  0.1295671E-001  0.3000000E+03  0.7818608E-02  0.1093470E+00
         21   -1    0    0  501  502  0.00000000000E+00  0.00000000000E+00  0.10532710534E+01  0.10532710534E+01  0.00000000000E+00 0. -1.
         13   -1    0    0    0    0 -0.00000000000E+00 -0.00000000000E+00 -0.10000000000E+04  0.10000000000E+04  0.00000000000E+00 0.  1.
    9000005    2    1    2  501    0  0.65654857815E+01  0.31705921777E+02 -0.49628546392E+03  0.49735026487E+03  0.31069582239E+01 0.  0.
         13    1    3    3    0    0 -0.16894669324E+00  0.41385031938E+01 -0.66796396395E+02  0.66924691430E+02  0.00000000000E+00 0.  1.
          1    1    3    3  501    0  0.67344324747E+01  0.27567418584E+02 -0.42948906753E+03  0.43042557344E+03  0.00000000000E+00 0.  1.
         -1    1    1    2    0  502 -0.65654857815E+01 -0.31705921777E+02 -0.50266126502E+03  0.50370300618E+03  0.00000000000E+00 0. -1.
<mgrwt>
<rscale>  1 0.30000000E+03</rscale>
<asrwt>0</asrwt>
<pdfrwt beam="1">  1       21 0.38300846E-02 0.30000000E+03</pdfrwt>
<pdfrwt beam="2">0</pdfrwt>
<totfact> 0.45232694E+04</totfact>
</mgrwt>
</event>
<event>
 6    1  0.1295671E-001  0.3000000E+03  0.7818608E-02  0.1093470E+00
         21   -1    0    0  501  502  0.00000000000E+00  0.00000000000E+00  0.35363301212E+01  0.35363301212E+01  0.00000000000E+00 0. -1.
         13   -1    0    0    0    0 -0.00000000000E+00 -0.00000000000E+00 -0.10000000000E+04  0.10000000000E+04  0.00000000000E+00 0.  1.
    9000005    2    1    2  501    0 -0.30931646639E+02 -0.22301739331E+02 -0.88308030894E+03  0.88391224860E+03  0.39870859763E+01 0.  0.
         13    1    3    3    0    0 -0.31006013450E+02 -0.22031069654E+02 -0.87332537357E+03  0.87415327547E+03  0.00000000000E+00 0.  1.
          1    1    3    3  501    0  0.74366810590E-01 -0.27066967707E+00 -0.97549353655E+01  0.97589731264E+01  0.00000000000E+00 0.  1.
         -1    1    1    2    0  502  0.30931646639E+02  0.22301739331E+02 -0.11338336094E+03  0.11962408152E+03  0.00000000000E+00 0. -1.
<mgrwt>
<rscale>  1 0.30000000E+03</rscale>
<asrwt>0</asrwt>
<pdfrwt beam="1">  1       21 0.12859409E-01 0.30000000E+03</pdfrwt>
<pdfrwt beam="2">0</pdfrwt>
<totfact> 0.54639085E+03</totfact>
</mgrwt>
</event>
<event>
 6    1  0.1295671E-001  0.3000000E+03  0.7818608E-02  0.1093470E+00
         21   -1    0    0  501  502  0.00000000000E+00  0.00000000000E+00  0.46766797199E+01  0.46766797199E+01  0.00000000000E+00 0. -1.
         13   -1    0    0    0    0 -0.00000000000E+00 -0.00000000000E+00 -0.10000000000E+04  0.10000000000E+04  0.00000000000E+00 0.  1.
    9000005    2    1    2  501    0 -0.42932048714E+02 -0.31836343298E+02 -0.81089812911E+03  0.81266270966E+03  0.28618719116E+01 0.  0.
         13    1    3    3    0    0 -0.14674055007E+02 -0.93824305292E+01 -0.25506804737E+03  0.25566201650E+03  0.00000000000E+00 0.  1.
          1    1    3    3  501    0 -0.28257993707E+02 -0.22453912769E+02 -0.55583008174E+03  0.55700069315E+03  0.00000000000E+00 0.  1.
         -3    1    1    2    0  502  0.42932048714E+02  0.31836343298E+02 -0.18442519117E+03  0.19201397006E+03  0.00000000000E+00 0. -1.
<mgrwt>
<rscale>  1 0.30000000E+03</rscale>
<asrwt>0</asrwt>
<pdfrwt beam="1">  1       21 0.17006144E-01 0.30000000E+03</pdfrwt>
<pdfrwt beam="2">0</pdfrwt>
<totfact> 0.32593143E+03</totfact>
</mgrwt>
</event>
<event>
 6    1  0.1295671E-001  0.3000000E+03  0.7818608E-02  0.1093470E+00
         21   -1    0    0  501  502  0.00000000000E+00  0.00000000000E+00  0.16615419225E+01  0.16615419225E+01  0.00000000000E+00 0. -1.
         13   -1    0    0    0    0 -0.00000000000E+00 -0.00000000000E+00 -0.10000000000E+04  0.10000000000E+04  0.00000000000E+00 0.  1.
    9000005    2    1    2  501    0 -0.17288895386E+02 -0.26709083180E+02 -0.81172026851E+03  0.81235060799E+03  0.33815629657E+01 0.  0.
         13    1    3    3    0    0 -0.25630246352E+01 -0.50161032691E+01 -0.11647659877E+03  0.11661272850E+03  0.00000000000E+00 0.  1.
          1    1    3    3  501    0 -0.14725870751E+02 -0.21692979911E+02 -0.69524366974E+03  0.69573787949E+03  0.00000000000E+00 0.  1.
         -1    1    1    2    0  502  0.17288895386E+02  0.26709083180E+02 -0.18661818957E+03  0.18931093393E+03  0.00000000000E+00 0. -1.
<mgrwt>
<rscale>  1 0.30000000E+03</rscale>
<asrwt>0</asrwt>
<pdfrwt beam="1">  1       21 0.60419834E-02 0.30000000E+03</pdfrwt>
<pdfrwt beam="2">0</pdfrwt>
<totfact> 0.20819747E+04</totfact>
</mgrwt>
</event>
<event>
 6    1  0.1295671E-001  0.3000000E+03  0.7818608E-02  0.1093470E+00
         21   -1    0    0  501  502  0.00000000000E+00  0.00000000000E+00  0.17297630274E+02  0.17297630274E+02  0.00000000000E+00 0. -1.
         13   -1    0    0    0    0 -0.00000000000E+00 -0.00000000000E+00 -0.10000000000E+04  0.10000000000E+04  0.00000000000E+00 0.  1.
    9000005    2    1    2  501    0  0.81582336096E+02  0.33874864999E+02 -0.86816274288E+03  0.87265147526E+03  0.32962265306E+01 0.  0.
         13    1    3    3    0    0  0.73233740871E+02  0.31432378663E+02 -0.78525850733E+03  0.78929215032E+03  0.00000000000E+00 0.  1.
          3    1    3    3  501    0  0.83485952255E+01  0.24424863356E+01 -0.82904235557E+02  0.83359324943E+02  0.00000000000E+00 0.  1.
         -3    1    1    2    0  502 -0.81582336096E+02 -0.33874864999E+02 -0.11453962684E+03  0.14464615501E+03  0.00000000000E+00 0. -1.
<mgrwt>
<rscale>  1 0.30000000E+03</rscale>
<asrwt>0</asrwt>
<pdfrwt beam="1">  1       21 0.62900606E-01 0.30000000E+03</pdfrwt>
<pdfrwt beam="2">0</pdfrwt>
<totfact> 0.22570414E+02</totfact>
</mgrwt>
</event>
<event>
 6    1  0.1295671E-001  0.3000000E+03  0.7818608E-02  0.1093470E+00
         21   -1    0    0  501  502  0.00000000000E+00  0.00000000000E+00  0.12215857676E+01  0.12215857676E+01  0.00000000000E+00 0. -1.
         13   -1    0    0    0    0 -0.00000000000E+00 -0.00000000000E+00 -0.10000000000E+04  0.10000000000E+04  0.00000000000E+00 0.  1.
    9000005    2    1    2  501    0  0.44958448697E+01 -0.34347115521E+02 -0.46884537435E+03  0.47015759365E+03  0.56781027519E+01 0.  0.
         13    1    3    3    0    0  0.38112603101E+01 -0.10259703215E+02 -0.13394628758E+03  0.13439269017E+03  0.00000000000E+00 0.  1.
          1    1    3    3  501    0  0.68458455958E+00 -0.24087412306E+02 -0.33489908677E+03  0.33576490348E+03  0.00000000000E+00 0.  1.
         -3    1    1    2    0  502 -0.44958448697E+01  0.34347115521E+02 -0.52993303988E+03  0.53106399212E+03  0.00000000000E+00 0. -1.
<mgrwt>
<rscale>  1 0.30000000E+03</rscale>
<asrwt>0</asrwt>
<pdfrwt beam="1">  1       21 0.44421394E-02 0.30000000E+03</pdfrwt>
<pdfrwt beam="2">0</pdfrwt>
<totfact> 0.35222868E+04</totfact>
</mgrwt>
</event>
<event>
 6    1  0.1295671E-001  0.3000000E+03  0.7818608E-02  0.1093470E+00
         21   -1    0    0  501  502  0.00000000000E+00  0.00000000000E+00  0.56591306397E+01  0.56591306397E+01  0.00000000000E+00 0. -1.
         13   -1    0    0    0    0 -0.00000000000E+00 -0.00000000000E+00 -0.10000000000E+04  0.10000000000E+04  0.00000000000E+00 0.  1.
    9000005    2    1    2  501    0 -0.23741961303E+02 -0.60648839105E+02 -0.74856548622E+03  0.75140040145E+03  0.32114993798E+01 0.  0.
         13    1    3    3    0    0 -0.13956489364E+02 -0.32204498257E+02 -0.41450183859E+03  0.41598520106E+03  0.00000000000E+00 0.  1.
          1    1    3    3  501    0 -0.97854719392E+01 -0.28444340848E+02 -0.33406364763E+03  0.33541520039E+03  0.00000000000E+00 0.  1.
         -3    1    1    2    0  502  0.23741961303E+02  0.60648839105E+02 -0.24577538314E+03  0.25425872919E+03  0.00000000000E+00 0. -1.
<mgrwt>
<rscale>  1 0.30000000E+03</rscale>
<asrwt>0</asrwt>
<pdfrwt beam="1">  1       21 0.20578700E-01 0.30000000E+03</pdfrwt>
<pdfrwt beam="2">0</pdfrwt>
<totfact> 0.22719144E+03</totfact>
</mgrwt>
</event>
<event>
 6    1  0.1295671E-001  0.3000000E+03  0.7818608E-02  0.1093470E+00
         21   -1    0    0  501  502  0.00000000000E+00  0.00000000000E+00  0.20718113612E+01  0.20718113612E+01  0.00000000000E+00 0. -1.
         13   -1    0    0    0    0 -0.00000000000E+00 -0.00000000000E+00 -0.10000000000E+04  0.10000000000E+04  0.00000000000E+00 0.  1.
    9000005    2    1    2  501    0 -0.19291847875E+02  0.39126940969E+02 -0.64042480946E+03  0.64191662394E+03  0.31500176489E+01 0.  0.
         13    1    3    3    0    0 -0.62635265014E+01  0.16046592317E+02 -0.24602757431E+03  0.24662986885E+03  0.00000000000E+00 0.  1.
          1    1    3    3  501    0 -0.13028321374E+02  0.23080348652E+02 -0.39439723515E+03  0.39528675509E+03  0.00000000000E+00 0.  1.
         -3    1    1    2    0  502  0.19291847875E+02 -0.39126940969E+02 -0.35750337917E+03  0.36015518742E+03  0.00000000000E+00 0. -1.
<mgrwt>
<rscale>  1 0.30000000E+03</rscale>
<asrwt>0</asrwt>
<pdfrwt beam="1">  1       21 0.75338754E-02 0.30000000E+03</pdfrwt>
<pdfrwt beam="2">0</pdfrwt>
<totfact> 0.14192029E+04</totfact>
</mgrwt>
</event>
<event>
 6    1  0.1295671E-001  0.3000000E+03  0.7818608E-02  0.1093470E+00
         21   -1    0    0  501  502  0.00000000000E+00  0.00000000000E+00  0.11622998480E+01  0.11622998480E+01  0.00000000000E+00 0. -1.
         13   -1    0    0    0    0 -0.00000000000E+00 -0.00000000000E+00 -0.10000000000E+04  0.10000000000E+04  0.00000000000E+00 0.  1.
    9000005    2    1    2  501    0  0.26337244668E+01 -0.30541410806E+02 -0.70875534946E+03  0.70946470908E+03  0.81433260275E+01 0.  0.
         13    1    3    3    0    0  0.12402897886E+01 -0.12332961246E+02 -0.38044142049E+03  0.38064329060E+03  0.00000000000E+00 0.  1.
          3    1    3    3  501    0  0.13934346782E+01 -0.18208449560E+02 -0.32831392897E+03  0.32882141848E+03  0.00000000000E+00 0.  1.
         -3    1    1    2    0  502 -0.26337244668E+01  0.30541410806E+02 -0.29008235069E+03  0.29169759077E+03  0.00000000000E+00 0. -1.
<mgrwt>
<rscale>  1 0.30000000E+03</rscale>
<asrwt>0</asrwt>
<pdfrwt beam="1">  1       21 0.42265538E-02 0.30000000E+03</pdfrwt>
<pdfrwt beam="2">0</pdfrwt>
<totfact> 0.38316416E+04</totfact>
</mgrwt>
</event>
<event>
 6    1  0.1295671E-001  0.3000000E+03  0.7818608E-02  0.1093470E+00
         21   -1    0    0  501  502  0.00000000000E+00  0.00000000000E+00  0.17085688910E+01  0.17085688910E+01  0.00000000000E+00 0. -1.
         13   -1    0    0    0    0 -0.00000000000E+00 -0.00000000000E+00 -0.10000000000E+04  0.10000000000E+04  0.00000000000E+00 0.  1.
    9000005    2    1    2  501    0  0.20987825702E+02  0.31989568834E+02 -0.68753502626E+03  0.68860576709E+03  0.31094680141E+01 0.  0.
         13    1    3    3    0    0  0.90316555440E+01  0.13304770810E+02 -0.31645426390E+03  0.31686257095E+03  0.00000000000E+00 0.  1.
          3    1    3    3  501    0  0.11956170158E+02  0.18684798024E+02 -0.37108076236E+03  0.37174319614E+03  0.00000000000E+00 0.  1.
         -1    1    1    2    0  502 -0.20987825702E+02 -0.31989568834E+02 -0.31075640485E+03  0.31310280180E+03  0.00000000000E+00 0. -1.
<mgrwt>
<rscale>  1 0.30000000E+03</rscale>
<asrwt>0</asrwt>
<pdfrwt beam="1">  1       21 0.62129909E-02 0.30000000E+03</pdfrwt>
<pdfrwt beam="2">0</pdfrwt>
<totfact> 0.19840484E+04</totfact>
</mgrwt>
</event>
<event>
 6    1  0.1295671E-001  0.3000000E+03  0.7818608E-02  0.1093470E+00
         21   -1    0    0  501  502  0.00000000000E+00  0.00000000000E+00  0.65349436152E+01  0.65349436152E+01  0.00000000000E+00 0. -1.
         13   -1    0    0    0    0 -0.00000000000E+00 -0.00000000000E+00 -0.10000000000E+04  0.10000000000E+04  0.00000000000E+00 0.  1.
    9000005    2    1    2  501    0  0.53056749451E+02  0.57497913022E+02 -0.62277569664E+03  0.62767925857E+03  0.32641457567E+01 0.  0.
         13    1    3    3    0    0  0.21332059413E+02  0.24182874228E+02 -0.26822430200E+03  0.27015577792E+03  0.00000000000E+00 0.  1.
          1    1    3    3  501    0  0.31724690038E+02  0.33315038794E+02 -0.35455139465E+03  0.35752348065E+03  0.00000000000E+00 0.  1.
         -3    1    1    2    0  502 -0.53056749451E+02 -0.57497913022E+02 -0.37068935974E+03  0.37885568505E+03  0.00000000000E+00 0. -1.
<mgrwt>
<rscale>  1 0.30000000E+03</rscale>
<asrwt>0</asrwt>
<pdfrwt beam="1">  1       21 0.23763481E-01 0.30000000E+03</pdfrwt>
<pdfrwt beam="2">0</pdfrwt>
<totfact> 0.17217426E+03</totfact>
</mgrwt>
</event>
<event>
 6    1  0.1295671E-001  0.3000000E+03  0.7818608E-02  0.1093470E+00
         21   -1    0    0  501  502  0.00000000000E+00  0.00000000000E+00  0.35514155658E+01  0.35514155658E+01  0.00000000000E+00 0. -1.
         13   -1    0    0    0    0 -0.00000000000E+00 -0.00000000000E+00 -0.10000000000E+04  0.10000000000E+04  0.00000000000E+00 0.  1.
    9000005    2    1    2  501    0 -0.34036971619E+02  0.48408297263E+02 -0.54285151263E+03  0.54611050984E+03  0.68589732008E+01 0.  0.
         13    1    3    3    0    0 -0.23984586834E+02  0.35230691409E+02 -0.36169167395E+03  0.36419408154E+03  0.00000000000E+00 0.  1.
          1    1    3    3  501    0 -0.10052384785E+02  0.13177605854E+02 -0.18115983867E+03  0.18191642829E+03  0.00000000000E+00 0.  1.
         -1    1    1    2    0  502  0.34036971619E+02 -0.48408297263E+02 -0.45359707181E+03  0.45744090573E+03  0.00000000000E+00 0. -1.
<mgrwt>
<rscale>  1 0.30000000E+03</rscale>
<asrwt>0</asrwt>
<pdfrwt beam="1">  1       21 0.12914266E-01 0.30000000E+03</pdfrwt>
<pdfrwt beam="2">0</pdfrwt>
<totfact> 0.54216255E+03</totfact>
</mgrwt>
</event>
<event>
 6    1  0.1295671E-001  0.3000000E+03  0.7818608E-02  0.1093470E+00
         21   -1    0    0  501  502  0.00000000000E+00  0.00000000000E+00  0.24230988785E+01  0.24230988785E+01  0.00000000000E+00 0. -1.
         13   -1    0    0    0    0 -0.00000000000E+00 -0.00000000000E+00 -0.10000000000E+04  0.10000000000E+04  0.00000000000E+00 0.  1.
    9000005    2    1    2  501    0 -0.32670925125E+02  0.11593345624E+02 -0.85248981929E+03  0.85325186732E+03  0.99026297114E+01 0.  0.
         13    1    3    3    0    0 -0.67407219527E+01 -0.16370238559E+01 -0.17049340870E+03  0.17063446190E+03  0.00000000000E+00 0.  1.
          1    1    3    3  501    0 -0.25930203172E+02  0.13230369480E+02 -0.68199641059E+03  0.68261740541E+03  0.00000000000E+00 0.  1.
         -3    1    1    2    0  502  0.32670925125E+02 -0.11593345624E+02 -0.14508708183E+03  0.14917123156E+03  0.00000000000E+00 0. -1.
<mgrwt>
<rscale>  1 0.30000000E+03</rscale>
<asrwt>0</asrwt>
<pdfrwt beam="1">  1       21 0.88112872E-02 0.30000000E+03</pdfrwt>
<pdfrwt beam="2">0</pdfrwt>
<totfact> 0.10774743E+04</totfact>
</mgrwt>
</event>
<event>
 6    1  0.1295671E-001  0.3000000E+03  0.7818608E-02  0.1093470E+00
         21   -1    0    0  501  502  0.00000000000E+00  0.00000000000E+00  0.51609187699E+01  0.51609187699E+01  0.00000000000E+00 0. -1.
         13   -1    0    0    0    0 -0.00000000000E+00 -0.00000000000E+00 -0.10000000000E+04  0.10000000000E+04  0.00000000000E+00 0.  1.
    9000005    2    1    2  501    0  0.47754003002E+02  0.45279642581E+02 -0.69748253687E+03  0.70060943657E+03  0.64033225958E+01 0.  0.
         13    1    3    3    0    0  0.39848928334E+02  0.38429101536E+02 -0.56009339287E+03  0.56282265561E+03  0.00000000000E+00 0.  1.
          1    1    3    3  501    0  0.79050746681E+01  0.68505410457E+01 -0.13738914400E+03  0.13778678096E+03  0.00000000000E+00 0.  1.
         -1    1    1    2    0  502 -0.47754003002E+02 -0.45279642581E+02 -0.29735654436E+03  0.30455148220E+03  0.00000000000E+00 0. -1.
<mgrwt>
<rscale>  1 0.30000000E+03</rscale>
<asrwt>0</asrwt>
<pdfrwt beam="1">  1       21 0.18767017E-01 0.30000000E+03</pdfrwt>
<pdfrwt beam="2">0</pdfrwt>
<totfact> 0.27076253E+03</totfact>
</mgrwt>
</event>
<event>
 6    1  0.1295671E-001  0.3000000E+03  0.7818608E-02  0.1093470E+00
         21   -1    0    0  501  502  0.00000000000E+00  0.00000000000E+00  0.29490716464E+01  0.29490716464E+01  0.00000000000E+00 0. -1.
         13   -1    0    0    0    0 -0.00000000000E+00 -0.00000000000E+00 -0.10000000000E+04  0.10000000000E+04  0.00000000000E+00 0.  1.
    9000005    2    1    2  501    0  0.15417858851E+02 -0.31370741800E+02 -0.88214464984E+03  0.88284375680E+03  0.34758979122E+01 0.  0.
         13    1    3    3    0    0  0.10479043886E+02 -0.24090469164E+02 -0.68226127812E+03  0.68276688019E+03  0.00000000000E+00 0.  1.
          3    1    3    3  501    0  0.49388149650E+01 -0.72802726351E+01 -0.19988337172E+03  0.20007687660E+03  0.00000000000E+00 0.  1.
         -1    1    1    2    0  502 -0.15417858851E+02  0.31370741800E+02 -0.11490627851E+03  0.12010531485E+03  0.00000000000E+00 0. -1.
<mgrwt>
<rscale>  1 0.30000000E+03</rscale>
<asrwt>0</asrwt>
<pdfrwt beam="1">  1       21 0.10723920E-01 0.30000000E+03</pdfrwt>
<pdfrwt beam="2">0</pdfrwt>
<totfact> 0.75910017E+03</totfact>
</mgrwt>
</event>
<event>
 6    1  0.1295671E-001  0.3000000E+03  0.7818608E-02  0.1093470E+00
         21   -1    0    0  501  502  0.00000000000E+00  0.00000000000E+00  0.20716907384E+01  0.20716907384E+01  0.00000000000E+00 0. -1.
         13   -1    0    0    0    0 -0.00000000000E+00 -0.00000000000E+00 -0.10000000000E+04  0.10000000000E+04  0.00000000000E+00 0.  1.
    9000005    2    1    2  501    0 -0.41790288027E+02  0.25394717733E+00 -0.30314317737E+03  0.30603083550E+03  0.35487502950E+01 0.  0.
         13    1    3    3    0    0 -0.39293017589E+02  0.65655828878E+00 -0.28950163998E+03  0.29215675904E+03  0.00000000000E+00 0.  1.
          3    1    3    3  501    0 -0.24972704383E+01 -0.40261111145E+00 -0.13641537391E+02  0.13874076464E+02  0.00000000000E+00 0.  1.
         -3    1    1    2    0  502  0.41790288027E+02 -0.25394717733E+00 -0.69478513189E+03  0.69604085523E+03  0.00000000000E+00 0. -1.
<mgrwt>
<rscale>  1 0.30000000E+03</rscale>
<asrwt>0</asrwt>
<pdfrwt beam="1">  1       21 0.75334368E-02 0.30000000E+03</pdfrwt>
<pdfrwt beam="2">0</pdfrwt>
<totfact> 0.14193476E+04</totfact>
</mgrwt>
</event>
<event>
 6    1  0.1295671E-001  0.3000000E+03  0.7818608E-02  0.1093470E+00
         21   -1    0    0  501  502  0.00000000000E+00  0.00000000000E+00  0.10079712831E+01  0.10079712831E+01  0.00000000000E+00 0. -1.
         13   -1    0    0    0    0 -0.00000000000E+00 -0.00000000000E+00 -0.10000000000E+04  0.10000000000E+04  0.00000000000E+00 0.  1.
    9000005    2    1    2  501    0 -0.24789912612E+01 -0.31054009822E+02 -0.41662679519E+03  0.41781009565E+03  0.41100647050E+01 0.  0.
         13    1    3    3    0    0  0.48605650793E+00 -0.18825603138E+02 -0.25438884639E+03  0.25508493635E+03  0.00000000000E+00 0.  1.
          1    1    3    3  501    0 -0.29650477691E+01 -0.12228406685E+02 -0.16223794880E+03  0.16272515930E+03  0.00000000000E+00 0.  1.
         -3    1    1    2    0  502  0.24789912612E+01  0.31054009822E+02 -0.58236523353E+03  0.58319787563E+03  0.00000000000E+00 0. -1.
<mgrwt>
<rscale>  1 0.30000000E+03</rscale>
<asrwt>0</asrwt>
<pdfrwt beam="1">  1       21 0.36653578E-02 0.30000000E+03</pdfrwt>
<pdfrwt beam="2">0</pdfrwt>
<totfact> 0.48698173E+04</totfact>
</mgrwt>
</event>
<event>
 6    1  0.1295671E-001  0.3000000E+03  0.7818608E-02  0.1093470E+00
         21   -1    0    0  501  502  0.00000000000E+00  0.00000000000E+00  0.36297934699E+01  0.36297934699E+01  0.00000000000E+00 0. -1.
         13   -1    0    0    0    0 -0.00000000000E+00 -0.00000000000E+00 -0.10000000000E+04  0.10000000000E+04  0.00000000000E+00 0.  1.
    9000005    2    1    2  501    0 -0.18526710570E+02  0.38111890508E+02 -0.85479502479E+03  0.85584857921E+03  0.25496924132E+01 0.  0.
         13    1    3    3    0    0 -0.58346954418E+01  0.10905903731E+02 -0.22866917194E+03  0.22900343361E+03  0.00000000000E+00 0.  1.
          1    1    3    3  501    0 -0.12692015128E+02  0.27205986777E+02 -0.62612585285E+03  0.62684514561E+03  0.00000000000E+00 0.  1.
         -3    1    1    2    0  502  0.18526710570E+02 -0.38111890508E+02 -0.14157518174E+03  0.14778121426E+03  0.00000000000E+00 0. -1.
<mgrwt>
<rscale>  1 0.30000000E+03</rscale>
<asrwt>0</asrwt>
<pdfrwt beam="1">  1       21 0.13199277E-01 0.30000000E+03</pdfrwt>
<pdfrwt beam="2">0</pdfrwt>
<totfact> 0.52096846E+03</totfact>
</mgrwt>
</event>
<event>
 6    1  0.1295671E-001  0.3000000E+03  0.7818608E-02  0.1093470E+00
         21   -1    0    0  501  502  0.00000000000E+00  0.00000000000E+00  0.10644422486E+01  0.10644422486E+01  0.00000000000E+00 0. -1.
         13   -1    0    0    0    0 -0.00000000000E+00 -0.00000000000E+00 -0.10000000000E+04  0.10000000000E+04  0.00000000000E+00 0.  1.
    9000005    2    1    2  501    0  0.29523582281E+02 -0.12270116578E+02 -0.40945947233E+03  0.41072195440E+03  0.36423449203E+01 0.  0.
         13    1    3    3    0    0  0.23994877081E+02 -0.11329993080E+02 -0.34502909485E+03  0.34604797234E+03  0.00000000000E+00 0.  1.
          3    1    3    3  501    0  0.55287052008E+01 -0.94012349766E+00 -0.64430377482E+02  0.64673982063E+02  0.00000000000E+00 0.  1.
         -3    1    1    2    0  502 -0.29523582281E+02  0.12270116578E+02 -0.58947608542E+03  0.59034248785E+03  0.00000000000E+00 0. -1.
<mgrwt>
<rscale>  1 0.30000000E+03</rscale>
<asrwt>0</asrwt>
<pdfrwt beam="1">  1       21 0.38707072E-02 0.30000000E+03</pdfrwt>
<pdfrwt beam="2">0</pdfrwt>
<totfact> 0.44437533E+04</totfact>
</mgrwt>
</event>
<event>
 6    1  0.1295671E-001  0.3000000E+03  0.7818608E-02  0.1093470E+00
         21   -1    0    0  501  502  0.00000000000E+00  0.00000000000E+00  0.24904865779E+01  0.24904865779E+01  0.00000000000E+00 0. -1.
         13   -1    0    0    0    0 -0.00000000000E+00 -0.00000000000E+00 -0.10000000000E+04  0.10000000000E+04  0.00000000000E+00 0.  1.
    9000005    2    1    2  501    0  0.37853571954E+02  0.98479100194E+01 -0.80914941221E+03  0.81011220825E+03  0.53985594936E+01 0.  0.
         13    1    3    3    0    0  0.37655111495E+02  0.10186036533E+02 -0.79391381176E+03  0.79487156401E+03  0.00000000000E+00 0.  1.
          3    1    3    3  501    0  0.19846045879E+00 -0.33812651325E+00 -0.15235600442E+02  0.15240644242E+02  0.00000000000E+00 0.  1.
         -1    1    1    2    0  502 -0.37853571954E+02 -0.98479100194E+01 -0.18836010122E+03  0.19237827833E+03  0.00000000000E+00 0. -1.
<mgrwt>
<rscale>  1 0.30000000E+03</rscale>
<asrwt>0</asrwt>
<pdfrwt beam="1">  1       21 0.90563339E-02 0.30000000E+03</pdfrwt>
<pdfrwt beam="2">0</pdfrwt>
<totfact> 0.10263961E+04</totfact>
</mgrwt>
</event>
<event>
 6    1  0.1295671E-001  0.3000000E+03  0.7818608E-02  0.1093470E+00
         21   -1    0    0  501  502  0.00000000000E+00  0.00000000000E+00  0.18897994371E+01  0.18897994371E+01  0.00000000000E+00 0. -1.
         13   -1    0    0    0    0 -0.00000000000E+00 -0.00000000000E+00 -0.10000000000E+04  0.10000000000E+04  0.00000000000E+00 0.  1.
    9000005    2    1    2  501    0  0.18945642460E+02 -0.23604279429E+02 -0.85829105319E+03  0.85883214202E+03  0.36078792796E+01 0.  0.
         13    1    3    3    0    0  0.78318528343E+01 -0.91399296122E+01 -0.39093182475E+03  0.39111707688E+03  0.00000000000E+00 0.  1.
          3    1    3    3  501    0  0.11113789626E+02 -0.14464349817E+02 -0.46735922845E+03  0.46771506513E+03  0.00000000000E+00 0.  1.
         -1    1    1    2    0  502 -0.18945642460E+02  0.23604279429E+02 -0.13981914737E+03  0.14305765742E+03  0.00000000000E+00 0. -1.
<mgrwt>
<rscale>  1 0.30000000E+03</rscale>
<asrwt>0</asrwt>
<pdfrwt beam="1">  1       21 0.68720124E-02 0.30000000E+03</pdfrwt>
<pdfrwt beam="2">0</pdfrwt>
<totfact> 0.16661486E+04</totfact>
</mgrwt>
</event>
<event>
 6    1  0.1295671E-001  0.3000000E+03  0.7818608E-02  0.1093470E+00
         21   -1    0    0  501  502  0.00000000000E+00  0.00000000000E+00  0.34683762993E+01  0.34683762993E+01  0.00000000000E+00 0. -1.
         13   -1    0    0    0    0 -0.00000000000E+00 -0.00000000000E+00 -0.10000000000E+04  0.10000000000E+04  0.00000000000E+00 0.  1.
    9000005    2    1    2  501    0  0.45102724918E+00 -0.54941058558E+02 -0.67804572191E+03  0.68027804077E+03  0.36726570834E+01 0.  0.
         13    1    3    3    0    0  0.64105418540E+00 -0.16578191175E+01 -0.20402409087E+02  0.20479687772E+02  0.00000000000E+00 0.  1.
          3    1    3    3  501    0 -0.19002693621E+00 -0.53283239441E+02 -0.65764331283E+03  0.65979835300E+03  0.00000000000E+00 0.  1.
         -1    1    1    2    0  502 -0.45102724918E+00  0.54941058558E+02 -0.31848590179E+03  0.32319033553E+03  0.00000000000E+00 0. -1.
<mgrwt>
<rscale>  1 0.30000000E+03</rscale>
<asrwt>0</asrwt>
<pdfrwt beam="1">  1       21 0.12612304E-01 0.30000000E+03</pdfrwt>
<pdfrwt beam="2">0</pdfrwt>
<totfact> 0.56606957E+03</totfact>
</mgrwt>
</event>
<event>
 6    1  0.1295671E-001  0.3000000E+03  0.7818608E-02  0.1093470E+00
         21   -1    0    0  501  502  0.00000000000E+00  0.00000000000E+00  0.22309308159E+01  0.22309308159E+01  0.00000000000E+00 0. -1.
         13   -1    0    0    0    0 -0.00000000000E+00 -0.00000000000E+00 -0.10000000000E+04  0.10000000000E+04  0.00000000000E+00 0.  1.
    9000005    2    1    2  501    0  0.35686121486E+02  0.58187653983E+00 -0.82673550330E+03  0.82751310543E+03  0.35368633053E+01 0.  0.
         13    1    3    3    0    0  0.33886319471E+02  0.65046186582E+00 -0.76338884722E+03  0.76414084945E+03  0.00000000000E+00 0.  1.
          3    1    3    3  501    0  0.17998020146E+01 -0.68585325995E-01 -0.63346656081E+02  0.63372255979E+02  0.00000000000E+00 0.  1.
         -3    1    1    2    0  502 -0.35686121486E+02 -0.58187653983E+00 -0.17103356589E+03  0.17471782538E+03  0.00000000000E+00 0. -1.
<mgrwt>
<rscale>  1 0.30000000E+03</rscale>
<asrwt>0</asrwt>
<pdfrwt beam="1">  1       21 0.81124928E-02 0.30000000E+03</pdfrwt>
<pdfrwt beam="2">0</pdfrwt>
<totfact> 0.12464256E+04</totfact>
</mgrwt>
</event>
<event>
 6    1  0.1295671E-001  0.3000000E+03  0.7818608E-02  0.1093470E+00
         21   -1    0    0  501  502  0.00000000000E+00  0.00000000000E+00  0.10222831480E+01  0.10222831480E+01  0.00000000000E+00 0. -1.
         13   -1    0    0    0    0 -0.00000000000E+00 -0.00000000000E+00 -0.10000000000E+04  0.10000000000E+04  0.00000000000E+00 0.  1.
    9000005    2    1    2  501    0  0.23752805145E+02  0.20216717257E+02 -0.60727016454E+03  0.60807480835E+03  0.22379466521E+01 0.  0.
         13    1    3    3    0    0  0.21836659110E+02  0.17990698550E+02 -0.55865686405E+03  0.55937286014E+03  0.00000000000E+00 0.  1.
          3    1    3    3  501    0  0.19161460349E+01  0.22260187071E+01 -0.48613300492E+02  0.48701948212E+02  0.00000000000E+00 0.  1.
         -3    1    1    2    0  502 -0.23752805145E+02 -0.20216717257E+02 -0.39170755231E+03  0.39294747479E+03  0.00000000000E+00 0. -1.
<mgrwt>
<rscale>  1 0.30000000E+03</rscale>
<asrwt>0</asrwt>
<pdfrwt beam="1">  1       21 0.37174011E-02 0.30000000E+03</pdfrwt>
<pdfrwt beam="2">0</pdfrwt>
<totfact> 0.47559384E+04</totfact>
</mgrwt>
</event>
<event>
 6    1  0.1295671E-001  0.3000000E+03  0.7818608E-02  0.1093470E+00
         21   -1    0    0  501  502  0.00000000000E+00  0.00000000000E+00  0.57957910175E+01  0.57957910175E+01  0.00000000000E+00 0. -1.
         13   -1    0    0    0    0 -0.00000000000E+00 -0.00000000000E+00 -0.10000000000E+04  0.10000000000E+04  0.00000000000E+00 0.  1.
    9000005    2    1    2  501    0  0.68277094601E+02 -0.19470417573E+02 -0.67814271621E+03  0.68185794818E+03  0.34437105070E+01 0.  0.
         13    1    3    3    0    0  0.19906411049E+02 -0.44337953472E+01 -0.20438256415E+03  0.20539755663E+03  0.00000000000E+00 0.  1.
          1    1    3    3  501    0  0.48370683553E+02 -0.15036622225E+02 -0.47376015205E+03  0.47646039154E+03  0.00000000000E+00 0.  1.
         -3    1    1    2    0  502 -0.68277094601E+02  0.19470417573E+02 -0.31606149278E+03  0.32393784284E+03  0.00000000000E+00 0. -1.
<mgrwt>
<rscale>  1 0.30000000E+03</rscale>
<asrwt>0</asrwt>
<pdfrwt beam="1">  1       21 0.21075648E-01 0.30000000E+03</pdfrwt>
<pdfrwt beam="2">0</pdfrwt>
<totfact> 0.21704086E+03</totfact>
</mgrwt>
</event>
<event>
 6    1  0.1295671E-001  0.3000000E+03  0.7818608E-02  0.1093470E+00
         21   -1    0    0  501  502  0.00000000000E+00  0.00000000000E+00  0.15259242639E+01  0.15259242639E+01  0.00000000000E+00 0. -1.
         13   -1    0    0    0    0 -0.00000000000E+00 -0.00000000000E+00 -0.10000000000E+04  0.10000000000E+04  0.00000000000E+00 0.  1.
    9000005    2    1    2  501    0  0.12009837509E+02 -0.29352804260E+02 -0.79095994274E+03  0.79160227455E+03  0.32721159525E+01 0.  0.
         13    1    3    3    0    0  0.26036528591E+01 -0.96824985373E+01 -0.27083874317E+03  0.27102426937E+03  0.00000000000E+00 0.  1.
          1    1    3    3  501    0  0.94061846503E+01 -0.19670305723E+02 -0.52012119957E+03  0.52057800518E+03  0.00000000000E+00 0.  1.
         -3    1    1    2    0  502 -0.12009837509E+02  0.29352804260E+02 -0.20751413300E+03  0.20992364971E+03  0.00000000000E+00 0. -1.
<mgrwt>
<rscale>  1 0.30000000E+03</rscale>
<asrwt>0</asrwt>
<pdfrwt beam="1">  1       21 0.55488272E-02 0.30000000E+03</pdfrwt>
<pdfrwt beam="2">0</pdfrwt>
<totfact> 0.24105916E+04</totfact>
</mgrwt>
</event>
<event>
 6    1  0.1295671E-001  0.3000000E+03  0.7818608E-02  0.1093470E+00
         21   -1    0    0  501  502  0.00000000000E+00  0.00000000000E+00  0.36855310144E+01  0.36855310144E+01  0.00000000000E+00 0. -1.
         13   -1    0    0    0    0 -0.00000000000E+00 -0.00000000000E+00 -0.10000000000E+04  0.10000000000E+04  0.00000000000E+00 0.  1.
    9000005    2    1    2  501    0 -0.35909231699E+02 -0.19671820565E+02 -0.86749466074E+03  0.86851528117E+03  0.97649257214E+01 0.  0.
         13    1    3    3    0    0 -0.31138860518E+02 -0.13526011570E+02 -0.74567345260E+03  0.74644589860E+03  0.00000000000E+00 0.  1.
          3    1    3    3  501    0 -0.47703711816E+01 -0.61458089953E+01 -0.12182120814E+03  0.12206938257E+03  0.00000000000E+00 0.  1.
         -3    1    1    2    0  502  0.35909231699E+02  0.19671820565E+02 -0.12881980825E+03  0.13517024984E+03  0.00000000000E+00 0. -1.
<mgrwt>
<rscale>  1 0.30000000E+03</rscale>
<asrwt>0</asrwt>
<pdfrwt beam="1">  1       21 0.13401959E-01 0.30000000E+03</pdfrwt>
<pdfrwt beam="2">0</pdfrwt>
<totfact> 0.50664647E+03</totfact>
</mgrwt>
</event>
<event>
 6    1  0.1295671E-001  0.3000000E+03  0.7818608E-02  0.1093470E+00
         21   -1    0    0  501  502  0.00000000000E+00  0.00000000000E+00  0.13221463120E+01  0.13221463120E+01  0.00000000000E+00 0. -1.
         13   -1    0    0    0    0 -0.00000000000E+00 -0.00000000000E+00 -0.10000000000E+04  0.10000000000E+04  0.00000000000E+00 0.  1.
    9000005    2    1    2  501    0 -0.22018508698E+02 -0.20923599070E+02 -0.22791393842E+03  0.22995995849E+03  0.37692783054E+01 0.  0.
         13    1    3    3    0    0 -0.49972557909E+01 -0.56745536789E+01 -0.68558819996E+02  0.68974523732E+02  0.00000000000E+00 0.  1.
          1    1    3    3  501    0 -0.17021252907E+02 -0.15249045391E+02 -0.15935511843E+03  0.16098543476E+03  0.00000000000E+00 0.  1.
         -1    1    1    2    0  502  0.22018508698E+02  0.20923599070E+02 -0.77076391527E+03  0.77136218782E+03  0.00000000000E+00 0. -1.
<mgrwt>
<rscale>  1 0.30000000E+03</rscale>
<asrwt>0</asrwt>
<pdfrwt beam="1">  1       21 0.48078149E-02 0.30000000E+03</pdfrwt>
<pdfrwt beam="2">0</pdfrwt>
<totfact> 0.30793181E+04</totfact>
</mgrwt>
</event>
<event>
 6    1  0.1295671E-001  0.3000000E+03  0.7818608E-02  0.1093470E+00
         21   -1    0    0  501  502  0.00000000000E+00  0.00000000000E+00  0.14979355289E+01  0.14979355289E+01  0.00000000000E+00 0. -1.
         13   -1    0    0    0    0 -0.00000000000E+00 -0.00000000000E+00 -0.10000000000E+04  0.10000000000E+04  0.00000000000E+00 0.  1.
    9000005    2    1    2  501    0  0.14980746127E+02 -0.33233417059E+02 -0.66561323941E+03  0.66661907293E+03  0.33348394487E+01 0.  0.
         13    1    3    3    0    0  0.12380338233E+02 -0.29833156864E+02 -0.57937725090E+03  0.58027690707E+03  0.00000000000E+00 0.  1.
          3    1    3    3  501    0  0.26004078946E+01 -0.34002601954E+01 -0.86235988517E+02  0.86342165864E+02  0.00000000000E+00 0.  1.
         -3    1    1    2    0  502 -0.14980746127E+02  0.33233417059E+02 -0.33288882506E+03  0.33487886260E+03  0.00000000000E+00 0. -1.
<mgrwt>
<rscale>  1 0.30000000E+03</rscale>
<asrwt>0</asrwt>
<pdfrwt beam="1">  1       21 0.54470498E-02 0.30000000E+03</pdfrwt>
<pdfrwt beam="2">0</pdfrwt>
<totfact> 0.24883359E+04</totfact>
</mgrwt>
</event>
<event>
 6    1  0.1295671E-001  0.3000000E+03  0.7818608E-02  0.1093470E+00
         21   -1    0    0  501  502  0.00000000000E+00  0.00000000000E+00  0.40287920972E+01  0.40287920972E+01  0.00000000000E+00 0. -1.
         13   -1    0    0    0    0 -0.00000000000E+00 -0.00000000000E+00 -0.10000000000E+04  0.10000000000E+04  0.00000000000E+00 0.  1.
    9000005    2    1    2  501    0  0.31359306016E+02 -0.54585915243E+02 -0.55973957131E+03  0.56327821753E+03  0.33067260087E+01 0.  0.
         13    1    3    3    0    0  0.19924833999E+02 -0.37481259784E+02 -0.37089449679E+03  0.37331564606E+03  0.00000000000E+00 0.  1.
          1    1    3    3  501    0  0.11434472016E+02 -0.17104655460E+02 -0.18884507452E+03  0.18996257147E+03  0.00000000000E+00 0.  1.
         -3    1    1    2    0  502 -0.31359306016E+02  0.54585915243E+02 -0.43623163659E+03  0.44075057457E+03  0.00000000000E+00 0. -1.
<mgrwt>
<rscale>  1 0.30000000E+03</rscale>
<asrwt>0</asrwt>
<pdfrwt beam="1">  1       21 0.14650184E-01 0.30000000E+03</pdfrwt>
<pdfrwt beam="2">0</pdfrwt>
<totfact> 0.43016228E+03</totfact>
</mgrwt>
</event>
<event>
 6    1  0.1295671E-001  0.3000000E+03  0.7818608E-02  0.1093470E+00
         21   -1    0    0  501  502  0.00000000000E+00  0.00000000000E+00  0.41293779607E+01  0.41293779607E+01  0.00000000000E+00 0. -1.
         13   -1    0    0    0    0 -0.00000000000E+00 -0.00000000000E+00 -0.10000000000E+04  0.10000000000E+04  0.00000000000E+00 0.  1.
    9000005    2    1    2  501    0  0.27236513286E+02 -0.46751720565E+02 -0.22751208232E+03  0.23386812580E+03  0.22364321142E+01 0.  0.
         13    1    3    3    0    0  0.13824405757E+02 -0.22729932695E+02 -0.10753714991E+03  0.11077907134E+03  0.00000000000E+00 0.  1.
          1    1    3    3  501    0  0.13412107529E+02 -0.24021787870E+02 -0.11997493241E+03  0.12308905446E+03  0.00000000000E+00 0.  1.
         -1    1    1    2    0  502 -0.27236513286E+02  0.46751720565E+02 -0.76835853971E+03  0.77026125216E+03  0.00000000000E+00 0. -1.
<mgrwt>
<rscale>  1 0.30000000E+03</rscale>
<asrwt>0</asrwt>
<pdfrwt beam="1">  1       21 0.15015952E-01 0.30000000E+03</pdfrwt>
<pdfrwt beam="2">0</pdfrwt>
<totfact> 0.41099422E+03</totfact>
</mgrwt>
</event>
<event>
 6    1  0.1295671E-001  0.3000000E+03  0.7818608E-02  0.1093470E+00
         21   -1    0    0  501  502  0.00000000000E+00  0.00000000000E+00  0.47083257754E+01  0.47083257754E+01  0.00000000000E+00 0. -1.
         13   -1    0    0    0    0 -0.00000000000E+00 -0.00000000000E+00 -0.10000000000E+04  0.10000000000E+04  0.00000000000E+00 0.  1.
    9000005    2    1    2  501    0 -0.43243077994E+02  0.11498375527E+02 -0.87838859404E+03  0.87953442038E+03  0.34782276628E+01 0.  0.
         13    1    3    3    0    0 -0.34855076596E+02  0.78826486399E+01 -0.70737137535E+03  0.70827344661E+03  0.00000000000E+00 0.  1.
          3    1    3    3  501    0 -0.83880013980E+01  0.36157268867E+01 -0.17101721869E+03  0.17126097377E+03  0.00000000000E+00 0.  1.
         -1    1    1    2    0  502  0.43243077994E+02 -0.11498375527E+02 -0.11690308019E+03  0.12517390539E+03  0.00000000000E+00 0. -1.
<mgrwt>
<rscale>  1 0.30000000E+03</rscale>
<asrwt>0</asrwt>
<pdfrwt beam="1">  1       21 0.17121221E-01 0.30000000E+03</pdfrwt>
<pdfrwt beam="2">0</pdfrwt>
<totfact> 0.32183908E+03</totfact>
</mgrwt>
</event>
<event>
 6    1  0.1295671E-001  0.3000000E+03  0.7818608E-02  0.1093470E+00
         21   -1    0    0  501  502  0.00000000000E+00  0.00000000000E+00  0.13072948619E+01  0.13072948619E+01  0.00000000000E+00 0. -1.
         13   -1    0    0    0    0 -0.00000000000E+00 -0.00000000000E+00 -0.10000000000E+04  0.10000000000E+04  0.00000000000E+00 0.  1.
    9000005    2    1    2  501    0 -0.21735424731E+02 -0.28151890822E+02 -0.58301062290E+03  0.58410644259E+03  0.37406165537E+01 0.  0.
         13    1    3    3    0    0 -0.21731005825E+02 -0.27520239321E+02 -0.57642726480E+03  0.57749284999E+03  0.00000000000E+00 0.  1.
          1    1    3    3  501    0 -0.44189058387E-02 -0.63165150169E+00 -0.65833581051E+01  0.66135926006E+01  0.00000000000E+00 0.  1.
         -1    1    1    2    0  502  0.21735424731E+02  0.28151890822E+02 -0.41568208223E+03  0.41720085227E+03  0.00000000000E+00 0. -1.
<mgrwt>
<rscale>  1 0.30000000E+03</rscale>
<asrwt>0</asrwt>
<pdfrwt beam="1">  1       21 0.47538095E-02 0.30000000E+03</pdfrwt>
<pdfrwt beam="2">0</pdfrwt>
<totfact> 0.31390716E+04</totfact>
</mgrwt>
</event>
<event>
 6    1  0.1295671E-001  0.3000000E+03  0.7818608E-02  0.1093470E+00
         21   -1    0    0  501  502  0.00000000000E+00  0.00000000000E+00  0.21457093931E+01  0.21457093931E+01  0.00000000000E+00 0. -1.
         13   -1    0    0    0    0 -0.00000000000E+00 -0.00000000000E+00 -0.10000000000E+04  0.10000000000E+04  0.00000000000E+00 0.  1.
    9000005    2    1    2  501    0 -0.23524792908E+02  0.22056093542E+02 -0.85690354092E+03  0.85755317507E+03  0.85954926286E+01 0.  0.
         13    1    3    3    0    0 -0.23898697834E+02  0.22386122278E+02 -0.85053933424E+03  0.85116945747E+03  0.00000000000E+00 0.  1.
          3    1    3    3  501    0  0.37390492613E+00 -0.33002873614E+00 -0.63642066742E+01  0.63837176044E+01  0.00000000000E+00 0.  1.
         -1    1    1    2    0  502  0.23524792908E+02 -0.22056093542E+02 -0.14095074969E+03  0.14459253432E+03  0.00000000000E+00 0. -1.
<mgrwt>
<rscale>  1 0.30000000E+03</rscale>
<asrwt>0</asrwt>
<pdfrwt beam="1">  1       21 0.78025961E-02 0.30000000E+03</pdfrwt>
<pdfrwt beam="2">0</pdfrwt>
<totfact> 0.13346534E+04</totfact>
</mgrwt>
</event>
<event>
 6    1  0.1295671E-001  0.3000000E+03  0.7818608E-02  0.1093470E+00
         21   -1    0    0  501  502  0.00000000000E+00  0.00000000000E+00  0.25873121881E+01  0.25873121881E+01  0.00000000000E+00 0. -1.
         13   -1    0    0    0    0 -0.00000000000E+00 -0.00000000000E+00 -0.10000000000E+04  0.10000000000E+04  0.00000000000E+00 0.  1.
    9000005    2    1    2  501    0 -0.28339182609E+02  0.34236075049E+02 -0.74192909673E+03  0.74326688604E+03  0.34148503217E+01 0.  0.
         13    1    3    3    0    0 -0.24638093597E+01  0.45483430768E+01 -0.93570911588E+02  0.93713783814E+02  0.00000000000E+00 0.  1.
          3    1    3    3  501    0 -0.25875373250E+02  0.29687731972E+02 -0.64835818514E+03  0.64955310222E+03  0.00000000000E+00 0.  1.
         -3    1    1    2    0  502  0.28339182609E+02 -0.34236075049E+02 -0.25548359108E+03  0.25932042615E+03  0.00000000000E+00 0. -1.
<mgrwt>
<rscale>  1 0.30000000E+03</rscale>
<asrwt>0</asrwt>
<pdfrwt beam="1">  1       21 0.94084278E-02 0.30000000E+03</pdfrwt>
<pdfrwt beam="2">0</pdfrwt>
<totfact> 0.95917146E+03</totfact>
</mgrwt>
</event>
<event>
 6    1  0.1295671E-001  0.3000000E+03  0.7818608E-02  0.1093470E+00
         21   -1    0    0  501  502  0.00000000000E+00  0.00000000000E+00  0.11738721732E+01  0.11738721732E+01  0.00000000000E+00 0. -1.
         13   -1    0    0    0    0 -0.00000000000E+00 -0.00000000000E+00 -0.10000000000E+04  0.10000000000E+04  0.00000000000E+00 0.  1.
    9000005    2    1    2  501    0  0.14751241342E+02  0.28927407582E+02 -0.64652290559E+03  0.64737738487E+03  0.71566023093E+01 0.  0.
         13    1    3    3    0    0  0.14566618011E+02  0.26762984357E+02 -0.56098679246E+03  0.56181369243E+03  0.00000000000E+00 0.  1.
          3    1    3    3  501    0  0.18462333109E+00  0.21644232241E+01 -0.85536113133E+02  0.85563692438E+02  0.00000000000E+00 0.  1.
         -1    1    1    2    0  502 -0.14751241342E+02 -0.28927407582E+02 -0.35230322224E+03  0.35379648731E+03  0.00000000000E+00 0. -1.
<mgrwt>
<rscale>  1 0.30000000E+03</rscale>
<asrwt>0</asrwt>
<pdfrwt beam="1">  1       21 0.42686351E-02 0.30000000E+03</pdfrwt>
<pdfrwt beam="2">0</pdfrwt>
<totfact> 0.37680281E+04</totfact>
</mgrwt>
</event>
<event>
 6    1  0.1295671E-001  0.3000000E+03  0.7818608E-02  0.1093470E+00
         21   -1    0    0  501  502  0.00000000000E+00  0.00000000000E+00  0.14014768222E+01  0.14014768222E+01  0.00000000000E+00 0. -1.
         13   -1    0    0    0    0 -0.00000000000E+00 -0.00000000000E+00 -0.10000000000E+04  0.10000000000E+04  0.00000000000E+00 0.  1.
    9000005    2    1    2  501    0  0.15705987124E+02  0.32805280880E+02 -0.39105568861E+03  0.39277091539E+03  0.46449854785E+01 0.  0.
         13    1    3    3    0    0  0.14623485659E+02  0.31217464681E+02 -0.37881328437E+03  0.38037860199E+03  0.00000000000E+00 0.  1.
          3    1    3    3  501    0  0.10825014651E+01  0.15878161987E+01 -0.12242404241E+02  0.12392313396E+02  0.00000000000E+00 0.  1.
         -1    1    1    2    0  502 -0.15705987124E+02 -0.32805280880E+02 -0.60754283456E+03  0.60863056144E+03  0.00000000000E+00 0. -1.
<mgrwt>
<rscale>  1 0.30000000E+03</rscale>
<asrwt>0</asrwt>
<pdfrwt beam="1">  1       21 0.50962901E-02 0.30000000E+03</pdfrwt>
<pdfrwt beam="2">0</pdfrwt>
<totfact> 0.27882626E+04</totfact>
</mgrwt>
</event>
<event>
 6    1  0.1295671E-001  0.3000000E+03  0.7818608E-02  0.1093470E+00
         21   -1    0    0  501  502  0.00000000000E+00  0.00000000000E+00  0.16854842416E+01  0.16854842416E+01  0.00000000000E+00 0. -1.
         13   -1    0    0    0    0 -0.00000000000E+00 -0.00000000000E+00 -0.10000000000E+04  0.10000000000E+04  0.00000000000E+00 0.  1.
    9000005    2    1    2  501    0  0.16232397592E+02  0.35519657351E+02 -0.65120888935E+03  0.65238983200E+03  0.37866264168E+01 0.  0.
         13    1    3    3    0    0  0.15637150594E+02  0.35243801380E+02 -0.64283513171E+03  0.64399041342E+03  0.00000000000E+00 0.  1.
          1    1    3    3  501    0  0.59524699858E+00  0.27585597153E+00 -0.83737576432E+01  0.83994185854E+01  0.00000000000E+00 0.  1.
         -3    1    1    2    0  502 -0.16232397592E+02 -0.35519657351E+02 -0.34710562641E+03  0.34929565224E+03  0.00000000000E+00 0. -1.
<mgrwt>
<rscale>  1 0.30000000E+03</rscale>
<asrwt>0</asrwt>
<pdfrwt beam="1">  1       21 0.61290465E-02 0.30000000E+03</pdfrwt>
<pdfrwt beam="2">0</pdfrwt>
<totfact> 0.20312030E+04</totfact>
</mgrwt>
</event>
<event>
 6    1  0.1295671E-001  0.3000000E+03  0.7818608E-02  0.1093470E+00
         21   -1    0    0  501  502  0.00000000000E+00  0.00000000000E+00  0.13113893932E+01  0.13113893932E+01  0.00000000000E+00 0. -1.
         13   -1    0    0    0    0 -0.00000000000E+00 -0.00000000000E+00 -0.10000000000E+04  0.10000000000E+04  0.00000000000E+00 0.  1.
    9000005    2    1    2  501    0 -0.33434607579E+02 -0.13281342584E+02 -0.51651931758E+03  0.51780182983E+03  0.56800091495E+01 0.  0.
         13    1    3    3    0    0 -0.67389744073E+01 -0.23963432807E+01 -0.13863664662E+03  0.13882102155E+03  0.00000000000E+00 0.  1.
          3    1    3    3  501    0 -0.26695633171E+02 -0.10884999303E+02 -0.37788267095E+03  0.37898080828E+03  0.00000000000E+00 0.  1.
         -1    1    1    2    0  502  0.33434607579E+02  0.13281342584E+02 -0.48216929303E+03  0.48350955956E+03  0.00000000000E+00 0. -1.
<mgrwt>
<rscale>  1 0.30000000E+03</rscale>
<asrwt>0</asrwt>
<pdfrwt beam="1">  1       21 0.47686988E-02 0.30000000E+03</pdfrwt>
<pdfrwt beam="2">0</pdfrwt>
<totfact> 0.31224177E+04</totfact>
</mgrwt>
</event>
<event>
 6    1  0.1295671E-001  0.3000000E+03  0.7818608E-02  0.1093470E+00
         21   -1    0    0  501  502  0.00000000000E+00  0.00000000000E+00  0.19926825257E+01  0.19926825257E+01  0.00000000000E+00 0. -1.
         13   -1    0    0    0    0 -0.00000000000E+00 -0.00000000000E+00 -0.10000000000E+04  0.10000000000E+04  0.00000000000E+00 0.  1.
    9000005    2    1    2  501    0 -0.27321294920E+02 -0.34037209108E+02 -0.60087421018E+03  0.60246835327E+03  0.36490367654E+01 0.  0.
         13    1    3    3    0    0 -0.78825394123E+01 -0.76610993037E+01 -0.16252753271E+03  0.16289882062E+03  0.00000000000E+00 0.  1.
          1    1    3    3  501    0 -0.19438755508E+02 -0.26376109804E+02 -0.43834667747E+03  0.43956953265E+03  0.00000000000E+00 0.  1.
         -1    1    1    2    0  502  0.27321294920E+02  0.34037209108E+02 -0.39713310729E+03  0.39952432925E+03  0.00000000000E+00 0. -1.
<mgrwt>
<rscale>  1 0.30000000E+03</rscale>
<asrwt>0</asrwt>
<pdfrwt beam="1">  1       21 0.72461336E-02 0.30000000E+03</pdfrwt>
<pdfrwt beam="2">0</pdfrwt>
<totfact> 0.15192141E+04</totfact>
</mgrwt>
</event>
<event>
 6    1  0.1295671E-001  0.3000000E+03  0.7818608E-02  0.1093470E+00
         21   -1    0    0  501  502  0.00000000000E+00  0.00000000000E+00  0.23974974196E+01  0.23974974196E+01  0.00000000000E+00 0. -1.
         13   -1    0    0    0    0 -0.00000000000E+00 -0.00000000000E+00 -0.10000000000E+04  0.10000000000E+04  0.00000000000E+00 0.  1.
    9000005    2    1    2  501    0  0.25666286056E+02 -0.37560042837E+02 -0.68331146092E+03  0.68483116746E+03  0.31080923859E+01 0.  0.
         13    1    3    3    0    0  0.82400729227E+01 -0.10032862990E+02 -0.20715336498E+03  0.20755980768E+03  0.00000000000E+00 0.  1.
          3    1    3    3  501    0  0.17426213134E+02 -0.27527179847E+02 -0.47615809594E+03  0.47727135978E+03  0.00000000000E+00 0.  1.
         -1    1    1    2    0  502 -0.25666286056E+02  0.37560042837E+02 -0.31429104166E+03  0.31756632996E+03  0.00000000000E+00 0. -1.
<mgrwt>
<rscale>  1 0.30000000E+03</rscale>
<asrwt>0</asrwt>
<pdfrwt beam="1">  1       21 0.87181908E-02 0.30000000E+03</pdfrwt>
<pdfrwt beam="2">0</pdfrwt>
<totfact> 0.10978949E+04</totfact>
</mgrwt>
</event>
<event>
 6    1  0.1295671E-001  0.3000000E+03  0.7818608E-02  0.1093470E+00
         21   -1    0    0  501  502  0.00000000000E+00  0.00000000000E+00  0.26598817283E+01  0.26598817283E+01  0.00000000000E+00 0. -1.
         13   -1    0    0    0    0 -0.00000000000E+00 -0.00000000000E+00 -0.10000000000E+04  0.10000000000E+04  0.00000000000E+00 0.  1.
    9000005    2    1    2  501    0 -0.26314462986E+02  0.30792875928E+02 -0.80869601550E+03  0.80971623794E+03  0.32385672225E+01 0.  0.
         13    1    3    3    0    0 -0.23606979261E+02  0.28002759969E+02 -0.74762146919E+03  0.74851807274E+03  0.00000000000E+00 0.  1.
          3    1    3    3  501    0 -0.27074837252E+01  0.27901159587E+01 -0.61074546317E+02  0.61198165194E+02  0.00000000000E+00 0.  1.
         -1    1    1    2    0  502  0.26314462986E+02 -0.30792875928E+02 -0.18864410277E+03  0.19294364379E+03  0.00000000000E+00 0. -1.
<mgrwt>
<rscale>  1 0.30000000E+03</rscale>
<asrwt>0</asrwt>
<pdfrwt beam="1">  1       21 0.96723176E-02 0.30000000E+03</pdfrwt>
<pdfrwt beam="2">0</pdfrwt>
<totfact> 0.91304027E+03</totfact>
</mgrwt>
</event>
<event>
 6    1  0.1295671E-001  0.3000000E+03  0.7818608E-02  0.1093470E+00
         21   -1    0    0  501  502  0.00000000000E+00  0.00000000000E+00  0.28629040946E+01  0.28629040946E+01  0.00000000000E+00 0. -1.
         13   -1    0    0    0    0 -0.00000000000E+00 -0.00000000000E+00 -0.10000000000E+04  0.10000000000E+04  0.00000000000E+00 0.  1.
    9000005    2    1    2  501    0  0.23676687993E+02  0.37470003971E+02 -0.77907499798E+03  0.78034174711E+03  0.32868010142E+01 0.  0.
         13    1    3    3    0    0  0.19230603546E+02  0.29392255810E+02 -0.63736479664E+03  0.63833189237E+03  0.00000000000E+00 0.  1.
          3    1    3    3  501    0  0.44460844471E+01  0.80777481615E+01 -0.14171020133E+03  0.14200985474E+03  0.00000000000E+00 0.  1.
         -3    1    1    2    0  502 -0.23676687993E+02 -0.37470003971E+02 -0.21806209793E+03  0.22252115698E+03  0.00000000000E+00 0. -1.
<mgrwt>
<rscale>  1 0.30000000E+03</rscale>
<asrwt>0</asrwt>
<pdfrwt beam="1">  1       21 0.10410582E-01 0.30000000E+03</pdfrwt>
<pdfrwt beam="2">0</pdfrwt>
<totfact> 0.80056285E+03</totfact>
</mgrwt>
</event>
<event>
 6    1  0.1295671E-001  0.3000000E+03  0.7818608E-02  0.1093470E+00
         21   -1    0    0  501  502  0.00000000000E+00  0.00000000000E+00  0.35045144546E+01  0.35045144546E+01  0.00000000000E+00 0. -1.
         13   -1    0    0    0    0 -0.00000000000E+00 -0.00000000000E+00 -0.10000000000E+04  0.10000000000E+04  0.00000000000E+00 0.  1.
    9000005    2    1    2  501    0 -0.32413520812E+02  0.40592766462E+02 -0.73861213961E+03  0.74044134879E+03  0.26625538797E+01 0.  0.
         13    1    3    3    0    0 -0.30601020877E+02  0.38824709634E+02 -0.70886947892E+03  0.71059110514E+03  0.00000000000E+00 0.  1.
          1    1    3    3  501    0 -0.18124999349E+01  0.17680568285E+01 -0.29742660690E+02  0.29850243649E+02  0.00000000000E+00 0.  1.
         -1    1    1    2    0  502  0.32413520812E+02 -0.40592766462E+02 -0.25788334593E+03  0.26306316567E+03  0.00000000000E+00 0. -1.
<mgrwt>
<rscale>  1 0.30000000E+03</rscale>
<asrwt>0</asrwt>
<pdfrwt beam="1">  1       21 0.12743716E-01 0.30000000E+03</pdfrwt>
<pdfrwt beam="2">0</pdfrwt>
<totfact> 0.55547338E+03</totfact>
</mgrwt>
</event>
<event>
 6    1  0.1295671E-001  0.3000000E+03  0.7818608E-02  0.1093470E+00
         21   -1    0    0  501  502  0.00000000000E+00  0.00000000000E+00  0.25500321552E+01  0.25500321552E+01  0.00000000000E+00 0. -1.
         13   -1    0    0    0    0 -0.00000000000E+00 -0.00000000000E+00 -0.10000000000E+04  0.10000000000E+04  0.00000000000E+00 0.  1.
    9000005    2    1    2  501    0  0.36578857348E+02 -0.28097194900E+02 -0.70038740433E+03  0.70192795744E+03  0.57337702218E+01 0.  0.
         13    1    3    3    0    0  0.12803586454E+02 -0.84932225240E+01 -0.19699983937E+03  0.19759808543E+03  0.00000000000E+00 0.  1.
          1    1    3    3  501    0  0.23775270893E+02 -0.19603972376E+02 -0.50338756497E+03  0.50432987201E+03  0.00000000000E+00 0.  1.
         -1    1    1    2    0  502 -0.36578857348E+02  0.28097194900E+02 -0.29706256351E+03  0.30062207471E+03  0.00000000000E+00 0. -1.
<mgrwt>
<rscale>  1 0.30000000E+03</rscale>
<asrwt>0</asrwt>
<pdfrwt beam="1">  1       21 0.92728638E-02 0.30000000E+03</pdfrwt>
<pdfrwt beam="2">0</pdfrwt>
<totfact> 0.98424681E+03</totfact>
</mgrwt>
</event>
<event>
 6    1  0.1295671E-001  0.3000000E+03  0.7818608E-02  0.1093470E+00
         21   -1    0    0  501  502  0.00000000000E+00  0.00000000000E+00  0.48199366213E+01  0.48199366213E+01  0.00000000000E+00 0. -1.
         13   -1    0    0    0    0 -0.00000000000E+00 -0.00000000000E+00 -0.10000000000E+04  0.10000000000E+04  0.00000000000E+00 0.  1.
    9000005    2    1    2  501    0  0.30880633081E+02 -0.32507070258E+02 -0.88107949597E+03  0.88222604363E+03  0.33750140787E+01 0.  0.
         13    1    3    3    0    0  0.11356458530E+02 -0.14180686720E+02 -0.34392778682E+03  0.34440729315E+03  0.00000000000E+00 0.  1.
          3    1    3    3  501    0  0.19524174552E+02 -0.18326383538E+02 -0.53715170915E+03  0.53781875048E+03  0.00000000000E+00 0.  1.
         -1    1    1    2    0  502 -0.30880633081E+02  0.32507070258E+02 -0.11410056741E+03  0.12259389299E+03  0.00000000000E+00 0. -1.
<mgrwt>
<rscale>  1 0.30000000E+03</rscale>
<asrwt>0</asrwt>
<pdfrwt beam="1">  1       21 0.17527079E-01 0.30000000E+03</pdfrwt>
<pdfrwt beam="2">0</pdfrwt>
<totfact> 0.30799874E+03</totfact>
</mgrwt>
</event>
<event>
 6    1  0.1295671E-001  0.3000000E+03  0.7818608E-02  0.1093470E+00
         21   -1    0    0  501  502  0.00000000000E+00  0.00000000000E+00  0.48077311929E+01  0.48077311929E+01  0.00000000000E+00 0. -1.
         13   -1    0    0    0    0 -0.00000000000E+00 -0.00000000000E+00 -0.10000000000E+04  0.10000000000E+04  0.00000000000E+00 0.  1.
    9000005    2    1    2  501    0 -0.16776861893E+02  0.37918553194E+02 -0.90022167193E+03  0.90118006094E+03  0.26765366235E+01 0.  0.
         13    1    3    3    0    0 -0.12022758296E+02  0.25309669728E+02 -0.62917906058E+03  0.62980268050E+03  0.00000000000E+00 0.  1.
          1    1    3    3  501    0 -0.47541035964E+01  0.12608883466E+02 -0.27104261135E+03  0.27137738043E+03  0.00000000000E+00 0.  1.
         -1    1    1    2    0  502  0.16776861893E+02 -0.37918553194E+02 -0.94970596877E+02  0.10362767026E+03  0.00000000000E+00 0. -1.
<mgrwt>
<rscale>  1 0.30000000E+03</rscale>
<asrwt>0</asrwt>
<pdfrwt beam="1">  1       21 0.17482696E-01 0.30000000E+03</pdfrwt>
<pdfrwt beam="2">0</pdfrwt>
<totfact> 0.30946886E+03</totfact>
</mgrwt>
</event>
<event>
 6    1  0.1295671E-001  0.3000000E+03  0.7818608E-02  0.1093470E+00
         21   -1    0    0  501  502  0.00000000000E+00  0.00000000000E+00  0.21190629954E+01  0.21190629954E+01  0.00000000000E+00 0. -1.
         13   -1    0    0    0    0 -0.00000000000E+00 -0.00000000000E+00 -0.10000000000E+04  0.10000000000E+04  0.00000000000E+00 0.  1.
    9000005    2    1    2  501    0  0.18265881693E+02 -0.27323716934E+02 -0.84952722429E+03  0.85016824195E+03  0.30507153187E+01 0.  0.
         13    1    3    3    0    0  0.30850050350E+01 -0.66362448858E+01 -0.17390055555E+03  0.17405447487E+03  0.00000000000E+00 0.  1.
          3    1    3    3  501    0  0.15180876658E+02 -0.20687472048E+02 -0.67562666874E+03  0.67611376707E+03  0.00000000000E+00 0.  1.
         -1    1    1    2    0  502 -0.18265881693E+02  0.27323716934E+02 -0.14835371271E+03  0.15195082105E+03  0.00000000000E+00 0. -1.
<mgrwt>
<rscale>  1 0.30000000E+03</rscale>
<asrwt>0</asrwt>
<pdfrwt beam="1">  1       21 0.77056999E-02 0.30000000E+03</pdfrwt>
<pdfrwt beam="2">0</pdfrwt>
<totfact> 0.13642221E+04</totfact>
</mgrwt>
</event>
<event>
 6    1  0.1295671E-001  0.3000000E+03  0.7818608E-02  0.1093470E+00
         21   -1    0    0  501  502  0.00000000000E+00  0.00000000000E+00  0.27777436024E+01  0.27777436024E+01  0.00000000000E+00 0. -1.
         13   -1    0    0    0    0 -0.00000000000E+00 -0.00000000000E+00 -0.10000000000E+04  0.10000000000E+04  0.00000000000E+00 0.  1.
    9000005    2    1    2  501    0 -0.12246481492E+02  0.45764686814E+02 -0.71767502781E+03  0.71924461348E+03  0.33144538588E+01 0.  0.
         13    1    3    3    0    0 -0.38422746411E+01  0.97195641337E+01 -0.14814752062E+03  0.14851572600E+03  0.00000000000E+00 0.  1.
          1    1    3    3  501    0 -0.84042068511E+01  0.36045122680E+02 -0.56952750719E+03  0.57072888748E+03  0.00000000000E+00 0.  1.
         -1    1    1    2    0  502  0.12246481492E+02 -0.45764686814E+02 -0.27954722858E+03  0.28353313012E+03  0.00000000000E+00 0. -1.
<mgrwt>
<rscale>  1 0.30000000E+03</rscale>
<asrwt>0</asrwt>
<pdfrwt beam="1">  1       21 0.10100907E-01 0.30000000E+03</pdfrwt>
<pdfrwt beam="2">0</pdfrwt>
<totfact> 0.84501859E+03</totfact>
</mgrwt>
</event>
<event>
 6    1  0.1295671E-001  0.3000000E+03  0.7818608E-02  0.1093470E+00
         21   -1    0    0  501  502  0.00000000000E+00  0.00000000000E+00  0.38062941633E+01  0.38062941633E+01  0.00000000000E+00 0. -1.
         13   -1    0    0    0    0 -0.00000000000E+00 -0.00000000000E+00 -0.10000000000E+04  0.10000000000E+04  0.00000000000E+00 0.  1.
    9000005    2    1    2  501    0  0.56767642363E+01 -0.53966740271E+02 -0.73657721970E+03  0.73857930726E+03  0.29593621728E+01 0.  0.
         13    1    3    3    0    0  0.29994777277E+01 -0.27543121636E+02 -0.39610821927E+03  0.39707598994E+03  0.00000000000E+00 0.  1.
          1    1    3    3  501    0  0.26772865086E+01 -0.26423618634E+02 -0.34046900044E+03  0.34150331732E+03  0.00000000000E+00 0.  1.
         -3    1    1    2    0  502 -0.56767642363E+01  0.53966740271E+02 -0.25961648613E+03  0.26522698690E+03  0.00000000000E+00 0. -1.
<mgrwt>
<rscale>  1 0.30000000E+03</rscale>
<asrwt>0</asrwt>
<pdfrwt beam="1">  1       21 0.13841099E-01 0.30000000E+03</pdfrwt>
<pdfrwt beam="2">0</pdfrwt>
<totfact> 0.47757446E+03</totfact>
</mgrwt>
</event>
<event>
 6    1  0.1295671E-001  0.3000000E+03  0.7818608E-02  0.1093470E+00
         21   -1    0    0  501  502  0.00000000000E+00  0.00000000000E+00  0.23533292376E+01  0.23533292376E+01  0.00000000000E+00 0. -1.
         13   -1    0    0    0    0 -0.00000000000E+00 -0.00000000000E+00 -0.10000000000E+04  0.10000000000E+04  0.00000000000E+00 0.  1.
    9000005    2    1    2  501    0 -0.36403249097E+02  0.29720241102E+02 -0.62155727708E+03  0.62333918529E+03  0.31308057260E+01 0.  0.
         13    1    3    3    0    0 -0.18679020785E+02  0.13564112893E+02 -0.31627421221E+03  0.31711554406E+03  0.00000000000E+00 0.  1.
          3    1    3    3  501    0 -0.17724228311E+02  0.16156128208E+02 -0.30528306488E+03  0.30622364123E+03  0.00000000000E+00 0.  1.
         -3    1    1    2    0  502  0.36403249097E+02 -0.29720241102E+02 -0.37608939368E+03  0.37901414395E+03  0.00000000000E+00 0. -1.
<mgrwt>
<rscale>  1 0.30000000E+03</rscale>
<asrwt>0</asrwt>
<pdfrwt beam="1">  1       21 0.85575789E-02 0.30000000E+03</pdfrwt>
<pdfrwt beam="2">0</pdfrwt>
<totfact> 0.11345356E+04</totfact>
</mgrwt>
</event>
<event>
 6    1  0.1295671E-001  0.3000000E+03  0.7818608E-02  0.1093470E+00
         21   -1    0    0  501  502  0.00000000000E+00  0.00000000000E+00  0.14906962546E+02  0.14906962546E+02  0.00000000000E+00 0. -1.
         13   -1    0    0    0    0 -0.00000000000E+00 -0.00000000000E+00 -0.10000000000E+04  0.10000000000E+04  0.00000000000E+00 0.  1.
    9000005    2    1    2  501    0 -0.46599546983E+02  0.20005892729E+02 -0.95414788315E+03  0.95549857848E+03  0.27562702415E+01 0.  0.
         13    1    3    3    0    0 -0.20413689173E+02  0.90844624810E+01 -0.44566734045E+03  0.44622709970E+03  0.00000000000E+00 0.  1.
          3    1    3    3  501    0 -0.26185857810E+02  0.10921430248E+02 -0.50848054270E+03  0.50927147877E+03  0.00000000000E+00 0.  1.
         -1    1    1    2    0  502  0.46599546983E+02 -0.20005892729E+02 -0.30945154304E+02  0.59408384070E+02  0.00000000000E+00 0. -1.
<mgrwt>
<rscale>  1 0.30000000E+03</rscale>
<asrwt>0</asrwt>
<pdfrwt beam="1">  1       21 0.54207251E-01 0.30000000E+03</pdfrwt>
<pdfrwt beam="2">0</pdfrwt>
<totfact> 0.31483931E+02</totfact>
</mgrwt>
</event>
<event>
 6    1  0.1295671E-001  0.3000000E+03  0.7818608E-02  0.1093470E+00
         21   -1    0    0  501  502  0.00000000000E+00  0.00000000000E+00  0.27709636605E+01  0.27709636605E+01  0.00000000000E+00 0. -1.
         13   -1    0    0    0    0 -0.00000000000E+00 -0.00000000000E+00 -0.10000000000E+04  0.10000000000E+04  0.00000000000E+00 0.  1.
    9000005    2    1    2  501    0  0.52783595170E+00  0.51326845680E+02 -0.60708824459E+03  0.60926802710E+03  0.40826980569E+01 0.  0.
         13    1    3    3    0    0  0.17072453514E+01  0.39340861817E+02 -0.47790833823E+03  0.47952789058E+03  0.00000000000E+00 0.  1.
          3    1    3    3  501    0 -0.11794093997E+01  0.11985983863E+02 -0.12917990636E+03  0.12974013652E+03  0.00000000000E+00 0.  1.
         -1    1    1    2    0  502 -0.52783595170E+00 -0.51326845680E+02 -0.39014079175E+03  0.39350293656E+03  0.00000000000E+00 0. -1.
<mgrwt>
<rscale>  1 0.30000000E+03</rscale>
<asrwt>0</asrwt>
<pdfrwt beam="1">  1       21 0.10076253E-01 0.30000000E+03</pdfrwt>
<pdfrwt beam="2">0</pdfrwt>
<totfact> 0.84871854E+03</totfact>
</mgrwt>
</event>
<event>
 6    1  0.1295671E-001  0.3000000E+03  0.7818608E-02  0.1093470E+00
         21   -1    0    0  501  502  0.00000000000E+00  0.00000000000E+00  0.62085424714E+01  0.62085424714E+01  0.00000000000E+00 0. -1.
         13   -1    0    0    0    0 -0.00000000000E+00 -0.00000000000E+00 -0.10000000000E+04  0.10000000000E+04  0.00000000000E+00 0.  1.
    9000005    2    1    2  501    0  0.40469999204E+02  0.42475861553E+02 -0.83258476554E+03  0.83465791673E+03  0.37982234081E+01 0.  0.
         13    1    3    3    0    0  0.34914043596E+02  0.38240480455E+02 -0.72565638687E+03  0.72750155780E+03  0.00000000000E+00 0.  1.
          3    1    3    3  501    0  0.55559556087E+01  0.42353810984E+01 -0.10692837866E+03  0.10715635893E+03  0.00000000000E+00 0.  1.
         -1    1    1    2    0  502 -0.40469999204E+02 -0.42475861553E+02 -0.16120669199E+03  0.17155062574E+03  0.00000000000E+00 0. -1.
<mgrwt>
<rscale>  1 0.30000000E+03</rscale>
<asrwt>0</asrwt>
<pdfrwt beam="1">  1       21 0.22576566E-01 0.30000000E+03</pdfrwt>
<pdfrwt beam="2">0</pdfrwt>
<totfact> 0.19013528E+03</totfact>
</mgrwt>
</event>
<event>
 6    1  0.1295671E-001  0.3000000E+03  0.7818608E-02  0.1093470E+00
         21   -1    0    0  501  502  0.00000000000E+00  0.00000000000E+00  0.20215899624E+01  0.20215899624E+01  0.00000000000E+00 0. -1.
         13   -1    0    0    0    0 -0.00000000000E+00 -0.00000000000E+00 -0.10000000000E+04  0.10000000000E+04  0.00000000000E+00 0.  1.
    9000005    2    1    2  501    0  0.17569543961E+02  0.35130250156E+02 -0.74048653624E+03  0.74155107643E+03  0.59046796811E+01 0.  0.
         13    1    3    3    0    0  0.50692375683E+01  0.13540802607E+02 -0.31815341285E+03  0.31848178067E+03  0.00000000000E+00 0.  1.
          3    1    3    3  501    0  0.12500306392E+02  0.21589447549E+02 -0.42233312339E+03  0.42306929576E+03  0.00000000000E+00 0.  1.
         -1    1    1    2    0  502 -0.17569543961E+02 -0.35130250156E+02 -0.25749187379E+03  0.26047051353E+03  0.00000000000E+00 0. -1.
<mgrwt>
<rscale>  1 0.30000000E+03</rscale>
<asrwt>0</asrwt>
<pdfrwt beam="1">  1       21 0.73512517E-02 0.30000000E+03</pdfrwt>
<pdfrwt beam="2">0</pdfrwt>
<totfact> 0.14814711E+04</totfact>
</mgrwt>
</event>
<event>
 6    1  0.1295671E-001  0.3000000E+03  0.7818608E-02  0.1093470E+00
         21   -1    0    0  501  502  0.00000000000E+00  0.00000000000E+00  0.79013480461E+01  0.79013480461E+01  0.00000000000E+00 0. -1.
         13   -1    0    0    0    0 -0.00000000000E+00 -0.00000000000E+00 -0.10000000000E+04  0.10000000000E+04  0.00000000000E+00 0.  1.
    9000005    2    1    2  501    0 -0.32074697033E+02  0.35853754646E+02 -0.91978168395E+03  0.92104501970E+03  0.33621833966E+01 0.  0.
         13    1    3    3    0    0 -0.25310006948E+02  0.26261688765E+02 -0.70520056035E+03  0.70614311798E+03  0.00000000000E+00 0.  1.
          3    1    3    3  501    0 -0.67646900848E+01  0.95920658811E+01 -0.21458112360E+03  0.21490190172E+03  0.00000000000E+00 0.  1.
         -3    1    1    2    0  502  0.32074697033E+02 -0.35853754646E+02 -0.72316968004E+02  0.86856328343E+02  0.00000000000E+00 0. -1.
<mgrwt>
<rscale>  1 0.30000000E+03</rscale>
<asrwt>0</asrwt>
<pdfrwt beam="1">  1       21 0.28732235E-01 0.30000000E+03</pdfrwt>
<pdfrwt beam="2">0</pdfrwt>
<totfact> 0.11850651E+03</totfact>
</mgrwt>
</event>
<event>
 6    1  0.1295671E-001  0.3000000E+03  0.7818608E-02  0.1093470E+00
         21   -1    0    0  501  502  0.00000000000E+00  0.00000000000E+00  0.13937197028E+01  0.13937197028E+01  0.00000000000E+00 0. -1.
         13   -1    0    0    0    0 -0.00000000000E+00 -0.00000000000E+00 -0.10000000000E+04  0.10000000000E+04  0.00000000000E+00 0.  1.
    9000005    2    1    2  501    0  0.24211347591E+02  0.23559560150E+02 -0.71118882278E+03  0.71199773302E+03  0.31603704413E+01 0.  0.
         13    1    3    3    0    0  0.61544181768E+01  0.42045320038E+01 -0.16191806400E+03  0.16208952589E+03  0.00000000000E+00 0.  1.
          3    1    3    3  501    0  0.18056929415E+02  0.19355028146E+02 -0.54927075878E+03  0.54990820713E+03  0.00000000000E+00 0.  1.
         -1    1    1    2    0  502 -0.24211347591E+02 -0.23559560150E+02 -0.28741745751E+03  0.28939598669E+03  0.00000000000E+00 0. -1.
<mgrwt>
<rscale>  1 0.30000000E+03</rscale>
<asrwt>0</asrwt>
<pdfrwt beam="1">  1       21 0.50680823E-02 0.30000000E+03</pdfrwt>
<pdfrwt beam="2">0</pdfrwt>
<totfact> 0.28147920E+04</totfact>
</mgrwt>
</event>
<event>
 6    1  0.1295671E-001  0.3000000E+03  0.7818608E-02  0.1093470E+00
         21   -1    0    0  501  502  0.00000000000E+00  0.00000000000E+00  0.28725391427E+01  0.28725391427E+01  0.00000000000E+00 0. -1.
         13   -1    0    0    0    0 -0.00000000000E+00 -0.00000000000E+00 -0.10000000000E+04  0.10000000000E+04  0.00000000000E+00 0.  1.
    9000005    2    1    2  501    0 -0.41151828141E+02  0.44316481346E+01 -0.81635612770E+03  0.81742338882E+03  0.55278286314E+01 0.  0.
         13    1    3    3    0    0 -0.21353008760E+02  0.17298701478E+01 -0.47506597547E+03  0.47554876141E+03  0.00000000000E+00 0.  1.
          3    1    3    3  501    0 -0.19798819381E+02  0.27017779869E+01 -0.34129015223E+03  0.34187462741E+03  0.00000000000E+00 0.  1.
         -3    1    1    2    0  502  0.41151828141E+02 -0.44316481346E+01 -0.18077133316E+03  0.18544915032E+03  0.00000000000E+00 0. -1.
<mgrwt>
<rscale>  1 0.30000000E+03</rscale>
<asrwt>0</asrwt>
<pdfrwt beam="1">  1       21 0.10445619E-01 0.30000000E+03</pdfrwt>
<pdfrwt beam="2">0</pdfrwt>
<totfact> 0.79575813E+03</totfact>
</mgrwt>
</event>
<event>
 6    1  0.1295671E-001  0.3000000E+03  0.7818608E-02  0.1093470E+00
         21   -1    0    0  501  502  0.00000000000E+00  0.00000000000E+00  0.10199062828E+01  0.10199062828E+01  0.00000000000E+00 0. -1.
         13   -1    0    0    0    0 -0.00000000000E+00 -0.00000000000E+00 -0.10000000000E+04  0.10000000000E+04  0.00000000000E+00 0.  1.
    9000005    2    1    2  501    0  0.85350657718E+01 -0.30013156877E+02 -0.44885309589E+03  0.45000869889E+03  0.80678654992E+01 0.  0.
         13    1    3    3    0    0  0.44078810131E+01 -0.26005796435E+02 -0.38120328911E+03  0.38211474519E+03  0.00000000000E+00 0.  1.
          1    1    3    3  501    0  0.41271847587E+01 -0.40073604423E+01 -0.67649806785E+02  0.67893953706E+02  0.00000000000E+00 0.  1.
         -1    1    1    2    0  502 -0.85350657718E+01  0.30013156877E+02 -0.55012699783E+03  0.55101120739E+03  0.00000000000E+00 0. -1.
<mgrwt>
<rscale>  1 0.30000000E+03</rscale>
<asrwt>0</asrwt>
<pdfrwt beam="1">  1       21 0.37087579E-02 0.30000000E+03</pdfrwt>
<pdfrwt beam="2">0</pdfrwt>
<totfact> 0.47745588E+04</totfact>
</mgrwt>
</event>
<event>
 6    1  0.1295671E-001  0.3000000E+03  0.7818608E-02  0.1093470E+00
         21   -1    0    0  501  502  0.00000000000E+00  0.00000000000E+00  0.23080213830E+01  0.23080213830E+01  0.00000000000E+00 0. -1.
         13   -1    0    0    0    0 -0.00000000000E+00 -0.00000000000E+00 -0.10000000000E+04  0.10000000000E+04  0.00000000000E+00 0.  1.
    9000005    2    1    2  501    0 -0.77301624914E+01 -0.30400591030E+02 -0.87631053753E+03  0.87693894391E+03  0.10853653999E+02 0.  0.
         13    1    3    3    0    0 -0.76285719982E+01 -0.31126000105E+02 -0.86924155045E+03  0.86983210795E+03  0.00000000000E+00 0.  1.
          3    1    3    3  501    0 -0.10159049320E+00  0.72540907446E+00 -0.70689870814E+01  0.71068359564E+01  0.00000000000E+00 0.  1.
         -1    1    1    2    0  502  0.77301624914E+01  0.30400591030E+02 -0.12138144108E+03  0.12536907747E+03  0.00000000000E+00 0. -1.
<mgrwt>
<rscale>  1 0.30000000E+03</rscale>
<asrwt>0</asrwt>
<pdfrwt beam="1">  1       21 0.83928227E-02 0.30000000E+03</pdfrwt>
<pdfrwt beam="2">0</pdfrwt>
<totfact> 0.11740941E+04</totfact>
</mgrwt>
</event>
<event>
 6    1  0.1295671E-001  0.3000000E+03  0.7818608E-02  0.1093470E+00
         21   -1    0    0  501  502  0.00000000000E+00  0.00000000000E+00  0.24964660400E+01  0.24964660400E+01  0.00000000000E+00 0. -1.
         13   -1    0    0    0    0 -0.00000000000E+00 -0.00000000000E+00 -0.10000000000E+04  0.10000000000E+04  0.00000000000E+00 0.  1.
    9000005    2    1    2  501    0  0.18591882752E+02  0.35158522017E+02 -0.80125859781E+03  0.80226196667E+03  0.52098772198E+01 0.  0.
         13    1    3    3    0    0  0.23441520377E+01  0.64453369324E+01 -0.17601112575E+03  0.17614469565E+03  0.00000000000E+00 0.  1.
          1    1    3    3  501    0  0.16247730715E+02  0.28713185085E+02 -0.62524747206E+03  0.62611727102E+03  0.00000000000E+00 0.  1.
         -3    1    1    2    0  502 -0.18591882752E+02 -0.35158522017E+02 -0.19624493615E+03  0.20023449937E+03  0.00000000000E+00 0. -1.
<mgrwt>
<rscale>  1 0.30000000E+03</rscale>
<asrwt>0</asrwt>
<pdfrwt beam="1">  1       21 0.90780775E-02 0.30000000E+03</pdfrwt>
<pdfrwt beam="2">0</pdfrwt>
<totfact> 0.10220417E+04</totfact>
</mgrwt>
</event>
<event>
 6    1  0.1295671E-001  0.3000000E+03  0.7818608E-02  0.1093470E+00
         21   -1    0    0  501  502  0.00000000000E+00  0.00000000000E+00  0.18905086129E+01  0.18905086129E+01  0.00000000000E+00 0. -1.
         13   -1    0    0    0    0 -0.00000000000E+00 -0.00000000000E+00 -0.10000000000E+04  0.10000000000E+04  0.00000000000E+00 0.  1.
    9000005    2    1    2  501    0 -0.20451522356E+02 -0.24980263860E+02 -0.83432117517E+03  0.83495072642E+03  0.29349385654E+01 0.  0.
         13    1    3    3    0    0 -0.12789888495E+02 -0.17739704316E+02 -0.55522778417E+03  0.55565832188E+03  0.00000000000E+00 0.  1.
          3    1    3    3  501    0 -0.76616338604E+01 -0.72405595432E+01 -0.27909339100E+03  0.27929240454E+03  0.00000000000E+00 0.  1.
         -3    1    1    2    0  502  0.20451522356E+02  0.24980263860E+02 -0.16378831622E+03  0.16693978219E+03  0.00000000000E+00 0. -1.
<mgrwt>
<rscale>  1 0.30000000E+03</rscale>
<asrwt>0</asrwt>
<pdfrwt beam="1">  1       21 0.68745913E-02 0.30000000E+03</pdfrwt>
<pdfrwt beam="2">0</pdfrwt>
<totfact> 0.16650626E+04</totfact>
</mgrwt>
</event>
<event>
 6    1  0.1295671E-001  0.3000000E+03  0.7818608E-02  0.1093470E+00
         21   -1    0    0  501  502  0.00000000000E+00  0.00000000000E+00  0.61018460343E+01  0.61018460343E+01  0.00000000000E+00 0. -1.
         13   -1    0    0    0    0 -0.00000000000E+00 -0.00000000000E+00 -0.10000000000E+04  0.10000000000E+04  0.00000000000E+00 0.  1.
    9000005    2    1    2  501    0 -0.40706953540E+02  0.14445344739E+02 -0.91604586997E+03  0.91706981711E+03  0.33599871449E+01 0.  0.
         13    1    3    3    0    0 -0.15227306735E+02  0.45542421388E+01 -0.30755245651E+03  0.30796286382E+03  0.00000000000E+00 0.  1.
          1    1    3    3  501    0 -0.25479646805E+02  0.98911026004E+01 -0.60849341346E+03  0.60910695328E+03  0.00000000000E+00 0.  1.
         -3    1    1    2    0  502  0.40706953540E+02 -0.14445344739E+02 -0.77852284000E+02  0.89032028928E+02  0.00000000000E+00 0. -1.
<mgrwt>
<rscale>  1 0.30000000E+03</rscale>
<asrwt>0</asrwt>
<pdfrwt beam="1">  1       21 0.22188578E-01 0.30000000E+03</pdfrwt>
<pdfrwt beam="2">0</pdfrwt>
<totfact> 0.19660034E+03</totfact>
</mgrwt>
</event>
<event>
 6    1  0.1295671E-001  0.3000000E+03  0.7818608E-02  0.1093470E+00
         21   -1    0    0  501  502  0.00000000000E+00  0.00000000000E+00  0.10970228987E+01  0.10970228987E+01  0.00000000000E+00 0. -1.
         13   -1    0    0    0    0 -0.00000000000E+00 -0.00000000000E+00 -0.10000000000E+04  0.10000000000E+04  0.00000000000E+00 0.  1.
    9000005    2    1    2  501    0 -0.16925909057E+02 -0.27036210060E+02 -0.36960203892E+03  0.37098821178E+03  0.30237485321E+01 0.  0.
         13    1    3    3    0    0 -0.78908395773E+01 -0.15232578399E+02 -0.19136324070E+03  0.19213065004E+03  0.00000000000E+00 0.  1.
          3    1    3    3  501    0 -0.90350694793E+01 -0.11803631661E+02 -0.17823879822E+03  0.17885756174E+03  0.00000000000E+00 0.  1.
         -3    1    1    2    0  502  0.16925909057E+02  0.27036210060E+02 -0.62930093818E+03  0.63010881112E+03  0.00000000000E+00 0. -1.
<mgrwt>
<rscale>  1 0.30000000E+03</rscale>
<asrwt>0</asrwt>
<pdfrwt beam="1">  1       21 0.39891826E-02 0.30000000E+03</pdfrwt>
<pdfrwt beam="2">0</pdfrwt>
<totfact> 0.42239500E+04</totfact>
</mgrwt>
</event>
<event>
 6    1  0.1295671E-001  0.3000000E+03  0.7818608E-02  0.1093470E+00
         21   -1    0    0  501  502  0.00000000000E+00  0.00000000000E+00  0.14314530278E+01  0.14314530278E+01  0.00000000000E+00 0. -1.
         13   -1    0    0    0    0 -0.00000000000E+00 -0.00000000000E+00 -0.10000000000E+04  0.10000000000E+04  0.00000000000E+00 0.  1.
    9000005    2    1    2  501    0  0.35505922094E+02 -0.61446847638E+01 -0.35232729375E+03  0.35418637964E+03  0.38783951381E+01 0.  0.
         13    1    3    3    0    0  0.89339545359E+01 -0.24622790233E+01 -0.10519086307E+03  0.10559827667E+03  0.00000000000E+00 0.  1.
          1    1    3    3  501    0  0.26571967558E+02 -0.36824057406E+01 -0.24713643068E+03  0.24858810297E+03  0.00000000000E+00 0.  1.
         -1    1    1    2    0  502 -0.35505922094E+02  0.61446847638E+01 -0.64624125322E+03  0.64724507339E+03  0.00000000000E+00 0. -1.
<mgrwt>
<rscale>  1 0.30000000E+03</rscale>
<asrwt>0</asrwt>
<pdfrwt beam="1">  1       21 0.52052947E-02 0.30000000E+03</pdfrwt>
<pdfrwt beam="2">0</pdfrwt>
<totfact> 0.26893086E+04</totfact>
</mgrwt>
</event>
<event>
 6    1  0.1295671E-001  0.3000000E+03  0.7818608E-02  0.1093470E+00
         21   -1    0    0  501  502  0.00000000000E+00  0.00000000000E+00  0.19197198373E+01  0.19197198373E+01  0.00000000000E+00 0. -1.
         13   -1    0    0    0    0 -0.00000000000E+00 -0.00000000000E+00 -0.10000000000E+04  0.10000000000E+04  0.00000000000E+00 0.  1.
    9000005    2    1    2  501    0  0.26154716564E+02  0.32965684042E+02 -0.63697240849E+03  0.63836820972E+03  0.30522915170E+01 0.  0.
         13    1    3    3    0    0  0.18959283844E+02  0.22055897679E+02 -0.42676339864E+03  0.42775333486E+03  0.00000000000E+00 0.  1.
          1    1    3    3  501    0  0.71954327204E+01  0.10909786364E+02 -0.21020900985E+03  0.21061487486E+03  0.00000000000E+00 0.  1.
         -1    1    1    2    0  502 -0.26154716564E+02 -0.32965684042E+02 -0.36110787167E+03  0.36355151012E+03  0.00000000000E+00 0. -1.
<mgrwt>
<rscale>  1 0.30000000E+03</rscale>
<asrwt>0</asrwt>
<pdfrwt beam="1">  1       21 0.69808141E-02 0.30000000E+03</pdfrwt>
<pdfrwt beam="2">0</pdfrwt>
<totfact> 0.16212533E+04</totfact>
</mgrwt>
</event>
<event>
 6    1  0.1295671E-001  0.3000000E+03  0.7818608E-02  0.1093470E+00
         21   -1    0    0  501  502  0.00000000000E+00  0.00000000000E+00  0.11292575598E+02  0.11292575598E+02  0.00000000000E+00 0. -1.
         13   -1    0    0    0    0 -0.00000000000E+00 -0.00000000000E+00 -0.10000000000E+04  0.10000000000E+04  0.00000000000E+00 0.  1.
    9000005    2    1    2  501    0 -0.33284215764E+02  0.18655642173E+02 -0.96627032323E+03  0.96702864544E+03  0.31924194877E+01 0.  0.
         13    1    3    3    0    0 -0.14521540789E+02  0.71103478527E+01 -0.44210943323E+03  0.44240499901E+03  0.00000000000E+00 0.  1.
          3    1    3    3  501    0 -0.18762674975E+02  0.11545294321E+02 -0.52416089000E+03  0.52462364644E+03  0.00000000000E+00 0.  1.
         -1    1    1    2    0  502  0.33284215764E+02 -0.18655642173E+02 -0.22437101171E+02  0.44263930156E+02  0.00000000000E+00 0. -1.
<mgrwt>
<rscale>  1 0.30000000E+03</rscale>
<asrwt>0</asrwt>
<pdfrwt beam="1">  1       21 0.41063998E-01 0.30000000E+03</pdfrwt>
<pdfrwt beam="2">0</pdfrwt>
<totfact> 0.57172119E+02</totfact>
</mgrwt>
</event>
<event>
 6    1  0.1295671E-001  0.3000000E+03  0.7818608E-02  0.1093470E+00
         21   -1    0    0  501  502  0.00000000000E+00  0.00000000000E+00  0.32483805313E+01  0.32483805313E+01  0.00000000000E+00 0. -1.
         13   -1    0    0    0    0 -0.00000000000E+00 -0.00000000000E+00 -0.10000000000E+04  0.10000000000E+04  0.00000000000E+00 0.  1.
    9000005    2    1    2  501    0  0.48745335139E+02 -0.28099107978E+02 -0.57620674981E+03  0.57895643510E+03  0.32661357505E+01 0.  0.
         13    1    3    3    0    0  0.43239971272E+02 -0.24989967788E+02 -0.50010080846E+03  0.50258831286E+03  0.00000000000E+00 0.  1.
          1    1    3    3  501    0  0.55053638668E+01 -0.31091401897E+01 -0.76105941356E+02  0.76368122235E+02  0.00000000000E+00 0.  1.
         -1    1    1    2    0  502 -0.48745335139E+02  0.28099107978E+02 -0.42054486966E+03  0.42429194544E+03  0.00000000000E+00 0. -1.
<mgrwt>
<rscale>  1 0.30000000E+03</rscale>
<asrwt>0</asrwt>
<pdfrwt beam="1">  1       21 0.11812318E-01 0.30000000E+03</pdfrwt>
<pdfrwt beam="2">0</pdfrwt>
<totfact> 0.63768160E+03</totfact>
</mgrwt>
</event>
<event>
 6    1  0.1295671E-001  0.3000000E+03  0.7818608E-02  0.1093470E+00
         21   -1    0    0  501  502  0.00000000000E+00  0.00000000000E+00  0.36939081444E+01  0.36939081444E+01  0.00000000000E+00 0. -1.
         13   -1    0    0    0    0 -0.00000000000E+00 -0.00000000000E+00 -0.10000000000E+04  0.10000000000E+04  0.00000000000E+00 0.  1.
    9000005    2    1    2  501    0 -0.29758681554E+02  0.64171018049E+01 -0.93220845138E+03  0.93273430106E+03  0.73431070566E+01 0.  0.
         13    1    3    3    0    0 -0.19571799533E+02  0.18989820531E+01 -0.67137811869E+03  0.67166601800E+03  0.00000000000E+00 0.  1.
          1    1    3    3  501    0 -0.10186882021E+02  0.45181197519E+01 -0.26083033269E+03  0.26106828306E+03  0.00000000000E+00 0.  1.
         -1    1    1    2    0  502  0.29758681554E+02 -0.64171018049E+01 -0.64097640473E+02  0.70959607085E+02  0.00000000000E+00 0. -1.
<mgrwt>
<rscale>  1 0.30000000E+03</rscale>
<asrwt>0</asrwt>
<pdfrwt beam="1">  1       21 0.13432422E-01 0.30000000E+03</pdfrwt>
<pdfrwt beam="2">0</pdfrwt>
<totfact> 0.50454519E+03</totfact>
</mgrwt>
</event>
<event>
 6    1  0.1295671E-001  0.3000000E+03  0.7818608E-02  0.1093470E+00
         21   -1    0    0  501  502  0.00000000000E+00  0.00000000000E+00  0.14036243829E+01  0.14036243829E+01  0.00000000000E+00 0. -1.
         13   -1    0    0    0    0 -0.00000000000E+00 -0.00000000000E+00 -0.10000000000E+04  0.10000000000E+04  0.00000000000E+00 0.  1.
    9000005    2    1    2  501    0 -0.37269319509E+01  0.35602440927E+02 -0.64470001350E+03  0.64570141896E+03  0.32849993481E+01 0.  0.
         13    1    3    3    0    0 -0.24894430377E+00  0.23895072332E+01 -0.60546111003E+02  0.60593756078E+02  0.00000000000E+00 0.  1.
          1    1    3    3  501    0 -0.34779876471E+01  0.33212933694E+02 -0.58415390249E+03  0.58510766288E+03  0.00000000000E+00 0.  1.
         -1    1    1    2    0  502  0.37269319509E+01 -0.35602440927E+02 -0.35389636212E+03  0.35570220542E+03  0.00000000000E+00 0. -1.
<mgrwt>
<rscale>  1 0.30000000E+03</rscale>
<asrwt>0</asrwt>
<pdfrwt beam="1">  1       21 0.51040994E-02 0.30000000E+03</pdfrwt>
<pdfrwt beam="2">0</pdfrwt>
<totfact> 0.27809866E+04</totfact>
</mgrwt>
</event>
<event>
 6    1  0.1295671E-001  0.3000000E+03  0.7818608E-02  0.1093470E+00
         21   -1    0    0  501  502  0.00000000000E+00  0.00000000000E+00  0.58853952897E+01  0.58853952897E+01  0.00000000000E+00 0. -1.
         13   -1    0    0    0    0 -0.00000000000E+00 -0.00000000000E+00 -0.10000000000E+04  0.10000000000E+04  0.00000000000E+00 0.  1.
    9000005    2    1    2  501    0 -0.59480581267E+02 -0.38600949729E+02 -0.68829462047E+03  0.69195254319E+03  0.45677772594E+01 0.  0.
         13    1    3    3    0    0 -0.58296505439E+02 -0.37826894255E+02 -0.66682818097E+03  0.67043954196E+03  0.00000000000E+00 0.  1.
          3    1    3    3  501    0 -0.11840758276E+01 -0.77405547388E+00 -0.21466439495E+02  0.21513001232E+02  0.00000000000E+00 0.  1.
         -1    1    1    2    0  502  0.59480581267E+02  0.38600949729E+02 -0.30581998424E+03  0.31393285210E+03  0.00000000000E+00 0. -1.
<mgrwt>
<rscale>  1 0.30000000E+03</rscale>
<asrwt>0</asrwt>
<pdfrwt beam="1">  1       21 0.21401483E-01 0.30000000E+03</pdfrwt>
<pdfrwt beam="2">0</pdfrwt>
<totfact> 0.21074464E+03</totfact>
</mgrwt>
</event>
<event>
 6    1  0.1295671E-001  0.3000000E+03  0.7818608E-02  0.1093470E+00
         21   -1    0    0  501  502  0.00000000000E+00  0.00000000000E+00  0.23731492695E+01  0.23731492695E+01  0.00000000000E+00 0. -1.
         13   -1    0    0    0    0 -0.00000000000E+00 -0.00000000000E+00 -0.10000000000E+04  0.10000000000E+04  0.00000000000E+00 0.  1.
    9000005    2    1    2  501    0 -0.85859964677E+01  0.30225934537E+02 -0.11671404260E+03  0.12090011963E+03  0.27101166933E+01 0.  0.
         13    1    3    3    0    0  0.19316912400E+00  0.35775426874E+00 -0.14634977186E+01  0.15189233028E+01  0.00000000000E+00 0.  1.
          3    1    3    3  501    0 -0.87791655917E+01  0.29868180268E+02 -0.11525054488E+03  0.11938119633E+03  0.00000000000E+00 0.  1.
         -1    1    1    2    0  502  0.85859964677E+01 -0.30225934537E+02 -0.88091280813E+03  0.88147302964E+03  0.00000000000E+00 0. -1.
<mgrwt>
<rscale>  1 0.30000000E+03</rscale>
<asrwt>0</asrwt>
<pdfrwt beam="1">  1       21 0.86296519E-02 0.30000000E+03</pdfrwt>
<pdfrwt beam="2">0</pdfrwt>
<totfact> 0.11178667E+04</totfact>
</mgrwt>
</event>
<event>
 6    1  0.1295671E-001  0.3000000E+03  0.7818608E-02  0.1093470E+00
         21   -1    0    0  501  502  0.00000000000E+00  0.00000000000E+00  0.21606808614E+01  0.21606808614E+01  0.00000000000E+00 0. -1.
         13   -1    0    0    0    0 -0.00000000000E+00 -0.00000000000E+00 -0.10000000000E+04  0.10000000000E+04  0.00000000000E+00 0.  1.
    9000005    2    1    2  501    0 -0.42295887724E+02  0.21552669413E+01 -0.70457710729E+03  0.70585625600E+03  0.32506497384E+01 0.  0.
         13    1    3    3    0    0 -0.23658041681E+02 -0.33839261376E+00 -0.40051747830E+03  0.40121573731E+03  0.00000000000E+00 0.  1.
          1    1    3    3  501    0 -0.18637846042E+02  0.24936595551E+01 -0.30405962899E+03  0.30464051869E+03  0.00000000000E+00 0.  1.
         -3    1    1    2    0  502  0.42295887724E+02 -0.21552669413E+01 -0.29326221185E+03  0.29630442486E+03  0.00000000000E+00 0. -1.
<mgrwt>
<rscale>  1 0.30000000E+03</rscale>
<asrwt>0</asrwt>
<pdfrwt beam="1">  1       21 0.78570379E-02 0.30000000E+03</pdfrwt>
<pdfrwt beam="2">0</pdfrwt>
<totfact> 0.13184712E+04</totfact>
</mgrwt>
</event>
<event>
 6    1  0.1295671E-001  0.3000000E+03  0.7818608E-02  0.1093470E+00
         21   -1    0    0  501  502  0.00000000000E+00  0.00000000000E+00  0.26981783024E+01  0.26981783024E+01  0.00000000000E+00 0. -1.
         13   -1    0    0    0    0 -0.00000000000E+00 -0.00000000000E+00 -0.10000000000E+04  0.10000000000E+04  0.00000000000E+00 0.  1.
    9000005    2    1    2  501    0 -0.16572500435E+02  0.49148357516E+02 -0.51228940345E+03  0.51492030399E+03  0.35039625911E+01 0.  0.
         13    1    3    3    0    0 -0.70770264205E+01  0.25841157705E+02 -0.25609152429E+03  0.25748925909E+03  0.00000000000E+00 0.  1.
          1    1    3    3  501    0 -0.94954740150E+01  0.23307199811E+02 -0.25619787916E+03  0.25743104489E+03  0.00000000000E+00 0.  1.
         -1    1    1    2    0  502  0.16572500435E+02 -0.49148357516E+02 -0.48501241825E+03  0.48777787432E+03  0.00000000000E+00 0. -1.
<mgrwt>
<rscale>  1 0.30000000E+03</rscale>
<asrwt>0</asrwt>
<pdfrwt beam="1">  1       21 0.98115782E-02 0.30000000E+03</pdfrwt>
<pdfrwt beam="2">0</pdfrwt>
<totfact> 0.89004722E+03</totfact>
</mgrwt>
</event>
<event>
 6    1  0.1295671E-001  0.3000000E+03  0.7818608E-02  0.1093470E+00
         21   -1    0    0  501  502  0.00000000000E+00  0.00000000000E+00  0.26766622043E+01  0.26766622043E+01  0.00000000000E+00 0. -1.
         13   -1    0    0    0    0 -0.00000000000E+00 -0.00000000000E+00 -0.10000000000E+04  0.10000000000E+04  0.00000000000E+00 0.  1.
    9000005    2    1    2  501    0 -0.30811850727E+02 -0.16025353971E+02 -0.87010976425E+03  0.87080750202E+03  0.29191787638E+01 0.  0.
         13    1    3    3    0    0 -0.19354988930E+02 -0.92123886049E+01 -0.56597514387E+03  0.56638092056E+03  0.00000000000E+00 0.  1.
          1    1    3    3  501    0 -0.11456861797E+02 -0.68129653663E+01 -0.30413462038E+03  0.30442658145E+03  0.00000000000E+00 0.  1.
         -3    1    1    2    0  502  0.30811850727E+02  0.16025353971E+02 -0.12721357354E+03  0.13186916019E+03  0.00000000000E+00 0. -1.
<mgrwt>
<rscale>  1 0.30000000E+03</rscale>
<asrwt>0</asrwt>
<pdfrwt beam="1">  1       21 0.97333376E-02 0.30000000E+03</pdfrwt>
<pdfrwt beam="2">0</pdfrwt>
<totfact> 0.90285476E+03</totfact>
</mgrwt>
</event>
<event>
 6    1  0.1295671E-001  0.3000000E+03  0.7818608E-02  0.1093470E+00
         21   -1    0    0  501  502  0.00000000000E+00  0.00000000000E+00  0.11168375988E+01  0.11168375988E+01  0.00000000000E+00 0. -1.
         13   -1    0    0    0    0 -0.00000000000E+00 -0.00000000000E+00 -0.10000000000E+04  0.10000000000E+04  0.00000000000E+00 0.  1.
    9000005    2    1    2  501    0 -0.31470156615E+02 -0.91629065957E+01 -0.42681703325E+03  0.42811248706E+03  0.57612576259E+01 0.  0.
         13    1    3    3    0    0 -0.15805692991E+02 -0.27927730246E+01 -0.23749402458E+03  0.23803577719E+03  0.00000000000E+00 0.  1.
          3    1    3    3  501    0 -0.15664463624E+02 -0.63701335711E+01 -0.18932300867E+03  0.19007670987E+03  0.00000000000E+00 0.  1.
         -3    1    1    2    0  502  0.31470156615E+02  0.91629065957E+01 -0.57206612915E+03  0.57300435054E+03  0.00000000000E+00 0. -1.
<mgrwt>
<rscale>  1 0.30000000E+03</rscale>
<asrwt>0</asrwt>
<pdfrwt beam="1">  1       21 0.40612362E-02 0.30000000E+03</pdfrwt>
<pdfrwt beam="2">0</pdfrwt>
<totfact> 0.40984754E+04</totfact>
</mgrwt>
</event>
<event>
 6    1  0.1295671E-001  0.3000000E+03  0.7818608E-02  0.1093470E+00
         21   -1    0    0  501  502  0.00000000000E+00  0.00000000000E+00  0.16941205453E+01  0.16941205453E+01  0.00000000000E+00 0. -1.
         13   -1    0    0    0    0 -0.00000000000E+00 -0.00000000000E+00 -0.10000000000E+04  0.10000000000E+04  0.00000000000E+00 0.  1.
    9000005    2    1    2  501    0  0.36512214812E+02  0.10278621457E+02 -0.69145958658E+03  0.69251223340E+03  0.42475454151E+01 0.  0.
         13    1    3    3    0    0  0.13404081561E+02  0.18611458901E+01 -0.23004968446E+03  0.23044737054E+03  0.00000000000E+00 0.  1.
          3    1    3    3  501    0  0.23108133250E+02  0.84174755669E+01 -0.46140990212E+03  0.46206486286E+03  0.00000000000E+00 0.  1.
         -3    1    1    2    0  502 -0.36512214812E+02 -0.10278621457E+02 -0.30684629287E+03  0.30918188715E+03  0.00000000000E+00 0. -1.
<mgrwt>
<rscale>  1 0.30000000E+03</rscale>
<asrwt>0</asrwt>
<pdfrwt beam="1">  1       21 0.61604513E-02 0.30000000E+03</pdfrwt>
<pdfrwt beam="2">0</pdfrwt>
<totfact> 0.20133600E+04</totfact>
</mgrwt>
</event>
<event>
 6    1  0.1295671E-001  0.3000000E+03  0.7818608E-02  0.1093470E+00
         21   -1    0    0  501  502  0.00000000000E+00  0.00000000000E+00  0.11695991063E+01  0.11695991063E+01  0.00000000000E+00 0. -1.
         13   -1    0    0    0    0 -0.00000000000E+00 -0.00000000000E+00 -0.10000000000E+04  0.10000000000E+04  0.00000000000E+00 0.  1.
    9000005    2    1    2  501    0  0.30370224099E+01  0.31474144429E+02 -0.31280807192E+03  0.31441893029E+03  0.32447791998E+01 0.  0.
         13    1    3    3    0    0  0.26162855288E+01  0.14769267356E+02 -0.13708580229E+03  0.13790392814E+03  0.00000000000E+00 0.  1.
          1    1    3    3  501    0  0.42073688109E+00  0.16704877074E+02 -0.17572226963E+03  0.17651500214E+03  0.00000000000E+00 0.  1.
         -3    1    1    2    0  502 -0.30370224099E+01 -0.31474144429E+02 -0.68602232898E+03  0.68675066882E+03  0.00000000000E+00 0. -1.
<mgrwt>
<rscale>  1 0.30000000E+03</rscale>
<asrwt>0</asrwt>
<pdfrwt beam="1">  1       21 0.42530966E-02 0.30000000E+03</pdfrwt>
<pdfrwt beam="2">0</pdfrwt>
<totfact> 0.37913249E+04</totfact>
</mgrwt>
</event>
<event>
 6    1  0.1295671E-001  0.3000000E+03  0.7818608E-02  0.1093470E+00
         21   -1    0    0  501  502  0.00000000000E+00  0.00000000000E+00  0.11876191367E+01  0.11876191367E+01  0.00000000000E+00 0. -1.
         13   -1    0    0    0    0 -0.00000000000E+00 -0.00000000000E+00 -0.10000000000E+04  0.10000000000E+04  0.00000000000E+00 0.  1.
    9000005    2    1    2  501    0  0.18240270572E+02  0.24287518823E+02 -0.26588229471E+03  0.26762841755E+03  0.29973654977E+01 0.  0.
         13    1    3    3    0    0  0.25414370196E+01  0.32664338339E+01 -0.28112057367E+02  0.28415071028E+02  0.00000000000E+00 0.  1.
          3    1    3    3  501    0  0.15698833552E+02  0.21021084989E+02 -0.23777023735E+03  0.23921334653E+03  0.00000000000E+00 0.  1.
         -3    1    1    2    0  502 -0.18240270572E+02 -0.24287518823E+02 -0.73293008615E+03  0.73355920158E+03  0.00000000000E+00 0. -1.
<mgrwt>
<rscale>  1 0.30000000E+03</rscale>
<asrwt>0</asrwt>
<pdfrwt beam="1">  1       21 0.43186241E-02 0.30000000E+03</pdfrwt>
<pdfrwt beam="2">0</pdfrwt>
<totfact> 0.36945673E+04</totfact>
</mgrwt>
</event>
<event>
 6    1  0.1295671E-001  0.3000000E+03  0.7818608E-02  0.1093470E+00
         21   -1    0    0  501  502  0.00000000000E+00  0.00000000000E+00  0.46051077169E+01  0.46051077169E+01  0.00000000000E+00 0. -1.
         13   -1    0    0    0    0 -0.00000000000E+00 -0.00000000000E+00 -0.10000000000E+04  0.10000000000E+04  0.00000000000E+00 0.  1.
    9000005    2    1    2  501    0 -0.61202426047E+02 -0.58030456061E+00 -0.71428698142E+03  0.71691129260E+03  0.31362274051E+01 0.  0.
         13    1    3    3    0    0 -0.14115068960E+02 -0.23834939202E+00 -0.14983664421E+03  0.15050020575E+03  0.00000000000E+00 0.  1.
          1    1    3    3  501    0 -0.47087357087E+02 -0.34195516859E+00 -0.56445033720E+03  0.56641108684E+03  0.00000000000E+00 0.  1.
         -3    1    1    2    0  502  0.61202426047E+02  0.58030456061E+00 -0.28110791087E+03  0.28769381512E+03  0.00000000000E+00 0. -1.
<mgrwt>
<rscale>  1 0.30000000E+03</rscale>
<asrwt>0</asrwt>
<pdfrwt beam="1">  1       21 0.16745882E-01 0.30000000E+03</pdfrwt>
<pdfrwt beam="2">0</pdfrwt>
<totfact> 0.33547716E+03</totfact>
</mgrwt>
</event>
<event>
 6    1  0.1295671E-001  0.3000000E+03  0.7818608E-02  0.1093470E+00
         21   -1    0    0  501  502  0.00000000000E+00  0.00000000000E+00  0.23539871971E+01  0.23539871971E+01  0.00000000000E+00 0. -1.
         13   -1    0    0    0    0 -0.00000000000E+00 -0.00000000000E+00 -0.10000000000E+04  0.10000000000E+04  0.00000000000E+00 0.  1.
    9000005    2    1    2  501    0  0.10704172688E+02  0.35474013027E+02 -0.82201575462E+03  0.82285754572E+03  0.34139117533E+01 0.  0.
         13    1    3    3    0    0  0.87756725246E+01  0.32084763673E+02 -0.74775411626E+03  0.74849359574E+03  0.00000000000E+00 0.  1.
          3    1    3    3  501    0  0.19285001635E+01  0.33892493535E+01 -0.74261638362E+02  0.74363949977E+02  0.00000000000E+00 0.  1.
         -1    1    1    2    0  502 -0.10704172688E+02 -0.35474013027E+02 -0.17563025819E+03  0.17949644148E+03  0.00000000000E+00 0. -1.
<mgrwt>
<rscale>  1 0.30000000E+03</rscale>
<asrwt>0</asrwt>
<pdfrwt beam="1">  1       21 0.85599715E-02 0.30000000E+03</pdfrwt>
<pdfrwt beam="2">0</pdfrwt>
<totfact> 0.11339762E+04</totfact>
</mgrwt>
</event>
<event>
 6    1  0.1295671E-001  0.3000000E+03  0.7818608E-02  0.1093470E+00
         21   -1    0    0  501  502  0.00000000000E+00  0.00000000000E+00  0.22862460960E+02  0.22862460960E+02  0.00000000000E+00 0. -1.
         13   -1    0    0    0    0 -0.00000000000E+00 -0.00000000000E+00 -0.10000000000E+04  0.10000000000E+04  0.00000000000E+00 0.  1.
    9000005    2    1    2  501    0  0.82716408233E+02  0.44470990645E+02 -0.88937648391E+03  0.89432578916E+03  0.29006596741E+01 0.  0.
         13    1    3    3    0    0  0.21107513941E+02  0.12332214403E+02 -0.22269660895E+03  0.22403435070E+03  0.00000000000E+00 0.  1.
          3    1    3    3  501    0  0.61608894292E+02  0.32138776243E+02 -0.66667987496E+03  0.67029143846E+03  0.00000000000E+00 0.  1.
         -1    1    1    2    0  502 -0.82716408233E+02 -0.44470990645E+02 -0.87761055132E+02  0.12853667180E+03  0.00000000000E+00 0. -1.
<mgrwt>
<rscale>  1 0.30000000E+03</rscale>
<asrwt>0</asrwt>
<pdfrwt beam="1">  1       21 0.83136397E-01 0.30000000E+03</pdfrwt>
<pdfrwt beam="2">0</pdfrwt>
<totfact> 0.11724821E+02</totfact>
</mgrwt>
</event>
<event>
 6    1  0.1295671E-001  0.3000000E+03  0.7818608E-02  0.1093470E+00
         21   -1    0    0  501  502  0.00000000000E+00  0.00000000000E+00  0.10234363271E+01  0.10234363271E+01  0.00000000000E+00 0. -1.
         13   -1    0    0    0    0 -0.00000000000E+00 -0.00000000000E+00 -0.10000000000E+04  0.10000000000E+04  0.00000000000E+00 0.  1.
    9000005    2    1    2  501    0  0.95164246148E+01 -0.28926774183E+02 -0.64831744487E+03  0.64904454747E+03  0.39993342698E+01 0.  0.
         13    1    3    3    0    0  0.50200794263E+01 -0.11480387562E+02 -0.23331774784E+03  0.23365395771E+03  0.00000000000E+00 0.  1.
          1    1    3    3  501    0  0.44963451886E+01 -0.17446386622E+02 -0.41499969703E+03  0.41539058976E+03  0.00000000000E+00 0.  1.
         -3    1    1    2    0  502 -0.95164246148E+01  0.28926774183E+02 -0.35065911880E+03  0.35197888886E+03  0.00000000000E+00 0. -1.
<mgrwt>
<rscale>  1 0.30000000E+03</rscale>
<asrwt>0</asrwt>
<pdfrwt beam="1">  1       21 0.37215945E-02 0.30000000E+03</pdfrwt>
<pdfrwt beam="2">0</pdfrwt>
<totfact> 0.47469456E+04</totfact>
</mgrwt>
</event>
<event>
 6    1  0.1295671E-001  0.3000000E+03  0.7818608E-02  0.1093470E+00
         21   -1    0    0  501  502  0.00000000000E+00  0.00000000000E+00  0.30396148975E+01  0.30396148975E+01  0.00000000000E+00 0. -1.
         13   -1    0    0    0    0 -0.00000000000E+00 -0.00000000000E+00 -0.10000000000E+04  0.10000000000E+04  0.00000000000E+00 0.  1.
    9000005    2    1    2  501    0 -0.23301928531E+02  0.38984275558E+02 -0.78232046604E+03  0.78364716181E+03  0.38482493567E+01 0.  0.
         13    1    3    3    0    0 -0.13697533075E+02  0.24744039085E+02 -0.51395023769E+03  0.51472782780E+03  0.00000000000E+00 0.  1.
          3    1    3    3  501    0 -0.96043954555E+01  0.14240236473E+02 -0.26837022834E+03  0.26891933402E+03  0.00000000000E+00 0.  1.
         -1    1    1    2    0  502  0.23301928531E+02 -0.38984275558E+02 -0.21463991907E+03  0.21939245309E+03  0.00000000000E+00 0. -1.
<mgrwt>
<rscale>  1 0.30000000E+03</rscale>
<asrwt>0</asrwt>
<pdfrwt beam="1">  1       21 0.11053168E-01 0.30000000E+03</pdfrwt>
<pdfrwt beam="2">0</pdfrwt>
<totfact> 0.71893696E+03</totfact>
</mgrwt>
</event>
<event>
 6    1  0.1295671E-001  0.3000000E+03  0.7818608E-02  0.1093470E+00
         21   -1    0    0  501  502  0.00000000000E+00  0.00000000000E+00  0.36812131970E+01  0.36812131970E+01  0.00000000000E+00 0. -1.
         13   -1    0    0    0    0 -0.00000000000E+00 -0.00000000000E+00 -0.10000000000E+04  0.10000000000E+04  0.00000000000E+00 0.  1.
    9000005    2    1    2  501    0 -0.40336625186E+02 -0.12965507739E+01 -0.87246372104E+03  0.87341686009E+03  0.59449627839E+01 0.  0.
         13    1    3    3    0    0 -0.31504231941E+02 -0.17499700097E+00 -0.62581952276E+03  0.62661201897E+03  0.00000000000E+00 0.  1.
          1    1    3    3  501    0 -0.88323932457E+01 -0.11215537729E+01 -0.24664419828E+03  0.24680484111E+03  0.00000000000E+00 0.  1.
         -3    1    1    2    0  502  0.40336625186E+02  0.12965507739E+01 -0.12385506576E+03  0.13026435311E+03  0.00000000000E+00 0. -1.
<mgrwt>
<rscale>  1 0.30000000E+03</rscale>
<asrwt>0</asrwt>
<pdfrwt beam="1">  1       21 0.13386258E-01 0.30000000E+03</pdfrwt>
<pdfrwt beam="2">0</pdfrwt>
<totfact> 0.50773467E+03</totfact>
</mgrwt>
</event>
<event>
 6    1  0.1295671E-001  0.3000000E+03  0.7818608E-02  0.1093470E+00
         21   -1    0    0  501  502  0.00000000000E+00  0.00000000000E+00  0.60681362319E+01  0.60681362319E+01  0.00000000000E+00 0. -1.
         13   -1    0    0    0    0 -0.00000000000E+00 -0.00000000000E+00 -0.10000000000E+04  0.10000000000E+04  0.00000000000E+00 0.  1.
    9000005    2    1    2  501    0  0.56724704374E+02  0.48076884631E+02 -0.34868653344E+03  0.35655245880E+03  0.42753187297E+01 0.  0.
         13    1    3    3    0    0  0.43167700441E+02  0.36129386863E+02 -0.27229262051E+03  0.27805045251E+03  0.00000000000E+00 0.  1.
          3    1    3    3  501    0  0.13557003934E+02  0.11947497768E+02 -0.76393912929E+02  0.78502006288E+02  0.00000000000E+00 0.  1.
         -1    1    1    2    0  502 -0.56724704374E+02 -0.48076884631E+02 -0.64524533033E+03  0.64951567744E+03  0.00000000000E+00 0. -1.
<mgrwt>
<rscale>  1 0.30000000E+03</rscale>
<asrwt>0</asrwt>
<pdfrwt beam="1">  1       21 0.22065996E-01 0.30000000E+03</pdfrwt>
<pdfrwt beam="2">0</pdfrwt>
<totfact> 0.19870984E+03</totfact>
</mgrwt>
</event>
<event>
 6    1  0.1295671E-001  0.3000000E+03  0.7818608E-02  0.1093470E+00
         21   -1    0    0  501  502  0.00000000000E+00  0.00000000000E+00  0.24785610866E+01  0.24785610866E+01  0.00000000000E+00 0. -1.
         13   -1    0    0    0    0 -0.00000000000E+00 -0.00000000000E+00 -0.10000000000E+04  0.10000000000E+04  0.00000000000E+00 0.  1.
    9000005    2    1    2  501    0 -0.74858933239E+00  0.49190551887E+02 -0.42623910672E+03  0.42908186258E+03  0.33463289424E+01 0.  0.
         13    1    3    3    0    0  0.97888915118E+00  0.16759680754E+02 -0.15404582361E+03  0.15495793266E+03  0.00000000000E+00 0.  1.
          1    1    3    3  501    0 -0.17274784836E+01  0.32430871133E+02 -0.27219328311E+03  0.27412392992E+03  0.00000000000E+00 0.  1.
         -1    1    1    2    0  502  0.74858933239E+00 -0.49190551887E+02 -0.57128233220E+03  0.57339669851E+03  0.00000000000E+00 0. -1.
<mgrwt>
<rscale>  1 0.30000000E+03</rscale>
<asrwt>0</asrwt>
<pdfrwt beam="1">  1       21 0.90129684E-02 0.30000000E+03</pdfrwt>
<pdfrwt beam="2">0</pdfrwt>
<totfact> 0.10351647E+04</totfact>
</mgrwt>
</event>
<event>
 6    1  0.1295671E-001  0.3000000E+03  0.7818608E-02  0.1093470E+00
         21   -1    0    0  501  502  0.00000000000E+00  0.00000000000E+00  0.12540214531E+01  0.12540214531E+01  0.00000000000E+00 0. -1.
         13   -1    0    0    0    0 -0.00000000000E+00 -0.00000000000E+00 -0.10000000000E+04  0.10000000000E+04  0.00000000000E+00 0.  1.
    9000005    2    1    2  501    0  0.25517410723E+02  0.24005051964E+02 -0.56000394922E+03  0.56111546478E+03  0.43313862453E+01 0.  0.
         13    1    3    3    0    0  0.46927222046E+01  0.36138086189E+01 -0.12120393057E+03  0.12134856422E+03  0.00000000000E+00 0.  1.
          3    1    3    3  501    0  0.20824688518E+02  0.20391243346E+02 -0.43880001865E+03  0.43976690056E+03  0.00000000000E+00 0.  1.
         -1    1    1    2    0  502 -0.25517410723E+02 -0.24005051964E+02 -0.43874202933E+03  0.44013855667E+03  0.00000000000E+00 0. -1.
<mgrwt>
<rscale>  1 0.30000000E+03</rscale>
<asrwt>0</asrwt>
<pdfrwt beam="1">  1       21 0.45600876E-02 0.30000000E+03</pdfrwt>
<pdfrwt beam="2">0</pdfrwt>
<totfact> 0.33690853E+04</totfact>
</mgrwt>
</event>
<event>
 6    1  0.1295671E-001  0.3000000E+03  0.7818608E-02  0.1093470E+00
         21   -1    0    0  501  502  0.00000000000E+00  0.00000000000E+00  0.13608230385E+01  0.13608230385E+01  0.00000000000E+00 0. -1.
         13   -1    0    0    0    0 -0.00000000000E+00 -0.00000000000E+00 -0.10000000000E+04  0.10000000000E+04  0.00000000000E+00 0.  1.
    9000005    2    1    2  501    0 -0.81443479063E+00 -0.33567563533E+02 -0.70428855142E+03  0.70510124871E+03  0.42382358956E+01 0.  0.
         13    1    3    3    0    0  0.38628959824E+00 -0.35313992242E+00 -0.18995728984E+02  0.19002937854E+02  0.00000000000E+00 0.  1.
          1    1    3    3  501    0 -0.12007243889E+01 -0.33214423610E+02 -0.68529282243E+03  0.68609831085E+03  0.00000000000E+00 0.  1.
         -3    1    1    2    0  502  0.81443479063E+00  0.33567563533E+02 -0.29435062554E+03  0.29625957433E+03  0.00000000000E+00 0. -1.
<mgrwt>
<rscale>  1 0.30000000E+03</rscale>
<asrwt>0</asrwt>
<pdfrwt beam="1">  1       21 0.49484578E-02 0.30000000E+03</pdfrwt>
<pdfrwt beam="2">0</pdfrwt>
<totfact> 0.29317858E+04</totfact>
</mgrwt>
</event>
<event>
 6    1  0.1295671E-001  0.3000000E+03  0.7818608E-02  0.1093470E+00
         21   -1    0    0  501  502  0.00000000000E+00  0.00000000000E+00  0.12963186776E+02  0.12963186776E+02  0.00000000000E+00 0. -1.
         13   -1    0    0    0    0 -0.00000000000E+00 -0.00000000000E+00 -0.10000000000E+04  0.10000000000E+04  0.00000000000E+00 0.  1.
    9000005    2    1    2  501    0 -0.20091427633E+02  0.46414144107E+02 -0.94725523473E+03  0.94861637470E+03  0.47548268873E+01 0.  0.
         13    1    3    3    0    0 -0.28397430511E+01  0.60504496190E+01 -0.98195972471E+02  0.98423173545E+02  0.00000000000E+00 0.  1.
          1    1    3    3  501    0 -0.17251684581E+02  0.40363694488E+02 -0.84905926226E+03  0.85019320115E+03  0.00000000000E+00 0.  1.
         -1    1    1    2    0  502  0.20091427633E+02 -0.46414144107E+02 -0.39781578491E+02  0.64346812079E+02  0.00000000000E+00 0. -1.
<mgrwt>
<rscale>  1 0.30000000E+03</rscale>
<asrwt>0</asrwt>
<pdfrwt beam="1">  1       21 0.47138960E-01 0.30000000E+03</pdfrwt>
<pdfrwt beam="2">0</pdfrwt>
<totfact> 0.42660837E+02</totfact>
</mgrwt>
</event>
<event>
 6    1  0.1295671E-001  0.3000000E+03  0.7818608E-02  0.1093470E+00
         21   -1    0    0  501  502  0.00000000000E+00  0.00000000000E+00  0.36087369652E+01  0.36087369652E+01  0.00000000000E+00 0. -1.
         13   -1    0    0    0    0 -0.00000000000E+00 -0.00000000000E+00 -0.10000000000E+04  0.10000000000E+04  0.00000000000E+00 0.  1.
    9000005    2    1    2  501    0 -0.31555551310E+02 -0.13289044207E+02 -0.91042561859E+03  0.91107526443E+03  0.33134511689E+01 0.  0.
         13    1    3    3    0    0 -0.13683635102E+01 -0.29236787562E+00 -0.24190406657E+02  0.24230841337E+02  0.00000000000E+00 0.  1.
          1    1    3    3  501    0 -0.30187187800E+02 -0.12996676331E+02 -0.88623521193E+03  0.88684442309E+03  0.00000000000E+00 0.  1.
         -3    1    1    2    0  502  0.31555551310E+02  0.13289044207E+02 -0.85965644446E+02  0.92533472535E+02  0.00000000000E+00 0. -1.
<mgrwt>
<rscale>  1 0.30000000E+03</rscale>
<asrwt>0</asrwt>
<pdfrwt beam="1">  1       21 0.13122708E-01 0.30000000E+03</pdfrwt>
<pdfrwt beam="2">0</pdfrwt>
<totfact> 0.52653797E+03</totfact>
</mgrwt>
</event>
<event>
 6    1  0.1295671E-001  0.3000000E+03  0.7818608E-02  0.1093470E+00
         21   -1    0    0  501  502  0.00000000000E+00  0.00000000000E+00  0.34188183539E+01  0.34188183539E+01  0.00000000000E+00 0. -1.
         13   -1    0    0    0    0 -0.00000000000E+00 -0.00000000000E+00 -0.10000000000E+04  0.10000000000E+04  0.00000000000E+00 0.  1.
    9000005    2    1    2  501    0  0.56391425488E+02  0.13033247968E+02 -0.56712563763E+03  0.57008070244E+03  0.32649672930E+01 0.  0.
         13    1    3    3    0    0  0.19559431129E+02  0.33643286680E+01 -0.20490232785E+03  0.20586124942E+03  0.00000000000E+00 0.  1.
          3    1    3    3  501    0  0.36831994360E+02  0.96689192995E+01 -0.36222330978E+03  0.36421945302E+03  0.00000000000E+00 0.  1.
         -3    1    1    2    0  502 -0.56391425488E+02 -0.13033247968E+02 -0.42945554401E+03  0.43333811591E+03  0.00000000000E+00 0. -1.
<mgrwt>
<rscale>  1 0.30000000E+03</rscale>
<asrwt>0</asrwt>
<pdfrwt beam="1">  1       21 0.12432093E-01 0.30000000E+03</pdfrwt>
<pdfrwt beam="2">0</pdfrwt>
<totfact> 0.58110552E+03</totfact>
</mgrwt>
</event>
<event>
 6    1  0.1295671E-001  0.3000000E+03  0.7818608E-02  0.1093470E+00
         21   -1    0    0  501  502  0.00000000000E+00  0.00000000000E+00  0.26323314243E+01  0.26323314243E+01  0.00000000000E+00 0. -1.
         13   -1    0    0    0    0 -0.00000000000E+00 -0.00000000000E+00 -0.10000000000E+04  0.10000000000E+04  0.00000000000E+00 0.  1.
    9000005    2    1    2  501    0  0.33742633835E+02 -0.26344473099E+02 -0.77453141094E+03  0.77572134818E+03  0.34794948633E+01 0.  0.
         13    1    3    3    0    0  0.95807015057E+00 -0.16101471731E+01 -0.36981259257E+02  0.37028691694E+02  0.00000000000E+00 0.  1.
          3    1    3    3  501    0  0.32784563684E+02 -0.24734325926E+02 -0.73755015169E+03  0.73869265649E+03  0.00000000000E+00 0.  1.
         -3    1    1    2    0  502 -0.33742633835E+02  0.26344473099E+02 -0.22283625763E+03  0.22691098324E+03  0.00000000000E+00 0. -1.
<mgrwt>
<rscale>  1 0.30000000E+03</rscale>
<asrwt>0</asrwt>
<pdfrwt beam="1">  1       21 0.95721345E-02 0.30000000E+03</pdfrwt>
<pdfrwt beam="2">0</pdfrwt>
<totfact> 0.93014883E+03</totfact>
</mgrwt>
</event>
<event>
 6    1  0.1295671E-001  0.3000000E+03  0.7818608E-02  0.1093470E+00
         21   -1    0    0  501  502  0.00000000000E+00  0.00000000000E+00  0.17157969982E+01  0.17157969982E+01  0.00000000000E+00 0. -1.
         13   -1    0    0    0    0 -0.00000000000E+00 -0.00000000000E+00 -0.10000000000E+04  0.10000000000E+04  0.00000000000E+00 0.  1.
    9000005    2    1    2  501    0  0.15344737114E+02  0.37903104108E+02 -0.42418307135E+03  0.42616022572E+03  0.30255103826E+01 0.  0.
         13    1    3    3    0    0  0.16121955838E+01  0.54499561134E+01 -0.68777044643E+02  0.69011470540E+02  0.00000000000E+00 0.  1.
          1    1    3    3  501    0  0.13732541530E+02  0.32453147995E+02 -0.35540602670E+03  0.35714875518E+03  0.00000000000E+00 0.  1.
         -3    1    1    2    0  502 -0.15344737114E+02 -0.37903104108E+02 -0.57410113166E+03  0.57555557128E+03  0.00000000000E+00 0. -1.
<mgrwt>
<rscale>  1 0.30000000E+03</rscale>
<asrwt>0</asrwt>
<pdfrwt beam="1">  1       21 0.62392750E-02 0.30000000E+03</pdfrwt>
<pdfrwt beam="2">0</pdfrwt>
<totfact> 0.19696324E+04</totfact>
</mgrwt>
</event>
<event>
 6    1  0.1295671E-001  0.3000000E+03  0.7818608E-02  0.1093470E+00
         21   -1    0    0  501  502  0.00000000000E+00  0.00000000000E+00  0.18175766006E+01  0.18175766006E+01  0.00000000000E+00 0. -1.
         13   -1    0    0    0    0 -0.00000000000E+00 -0.00000000000E+00 -0.10000000000E+04  0.10000000000E+04  0.00000000000E+00 0.  1.
    9000005    2    1    2  501    0 -0.30102743103E+02  0.83487109929E+01 -0.83966261204E+03  0.84024899454E+03  0.30322665016E+01 0.  0.
         13    1    3    3    0    0 -0.10796164305E+02  0.45056233476E+01 -0.31742083705E+03  0.31763634175E+03  0.00000000000E+00 0.  1.
          1    1    3    3  501    0 -0.19306578798E+02  0.38430876453E+01 -0.52224177499E+03  0.52261265279E+03  0.00000000000E+00 0.  1.
         -3    1    1    2    0  502  0.30102743103E+02 -0.83487109929E+01 -0.15851981136E+03  0.16156858207E+03  0.00000000000E+00 0. -1.
<mgrwt>
<rscale>  1 0.30000000E+03</rscale>
<asrwt>0</asrwt>
<pdfrwt beam="1">  1       21 0.66093834E-02 0.30000000E+03</pdfrwt>
<pdfrwt beam="2">0</pdfrwt>
<totfact> 0.17827169E+04</totfact>
</mgrwt>
</event>
<event>
 6    1  0.1295671E-001  0.3000000E+03  0.7818608E-02  0.1093470E+00
         21   -1    0    0  501  502  0.00000000000E+00  0.00000000000E+00  0.14998404297E+01  0.14998404297E+01  0.00000000000E+00 0. -1.
         13   -1    0    0    0    0 -0.00000000000E+00 -0.00000000000E+00 -0.10000000000E+04  0.10000000000E+04  0.00000000000E+00 0.  1.
    9000005    2    1    2  501    0  0.15055365746E+02  0.26255921335E+02 -0.81110714790E+03  0.81167840258E+03  0.33145745085E+01 0.  0.
         13    1    3    3    0    0  0.12723721224E+02  0.19888967237E+02 -0.60883038104E+03  0.60928802465E+03  0.00000000000E+00 0.  1.
          1    1    3    3  501    0  0.23316445212E+01  0.63669540986E+01 -0.20227676686E+03  0.20239037794E+03  0.00000000000E+00 0.  1.
         -1    1    1    2    0  502 -0.15055365746E+02 -0.26255921335E+02 -0.18739301167E+03  0.18982143785E+03  0.00000000000E+00 0. -1.
<mgrwt>
<rscale>  1 0.30000000E+03</rscale>
<asrwt>0</asrwt>
<pdfrwt beam="1">  1       21 0.54539767E-02 0.30000000E+03</pdfrwt>
<pdfrwt beam="2">0</pdfrwt>
<totfact> 0.24829229E+04</totfact>
</mgrwt>
</event>
<event>
 6    1  0.1295671E-001  0.3000000E+03  0.7818608E-02  0.1093470E+00
         21   -1    0    0  501  502  0.00000000000E+00  0.00000000000E+00  0.14695635756E+01  0.14695635756E+01  0.00000000000E+00 0. -1.
         13   -1    0    0    0    0 -0.00000000000E+00 -0.00000000000E+00 -0.10000000000E+04  0.10000000000E+04  0.00000000000E+00 0.  1.
    9000005    2    1    2  501    0 -0.23592787230E+02 -0.27851113033E+02 -0.36462322336E+03  0.36651235330E+03  0.69932825826E+01 0.  0.
         13    1    3    3    0    0 -0.21408451032E+02 -0.24582310841E+02 -0.34200513940E+03  0.34355512972E+03  0.00000000000E+00 0.  1.
          1    1    3    3  501    0 -0.21843361978E+01 -0.32688021926E+01 -0.22618083965E+02  0.22957223584E+02  0.00000000000E+00 0.  1.
         -3    1    1    2    0  502  0.23592787230E+02  0.27851113033E+02 -0.63390721306E+03  0.63495721027E+03  0.00000000000E+00 0. -1.
<mgrwt>
<rscale>  1 0.30000000E+03</rscale>
<asrwt>0</asrwt>
<pdfrwt beam="1">  1       21 0.53438788E-02 0.30000000E+03</pdfrwt>
<pdfrwt beam="2">0</pdfrwt>
<totfact> 0.25711626E+04</totfact>
</mgrwt>
</event>
<event>
 6    1  0.1295671E-001  0.3000000E+03  0.7818608E-02  0.1093470E+00
         21   -1    0    0  501  502  0.00000000000E+00  0.00000000000E+00  0.19753772757E+01  0.19753772757E+01  0.00000000000E+00 0. -1.
         13   -1    0    0    0    0 -0.00000000000E+00 -0.00000000000E+00 -0.10000000000E+04  0.10000000000E+04  0.00000000000E+00 0.  1.
    9000005    2    1    2  501    0  0.25694083933E+02  0.31299341378E+02 -0.69731066429E+03  0.69854709989E+03  0.92765032639E+01 0.  0.
         13    1    3    3    0    0  0.70883082979E+01  0.15832121830E+02 -0.28772188862E+03  0.28824431545E+03  0.00000000000E+00 0.  1.
          3    1    3    3  501    0  0.18605775635E+02  0.15467219549E+02 -0.40958877567E+03  0.41030278444E+03  0.00000000000E+00 0.  1.
         -1    1    1    2    0  502 -0.25694083933E+02 -0.31299341378E+02 -0.30071395843E+03  0.30342827738E+03  0.00000000000E+00 0. -1.
<mgrwt>
<rscale>  1 0.30000000E+03</rscale>
<asrwt>0</asrwt>
<pdfrwt beam="1">  1       21 0.71832052E-02 0.30000000E+03</pdfrwt>
<pdfrwt beam="2">0</pdfrwt>
<totfact> 0.15425122E+04</totfact>
</mgrwt>
</event>
<event>
 6    1  0.1295671E-001  0.3000000E+03  0.7818608E-02  0.1093470E+00
         21   -1    0    0  501  502  0.00000000000E+00  0.00000000000E+00  0.11910600279E+01  0.11910600279E+01  0.00000000000E+00 0. -1.
         13   -1    0    0    0    0 -0.00000000000E+00 -0.00000000000E+00 -0.10000000000E+04  0.10000000000E+04  0.00000000000E+00 0.  1.
    9000005    2    1    2  501    0 -0.37475938647E+01 -0.33551208270E+02 -0.57370070493E+03  0.57474441678E+03  0.76757896946E+01 0.  0.
         13    1    3    3    0    0 -0.40221837053E+01 -0.30933943624E+02 -0.48345076453E+03  0.48445611623E+03  0.00000000000E+00 0.  1.
          3    1    3    3  501    0  0.27458984060E+00 -0.26172646459E+01 -0.90249940401E+02  0.90288300550E+02  0.00000000000E+00 0.  1.
         -1    1    1    2    0  502  0.37475938647E+01  0.33551208270E+02 -0.42510823504E+03  0.42644664325E+03  0.00000000000E+00 0. -1.
<mgrwt>
<rscale>  1 0.30000000E+03</rscale>
<asrwt>0</asrwt>
<pdfrwt beam="1">  1       21 0.43311365E-02 0.30000000E+03</pdfrwt>
<pdfrwt beam="2">0</pdfrwt>
<totfact> 0.36765273E+04</totfact>
</mgrwt>
</event>
<event>
 6    1  0.1295671E-001  0.3000000E+03  0.7818608E-02  0.1093470E+00
         21   -1    0    0  501  502  0.00000000000E+00  0.00000000000E+00  0.12629730838E+01  0.12629730838E+01  0.00000000000E+00 0. -1.
         13   -1    0    0    0    0 -0.00000000000E+00 -0.00000000000E+00 -0.10000000000E+04  0.10000000000E+04  0.00000000000E+00 0.  1.
    9000005    2    1    2  501    0 -0.34474041365E+02  0.29047187697E+01 -0.39168535889E+03  0.39322627635E+03  0.35478339563E+01 0.  0.
         13    1    3    3    0    0 -0.32664951166E+02  0.28326268411E+01 -0.37845263341E+03  0.37987026541E+03  0.00000000000E+00 0.  1.
          1    1    3    3  501    0 -0.18090901981E+01  0.72091928623E-01 -0.13232725480E+02  0.13356010939E+02  0.00000000000E+00 0.  1.
         -3    1    1    2    0  502  0.34474041365E+02 -0.29047187697E+01 -0.60705166803E+03  0.60803669673E+03  0.00000000000E+00 0. -1.
<mgrwt>
<rscale>  1 0.30000000E+03</rscale>
<asrwt>0</asrwt>
<pdfrwt beam="1">  1       21 0.45926391E-02 0.30000000E+03</pdfrwt>
<pdfrwt beam="2">0</pdfrwt>
<totfact> 0.33286226E+04</totfact>
</mgrwt>
</event>
<event>
 6    1  0.1295671E-001  0.3000000E+03  0.7818608E-02  0.1093470E+00
         21   -1    0    0  501  502  0.00000000000E+00  0.00000000000E+00  0.15890433670E+02  0.15890433670E+02  0.00000000000E+00 0. -1.
         13   -1    0    0    0    0 -0.00000000000E+00 -0.00000000000E+00 -0.10000000000E+04  0.10000000000E+04  0.00000000000E+00 0.  1.
    9000005    2    1    2  501    0  0.15952323714E+01 -0.50536245466E+02 -0.95733869455E+03  0.95867910221E+03  0.34333726855E+01 0.  0.
         13    1    3    3    0    0 -0.48196320107E+00 -0.32899967765E+02 -0.63323242570E+03  0.63408670159E+03  0.00000000000E+00 0.  1.
          3    1    3    3  501    0  0.20771955724E+01 -0.17636277700E+02 -0.32410626885E+03  0.32459240062E+03  0.00000000000E+00 0.  1.
         -3    1    1    2    0  502 -0.15952323714E+01  0.50536245466E+02 -0.26770871777E+02  0.57211331463E+02  0.00000000000E+00 0. -1.
<mgrwt>
<rscale>  1 0.30000000E+03</rscale>
<asrwt>0</asrwt>
<pdfrwt beam="1">  1       21 0.57783517E-01 0.30000000E+03</pdfrwt>
<pdfrwt beam="2">0</pdfrwt>
<totfact> 0.27320189E+02</totfact>
</mgrwt>
</event>
<event>
 6    1  0.1295671E-001  0.3000000E+03  0.7818608E-02  0.1093470E+00
         21   -1    0    0  501  502  0.00000000000E+00  0.00000000000E+00  0.14968267739E+01  0.14968267739E+01  0.00000000000E+00 0. -1.
         13   -1    0    0    0    0 -0.00000000000E+00 -0.00000000000E+00 -0.10000000000E+04  0.10000000000E+04  0.00000000000E+00 0.  1.
    9000005    2    1    2  501    0 -0.16953449894E+02  0.26481299648E+02 -0.79039113676E+03  0.79102284164E+03  0.32106447228E+01 0.  0.
         13    1    3    3    0    0 -0.11008072988E+02  0.16234338448E+02 -0.45514913959E+03  0.45557158679E+03  0.00000000000E+00 0.  1.
          3    1    3    3  501    0 -0.59453769061E+01  0.10246961201E+02 -0.33524199716E+03  0.33545125485E+03  0.00000000000E+00 0.  1.
         -1    1    1    2    0  502  0.16953449894E+02 -0.26481299648E+02 -0.20811203647E+03  0.21047398513E+03  0.00000000000E+00 0. -1.
<mgrwt>
<rscale>  1 0.30000000E+03</rscale>
<asrwt>0</asrwt>
<pdfrwt beam="1">  1       21 0.54430179E-02 0.30000000E+03</pdfrwt>
<pdfrwt beam="2">0</pdfrwt>
<totfact> 0.24914949E+04</totfact>
</mgrwt>
</event>
<event>
 6    1  0.1295671E-001  0.3000000E+03  0.7818608E-02  0.1093470E+00
         21   -1    0    0  501  502  0.00000000000E+00  0.00000000000E+00  0.33572570110E+01  0.33572570110E+01  0.00000000000E+00 0. -1.
         13   -1    0    0    0    0 -0.00000000000E+00 -0.00000000000E+00 -0.10000000000E+04  0.10000000000E+04  0.00000000000E+00 0.  1.
    9000005    2    1    2  501    0 -0.32359460877E+02 -0.13475669647E+02 -0.89747968613E+03  0.89818102288E+03  0.55348407410E+01 0.  0.
         13    1    3    3    0    0 -0.71100271696E+01 -0.71386567344E+00 -0.20095503193E+03  0.20108204035E+03  0.00000000000E+00 0.  1.
          3    1    3    3  501    0 -0.25249433708E+02 -0.12761803973E+02 -0.69652465420E+03  0.69709898253E+03  0.00000000000E+00 0.  1.
         -1    1    1    2    0  502  0.32359460877E+02  0.13475669647E+02 -0.99163056857E+02  0.10517623413E+03  0.00000000000E+00 0. -1.
<mgrwt>
<rscale>  1 0.30000000E+03</rscale>
<asrwt>0</asrwt>
<pdfrwt beam="1">  1       21 0.12208233E-01 0.30000000E+03</pdfrwt>
<pdfrwt beam="2">0</pdfrwt>
<totfact> 0.60064204E+03</totfact>
</mgrwt>
</event>
<event>
 6    1  0.1295671E-001  0.3000000E+03  0.7818608E-02  0.1093470E+00
         21   -1    0    0  501  502  0.00000000000E+00  0.00000000000E+00  0.21997133916E+01  0.21997133916E+01  0.00000000000E+00 0. -1.
         13   -1    0    0    0    0 -0.00000000000E+00 -0.00000000000E+00 -0.10000000000E+04  0.10000000000E+04  0.00000000000E+00 0.  1.
    9000005    2    1    2  501    0  0.42552059674E+02  0.90209153899E+01 -0.68535548791E+03  0.68674162278E+03  0.31395790851E+01 0.  0.
         13    1    3    3    0    0  0.43970583669E+01  0.17950038118E+01 -0.82759814735E+02  0.82895977562E+02  0.00000000000E+00 0.  1.
          3    1    3    3  501    0  0.38155001307E+02  0.72259115781E+01 -0.60259567317E+03  0.60384564522E+03  0.00000000000E+00 0.  1.
         -1    1    1    2    0  502 -0.42552059674E+02 -0.90209153899E+01 -0.31244479870E+03  0.31545809061E+03  0.00000000000E+00 0. -1.
<mgrwt>
<rscale>  1 0.30000000E+03</rscale>
<asrwt>0</asrwt>
<pdfrwt beam="1">  1       21 0.79989747E-02 0.30000000E+03</pdfrwt>
<pdfrwt beam="2">0</pdfrwt>
<totfact> 0.12776745E+04</totfact>
</mgrwt>
</event>
<event>
 6    1  0.1295671E-001  0.3000000E+03  0.7818608E-02  0.1093470E+00
         21   -1    0    0  501  502  0.00000000000E+00  0.00000000000E+00  0.11465739785E+01  0.11465739785E+01  0.00000000000E+00 0. -1.
         13   -1    0    0    0    0 -0.00000000000E+00 -0.00000000000E+00 -0.10000000000E+04  0.10000000000E+04  0.00000000000E+00 0.  1.
    9000005    2    1    2  501    0 -0.25236433886E+02  0.22512173921E+02 -0.49992815363E+03  0.50107647590E+03  0.24083873976E+01 0.  0.
         13    1    3    3    0    0 -0.24507259757E+02  0.21271498952E+02 -0.47564832824E+03  0.47675403995E+03  0.00000000000E+00 0.  1.
          3    1    3    3  501    0 -0.72917412953E+00  0.12406749684E+01 -0.24279825395E+02  0.24322435949E+02  0.00000000000E+00 0.  1.
         -1    1    1    2    0  502  0.25236433886E+02 -0.22512173921E+02 -0.49892527239E+03  0.50007009808E+03  0.00000000000E+00 0. -1.
<mgrwt>
<rscale>  1 0.30000000E+03</rscale>
<asrwt>0</asrwt>
<pdfrwt beam="1">  1       21 0.41693687E-02 0.30000000E+03</pdfrwt>
<pdfrwt beam="2">0</pdfrwt>
<totfact> 0.39208004E+04</totfact>
</mgrwt>
</event>
<event>
 6    1  0.1295671E-001  0.3000000E+03  0.7818608E-02  0.1093470E+00
         21   -1    0    0  501  502  0.00000000000E+00  0.00000000000E+00  0.22088591831E+01  0.22088591831E+01  0.00000000000E+00 0. -1.
         13   -1    0    0    0    0 -0.00000000000E+00 -0.00000000000E+00 -0.10000000000E+04  0.10000000000E+04  0.00000000000E+00 0.  1.
    9000005    2    1    2  501    0  0.26498249631E+02 -0.31830685749E+02 -0.73504660591E+03  0.73622006165E+03  0.33341460338E+01 0.  0.
         13    1    3    3    0    0  0.10228528563E+02 -0.14809642125E+02 -0.31221839258E+03  0.31273674706E+03  0.00000000000E+00 0.  1.
          3    1    3    3  501    0  0.16269721067E+02 -0.17021043625E+02 -0.42282821334E+03  0.42348331460E+03  0.00000000000E+00 0.  1.
         -3    1    1    2    0  502 -0.26498249631E+02  0.31830685749E+02 -0.26274453490E+03  0.26598879753E+03  0.00000000000E+00 0. -1.
<mgrwt>
<rscale>  1 0.30000000E+03</rscale>
<asrwt>0</asrwt>
<pdfrwt beam="1">  1       21 0.80322321E-02 0.30000000E+03</pdfrwt>
<pdfrwt beam="2">0</pdfrwt>
<totfact> 0.12683960E+04</totfact>
</mgrwt>
</event>
<event>
 6    1  0.1295671E-001  0.3000000E+03  0.7818608E-02  0.1093470E+00
         21   -1    0    0  501  502  0.00000000000E+00  0.00000000000E+00  0.37696756792E+01  0.37696756792E+01  0.00000000000E+00 0. -1.
         13   -1    0    0    0    0 -0.00000000000E+00 -0.00000000000E+00 -0.10000000000E+04  0.10000000000E+04  0.00000000000E+00 0.  1.
    9000005    2    1    2  501    0 -0.37473597423E+02  0.42295240481E+02 -0.69362348123E+03  0.69593195974E+03  0.38211253200E+01 0.  0.
         13    1    3    3    0    0 -0.24752051109E+02  0.30507100735E+02 -0.48657491113E+03  0.48815826468E+03  0.00000000000E+00 0.  1.
          1    1    3    3  501    0 -0.12721546314E+02  0.11788139746E+02 -0.20704857010E+03  0.20777369507E+03  0.00000000000E+00 0.  1.
         -3    1    1    2    0  502  0.37473597423E+02 -0.42295240481E+02 -0.30260684309E+03  0.30783771594E+03  0.00000000000E+00 0. -1.
<mgrwt>
<rscale>  1 0.30000000E+03</rscale>
<asrwt>0</asrwt>
<pdfrwt beam="1">  1       21 0.13707940E-01 0.30000000E+03</pdfrwt>
<pdfrwt beam="2">0</pdfrwt>
<totfact> 0.48611998E+03</totfact>
</mgrwt>
</event>
<event>
 6    1  0.1295671E-001  0.3000000E+03  0.7818608E-02  0.1093470E+00
         21   -1    0    0  501  502  0.00000000000E+00  0.00000000000E+00  0.29961831693E+01  0.29961831693E+01  0.00000000000E+00 0. -1.
         13   -1    0    0    0    0 -0.00000000000E+00 -0.00000000000E+00 -0.10000000000E+04  0.10000000000E+04  0.00000000000E+00 0.  1.
    9000005    2    1    2  501    0  0.32297913964E+02  0.23705040246E+02 -0.83983810073E+03  0.84080448641E+03  0.43663203384E+01 0.  0.
         13    1    3    3    0    0  0.91790785572E+01  0.79399927881E+01 -0.29221077272E+03  0.29246270644E+03  0.00000000000E+00 0.  1.
          1    1    3    3  501    0  0.23118835407E+02  0.15765047458E+02 -0.54762732801E+03  0.54834177997E+03  0.00000000000E+00 0.  1.
         -1    1    1    2    0  502 -0.32297913964E+02 -0.23705040246E+02 -0.15716571610E+03  0.16219169676E+03  0.00000000000E+00 0. -1.
<mgrwt>
<rscale>  1 0.30000000E+03</rscale>
<asrwt>0</asrwt>
<pdfrwt beam="1">  1       21 0.10895234E-01 0.30000000E+03</pdfrwt>
<pdfrwt beam="2">0</pdfrwt>
<totfact> 0.73779126E+03</totfact>
</mgrwt>
</event>
<event>
 6    1  0.1295671E-001  0.3000000E+03  0.7818608E-02  0.1093470E+00
         21   -1    0    0  501  502  0.00000000000E+00  0.00000000000E+00  0.17759588609E+01  0.17759588609E+01  0.00000000000E+00 0. -1.
         13   -1    0    0    0    0 -0.00000000000E+00 -0.00000000000E+00 -0.10000000000E+04  0.10000000000E+04  0.00000000000E+00 0.  1.
    9000005    2    1    2  501    0  0.28424861350E+02  0.10160162926E+02 -0.84830451374E+03  0.84884765426E+03  0.32542975252E+01 0.  0.
         13    1    3    3    0    0  0.14531889787E+02  0.68243306166E+01 -0.46367736197E+03  0.46395521693E+03  0.00000000000E+00 0.  1.
          3    1    3    3  501    0  0.13892971563E+02  0.33358323099E+01 -0.38462715177E+03  0.38489243733E+03  0.00000000000E+00 0.  1.
         -1    1    1    2    0  502 -0.28424861350E+02 -0.10160162926E+02 -0.14991952740E+03  0.15292830460E+03  0.00000000000E+00 0. -1.
<mgrwt>
<rscale>  1 0.30000000E+03</rscale>
<asrwt>0</asrwt>
<pdfrwt beam="1">  1       21 0.64580458E-02 0.30000000E+03</pdfrwt>
<pdfrwt beam="2">0</pdfrwt>
<totfact> 0.18556895E+04</totfact>
</mgrwt>
</event>
<event>
 6    1  0.1295671E-001  0.3000000E+03  0.7818608E-02  0.1093470E+00
         21   -1    0    0  501  502  0.00000000000E+00  0.00000000000E+00  0.16611137117E+01  0.16611137117E+01  0.00000000000E+00 0. -1.
         13   -1    0    0    0    0 -0.00000000000E+00 -0.00000000000E+00 -0.10000000000E+04  0.10000000000E+04  0.00000000000E+00 0.  1.
    9000005    2    1    2  501    0 -0.26270751080E+02  0.26927275564E+02 -0.69038047582E+03  0.69141344956E+03  0.34822853695E+01 0.  0.
         13    1    3    3    0    0 -0.13243144412E+02  0.11520692235E+02 -0.30331715224E+03  0.30382462386E+03  0.00000000000E+00 0.  1.
          1    1    3    3  501    0 -0.13027606668E+02  0.15406583329E+02 -0.38706332358E+03  0.38758882570E+03  0.00000000000E+00 0.  1.
         -3    1    1    2    0  502  0.26270751080E+02 -0.26927275564E+02 -0.30795841047E+03  0.31024766415E+03  0.00000000000E+00 0. -1.
<mgrwt>
<rscale>  1 0.30000000E+03</rscale>
<asrwt>0</asrwt>
<pdfrwt beam="1">  1       21 0.60404262E-02 0.30000000E+03</pdfrwt>
<pdfrwt beam="2">0</pdfrwt>
<totfact> 0.20829006E+04</totfact>
</mgrwt>
</event>
<event>
 6    1  0.1295671E-001  0.3000000E+03  0.7818608E-02  0.1093470E+00
         21   -1    0    0  501  502  0.00000000000E+00  0.00000000000E+00  0.15556866311E+01  0.15556866311E+01  0.00000000000E+00 0. -1.
         13   -1    0    0    0    0 -0.00000000000E+00 -0.00000000000E+00 -0.10000000000E+04  0.10000000000E+04  0.00000000000E+00 0.  1.
    9000005    2    1    2  501    0  0.29664295866E+02 -0.25601069585E+02 -0.54439866618E+03  0.54582239298E+03  0.40977706188E+01 0.  0.
         13    1    3    3    0    0  0.44959376434E+01 -0.22096981197E+01 -0.62679578670E+02  0.62879454541E+02  0.00000000000E+00 0.  1.
          3    1    3    3  501    0  0.25168358222E+02 -0.23391371465E+02 -0.48171908751E+03  0.48294293844E+03  0.00000000000E+00 0.  1.
         -3    1    1    2    0  502 -0.29664295866E+02  0.25601069585E+02 -0.45404564719E+03  0.45573329365E+03  0.00000000000E+00 0. -1.
<mgrwt>
<rscale>  1 0.30000000E+03</rscale>
<asrwt>0</asrwt>
<pdfrwt beam="1">  1       21 0.56570542E-02 0.30000000E+03</pdfrwt>
<pdfrwt beam="2">0</pdfrwt>
<totfact> 0.23319462E+04</totfact>
</mgrwt>
</event>
<event>
 6    1  0.1295671E-001  0.3000000E+03  0.7818608E-02  0.1093470E+00
         21   -1    0    0  501  502  0.00000000000E+00  0.00000000000E+00  0.23154972191E+01  0.23154972191E+01  0.00000000000E+00 0. -1.
         13   -1    0    0    0    0 -0.00000000000E+00 -0.00000000000E+00 -0.10000000000E+04  0.10000000000E+04  0.00000000000E+00 0.  1.
    9000005    2    1    2  501    0  0.44305364339E+02 -0.17825037803E+01 -0.69268818576E+03  0.69411281063E+03  0.30868349497E+01 0.  0.
         13    1    3    3    0    0  0.16880959365E+02 -0.18442598238E+01 -0.27982293686E+03  0.28033773217E+03  0.00000000000E+00 0.  1.
          1    1    3    3  501    0  0.27424404974E+02  0.61756043501E-01 -0.41286524890E+03  0.41377507845E+03  0.00000000000E+00 0.  1.
         -1    1    1    2    0  502 -0.44305364339E+02  0.17825037803E+01 -0.30499631702E+03  0.30820268659E+03  0.00000000000E+00 0. -1.
<mgrwt>
<rscale>  1 0.30000000E+03</rscale>
<asrwt>0</asrwt>
<pdfrwt beam="1">  1       21 0.84200076E-02 0.30000000E+03</pdfrwt>
<pdfrwt beam="2">0</pdfrwt>
<totfact> 0.11674232E+04</totfact>
</mgrwt>
</event>
<event>
 6    1  0.1295671E-001  0.3000000E+03  0.7818608E-02  0.1093470E+00
         21   -1    0    0  501  502  0.00000000000E+00  0.00000000000E+00  0.17056894193E+01  0.17056894193E+01  0.00000000000E+00 0. -1.
         13   -1    0    0    0    0 -0.00000000000E+00 -0.00000000000E+00 -0.10000000000E+04  0.10000000000E+04  0.00000000000E+00 0.  1.
    9000005    2    1    2  501    0  0.22518615577E+02  0.26290630997E+02 -0.77142892119E+03  0.77221453441E+03  0.37975485095E+01 0.  0.
         13    1    3    3    0    0  0.20835244298E+02  0.23517121041E+02 -0.67458899976E+03  0.67532028030E+03  0.00000000000E+00 0.  1.
          3    1    3    3  501    0  0.16833712792E+01  0.27735099551E+01 -0.96839921429E+02  0.96894254106E+02  0.00000000000E+00 0.  1.
         -1    1    1    2    0  502 -0.22518615577E+02 -0.26290630997E+02 -0.22686538939E+03  0.22949115501E+03  0.00000000000E+00 0. -1.
<mgrwt>
<rscale>  1 0.30000000E+03</rscale>
<asrwt>0</asrwt>
<pdfrwt beam="1">  1       21 0.62025201E-02 0.30000000E+03</pdfrwt>
<pdfrwt beam="2">0</pdfrwt>
<totfact> 0.19898370E+04</totfact>
</mgrwt>
</event>
<event>
 6    1  0.1295671E-001  0.3000000E+03  0.7818608E-02  0.1093470E+00
         21   -1    0    0  501  502  0.00000000000E+00  0.00000000000E+00  0.13118495310E+01  0.13118495310E+01  0.00000000000E+00 0. -1.
         13   -1    0    0    0    0 -0.00000000000E+00 -0.00000000000E+00 -0.10000000000E+04  0.10000000000E+04  0.00000000000E+00 0.  1.
    9000005    2    1    2  501    0  0.14143718298E+02 -0.32631021065E+02 -0.58968316370E+03  0.59076354847E+03  0.32416578111E+01 0.  0.
         13    1    3    3    0    0  0.56517893712E+01 -0.12192474298E+02 -0.24874932112E+03  0.24911207099E+03  0.00000000000E+00 0.  1.
          3    1    3    3  501    0  0.84919289272E+01 -0.20438546767E+02 -0.34093384258E+03  0.34165147748E+03  0.00000000000E+00 0.  1.
         -1    1    1    2    0  502 -0.14143718298E+02  0.32631021065E+02 -0.40900498677E+03  0.41054830106E+03  0.00000000000E+00 0. -1.
<mgrwt>
<rscale>  1 0.30000000E+03</rscale>
<asrwt>0</asrwt>
<pdfrwt beam="1">  1       21 0.47703720E-02 0.30000000E+03</pdfrwt>
<pdfrwt beam="2">0</pdfrwt>
<totfact> 0.31205548E+04</totfact>
</mgrwt>
</event>
<event>
 6    1  0.1295671E-001  0.3000000E+03  0.7818608E-02  0.1093470E+00
         21   -1    0    0  501  502  0.00000000000E+00  0.00000000000E+00  0.45154464447E+01  0.45154464447E+01  0.00000000000E+00 0. -1.
         13   -1    0    0    0    0 -0.00000000000E+00 -0.00000000000E+00 -0.10000000000E+04  0.10000000000E+04  0.00000000000E+00 0.  1.
    9000005    2    1    2  501    0 -0.19062483891E+02  0.39112457332E+02 -0.88038706355E+03  0.88146832207E+03  0.34436233806E+01 0.  0.
         13    1    3    3    0    0 -0.35124594045E+01  0.53704349387E+01 -0.14930066687E+03  0.14943850932E+03  0.00000000000E+00 0.  1.
          3    1    3    3  501    0 -0.15550024486E+02  0.33742022393E+02 -0.73108639668E+03  0.73202981275E+03  0.00000000000E+00 0.  1.
         -3    1    1    2    0  502  0.19062483891E+02 -0.39112457332E+02 -0.11509749001E+03  0.12304712438E+03  0.00000000000E+00 0. -1.
<mgrwt>
<rscale>  1 0.30000000E+03</rscale>
<asrwt>0</asrwt>
<pdfrwt beam="1">  1       21 0.16419840E-01 0.30000000E+03</pdfrwt>
<pdfrwt beam="2">0</pdfrwt>
<totfact> 0.34803479E+03</totfact>
</mgrwt>
</event>
<event>
 6    1  0.1295671E-001  0.3000000E+03  0.7818608E-02  0.1093470E+00
         21   -1    0    0  501  502  0.00000000000E+00  0.00000000000E+00  0.10249798998E+01  0.10249798998E+01  0.00000000000E+00 0. -1.
         13   -1    0    0    0    0 -0.00000000000E+00 -0.00000000000E+00 -0.10000000000E+04  0.10000000000E+04  0.00000000000E+00 0.  1.
    9000005    2    1    2  501    0 -0.31054608580E+02 -0.50312053323E+01 -0.57929363825E+03  0.58016613894E+03  0.46827039360E+01 0.  0.
         13    1    3    3    0    0 -0.23698878328E+02 -0.33075400661E+01 -0.40191436729E+03  0.40262604894E+03  0.00000000000E+00 0.  1.
          1    1    3    3  501    0 -0.73557302524E+01 -0.17236652662E+01 -0.17737927097E+03  0.17754009000E+03  0.00000000000E+00 0.  1.
         -1    1    1    2    0  502  0.31054608580E+02  0.50312053323E+01 -0.41968138185E+03  0.42085884096E+03  0.00000000000E+00 0. -1.
<mgrwt>
<rscale>  1 0.30000000E+03</rscale>
<asrwt>0</asrwt>
<pdfrwt beam="1">  1       21 0.37272075E-02 0.30000000E+03</pdfrwt>
<pdfrwt beam="2">0</pdfrwt>
<totfact> 0.47349501E+04</totfact>
</mgrwt>
</event>
<event>
 6    1  0.1295671E-001  0.3000000E+03  0.7818608E-02  0.1093470E+00
         21   -1    0    0  501  502  0.00000000000E+00  0.00000000000E+00  0.24924054672E+01  0.24924054672E+01  0.00000000000E+00 0. -1.
         13   -1    0    0    0    0 -0.00000000000E+00 -0.00000000000E+00 -0.10000000000E+04  0.10000000000E+04  0.00000000000E+00 0.  1.
    9000005    2    1    2  501    0  0.18441035770E+02 -0.26057692056E+02 -0.88347772522E+03  0.88407835980E+03  0.65253500310E+01 0.  0.
         13    1    3    3    0    0  0.61180834905E+01 -0.11831236182E+02 -0.43968756253E+03  0.43988926077E+03  0.00000000000E+00 0.  1.
          3    1    3    3  501    0  0.12322952280E+02 -0.14226455873E+02 -0.44379016268E+03  0.44418909903E+03  0.00000000000E+00 0.  1.
         -3    1    1    2    0  502 -0.18441035770E+02  0.26057692056E+02 -0.11402986932E+03  0.11841404567E+03  0.00000000000E+00 0. -1.
<mgrwt>
<rscale>  1 0.30000000E+03</rscale>
<asrwt>0</asrwt>
<pdfrwt beam="1">  1       21 0.90633117E-02 0.30000000E+03</pdfrwt>
<pdfrwt beam="2">0</pdfrwt>
<totfact> 0.10249956E+04</totfact>
</mgrwt>
</event>
<event>
 6    1  0.1295671E-001  0.3000000E+03  0.7818608E-02  0.1093470E+00
         21   -1    0    0  501  502  0.00000000000E+00  0.00000000000E+00  0.55185235749E+01  0.55185235749E+01  0.00000000000E+00 0. -1.
         13   -1    0    0    0    0 -0.00000000000E+00 -0.00000000000E+00 -0.10000000000E+04  0.10000000000E+04  0.00000000000E+00 0.  1.
    9000005    2    1    2  501    0 -0.66542227577E+02  0.16995166790E+02 -0.68439730023E+03  0.68791987737E+03  0.10834637612E+02 0.  0.
         13    1    3    3    0    0 -0.44154981603E+02  0.90251497807E+01 -0.39978820462E+03  0.40232042488E+03  0.00000000000E+00 0.  1.
          1    1    3    3  501    0 -0.22387245975E+02  0.79700170092E+01 -0.28460909561E+03  0.28559945248E+03  0.00000000000E+00 0.  1.
         -3    1    1    2    0  502  0.66542227577E+02 -0.16995166790E+02 -0.31008417620E+03  0.31759864621E+03  0.00000000000E+00 0. -1.
<mgrwt>
<rscale>  1 0.30000000E+03</rscale>
<asrwt>0</asrwt>
<pdfrwt beam="1">  1       21 0.20067401E-01 0.30000000E+03</pdfrwt>
<pdfrwt beam="2">0</pdfrwt>
<totfact> 0.23838587E+03</totfact>
</mgrwt>
</event>
<event>
 6    1  0.1295671E-001  0.3000000E+03  0.7818608E-02  0.1093470E+00
         21   -1    0    0  501  502  0.00000000000E+00  0.00000000000E+00  0.10251708234E+01  0.10251708234E+01  0.00000000000E+00 0. -1.
         13   -1    0    0    0    0 -0.00000000000E+00 -0.00000000000E+00 -0.10000000000E+04  0.10000000000E+04  0.00000000000E+00 0.  1.
    9000005    2    1    2  501    0  0.19846935921E+02  0.22888114651E+02 -0.65826988404E+03  0.65897601311E+03  0.35183734022E+01 0.  0.
         13    1    3    3    0    0  0.29041347907E+01  0.31592995424E+01 -0.69792193774E+02  0.69923997914E+02  0.00000000000E+00 0.  1.
          3    1    3    3  501    0  0.16942801130E+02  0.19728815108E+02 -0.58847769027E+03  0.58905201519E+03  0.00000000000E+00 0.  1.
         -1    1    1    2    0  502 -0.19846935921E+02 -0.22888114651E+02 -0.34070494513E+03  0.34204915772E+03  0.00000000000E+00 0. -1.
<mgrwt>
<rscale>  1 0.30000000E+03</rscale>
<asrwt>0</asrwt>
<pdfrwt beam="1">  1       21 0.37279018E-02 0.30000000E+03</pdfrwt>
<pdfrwt beam="2">0</pdfrwt>
<totfact> 0.47334697E+04</totfact>
</mgrwt>
</event>
<event>
 6    1  0.1295671E-001  0.3000000E+03  0.7818608E-02  0.1093470E+00
         21   -1    0    0  501  502  0.00000000000E+00  0.00000000000E+00  0.24136614517E+01  0.24136614517E+01  0.00000000000E+00 0. -1.
         13   -1    0    0    0    0 -0.00000000000E+00 -0.00000000000E+00 -0.10000000000E+04  0.10000000000E+04  0.00000000000E+00 0.  1.
    9000005    2    1    2  501    0  0.24361687927E+02 -0.39277874782E+02 -0.66687600387E+03  0.66848916587E+03  0.42328551247E+01 0.  0.
         13    1    3    3    0    0  0.71047211925E+01 -0.14305719941E+02 -0.21104057549E+03  0.21164417117E+03  0.00000000000E+00 0.  1.
          3    1    3    3  501    0  0.17256966735E+02 -0.24972154842E+02 -0.45583542838E+03  0.45684499470E+03  0.00000000000E+00 0.  1.
         -1    1    1    2    0  502 -0.24361687927E+02  0.39277874782E+02 -0.33071033468E+03  0.33392449558E+03  0.00000000000E+00 0. -1.
<mgrwt>
<rscale>  1 0.30000000E+03</rscale>
<asrwt>0</asrwt>
<pdfrwt beam="1">  1       21 0.87769692E-02 0.30000000E+03</pdfrwt>
<pdfrwt beam="2">0</pdfrwt>
<totfact> 0.10849342E+04</totfact>
</mgrwt>
</event>
<event>
 6    1  0.1295671E-001  0.3000000E+03  0.7818608E-02  0.1093470E+00
         21   -1    0    0  501  502  0.00000000000E+00  0.00000000000E+00  0.10060592221E+01  0.10060592221E+01  0.00000000000E+00 0. -1.
         13   -1    0    0    0    0 -0.00000000000E+00 -0.00000000000E+00 -0.10000000000E+04  0.10000000000E+04  0.00000000000E+00 0.  1.
    9000005    2    1    2  501    0  0.57753384130E+01  0.29809857299E+02 -0.64029482067E+03  0.64102405843E+03  0.35219294514E+01 0.  0.
         13    1    3    3    0    0  0.15750024332E+01  0.26888711701E+01 -0.61193419851E+02  0.61272712473E+02  0.00000000000E+00 0.  1.
          3    1    3    3  501    0  0.42003359798E+01  0.27120986129E+02 -0.57910140082E+03  0.57975134596E+03  0.00000000000E+00 0.  1.
         -1    1    1    2    0  502 -0.57753384130E+01 -0.29809857299E+02 -0.35869912011E+03  0.35998200079E+03  0.00000000000E+00 0. -1.
<mgrwt>
<rscale>  1 0.30000000E+03</rscale>
<asrwt>0</asrwt>
<pdfrwt beam="1">  1       21 0.36584049E-02 0.30000000E+03</pdfrwt>
<pdfrwt beam="2">0</pdfrwt>
<totfact> 0.48853565E+04</totfact>
</mgrwt>
</event>
<event>
 6    1  0.1295671E-001  0.3000000E+03  0.7818608E-02  0.1093470E+00
         21   -1    0    0  501  502  0.00000000000E+00  0.00000000000E+00  0.16264678579E+01  0.16264678579E+01  0.00000000000E+00 0. -1.
         13   -1    0    0    0    0 -0.00000000000E+00 -0.00000000000E+00 -0.10000000000E+04  0.10000000000E+04  0.00000000000E+00 0.  1.
    9000005    2    1    2  501    0 -0.20044599230E+02 -0.27318858031E+02 -0.77013251155E+03  0.77088403690E+03  0.31633908690E+01 0.  0.
         13    1    3    3    0    0 -0.19841289185E+01 -0.28858314006E+01 -0.10403496200E+03  0.10409389083E+03  0.00000000000E+00 0.  1.
          1    1    3    3  501    0 -0.18060470312E+02 -0.24433026630E+02 -0.66609754956E+03  0.66679014607E+03  0.00000000000E+00 0.  1.
         -3    1    1    2    0  502  0.20044599230E+02  0.27318858031E+02 -0.22824102059E+03  0.23074243095E+03  0.00000000000E+00 0. -1.
<mgrwt>
<rscale>  1 0.30000000E+03</rscale>
<asrwt>0</asrwt>
<pdfrwt beam="1">  1       21 0.59144410E-02 0.30000000E+03</pdfrwt>
<pdfrwt beam="2">0</pdfrwt>
<totfact> 0.21599983E+04</totfact>
</mgrwt>
</event>
<event>
 6    1  0.1295671E-001  0.3000000E+03  0.7818608E-02  0.1093470E+00
         21   -1    0    0  501  502  0.00000000000E+00  0.00000000000E+00  0.13943080779E+01  0.13943080779E+01  0.00000000000E+00 0. -1.
         13   -1    0    0    0    0 -0.00000000000E+00 -0.00000000000E+00 -0.10000000000E+04  0.10000000000E+04  0.00000000000E+00 0.  1.
    9000005    2    1    2  501    0 -0.12079475410E+02 -0.34474133021E+02 -0.59891023447E+03  0.60003307642E+03  0.34415499378E+01 0.  0.
         13    1    3    3    0    0 -0.79146829552E+00 -0.16310478060E+01 -0.19961082460E+02  0.20043242053E+02  0.00000000000E+00 0.  1.
          3    1    3    3  501    0 -0.11288007114E+02 -0.32843085215E+02 -0.57894915201E+03  0.57998983437E+03  0.00000000000E+00 0.  1.
         -1    1    1    2    0  502  0.12079475410E+02  0.34474133021E+02 -0.39969545745E+03  0.40136123166E+03  0.00000000000E+00 0. -1.
<mgrwt>
<rscale>  1 0.30000000E+03</rscale>
<asrwt>0</asrwt>
<pdfrwt beam="1">  1       21 0.50702219E-02 0.30000000E+03</pdfrwt>
<pdfrwt beam="2">0</pdfrwt>
<totfact> 0.28127660E+04</totfact>
</mgrwt>
</event>
<event>
 6    1  0.1295671E-001  0.3000000E+03  0.7818608E-02  0.1093470E+00
         21   -1    0    0  501  502  0.00000000000E+00  0.00000000000E+00  0.13899600429E+01  0.13899600429E+01  0.00000000000E+00 0. -1.
         13   -1    0    0    0    0 -0.00000000000E+00 -0.00000000000E+00 -0.10000000000E+04  0.10000000000E+04  0.00000000000E+00 0.  1.
    9000005    2    1    2  501    0 -0.33984990693E+02 -0.11660208436E+02 -0.62960674574E+03  0.63064156666E+03  0.36319780162E+01 0.  0.
         13    1    3    3    0    0 -0.27026058269E+01 -0.14078006922E+01 -0.39541747835E+02  0.39658993972E+02  0.00000000000E+00 0.  1.
          1    1    3    3  501    0 -0.31282384867E+02 -0.10252407744E+02 -0.59006499790E+03  0.59098257268E+03  0.00000000000E+00 0.  1.
         -1    1    1    2    0  502  0.33984990693E+02  0.11660208436E+02 -0.36900329422E+03  0.37074839339E+03  0.00000000000E+00 0. -1.
<mgrwt>
<rscale>  1 0.30000000E+03</rscale>
<asrwt>0</asrwt>
<pdfrwt beam="1">  1       21 0.50544108E-02 0.30000000E+03</pdfrwt>
<pdfrwt beam="2">0</pdfrwt>
<totfact> 0.28277916E+04</totfact>
</mgrwt>
</event>
<event>
 6    1  0.1295671E-001  0.3000000E+03  0.7818608E-02  0.1093470E+00
         21   -1    0    0  501  502  0.00000000000E+00  0.00000000000E+00  0.12386873969E+01  0.12386873969E+01  0.00000000000E+00 0. -1.
         13   -1    0    0    0    0 -0.00000000000E+00 -0.00000000000E+00 -0.10000000000E+04  0.10000000000E+04  0.00000000000E+00 0.  1.
    9000005    2    1    2  501    0 -0.43088322685E+01 -0.33475133074E+02 -0.63852670233E+03  0.63942640871E+03  0.32606744221E+01 0.  0.
         13    1    3    3    0    0 -0.82636640308E+00 -0.17912162702E+02 -0.35120694567E+03  0.35166439561E+03  0.00000000000E+00 0.  1.
          3    1    3    3  501    0 -0.34824658654E+01 -0.15562970372E+02 -0.28731975666E+03  0.28776201309E+03  0.00000000000E+00 0.  1.
         -3    1    1    2    0  502  0.43088322685E+01  0.33475133074E+02 -0.36023461027E+03  0.36181227869E+03  0.00000000000E+00 0. -1.
<mgrwt>
<rscale>  1 0.30000000E+03</rscale>
<asrwt>0</asrwt>
<pdfrwt beam="1">  1       21 0.45043273E-02 0.30000000E+03</pdfrwt>
<pdfrwt beam="2">0</pdfrwt>
<totfact> 0.34402031E+04</totfact>
</mgrwt>
</event>
<event>
 6    1  0.1295671E-001  0.3000000E+03  0.7818608E-02  0.1093470E+00
         21   -1    0    0  501  502  0.00000000000E+00  0.00000000000E+00  0.25617543553E+01  0.25617543553E+01  0.00000000000E+00 0. -1.
         13   -1    0    0    0    0 -0.00000000000E+00 -0.00000000000E+00 -0.10000000000E+04  0.10000000000E+04  0.00000000000E+00 0.  1.
    9000005    2    1    2  501    0  0.45834763606E+02 -0.10534112669E+02 -0.31513299513E+03  0.31863760069E+03  0.30533375818E+01 0.  0.
         13    1    3    3    0    0  0.97352791441E+01 -0.28604726208E+01 -0.75682444687E+02  0.76359612345E+02  0.00000000000E+00 0.  1.
          1    1    3    3  501    0  0.36099484462E+02 -0.76736400478E+01 -0.23945055045E+03  0.24227798835E+03  0.00000000000E+00 0.  1.
         -1    1    1    2    0  502 -0.45834763606E+02  0.10534112669E+02 -0.68230525051E+03  0.68392415366E+03  0.00000000000E+00 0. -1.
<mgrwt>
<rscale>  1 0.30000000E+03</rscale>
<asrwt>0</asrwt>
<pdfrwt beam="1">  1       21 0.93154900E-02 0.30000000E+03</pdfrwt>
<pdfrwt beam="2">0</pdfrwt>
<totfact> 0.97625699E+03</totfact>
</mgrwt>
</event>
<event>
 6    1  0.1295671E-001  0.3000000E+03  0.7818608E-02  0.1093470E+00
         21   -1    0    0  501  502  0.00000000000E+00  0.00000000000E+00  0.96954579251E+00  0.96954579251E+00  0.00000000000E+00 0. -1.
         13   -1    0    0    0    0 -0.00000000000E+00 -0.00000000000E+00 -0.10000000000E+04  0.10000000000E+04  0.00000000000E+00 0.  1.
    9000005    2    1    2  501    0  0.68336612047E+01  0.30169599588E+02 -0.45774303901E+03  0.45879893656E+03  0.32970837774E+01 0.  0.
         13    1    3    3    0    0  0.10184994415E+01  0.11433905894E+02 -0.16274722583E+03  0.16315155856E+03  0.00000000000E+00 0.  1.
          1    1    3    3  501    0  0.58151617632E+01  0.18735693693E+02 -0.29499581318E+03  0.29564737800E+03  0.00000000000E+00 0.  1.
         -1    1    1    2    0  502 -0.68336612047E+01 -0.30169599588E+02 -0.54128741520E+03  0.54217060924E+03  0.00000000000E+00 0. -1.
<mgrwt>
<rscale>  1 0.30000000E+03</rscale>
<asrwt>0</asrwt>
<pdfrwt beam="1">  1       21 0.35256285E-02 0.30000000E+03</pdfrwt>
<pdfrwt beam="2">0</pdfrwt>
<totfact> 0.51977754E+04</totfact>
</mgrwt>
</event>
<event>
 6    1  0.1295671E-001  0.3000000E+03  0.7818608E-02  0.1093470E+00
         21   -1    0    0  501  502  0.00000000000E+00  0.00000000000E+00  0.18568419598E+01  0.18568419598E+01  0.00000000000E+00 0. -1.
         13   -1    0    0    0    0 -0.00000000000E+00 -0.00000000000E+00 -0.10000000000E+04  0.10000000000E+04  0.00000000000E+00 0.  1.
    9000005    2    1    2  501    0  0.36121100308E+02  0.80735751347E+01 -0.75495976697E+03  0.75587294371E+03  0.31210246930E+01 0.  0.
         13    1    3    3    0    0  0.32814812628E+02  0.64415370525E+01 -0.67319506655E+03  0.67402515009E+03  0.00000000000E+00 0.  1.
          3    1    3    3  501    0  0.33062876802E+01  0.16320380821E+01 -0.81764700415E+02  0.81847793620E+02  0.00000000000E+00 0.  1.
         -1    1    1    2    0  502 -0.36121100308E+02 -0.80735751347E+01 -0.24318339107E+03  0.24598389825E+03  0.00000000000E+00 0. -1.
<mgrwt>
<rscale>  1 0.30000000E+03</rscale>
<asrwt>0</asrwt>
<pdfrwt beam="1">  1       21 0.67521668E-02 0.30000000E+03</pdfrwt>
<pdfrwt beam="2">0</pdfrwt>
<totfact> 0.17178434E+04</totfact>
</mgrwt>
</event>
<event>
 6    1  0.1295671E-001  0.3000000E+03  0.7818608E-02  0.1093470E+00
         21   -1    0    0  501  502  0.00000000000E+00  0.00000000000E+00  0.12569819335E+01  0.12569819335E+01  0.00000000000E+00 0. -1.
         13   -1    0    0    0    0 -0.00000000000E+00 -0.00000000000E+00 -0.10000000000E+04  0.10000000000E+04  0.00000000000E+00 0.  1.
    9000005    2    1    2  501    0  0.31054748562E+02 -0.12605562851E+02 -0.66137622313E+03  0.66222947280E+03  0.24634327934E+01 0.  0.
         13    1    3    3    0    0  0.20371742108E+02 -0.95155173907E+01 -0.44438550599E+03  0.44495396490E+03  0.00000000000E+00 0.  1.
          3    1    3    3  501    0  0.10683006454E+02 -0.30900454603E+01 -0.21699071714E+03  0.21727550790E+03  0.00000000000E+00 0.  1.
         -1    1    1    2    0  502 -0.31054748562E+02  0.12605562851E+02 -0.33736679494E+03  0.33902750914E+03  0.00000000000E+00 0. -1.
<mgrwt>
<rscale>  1 0.30000000E+03</rscale>
<asrwt>0</asrwt>
<pdfrwt beam="1">  1       21 0.45708530E-02 0.30000000E+03</pdfrwt>
<pdfrwt beam="2">0</pdfrwt>
<totfact> 0.33556184E+04</totfact>
</mgrwt>
</event>
<event>
 6    1  0.1295671E-001  0.3000000E+03  0.7818608E-02  0.1093470E+00
         21   -1    0    0  501  502  0.00000000000E+00  0.00000000000E+00  0.24650965040E+01  0.24650965040E+01  0.00000000000E+00 0. -1.
         13   -1    0    0    0    0 -0.00000000000E+00 -0.00000000000E+00 -0.10000000000E+04  0.10000000000E+04  0.00000000000E+00 0.  1.
    9000005    2    1    2  501    0 -0.40249066985E+02  0.22685283804E+02 -0.67729781787E+03  0.67891231796E+03  0.74156516684E+01 0.  0.
         13    1    3    3    0    0 -0.33253662319E+02  0.16460463401E+02 -0.50587658207E+03  0.50723551650E+03  0.00000000000E+00 0.  1.
          3    1    3    3  501    0 -0.69954046659E+01  0.62248204028E+01 -0.17142123581E+03  0.17167680146E+03  0.00000000000E+00 0.  1.
         -3    1    1    2    0  502  0.40249066985E+02 -0.22685283804E+02 -0.32023708562E+03  0.32355277854E+03  0.00000000000E+00 0. -1.
<mgrwt>
<rscale>  1 0.30000000E+03</rscale>
<asrwt>0</asrwt>
<pdfrwt beam="1">  1       21 0.89640062E-02 0.30000000E+03</pdfrwt>
<pdfrwt beam="2">0</pdfrwt>
<totfact> 0.10452019E+04</totfact>
</mgrwt>
</event>
<event>
 6    1  0.1295671E-001  0.3000000E+03  0.7818608E-02  0.1093470E+00
         21   -1    0    0  501  502  0.00000000000E+00  0.00000000000E+00  0.18284919590E+01  0.18284919590E+01  0.00000000000E+00 0. -1.
         13   -1    0    0    0    0 -0.00000000000E+00 -0.00000000000E+00 -0.10000000000E+04  0.10000000000E+04  0.00000000000E+00 0.  1.
    9000005    2    1    2  501    0 -0.29456759812E+02 -0.13440366834E+02 -0.82591242533E+03  0.82655289259E+03  0.31631895263E+01 0.  0.
         13    1    3    3    0    0 -0.24900800149E+02 -0.11444351698E+02 -0.66730197207E+03  0.66786446602E+03  0.00000000000E+00 0.  1.
          3    1    3    3  501    0 -0.45559596623E+01 -0.19960151365E+01 -0.15861045326E+03  0.15868842657E+03  0.00000000000E+00 0.  1.
         -1    1    1    2    0  502  0.29456759812E+02  0.13440366834E+02 -0.17225908271E+03  0.17527559937E+03  0.00000000000E+00 0. -1.
<mgrwt>
<rscale>  1 0.30000000E+03</rscale>
<asrwt>0</asrwt>
<pdfrwt beam="1">  1       21 0.66490757E-02 0.30000000E+03</pdfrwt>
<pdfrwt beam="2">0</pdfrwt>
<totfact> 0.17643094E+04</totfact>
</mgrwt>
</event>
<event>
 6    1  0.1295671E-001  0.3000000E+03  0.7818608E-02  0.1093470E+00
         21   -1    0    0  501  502  0.00000000000E+00  0.00000000000E+00  0.33557860882E+01  0.33557860882E+01  0.00000000000E+00 0. -1.
         13   -1    0    0    0    0 -0.00000000000E+00 -0.00000000000E+00 -0.10000000000E+04  0.10000000000E+04  0.00000000000E+00 0.  1.
    9000005    2    1    2  501    0  0.45681653706E+02  0.15839337806E+02 -0.77437827675E+03  0.77589184405E+03  0.29563567938E+01 0.  0.
         13    1    3    3    0    0  0.16072147220E+02  0.69095995603E+01 -0.26947018448E+03  0.27003747296E+03  0.00000000000E+00 0.  1.
          3    1    3    3  501    0  0.29609506486E+02  0.89297382452E+01 -0.50490809228E+03  0.50585437109E+03  0.00000000000E+00 0.  1.
         -3    1    1    2    0  502 -0.45681653706E+02 -0.15839337806E+02 -0.22226593716E+03  0.22746394204E+03  0.00000000000E+00 0. -1.
<mgrwt>
<rscale>  1 0.30000000E+03</rscale>
<asrwt>0</asrwt>
<pdfrwt beam="1">  1       21 0.12202884E-01 0.30000000E+03</pdfrwt>
<pdfrwt beam="2">0</pdfrwt>
<totfact> 0.60112093E+03</totfact>
</mgrwt>
</event>
<event>
 6    1  0.1295671E-001  0.3000000E+03  0.7818608E-02  0.1093470E+00
         21   -1    0    0  501  502  0.00000000000E+00  0.00000000000E+00  0.29709219802E+01  0.29709219802E+01  0.00000000000E+00 0. -1.
         13   -1    0    0    0    0 -0.00000000000E+00 -0.00000000000E+00 -0.10000000000E+04  0.10000000000E+04  0.00000000000E+00 0.  1.
    9000005    2    1    2  501    0 -0.12928850938E+02  0.37196118439E+02 -0.84497726629E+03  0.84590259333E+03  0.37296713858E+01 0.  0.
         13    1    3    3    0    0 -0.54374559296E+01  0.15857500469E+02 -0.32085324014E+03  0.32129087749E+03  0.00000000000E+00 0.  1.
          1    1    3    3  501    0 -0.74913950082E+01  0.21338617969E+02 -0.52412402615E+03  0.52461171584E+03  0.00000000000E+00 0.  1.
         -1    1    1    2    0  502  0.12928850938E+02 -0.37196118439E+02 -0.15205181173E+03  0.15706832865E+03  0.00000000000E+00 0. -1.
<mgrwt>
<rscale>  1 0.30000000E+03</rscale>
<asrwt>0</asrwt>
<pdfrwt beam="1">  1       21 0.10803375E-01 0.30000000E+03</pdfrwt>
<pdfrwt beam="2">0</pdfrwt>
<totfact> 0.74910295E+03</totfact>
</mgrwt>
</event>
<event>
 6    1  0.1295671E-001  0.3000000E+03  0.7818608E-02  0.1093470E+00
         21   -1    0    0  501  502  0.00000000000E+00  0.00000000000E+00  0.18663994045E+01  0.18663994045E+01  0.00000000000E+00 0. -1.
         13   -1    0    0    0    0 -0.00000000000E+00 -0.00000000000E+00 -0.10000000000E+04  0.10000000000E+04  0.00000000000E+00 0.  1.
    9000005    2    1    2  501    0  0.11962793345E+02  0.40044732577E+02 -0.62055171615E+03  0.62197856268E+03  0.51196661724E+01 0.  0.
         13    1    3    3    0    0  0.73966997330E+01  0.19688051653E+02 -0.34265968572E+03  0.34330451608E+03  0.00000000000E+00 0.  1.
          1    1    3    3  501    0  0.45660936122E+01  0.20356680924E+02 -0.27789203043E+03  0.27867404659E+03  0.00000000000E+00 0.  1.
         -3    1    1    2    0  502 -0.11962793345E+02 -0.40044732577E+02 -0.37758188445E+03  0.37988783673E+03  0.00000000000E+00 0. -1.
<mgrwt>
<rscale>  1 0.30000000E+03</rscale>
<asrwt>0</asrwt>
<pdfrwt beam="1">  1       21 0.67869212E-02 0.30000000E+03</pdfrwt>
<pdfrwt beam="2">0</pdfrwt>
<totfact> 0.17026017E+04</totfact>
</mgrwt>
</event>
<event>
 6    1  0.1295671E-001  0.3000000E+03  0.7818608E-02  0.1093470E+00
         21   -1    0    0  501  502  0.00000000000E+00  0.00000000000E+00  0.15929673188E+01  0.15929673188E+01  0.00000000000E+00 0. -1.
         13   -1    0    0    0    0 -0.00000000000E+00 -0.00000000000E+00 -0.10000000000E+04  0.10000000000E+04  0.00000000000E+00 0.  1.
    9000005    2    1    2  501    0  0.38121989898E+02  0.11522535543E+02 -0.48616372187E+03  0.48780384286E+03  0.33718999833E+01 0.  0.
         13    1    3    3    0    0  0.16552204062E+02  0.67528258617E+01 -0.21659380640E+03  0.21733028571E+03  0.00000000000E+00 0.  1.
          3    1    3    3  501    0  0.21569785836E+02  0.47697096812E+01 -0.26956991547E+03  0.27047355715E+03  0.00000000000E+00 0.  1.
         -3    1    1    2    0  502 -0.38121989898E+02 -0.11522535543E+02 -0.51224331081E+03  0.51378912446E+03  0.00000000000E+00 0. -1.
<mgrwt>
<rscale>  1 0.30000000E+03</rscale>
<asrwt>0</asrwt>
<pdfrwt beam="1">  1       21 0.57926206E-02 0.30000000E+03</pdfrwt>
<pdfrwt beam="2">0</pdfrwt>
<totfact> 0.22388603E+04</totfact>
</mgrwt>
</event>
<event>
 6    1  0.1295671E-001  0.3000000E+03  0.7818608E-02  0.1093470E+00
         21   -1    0    0  501  502  0.00000000000E+00  0.00000000000E+00  0.39630163441E+01  0.39630163441E+01  0.00000000000E+00 0. -1.
         13   -1    0    0    0    0 -0.00000000000E+00 -0.00000000000E+00 -0.10000000000E+04  0.10000000000E+04  0.00000000000E+00 0.  1.
    9000005    2    1    2  501    0 -0.33514114372E+02 -0.28671770204E+02 -0.85581881924E+03  0.85697186049E+03  0.54453675694E+01 0.  0.
         13    1    3    3    0    0 -0.94761225023E+00 -0.33056061378E-01 -0.11053988693E+02  0.11094581006E+02  0.00000000000E+00 0.  1.
          1    1    3    3  501    0 -0.32566502122E+02 -0.28638714143E+02 -0.84476483055E+03  0.84587727948E+03  0.00000000000E+00 0.  1.
         -1    1    1    2    0  502  0.33514114372E+02  0.28671770204E+02 -0.14021816441E+03  0.14699115586E+03  0.00000000000E+00 0. -1.
<mgrwt>
<rscale>  1 0.30000000E+03</rscale>
<asrwt>0</asrwt>
<pdfrwt beam="1">  1       21 0.14410999E-01 0.30000000E+03</pdfrwt>
<pdfrwt beam="2">0</pdfrwt>
<totfact> 0.44342145E+03</totfact>
</mgrwt>
</event>
<event>
 6    1  0.1295671E-001  0.3000000E+03  0.7818608E-02  0.1093470E+00
         21   -1    0    0  501  502  0.00000000000E+00  0.00000000000E+00  0.10790306981E+01  0.10790306981E+01  0.00000000000E+00 0. -1.
         13   -1    0    0    0    0 -0.00000000000E+00 -0.00000000000E+00 -0.10000000000E+04  0.10000000000E+04  0.00000000000E+00 0.  1.
    9000005    2    1    2  501    0  0.14852049695E+02  0.29004317084E+02 -0.44738767236E+03  0.44858395250E+03  0.31621634275E+01 0.  0.
         13    1    3    3    0    0  0.57071001594E+01  0.83988834876E+01 -0.14951500483E+03  0.14985943049E+03  0.00000000000E+00 0.  1.
          1    1    3    3  501    0  0.91449495354E+01  0.20605433597E+02 -0.29787266752E+03  0.29872452202E+03  0.00000000000E+00 0.  1.
         -1    1    1    2    0  502 -0.14852049695E+02 -0.29004317084E+02 -0.55153329694E+03  0.55249507819E+03  0.00000000000E+00 0. -1.
<mgrwt>
<rscale>  1 0.30000000E+03</rscale>
<asrwt>0</asrwt>
<pdfrwt beam="1">  1       21 0.39237563E-02 0.30000000E+03</pdfrwt>
<pdfrwt beam="2">0</pdfrwt>
<totfact> 0.43431697E+04</totfact>
</mgrwt>
</event>
<event>
 6    1  0.1295671E-001  0.3000000E+03  0.7818608E-02  0.1093470E+00
         21   -1    0    0  501  502  0.00000000000E+00  0.00000000000E+00  0.11765059991E+01  0.11765059991E+01  0.00000000000E+00 0. -1.
         13   -1    0    0    0    0 -0.00000000000E+00 -0.00000000000E+00 -0.10000000000E+04  0.10000000000E+04  0.00000000000E+00 0.  1.
    9000005    2    1    2  501    0  0.12596950763E+02 -0.29056439144E+02 -0.69012303883E+03  0.69085581567E+03  0.29982487243E+01 0.  0.
         13    1    3    3    0    0  0.59712004133E+01 -0.10265674664E+02 -0.26635403501E+03  0.26661866266E+03  0.00000000000E+00 0.  1.
          3    1    3    3  501    0  0.66257503496E+01 -0.18790764480E+02 -0.42376900381E+03  0.42423715301E+03  0.00000000000E+00 0.  1.
         -1    1    1    2    0  502 -0.12596950763E+02  0.29056439144E+02 -0.30870045517E+03  0.31032069033E+03  0.00000000000E+00 0. -1.
<mgrwt>
<rscale>  1 0.30000000E+03</rscale>
<asrwt>0</asrwt>
<pdfrwt beam="1">  1       21 0.42782127E-02 0.30000000E+03</pdfrwt>
<pdfrwt beam="2">0</pdfrwt>
<totfact> 0.37537790E+04</totfact>
</mgrwt>
</event>
<event>
 6    1  0.1295671E-001  0.3000000E+03  0.7818608E-02  0.1093470E+00
         21   -1    0    0  501  502  0.00000000000E+00  0.00000000000E+00  0.22519278398E+01  0.22519278398E+01  0.00000000000E+00 0. -1.
         13   -1    0    0    0    0 -0.00000000000E+00 -0.00000000000E+00 -0.10000000000E+04  0.10000000000E+04  0.00000000000E+00 0.  1.
    9000005    2    1    2  501    0 -0.38445616023E+02 -0.26201215184E+02 -0.59493188900E+03  0.59675785083E+03  0.33780050671E+01 0.  0.
         13    1    3    3    0    0 -0.12306386181E+02 -0.10328791141E+02 -0.20513150843E+03  0.20575973079E+03  0.00000000000E+00 0.  1.
          3    1    3    3  501    0 -0.26139229842E+02 -0.15872424043E+02 -0.38980038057E+03  0.39099812004E+03  0.00000000000E+00 0.  1.
         -1    1    1    2    0  502  0.38445616023E+02  0.26201215184E+02 -0.40281618316E+03  0.40549407701E+03  0.00000000000E+00 0. -1.
<mgrwt>
<rscale>  1 0.30000000E+03</rscale>
<asrwt>0</asrwt>
<pdfrwt beam="1">  1       21 0.81888458E-02 0.30000000E+03</pdfrwt>
<pdfrwt beam="2">0</pdfrwt>
<totfact> 0.12260623E+04</totfact>
</mgrwt>
</event>
<event>
 6    1  0.1295671E-001  0.3000000E+03  0.7818608E-02  0.1093470E+00
         21   -1    0    0  501  502  0.00000000000E+00  0.00000000000E+00  0.31005595808E+01  0.31005595808E+01  0.00000000000E+00 0. -1.
         13   -1    0    0    0    0 -0.00000000000E+00 -0.00000000000E+00 -0.10000000000E+04  0.10000000000E+04  0.00000000000E+00 0.  1.
    9000005    2    1    2  501    0  0.50764331187E+02  0.78638529649E+01 -0.68965294655E+03  0.69158929896E+03  0.59761387057E+01 0.  0.
         13    1    3    3    0    0  0.91137492238E+01  0.24094625643E+01 -0.15685328393E+03  0.15713630584E+03  0.00000000000E+00 0.  1.
          3    1    3    3  501    0  0.41650581964E+02  0.54543904006E+01 -0.53279966262E+03  0.53445299311E+03  0.00000000000E+00 0.  1.
         -1    1    1    2    0  502 -0.50764331187E+02 -0.78638529649E+01 -0.30724649386E+03  0.31151126063E+03  0.00000000000E+00 0. -1.
<mgrwt>
<rscale>  1 0.30000000E+03</rscale>
<asrwt>0</asrwt>
<pdfrwt beam="1">  1       21 0.11274786E-01 0.30000000E+03</pdfrwt>
<pdfrwt beam="2">0</pdfrwt>
<totfact> 0.69368027E+03</totfact>
</mgrwt>
</event>
<event>
 6    1  0.1295671E-001  0.3000000E+03  0.7818608E-02  0.1093470E+00
         21   -1    0    0  501  502  0.00000000000E+00  0.00000000000E+00  0.21527651530E+01  0.21527651530E+01  0.00000000000E+00 0. -1.
         13   -1    0    0    0    0 -0.00000000000E+00 -0.00000000000E+00 -0.10000000000E+04  0.10000000000E+04  0.00000000000E+00 0.  1.
    9000005    2    1    2  501    0  0.33986364497E+02 -0.20831439280E-01 -0.83978848763E+03  0.84048136701E+03  0.30250503589E+01 0.  0.
         13    1    3    3    0    0  0.12545158395E+02 -0.13011157408E+01 -0.32756317441E+03  0.32780589856E+03  0.00000000000E+00 0.  1.
          3    1    3    3  501    0  0.21441206101E+02  0.12802843015E+01 -0.51222531322E+03  0.51267546845E+03  0.00000000000E+00 0.  1.
         -3    1    1    2    0  502 -0.33986364497E+02  0.20831439280E-01 -0.15805874721E+03  0.16167139814E+03  0.00000000000E+00 0. -1.
<mgrwt>
<rscale>  1 0.30000000E+03</rscale>
<asrwt>0</asrwt>
<pdfrwt beam="1">  1       21 0.78282534E-02 0.30000000E+03</pdfrwt>
<pdfrwt beam="2">0</pdfrwt>
<totfact> 0.13269892E+04</totfact>
</mgrwt>
</event>
<event>
 6    1  0.1295671E-001  0.3000000E+03  0.7818608E-02  0.1093470E+00
         21   -1    0    0  501  502  0.00000000000E+00  0.00000000000E+00  0.44686233605E+01  0.44686233605E+01  0.00000000000E+00 0. -1.
         13   -1    0    0    0    0 -0.00000000000E+00 -0.00000000000E+00 -0.10000000000E+04  0.10000000000E+04  0.00000000000E+00 0.  1.
    9000005    2    1    2  501    0 -0.14031249775E+01 -0.56788229503E+02 -0.76222845538E+03  0.76434964277E+03  0.33595309326E+01 0.  0.
         13    1    3    3    0    0 -0.29997699074E+00 -0.50031369461E+02 -0.66265917406E+03  0.66454526473E+03  0.00000000000E+00 0.  1.
          3    1    3    3  501    0 -0.11031479868E+01 -0.67568600413E+01 -0.99569281319E+02  0.99804378038E+02  0.00000000000E+00 0.  1.
         -3    1    1    2    0  502  0.14031249775E+01  0.56788229503E+02 -0.23330292126E+03  0.24011898059E+03  0.00000000000E+00 0. -1.
<mgrwt>
<rscale>  1 0.30000000E+03</rscale>
<asrwt>0</asrwt>
<pdfrwt beam="1">  1       21 0.16249574E-01 0.30000000E+03</pdfrwt>
<pdfrwt beam="2">0</pdfrwt>
<totfact> 0.35487344E+03</totfact>
</mgrwt>
</event>
<event>
 6    1  0.1295671E-001  0.3000000E+03  0.7818608E-02  0.1093470E+00
         21   -1    0    0  501  502  0.00000000000E+00  0.00000000000E+00  0.12525715668E+01  0.12525715668E+01  0.00000000000E+00 0. -1.
         13   -1    0    0    0    0 -0.00000000000E+00 -0.00000000000E+00 -0.10000000000E+04  0.10000000000E+04  0.00000000000E+00 0.  1.
    9000005    2    1    2  501    0 -0.25777637389E+02 -0.19944665876E+02 -0.30935770169E+03  0.31109282801E+03  0.37793859887E+01 0.  0.
         13    1    3    3    0    0 -0.21338100311E+02 -0.14955203069E+02 -0.25431921405E+03  0.25565061169E+03  0.00000000000E+00 0.  1.
          3    1    3    3  501    0 -0.44395370779E+01 -0.49894628074E+01 -0.55038487643E+02  0.55442216321E+02  0.00000000000E+00 0.  1.
         -3    1    1    2    0  502  0.25777637389E+02  0.19944665876E+02 -0.68938972674E+03  0.69015974356E+03  0.00000000000E+00 0. -1.
<mgrwt>
<rscale>  1 0.30000000E+03</rscale>
<asrwt>0</asrwt>
<pdfrwt beam="1">  1       21 0.45548153E-02 0.30000000E+03</pdfrwt>
<pdfrwt beam="2">0</pdfrwt>
<totfact> 0.33757117E+04</totfact>
</mgrwt>
</event>
<event>
 6    1  0.1295671E-001  0.3000000E+03  0.7818608E-02  0.1093470E+00
         21   -1    0    0  501  502  0.00000000000E+00  0.00000000000E+00  0.72045787075E+01  0.72045787075E+01  0.00000000000E+00 0. -1.
         13   -1    0    0    0    0 -0.00000000000E+00 -0.00000000000E+00 -0.10000000000E+04  0.10000000000E+04  0.00000000000E+00 0.  1.
    9000005    2    1    2  501    0 -0.30758277273E+02 -0.63250358826E+02 -0.21499128359E+03  0.22622701428E+03  0.32757377595E+01 0.  0.
         13    1    3    3    0    0 -0.18514932832E+02 -0.41651657386E+02 -0.13924602063E+03  0.14651661189E+03  0.00000000000E+00 0.  1.
          3    1    3    3  501    0 -0.12243344441E+02 -0.21598701440E+02 -0.75745262965E+02  0.79710402387E+02  0.00000000000E+00 0.  1.
         -1    1    1    2    0  502  0.30758277273E+02  0.63250358826E+02 -0.77780413770E+03  0.78097756443E+03  0.00000000000E+00 0. -1.
<mgrwt>
<rscale>  1 0.30000000E+03</rscale>
<asrwt>0</asrwt>
<pdfrwt beam="1">  1       21 0.26198523E-01 0.30000000E+03</pdfrwt>
<pdfrwt beam="2">0</pdfrwt>
<totfact> 0.14225540E+03</totfact>
</mgrwt>
</event>
<event>
 6    1  0.1295671E-001  0.3000000E+03  0.7818608E-02  0.1093470E+00
         21   -1    0    0  501  502  0.00000000000E+00  0.00000000000E+00  0.10119196550E+01  0.10119196550E+01  0.00000000000E+00 0. -1.
         13   -1    0    0    0    0 -0.00000000000E+00 -0.00000000000E+00 -0.10000000000E+04  0.10000000000E+04  0.00000000000E+00 0.  1.
    9000005    2    1    2  501    0 -0.27566772529E+02  0.13382020839E+02 -0.37180896391E+03  0.37308465514E+03  0.33539271725E+01 0.  0.
         13    1    3    3    0    0 -0.19745138862E+02  0.11219474447E+02 -0.27256656168E+03  0.27351101927E+03  0.00000000000E+00 0.  1.
          3    1    3    3  501    0 -0.78216336671E+01  0.21625463928E+01 -0.99242402222E+02  0.99573635862E+02  0.00000000000E+00 0.  1.
         -1    1    1    2    0  502  0.27566772529E+02 -0.13382020839E+02 -0.62717911644E+03  0.62792726452E+03  0.00000000000E+00 0. -1.
<mgrwt>
<rscale>  1 0.30000000E+03</rscale>
<asrwt>0</asrwt>
<pdfrwt beam="1">  1       21 0.36797156E-02 0.30000000E+03</pdfrwt>
<pdfrwt beam="2">0</pdfrwt>
<totfact> 0.48379747E+04</totfact>
</mgrwt>
</event>
<event>
 6    1  0.1295671E-001  0.3000000E+03  0.7818608E-02  0.1093470E+00
         21   -1    0    0  501  502  0.00000000000E+00  0.00000000000E+00  0.16728119671E+01  0.16728119671E+01  0.00000000000E+00 0. -1.
         13   -1    0    0    0    0 -0.00000000000E+00 -0.00000000000E+00 -0.10000000000E+04  0.10000000000E+04  0.00000000000E+00 0.  1.
    9000005    2    1    2  501    0 -0.37417209416E+02  0.12337395659E+02 -0.63132377739E+03  0.63256068495E+03  0.33240557261E+01 0.  0.
         13    1    3    3    0    0 -0.28981339534E+02  0.10893175259E+02 -0.48631482541E+03  0.48729938306E+03  0.00000000000E+00 0.  1.
          1    1    3    3  501    0 -0.84358698820E+01  0.14442203999E+01 -0.14500895198E+03  0.14526130189E+03  0.00000000000E+00 0.  1.
         -1    1    1    2    0  502  0.37417209416E+02 -0.12337395659E+02 -0.36700341064E+03  0.36911212702E+03  0.00000000000E+00 0. -1.
<mgrwt>
<rscale>  1 0.30000000E+03</rscale>
<asrwt>0</asrwt>
<pdfrwt beam="1">  1       21 0.60829654E-02 0.30000000E+03</pdfrwt>
<pdfrwt beam="2">0</pdfrwt>
<totfact> 0.20578327E+04</totfact>
</mgrwt>
</event>
<event>
 6    1  0.1295671E-001  0.3000000E+03  0.7818608E-02  0.1093470E+00
         21   -1    0    0  501  502  0.00000000000E+00  0.00000000000E+00  0.31193083146E+01  0.31193083146E+01  0.00000000000E+00 0. -1.
         13   -1    0    0    0    0 -0.00000000000E+00 -0.00000000000E+00 -0.10000000000E+04  0.10000000000E+04  0.00000000000E+00 0.  1.
    9000005    2    1    2  501    0 -0.42844379027E+01  0.34515280126E+02 -0.89075614175E+03  0.89144083649E+03  0.32557524847E+01 0.  0.
         13    1    3    3    0    0 -0.32470537343E+01  0.32411120559E+02 -0.83669475234E+03  0.83732856914E+03  0.00000000000E+00 0.  1.
          1    1    3    3  501    0 -0.10373841684E+01  0.21041595666E+01 -0.54061389410E+02  0.54112267356E+02  0.00000000000E+00 0.  1.
         -1    1    1    2    0  502  0.42844379027E+01 -0.34515280126E+02 -0.10612454993E+03  0.11167847182E+03  0.00000000000E+00 0. -1.
<mgrwt>
<rscale>  1 0.30000000E+03</rscale>
<asrwt>0</asrwt>
<pdfrwt beam="1">  1       21 0.11342963E-01 0.30000000E+03</pdfrwt>
<pdfrwt beam="2">0</pdfrwt>
<totfact> 0.68617842E+03</totfact>
</mgrwt>
</event>
<event>
 6    1  0.1295671E-001  0.3000000E+03  0.7818608E-02  0.1093470E+00
         21   -1    0    0  501  502  0.00000000000E+00  0.00000000000E+00  0.11202346918E+01  0.11202346918E+01  0.00000000000E+00 0. -1.
         13   -1    0    0    0    0 -0.00000000000E+00 -0.00000000000E+00 -0.10000000000E+04  0.10000000000E+04  0.00000000000E+00 0.  1.
    9000005    2    1    2  501    0  0.20903064438E+02  0.25398821404E+02 -0.58550432476E+03  0.58643807558E+03  0.35019928018E+01 0.  0.
         13    1    3    3    0    0  0.85490597988E+01  0.12622771326E+02 -0.28843203606E+03  0.28883465894E+03  0.00000000000E+00 0.  1.
          3    1    3    3  501    0  0.12354004639E+02  0.12776050077E+02 -0.29707228870E+03  0.29760341665E+03  0.00000000000E+00 0.  1.
         -1    1    1    2    0  502 -0.20903064438E+02 -0.25398821404E+02 -0.41337544055E+03  0.41468215911E+03  0.00000000000E+00 0. -1.
<mgrwt>
<rscale>  1 0.30000000E+03</rscale>
<asrwt>0</asrwt>
<pdfrwt beam="1">  1       21 0.40735893E-02 0.30000000E+03</pdfrwt>
<pdfrwt beam="2">0</pdfrwt>
<totfact> 0.40775488E+04</totfact>
</mgrwt>
</event>
<event>
 6    1  0.1295671E-001  0.3000000E+03  0.7818608E-02  0.1093470E+00
         21   -1    0    0  501  502  0.00000000000E+00  0.00000000000E+00  0.74457664553E+01  0.74457664553E+01  0.00000000000E+00 0. -1.
         13   -1    0    0    0    0 -0.00000000000E+00 -0.00000000000E+00 -0.10000000000E+04  0.10000000000E+04  0.00000000000E+00 0.  1.
    9000005    2    1    2  501    0 -0.47296981807E+02  0.69558629400E+02 -0.60780431887E+03  0.61360835805E+03  0.37040015733E+01 0.  0.
         13    1    3    3    0    0 -0.24203178816E+02  0.36795408153E+02 -0.33072779284E+03  0.33364737206E+03  0.00000000000E+00 0.  1.
          1    1    3    3  501    0 -0.23093802991E+02  0.32763221247E+02 -0.27707652603E+03  0.27996098599E+03  0.00000000000E+00 0.  1.
         -1    1    1    2    0  502  0.47296981807E+02 -0.69558629400E+02 -0.38474991468E+03  0.39383740840E+03  0.00000000000E+00 0. -1.
<mgrwt>
<rscale>  1 0.30000000E+03</rscale>
<asrwt>0</asrwt>
<pdfrwt beam="1">  1       21 0.27075571E-01 0.30000000E+03</pdfrwt>
<pdfrwt beam="2">0</pdfrwt>
<totfact> 0.13330970E+03</totfact>
</mgrwt>
</event>
<event>
 6    1  0.1295671E-001  0.3000000E+03  0.7818608E-02  0.1093470E+00
         21   -1    0    0  501  502  0.00000000000E+00  0.00000000000E+00  0.19929366931E+01  0.19929366931E+01  0.00000000000E+00 0. -1.
         13   -1    0    0    0    0 -0.00000000000E+00 -0.00000000000E+00 -0.10000000000E+04  0.10000000000E+04  0.00000000000E+00 0.  1.
    9000005    2    1    2  501    0 -0.24982704243E+02 -0.33746127117E+02 -0.66775817107E+03  0.66908564114E+03  0.34181203136E+01 0.  0.
         13    1    3    3    0    0 -0.69248648549E+01 -0.69936755207E+01 -0.16148771390E+03  0.16178735115E+03  0.00000000000E+00 0.  1.
          1    1    3    3  501    0 -0.18057839389E+02 -0.26752451596E+02 -0.50627045717E+03  0.50729828999E+03  0.00000000000E+00 0.  1.
         -1    1    1    2    0  502  0.24982704243E+02  0.33746127117E+02 -0.33024889224E+03  0.33290729555E+03  0.00000000000E+00 0. -1.
<mgrwt>
<rscale>  1 0.30000000E+03</rscale>
<asrwt>0</asrwt>
<pdfrwt beam="1">  1       21 0.72470578E-02 0.30000000E+03</pdfrwt>
<pdfrwt beam="2">0</pdfrwt>
<totfact> 0.15188759E+04</totfact>
</mgrwt>
</event>
<event>
 6    1  0.1295671E-001  0.3000000E+03  0.7818608E-02  0.1093470E+00
         21   -1    0    0  501  502  0.00000000000E+00  0.00000000000E+00  0.22164630526E+01  0.22164630526E+01  0.00000000000E+00 0. -1.
         13   -1    0    0    0    0 -0.00000000000E+00 -0.00000000000E+00 -0.10000000000E+04  0.10000000000E+04  0.00000000000E+00 0.  1.
    9000005    2    1    2  501    0  0.23875487800E+02  0.39846074102E+02 -0.42158107534E+03  0.42414464632E+03  0.32139348723E+01 0.  0.
         13    1    3    3    0    0  0.14635569364E+02  0.23676054573E+02 -0.26630702484E+03  0.26775770191E+03  0.00000000000E+00 0.  1.
          3    1    3    3  501    0  0.92399184358E+01  0.16170019529E+02 -0.15527405050E+03  0.15638694441E+03  0.00000000000E+00 0.  1.
         -3    1    1    2    0  502 -0.23875487800E+02 -0.39846074102E+02 -0.57620246160E+03  0.57807181673E+03  0.00000000000E+00 0. -1.
<mgrwt>
<rscale>  1 0.30000000E+03</rscale>
<asrwt>0</asrwt>
<pdfrwt beam="1">  1       21 0.80598826E-02 0.30000000E+03</pdfrwt>
<pdfrwt beam="2">0</pdfrwt>
<totfact> 0.12607603E+04</totfact>
</mgrwt>
</event>
<event>
 6    1  0.1295671E-001  0.3000000E+03  0.7818608E-02  0.1093470E+00
         21   -1    0    0  501  502  0.00000000000E+00  0.00000000000E+00  0.23693299388E+01  0.23693299388E+01  0.00000000000E+00 0. -1.
         13   -1    0    0    0    0 -0.00000000000E+00 -0.00000000000E+00 -0.10000000000E+04  0.10000000000E+04  0.00000000000E+00 0.  1.
    9000005    2    1    2  501    0 -0.28392413414E+02  0.23503000709E+02 -0.82582618655E+03  0.82665564027E+03  0.34838226116E+01 0.  0.
         13    1    3    3    0    0 -0.86853343895E+01  0.87194524070E+01 -0.30123733262E+03  0.30148863071E+03  0.00000000000E+00 0.  1.
          1    1    3    3  501    0 -0.19707079025E+02  0.14783548302E+02 -0.52458885393E+03  0.52516700956E+03  0.00000000000E+00 0.  1.
         -1    1    1    2    0  502  0.28392413414E+02 -0.23503000709E+02 -0.17180448351E+03  0.17571368967E+03  0.00000000000E+00 0. -1.
<mgrwt>
<rscale>  1 0.30000000E+03</rscale>
<asrwt>0</asrwt>
<pdfrwt beam="1">  1       21 0.86157634E-02 0.30000000E+03</pdfrwt>
<pdfrwt beam="2">0</pdfrwt>
<totfact> 0.11210497E+04</totfact>
</mgrwt>
</event>
<event>
 6    1  0.1295671E-001  0.3000000E+03  0.7818608E-02  0.1093470E+00
         21   -1    0    0  501  502  0.00000000000E+00  0.00000000000E+00  0.21227745817E+01  0.21227745817E+01  0.00000000000E+00 0. -1.
         13   -1    0    0    0    0 -0.00000000000E+00 -0.00000000000E+00 -0.10000000000E+04  0.10000000000E+04  0.00000000000E+00 0.  1.
    9000005    2    1    2  501    0 -0.34401920777E+02 -0.25594941099E+02 -0.68148135875E+03  0.68283460128E+03  0.27671689570E+01 0.  0.
         13    1    3    3    0    0 -0.21823379647E+02 -0.17810990825E+02 -0.44102032373E+03  0.44191901661E+03  0.00000000000E+00 0.  1.
          1    1    3    3  501    0 -0.12578541130E+02 -0.77839502741E+01 -0.24046103502E+03  0.24091558468E+03  0.00000000000E+00 0.  1.
         -3    1    1    2    0  502  0.34401920777E+02  0.25594941099E+02 -0.31639586667E+03  0.31928817330E+03  0.00000000000E+00 0. -1.
<mgrwt>
<rscale>  1 0.30000000E+03</rscale>
<asrwt>0</asrwt>
<pdfrwt beam="1">  1       21 0.77191966E-02 0.30000000E+03</pdfrwt>
<pdfrwt beam="2">0</pdfrwt>
<totfact> 0.13600432E+04</totfact>
</mgrwt>
</event>
<event>
 6    1  0.1295671E-001  0.3000000E+03  0.7818608E-02  0.1093470E+00
         21   -1    0    0  501  502  0.00000000000E+00  0.00000000000E+00  0.25544947511E+01  0.25544947511E+01  0.00000000000E+00 0. -1.
         13   -1    0    0    0    0 -0.00000000000E+00 -0.00000000000E+00 -0.10000000000E+04  0.10000000000E+04  0.00000000000E+00 0.  1.
    9000005    2    1    2  501    0 -0.49850689928E+02  0.43013677853E+01 -0.44075911520E+03  0.44362397142E+03  0.54806323453E+01 0.  0.
         13    1    3    3    0    0  0.14547664159E+00  0.61803423652E-01 -0.15908491853E+01  0.15986820343E+01  0.00000000000E+00 0.  1.
          1    1    3    3  501    0 -0.49996166570E+02  0.42395643617E+01 -0.43916826602E+03  0.44202528939E+03  0.00000000000E+00 0.  1.
         -1    1    1    2    0  502  0.49850689928E+02 -0.43013677853E+01 -0.55668639004E+03  0.55893052333E+03  0.00000000000E+00 0. -1.
<mgrwt>
<rscale>  1 0.30000000E+03</rscale>
<asrwt>0</asrwt>
<pdfrwt beam="1">  1       21 0.92890914E-02 0.30000000E+03</pdfrwt>
<pdfrwt beam="2">0</pdfrwt>
<totfact> 0.98119356E+03</totfact>
</mgrwt>
</event>
<event>
 6    1  0.1295671E-001  0.3000000E+03  0.7818608E-02  0.1093470E+00
         21   -1    0    0  501  502  0.00000000000E+00  0.00000000000E+00  0.18664227473E+01  0.18664227473E+01  0.00000000000E+00 0. -1.
         13   -1    0    0    0    0 -0.00000000000E+00 -0.00000000000E+00 -0.10000000000E+04  0.10000000000E+04  0.00000000000E+00 0.  1.
    9000005    2    1    2  501    0  0.28676671425E+02  0.13657992750E+02 -0.83822715817E+03  0.83883588845E+03  0.34621965563E+01 0.  0.
         13    1    3    3    0    0  0.28241102912E+02  0.13794774657E+02 -0.81804637584E+03  0.81864994272E+03  0.00000000000E+00 0.  1.
          3    1    3    3  501    0  0.43556851280E+00 -0.13678190741E+00 -0.20180782338E+02  0.20185945730E+02  0.00000000000E+00 0.  1.
         -1    1    1    2    0  502 -0.28676671425E+02 -0.13657992750E+02 -0.15990641908E+03  0.16303053429E+03  0.00000000000E+00 0. -1.
<mgrwt>
<rscale>  1 0.30000000E+03</rscale>
<asrwt>0</asrwt>
<pdfrwt beam="1">  1       21 0.67870061E-02 0.30000000E+03</pdfrwt>
<pdfrwt beam="2">0</pdfrwt>
<totfact> 0.17025647E+04</totfact>
</mgrwt>
</event>
<event>
 6    1  0.1295671E-001  0.3000000E+03  0.7818608E-02  0.1093470E+00
         21   -1    0    0  501  502  0.00000000000E+00  0.00000000000E+00  0.27826549824E+01  0.27826549824E+01  0.00000000000E+00 0. -1.
         13   -1    0    0    0    0 -0.00000000000E+00 -0.00000000000E+00 -0.10000000000E+04  0.10000000000E+04  0.00000000000E+00 0.  1.
    9000005    2    1    2  501    0  0.25237622381E+02  0.18240681451E+02 -0.90321282458E+03  0.90375483108E+03  0.31190029844E+01 0.  0.
         13    1    3    3    0    0  0.18185203130E+02  0.13534659868E+02 -0.69449873816E+03  0.69486861056E+03  0.00000000000E+00 0.  1.
          3    1    3    3  501    0  0.70524192511E+01  0.47060215838E+01 -0.20871408641E+03  0.20888622052E+03  0.00000000000E+00 0.  1.
         -3    1    1    2    0  502 -0.25237622381E+02 -0.18240681451E+02 -0.94004520439E+02  0.99027823900E+02  0.00000000000E+00 0. -1.
<mgrwt>
<rscale>  1 0.30000000E+03</rscale>
<asrwt>0</asrwt>
<pdfrwt beam="1">  1       21 0.10118767E-01 0.30000000E+03</pdfrwt>
<pdfrwt beam="2">0</pdfrwt>
<totfact> 0.84235368E+03</totfact>
</mgrwt>
</event>
<event>
 6    1  0.1295671E-001  0.3000000E+03  0.7818608E-02  0.1093470E+00
         21   -1    0    0  501  502  0.00000000000E+00  0.00000000000E+00  0.20883786805E+01  0.20883786805E+01  0.00000000000E+00 0. -1.
         13   -1    0    0    0    0 -0.00000000000E+00 -0.00000000000E+00 -0.10000000000E+04  0.10000000000E+04  0.00000000000E+00 0.  1.
    9000005    2    1    2  501    0  0.45009782012E+02  0.64092473508E+01 -0.54067572037E+03  0.54259776067E+03  0.38905463881E+01 0.  0.
         13    1    3    3    0    0  0.44726868033E+01 -0.13188224669E+00 -0.43627384227E+02  0.43856253541E+02  0.00000000000E+00 0.  1.
          3    1    3    3  501    0  0.40537095209E+02  0.65411295974E+01 -0.49704833615E+03  0.49874150713E+03  0.00000000000E+00 0.  1.
         -3    1    1    2    0  502 -0.45009782012E+02 -0.64092473508E+01 -0.45723590095E+03  0.45949061801E+03  0.00000000000E+00 0. -1.
<mgrwt>
<rscale>  1 0.30000000E+03</rscale>
<asrwt>0</asrwt>
<pdfrwt beam="1">  1       21 0.75941203E-02 0.30000000E+03</pdfrwt>
<pdfrwt beam="2">0</pdfrwt>
<totfact> 0.13995420E+04</totfact>
</mgrwt>
</event>
<event>
 6    1  0.1295671E-001  0.3000000E+03  0.7818608E-02  0.1093470E+00
         21   -1    0    0  501  502  0.00000000000E+00  0.00000000000E+00  0.15438375518E+01  0.15438375518E+01  0.00000000000E+00 0. -1.
         13   -1    0    0    0    0 -0.00000000000E+00 -0.00000000000E+00 -0.10000000000E+04  0.10000000000E+04  0.00000000000E+00 0.  1.
    9000005    2    1    2  501    0  0.20561098460E+02  0.32742350775E+02 -0.43760534297E+03  0.43936196128E+03  0.67584403417E+01 0.  0.
         13    1    3    3    0    0  0.84703743576E+01  0.94477854577E+01 -0.11777452864E+03  0.11845609942E+03  0.00000000000E+00 0.  1.
          3    1    3    3  501    0  0.12090724103E+02  0.23294565318E+02 -0.31983081433E+03  0.32090586186E+03  0.00000000000E+00 0.  1.
         -3    1    1    2    0  502 -0.20561098460E+02 -0.32742350775E+02 -0.56085081947E+03  0.56218187627E+03  0.00000000000E+00 0. -1.
<mgrwt>
<rscale>  1 0.30000000E+03</rscale>
<asrwt>0</asrwt>
<pdfrwt beam="1">  1       21 0.56139666E-02 0.30000000E+03</pdfrwt>
<pdfrwt beam="2">0</pdfrwt>
<totfact> 0.23627778E+04</totfact>
</mgrwt>
</event>
<event>
 6    1  0.1295671E-001  0.3000000E+03  0.7818608E-02  0.1093470E+00
         21   -1    0    0  501  502  0.00000000000E+00  0.00000000000E+00  0.14224373978E+01  0.14224373978E+01  0.00000000000E+00 0. -1.
         13   -1    0    0    0    0 -0.00000000000E+00 -0.00000000000E+00 -0.10000000000E+04  0.10000000000E+04  0.00000000000E+00 0.  1.
    9000005    2    1    2  501    0 -0.24291401948E+02 -0.27846874873E+02 -0.40885182978E+03  0.41054007973E+03  0.42211020513E+01 0.  0.
         13    1    3    3    0    0 -0.57300188517E+01 -0.51482747439E+01 -0.70255130188E+02  0.70676171137E+02  0.00000000000E+00 0.  1.
          1    1    3    3  501    0 -0.18561383096E+02 -0.22698600129E+02 -0.33859669959E+03  0.33986390859E+03  0.00000000000E+00 0.  1.
         -1    1    1    2    0  502  0.24291401948E+02  0.27846874873E+02 -0.58972573283E+03  0.59088235767E+03  0.00000000000E+00 0. -1.
<mgrwt>
<rscale>  1 0.30000000E+03</rscale>
<asrwt>0</asrwt>
<pdfrwt beam="1">  1       21 0.51725105E-02 0.30000000E+03</pdfrwt>
<pdfrwt beam="2">0</pdfrwt>
<totfact> 0.27184892E+04</totfact>
</mgrwt>
</event>
<event>
 6    1  0.1295671E-001  0.3000000E+03  0.7818608E-02  0.1093470E+00
         21   -1    0    0  501  502  0.00000000000E+00  0.00000000000E+00  0.18915223655E+01  0.18915223655E+01  0.00000000000E+00 0. -1.
         13   -1    0    0    0    0 -0.00000000000E+00 -0.00000000000E+00 -0.10000000000E+04  0.10000000000E+04  0.00000000000E+00 0.  1.
    9000005    2    1    2  501    0 -0.40855564912E+02  0.66897340146E+01 -0.65016356570E+03  0.65149233363E+03  0.39583947920E+01 0.  0.
         13    1    3    3    0    0 -0.40784756340E+02  0.68742454434E+01 -0.64838428799E+03  0.64970211367E+03  0.00000000000E+00 0.  1.
          3    1    3    3  501    0 -0.70808571452E-01 -0.18451142888E+00 -0.17792777109E+01  0.17902199568E+01  0.00000000000E+00 0.  1.
         -3    1    1    2    0  502  0.40855564912E+02 -0.66897340146E+01 -0.34794491193E+03  0.35039918874E+03  0.00000000000E+00 0. -1.
<mgrwt>
<rscale>  1 0.30000000E+03</rscale>
<asrwt>0</asrwt>
<pdfrwt beam="1">  1       21 0.68782777E-02 0.30000000E+03</pdfrwt>
<pdfrwt beam="2">0</pdfrwt>
<totfact> 0.16635120E+04</totfact>
</mgrwt>
</event>
<event>
 6    1  0.1295671E-001  0.3000000E+03  0.7818608E-02  0.1093470E+00
         21   -1    0    0  501  502  0.00000000000E+00  0.00000000000E+00  0.11445179203E+01  0.11445179203E+01  0.00000000000E+00 0. -1.
         13   -1    0    0    0    0 -0.00000000000E+00 -0.00000000000E+00 -0.10000000000E+04  0.10000000000E+04  0.00000000000E+00 0.  1.
    9000005    2    1    2  501    0 -0.74371850065E+01  0.32764726136E+02 -0.45352563737E+03  0.45478064784E+03  0.33309003254E+01 0.  0.
         13    1    3    3    0    0 -0.53261625375E+01  0.20954278933E+02 -0.31127377116E+03  0.31202373376E+03  0.00000000000E+00 0.  1.
          1    1    3    3  501    0 -0.21110224690E+01  0.11810447203E+02 -0.14225186621E+03  0.14275691408E+03  0.00000000000E+00 0.  1.
         -1    1    1    2    0  502  0.74371850065E+01 -0.32764726136E+02 -0.54532984471E+03  0.54636387008E+03  0.00000000000E+00 0. -1.
<mgrwt>
<rscale>  1 0.30000000E+03</rscale>
<asrwt>0</asrwt>
<pdfrwt beam="1">  1       21 0.41618921E-02 0.30000000E+03</pdfrwt>
<pdfrwt beam="2">0</pdfrwt>
<totfact> 0.39326957E+04</totfact>
</mgrwt>
</event>
<event>
 6    1  0.1295671E-001  0.3000000E+03  0.7818608E-02  0.1093470E+00
         21   -1    0    0  501  502  0.00000000000E+00  0.00000000000E+00  0.31779285468E+01  0.31779285468E+01  0.00000000000E+00 0. -1.
         13   -1    0    0    0    0 -0.00000000000E+00 -0.00000000000E+00 -0.10000000000E+04  0.10000000000E+04  0.00000000000E+00 0.  1.
    9000005    2    1    2  501    0  0.43542314630E+02 -0.31688223145E+02 -0.64574630365E+03  0.64799590283E+03  0.32132172752E+01 0.  0.
         13    1    3    3    0    0  0.42332474748E+02 -0.31346784614E+02 -0.62812368554E+03  0.63032850456E+03  0.00000000000E+00 0.  1.
          3    1    3    3  501    0  0.12098398819E+01 -0.34143853135E+00 -0.17622618103E+02  0.17667398270E+02  0.00000000000E+00 0.  1.
         -1    1    1    2    0  502 -0.43542314630E+02  0.31688223145E+02 -0.35107576781E+03  0.35518202571E+03  0.00000000000E+00 0. -1.
<mgrwt>
<rscale>  1 0.30000000E+03</rscale>
<asrwt>0</asrwt>
<pdfrwt beam="1">  1       21 0.11556128E-01 0.30000000E+03</pdfrwt>
<pdfrwt beam="2">0</pdfrwt>
<totfact> 0.66349214E+03</totfact>
</mgrwt>
</event>
<event>
 6    1  0.1295671E-001  0.3000000E+03  0.7818608E-02  0.1093470E+00
         21   -1    0    0  501  502  0.00000000000E+00  0.00000000000E+00  0.15426227298E+01  0.15426227298E+01  0.00000000000E+00 0. -1.
         13   -1    0    0    0    0 -0.00000000000E+00 -0.00000000000E+00 -0.10000000000E+04  0.10000000000E+04  0.00000000000E+00 0.  1.
    9000005    2    1    2  501    0  0.25481271053E+02  0.22093327451E+02 -0.75454483561E+03  0.75530952530E+03  0.41424347862E+01 0.  0.
         13    1    3    3    0    0  0.13515722658E+02  0.11842716050E+02 -0.35577819565E+03  0.35623173523E+03  0.00000000000E+00 0.  1.
          3    1    3    3  501    0  0.11965548394E+02  0.10250611401E+02 -0.39876663996E+03  0.39907779007E+03  0.00000000000E+00 0.  1.
         -3    1    1    2    0  502 -0.25481271053E+02 -0.22093327451E+02 -0.24391254166E+03  0.24623309743E+03  0.00000000000E+00 0. -1.
<mgrwt>
<rscale>  1 0.30000000E+03</rscale>
<asrwt>0</asrwt>
<pdfrwt beam="1">  1       21 0.56095490E-02 0.30000000E+03</pdfrwt>
<pdfrwt beam="2">0</pdfrwt>
<totfact> 0.23659741E+04</totfact>
</mgrwt>
</event>
<event>
 6    1  0.1295671E-001  0.3000000E+03  0.7818608E-02  0.1093470E+00
         21   -1    0    0  501  502  0.00000000000E+00  0.00000000000E+00  0.89695460270E+01  0.89695460270E+01  0.00000000000E+00 0. -1.
         13   -1    0    0    0    0 -0.00000000000E+00 -0.00000000000E+00 -0.10000000000E+04  0.10000000000E+04  0.00000000000E+00 0.  1.
    9000005    2    1    2  501    0 -0.13932345116E+02 -0.55570659325E+02 -0.89718735981E+03  0.89902076368E+03  0.33115705829E+01 0.  0.
         13    1    3    3    0    0 -0.71369225322E+01 -0.35020664091E+02 -0.56171605983E+03  0.56285194718E+03  0.00000000000E+00 0.  1.
          3    1    3    3  501    0 -0.67954225835E+01 -0.20549995234E+02 -0.33547129998E+03  0.33616881650E+03  0.00000000000E+00 0.  1.
         -1    1    1    2    0  502  0.13932345116E+02  0.55570659325E+02 -0.93843094159E+02  0.10994878235E+03  0.00000000000E+00 0. -1.
<mgrwt>
<rscale>  1 0.30000000E+03</rscale>
<asrwt>0</asrwt>
<pdfrwt beam="1">  1       21 0.32616600E-01 0.30000000E+03</pdfrwt>
<pdfrwt beam="2">0</pdfrwt>
<totfact> 0.91876501E+02</totfact>
</mgrwt>
</event>
<event>
 6    1  0.1295671E-001  0.3000000E+03  0.7818608E-02  0.1093470E+00
         21   -1    0    0  501  502  0.00000000000E+00  0.00000000000E+00  0.35063485792E+01  0.35063485792E+01  0.00000000000E+00 0. -1.
         13   -1    0    0    0    0 -0.00000000000E+00 -0.00000000000E+00 -0.10000000000E+04  0.10000000000E+04  0.00000000000E+00 0.  1.
    9000005    2    1    2  501    0 -0.96483082408E+01  0.51999743719E+02 -0.72336587559E+03  0.72530526100E+03  0.35310721404E+01 0.  0.
         13    1    3    3    0    0 -0.86103972510E+01  0.41101129104E+02 -0.58767901677E+03  0.58917745078E+03  0.00000000000E+00 0.  1.
          3    1    3    3  501    0 -0.10379109897E+01  0.10898614615E+02 -0.13568685882E+03  0.13612781022E+03  0.00000000000E+00 0.  1.
         -1    1    1    2    0  502  0.96483082408E+01 -0.51999743719E+02 -0.27312777583E+03  0.27820108758E+03  0.00000000000E+00 0. -1.
<mgrwt>
<rscale>  1 0.30000000E+03</rscale>
<asrwt>0</asrwt>
<pdfrwt beam="1">  1       21 0.12750385E-01 0.30000000E+03</pdfrwt>
<pdfrwt beam="2">0</pdfrwt>
<totfact> 0.55494361E+03</totfact>
</mgrwt>
</event>
<event>
 6    1  0.1295671E-001  0.3000000E+03  0.7818608E-02  0.1093470E+00
         21   -1    0    0  501  502  0.00000000000E+00  0.00000000000E+00  0.10455917168E+02  0.10455917168E+02  0.00000000000E+00 0. -1.
         13   -1    0    0    0    0 -0.00000000000E+00 -0.00000000000E+00 -0.10000000000E+04  0.10000000000E+04  0.00000000000E+00 0.  1.
    9000005    2    1    2  501    0  0.18740151625E+02  0.80997572797E+02 -0.78880651883E+03  0.79318334714E+03  0.35068448536E+01 0.  0.
         13    1    3    3    0    0  0.14583444322E+02  0.56233147193E+02 -0.55541163429E+03  0.55844151636E+03  0.00000000000E+00 0.  1.
          1    1    3    3  501    0  0.41567073034E+01  0.24764425604E+02 -0.23339488454E+03  0.23474183079E+03  0.00000000000E+00 0.  1.
         -1    1    1    2    0  502 -0.18740151625E+02 -0.80997572797E+02 -0.20073756400E+03  0.21727257002E+03  0.00000000000E+00 0. -1.
<mgrwt>
<rscale>  1 0.30000000E+03</rscale>
<asrwt>0</asrwt>
<pdfrwt beam="1">  1       21 0.38021597E-01 0.30000000E+03</pdfrwt>
<pdfrwt beam="2">0</pdfrwt>
<totfact> 0.67117254E+02</totfact>
</mgrwt>
</event>
<event>
 6    1  0.1295671E-001  0.3000000E+03  0.7818608E-02  0.1093470E+00
         21   -1    0    0  501  502  0.00000000000E+00  0.00000000000E+00  0.12657075520E+01  0.12657075520E+01  0.00000000000E+00 0. -1.
         13   -1    0    0    0    0 -0.00000000000E+00 -0.00000000000E+00 -0.10000000000E+04  0.10000000000E+04  0.00000000000E+00 0.  1.
    9000005    2    1    2  501    0 -0.28924624452E+02 -0.20592044156E+02 -0.51191176939E+03  0.51315011147E+03  0.29514537536E+01 0.  0.
         13    1    3    3    0    0 -0.82681817790E+01 -0.63390672298E+01 -0.13222040508E+03  0.13263024589E+03  0.00000000000E+00 0.  1.
          3    1    3    3  501    0 -0.20656442673E+02 -0.14252976926E+02 -0.37969136430E+03  0.38051986558E+03  0.00000000000E+00 0.  1.
         -1    1    1    2    0  502  0.28924624452E+02  0.20592044156E+02 -0.48682252306E+03  0.48811559609E+03  0.00000000000E+00 0. -1.
<mgrwt>
<rscale>  1 0.30000000E+03</rscale>
<asrwt>0</asrwt>
<pdfrwt beam="1">  1       21 0.46025826E-02 0.30000000E+03</pdfrwt>
<pdfrwt beam="2">0</pdfrwt>
<totfact> 0.33164143E+04</totfact>
</mgrwt>
</event>
<event>
 6    1  0.1295671E-001  0.3000000E+03  0.7818608E-02  0.1093470E+00
         21   -1    0    0  501  502  0.00000000000E+00  0.00000000000E+00  0.49196858907E+01  0.49196858907E+01  0.00000000000E+00 0. -1.
         13   -1    0    0    0    0 -0.00000000000E+00 -0.00000000000E+00 -0.10000000000E+04  0.10000000000E+04  0.00000000000E+00 0.  1.
    9000005    2    1    2  501    0 -0.32672522555E+02  0.47536402603E+02 -0.78312579368E+03  0.78525648452E+03  0.38124091985E+01 0.  0.
         13    1    3    3    0    0 -0.90434831646E+01  0.10343702580E+02 -0.18212358397E+03  0.18264111424E+03  0.00000000000E+00 0.  1.
          1    1    3    3  501    0 -0.23629039390E+02  0.37192700023E+02 -0.60100220970E+03  0.60261537029E+03  0.00000000000E+00 0.  1.
         -3    1    1    2    0  502  0.32672522555E+02 -0.47536402603E+02 -0.21195452043E+03  0.21966320137E+03  0.00000000000E+00 0. -1.
<mgrwt>
<rscale>  1 0.30000000E+03</rscale>
<asrwt>0</asrwt>
<pdfrwt beam="1">  1       21 0.17889805E-01 0.30000000E+03</pdfrwt>
<pdfrwt beam="2">0</pdfrwt>
<totfact> 0.29636198E+03</totfact>
</mgrwt>
</event>
<event>
 6    1  0.1295671E-001  0.3000000E+03  0.7818608E-02  0.1093470E+00
         21   -1    0    0  501  502  0.00000000000E+00  0.00000000000E+00  0.25464911137E+01  0.25464911137E+01  0.00000000000E+00 0. -1.
         13   -1    0    0    0    0 -0.00000000000E+00 -0.00000000000E+00 -0.10000000000E+04  0.10000000000E+04  0.00000000000E+00 0.  1.
    9000005    2    1    2  501    0 -0.36856671337E+02 -0.16412190577E+01 -0.84050215765E+03  0.84131735455E+03  0.31474165577E+01 0.  0.
         13    1    3    3    0    0 -0.29769141999E+02 -0.12910196597E+01 -0.70520802321E+03  0.70583725075E+03  0.00000000000E+00 0.  1.
          3    1    3    3  501    0 -0.70875293382E+01 -0.35019939807E+00 -0.13529413445E+03  0.13548010381E+03  0.00000000000E+00 0.  1.
         -1    1    1    2    0  502  0.36856671337E+02  0.16412190577E+01 -0.15695135123E+03  0.16122913656E+03  0.00000000000E+00 0. -1.
<mgrwt>
<rscale>  1 0.30000000E+03</rscale>
<asrwt>0</asrwt>
<pdfrwt beam="1">  1       21 0.92599872E-02 0.30000000E+03</pdfrwt>
<pdfrwt beam="2">0</pdfrwt>
<totfact> 0.98667974E+03</totfact>
</mgrwt>
</event>
<event>
 6    1  0.1295671E-001  0.3000000E+03  0.7818608E-02  0.1093470E+00
         21   -1    0    0  501  502  0.00000000000E+00  0.00000000000E+00  0.21274154451E+01  0.21274154451E+01  0.00000000000E+00 0. -1.
         13   -1    0    0    0    0 -0.00000000000E+00 -0.00000000000E+00 -0.10000000000E+04  0.10000000000E+04  0.00000000000E+00 0.  1.
    9000005    2    1    2  501    0 -0.15743861881E+02  0.41978710279E+02 -0.61235150750E+03  0.61400812688E+03  0.46400250162E+01 0.  0.
         13    1    3    3    0    0 -0.10457102579E+02  0.33165926327E+02 -0.48038957463E+03  0.48164662677E+03  0.00000000000E+00 0.  1.
          1    1    3    3  501    0 -0.52867593019E+01  0.88127839519E+01 -0.13196193288E+03  0.13236150012E+03  0.00000000000E+00 0.  1.
         -3    1    1    2    0  502  0.15743861881E+02 -0.41978710279E+02 -0.38552107705E+03  0.38811928856E+03  0.00000000000E+00 0. -1.
<mgrwt>
<rscale>  1 0.30000000E+03</rscale>
<asrwt>0</asrwt>
<pdfrwt beam="1">  1       21 0.77360725E-02 0.30000000E+03</pdfrwt>
<pdfrwt beam="2">0</pdfrwt>
<totfact> 0.13548458E+04</totfact>
</mgrwt>
</event>
<event>
 6    1  0.1295671E-001  0.3000000E+03  0.7818608E-02  0.1093470E+00
         21   -1    0    0  501  502  0.00000000000E+00  0.00000000000E+00  0.15599635488E+01  0.15599635488E+01  0.00000000000E+00 0. -1.
         13   -1    0    0    0    0 -0.00000000000E+00 -0.00000000000E+00 -0.10000000000E+04  0.10000000000E+04  0.00000000000E+00 0.  1.
    9000005    2    1    2  501    0  0.34439718992E+02  0.14303839183E+02 -0.66217955480E+03  0.66323791937E+03  0.34757489283E+01 0.  0.
         13    1    3    3    0    0  0.70047207427E+01  0.16086866519E+01 -0.13915819908E+03  0.13934366996E+03  0.00000000000E+00 0.  1.
          1    1    3    3  501    0  0.27434998249E+02  0.12695152531E+02 -0.52302135572E+03  0.52389424941E+03  0.00000000000E+00 0.  1.
         -1    1    1    2    0  502 -0.34439718992E+02 -0.14303839183E+02 -0.33626048165E+03  0.33832204418E+03  0.00000000000E+00 0. -1.
<mgrwt>
<rscale>  1 0.30000000E+03</rscale>
<asrwt>0</asrwt>
<pdfrwt beam="1">  1       21 0.56726067E-02 0.30000000E+03</pdfrwt>
<pdfrwt beam="2">0</pdfrwt>
<totfact> 0.23209690E+04</totfact>
</mgrwt>
</event>
<event>
 6    1  0.1295671E-001  0.3000000E+03  0.7818608E-02  0.1093470E+00
         21   -1    0    0  501  502  0.00000000000E+00  0.00000000000E+00  0.31852052251E+01  0.31852052251E+01  0.00000000000E+00 0. -1.
         13   -1    0    0    0    0 -0.00000000000E+00 -0.00000000000E+00 -0.10000000000E+04  0.10000000000E+04  0.00000000000E+00 0.  1.
    9000005    2    1    2  501    0 -0.57047503947E+01 -0.32374404817E+02 -0.90599535731E+03  0.90659940666E+03  0.37749717921E+01 0.  0.
         13    1    3    3    0    0 -0.22674321428E+01 -0.56426068877E+01 -0.14726639636E+03  0.14739189855E+03  0.00000000000E+00 0.  1.
          1    1    3    3  501    0 -0.34373182519E+01 -0.26731797929E+02 -0.75872896096E+03  0.75920750811E+03  0.00000000000E+00 0.  1.
         -1    1    1    2    0  502  0.57047503947E+01  0.32374404817E+02 -0.90819437461E+02  0.96585798568E+02  0.00000000000E+00 0. -1.
<mgrwt>
<rscale>  1 0.30000000E+03</rscale>
<asrwt>0</asrwt>
<pdfrwt beam="1">  1       21 0.11582589E-01 0.30000000E+03</pdfrwt>
<pdfrwt beam="2">0</pdfrwt>
<totfact> 0.66075466E+03</totfact>
</mgrwt>
</event>
<event>
 6    1  0.1295671E-001  0.3000000E+03  0.7818608E-02  0.1093470E+00
         21   -1    0    0  501  502  0.00000000000E+00  0.00000000000E+00  0.14411461082E+01  0.14411461082E+01  0.00000000000E+00 0. -1.
         13   -1    0    0    0    0 -0.00000000000E+00 -0.00000000000E+00 -0.10000000000E+04  0.10000000000E+04  0.00000000000E+00 0.  1.
    9000005    2    1    2  501    0 -0.33208282700E+02 -0.14489463485E+02 -0.64659508422E+03  0.64761741916E+03  0.32224317193E+01 0.  0.
         13    1    3    3    0    0 -0.21021766833E+02 -0.76945197673E+01 -0.41220724501E+03  0.41281464746E+03  0.00000000000E+00 0.  1.
          1    1    3    3  501    0 -0.12186515867E+02 -0.67949437174E+01 -0.23438783921E+03  0.23480277170E+03  0.00000000000E+00 0.  1.
         -1    1    1    2    0  502  0.33208282700E+02  0.14489463485E+02 -0.35196376967E+03  0.35382372695E+03  0.00000000000E+00 0. -1.
<mgrwt>
<rscale>  1 0.30000000E+03</rscale>
<asrwt>0</asrwt>
<pdfrwt beam="1">  1       21 0.52405424E-02 0.30000000E+03</pdfrwt>
<pdfrwt beam="2">0</pdfrwt>
<totfact> 0.26584736E+04</totfact>
</mgrwt>
</event>
<event>
 6    1  0.1295671E-001  0.3000000E+03  0.7818608E-02  0.1093470E+00
         21   -1    0    0  501  502  0.00000000000E+00  0.00000000000E+00  0.17286908333E+01  0.17286908333E+01  0.00000000000E+00 0. -1.
         13   -1    0    0    0    0 -0.00000000000E+00 -0.00000000000E+00 -0.10000000000E+04  0.10000000000E+04  0.00000000000E+00 0.  1.
    9000005    2    1    2  501    0 -0.12505796859E+01 -0.30533502587E+02 -0.83839758152E+03  0.83896055046E+03  0.32313766717E+01 0.  0.
         13    1    3    3    0    0 -0.22771638382E+01 -0.23873396024E+02 -0.66273568380E+03  0.66316944373E+03  0.00000000000E+00 0.  1.
          1    1    3    3  501    0  0.10265841523E+01 -0.66601065630E+01 -0.17566189772E+03  0.17579110673E+03  0.00000000000E+00 0.  1.
         -1    1    1    2    0  502  0.12505796859E+01  0.30533502587E+02 -0.15987372765E+03  0.16276814038E+03  0.00000000000E+00 0. -1.
<mgrwt>
<rscale>  1 0.30000000E+03</rscale>
<asrwt>0</asrwt>
<pdfrwt beam="1">  1       21 0.62861617E-02 0.30000000E+03</pdfrwt>
<pdfrwt beam="2">0</pdfrwt>
<totfact> 0.19443166E+04</totfact>
</mgrwt>
</event>
<event>
 6    1  0.1295671E-001  0.3000000E+03  0.7818608E-02  0.1093470E+00
         21   -1    0    0  501  502  0.00000000000E+00  0.00000000000E+00  0.14546210207E+01  0.14546210207E+01  0.00000000000E+00 0. -1.
         13   -1    0    0    0    0 -0.00000000000E+00 -0.00000000000E+00 -0.10000000000E+04  0.10000000000E+04  0.00000000000E+00 0.  1.
    9000005    2    1    2  501    0  0.30025525193E+02  0.11261769512E+02 -0.76930771763E+03  0.76998482818E+03  0.37298271540E+01 0.  0.
         13    1    3    3    0    0  0.99583046926E+01  0.45144879780E+01 -0.22493766334E+03  0.22520324337E+03  0.00000000000E+00 0.  1.
          1    1    3    3  501    0  0.20067220500E+02  0.67472815336E+01 -0.54437005428E+03  0.54478158481E+03  0.00000000000E+00 0.  1.
         -1    1    1    2    0  502 -0.30025525193E+02 -0.11261769512E+02 -0.22923766135E+03  0.23146979284E+03  0.00000000000E+00 0. -1.
<mgrwt>
<rscale>  1 0.30000000E+03</rscale>
<asrwt>0</asrwt>
<pdfrwt beam="1">  1       21 0.52895421E-02 0.30000000E+03</pdfrwt>
<pdfrwt beam="2">0</pdfrwt>
<totfact> 0.26165098E+04</totfact>
</mgrwt>
</event>
<event>
 6    1  0.1295671E-001  0.3000000E+03  0.7818608E-02  0.1093470E+00
         21   -1    0    0  501  502  0.00000000000E+00  0.00000000000E+00  0.23370419081E+01  0.23370419081E+01  0.00000000000E+00 0. -1.
         13   -1    0    0    0    0 -0.00000000000E+00 -0.00000000000E+00 -0.10000000000E+04  0.10000000000E+04  0.00000000000E+00 0.  1.
    9000005    2    1    2  501    0  0.14553963551E+02 -0.45223312842E+02 -0.58375614286E+03  0.58571272963E+03  0.55858261013E+01 0.  0.
         13    1    3    3    0    0  0.14136350409E+02 -0.40552968331E+02 -0.54038410919E+03  0.54208796805E+03  0.00000000000E+00 0.  1.
          3    1    3    3  501    0  0.41761314230E+00 -0.46703445116E+01 -0.43372033664E+02  0.43624761578E+02  0.00000000000E+00 0.  1.
         -3    1    1    2    0  502 -0.14553963551E+02  0.45223312842E+02 -0.41390681524E+03  0.41662431228E+03  0.00000000000E+00 0. -1.
<mgrwt>
<rscale>  1 0.30000000E+03</rscale>
<asrwt>0</asrwt>
<pdfrwt beam="1">  1       21 0.84983521E-02 0.30000000E+03</pdfrwt>
<pdfrwt beam="2">0</pdfrwt>
<totfact> 0.11485188E+04</totfact>
</mgrwt>
</event>
<event>
 6    1  0.1295671E-001  0.3000000E+03  0.7818608E-02  0.1093470E+00
         21   -1    0    0  501  502  0.00000000000E+00  0.00000000000E+00  0.28008208469E+01  0.28008208469E+01  0.00000000000E+00 0. -1.
         13   -1    0    0    0    0 -0.00000000000E+00 -0.00000000000E+00 -0.10000000000E+04  0.10000000000E+04  0.00000000000E+00 0.  1.
    9000005    2    1    2  501    0  0.35593630017E+02  0.32519208386E+02 -0.70045375149E+03  0.70216440547E+03  0.86596143280E+01 0.  0.
         13    1    3    3    0    0  0.23846456914E+02  0.21994196952E+02 -0.40920692532E+03  0.41049081102E+03  0.00000000000E+00 0.  1.
          1    1    3    3  501    0  0.11747173102E+02  0.10525011435E+02 -0.29124682618E+03  0.29167359445E+03  0.00000000000E+00 0.  1.
         -1    1    1    2    0  502 -0.35593630017E+02 -0.32519208386E+02 -0.29674542766E+03  0.30063641537E+03  0.00000000000E+00 0. -1.
<mgrwt>
<rscale>  1 0.30000000E+03</rscale>
<asrwt>0</asrwt>
<pdfrwt beam="1">  1       21 0.10184825E-01 0.30000000E+03</pdfrwt>
<pdfrwt beam="2">0</pdfrwt>
<totfact> 0.83260741E+03</totfact>
</mgrwt>
</event>
<event>
 6    1  0.1295671E-001  0.3000000E+03  0.7818608E-02  0.1093470E+00
         21   -1    0    0  501  502  0.00000000000E+00  0.00000000000E+00  0.22511129162E+01  0.22511129162E+01  0.00000000000E+00 0. -1.
         13   -1    0    0    0    0 -0.00000000000E+00 -0.00000000000E+00 -0.10000000000E+04  0.10000000000E+04  0.00000000000E+00 0.  1.
    9000005    2    1    2  501    0  0.28493891748E+02 -0.22220828781E+02 -0.82327746645E+03  0.82407719867E+03  0.34315463582E+01 0.  0.
         13    1    3    3    0    0  0.23217304500E+02 -0.16899521940E+02 -0.62873016297E+03  0.62938561701E+03  0.00000000000E+00 0.  1.
          3    1    3    3  501    0  0.52765872475E+01 -0.53213068409E+01 -0.19454730348E+03  0.19469158166E+03  0.00000000000E+00 0.  1.
         -3    1    1    2    0  502 -0.28493891748E+02  0.22220828781E+02 -0.17447142063E+03  0.17817391424E+03  0.00000000000E+00 0. -1.
<mgrwt>
<rscale>  1 0.30000000E+03</rscale>
<asrwt>0</asrwt>
<pdfrwt beam="1">  1       21 0.81858824E-02 0.30000000E+03</pdfrwt>
<pdfrwt beam="2">0</pdfrwt>
<totfact> 0.12268431E+04</totfact>
</mgrwt>
</event>
<event>
 6    1  0.1295671E-001  0.3000000E+03  0.7818608E-02  0.1093470E+00
         21   -1    0    0  501  502  0.00000000000E+00  0.00000000000E+00  0.17864235939E+01  0.17864235939E+01  0.00000000000E+00 0. -1.
         13   -1    0    0    0    0 -0.00000000000E+00 -0.00000000000E+00 -0.10000000000E+04  0.10000000000E+04  0.00000000000E+00 0.  1.
    9000005    2    1    2  501    0 -0.32632089771E+02 -0.26289029099E+02 -0.56006052173E+03  0.56163410263E+03  0.30184259483E+01 0.  0.
         13    1    3    3    0    0 -0.26279281063E+01 -0.30605956758E+01 -0.60852109264E+02  0.60985674170E+02  0.00000000000E+00 0.  1.
          3    1    3    3  501    0 -0.30004161665E+02 -0.23228433423E+02 -0.49920841247E+03  0.50064842846E+03  0.00000000000E+00 0.  1.
         -1    1    1    2    0  502  0.32632089771E+02  0.26289029099E+02 -0.43815305467E+03  0.44015232097E+03  0.00000000000E+00 0. -1.
<mgrwt>
<rscale>  1 0.30000000E+03</rscale>
<asrwt>0</asrwt>
<pdfrwt beam="1">  1       21 0.64960995E-02 0.30000000E+03</pdfrwt>
<pdfrwt beam="2">0</pdfrwt>
<totfact> 0.18369126E+04</totfact>
</mgrwt>
</event>
<event>
 6    1  0.1295671E-001  0.3000000E+03  0.7818608E-02  0.1093470E+00
         21   -1    0    0  501  502  0.00000000000E+00  0.00000000000E+00  0.15912164403E+01  0.15912164403E+01  0.00000000000E+00 0. -1.
         13   -1    0    0    0    0 -0.00000000000E+00 -0.00000000000E+00 -0.10000000000E+04  0.10000000000E+04  0.00000000000E+00 0.  1.
    9000005    2    1    2  501    0  0.22288372699E+02 -0.31917826008E+02 -0.60398967033E+03  0.60525555559E+03  0.39046820580E+01 0.  0.
         13    1    3    3    0    0  0.19214576080E+02 -0.29259159068E+02 -0.55043263383E+03  0.55154454281E+03  0.00000000000E+00 0.  1.
          1    1    3    3  501    0  0.30737966195E+01 -0.26586669404E+01 -0.53557036498E+02  0.53711012781E+02  0.00000000000E+00 0.  1.
         -1    1    1    2    0  502 -0.22288372699E+02  0.31917826008E+02 -0.39441911323E+03  0.39633566085E+03  0.00000000000E+00 0. -1.
<mgrwt>
<rscale>  1 0.30000000E+03</rscale>
<asrwt>0</asrwt>
<pdfrwt beam="1">  1       21 0.57862538E-02 0.30000000E+03</pdfrwt>
<pdfrwt beam="2">0</pdfrwt>
<totfact> 0.22431038E+04</totfact>
</mgrwt>
</event>
<event>
 6    1  0.1295671E-001  0.3000000E+03  0.7818608E-02  0.1093470E+00
         21   -1    0    0  501  502  0.00000000000E+00  0.00000000000E+00  0.10806939280E+01  0.10806939280E+01  0.00000000000E+00 0. -1.
         13   -1    0    0    0    0 -0.00000000000E+00 -0.00000000000E+00 -0.10000000000E+04  0.10000000000E+04  0.00000000000E+00 0.  1.
    9000005    2    1    2  501    0 -0.22041786208E+02 -0.23146510155E+02 -0.61401226791E+03  0.61484886031E+03  0.25405927441E+01 0.  0.
         13    1    3    3    0    0 -0.20473601897E+02 -0.21047382212E+02 -0.55040882228E+03  0.55119146611E+03  0.00000000000E+00 0.  1.
          1    1    3    3  501    0 -0.15681843112E+01 -0.20991279430E+01 -0.63603445635E+02  0.63657394203E+02  0.00000000000E+00 0.  1.
         -3    1    1    2    0  502  0.22041786208E+02  0.23146510155E+02 -0.38490703816E+03  0.38623183362E+03  0.00000000000E+00 0. -1.
<mgrwt>
<rscale>  1 0.30000000E+03</rscale>
<asrwt>0</asrwt>
<pdfrwt beam="1">  1       21 0.39298044E-02 0.30000000E+03</pdfrwt>
<pdfrwt beam="2">0</pdfrwt>
<totfact> 0.43319291E+04</totfact>
</mgrwt>
</event>
<event>
 6    1  0.1295671E-001  0.3000000E+03  0.7818608E-02  0.1093470E+00
         21   -1    0    0  501  502  0.00000000000E+00  0.00000000000E+00  0.10315616819E+01  0.10315616819E+01  0.00000000000E+00 0. -1.
         13   -1    0    0    0    0 -0.00000000000E+00 -0.00000000000E+00 -0.10000000000E+04  0.10000000000E+04  0.00000000000E+00 0.  1.
    9000005    2    1    2  501    0 -0.30780565731E+02 -0.63637893134E+01 -0.59806769054E+03  0.59890054993E+03  0.29941945675E+01 0.  0.
         13    1    3    3    0    0 -0.27617689415E+02 -0.62664137478E+01 -0.55023749172E+03  0.55096579023E+03  0.00000000000E+00 0.  1.
          3    1    3    3  501    0 -0.31628763156E+01 -0.97375565609E-01 -0.47830198822E+02  0.47934759705E+02  0.00000000000E+00 0.  1.
         -1    1    1    2    0  502  0.30780565731E+02  0.63637893134E+01 -0.40090074778E+03  0.40213101175E+03  0.00000000000E+00 0. -1.
<mgrwt>
<rscale>  1 0.30000000E+03</rscale>
<asrwt>0</asrwt>
<pdfrwt beam="1">  1       21 0.37511413E-02 0.30000000E+03</pdfrwt>
<pdfrwt beam="2">0</pdfrwt>
<totfact> 0.46843330E+04</totfact>
</mgrwt>
</event>
<event>
 6    1  0.1295671E-001  0.3000000E+03  0.7818608E-02  0.1093470E+00
         21   -1    0    0  501  502  0.00000000000E+00  0.00000000000E+00  0.94220236199E+00  0.94220236199E+00  0.00000000000E+00 0. -1.
         13   -1    0    0    0    0 -0.00000000000E+00 -0.00000000000E+00 -0.10000000000E+04  0.10000000000E+04  0.00000000000E+00 0.  1.
    9000005    2    1    2  501    0  0.22013755695E+01  0.30435365690E+02 -0.54143439458E+03  0.54230254363E+03  0.31124989836E+01 0.  0.
         13    1    3    3    0    0  0.12118055217E+01  0.67753936028E+01 -0.10382757470E+03  0.10405546454E+03  0.00000000000E+00 0.  1.
          3    1    3    3  501    0  0.98957004779E+00  0.23659972087E+02 -0.43760681988E+03  0.43824707909E+03  0.00000000000E+00 0.  1.
         -1    1    1    2    0  502 -0.22013755695E+01 -0.30435365690E+02 -0.45762340305E+03  0.45863965873E+03  0.00000000000E+00 0. -1.
<mgrwt>
<rscale>  1 0.30000000E+03</rscale>
<asrwt>0</asrwt>
<pdfrwt beam="1">  1       21 0.34261976E-02 0.30000000E+03</pdfrwt>
<pdfrwt beam="2">0</pdfrwt>
<totfact> 0.54526926E+04</totfact>
</mgrwt>
</event>
<event>
 6    1  0.1295671E-001  0.3000000E+03  0.7818608E-02  0.1093470E+00
         21   -1    0    0  501  502  0.00000000000E+00  0.00000000000E+00  0.14032806757E+01  0.14032806757E+01  0.00000000000E+00 0. -1.
         13   -1    0    0    0    0 -0.00000000000E+00 -0.00000000000E+00 -0.10000000000E+04  0.10000000000E+04  0.00000000000E+00 0.  1.
    9000005    2    1    2  501    0 -0.10093381630E+02 -0.33718696661E+02 -0.33189313203E+03  0.33377127113E+03  0.33739423005E+01 0.  0.
         13    1    3    3    0    0 -0.18331657800E+01 -0.36980664467E+01 -0.47395356703E+02  0.47574741504E+02  0.00000000000E+00 0.  1.
          1    1    3    3  501    0 -0.82602158499E+01 -0.30020630215E+02 -0.28449777533E+03  0.28619652963E+03  0.00000000000E+00 0.  1.
         -1    1    1    2    0  502  0.10093381630E+02  0.33718696661E+02 -0.66670358729E+03  0.66763200954E+03  0.00000000000E+00 0. -1.
<mgrwt>
<rscale>  1 0.30000000E+03</rscale>
<asrwt>0</asrwt>
<pdfrwt beam="1">  1       21 0.51028496E-02 0.30000000E+03</pdfrwt>
<pdfrwt beam="2">0</pdfrwt>
<totfact> 0.27821491E+04</totfact>
</mgrwt>
</event>
<event>
 6    1  0.1295671E-001  0.3000000E+03  0.7818608E-02  0.1093470E+00
         21   -1    0    0  501  502  0.00000000000E+00  0.00000000000E+00  0.12882722361E+01  0.12882722361E+01  0.00000000000E+00 0. -1.
         13   -1    0    0    0    0 -0.00000000000E+00 -0.00000000000E+00 -0.10000000000E+04  0.10000000000E+04  0.00000000000E+00 0.  1.
    9000005    2    1    2  501    0  0.15170786597E+02  0.30170948193E+02 -0.66692675004E+03  0.66778908134E+03  0.32447443273E+01 0.  0.
         13    1    3    3    0    0  0.11679080588E+02  0.24931835867E+02 -0.56137704542E+03  0.56205176318E+03  0.00000000000E+00 0.  1.
          1    1    3    3  501    0  0.34917060097E+01  0.52391123264E+01 -0.10554970461E+03  0.10573731816E+03  0.00000000000E+00 0.  1.
         -3    1    1    2    0  502 -0.15170786597E+02 -0.30170948193E+02 -0.33178497773E+03  0.33349919089E+03  0.00000000000E+00 0. -1.
<mgrwt>
<rscale>  1 0.30000000E+03</rscale>
<asrwt>0</asrwt>
<pdfrwt beam="1">  1       21 0.46846362E-02 0.30000000E+03</pdfrwt>
<pdfrwt beam="2">0</pdfrwt>
<totfact> 0.32182986E+04</totfact>
</mgrwt>
</event>
<event>
 6    1  0.1295671E-001  0.3000000E+03  0.7818608E-02  0.1093470E+00
         21   -1    0    0  501  502  0.00000000000E+00  0.00000000000E+00  0.12734855678E+01  0.12734855678E+01  0.00000000000E+00 0. -1.
         13   -1    0    0    0    0 -0.00000000000E+00 -0.00000000000E+00 -0.10000000000E+04  0.10000000000E+04  0.00000000000E+00 0.  1.
    9000005    2    1    2  501    0  0.12468202964E+02  0.28162701867E+02 -0.24884596865E+03  0.25076070966E+03  0.28325841839E+01 0.  0.
         13    1    3    3    0    0  0.68282243305E+00  0.66851196783E+00 -0.10897955582E+02  0.10939771049E+02  0.00000000000E+00 0.  1.
          3    1    3    3  501    0  0.11785380531E+02  0.27494189899E+02 -0.23794801307E+03  0.23982093861E+03  0.00000000000E+00 0.  1.
         -3    1    1    2    0  502 -0.12468202964E+02 -0.28162701867E+02 -0.74988054578E+03  0.75051277591E+03  0.00000000000E+00 0. -1.
<mgrwt>
<rscale>  1 0.30000000E+03</rscale>
<asrwt>0</asrwt>
<pdfrwt beam="1">  1       21 0.46308664E-02 0.30000000E+03</pdfrwt>
<pdfrwt beam="2">0</pdfrwt>
<totfact> 0.32820703E+04</totfact>
</mgrwt>
</event>
<event>
 6    1  0.1295671E-001  0.3000000E+03  0.7818608E-02  0.1093470E+00
         21   -1    0    0  501  502  0.00000000000E+00  0.00000000000E+00  0.16136225190E+01  0.16136225190E+01  0.00000000000E+00 0. -1.
         13   -1    0    0    0    0 -0.00000000000E+00 -0.00000000000E+00 -0.10000000000E+04  0.10000000000E+04  0.00000000000E+00 0.  1.
    9000005    2    1    2  501    0 -0.18237655945E+02  0.26819079358E+02 -0.79410498775E+03  0.79477368126E+03  0.32554158974E+01 0.  0.
         13    1    3    3    0    0 -0.92613038504E+01  0.11525619216E+02 -0.38840370788E+03  0.38868502923E+03  0.00000000000E+00 0.  1.
          3    1    3    3  501    0 -0.89763520949E+01  0.15293460142E+02 -0.40570127987E+03  0.40608865203E+03  0.00000000000E+00 0.  1.
         -3    1    1    2    0  502  0.18237655945E+02 -0.26819079358E+02 -0.20428138973E+03  0.20683994126E+03  0.00000000000E+00 0. -1.
<mgrwt>
<rscale>  1 0.30000000E+03</rscale>
<asrwt>0</asrwt>
<pdfrwt beam="1">  1       21 0.58677306E-02 0.30000000E+03</pdfrwt>
<pdfrwt beam="2">0</pdfrwt>
<totfact> 0.21897180E+04</totfact>
</mgrwt>
</event>
<event>
 6    1  0.1295671E-001  0.3000000E+03  0.7818608E-02  0.1093470E+00
         21   -1    0    0  501  502  0.00000000000E+00  0.00000000000E+00  0.24288858272E+01  0.24288858272E+01  0.00000000000E+00 0. -1.
         13   -1    0    0    0    0 -0.00000000000E+00 -0.00000000000E+00 -0.10000000000E+04  0.10000000000E+04  0.00000000000E+00 0.  1.
    9000005    2    1    2  501    0  0.24442916330E-01  0.33824865699E+02 -0.86252681100E+03  0.86321291707E+03  0.63180985448E+01 0.  0.
         13    1    3    3    0    0  0.28925167215E+01  0.14681638557E+02 -0.34555455354E+03  0.34587839862E+03  0.00000000000E+00 0.  1.
          1    1    3    3  501    0 -0.28680738051E+01  0.19143227142E+02 -0.51697225747E+03  0.51733451845E+03  0.00000000000E+00 0.  1.
         -3    1    1    2    0  502 -0.24442916330E-01 -0.33824865699E+02 -0.13504430317E+03  0.13921596875E+03  0.00000000000E+00 0. -1.
<mgrwt>
<rscale>  1 0.30000000E+03</rscale>
<asrwt>0</asrwt>
<pdfrwt beam="1">  1       21 0.88323307E-02 0.30000000E+03</pdfrwt>
<pdfrwt beam="2">0</pdfrwt>
<totfact> 0.10729383E+04</totfact>
</mgrwt>
</event>
<event>
 6    1  0.1295671E-001  0.3000000E+03  0.7818608E-02  0.1093470E+00
         21   -1    0    0  501  502  0.00000000000E+00  0.00000000000E+00  0.20739405653E+01  0.20739405653E+01  0.00000000000E+00 0. -1.
         13   -1    0    0    0    0 -0.00000000000E+00 -0.00000000000E+00 -0.10000000000E+04  0.10000000000E+04  0.00000000000E+00 0.  1.
    9000005    2    1    2  501    0 -0.30162638962E+02  0.20664647448E+02 -0.79723373033E+03  0.79807829502E+03  0.32452657502E+01 0.  0.
         13    1    3    3    0    0 -0.18557743084E+02  0.13548116050E+02 -0.46932801366E+03  0.46989012087E+03  0.00000000000E+00 0.  1.
          3    1    3    3  501    0 -0.11604895878E+02  0.71165313979E+01 -0.32790571667E+03  0.32818817415E+03  0.00000000000E+00 0.  1.
         -3    1    1    2    0  502  0.30162638962E+02 -0.20664647448E+02 -0.20069232910E+03  0.20399564555E+03  0.00000000000E+00 0. -1.
<mgrwt>
<rscale>  1 0.30000000E+03</rscale>
<asrwt>0</asrwt>
<pdfrwt beam="1">  1       21 0.75416180E-02 0.30000000E+03</pdfrwt>
<pdfrwt beam="2">0</pdfrwt>
<totfact> 0.14166523E+04</totfact>
</mgrwt>
</event>
<event>
 6    1  0.1295671E-001  0.3000000E+03  0.7818608E-02  0.1093470E+00
         21   -1    0    0  501  502  0.00000000000E+00  0.00000000000E+00  0.15051238032E+01  0.15051238032E+01  0.00000000000E+00 0. -1.
         13   -1    0    0    0    0 -0.00000000000E+00 -0.00000000000E+00 -0.10000000000E+04  0.10000000000E+04  0.00000000000E+00 0.  1.
    9000005    2    1    2  501    0  0.10700270188E+02  0.35287742186E+02 -0.65280781751E+03  0.65385693515E+03  0.33353425953E+01 0.  0.
         13    1    3    3    0    0  0.48926429877E+01  0.17399026565E+02 -0.29123432550E+03  0.29179461344E+03  0.00000000000E+00 0.  1.
          1    1    3    3  501    0  0.58076271999E+01  0.17888715621E+02 -0.36157349201E+03  0.36206232171E+03  0.00000000000E+00 0.  1.
         -3    1    1    2    0  502 -0.10700270188E+02 -0.35287742186E+02 -0.34568705869E+03  0.34764818865E+03  0.00000000000E+00 0. -1.
<mgrwt>
<rscale>  1 0.30000000E+03</rscale>
<asrwt>0</asrwt>
<pdfrwt beam="1">  1       21 0.54731890E-02 0.30000000E+03</pdfrwt>
<pdfrwt beam="2">0</pdfrwt>
<totfact> 0.24680043E+04</totfact>
</mgrwt>
</event>
<event>
 6    1  0.1295671E-001  0.3000000E+03  0.7818608E-02  0.1093470E+00
         21   -1    0    0  501  502  0.00000000000E+00  0.00000000000E+00  0.37042252382E+01  0.37042252382E+01  0.00000000000E+00 0. -1.
         13   -1    0    0    0    0 -0.00000000000E+00 -0.00000000000E+00 -0.10000000000E+04  0.10000000000E+04  0.00000000000E+00 0.  1.
    9000005    2    1    2  501    0  0.11021137320E+02  0.55214010619E+02 -0.68801430643E+03  0.69032344065E+03  0.35657275306E+01 0.  0.
         13    1    3    3    0    0  0.83652373915E+01  0.33861416954E+02 -0.41664658498E+03  0.41810399368E+03  0.00000000000E+00 0.  1.
          3    1    3    3  501    0  0.26558999285E+01  0.21352593665E+02 -0.27136772145E+03  0.27221944697E+03  0.00000000000E+00 0.  1.
         -1    1    1    2    0  502 -0.11021137320E+02 -0.55214010619E+02 -0.30828146833E+03  0.31338078459E+03  0.00000000000E+00 0. -1.
<mgrwt>
<rscale>  1 0.30000000E+03</rscale>
<asrwt>0</asrwt>
<pdfrwt beam="1">  1       21 0.13469938E-01 0.30000000E+03</pdfrwt>
<pdfrwt beam="2">0</pdfrwt>
<totfact> 0.50197524E+03</totfact>
</mgrwt>
</event>
<event>
 6    1  0.1295671E-001  0.3000000E+03  0.7818608E-02  0.1093470E+00
         21   -1    0    0  501  502  0.00000000000E+00  0.00000000000E+00  0.20764880087E+01  0.20764880087E+01  0.00000000000E+00 0. -1.
         13   -1    0    0    0    0 -0.00000000000E+00 -0.00000000000E+00 -0.10000000000E+04  0.10000000000E+04  0.00000000000E+00 0.  1.
    9000005    2    1    2  501    0  0.14641889061E+02  0.35061611406E+02 -0.77500293030E+03  0.77594093740E+03  0.33308921861E+01 0.  0.
         13    1    3    3    0    0  0.27870902691E+01  0.40690805457E+01 -0.90836516272E+02  0.90970313713E+02  0.00000000000E+00 0.  1.
          3    1    3    3  501    0  0.11854798792E+02  0.30992530860E+02 -0.68416641403E+03  0.68497062369E+03  0.00000000000E+00 0.  1.
         -3    1    1    2    0  502 -0.14641889061E+02 -0.35061611406E+02 -0.22292058169E+03  0.22613555061E+03  0.00000000000E+00 0. -1.
<mgrwt>
<rscale>  1 0.30000000E+03</rscale>
<asrwt>0</asrwt>
<pdfrwt beam="1">  1       21 0.75508814E-02 0.30000000E+03</pdfrwt>
<pdfrwt beam="2">0</pdfrwt>
<totfact> 0.14136099E+04</totfact>
</mgrwt>
</event>
<event>
 6    1  0.1295671E-001  0.3000000E+03  0.7818608E-02  0.1093470E+00
         21   -1    0    0  501  502  0.00000000000E+00  0.00000000000E+00  0.13391861463E+01  0.13391861463E+01  0.00000000000E+00 0. -1.
         13   -1    0    0    0    0 -0.00000000000E+00 -0.00000000000E+00 -0.10000000000E+04  0.10000000000E+04  0.00000000000E+00 0.  1.
    9000005    2    1    2  501    0 -0.92177832102E+00  0.33237852481E+02 -0.70504315234E+03  0.70584479421E+03  0.50420570553E+01 0.  0.
         13    1    3    3    0    0 -0.23204543463E+01  0.30012244548E+02 -0.62505212853E+03  0.62577654375E+03  0.00000000000E+00 0.  1.
          1    1    3    3  501    0  0.13986760253E+01  0.32256079336E+01 -0.79991023810E+02  0.80068250458E+02  0.00000000000E+00 0.  1.
         -1    1    1    2    0  502  0.92177832102E+00 -0.33237852481E+02 -0.29361766151E+03  0.29549439194E+03  0.00000000000E+00 0. -1.
<mgrwt>
<rscale>  1 0.30000000E+03</rscale>
<asrwt>0</asrwt>
<pdfrwt beam="1">  1       21 0.48697781E-02 0.30000000E+03</pdfrwt>
<pdfrwt beam="2">0</pdfrwt>
<totfact> 0.30129231E+04</totfact>
</mgrwt>
</event>
<event>
 6    1  0.1295671E-001  0.3000000E+03  0.7818608E-02  0.1093470E+00
         21   -1    0    0  501  502  0.00000000000E+00  0.00000000000E+00  0.37688512726E+01  0.37688512726E+01  0.00000000000E+00 0. -1.
         13   -1    0    0    0    0 -0.00000000000E+00 -0.00000000000E+00 -0.10000000000E+04  0.10000000000E+04  0.00000000000E+00 0.  1.
    9000005    2    1    2  501    0  0.36576870942E+02  0.48384080580E+02 -0.42361882225E+03  0.42795311410E+03  0.34748470670E+01 0.  0.
         13    1    3    3    0    0  0.13902495504E+02  0.18303796692E+02 -0.17256909312E+03  0.17409307929E+03  0.00000000000E+00 0.  1.
          1    1    3    3  501    0  0.22674375438E+02  0.30080283888E+02 -0.25104972913E+03  0.25386003481E+03  0.00000000000E+00 0.  1.
         -3    1    1    2    0  502 -0.36576870942E+02 -0.48384080580E+02 -0.57261232648E+03  0.57581573717E+03  0.00000000000E+00 0. -1.
<mgrwt>
<rscale>  1 0.30000000E+03</rscale>
<asrwt>0</asrwt>
<pdfrwt beam="1">  1       21 0.13704943E-01 0.30000000E+03</pdfrwt>
<pdfrwt beam="2">0</pdfrwt>
<totfact> 0.48631500E+03</totfact>
</mgrwt>
</event>
<event>
 6    1  0.1295671E-001  0.3000000E+03  0.7818608E-02  0.1093470E+00
         21   -1    0    0  501  502  0.00000000000E+00  0.00000000000E+00  0.66092518481E+01  0.66092518481E+01  0.00000000000E+00 0. -1.
         13   -1    0    0    0    0 -0.00000000000E+00 -0.00000000000E+00 -0.10000000000E+04  0.10000000000E+04  0.00000000000E+00 0.  1.
    9000005    2    1    2  501    0 -0.19427354654E+02 -0.33706693673E+02 -0.93857679462E+03  0.93939219442E+03  0.42109660040E+01 0.  0.
         13    1    3    3    0    0 -0.56825006314E+01 -0.77550060079E+01 -0.19775046694E+03  0.19798403498E+03  0.00000000000E+00 0.  1.
          1    1    3    3  501    0 -0.13744854022E+02 -0.25951687666E+02 -0.74082632768E+03  0.74140815944E+03  0.00000000000E+00 0.  1.
         -1    1    1    2    0  502  0.19427354654E+02  0.33706693673E+02 -0.54813953532E+02  0.67217057427E+02  0.00000000000E+00 0. -1.
<mgrwt>
<rscale>  1 0.30000000E+03</rscale>
<asrwt>0</asrwt>
<pdfrwt beam="1">  1       21 0.24033694E-01 0.30000000E+03</pdfrwt>
<pdfrwt beam="2">0</pdfrwt>
<totfact> 0.16843037E+03</totfact>
</mgrwt>
</event>
<event>
 6    1  0.1295671E-001  0.3000000E+03  0.7818608E-02  0.1093470E+00
         21   -1    0    0  501  502  0.00000000000E+00  0.00000000000E+00  0.24025471067E+01  0.24025471067E+01  0.00000000000E+00 0. -1.
         13   -1    0    0    0    0 -0.00000000000E+00 -0.00000000000E+00 -0.10000000000E+04  0.10000000000E+04  0.00000000000E+00 0.  1.
    9000005    2    1    2  501    0  0.36409777578E+02  0.22311772747E+02 -0.74424853609E+03  0.74548006707E+03  0.33406301236E+01 0.  0.
         13    1    3    3    0    0  0.37399612711E+01  0.14554975327E+01 -0.59139645251E+02  0.59275656249E+02  0.00000000000E+00 0.  1.
          3    1    3    3  501    0  0.32669816307E+02  0.20856275214E+02 -0.68510889084E+03  0.68620441082E+03  0.00000000000E+00 0.  1.
         -3    1    1    2    0  502 -0.36409777578E+02 -0.22311772747E+02 -0.25334891680E+03  0.25692248004E+03  0.00000000000E+00 0. -1.
<mgrwt>
<rscale>  1 0.30000000E+03</rscale>
<asrwt>0</asrwt>
<pdfrwt beam="1">  1       21 0.87365534E-02 0.30000000E+03</pdfrwt>
<pdfrwt beam="2">0</pdfrwt>
<totfact> 0.10938208E+04</totfact>
</mgrwt>
</event>
<event>
 6    1  0.1295671E-001  0.3000000E+03  0.7818608E-02  0.1093470E+00
         21   -1    0    0  501  502  0.00000000000E+00  0.00000000000E+00  0.10790481517E+01  0.10790481517E+01  0.00000000000E+00 0. -1.
         13   -1    0    0    0    0 -0.00000000000E+00 -0.00000000000E+00 -0.10000000000E+04  0.10000000000E+04  0.00000000000E+00 0.  1.
    9000005    2    1    2  501    0 -0.30477876258E+02  0.86183648745E+01 -0.62976400205E+03  0.63056584901E+03  0.27229587906E+01 0.  0.
         13    1    3    3    0    0 -0.16478764102E+02  0.47660544631E+01 -0.31404723463E+03  0.31451538995E+03  0.00000000000E+00 0.  1.
          1    1    3    3  501    0 -0.13999112157E+02  0.38523104113E+01 -0.31571676742E+03  0.31605045905E+03  0.00000000000E+00 0.  1.
         -3    1    1    2    0  502  0.30477876258E+02 -0.86183648745E+01 -0.36915694980E+03  0.37051319915E+03  0.00000000000E+00 0. -1.
<mgrwt>
<rscale>  1 0.30000000E+03</rscale>
<asrwt>0</asrwt>
<pdfrwt beam="1">  1       21 0.39238197E-02 0.30000000E+03</pdfrwt>
<pdfrwt beam="2">0</pdfrwt>
<totfact> 0.43430515E+04</totfact>
</mgrwt>
</event>
<event>
 6    1  0.1295671E-001  0.3000000E+03  0.7818608E-02  0.1093470E+00
         21   -1    0    0  501  502  0.00000000000E+00  0.00000000000E+00  0.20406521824E+01  0.20406521824E+01  0.00000000000E+00 0. -1.
         13   -1    0    0    0    0 -0.00000000000E+00 -0.00000000000E+00 -0.10000000000E+04  0.10000000000E+04  0.00000000000E+00 0.  1.
    9000005    2    1    2  501    0  0.90500518113E+01  0.43672425473E+02 -0.43888444600E+03  0.44118957567E+03  0.62849465564E+01 0.  0.
         13    1    3    3    0    0  0.13526723274E+01  0.17090227484E+02 -0.18970810185E+03  0.19048115263E+03  0.00000000000E+00 0.  1.
          1    1    3    3  501    0  0.76973794839E+01  0.26582197989E+02 -0.24917634415E+03  0.25070842304E+03  0.00000000000E+00 0.  1.
         -1    1    1    2    0  502 -0.90500518113E+01 -0.43672425473E+02 -0.55907490181E+03  0.56085107651E+03  0.00000000000E+00 0. -1.
<mgrwt>
<rscale>  1 0.30000000E+03</rscale>
<asrwt>0</asrwt>
<pdfrwt beam="1">  1       21 0.74205690E-02 0.30000000E+03</pdfrwt>
<pdfrwt beam="2">0</pdfrwt>
<totfact> 0.14573550E+04</totfact>
</mgrwt>
</event>
<event>
 6    1  0.1295671E-001  0.3000000E+03  0.7818608E-02  0.1093470E+00
         21   -1    0    0  501  502  0.00000000000E+00  0.00000000000E+00  0.30386096790E+01  0.30386096790E+01  0.00000000000E+00 0. -1.
         13   -1    0    0    0    0 -0.00000000000E+00 -0.00000000000E+00 -0.10000000000E+04  0.10000000000E+04  0.00000000000E+00 0.  1.
    9000005    2    1    2  501    0 -0.39298431629E+02 -0.20373105866E+02 -0.79699829657E+03  0.79823463259E+03  0.35796300575E+01 0.  0.
         13    1    3    3    0    0 -0.89661642314E+01 -0.63849122904E+01 -0.19897739152E+03  0.19928161366E+03  0.00000000000E+00 0.  1.
          3    1    3    3  501    0 -0.30332267397E+02 -0.13988193575E+02 -0.59802090505E+03  0.59895301893E+03  0.00000000000E+00 0.  1.
         -1    1    1    2    0  502  0.39298431629E+02  0.20373105866E+02 -0.19996309375E+03  0.20480397709E+03  0.00000000000E+00 0. -1.
<mgrwt>
<rscale>  1 0.30000000E+03</rscale>
<asrwt>0</asrwt>
<pdfrwt beam="1">  1       21 0.11049513E-01 0.30000000E+03</pdfrwt>
<pdfrwt beam="2">0</pdfrwt>
<totfact> 0.71936509E+03</totfact>
</mgrwt>
</event>
<event>
 6    1  0.1295671E-001  0.3000000E+03  0.7818608E-02  0.1093470E+00
         21   -1    0    0  501  502  0.00000000000E+00  0.00000000000E+00  0.21830018558E+01  0.21830018558E+01  0.00000000000E+00 0. -1.
         13   -1    0    0    0    0 -0.00000000000E+00 -0.00000000000E+00 -0.10000000000E+04  0.10000000000E+04  0.00000000000E+00 0.  1.
    9000005    2    1    2  501    0 -0.11033927577E+02  0.34535522652E+02 -0.81450505169E+03  0.81532016554E+03  0.37474294276E+01 0.  0.
         13    1    3    3    0    0 -0.23892736585E+01  0.11049040763E+02 -0.22415806646E+03  0.22444292970E+03  0.00000000000E+00 0.  1.
          1    1    3    3  501    0 -0.86446539187E+01  0.23486481889E+02 -0.59034698523E+03  0.59087723584E+03  0.00000000000E+00 0.  1.
         -3    1    1    2    0  502  0.11033927577E+02 -0.34535522652E+02 -0.18331194646E+03  0.18686283632E+03  0.00000000000E+00 0. -1.
<mgrwt>
<rscale>  1 0.30000000E+03</rscale>
<asrwt>0</asrwt>
<pdfrwt beam="1">  1       21 0.79382053E-02 0.30000000E+03</pdfrwt>
<pdfrwt beam="2">0</pdfrwt>
<totfact> 0.12949003E+04</totfact>
</mgrwt>
</event>
<event>
 6    1  0.1295671E-001  0.3000000E+03  0.7818608E-02  0.1093470E+00
         21   -1    0    0  501  502  0.00000000000E+00  0.00000000000E+00  0.29182077926E+01  0.29182077926E+01  0.00000000000E+00 0. -1.
         13   -1    0    0    0    0 -0.00000000000E+00 -0.00000000000E+00 -0.10000000000E+04  0.10000000000E+04  0.00000000000E+00 0.  1.
    9000005    2    1    2  501    0  0.43819803298E+02  0.12465740025E+02 -0.76754482414E+03  0.76890370067E+03  0.35034269363E+01 0.  0.
         13    1    3    3    0    0  0.63730878002E+00  0.43192494043E+00 -0.79282318521E+01  0.79655245864E+01  0.00000000000E+00 0.  1.
          1    1    3    3  501    0  0.43182494518E+02  0.12033815085E+02 -0.75961659229E+03  0.76093817609E+03  0.00000000000E+00 0.  1.
         -3    1    1    2    0  502 -0.43819803298E+02 -0.12465740025E+02 -0.22953696806E+03  0.23401450712E+03  0.00000000000E+00 0. -1.
<mgrwt>
<rscale>  1 0.30000000E+03</rscale>
<asrwt>0</asrwt>
<pdfrwt beam="1">  1       21 0.10611687E-01 0.30000000E+03</pdfrwt>
<pdfrwt beam="2">0</pdfrwt>
<totfact> 0.77356915E+03</totfact>
</mgrwt>
</event>
<event>
 6    1  0.1295671E-001  0.3000000E+03  0.7818608E-02  0.1093470E+00
         21   -1    0    0  501  502  0.00000000000E+00  0.00000000000E+00  0.13551665522E+01  0.13551665522E+01  0.00000000000E+00 0. -1.
         13   -1    0    0    0    0 -0.00000000000E+00 -0.00000000000E+00 -0.10000000000E+04  0.10000000000E+04  0.00000000000E+00 0.  1.
    9000005    2    1    2  501    0  0.22557593351E+02 -0.27245376312E+02 -0.63556893125E+03  0.63656033887E+03  0.31690853061E+01 0.  0.
         13    1    3    3    0    0  0.16017091900E+02 -0.19046522820E+02 -0.47185409831E+03  0.47250990186E+03  0.00000000000E+00 0.  1.
          1    1    3    3  501    0  0.65405014503E+01 -0.81988534917E+01 -0.16371483295E+03  0.16405043702E+03  0.00000000000E+00 0.  1.
         -1    1    1    2    0  502 -0.22557593351E+02  0.27245376312E+02 -0.36307590219E+03  0.36479482768E+03  0.00000000000E+00 0. -1.
<mgrwt>
<rscale>  1 0.30000000E+03</rscale>
<asrwt>0</asrwt>
<pdfrwt beam="1">  1       21 0.49278888E-02 0.30000000E+03</pdfrwt>
<pdfrwt beam="2">0</pdfrwt>
<totfact> 0.29526652E+04</totfact>
</mgrwt>
</event>
<event>
 6    1  0.1295671E-001  0.3000000E+03  0.7818608E-02  0.1093470E+00
         21   -1    0    0  501  502  0.00000000000E+00  0.00000000000E+00  0.47338691551E+01  0.47338691551E+01  0.00000000000E+00 0. -1.
         13   -1    0    0    0    0 -0.00000000000E+00 -0.00000000000E+00 -0.10000000000E+04  0.10000000000E+04  0.00000000000E+00 0.  1.
    9000005    2    1    2  501    0  0.18907421486E+02 -0.65426427990E+02 -0.55452690621E+03  0.55876394618E+03  0.88853684573E+01 0.  0.
         13    1    3    3    0    0  0.14882226209E+02 -0.58737758227E+02 -0.50563512217E+03  0.50925286614E+03  0.00000000000E+00 0.  1.
          1    1    3    3  501    0  0.40251952774E+01 -0.66886697637E+01 -0.48891784041E+02  0.49511080042E+02  0.00000000000E+00 0.  1.
         -3    1    1    2    0  502 -0.18907421486E+02  0.65426427990E+02 -0.44073922463E+03  0.44596992297E+03  0.00000000000E+00 0. -1.
<mgrwt>
<rscale>  1 0.30000000E+03</rscale>
<asrwt>0</asrwt>
<pdfrwt beam="1">  1       21 0.17214106E-01 0.30000000E+03</pdfrwt>
<pdfrwt beam="2">0</pdfrwt>
<totfact> 0.31859132E+03</totfact>
</mgrwt>
</event>
<event>
 6    1  0.1295671E-001  0.3000000E+03  0.7818608E-02  0.1093470E+00
         21   -1    0    0  501  502  0.00000000000E+00  0.00000000000E+00  0.35979008556E+01  0.35979008556E+01  0.00000000000E+00 0. -1.
         13   -1    0    0    0    0 -0.00000000000E+00 -0.00000000000E+00 -0.10000000000E+04  0.10000000000E+04  0.00000000000E+00 0.  1.
    9000005    2    1    2  501    0 -0.31039816323E+02  0.31271904841E+02 -0.83853029953E+03  0.83969272295E+03  0.30665161252E+01 0.  0.
         13    1    3    3    0    0 -0.24557127731E+02  0.26231042860E+02 -0.69299880607E+03  0.69392972652E+03  0.00000000000E+00 0.  1.
          3    1    3    3  501    0 -0.64826885917E+01  0.50408619805E+01 -0.14553149346E+03  0.14576299643E+03  0.00000000000E+00 0.  1.
         -3    1    1    2    0  502  0.31039816323E+02 -0.31271904841E+02 -0.15787179962E+03  0.16390517791E+03  0.00000000000E+00 0. -1.
<mgrwt>
<rscale>  1 0.30000000E+03</rscale>
<asrwt>0</asrwt>
<pdfrwt beam="1">  1       21 0.13083303E-01 0.30000000E+03</pdfrwt>
<pdfrwt beam="2">0</pdfrwt>
<totfact> 0.52943918E+03</totfact>
</mgrwt>
</event>
<event>
 6    1  0.1295671E-001  0.3000000E+03  0.7818608E-02  0.1093470E+00
         21   -1    0    0  501  502  0.00000000000E+00  0.00000000000E+00  0.26128743242E+01  0.26128743242E+01  0.00000000000E+00 0. -1.
         13   -1    0    0    0    0 -0.00000000000E+00 -0.00000000000E+00 -0.10000000000E+04  0.10000000000E+04  0.00000000000E+00 0.  1.
    9000005    2    1    2  501    0 -0.49587398267E+02  0.12104280013E+02 -0.50024628169E+03  0.50285849224E+03  0.38596895748E+01 0.  0.
         13    1    3    3    0    0 -0.96417249736E+01  0.32256493531E+01 -0.87495215266E+02  0.88083939334E+02  0.00000000000E+00 0.  1.
          1    1    3    3  501    0 -0.39945673293E+02  0.88786306596E+01 -0.41275106643E+03  0.41477455290E+03  0.00000000000E+00 0.  1.
         -1    1    1    2    0  502  0.49587398267E+02 -0.12104280013E+02 -0.49714084398E+03  0.49975438209E+03  0.00000000000E+00 0. -1.
<mgrwt>
<rscale>  1 0.30000000E+03</rscale>
<asrwt>0</asrwt>
<pdfrwt beam="1">  1       21 0.95013812E-02 0.30000000E+03</pdfrwt>
<pdfrwt beam="2">0</pdfrwt>
<totfact> 0.94252826E+03</totfact>
</mgrwt>
</event>
<event>
 6    1  0.1295671E-001  0.3000000E+03  0.7818608E-02  0.1093470E+00
         21   -1    0    0  501  502  0.00000000000E+00  0.00000000000E+00  0.21804241533E+01  0.21804241533E+01  0.00000000000E+00 0. -1.
         13   -1    0    0    0    0 -0.00000000000E+00 -0.00000000000E+00 -0.10000000000E+04  0.10000000000E+04  0.00000000000E+00 0.  1.
    9000005    2    1    2  501    0  0.22335224807E+02 -0.33044974726E+02 -0.75859479906E+03  0.75965346389E+03  0.40599791011E+01 0.  0.
         13    1    3    3    0    0  0.13198029584E+02 -0.17994864356E+02 -0.38909617554E+03  0.38973559877E+03  0.00000000000E+00 0.  1.
          3    1    3    3  501    0  0.91371952231E+01 -0.15050110370E+02 -0.36949862352E+03  0.36991786513E+03  0.00000000000E+00 0.  1.
         -1    1    1    2    0  502 -0.22335224807E+02  0.33044974726E+02 -0.23922477679E+03  0.24252696026E+03  0.00000000000E+00 0. -1.
<mgrwt>
<rscale>  1 0.30000000E+03</rscale>
<asrwt>0</asrwt>
<pdfrwt beam="1">  1       21 0.79288318E-02 0.30000000E+03</pdfrwt>
<pdfrwt beam="2">0</pdfrwt>
<totfact> 0.12975891E+04</totfact>
</mgrwt>
</event>
<event>
 6    1  0.1295671E-001  0.3000000E+03  0.7818608E-02  0.1093470E+00
         21   -1    0    0  501  502  0.00000000000E+00  0.00000000000E+00  0.18958015604E+01  0.18958015604E+01  0.00000000000E+00 0. -1.
         13   -1    0    0    0    0 -0.00000000000E+00 -0.00000000000E+00 -0.10000000000E+04  0.10000000000E+04  0.00000000000E+00 0.  1.
    9000005    2    1    2  501    0  0.33354045161E+02  0.26377339514E+02 -0.39495806442E+03  0.39725250560E+03  0.30698836782E+01 0.  0.
         13    1    3    3    0    0  0.53149946510E+01  0.56809220078E+01 -0.69858107224E+02  0.70289950831E+02  0.00000000000E+00 0.  1.
          3    1    3    3  501    0  0.28039050510E+02  0.20696417506E+02 -0.32509995719E+03  0.32696255476E+03  0.00000000000E+00 0.  1.
         -1    1    1    2    0  502 -0.33354045161E+02 -0.26377339514E+02 -0.60314613402E+03  0.60464329596E+03  0.00000000000E+00 0. -1.
<mgrwt>
<rscale>  1 0.30000000E+03</rscale>
<asrwt>0</asrwt>
<pdfrwt beam="1">  1       21 0.68938384E-02 0.30000000E+03</pdfrwt>
<pdfrwt beam="2">0</pdfrwt>
<totfact> 0.16569911E+04</totfact>
</mgrwt>
</event>
<event>
 6    1  0.1295671E-001  0.3000000E+03  0.7818608E-02  0.1093470E+00
         21   -1    0    0  501  502  0.00000000000E+00  0.00000000000E+00  0.13130927360E+01  0.13130927360E+01  0.00000000000E+00 0. -1.
         13   -1    0    0    0    0 -0.00000000000E+00 -0.00000000000E+00 -0.10000000000E+04  0.10000000000E+04  0.00000000000E+00 0.  1.
    9000005    2    1    2  501    0 -0.33324924411E+02  0.13093537991E+02 -0.42730353447E+03  0.42880898792E+03  0.26165296568E+01 0.  0.
         13    1    3    3    0    0 -0.38459995530E+01  0.10592693121E+01 -0.56698562993E+02  0.56838726319E+02  0.00000000000E+00 0.  1.
          1    1    3    3  501    0 -0.29478924858E+02  0.12034268679E+02 -0.37060497147E+03  0.37197026160E+03  0.00000000000E+00 0.  1.
         -3    1    1    2    0  502  0.33324924411E+02 -0.13093537991E+02 -0.57138337280E+03  0.57250410482E+03  0.00000000000E+00 0. -1.
<mgrwt>
<rscale>  1 0.30000000E+03</rscale>
<asrwt>0</asrwt>
<pdfrwt beam="1">  1       21 0.47748927E-02 0.30000000E+03</pdfrwt>
<pdfrwt beam="2">0</pdfrwt>
<totfact> 0.31155303E+04</totfact>
</mgrwt>
</event>
<event>
 6    1  0.1295671E-001  0.3000000E+03  0.7818608E-02  0.1093470E+00
         21   -1    0    0  501  502  0.00000000000E+00  0.00000000000E+00  0.11338214157E+01  0.11338214157E+01  0.00000000000E+00 0. -1.
         13   -1    0    0    0    0 -0.00000000000E+00 -0.00000000000E+00 -0.10000000000E+04  0.10000000000E+04  0.00000000000E+00 0.  1.
    9000005    2    1    2  501    0  0.15421840891E+02 -0.26264509816E+02 -0.71140742991E+03  0.71206602688E+03  0.31365017683E+01 0.  0.
         13    1    3    3    0    0  0.37054936893E+01 -0.71614176669E+01 -0.15920931946E+03  0.15941337456E+03  0.00000000000E+00 0.  1.
          3    1    3    3  501    0  0.11716347202E+02 -0.19103092149E+02 -0.55219811045E+03  0.55265265231E+03  0.00000000000E+00 0.  1.
         -1    1    1    2    0  502 -0.15421840891E+02  0.26264509816E+02 -0.28745874867E+03  0.28906779454E+03  0.00000000000E+00 0. -1.
<mgrwt>
<rscale>  1 0.30000000E+03</rscale>
<asrwt>0</asrwt>
<pdfrwt beam="1">  1       21 0.41229957E-02 0.30000000E+03</pdfrwt>
<pdfrwt beam="2">0</pdfrwt>
<totfact> 0.39954969E+04</totfact>
</mgrwt>
</event>
<event>
 6    1  0.1295671E-001  0.3000000E+03  0.7818608E-02  0.1093470E+00
         21   -1    0    0  501  502  0.00000000000E+00  0.00000000000E+00  0.99988910485E+00  0.99988910485E+00  0.00000000000E+00 0. -1.
         13   -1    0    0    0    0 -0.00000000000E+00 -0.00000000000E+00 -0.10000000000E+04  0.10000000000E+04  0.00000000000E+00 0.  1.
    9000005    2    1    2  501    0  0.13152195811E+02  0.28258147800E+02 -0.43118050134E+03  0.43232545485E+03  0.41437917082E+01 0.  0.
         13    1    3    3    0    0  0.39058208257E+01  0.67054554672E+01 -0.86133560561E+02  0.86482419163E+02  0.00000000000E+00 0.  1.
          3    1    3    3  501    0  0.92463749854E+01  0.21552692333E+02 -0.34504694078E+03  0.34584303569E+03  0.00000000000E+00 0.  1.
         -3    1    1    2    0  502 -0.13152195811E+02 -0.28258147800E+02 -0.56781960956E+03  0.56867443425E+03  0.00000000000E+00 0. -1.
<mgrwt>
<rscale>  1 0.30000000E+03</rscale>
<asrwt>0</asrwt>
<pdfrwt beam="1">  1       21 0.36359680E-02 0.30000000E+03</pdfrwt>
<pdfrwt beam="2">0</pdfrwt>
<totfact> 0.49360373E+04</totfact>
</mgrwt>
</event>
<event>
 6    1  0.1295671E-001  0.3000000E+03  0.7818608E-02  0.1093470E+00
         21   -1    0    0  501  502  0.00000000000E+00  0.00000000000E+00  0.12801971977E+01  0.12801971977E+01  0.00000000000E+00 0. -1.
         13   -1    0    0    0    0 -0.00000000000E+00 -0.00000000000E+00 -0.10000000000E+04  0.10000000000E+04  0.00000000000E+00 0.  1.
    9000005    2    1    2  501    0  0.38098870201E+01 -0.35476574483E+02 -0.47958809865E+03  0.48092375318E+03  0.31320007347E+01 0.  0.
         13    1    3    3    0    0  0.15162857585E+01 -0.20958712063E+02 -0.30017644546E+03  0.30091105852E+03  0.00000000000E+00 0.  1.
          1    1    3    3  501    0  0.22936012616E+01 -0.14517862419E+02 -0.17941165319E+03  0.18001269465E+03  0.00000000000E+00 0.  1.
         -1    1    1    2    0  502 -0.38098870201E+01  0.35476574483E+02 -0.51913170415E+03  0.52035644402E+03  0.00000000000E+00 0. -1.
<mgrwt>
<rscale>  1 0.30000000E+03</rscale>
<asrwt>0</asrwt>
<pdfrwt beam="1">  1       21 0.46552724E-02 0.30000000E+03</pdfrwt>
<pdfrwt beam="2">0</pdfrwt>
<totfact> 0.32528812E+04</totfact>
</mgrwt>
</event>
<event>
 6    1  0.1295671E-001  0.3000000E+03  0.7818608E-02  0.1093470E+00
         21   -1    0    0  501  502  0.00000000000E+00  0.00000000000E+00  0.53960970920E+01  0.53960970920E+01  0.00000000000E+00 0. -1.
         13   -1    0    0    0    0 -0.00000000000E+00 -0.00000000000E+00 -0.10000000000E+04  0.10000000000E+04  0.00000000000E+00 0.  1.
    9000005    2    1    2  501    0 -0.29772114384E+02  0.29661930826E+02 -0.90954703264E+03  0.91052312879E+03  0.32178466599E+01 0.  0.
         13    1    3    3    0    0 -0.19165812235E+02  0.21096984878E+02 -0.62603166486E+03  0.62668018681E+03  0.00000000000E+00 0.  1.
          3    1    3    3  501    0 -0.10606302148E+02  0.85649459478E+01 -0.28351536778E+03  0.28384294198E+03  0.00000000000E+00 0.  1.
         -3    1    1    2    0  502  0.29772114384E+02 -0.29661930826E+02 -0.85056870270E+02  0.94872968307E+02  0.00000000000E+00 0. -1.
<mgrwt>
<rscale>  1 0.30000000E+03</rscale>
<asrwt>0</asrwt>
<pdfrwt beam="1">  1       21 0.19622213E-01 0.30000000E+03</pdfrwt>
<pdfrwt beam="2">0</pdfrwt>
<totfact> 0.24880467E+03</totfact>
</mgrwt>
</event>
<event>
 6    1  0.1295671E-001  0.3000000E+03  0.7818608E-02  0.1093470E+00
         21   -1    0    0  501  502  0.00000000000E+00  0.00000000000E+00  0.18757037259E+01  0.18757037259E+01  0.00000000000E+00 0. -1.
         13   -1    0    0    0    0 -0.00000000000E+00 -0.00000000000E+00 -0.10000000000E+04  0.10000000000E+04  0.00000000000E+00 0.  1.
    9000005    2    1    2  501    0  0.13947058138E+02 -0.34103376190E+02 -0.76164786729E+03  0.76254609385E+03  0.33927570466E+01 0.  0.
         13    1    3    3    0    0  0.12561363823E+02 -0.30723179276E+02 -0.66250925075E+03  0.66334019095E+03  0.00000000000E+00 0.  1.
          1    1    3    3  501    0  0.13856943149E+01 -0.33801969143E+01 -0.99138616543E+02  0.99205902899E+02  0.00000000000E+00 0.  1.
         -3    1    1    2    0  502 -0.13947058138E+02  0.34103376190E+02 -0.23647642899E+03  0.23932960988E+03  0.00000000000E+00 0. -1.
<mgrwt>
<rscale>  1 0.30000000E+03</rscale>
<asrwt>0</asrwt>
<pdfrwt beam="1">  1       21 0.68207552E-02 0.30000000E+03</pdfrwt>
<pdfrwt beam="2">0</pdfrwt>
<totfact> 0.16879621E+04</totfact>
</mgrwt>
</event>
<event>
 6    1  0.1295671E-001  0.3000000E+03  0.7818608E-02  0.1093470E+00
         21   -1    0    0  501  502  0.00000000000E+00  0.00000000000E+00  0.13734022272E+01  0.13734022272E+01  0.00000000000E+00 0. -1.
         13   -1    0    0    0    0 -0.00000000000E+00 -0.00000000000E+00 -0.10000000000E+04  0.10000000000E+04  0.00000000000E+00 0.  1.
    9000005    2    1    2  501    0  0.30190359012E+02 -0.20199847288E+02 -0.58243455330E+03  0.58359916954E+03  0.62040480618E+01 0.  0.
         13    1    3    3    0    0  0.14051391097E+02 -0.10355295059E+02 -0.32736989061E+03  0.32783489595E+03  0.00000000000E+00 0.  1.
          3    1    3    3  501    0  0.16138967915E+02 -0.98445522284E+01 -0.25506466269E+03  0.25576427359E+03  0.00000000000E+00 0.  1.
         -1    1    1    2    0  502 -0.30190359012E+02  0.20199847288E+02 -0.41619204448E+03  0.41777423268E+03  0.00000000000E+00 0. -1.
<mgrwt>
<rscale>  1 0.30000000E+03</rscale>
<asrwt>0</asrwt>
<pdfrwt beam="1">  1       21 0.49942004E-02 0.30000000E+03</pdfrwt>
<pdfrwt beam="2">0</pdfrwt>
<totfact> 0.28861699E+04</totfact>
</mgrwt>
</event>
<event>
 6    1  0.1295671E-001  0.3000000E+03  0.7818608E-02  0.1093470E+00
         21   -1    0    0  501  502  0.00000000000E+00  0.00000000000E+00  0.15051464192E+01  0.15051464192E+01  0.00000000000E+00 0. -1.
         13   -1    0    0    0    0 -0.00000000000E+00 -0.00000000000E+00 -0.10000000000E+04  0.10000000000E+04  0.00000000000E+00 0.  1.
    9000005    2    1    2  501    0 -0.30536873665E+02  0.22618532303E+02 -0.57947668302E+03  0.58076731128E+03  0.73037683301E+01 0.  0.
         13    1    3    3    0    0 -0.21537104405E+02  0.13015818238E+02 -0.34060041323E+03  0.34152876875E+03  0.00000000000E+00 0.  1.
          3    1    3    3  501    0 -0.89997692596E+01  0.96027140649E+01 -0.23887626979E+03  0.23923854253E+03  0.00000000000E+00 0.  1.
         -1    1    1    2    0  502  0.30536873665E+02 -0.22618532303E+02 -0.41901817056E+03  0.42073783514E+03  0.00000000000E+00 0. -1.
<mgrwt>
<rscale>  1 0.30000000E+03</rscale>
<asrwt>0</asrwt>
<pdfrwt beam="1">  1       21 0.54732712E-02 0.30000000E+03</pdfrwt>
<pdfrwt beam="2">0</pdfrwt>
<totfact> 0.24679407E+04</totfact>
</mgrwt>
</event>
<event>
 6    1  0.1295671E-001  0.3000000E+03  0.7818608E-02  0.1093470E+00
         21   -1    0    0  501  502  0.00000000000E+00  0.00000000000E+00  0.16287128458E+01  0.16287128458E+01  0.00000000000E+00 0. -1.
         13   -1    0    0    0    0 -0.00000000000E+00 -0.00000000000E+00 -0.10000000000E+04  0.10000000000E+04  0.00000000000E+00 0.  1.
    9000005    2    1    2  501    0 -0.23860616845E+02 -0.31743328927E+02 -0.58078710448E+03  0.58216057629E+03  0.45064271944E+01 0.  0.
         13    1    3    3    0    0 -0.80841255023E+00 -0.98093180030E-01 -0.11529287505E+02  0.11558011226E+02  0.00000000000E+00 0.  1.
          1    1    3    3  501    0 -0.23052204295E+02 -0.31645235747E+02 -0.56925781698E+03  0.57060256506E+03  0.00000000000E+00 0.  1.
         -1    1    1    2    0  502  0.23860616845E+02  0.31743328927E+02 -0.41758418267E+03  0.41946813656E+03  0.00000000000E+00 0. -1.
<mgrwt>
<rscale>  1 0.30000000E+03</rscale>
<asrwt>0</asrwt>
<pdfrwt beam="1">  1       21 0.59226047E-02 0.30000000E+03</pdfrwt>
<pdfrwt beam="2">0</pdfrwt>
<totfact> 0.21548687E+04</totfact>
</mgrwt>
</event>
<event>
 6    1  0.1295671E-001  0.3000000E+03  0.7818608E-02  0.1093470E+00
         21   -1    0    0  501  502  0.00000000000E+00  0.00000000000E+00  0.31150855184E+01  0.31150855184E+01  0.00000000000E+00 0. -1.
         13   -1    0    0    0    0 -0.00000000000E+00 -0.00000000000E+00 -0.10000000000E+04  0.10000000000E+04  0.00000000000E+00 0.  1.
    9000005    2    1    2  501    0 -0.31733472244E+02 -0.19291799998E+02 -0.87273053163E+03  0.87352535757E+03  0.29635579259E+01 0.  0.
         13    1    3    3    0    0 -0.25478014911E+02 -0.14296758703E+02 -0.70016801148E+03  0.70077726194E+03  0.00000000000E+00 0.  1.
          1    1    3    3  501    0 -0.62554573323E+01 -0.49950412956E+01 -0.17256252015E+03  0.17274809563E+03  0.00000000000E+00 0.  1.
         -3    1    1    2    0  502  0.31733472244E+02  0.19291799998E+02 -0.12415438286E+03  0.12958972795E+03  0.00000000000E+00 0. -1.
<mgrwt>
<rscale>  1 0.30000000E+03</rscale>
<asrwt>0</asrwt>
<pdfrwt beam="1">  1       21 0.11327608E-01 0.30000000E+03</pdfrwt>
<pdfrwt beam="2">0</pdfrwt>
<totfact> 0.68785740E+03</totfact>
</mgrwt>
</event>
<event>
 6    1  0.1295671E-001  0.3000000E+03  0.7818608E-02  0.1093470E+00
         21   -1    0    0  501  502  0.00000000000E+00  0.00000000000E+00  0.22958927586E+01  0.22958927586E+01  0.00000000000E+00 0. -1.
         13   -1    0    0    0    0 -0.00000000000E+00 -0.00000000000E+00 -0.10000000000E+04  0.10000000000E+04  0.00000000000E+00 0.  1.
    9000005    2    1    2  501    0 -0.30552084153E+02 -0.33201144576E+02 -0.66621230058E+03  0.66774759470E+03  0.35035613624E+01 0.  0.
         13    1    3    3    0    0 -0.26446919278E+02 -0.30216567383E+02 -0.59804008055E+03  0.59938670191E+03  0.00000000000E+00 0.  1.
          1    1    3    3  501    0 -0.41051648752E+01 -0.29845771924E+01 -0.68172220023E+02  0.68360892786E+02  0.00000000000E+00 0.  1.
         -1    1    1    2    0  502  0.30552084153E+02  0.33201144576E+02 -0.33149180667E+03  0.33454829806E+03  0.00000000000E+00 0. -1.
<mgrwt>
<rscale>  1 0.30000000E+03</rscale>
<asrwt>0</asrwt>
<pdfrwt beam="1">  1       21 0.83487185E-02 0.30000000E+03</pdfrwt>
<pdfrwt beam="2">0</pdfrwt>
<totfact> 0.11850414E+04</totfact>
</mgrwt>
</event>
<event>
 6    1  0.1295671E-001  0.3000000E+03  0.7818608E-02  0.1093470E+00
         21   -1    0    0  501  502  0.00000000000E+00  0.00000000000E+00  0.11085487430E+01  0.11085487430E+01  0.00000000000E+00 0. -1.
         13   -1    0    0    0    0 -0.00000000000E+00 -0.00000000000E+00 -0.10000000000E+04  0.10000000000E+04  0.00000000000E+00 0.  1.
    9000005    2    1    2  501    0 -0.25925120796E+02 -0.19740748196E+02 -0.59601943241E+03  0.59692087872E+03  0.36827456735E+01 0.  0.
         13    1    3    3    0    0 -0.51320178813E+01 -0.57996936138E+01 -0.13342279236E+03  0.13364735528E+03  0.00000000000E+00 0.  1.
          3    1    3    3  501    0 -0.20793102915E+02 -0.13941054582E+02 -0.46259664005E+03  0.46327352344E+03  0.00000000000E+00 0.  1.
         -3    1    1    2    0  502  0.25925120796E+02  0.19740748196E+02 -0.40287201885E+03  0.40418767002E+03  0.00000000000E+00 0. -1.
<mgrwt>
<rscale>  1 0.30000000E+03</rscale>
<asrwt>0</asrwt>
<pdfrwt beam="1">  1       21 0.40310948E-02 0.30000000E+03</pdfrwt>
<pdfrwt beam="2">0</pdfrwt>
<totfact> 0.41502456E+04</totfact>
</mgrwt>
</event>
<event>
 6    1  0.1295671E-001  0.3000000E+03  0.7818608E-02  0.1093470E+00
         21   -1    0    0  501  502  0.00000000000E+00  0.00000000000E+00  0.16876572048E+01  0.16876572048E+01  0.00000000000E+00 0. -1.
         13   -1    0    0    0    0 -0.00000000000E+00 -0.00000000000E+00 -0.10000000000E+04  0.10000000000E+04  0.00000000000E+00 0.  1.
    9000005    2    1    2  501    0  0.69404477489E+01  0.40247742303E+02 -0.45894927303E+03  0.46078048254E+03  0.40208582631E+01 0.  0.
         13    1    3    3    0    0  0.25217598696E+00  0.11038362846E+02 -0.13189660477E+03  0.13235793666E+03  0.00000000000E+00 0.  1.
          1    1    3    3  501    0  0.66882717619E+01  0.29209379456E+02 -0.32705266826E+03  0.32842254588E+03  0.00000000000E+00 0.  1.
         -1    1    1    2    0  502 -0.69404477489E+01 -0.40247742303E+02 -0.53936306977E+03  0.54090717466E+03  0.00000000000E+00 0. -1.
<mgrwt>
<rscale>  1 0.30000000E+03</rscale>
<asrwt>0</asrwt>
<pdfrwt beam="1">  1       21 0.61369482E-02 0.30000000E+03</pdfrwt>
<pdfrwt beam="2">0</pdfrwt>
<totfact> 0.20266905E+04</totfact>
</mgrwt>
</event>
<event>
 6    1  0.1295671E-001  0.3000000E+03  0.7818608E-02  0.1093470E+00
         21   -1    0    0  501  502  0.00000000000E+00  0.00000000000E+00  0.17765473881E+01  0.17765473881E+01  0.00000000000E+00 0. -1.
         13   -1    0    0    0    0 -0.00000000000E+00 -0.00000000000E+00 -0.10000000000E+04  0.10000000000E+04  0.00000000000E+00 0.  1.
    9000005    2    1    2  501    0  0.35011641591E+02  0.16660997165E+02 -0.69444242257E+03  0.69553102809E+03  0.31191193522E+01 0.  0.
         13    1    3    3    0    0  0.23348187676E+02  0.99898461229E+01 -0.47318737711E+03  0.47386836648E+03  0.00000000000E+00 0.  1.
          3    1    3    3  501    0  0.11663453914E+02  0.66711510420E+01 -0.22125504546E+03  0.22166266161E+03  0.00000000000E+00 0.  1.
         -1    1    1    2    0  502 -0.35011641591E+02 -0.16660997165E+02 -0.30378103005E+03  0.30624551930E+03  0.00000000000E+00 0. -1.
<mgrwt>
<rscale>  1 0.30000000E+03</rscale>
<asrwt>0</asrwt>
<pdfrwt beam="1">  1       21 0.64601859E-02 0.30000000E+03</pdfrwt>
<pdfrwt beam="2">0</pdfrwt>
<totfact> 0.18546256E+04</totfact>
</mgrwt>
</event>
<event>
 6    1  0.1295671E-001  0.3000000E+03  0.7818608E-02  0.1093470E+00
         21   -1    0    0  501  502  0.00000000000E+00  0.00000000000E+00  0.98802210592E+00  0.98802210592E+00  0.00000000000E+00 0. -1.
         13   -1    0    0    0    0 -0.00000000000E+00 -0.00000000000E+00 -0.10000000000E+04  0.10000000000E+04  0.00000000000E+00 0.  1.
    9000005    2    1    2  501    0 -0.57553564170E+01  0.30729541206E+02 -0.53710562963E+03  0.53802484495E+03  0.32935663496E+01 0.  0.
         13    1    3    3    0    0 -0.38848798797E+01  0.13305045661E+02 -0.22199497890E+03  0.22242726270E+03  0.00000000000E+00 0.  1.
          1    1    3    3  501    0 -0.18704765373E+01  0.17424495545E+02 -0.31511065072E+03  0.31559758226E+03  0.00000000000E+00 0.  1.
         -3    1    1    2    0  502  0.57553564170E+01 -0.30729541206E+02 -0.46190634827E+03  0.46296317715E+03  0.00000000000E+00 0. -1.
<mgrwt>
<rscale>  1 0.30000000E+03</rscale>
<asrwt>0</asrwt>
<pdfrwt beam="1">  1       21 0.35928152E-02 0.30000000E+03</pdfrwt>
<pdfrwt beam="2">0</pdfrwt>
<totfact> 0.50358733E+04</totfact>
</mgrwt>
</event>
<event>
 6    1  0.1295671E-001  0.3000000E+03  0.7818608E-02  0.1093470E+00
         21   -1    0    0  501  502  0.00000000000E+00  0.00000000000E+00  0.31676012247E+01  0.31676012247E+01  0.00000000000E+00 0. -1.
         13   -1    0    0    0    0 -0.00000000000E+00 -0.00000000000E+00 -0.10000000000E+04  0.10000000000E+04  0.00000000000E+00 0.  1.
    9000005    2    1    2  501    0  0.52851268784E+01 -0.37083023255E+02 -0.87256718967E+03  0.87337959957E+03  0.39167938895E+01 0.  0.
         13    1    3    3    0    0  0.52553896073E+01 -0.28802579278E+02 -0.65201559162E+03  0.65267261273E+03  0.00000000000E+00 0.  1.
          1    1    3    3  501    0  0.29737271096E-01 -0.82804439767E+01 -0.22055159805E+03  0.22070698683E+03  0.00000000000E+00 0.  1.
         -1    1    1    2    0  502 -0.52851268784E+01  0.37083023255E+02 -0.12426520911E+03  0.12978800166E+03  0.00000000000E+00 0. -1.
<mgrwt>
<rscale>  1 0.30000000E+03</rscale>
<asrwt>0</asrwt>
<pdfrwt beam="1">  1       21 0.11518574E-01 0.30000000E+03</pdfrwt>
<pdfrwt beam="2">0</pdfrwt>
<totfact> 0.66740652E+03</totfact>
</mgrwt>
</event>
<event>
 6    1  0.1295671E-001  0.3000000E+03  0.7818608E-02  0.1093470E+00
         21   -1    0    0  501  502  0.00000000000E+00  0.00000000000E+00  0.26203165005E+01  0.26203165005E+01  0.00000000000E+00 0. -1.
         13   -1    0    0    0    0 -0.00000000000E+00 -0.00000000000E+00 -0.10000000000E+04  0.10000000000E+04  0.00000000000E+00 0.  1.
    9000005    2    1    2  501    0  0.43511742585E+02  0.27387022379E+01 -0.76073757174E+03  0.76199558524E+03  0.38531346724E+01 0.  0.
         13    1    3    3    0    0  0.56928336663E+01 -0.33123411405E+00 -0.81730743143E+02  0.81929435772E+02  0.00000000000E+00 0.  1.
          3    1    3    3  501    0  0.37818908919E+02  0.30699363520E+01 -0.67900682859E+03  0.68006614947E+03  0.00000000000E+00 0.  1.
         -1    1    1    2    0  502 -0.43511742585E+02 -0.27387022379E+01 -0.23664211176E+03  0.24062473126E+03  0.00000000000E+00 0. -1.
<mgrwt>
<rscale>  1 0.30000000E+03</rscale>
<asrwt>0</asrwt>
<pdfrwt beam="1">  1       21 0.95284437E-02 0.30000000E+03</pdfrwt>
<pdfrwt beam="2">0</pdfrwt>
<totfact> 0.93776411E+03</totfact>
</mgrwt>
</event>
<event>
 6    1  0.1295671E-001  0.3000000E+03  0.7818608E-02  0.1093470E+00
         21   -1    0    0  501  502  0.00000000000E+00  0.00000000000E+00  0.11298208808E+01  0.11298208808E+01  0.00000000000E+00 0. -1.
         13   -1    0    0    0    0 -0.00000000000E+00 -0.00000000000E+00 -0.10000000000E+04  0.10000000000E+04  0.00000000000E+00 0.  1.
    9000005    2    1    2  501    0 -0.27419685063E+02  0.18220573452E+02 -0.42776419657E+03  0.42907573976E+03  0.63209299700E+01 0.  0.
         13    1    3    3    0    0 -0.76624975370E+01  0.44291842971E+01 -0.15362023886E+03  0.15387497955E+03  0.00000000000E+00 0.  1.
          3    1    3    3  501    0 -0.19757187526E+02  0.13791389155E+02 -0.27414395770E+03  0.27520076021E+03  0.00000000000E+00 0.  1.
         -1    1    1    2    0  502  0.27419685063E+02 -0.18220573452E+02 -0.57110598255E+03  0.57205408112E+03  0.00000000000E+00 0. -1.
<mgrwt>
<rscale>  1 0.30000000E+03</rscale>
<asrwt>0</asrwt>
<pdfrwt beam="1">  1       21 0.41084482E-02 0.30000000E+03</pdfrwt>
<pdfrwt beam="2">0</pdfrwt>
<totfact> 0.40193872E+04</totfact>
</mgrwt>
</event>
<event>
 6    1  0.1295671E-001  0.3000000E+03  0.7818608E-02  0.1093470E+00
         21   -1    0    0  501  502  0.00000000000E+00  0.00000000000E+00  0.50429935545E+01  0.50429935545E+01  0.00000000000E+00 0. -1.
         13   -1    0    0    0    0 -0.00000000000E+00 -0.00000000000E+00 -0.10000000000E+04  0.10000000000E+04  0.00000000000E+00 0.  1.
    9000005    2    1    2  501    0 -0.61729273708E+02 -0.27229708565E+02 -0.65336712304E+03  0.65685395193E+03  0.40689602984E+01 0.  0.
         13    1    3    3    0    0 -0.41083573765E+02 -0.16307618163E+02 -0.43703894757E+03  0.43926852850E+03  0.00000000000E+00 0.  1.
          1    1    3    3  501    0 -0.20645699943E+02 -0.10922090402E+02 -0.21632817548E+03  0.21758542343E+03  0.00000000000E+00 0.  1.
         -1    1    1    2    0  502  0.61729273708E+02  0.27229708565E+02 -0.34158988340E+03  0.34818904162E+03  0.00000000000E+00 0. -1.
<mgrwt>
<rscale>  1 0.30000000E+03</rscale>
<asrwt>0</asrwt>
<pdfrwt beam="1">  1       21 0.18338197E-01 0.30000000E+03</pdfrwt>
<pdfrwt beam="2">0</pdfrwt>
<totfact> 0.28285247E+03</totfact>
</mgrwt>
</event>
<event>
 6    1  0.1295671E-001  0.3000000E+03  0.7818608E-02  0.1093470E+00
         21   -1    0    0  501  502  0.00000000000E+00  0.00000000000E+00  0.30213108034E+01  0.30213108034E+01  0.00000000000E+00 0. -1.
         13   -1    0    0    0    0 -0.00000000000E+00 -0.00000000000E+00 -0.10000000000E+04  0.10000000000E+04  0.00000000000E+00 0.  1.
    9000005    2    1    2  501    0 -0.23509318427E+02  0.47129531581E+02 -0.63833380893E+03  0.64052988892E+03  0.58827011243E+01 0.  0.
         13    1    3    3    0    0 -0.62870755331E+01  0.96977620550E+01 -0.16633132573E+03  0.16673237186E+03  0.00000000000E+00 0.  1.
          1    1    3    3  501    0 -0.17222242894E+02  0.37431769526E+02 -0.47200248320E+03  0.47379751706E+03  0.00000000000E+00 0.  1.
         -3    1    1    2    0  502  0.23509318427E+02 -0.47129531581E+02 -0.35864488026E+03  0.36249142188E+03  0.00000000000E+00 0. -1.
<mgrwt>
<rscale>  1 0.30000000E+03</rscale>
<asrwt>0</asrwt>
<pdfrwt beam="1">  1       21 0.10986608E-01 0.30000000E+03</pdfrwt>
<pdfrwt beam="2">0</pdfrwt>
<totfact> 0.72679337E+03</totfact>
</mgrwt>
</event>
<event>
 6    1  0.1295671E-001  0.3000000E+03  0.7818608E-02  0.1093470E+00
         21   -1    0    0  501  502  0.00000000000E+00  0.00000000000E+00  0.27242400399E+01  0.27242400399E+01  0.00000000000E+00 0. -1.
         13   -1    0    0    0    0 -0.00000000000E+00 -0.00000000000E+00 -0.10000000000E+04  0.10000000000E+04  0.00000000000E+00 0.  1.
    9000005    2    1    2  501    0  0.23310121051E+02  0.22905562151E+02 -0.88943116987E+03  0.89003669799E+03  0.30807982491E+01 0.  0.
         13    1    3    3    0    0  0.21807268920E+02  0.20232085702E+02 -0.79919698330E+03  0.79975040631E+03  0.00000000000E+00 0.  1.
          3    1    3    3  501    0  0.15028521307E+01  0.26734764485E+01 -0.90234186562E+02  0.90286291680E+02  0.00000000000E+00 0.  1.
         -3    1    1    2    0  502 -0.23310121051E+02 -0.22905562151E+02 -0.10784459009E+03  0.11268754205E+03  0.00000000000E+00 0. -1.
<mgrwt>
<rscale>  1 0.30000000E+03</rscale>
<asrwt>0</asrwt>
<pdfrwt beam="1">  1       21 0.99063483E-02 0.30000000E+03</pdfrwt>
<pdfrwt beam="2">0</pdfrwt>
<totfact> 0.87490242E+03</totfact>
</mgrwt>
</event>
<event>
 6    1  0.1295671E-001  0.3000000E+03  0.7818608E-02  0.1093470E+00
         21   -1    0    0  501  502  0.00000000000E+00  0.00000000000E+00  0.35170237953E+01  0.35170237953E+01  0.00000000000E+00 0. -1.
         13   -1    0    0    0    0 -0.00000000000E+00 -0.00000000000E+00 -0.10000000000E+04  0.10000000000E+04  0.00000000000E+00 0.  1.
    9000005    2    1    2  501    0 -0.14158980398E+02 -0.57164607826E+02 -0.55363458555E+03  0.55676992955E+03  0.36374464900E+01 0.  0.
         13    1    3    3    0    0 -0.79416691982E+00 -0.23119603525E+01 -0.30454022974E+02  0.30551978284E+02  0.00000000000E+00 0.  1.
          1    1    3    3  501    0 -0.13364813478E+02 -0.54852647473E+02 -0.52318056258E+03  0.52621795126E+03  0.00000000000E+00 0.  1.
         -3    1    1    2    0  502  0.14158980398E+02  0.57164607826E+02 -0.44284839065E+03  0.44674709425E+03  0.00000000000E+00 0. -1.
<mgrwt>
<rscale>  1 0.30000000E+03</rscale>
<asrwt>0</asrwt>
<pdfrwt beam="1">  1       21 0.12789204E-01 0.30000000E+03</pdfrwt>
<pdfrwt beam="2">0</pdfrwt>
<totfact> 0.55187527E+03</totfact>
</mgrwt>
</event>
<event>
 6    1  0.1295671E-001  0.3000000E+03  0.7818608E-02  0.1093470E+00
         21   -1    0    0  501  502  0.00000000000E+00  0.00000000000E+00  0.17082679354E+01  0.17082679354E+01  0.00000000000E+00 0. -1.
         13   -1    0    0    0    0 -0.00000000000E+00 -0.00000000000E+00 -0.10000000000E+04  0.10000000000E+04  0.00000000000E+00 0.  1.
    9000005    2    1    2  501    0  0.35913990292E+02 -0.20242472739E+02 -0.51698388222E+03  0.51863806732E+03  0.36794016187E+01 0.  0.
         13    1    3    3    0    0  0.21245411790E+02 -0.99703600705E+01 -0.29977111546E+03  0.30068837235E+03  0.00000000000E+00 0.  1.
          3    1    3    3  501    0  0.14668578502E+02 -0.10272112668E+02 -0.21721276676E+03  0.21794969497E+03  0.00000000000E+00 0.  1.
         -1    1    1    2    0  502 -0.35913990292E+02  0.20242472739E+02 -0.48130784985E+03  0.48307020062E+03  0.00000000000E+00 0. -1.
<mgrwt>
<rscale>  1 0.30000000E+03</rscale>
<asrwt>0</asrwt>
<pdfrwt beam="1">  1       21 0.62118965E-02 0.30000000E+03</pdfrwt>
<pdfrwt beam="2">0</pdfrwt>
<totfact> 0.19846522E+04</totfact>
</mgrwt>
</event>
<event>
 6    1  0.1295671E-001  0.3000000E+03  0.7818608E-02  0.1093470E+00
         21   -1    0    0  501  502  0.00000000000E+00  0.00000000000E+00  0.14342713986E+01  0.14342713986E+01  0.00000000000E+00 0. -1.
         13   -1    0    0    0    0 -0.00000000000E+00 -0.00000000000E+00 -0.10000000000E+04  0.10000000000E+04  0.00000000000E+00 0.  1.
    9000005    2    1    2  501    0 -0.19024329616E+02  0.23950582788E+02 -0.79369270881E+03  0.79429057787E+03  0.37216300272E+01 0.  0.
         13    1    3    3    0    0 -0.11458285995E+02  0.16232459971E+02 -0.47752160093E+03  0.47793479098E+03  0.00000000000E+00 0.  1.
          3    1    3    3  501    0 -0.75660436209E+01  0.77181228172E+01 -0.31617110788E+03  0.31635578688E+03  0.00000000000E+00 0.  1.
         -3    1    1    2    0  502  0.19024329616E+02 -0.23950582788E+02 -0.20487301979E+03  0.20714369353E+03  0.00000000000E+00 0. -1.
<mgrwt>
<rscale>  1 0.30000000E+03</rscale>
<asrwt>0</asrwt>
<pdfrwt beam="1">  1       21 0.52155434E-02 0.30000000E+03</pdfrwt>
<pdfrwt beam="2">0</pdfrwt>
<totfact> 0.26802860E+04</totfact>
</mgrwt>
</event>
<event>
 6    1  0.1295671E-001  0.3000000E+03  0.7818608E-02  0.1093470E+00
         21   -1    0    0  501  502  0.00000000000E+00  0.00000000000E+00  0.10273300999E+01  0.10273300999E+01  0.00000000000E+00 0. -1.
         13   -1    0    0    0    0 -0.00000000000E+00 -0.00000000000E+00 -0.10000000000E+04  0.10000000000E+04  0.00000000000E+00 0.  1.
    9000005    2    1    2  501    0  0.29830746367E+02  0.36929254991E+01 -0.66775655326E+03  0.66845008035E+03  0.48150154506E+01 0.  0.
         13    1    3    3    0    0  0.16816383687E+01  0.14037991488E+01 -0.52458947050E+02  0.52504663462E+02  0.00000000000E+00 0.  1.
          1    1    3    3  501    0  0.28149107998E+02  0.22891263503E+01 -0.61529760621E+03  0.61594541689E+03  0.00000000000E+00 0.  1.
         -3    1    1    2    0  502 -0.29830746367E+02 -0.36929254991E+01 -0.33121611664E+03  0.33257724975E+03  0.00000000000E+00 0. -1.
<mgrwt>
<rscale>  1 0.30000000E+03</rscale>
<asrwt>0</asrwt>
<pdfrwt beam="1">  1       21 0.37357537E-02 0.30000000E+03</pdfrwt>
<pdfrwt beam="2">0</pdfrwt>
<totfact> 0.47167776E+04</totfact>
</mgrwt>
</event>
<event>
 6    1  0.1295671E-001  0.3000000E+03  0.7818608E-02  0.1093470E+00
         21   -1    0    0  501  502  0.00000000000E+00  0.00000000000E+00  0.10213107087E+01  0.10213107087E+01  0.00000000000E+00 0. -1.
         13   -1    0    0    0    0 -0.00000000000E+00 -0.00000000000E+00 -0.10000000000E+04  0.10000000000E+04  0.00000000000E+00 0.  1.
    9000005    2    1    2  501    0  0.92539490146E+01 -0.30311879377E+02 -0.55452066304E+03  0.55543475043E+03  0.31860070328E+01 0.  0.
         13    1    3    3    0    0  0.88472639594E+01 -0.25033335389E+02 -0.45766548175E+03  0.45843498464E+03  0.00000000000E+00 0.  1.
          1    1    3    3  501    0  0.40668505516E+00 -0.52785439874E+01 -0.96855181298E+02  0.96999765792E+02  0.00000000000E+00 0.  1.
         -3    1    1    2    0  502 -0.92539490146E+01  0.30311879377E+02 -0.44445802625E+03  0.44558656028E+03  0.00000000000E+00 0. -1.
<mgrwt>
<rscale>  1 0.30000000E+03</rscale>
<asrwt>0</asrwt>
<pdfrwt beam="1">  1       21 0.37138650E-02 0.30000000E+03</pdfrwt>
<pdfrwt beam="2">0</pdfrwt>
<totfact> 0.47635427E+04</totfact>
</mgrwt>
</event>
<event>
 6    1  0.1295671E-001  0.3000000E+03  0.7818608E-02  0.1093470E+00
         21   -1    0    0  501  502  0.00000000000E+00  0.00000000000E+00  0.47009590563E+01  0.47009590563E+01  0.00000000000E+00 0. -1.
         13   -1    0    0    0    0 -0.00000000000E+00 -0.00000000000E+00 -0.10000000000E+04  0.10000000000E+04  0.00000000000E+00 0.  1.
    9000005    2    1    2  501    0 -0.26099820153E+02 -0.37663538249E+02 -0.87122993119E+03  0.87244028190E+03  0.32725776141E+01 0.  0.
         13    1    3    3    0    0 -0.23643829167E+00 -0.16245566141E+00 -0.24338833339E+01  0.24507311135E+01  0.00000000000E+00 0.  1.
          3    1    3    3  501    0 -0.25863381861E+02 -0.37501082588E+02 -0.86879604785E+03  0.86998955079E+03  0.00000000000E+00 0.  1.
         -3    1    1    2    0  502  0.26099820153E+02  0.37663538249E+02 -0.12406910976E+03  0.13226067716E+03  0.00000000000E+00 0. -1.
<mgrwt>
<rscale>  1 0.30000000E+03</rscale>
<asrwt>0</asrwt>
<pdfrwt beam="1">  1       21 0.17094433E-01 0.30000000E+03</pdfrwt>
<pdfrwt beam="2">0</pdfrwt>
<totfact> 0.32278487E+03</totfact>
</mgrwt>
</event>
<event>
 6    1  0.1295671E-001  0.3000000E+03  0.7818608E-02  0.1093470E+00
         21   -1    0    0  501  502  0.00000000000E+00  0.00000000000E+00  0.48695702598E+01  0.48695702598E+01  0.00000000000E+00 0. -1.
         13   -1    0    0    0    0 -0.00000000000E+00 -0.00000000000E+00 -0.10000000000E+04  0.10000000000E+04  0.00000000000E+00 0.  1.
    9000005    2    1    2  501    0 -0.56338929372E+02 -0.15379553511E+02 -0.77232760300E+03  0.77454001238E+03  0.34203502082E+01 0.  0.
         13    1    3    3    0    0 -0.43671851328E+01 -0.21069824127E+01 -0.59862558053E+02  0.60058617513E+02  0.00000000000E+00 0.  1.
          1    1    3    3  501    0 -0.51971744239E+02 -0.13272571098E+02 -0.71246504494E+03  0.71448139487E+03  0.00000000000E+00 0.  1.
         -1    1    1    2    0  502  0.56338929372E+02  0.15379553511E+02 -0.22280282674E+03  0.23032955788E+03  0.00000000000E+00 0. -1.
<mgrwt>
<rscale>  1 0.30000000E+03</rscale>
<asrwt>0</asrwt>
<pdfrwt beam="1">  1       21 0.17707566E-01 0.30000000E+03</pdfrwt>
<pdfrwt beam="2">0</pdfrwt>
<totfact> 0.30212568E+03</totfact>
</mgrwt>
</event>
<event>
 6    1  0.1295671E-001  0.3000000E+03  0.7818608E-02  0.1093470E+00
         21   -1    0    0  501  502  0.00000000000E+00  0.00000000000E+00  0.15372692831E+01  0.15372692831E+01  0.00000000000E+00 0. -1.
         13   -1    0    0    0    0 -0.00000000000E+00 -0.00000000000E+00 -0.10000000000E+04  0.10000000000E+04  0.00000000000E+00 0.  1.
    9000005    2    1    2  501    0  0.91179236852E+01  0.28668671497E+02 -0.81996692528E+03  0.82052406033E+03  0.29909473060E+01 0.  0.
         13    1    3    3    0    0  0.83301030042E+01  0.26644749160E+02 -0.77839472852E+03  0.77889517052E+03  0.00000000000E+00 0.  1.
          1    1    3    3  501    0  0.78782068096E+00  0.20239223372E+01 -0.41572196762E+02  0.41628889809E+02  0.00000000000E+00 0.  1.
         -3    1    1    2    0  502 -0.91179236852E+01 -0.28668671497E+02 -0.17849580544E+03  0.18101320896E+03  0.00000000000E+00 0. -1.
<mgrwt>
<rscale>  1 0.30000000E+03</rscale>
<asrwt>0</asrwt>
<pdfrwt beam="1">  1       21 0.55900819E-02 0.30000000E+03</pdfrwt>
<pdfrwt beam="2">0</pdfrwt>
<totfact> 0.23801391E+04</totfact>
</mgrwt>
</event>
<event>
 6    1  0.1295671E-001  0.3000000E+03  0.7818608E-02  0.1093470E+00
         21   -1    0    0  501  502  0.00000000000E+00  0.00000000000E+00  0.17294911833E+01  0.17294911833E+01  0.00000000000E+00 0. -1.
         13   -1    0    0    0    0 -0.00000000000E+00 -0.00000000000E+00 -0.10000000000E+04  0.10000000000E+04  0.00000000000E+00 0.  1.
    9000005    2    1    2  501    0  0.28256404768E+02  0.18887600866E+02 -0.78660429804E+03  0.78735190220E+03  0.46400769708E+01 0.  0.
         13    1    3    3    0    0  0.27455603746E+02  0.19038758173E+02 -0.75796556085E+03  0.75870157238E+03  0.00000000000E+00 0.  1.
          3    1    3    3  501    0  0.80080102209E+00 -0.15115730680E+00 -0.28638737190E+02  0.28650329818E+02  0.00000000000E+00 0.  1.
         -3    1    1    2    0  502 -0.28256404768E+02 -0.18887600866E+02 -0.21166621077E+03  0.21437758899E+03  0.00000000000E+00 0. -1.
<mgrwt>
<rscale>  1 0.30000000E+03</rscale>
<asrwt>0</asrwt>
<pdfrwt beam="1">  1       21 0.62890721E-02 0.30000000E+03</pdfrwt>
<pdfrwt beam="2">0</pdfrwt>
<totfact> 0.19427618E+04</totfact>
</mgrwt>
</event>
<event>
 6    1  0.1295671E-001  0.3000000E+03  0.7818608E-02  0.1093470E+00
         21   -1    0    0  501  502  0.00000000000E+00  0.00000000000E+00  0.40953496891E+01  0.40953496891E+01  0.00000000000E+00 0. -1.
         13   -1    0    0    0    0 -0.00000000000E+00 -0.00000000000E+00 -0.10000000000E+04  0.10000000000E+04  0.00000000000E+00 0.  1.
    9000005    2    1    2  501    0 -0.36521927876E+02  0.16434159215E+01 -0.90993066635E+03  0.91067116679E+03  0.34065279918E+01 0.  0.
         13    1    3    3    0    0 -0.10032345219E+02  0.19783519818E+01 -0.25355867393E+03  0.25376477879E+03  0.00000000000E+00 0.  1.
          3    1    3    3  501    0 -0.26489582657E+02 -0.33493606030E+00 -0.65637199241E+03  0.65690638800E+03  0.00000000000E+00 0.  1.
         -1    1    1    2    0  502  0.36521927876E+02 -0.16434159215E+01 -0.85973983965E+02  0.93424182900E+02  0.00000000000E+00 0. -1.
<mgrwt>
<rscale>  1 0.30000000E+03</rscale>
<asrwt>0</asrwt>
<pdfrwt beam="1">  1       21 0.14892212E-01 0.30000000E+03</pdfrwt>
<pdfrwt beam="2">0</pdfrwt>
<totfact> 0.41733492E+03</totfact>
</mgrwt>
</event>
<event>
 6    1  0.1295671E-001  0.3000000E+03  0.7818608E-02  0.1093470E+00
         21   -1    0    0  501  502  0.00000000000E+00  0.00000000000E+00  0.94387786283E+01  0.94387786283E+01  0.00000000000E+00 0. -1.
         13   -1    0    0    0    0 -0.00000000000E+00 -0.00000000000E+00 -0.10000000000E+04  0.10000000000E+04  0.00000000000E+00 0.  1.
    9000005    2    1    2  501    0 -0.90577011118E+02  0.27072642925E+02 -0.61108181730E+03  0.61836111236E+03  0.35149549804E+01 0.  0.
         13    1    3    3    0    0 -0.52496822974E+02  0.13921075204E+02 -0.34833927860E+03  0.35254782054E+03  0.00000000000E+00 0.  1.
          1    1    3    3  501    0 -0.38080188144E+02  0.13151567720E+02 -0.26274253870E+03  0.26581329181E+03  0.00000000000E+00 0.  1.
         -1    1    1    2    0  502  0.90577011118E+02 -0.27072642925E+02 -0.37947940408E+03  0.39107766627E+03  0.00000000000E+00 0. -1.
<mgrwt>
<rscale>  1 0.30000000E+03</rscale>
<asrwt>0</asrwt>
<pdfrwt beam="1">  1       21 0.34322904E-01 0.30000000E+03</pdfrwt>
<pdfrwt beam="2">0</pdfrwt>
<totfact> 0.82819906E+02</totfact>
</mgrwt>
</event>
<event>
 6    1  0.1295671E-001  0.3000000E+03  0.7818608E-02  0.1093470E+00
         21   -1    0    0  501  502  0.00000000000E+00  0.00000000000E+00  0.14984576658E+01  0.14984576658E+01  0.00000000000E+00 0. -1.
         13   -1    0    0    0    0 -0.00000000000E+00 -0.00000000000E+00 -0.10000000000E+04  0.10000000000E+04  0.00000000000E+00 0.  1.
    9000005    2    1    2  501    0 -0.33715083924E+02 -0.15570158507E+02 -0.63815879989E+03  0.63924712398E+03  0.33309050757E+01 0.  0.
         13    1    3    3    0    0 -0.20681703338E+02 -0.95905086317E+01 -0.41896917747E+03  0.41958894453E+03  0.00000000000E+00 0.  1.
          1    1    3    3  501    0 -0.13033380586E+02 -0.59796498748E+01 -0.21918962242E+03  0.21965817945E+03  0.00000000000E+00 0.  1.
         -1    1    1    2    0  502  0.33715083924E+02  0.15570158507E+02 -0.36034274245E+03  0.36225133368E+03  0.00000000000E+00 0. -1.
<mgrwt>
<rscale>  1 0.30000000E+03</rscale>
<asrwt>0</asrwt>
<pdfrwt beam="1">  1       21 0.54489485E-02 0.30000000E+03</pdfrwt>
<pdfrwt beam="2">0</pdfrwt>
<totfact> 0.24868504E+04</totfact>
</mgrwt>
</event>
<event>
 6    1  0.1295671E-001  0.3000000E+03  0.7818608E-02  0.1093470E+00
         21   -1    0    0  501  502  0.00000000000E+00  0.00000000000E+00  0.51305610030E+01  0.51305610030E+01  0.00000000000E+00 0. -1.
         13   -1    0    0    0    0 -0.00000000000E+00 -0.00000000000E+00 -0.10000000000E+04  0.10000000000E+04  0.00000000000E+00 0.  1.
    9000005    2    1    2  501    0 -0.11229351871E+02 -0.52015717279E+02 -0.83371837863E+03  0.83542081631E+03  0.31420161195E+01 0.  0.
         13    1    3    3    0    0 -0.11415952324E+02 -0.50494608270E+02 -0.80771969940E+03  0.80937700871E+03  0.00000000000E+00 0.  1.
          3    1    3    3  501    0  0.18660045223E+00 -0.15211090083E+01 -0.25998679236E+02  0.26043807601E+02  0.00000000000E+00 0.  1.
         -1    1    1    2    0  502  0.11229351871E+02  0.52015717279E+02 -0.16115106036E+03  0.16970974469E+03  0.00000000000E+00 0. -1.
<mgrwt>
<rscale>  1 0.30000000E+03</rscale>
<asrwt>0</asrwt>
<pdfrwt beam="1">  1       21 0.18656625E-01 0.30000000E+03</pdfrwt>
<pdfrwt beam="2">0</pdfrwt>
<totfact> 0.27380138E+03</totfact>
</mgrwt>
</event>
<event>
 6    1  0.1295671E-001  0.3000000E+03  0.7818608E-02  0.1093470E+00
         21   -1    0    0  501  502  0.00000000000E+00  0.00000000000E+00  0.92941538251E+01  0.92941538251E+01  0.00000000000E+00 0. -1.
         13   -1    0    0    0    0 -0.00000000000E+00 -0.00000000000E+00 -0.10000000000E+04  0.10000000000E+04  0.00000000000E+00 0.  1.
    9000005    2    1    2  501    0  0.46657192031E+02 -0.75621375750E+02 -0.69083333801E+03  0.69653385073E+03  0.36356938646E+01 0.  0.
         13    1    3    3    0    0  0.38975691674E+02 -0.60518348817E+02 -0.55675473753E+03  0.56138882501E+03  0.00000000000E+00 0.  1.
          1    1    3    3  501    0  0.76815003568E+01 -0.15103026933E+02 -0.13407860048E+03  0.13514502572E+03  0.00000000000E+00 0.  1.
         -1    1    1    2    0  502 -0.46657192031E+02  0.75621375750E+02 -0.29987250817E+03  0.31276030310E+03  0.00000000000E+00 0. -1.
<mgrwt>
<rscale>  1 0.30000000E+03</rscale>
<asrwt>0</asrwt>
<pdfrwt beam="1">  1       21 0.33796994E-01 0.30000000E+03</pdfrwt>
<pdfrwt beam="2">0</pdfrwt>
<totfact> 0.85469007E+02</totfact>
</mgrwt>
</event>
<event>
 6    1  0.1295671E-001  0.3000000E+03  0.7818608E-02  0.1093470E+00
         21   -1    0    0  501  502  0.00000000000E+00  0.00000000000E+00  0.19442728746E+01  0.19442728746E+01  0.00000000000E+00 0. -1.
         13   -1    0    0    0    0 -0.00000000000E+00 -0.00000000000E+00 -0.10000000000E+04  0.10000000000E+04  0.00000000000E+00 0.  1.
    9000005    2    1    2  501    0 -0.29838823444E+02 -0.23386657632E+02 -0.75435842700E+03  0.75531567512E+03  0.28002791158E+01 0.  0.
         13    1    3    3    0    0 -0.29056031338E+02 -0.22087538611E+02 -0.72451322301E+03  0.72543195590E+03  0.00000000000E+00 0.  1.
          3    1    3    3  501    0 -0.78279210593E+00 -0.12991190211E+01 -0.29845203988E+02  0.29883719226E+02  0.00000000000E+00 0.  1.
         -3    1    1    2    0  502  0.29838823444E+02  0.23386657632E+02 -0.24369730013E+03  0.24662859775E+03  0.00000000000E+00 0. -1.
<mgrwt>
<rscale>  1 0.30000000E+03</rscale>
<asrwt>0</asrwt>
<pdfrwt beam="1">  1       21 0.70700981E-02 0.30000000E+03</pdfrwt>
<pdfrwt beam="2">0</pdfrwt>
<totfact> 0.15857784E+04</totfact>
</mgrwt>
</event>
<event>
 6    1  0.1295671E-001  0.3000000E+03  0.7818608E-02  0.1093470E+00
         21   -1    0    0  501  502  0.00000000000E+00  0.00000000000E+00  0.21630933642E+01  0.21630933642E+01  0.00000000000E+00 0. -1.
         13   -1    0    0    0    0 -0.00000000000E+00 -0.00000000000E+00 -0.10000000000E+04  0.10000000000E+04  0.00000000000E+00 0.  1.
    9000005    2    1    2  501    0 -0.46563343417E+01 -0.35831339390E+02 -0.81403932571E+03  0.81484753852E+03  0.33046784266E+01 0.  0.
         13    1    3    3    0    0  0.16106959986E+00 -0.43096381575E+01 -0.80487026879E+02  0.80602483958E+02  0.00000000000E+00 0.  1.
          3    1    3    3  501    0 -0.48174039415E+01 -0.31521701232E+02 -0.73355229883E+03  0.73424505457E+03  0.00000000000E+00 0.  1.
         -3    1    1    2    0  502  0.46563343417E+01  0.35831339390E+02 -0.18379758092E+03  0.18731555484E+03  0.00000000000E+00 0. -1.
<mgrwt>
<rscale>  1 0.30000000E+03</rscale>
<asrwt>0</asrwt>
<pdfrwt beam="1">  1       21 0.78658106E-02 0.30000000E+03</pdfrwt>
<pdfrwt beam="2">0</pdfrwt>
<totfact> 0.13158919E+04</totfact>
</mgrwt>
</event>
<event>
 6    1  0.1295671E-001  0.3000000E+03  0.7818608E-02  0.1093470E+00
         21   -1    0    0  501  502  0.00000000000E+00  0.00000000000E+00  0.11292936011E+01  0.11292936011E+01  0.00000000000E+00 0. -1.
         13   -1    0    0    0    0 -0.00000000000E+00 -0.00000000000E+00 -0.10000000000E+04  0.10000000000E+04  0.00000000000E+00 0.  1.
    9000005    2    1    2  501    0  0.38936052039E+01 -0.32012354860E+02 -0.63769510234E+03  0.63851687243E+03  0.29667820374E+01 0.  0.
         13    1    3    3    0    0  0.96978890308E+00 -0.17365172123E+02 -0.32426289698E+03  0.32472898863E+03  0.00000000000E+00 0.  1.
          1    1    3    3  501    0  0.29238163008E+01 -0.14647182737E+02 -0.31343220536E+03  0.31378788380E+03  0.00000000000E+00 0.  1.
         -1    1    1    2    0  502 -0.38936052039E+01  0.32012354860E+02 -0.36117560406E+03  0.36261242117E+03  0.00000000000E+00 0. -1.
<mgrwt>
<rscale>  1 0.30000000E+03</rscale>
<asrwt>0</asrwt>
<pdfrwt beam="1">  1       21 0.41065308E-02 0.30000000E+03</pdfrwt>
<pdfrwt beam="2">0</pdfrwt>
<totfact> 0.40225526E+04</totfact>
</mgrwt>
</event>
<event>
 6    1  0.1295671E-001  0.3000000E+03  0.7818608E-02  0.1093470E+00
         21   -1    0    0  501  502  0.00000000000E+00  0.00000000000E+00  0.15956779963E+01  0.15956779963E+01  0.00000000000E+00 0. -1.
         13   -1    0    0    0    0 -0.00000000000E+00 -0.00000000000E+00 -0.10000000000E+04  0.10000000000E+04  0.00000000000E+00 0.  1.
    9000005    2    1    2  501    0  0.28828237774E+02 -0.83892913049E+01 -0.82569774893E+03  0.82629876449E+03  0.95618046847E+01 0.  0.
         13    1    3    3    0    0  0.22974404626E+02 -0.23612276344E+01 -0.59526938108E+03  0.59571724393E+03  0.00000000000E+00 0.  1.
          3    1    3    3  501    0  0.58538331482E+01 -0.60280636705E+01 -0.23042836785E+03  0.23058152056E+03  0.00000000000E+00 0.  1.
         -1    1    1    2    0  502 -0.28828237774E+02  0.83892913049E+01 -0.17270657307E+03  0.17529691350E+03  0.00000000000E+00 0. -1.
<mgrwt>
<rscale>  1 0.30000000E+03</rscale>
<asrwt>0</asrwt>
<pdfrwt beam="1">  1       21 0.58024777E-02 0.30000000E+03</pdfrwt>
<pdfrwt beam="2">0</pdfrwt>
<totfact> 0.22323147E+04</totfact>
</mgrwt>
</event>
<event>
 6    1  0.1295671E-001  0.3000000E+03  0.7818608E-02  0.1093470E+00
         21   -1    0    0  501  502  0.00000000000E+00  0.00000000000E+00  0.16833837136E+01  0.16833837136E+01  0.00000000000E+00 0. -1.
         13   -1    0    0    0    0 -0.00000000000E+00 -0.00000000000E+00 -0.10000000000E+04  0.10000000000E+04  0.00000000000E+00 0.  1.
    9000005    2    1    2  501    0 -0.30167001278E+02  0.38246789269E+01 -0.83496779923E+03  0.83552829902E+03  0.34112433899E+01 0.  0.
         13    1    3    3    0    0 -0.11525775049E+01 -0.38228127237E+00 -0.45826798452E+02  0.45842884183E+02  0.00000000000E+00 0.  1.
          1    1    3    3  501    0 -0.29014423773E+02  0.42069601992E+01 -0.78914100078E+03  0.78968541484E+03  0.00000000000E+00 0.  1.
         -3    1    1    2    0  502  0.30167001278E+02 -0.38246789269E+01 -0.16334881705E+03  0.16615508469E+03  0.00000000000E+00 0. -1.
<mgrwt>
<rscale>  1 0.30000000E+03</rscale>
<asrwt>0</asrwt>
<pdfrwt beam="1">  1       21 0.61214082E-02 0.30000000E+03</pdfrwt>
<pdfrwt beam="2">0</pdfrwt>
<totfact> 0.20355799E+04</totfact>
</mgrwt>
</event>
<event>
 6    1  0.1295671E-001  0.3000000E+03  0.7818608E-02  0.1093470E+00
         21   -1    0    0  501  502  0.00000000000E+00  0.00000000000E+00  0.10286263025E+01  0.10286263025E+01  0.00000000000E+00 0. -1.
         13   -1    0    0    0    0 -0.00000000000E+00 -0.00000000000E+00 -0.10000000000E+04  0.10000000000E+04  0.00000000000E+00 0.  1.
    9000005    2    1    2  501    0 -0.30231119667E+02  0.50470718590E+01 -0.62920741348E+03  0.62999657943E+03  0.73707112603E+01 0.  0.
         13    1    3    3    0    0 -0.15350589831E+01  0.19203015065E+00 -0.82936090017E+02  0.82950517231E+02  0.00000000000E+00 0.  1.
          1    1    3    3  501    0 -0.28696060684E+02  0.48550417084E+01 -0.54627132346E+03  0.54704606220E+03  0.00000000000E+00 0.  1.
         -3    1    1    2    0  502  0.30231119667E+02 -0.50470718590E+01 -0.36976396022E+03  0.37103204687E+03  0.00000000000E+00 0. -1.
<mgrwt>
<rscale>  1 0.30000000E+03</rscale>
<asrwt>0</asrwt>
<pdfrwt beam="1">  1       21 0.37404672E-02 0.30000000E+03</pdfrwt>
<pdfrwt beam="2">0</pdfrwt>
<totfact> 0.47068018E+04</totfact>
</mgrwt>
</event>
<event>
 6    1  0.1295671E-001  0.3000000E+03  0.7818608E-02  0.1093470E+00
         21   -1    0    0  501  502  0.00000000000E+00  0.00000000000E+00  0.41080349388E+01  0.41080349388E+01  0.00000000000E+00 0. -1.
         13   -1    0    0    0    0 -0.00000000000E+00 -0.00000000000E+00 -0.10000000000E+04  0.10000000000E+04  0.00000000000E+00 0.  1.
    9000005    2    1    2  501    0 -0.24418874956E+02  0.28256611216E+02 -0.90589444076E+03  0.90666948039E+03  0.31766878972E+01 0.  0.
         13    1    3    3    0    0 -0.21040191786E+02  0.23710599802E+02 -0.79233190112E+03  0.79296577716E+03  0.00000000000E+00 0.  1.
          1    1    3    3  501    0 -0.33786831701E+01  0.45460114140E+01 -0.11356253963E+03  0.11370370323E+03  0.00000000000E+00 0.  1.
         -3    1    1    2    0  502  0.24418874956E+02 -0.28256611216E+02 -0.89997524306E+02  0.97438554549E+02  0.00000000000E+00 0. -1.
<mgrwt>
<rscale>  1 0.30000000E+03</rscale>
<asrwt>0</asrwt>
<pdfrwt beam="1">  1       21 0.14938340E-01 0.30000000E+03</pdfrwt>
<pdfrwt beam="2">0</pdfrwt>
<totfact> 0.41495443E+03</totfact>
</mgrwt>
</event>
<event>
 6    1  0.1295671E-001  0.3000000E+03  0.7818608E-02  0.1093470E+00
         21   -1    0    0  501  502  0.00000000000E+00  0.00000000000E+00  0.13143132598E+01  0.13143132598E+01  0.00000000000E+00 0. -1.
         13   -1    0    0    0    0 -0.00000000000E+00 -0.00000000000E+00 -0.10000000000E+04  0.10000000000E+04  0.00000000000E+00 0.  1.
    9000005    2    1    2  501    0 -0.12139441960E+02 -0.30867314144E+02 -0.69984532743E+03  0.70063887780E+03  0.33462863412E+01 0.  0.
         13    1    3    3    0    0 -0.84323159222E+01 -0.20828511642E+02 -0.44028756979E+03  0.44086060718E+03  0.00000000000E+00 0.  1.
          1    1    3    3  501    0 -0.37071260375E+01 -0.10038802502E+02 -0.25955775764E+03  0.25977827062E+03  0.00000000000E+00 0.  1.
         -1    1    1    2    0  502  0.12139441960E+02  0.30867314144E+02 -0.29884035931E+03  0.30067543546E+03  0.00000000000E+00 0. -1.
<mgrwt>
<rscale>  1 0.30000000E+03</rscale>
<asrwt>0</asrwt>
<pdfrwt beam="1">  1       21 0.47793310E-02 0.30000000E+03</pdfrwt>
<pdfrwt beam="2">0</pdfrwt>
<totfact> 0.31106097E+04</totfact>
</mgrwt>
</event>
<event>
 6    1  0.1295671E-001  0.3000000E+03  0.7818608E-02  0.1093470E+00
         21   -1    0    0  501  502  0.00000000000E+00  0.00000000000E+00  0.13836276707E+01  0.13836276707E+01  0.00000000000E+00 0. -1.
         13   -1    0    0    0    0 -0.00000000000E+00 -0.00000000000E+00 -0.10000000000E+04  0.10000000000E+04  0.00000000000E+00 0.  1.
    9000005    2    1    2  501    0 -0.14265638841E+01  0.34217633842E+02 -0.33494848225E+03  0.33683268916E+03  0.96381106200E+01 0.  0.
         13    1    3    3    0    0 -0.39947106399E+00  0.19055061767E+02 -0.23017895334E+03  0.23096667620E+03  0.00000000000E+00 0.  1.
          3    1    3    3  501    0 -0.10270928201E+01  0.15162572075E+02 -0.10476952891E+03  0.10586601296E+03  0.00000000000E+00 0.  1.
         -1    1    1    2    0  502  0.14265638841E+01 -0.34217633842E+02 -0.66366789008E+03  0.66455093851E+03  0.00000000000E+00 0. -1.
<mgrwt>
<rscale>  1 0.30000000E+03</rscale>
<asrwt>0</asrwt>
<pdfrwt beam="1">  1       21 0.50313840E-02 0.30000000E+03</pdfrwt>
<pdfrwt beam="2">0</pdfrwt>
<totfact> 0.28498989E+04</totfact>
</mgrwt>
</event>
<event>
 6    1  0.1295671E-001  0.3000000E+03  0.7818608E-02  0.1093470E+00
         21   -1    0    0  501  502  0.00000000000E+00  0.00000000000E+00  0.10152056162E+01  0.10152056162E+01  0.00000000000E+00 0. -1.
         13   -1    0    0    0    0 -0.00000000000E+00 -0.00000000000E+00 -0.10000000000E+04  0.10000000000E+04  0.00000000000E+00 0.  1.
    9000005    2    1    2  501    0 -0.10564955311E+02 -0.28641030326E+02 -0.63954345251E+03  0.64027983842E+03  0.32429829888E+01 0.  0.
         13    1    3    3    0    0 -0.30935983790E+01 -0.64066957399E+01 -0.12547830263E+03  0.12567983343E+03  0.00000000000E+00 0.  1.
          1    1    3    3  501    0 -0.74713569316E+01 -0.22234334586E+02 -0.51406514988E+03  0.51460000498E+03  0.00000000000E+00 0.  1.
         -3    1    1    2    0  502  0.10564955311E+02  0.28641030326E+02 -0.35944134187E+03  0.36073536720E+03  0.00000000000E+00 0. -1.
<mgrwt>
<rscale>  1 0.30000000E+03</rscale>
<asrwt>0</asrwt>
<pdfrwt beam="1">  1       21 0.36916646E-02 0.30000000E+03</pdfrwt>
<pdfrwt beam="2">0</pdfrwt>
<totfact> 0.48117236E+04</totfact>
</mgrwt>
</event>
<event>
 6    1  0.1295671E-001  0.3000000E+03  0.7818608E-02  0.1093470E+00
         21   -1    0    0  501  502  0.00000000000E+00  0.00000000000E+00  0.11039847191E+01  0.11039847191E+01  0.00000000000E+00 0. -1.
         13   -1    0    0    0    0 -0.00000000000E+00 -0.00000000000E+00 -0.10000000000E+04  0.10000000000E+04  0.00000000000E+00 0.  1.
    9000005    2    1    2  501    0 -0.55925115666E+00 -0.32572838185E+02 -0.59150235812E+03  0.59240985161E+03  0.36180194200E+01 0.  0.
         13    1    3    3    0    0 -0.83273543404E+00 -0.38307409729E+01 -0.56414009779E+02  0.56550053263E+02  0.00000000000E+00 0.  1.
          1    1    3    3  501    0  0.27348427738E+00 -0.28742097212E+02 -0.53508834834E+03  0.53585979834E+03  0.00000000000E+00 0.  1.
         -1    1    1    2    0  502  0.55925115666E+00  0.32572838185E+02 -0.40739365716E+03  0.40869413311E+03  0.00000000000E+00 0. -1.
<mgrwt>
<rscale>  1 0.30000000E+03</rscale>
<asrwt>0</asrwt>
<pdfrwt beam="1">  1       21 0.40144984E-02 0.30000000E+03</pdfrwt>
<pdfrwt beam="2">0</pdfrwt>
<totfact> 0.41791889E+04</totfact>
</mgrwt>
</event>
<event>
 6    1  0.1295671E-001  0.3000000E+03  0.7818608E-02  0.1093470E+00
         21   -1    0    0  501  502  0.00000000000E+00  0.00000000000E+00  0.75004960469E+01  0.75004960469E+01  0.00000000000E+00 0. -1.
         13   -1    0    0    0    0 -0.00000000000E+00 -0.00000000000E+00 -0.10000000000E+04  0.10000000000E+04  0.00000000000E+00 0.  1.
    9000005    2    1    2  501    0 -0.24505480025E+02 -0.26060257881E+02 -0.95498272624E+03  0.95566263149E+03  0.44047944371E+01 0.  0.
         13    1    3    3    0    0 -0.20358807751E+02 -0.19320329371E+02 -0.72078740979E+03  0.72133365809E+03  0.00000000000E+00 0.  1.
          3    1    3    3  501    0 -0.41466722735E+01 -0.67399285103E+01 -0.23419531644E+03  0.23432897339E+03  0.00000000000E+00 0.  1.
         -3    1    1    2    0  502  0.24505480025E+02  0.26060257881E+02 -0.37516777714E+02  0.51837864560E+02  0.00000000000E+00 0. -1.
<mgrwt>
<rscale>  1 0.30000000E+03</rscale>
<asrwt>0</asrwt>
<pdfrwt beam="1">  1       21 0.27274589E-01 0.30000000E+03</pdfrwt>
<pdfrwt beam="2">0</pdfrwt>
<totfact> 0.13139410E+03</totfact>
</mgrwt>
</event>
<event>
 6    1  0.1295671E-001  0.3000000E+03  0.7818608E-02  0.1093470E+00
         21   -1    0    0  501  502  0.00000000000E+00  0.00000000000E+00  0.34121734959E+01  0.34121734959E+01  0.00000000000E+00 0. -1.
         13   -1    0    0    0    0 -0.00000000000E+00 -0.00000000000E+00 -0.10000000000E+04  0.10000000000E+04  0.00000000000E+00 0.  1.
    9000005    2    1    2  501    0  0.32453018227E+02 -0.44711453120E+02 -0.66036692338E+03  0.66268235659E+03  0.33346375322E+01 0.  0.
         13    1    3    3    0    0  0.18097843958E+01 -0.14595686768E+01 -0.24689814484E+02  0.24799044327E+02  0.00000000000E+00 0.  1.
          3    1    3    3  501    0  0.30643233831E+02 -0.43251884443E+02 -0.63567710890E+03  0.63788331226E+03  0.00000000000E+00 0.  1.
         -3    1    1    2    0  502 -0.32453018227E+02  0.44711453120E+02 -0.33622090312E+03  0.34072981691E+03  0.00000000000E+00 0. -1.
<mgrwt>
<rscale>  1 0.30000000E+03</rscale>
<asrwt>0</asrwt>
<pdfrwt beam="1">  1       21 0.12407930E-01 0.30000000E+03</pdfrwt>
<pdfrwt beam="2">0</pdfrwt>
<totfact> 0.58316751E+03</totfact>
</mgrwt>
</event>
<event>
 6    1  0.1295671E-001  0.3000000E+03  0.7818608E-02  0.1093470E+00
         21   -1    0    0  501  502  0.00000000000E+00  0.00000000000E+00  0.19189943722E+01  0.19189943722E+01  0.00000000000E+00 0. -1.
         13   -1    0    0    0    0 -0.00000000000E+00 -0.00000000000E+00 -0.10000000000E+04  0.10000000000E+04  0.00000000000E+00 0.  1.
    9000005    2    1    2  501    0  0.67305273397E+01 -0.29913209664E+02 -0.85656224365E+03  0.85711685315E+03  0.32128798815E+01 0.  0.
         13    1    3    3    0    0  0.35805537327E+01 -0.17477057214E+02 -0.45451321821E+03  0.45486320297E+03  0.00000000000E+00 0.  1.
          1    1    3    3  501    0  0.31499736070E+01 -0.12436152450E+02 -0.40204902544E+03  0.40225365017E+03  0.00000000000E+00 0.  1.
         -3    1    1    2    0  502 -0.67305273397E+01  0.29913209664E+02 -0.14151876198E+03  0.14480214123E+03  0.00000000000E+00 0. -1.
<mgrwt>
<rscale>  1 0.30000000E+03</rscale>
<asrwt>0</asrwt>
<pdfrwt beam="1">  1       21 0.69781761E-02 0.30000000E+03</pdfrwt>
<pdfrwt beam="2">0</pdfrwt>
<totfact> 0.16223199E+04</totfact>
</mgrwt>
</event>
<event>
 6    1  0.1295671E-001  0.3000000E+03  0.7818608E-02  0.1093470E+00
         21   -1    0    0  501  502  0.00000000000E+00  0.00000000000E+00  0.44365174412E+01  0.44365174412E+01  0.00000000000E+00 0. -1.
         13   -1    0    0    0    0 -0.00000000000E+00 -0.00000000000E+00 -0.10000000000E+04  0.10000000000E+04  0.00000000000E+00 0.  1.
    9000005    2    1    2  501    0 -0.17546190832E+02 -0.52265191096E+02 -0.77941077044E+03  0.78136362807E+03  0.29070932340E+01 0.  0.
         13    1    3    3    0    0 -0.17108643449E+02 -0.50930502350E+02 -0.75196655250E+03  0.75388349089E+03  0.00000000000E+00 0.  1.
          3    1    3    3  501    0 -0.43754738316E+00 -0.13346887455E+01 -0.27444217935E+02  0.27480137187E+02  0.00000000000E+00 0.  1.
         -3    1    1    2    0  502  0.17546190832E+02  0.52265191096E+02 -0.21615271212E+03  0.22307288937E+03  0.00000000000E+00 0. -1.
<mgrwt>
<rscale>  1 0.30000000E+03</rscale>
<asrwt>0</asrwt>
<pdfrwt beam="1">  1       21 0.16132825E-01 0.30000000E+03</pdfrwt>
<pdfrwt beam="2">0</pdfrwt>
<totfact> 0.35967937E+03</totfact>
</mgrwt>
</event>
<event>
 6    1  0.1295671E-001  0.3000000E+03  0.7818608E-02  0.1093470E+00
         21   -1    0    0  501  502  0.00000000000E+00  0.00000000000E+00  0.30760968560E+01  0.30760968560E+01  0.00000000000E+00 0. -1.
         13   -1    0    0    0    0 -0.00000000000E+00 -0.00000000000E+00 -0.10000000000E+04  0.10000000000E+04  0.00000000000E+00 0.  1.
    9000005    2    1    2  501    0 -0.25555462207E+02 -0.26828134336E+02 -0.87159069350E+03  0.87238086404E+03  0.22813397005E+01 0.  0.
         13    1    3    3    0    0 -0.44360710959E+01 -0.54823359663E+01 -0.18262105822E+03  0.18275717671E+03  0.00000000000E+00 0.  1.
          1    1    3    3  501    0 -0.21119391111E+02 -0.21345798370E+02 -0.68896963528E+03  0.68962368733E+03  0.00000000000E+00 0.  1.
         -1    1    1    2    0  502  0.25555462207E+02  0.26828134336E+02 -0.12533320964E+03  0.13069523281E+03  0.00000000000E+00 0. -1.
<mgrwt>
<rscale>  1 0.30000000E+03</rscale>
<asrwt>0</asrwt>
<pdfrwt beam="1">  1       21 0.11185830E-01 0.30000000E+03</pdfrwt>
<pdfrwt beam="2">0</pdfrwt>
<totfact> 0.70365521E+03</totfact>
</mgrwt>
</event>
<event>
 6    1  0.1295671E-001  0.3000000E+03  0.7818608E-02  0.1093470E+00
         21   -1    0    0  501  502  0.00000000000E+00  0.00000000000E+00  0.14615068689E+01  0.14615068689E+01  0.00000000000E+00 0. -1.
         13   -1    0    0    0    0 -0.00000000000E+00 -0.00000000000E+00 -0.10000000000E+04  0.10000000000E+04  0.00000000000E+00 0.  1.
    9000005    2    1    2  501    0  0.22712427515E+02 -0.25722385873E+02 -0.71846749225E+03  0.71929619888E+03  0.37401607928E+01 0.  0.
         13    1    3    3    0    0  0.15612024182E+02 -0.16101374746E+02 -0.49783773130E+03  0.49834264946E+03  0.00000000000E+00 0.  1.
          1    1    3    3  501    0  0.71004033333E+01 -0.96210111274E+01 -0.22062976095E+03  0.22095354942E+03  0.00000000000E+00 0.  1.
         -3    1    1    2    0  502 -0.22712427515E+02  0.25722385873E+02 -0.28007100088E+03  0.28216530799E+03  0.00000000000E+00 0. -1.
<mgrwt>
<rscale>  1 0.30000000E+03</rscale>
<asrwt>0</asrwt>
<pdfrwt beam="1">  1       21 0.53145816E-02 0.30000000E+03</pdfrwt>
<pdfrwt beam="2">0</pdfrwt>
<totfact> 0.25954604E+04</totfact>
</mgrwt>
</event>
<event>
 6    1  0.1295671E-001  0.3000000E+03  0.7818608E-02  0.1093470E+00
         21   -1    0    0  501  502  0.00000000000E+00  0.00000000000E+00  0.44009458120E+01  0.44009458120E+01  0.00000000000E+00 0. -1.
         13   -1    0    0    0    0 -0.00000000000E+00 -0.00000000000E+00 -0.10000000000E+04  0.10000000000E+04  0.00000000000E+00 0.  1.
    9000005    2    1    2  501    0  0.91498576529E+01  0.42257127693E+02 -0.87834471054E+03  0.87942908562E+03  0.60581649250E+01 0.  0.
         13    1    3    3    0    0  0.19989410027E+01  0.19864597414E+02 -0.44424139862E+03  0.44468980002E+03  0.00000000000E+00 0.  1.
          1    1    3    3  501    0  0.71509166502E+01  0.22392530279E+02 -0.43410331192E+03  0.43473928560E+03  0.00000000000E+00 0.  1.
         -1    1    1    2    0  502 -0.91498576529E+01 -0.42257127693E+02 -0.11725434365E+03  0.12497186020E+03  0.00000000000E+00 0. -1.
<mgrwt>
<rscale>  1 0.30000000E+03</rscale>
<asrwt>0</asrwt>
<pdfrwt beam="1">  1       21 0.16003473E-01 0.30000000E+03</pdfrwt>
<pdfrwt beam="2">0</pdfrwt>
<totfact> 0.36511870E+03</totfact>
</mgrwt>
</event>
<event>
 6    1  0.1295671E-001  0.3000000E+03  0.7818608E-02  0.1093470E+00
         21   -1    0    0  501  502  0.00000000000E+00  0.00000000000E+00  0.94108729543E+00  0.94108729543E+00  0.00000000000E+00 0. -1.
         13   -1    0    0    0    0 -0.00000000000E+00 -0.00000000000E+00 -0.10000000000E+04  0.10000000000E+04  0.00000000000E+00 0.  1.
    9000005    2    1    2  501    0  0.18792607900E+02 -0.24022532373E+02 -0.53594161339E+03  0.53682054573E+03  0.35554447796E+01 0.  0.
         13    1    3    3    0    0  0.39345209440E+01 -0.30073389207E+01 -0.93269059874E+02  0.93400439358E+02  0.00000000000E+00 0.  1.
          1    1    3    3  501    0  0.14858086956E+02 -0.21015193452E+02 -0.44267255351E+03  0.44342010638E+03  0.00000000000E+00 0.  1.
         -1    1    1    2    0  502 -0.18792607900E+02  0.24022532373E+02 -0.46311729932E+03  0.46412054156E+03  0.00000000000E+00 0. -1.
<mgrwt>
<rscale>  1 0.30000000E+03</rscale>
<asrwt>0</asrwt>
<pdfrwt beam="1">  1       21 0.34221428E-02 0.30000000E+03</pdfrwt>
<pdfrwt beam="2">0</pdfrwt>
<totfact> 0.54634986E+04</totfact>
</mgrwt>
</event>
<event>
 6    1  0.1295671E-001  0.3000000E+03  0.7818608E-02  0.1093470E+00
         21   -1    0    0  501  502  0.00000000000E+00  0.00000000000E+00  0.29818858774E+01  0.29818858774E+01  0.00000000000E+00 0. -1.
         13   -1    0    0    0    0 -0.00000000000E+00 -0.00000000000E+00 -0.10000000000E+04  0.10000000000E+04  0.00000000000E+00 0.  1.
    9000005    2    1    2  501    0  0.22033085765E+02 -0.48309798383E+02 -0.61433755559E+03  0.61663527548E+03  0.30227913813E+01 0.  0.
         13    1    3    3    0    0  0.53116618687E+00 -0.14797021630E+01 -0.24870647601E+02  0.24920288283E+02  0.00000000000E+00 0.  1.
          1    1    3    3  501    0  0.21501919578E+02 -0.46830096220E+02 -0.58946690799E+03  0.59171498720E+03  0.00000000000E+00 0.  1.
         -3    1    1    2    0  502 -0.22033085765E+02  0.48309798383E+02 -0.38268055853E+03  0.38634661040E+03  0.00000000000E+00 0. -1.
<mgrwt>
<rscale>  1 0.30000000E+03</rscale>
<asrwt>0</asrwt>
<pdfrwt beam="1">  1       21 0.10843244E-01 0.30000000E+03</pdfrwt>
<pdfrwt beam="2">0</pdfrwt>
<totfact> 0.74416147E+03</totfact>
</mgrwt>
</event>
<event>
 6    1  0.1295671E-001  0.3000000E+03  0.7818608E-02  0.1093470E+00
         21   -1    0    0  501  502  0.00000000000E+00  0.00000000000E+00  0.15245165289E+01  0.15245165289E+01  0.00000000000E+00 0. -1.
         13   -1    0    0    0    0 -0.00000000000E+00 -0.00000000000E+00 -0.10000000000E+04  0.10000000000E+04  0.00000000000E+00 0.  1.
    9000005    2    1    2  501    0  0.87512752727E+01  0.33048843067E+02 -0.73889073051E+03  0.73969813356E+03  0.50006315998E+01 0.  0.
         13    1    3    3    0    0  0.56239102723E+01  0.25225290776E+02 -0.59487839699E+03  0.59543954426E+03  0.00000000000E+00 0.  1.
          3    1    3    3  501    0  0.31273650004E+01  0.78235522910E+01 -0.14401233351E+03  0.14425858930E+03  0.00000000000E+00 0.  1.
         -3    1    1    2    0  502 -0.87512752727E+01 -0.33048843067E+02 -0.25958475296E+03  0.26182638297E+03  0.00000000000E+00 0. -1.
<mgrwt>
<rscale>  1 0.30000000E+03</rscale>
<asrwt>0</asrwt>
<pdfrwt beam="1">  1       21 0.55437082E-02 0.30000000E+03</pdfrwt>
<pdfrwt beam="2">0</pdfrwt>
<totfact> 0.24144120E+04</totfact>
</mgrwt>
</event>
<event>
 6    1  0.1295671E-001  0.3000000E+03  0.7818608E-02  0.1093470E+00
         21   -1    0    0  501  502  0.00000000000E+00  0.00000000000E+00  0.19094003086E+01  0.19094003086E+01  0.00000000000E+00 0. -1.
         13   -1    0    0    0    0 -0.00000000000E+00 -0.00000000000E+00 -0.10000000000E+04  0.10000000000E+04  0.00000000000E+00 0.  1.
    9000005    2    1    2  501    0  0.34183183940E+02 -0.91029699773E+01 -0.79231754016E+03  0.79311786275E+03  0.41839745751E+01 0.  0.
         13    1    3    3    0    0  0.46789157682E+01 -0.23422101121E+01 -0.95546750262E+02  0.95689914237E+02  0.00000000000E+00 0.  1.
          3    1    3    3  501    0  0.29504268172E+02 -0.67607598652E+01 -0.69677078990E+03  0.69742794851E+03  0.00000000000E+00 0.  1.
         -1    1    1    2    0  502 -0.34183183940E+02  0.91029699773E+01 -0.20577305953E+03  0.20879153756E+03  0.00000000000E+00 0. -1.
<mgrwt>
<rscale>  1 0.30000000E+03</rscale>
<asrwt>0</asrwt>
<pdfrwt beam="1">  1       21 0.69432885E-02 0.30000000E+03</pdfrwt>
<pdfrwt beam="2">0</pdfrwt>
<totfact> 0.16365263E+04</totfact>
</mgrwt>
</event>
<event>
 6    1  0.1295671E-001  0.3000000E+03  0.7818608E-02  0.1093470E+00
         21   -1    0    0  501  502  0.00000000000E+00  0.00000000000E+00  0.17122626171E+01  0.17122626171E+01  0.00000000000E+00 0. -1.
         13   -1    0    0    0    0 -0.00000000000E+00 -0.00000000000E+00 -0.10000000000E+04  0.10000000000E+04  0.00000000000E+00 0.  1.
    9000005    2    1    2  501    0 -0.13587510595E+02  0.38907008545E+02 -0.48561211527E+03  0.48738292331E+03  0.49610164325E+01 0.  0.
         13    1    3    3    0    0 -0.96645741194E+01  0.31703129361E+02 -0.37089976850E+03  0.37237767210E+03  0.00000000000E+00 0.  1.
          3    1    3    3  501    0 -0.39229364751E+01  0.72038791834E+01 -0.11471234677E+03  0.11500525121E+03  0.00000000000E+00 0.  1.
         -1    1    1    2    0  502  0.13587510595E+02 -0.38907008545E+02 -0.51267562212E+03  0.51432933931E+03  0.00000000000E+00 0. -1.
<mgrwt>
<rscale>  1 0.30000000E+03</rscale>
<asrwt>0</asrwt>
<pdfrwt beam="1">  1       21 0.62264226E-02 0.30000000E+03</pdfrwt>
<pdfrwt beam="2">0</pdfrwt>
<totfact> 0.19766612E+04</totfact>
</mgrwt>
</event>
<event>
 6    1  0.1295671E-001  0.3000000E+03  0.7818608E-02  0.1093470E+00
         21   -1    0    0  501  502  0.00000000000E+00  0.00000000000E+00  0.53601515354E+01  0.53601515354E+01  0.00000000000E+00 0. -1.
         13   -1    0    0    0    0 -0.00000000000E+00 -0.00000000000E+00 -0.10000000000E+04  0.10000000000E+04  0.00000000000E+00 0.  1.
    9000005    2    1    2  501    0  0.16734303257E+02 -0.37670596965E+02 -0.91270729192E+03  0.91364289796E+03  0.31037865946E+01 0.  0.
         13    1    3    3    0    0  0.15190789070E+02 -0.31504301437E+02 -0.77738125202E+03  0.77816765037E+03  0.00000000000E+00 0.  1.
          3    1    3    3  501    0  0.15435141864E+01 -0.61662955279E+01 -0.13532603989E+03  0.13547524759E+03  0.00000000000E+00 0.  1.
         -1    1    1    2    0  502 -0.16734303257E+02  0.37670596965E+02 -0.81932556547E+02  0.91717253576E+02  0.00000000000E+00 0. -1.
<mgrwt>
<rscale>  1 0.30000000E+03</rscale>
<asrwt>0</asrwt>
<pdfrwt beam="1">  1       21 0.19491501E-01 0.30000000E+03</pdfrwt>
<pdfrwt beam="2">0</pdfrwt>
<totfact> 0.25198905E+03</totfact>
</mgrwt>
</event>
<event>
 6    1  0.1295671E-001  0.3000000E+03  0.7818608E-02  0.1093470E+00
         21   -1    0    0  501  502  0.00000000000E+00  0.00000000000E+00  0.98464088391E+01  0.98464088391E+01  0.00000000000E+00 0. -1.
         13   -1    0    0    0    0 -0.00000000000E+00 -0.00000000000E+00 -0.10000000000E+04  0.10000000000E+04  0.00000000000E+00 0.  1.
    9000005    2    1    2  501    0 -0.86897094591E+00  0.44666153354E+02 -0.94591462442E+03  0.94697426442E+03  0.31560114532E+01 0.  0.
         13    1    3    3    0    0  0.60756131662E+00  0.21238807792E+01 -0.42726680898E+02  0.42783749963E+02  0.00000000000E+00 0.  1.
          1    1    3    3  501    0 -0.14765322625E+01  0.42542272575E+02 -0.90318794352E+03  0.90419051446E+03  0.00000000000E+00 0.  1.
         -3    1    1    2    0  502  0.86897094591E+00 -0.44666153354E+02 -0.44238966738E+02  0.62872144420E+02  0.00000000000E+00 0. -1.
<mgrwt>
<rscale>  1 0.30000000E+03</rscale>
<asrwt>0</asrwt>
<pdfrwt beam="1">  1       21 0.35805199E-01 0.30000000E+03</pdfrwt>
<pdfrwt beam="2">0</pdfrwt>
<totfact> 0.75956883E+02</totfact>
</mgrwt>
</event>
<event>
 6    1  0.1295671E-001  0.3000000E+03  0.7818608E-02  0.1093470E+00
         21   -1    0    0  501  502  0.00000000000E+00  0.00000000000E+00  0.16404155023E+02  0.16404155023E+02  0.00000000000E+00 0. -1.
         13   -1    0    0    0    0 -0.00000000000E+00 -0.00000000000E+00 -0.10000000000E+04  0.10000000000E+04  0.00000000000E+00 0.  1.
    9000005    2    1    2  501    0 -0.17842368970E+02  0.46061451609E+02 -0.96067964986E+03  0.96195087731E+03  0.20231800563E+01 0.  0.
         13    1    3    3    0    0 -0.80316229618E+01  0.22226515664E+02 -0.44290657728E+03  0.44353665144E+03  0.00000000000E+00 0.  1.
          3    1    3    3  501    0 -0.98107460078E+01  0.23834935945E+02 -0.51777307257E+03  0.51841422587E+03  0.00000000000E+00 0.  1.
         -3    1    1    2    0  502  0.17842368970E+02 -0.46061451609E+02 -0.22916195122E+02  0.54453277713E+02  0.00000000000E+00 0. -1.
<mgrwt>
<rscale>  1 0.30000000E+03</rscale>
<asrwt>0</asrwt>
<pdfrwt beam="1">  1       21 0.59651599E-01 0.30000000E+03</pdfrwt>
<pdfrwt beam="2">0</pdfrwt>
<totfact> 0.25441883E+02</totfact>
</mgrwt>
</event>
<event>
 6    1  0.1295671E-001  0.3000000E+03  0.7818608E-02  0.1093470E+00
         21   -1    0    0  501  502  0.00000000000E+00  0.00000000000E+00  0.70091858893E+01  0.70091858893E+01  0.00000000000E+00 0. -1.
         13   -1    0    0    0    0 -0.00000000000E+00 -0.00000000000E+00 -0.10000000000E+04  0.10000000000E+04  0.00000000000E+00 0.  1.
    9000005    2    1    2  501    0  0.10703598574E+01 -0.37212375175E+02 -0.94743047308E+03  0.94817338717E+03  0.47290883050E+01 0.  0.
         13    1    3    3    0    0 -0.51414743671E+00 -0.33302681629E+02 -0.83802757734E+03  0.83868918756E+03  0.00000000000E+00 0.  1.
          3    1    3    3  501    0  0.15845072941E+01 -0.39096935462E+01 -0.10940289574E+03  0.10948419960E+03  0.00000000000E+00 0.  1.
         -3    1    1    2    0  502 -0.10703598574E+01  0.37212375175E+02 -0.45560341033E+02  0.58835798724E+02  0.00000000000E+00 0. -1.
<mgrwt>
<rscale>  1 0.30000000E+03</rscale>
<asrwt>0</asrwt>
<pdfrwt beam="1">  1       21 0.25488002E-01 0.30000000E+03</pdfrwt>
<pdfrwt beam="2">0</pdfrwt>
<totfact> 0.15015999E+03</totfact>
</mgrwt>
</event>
<event>
 6    1  0.1295671E-001  0.3000000E+03  0.7818608E-02  0.1093470E+00
         21   -1    0    0  501  502  0.00000000000E+00  0.00000000000E+00  0.62256962535E+01  0.62256962535E+01  0.00000000000E+00 0. -1.
         13   -1    0    0    0    0 -0.00000000000E+00 -0.00000000000E+00 -0.10000000000E+04  0.10000000000E+04  0.00000000000E+00 0.  1.
    9000005    2    1    2  501    0  0.43634141037E+02 -0.52755048421E+01 -0.91466084098E+03  0.91572315924E+03  0.35610569751E+01 0.  0.
         13    1    3    3    0    0  0.20234031969E+02 -0.38808050702E+01 -0.40585643747E+03  0.40637904047E+03  0.00000000000E+00 0.  1.
          3    1    3    3  501    0  0.23400109068E+02 -0.13946997720E+01 -0.50880440351E+03  0.50934411877E+03  0.00000000000E+00 0.  1.
         -3    1    1    2    0  502 -0.43634141037E+02  0.52755048421E+01 -0.79113462766E+02  0.90502537016E+02  0.00000000000E+00 0. -1.
<mgrwt>
<rscale>  1 0.30000000E+03</rscale>
<asrwt>0</asrwt>
<pdfrwt beam="1">  1       21 0.22638943E-01 0.30000000E+03</pdfrwt>
<pdfrwt beam="2">0</pdfrwt>
<totfact> 0.18912493E+03</totfact>
</mgrwt>
</event>
<event>
 6    1  0.1295671E-001  0.3000000E+03  0.7818608E-02  0.1093470E+00
         21   -1    0    0  501  502  0.00000000000E+00  0.00000000000E+00  0.13226284719E+01  0.13226284719E+01  0.00000000000E+00 0. -1.
         13   -1    0    0    0    0 -0.00000000000E+00 -0.00000000000E+00 -0.10000000000E+04  0.10000000000E+04  0.00000000000E+00 0.  1.
    9000005    2    1    2  501    0 -0.10062785614E+02 -0.34736080686E+02 -0.54405065246E+03  0.54525979437E+03  0.30456463821E+01 0.  0.
         13    1    3    3    0    0 -0.62377115588E+01 -0.24537904063E+02 -0.39672447978E+03  0.39753154672E+03  0.00000000000E+00 0.  1.
          1    1    3    3  501    0 -0.38250740548E+01 -0.10198176623E+02 -0.14732617268E+03  0.14772824766E+03  0.00000000000E+00 0.  1.
         -1    1    1    2    0  502  0.10062785614E+02  0.34736080686E+02 -0.45462671907E+03  0.45606283410E+03  0.00000000000E+00 0. -1.
<mgrwt>
<rscale>  1 0.30000000E+03</rscale>
<asrwt>0</asrwt>
<pdfrwt beam="1">  1       21 0.48095682E-02 0.30000000E+03</pdfrwt>
<pdfrwt beam="2">0</pdfrwt>
<totfact> 0.30774081E+04</totfact>
</mgrwt>
</event>
<event>
 6    1  0.1295671E-001  0.3000000E+03  0.7818608E-02  0.1093470E+00
         21   -1    0    0  501  502  0.00000000000E+00  0.00000000000E+00  0.21006757344E+01  0.21006757344E+01  0.00000000000E+00 0. -1.
         13   -1    0    0    0    0 -0.00000000000E+00 -0.00000000000E+00 -0.10000000000E+04  0.10000000000E+04  0.00000000000E+00 0.  1.
    9000005    2    1    2  501    0  0.23512375912E+02  0.39060678505E+02 -0.54193583725E+03  0.54386354289E+03  0.38122385042E+01 0.  0.
         13    1    3    3    0    0  0.13217426024E+02  0.18270189664E+02 -0.26563109996E+03  0.26658653651E+03  0.00000000000E+00 0.  1.
          1    1    3    3  501    0  0.10294949888E+02  0.20790488840E+02 -0.27630473729E+03  0.27727700638E+03  0.00000000000E+00 0.  1.
         -1    1    1    2    0  502 -0.23512375912E+02 -0.39060678505E+02 -0.45596348702E+03  0.45823713285E+03  0.00000000000E+00 0. -1.
<mgrwt>
<rscale>  1 0.30000000E+03</rscale>
<asrwt>0</asrwt>
<pdfrwt beam="1">  1       21 0.76388370E-02 0.30000000E+03</pdfrwt>
<pdfrwt beam="2">0</pdfrwt>
<totfact> 0.13852195E+04</totfact>
</mgrwt>
</event>
<event>
 6    1  0.1295671E-001  0.3000000E+03  0.7818608E-02  0.1093470E+00
         21   -1    0    0  501  502  0.00000000000E+00  0.00000000000E+00  0.34402674842E+01  0.34402674842E+01  0.00000000000E+00 0. -1.
         13   -1    0    0    0    0 -0.00000000000E+00 -0.00000000000E+00 -0.10000000000E+04  0.10000000000E+04  0.00000000000E+00 0.  1.
    9000005    2    1    2  501    0  0.29287231317E+02 -0.45931998615E+02 -0.68350989571E+03  0.68568613181E+03  0.34933373075E+01 0.  0.
         13    1    3    3    0    0  0.41059638659E+01 -0.45760839035E+01 -0.82975709942E+02  0.83203172557E+02  0.00000000000E+00 0.  1.
          3    1    3    3  501    0  0.25181267451E+02 -0.41355914711E+02 -0.60053418577E+03  0.60248295926E+03  0.00000000000E+00 0.  1.
         -1    1    1    2    0  502 -0.29287231317E+02  0.45931998615E+02 -0.31304983680E+03  0.31775413567E+03  0.00000000000E+00 0. -1.
<mgrwt>
<rscale>  1 0.30000000E+03</rscale>
<asrwt>0</asrwt>
<pdfrwt beam="1">  1       21 0.12510090E-01 0.30000000E+03</pdfrwt>
<pdfrwt beam="2">0</pdfrwt>
<totfact> 0.57452445E+03</totfact>
</mgrwt>
</event>
<event>
 6    1  0.1295671E-001  0.3000000E+03  0.7818608E-02  0.1093470E+00
         21   -1    0    0  501  502  0.00000000000E+00  0.00000000000E+00  0.20111575690E+01  0.20111575690E+01  0.00000000000E+00 0. -1.
         13   -1    0    0    0    0 -0.00000000000E+00 -0.00000000000E+00 -0.10000000000E+04  0.10000000000E+04  0.00000000000E+00 0.  1.
    9000005    2    1    2  501    0  0.25891319592E+02  0.16785151727E+02 -0.86230453832E+03  0.86286256027E+03  0.32525922843E+01 0.  0.
         13    1    3    3    0    0  0.26225968211E+01  0.13412118357E+01 -0.60274225728E+02  0.60346161024E+02  0.00000000000E+00 0.  1.
          3    1    3    3  501    0  0.23268722771E+02  0.15443939891E+02 -0.80203031259E+03  0.80251639925E+03  0.00000000000E+00 0.  1.
         -3    1    1    2    0  502 -0.25891319592E+02 -0.16785151727E+02 -0.13568430411E+03  0.13914859730E+03  0.00000000000E+00 0. -1.
<mgrwt>
<rscale>  1 0.30000000E+03</rscale>
<asrwt>0</asrwt>
<pdfrwt beam="1">  1       21 0.73133157E-02 0.30000000E+03</pdfrwt>
<pdfrwt beam="2">0</pdfrwt>
<totfact> 0.14949264E+04</totfact>
</mgrwt>
</event>
<event>
 6    1  0.1295671E-001  0.3000000E+03  0.7818608E-02  0.1093470E+00
         21   -1    0    0  501  502  0.00000000000E+00  0.00000000000E+00  0.23682606266E+01  0.23682606266E+01  0.00000000000E+00 0. -1.
         13   -1    0    0    0    0 -0.00000000000E+00 -0.00000000000E+00 -0.10000000000E+04  0.10000000000E+04  0.00000000000E+00 0.  1.
    9000005    2    1    2  501    0  0.18588737706E+02 -0.23577658337E+02 -0.89297106151E+03  0.89348619308E+03  0.43374405347E+01 0.  0.
         13    1    3    3    0    0  0.12424305265E+01 -0.24237331614E+01 -0.12076439792E+03  0.12079510719E+03  0.00000000000E+00 0.  1.
          3    1    3    3  501    0  0.17346307180E+02 -0.21153925176E+02 -0.77220666359E+03  0.77269108589E+03  0.00000000000E+00 0.  1.
         -1    1    1    2    0  502 -0.18588737706E+02  0.23577658337E+02 -0.10466067787E+03  0.10888206755E+03  0.00000000000E+00 0. -1.
<mgrwt>
<rscale>  1 0.30000000E+03</rscale>
<asrwt>0</asrwt>
<pdfrwt beam="1">  1       21 0.86118750E-02 0.30000000E+03</pdfrwt>
<pdfrwt beam="2">0</pdfrwt>
<totfact> 0.11219433E+04</totfact>
</mgrwt>
</event>
<event>
 6    1  0.1295671E-001  0.3000000E+03  0.7818608E-02  0.1093470E+00
         21   -1    0    0  501  502  0.00000000000E+00  0.00000000000E+00  0.39385630778E+01  0.39385630778E+01  0.00000000000E+00 0. -1.
         13   -1    0    0    0    0 -0.00000000000E+00 -0.00000000000E+00 -0.10000000000E+04  0.10000000000E+04  0.00000000000E+00 0.  1.
    9000005    2    1    2  501    0 -0.21256902451E+02 -0.39734882416E+02 -0.84725923704E+03  0.84846248301E+03  0.31070162043E+01 0.  0.
         13    1    3    3    0    0 -0.13699387719E+02 -0.24691710338E+02 -0.55737900100E+03  0.55809381338E+03  0.00000000000E+00 0.  1.
          1    1    3    3  501    0 -0.75575147318E+01 -0.15043172077E+02 -0.28988023604E+03  0.29036866963E+03  0.00000000000E+00 0.  1.
         -3    1    1    2    0  502  0.21256902451E+02  0.39734882416E+02 -0.14880219989E+03  0.15547608007E+03  0.00000000000E+00 0. -1.
<mgrwt>
<rscale>  1 0.30000000E+03</rscale>
<asrwt>0</asrwt>
<pdfrwt beam="1">  1       21 0.14322078E-01 0.30000000E+03</pdfrwt>
<pdfrwt beam="2">0</pdfrwt>
<totfact> 0.44850591E+03</totfact>
</mgrwt>
</event>
<event>
 6    1  0.1295671E-001  0.3000000E+03  0.7818608E-02  0.1093470E+00
         21   -1    0    0  501  502  0.00000000000E+00  0.00000000000E+00  0.11970485610E+01  0.11970485610E+01  0.00000000000E+00 0. -1.
         13   -1    0    0    0    0 -0.00000000000E+00 -0.00000000000E+00 -0.10000000000E+04  0.10000000000E+04  0.00000000000E+00 0.  1.
    9000005    2    1    2  501    0 -0.26126188433E+02 -0.20188270787E+02 -0.64401523503E+03  0.64487631143E+03  0.44373511538E+01 0.  0.
         13    1    3    3    0    0 -0.80431501350E+01 -0.86310655519E+01 -0.21094084456E+03  0.21127050778E+03  0.00000000000E+00 0.  1.
          3    1    3    3  501    0 -0.18083038298E+02 -0.11557205235E+02 -0.43307439047E+03  0.43360580364E+03  0.00000000000E+00 0.  1.
         -1    1    1    2    0  502  0.26126188433E+02  0.20188270787E+02 -0.35478771641E+03  0.35632073714E+03  0.00000000000E+00 0. -1.
<mgrwt>
<rscale>  1 0.30000000E+03</rscale>
<asrwt>0</asrwt>
<pdfrwt beam="1">  1       21 0.43529130E-02 0.30000000E+03</pdfrwt>
<pdfrwt beam="2">0</pdfrwt>
<totfact> 0.36454544E+04</totfact>
</mgrwt>
</event>
<event>
 6    1  0.1295671E-001  0.3000000E+03  0.7818608E-02  0.1093470E+00
         21   -1    0    0  501  502  0.00000000000E+00  0.00000000000E+00  0.13698466955E+01  0.13698466955E+01  0.00000000000E+00 0. -1.
         13   -1    0    0    0    0 -0.00000000000E+00 -0.00000000000E+00 -0.10000000000E+04  0.10000000000E+04  0.00000000000E+00 0.  1.
    9000005    2    1    2  501    0  0.22403306972E+02 -0.29189788831E+02 -0.45524365674E+03  0.45673892893E+03  0.31161297645E+01 0.  0.
         13    1    3    3    0    0  0.98568799964E+01 -0.11552613758E+02 -0.20421511817E+03  0.20477899174E+03  0.00000000000E+00 0.  1.
          1    1    3    3  501    0  0.12546426976E+02 -0.17637175073E+02 -0.25102853857E+03  0.25195993719E+03  0.00000000000E+00 0.  1.
         -3    1    1    2    0  502 -0.22403306972E+02  0.29189788831E+02 -0.54338649657E+03  0.54463091777E+03  0.00000000000E+00 0. -1.
<mgrwt>
<rscale>  1 0.30000000E+03</rscale>
<asrwt>0</asrwt>
<pdfrwt beam="1">  1       21 0.49812712E-02 0.30000000E+03</pdfrwt>
<pdfrwt beam="2">0</pdfrwt>
<totfact> 0.28989506E+04</totfact>
</mgrwt>
</event>
<event>
 6    1  0.1295671E-001  0.3000000E+03  0.7818608E-02  0.1093470E+00
         21   -1    0    0  501  502  0.00000000000E+00  0.00000000000E+00  0.36635461139E+01  0.36635461139E+01  0.00000000000E+00 0. -1.
         13   -1    0    0    0    0 -0.00000000000E+00 -0.00000000000E+00 -0.10000000000E+04  0.10000000000E+04  0.00000000000E+00 0.  1.
    9000005    2    1    2  501    0 -0.32723381094E+02  0.31116326441E+02 -0.83209037546E+03  0.83332324049E+03  0.37662671142E+01 0.  0.
         13    1    3    3    0    0 -0.17713677699E+02  0.17623326808E+02 -0.42718468830E+03  0.42791484427E+03  0.00000000000E+00 0.  1.
          1    1    3    3  501    0 -0.15009703395E+02  0.13492999632E+02 -0.40490568716E+03  0.40540839622E+03  0.00000000000E+00 0.  1.
         -3    1    1    2    0  502  0.32723381094E+02 -0.31116326441E+02 -0.16424607843E+03  0.17034030562E+03  0.00000000000E+00 0. -1.
<mgrwt>
<rscale>  1 0.30000000E+03</rscale>
<asrwt>0</asrwt>
<pdfrwt beam="1">  1       21 0.13322014E-01 0.30000000E+03</pdfrwt>
<pdfrwt beam="2">0</pdfrwt>
<totfact> 0.51222402E+03</totfact>
</mgrwt>
</event>
<event>
 6    1  0.1295671E-001  0.3000000E+03  0.7818608E-02  0.1093470E+00
         21   -1    0    0  501  502  0.00000000000E+00  0.00000000000E+00  0.42322469151E+02  0.42322469151E+02  0.00000000000E+00 0. -1.
         13   -1    0    0    0    0 -0.00000000000E+00 -0.00000000000E+00 -0.10000000000E+04  0.10000000000E+04  0.00000000000E+00 0.  1.
    9000005    2    1    2  501    0 -0.53267074193E+02 -0.55407672462E+02 -0.96225713151E+03  0.96532659846E+03  0.30435506099E+01 0.  0.
         13    1    3    3    0    0 -0.26070990485E+02 -0.29304050685E+02 -0.48885621408E+03  0.49042718316E+03  0.00000000000E+00 0.  1.
          1    1    3    3  501    0 -0.27196083708E+02 -0.26103621776E+02 -0.47340091743E+03  0.47489941531E+03  0.00000000000E+00 0.  1.
         -3    1    1    2    0  502  0.53267074193E+02  0.55407672462E+02  0.45796006608E+01  0.76995870688E+02  0.00000000000E+00 0. -1.
<mgrwt>
<rscale>  1 0.30000000E+03</rscale>
<asrwt>0</asrwt>
<pdfrwt beam="1">  1       21 0.15390021E+00 0.30000000E+03</pdfrwt>
<pdfrwt beam="2">0</pdfrwt>
<totfact> 0.22139661E+01</totfact>
</mgrwt>
</event>
<event>
 6    1  0.1295671E-001  0.3000000E+03  0.7818608E-02  0.1093470E+00
         21   -1    0    0  501  502  0.00000000000E+00  0.00000000000E+00  0.31459166352E+01  0.31459166352E+01  0.00000000000E+00 0. -1.
         13   -1    0    0    0    0 -0.00000000000E+00 -0.00000000000E+00 -0.10000000000E+04  0.10000000000E+04  0.00000000000E+00 0.  1.
    9000005    2    1    2  501    0  0.24341727264E+02 -0.36496880410E+02 -0.81063950446E+03  0.81183357682E+03  0.35788696921E+01 0.  0.
         13    1    3    3    0    0  0.15334229065E+02 -0.22610547773E+02 -0.53591794669E+03  0.53661384723E+03  0.00000000000E+00 0.  1.
          1    1    3    3  501    0  0.90074981983E+01 -0.13886332637E+02 -0.27472155777E+03  0.27521972960E+03  0.00000000000E+00 0.  1.
         -1    1    1    2    0  502 -0.24341727264E+02  0.36496880410E+02 -0.18621457891E+03  0.19131233981E+03  0.00000000000E+00 0. -1.
<mgrwt>
<rscale>  1 0.30000000E+03</rscale>
<asrwt>0</asrwt>
<pdfrwt beam="1">  1       21 0.11439721E-01 0.30000000E+03</pdfrwt>
<pdfrwt beam="2">0</pdfrwt>
<totfact> 0.67573904E+03</totfact>
</mgrwt>
</event>
<event>
 6    1  0.1295671E-001  0.3000000E+03  0.7818608E-02  0.1093470E+00
         21   -1    0    0  501  502  0.00000000000E+00  0.00000000000E+00  0.47500957912E+01  0.47500957912E+01  0.00000000000E+00 0. -1.
         13   -1    0    0    0    0 -0.00000000000E+00 -0.00000000000E+00 -0.10000000000E+04  0.10000000000E+04  0.00000000000E+00 0.  1.
    9000005    2    1    2  501    0 -0.12847228442E+02  0.47578414550E+02 -0.84871501480E+03  0.85014986738E+03  0.29772228149E+01 0.  0.
         13    1    3    3    0    0 -0.93052990990E+01  0.31829176840E+02 -0.54947432460E+03  0.55047408521E+03  0.00000000000E+00 0.  1.
          1    1    3    3  501    0 -0.35419293426E+01  0.15749237709E+02 -0.29924069019E+03  0.29967578217E+03  0.00000000000E+00 0.  1.
         -3    1    1    2    0  502  0.12847228442E+02 -0.47578414550E+02 -0.14653488941E+03  0.15460022841E+03  0.00000000000E+00 0. -1.
<mgrwt>
<rscale>  1 0.30000000E+03</rscale>
<asrwt>0</asrwt>
<pdfrwt beam="1">  1       21 0.17273112E-01 0.30000000E+03</pdfrwt>
<pdfrwt beam="2">0</pdfrwt>
<totfact> 0.31655336E+03</totfact>
</mgrwt>
</event>
<event>
 6    1  0.1295671E-001  0.3000000E+03  0.7818608E-02  0.1093470E+00
         21   -1    0    0  501  502  0.00000000000E+00  0.00000000000E+00  0.10396828682E+01  0.10396828682E+01  0.00000000000E+00 0. -1.
         13   -1    0    0    0    0 -0.00000000000E+00 -0.00000000000E+00 -0.10000000000E+04  0.10000000000E+04  0.00000000000E+00 0.  1.
    9000005    2    1    2  501    0 -0.33437536191E+01  0.30436620651E+02 -0.65356049079E+03  0.65428529054E+03  0.32183419287E+01 0.  0.
         13    1    3    3    0    0 -0.30999387266E+01  0.24602299387E+02 -0.55259168791E+03  0.55314777076E+03  0.00000000000E+00 0.  1.
          1    1    3    3  501    0 -0.24381489253E+00  0.58343212639E+01 -0.10096880288E+03  0.10113751977E+03  0.00000000000E+00 0.  1.
         -1    1    1    2    0  502  0.33437536191E+01 -0.30436620651E+02 -0.34539982634E+03  0.34675439233E+03  0.00000000000E+00 0. -1.
<mgrwt>
<rscale>  1 0.30000000E+03</rscale>
<asrwt>0</asrwt>
<pdfrwt beam="1">  1       21 0.37806729E-02 0.30000000E+03</pdfrwt>
<pdfrwt beam="2">0</pdfrwt>
<totfact> 0.46230411E+04</totfact>
</mgrwt>
</event>
<event>
 6    1  0.1295671E-001  0.3000000E+03  0.7818608E-02  0.1093470E+00
         21   -1    0    0  501  502  0.00000000000E+00  0.00000000000E+00  0.63509407166E+01  0.63509407166E+01  0.00000000000E+00 0. -1.
         13   -1    0    0    0    0 -0.00000000000E+00 -0.00000000000E+00 -0.10000000000E+04  0.10000000000E+04  0.00000000000E+00 0.  1.
    9000005    2    1    2  501    0 -0.38853992772E+02 -0.63232352290E+02 -0.67977322881E+03  0.68382032188E+03  0.32598897696E+01 0.  0.
         13    1    3    3    0    0 -0.54966334848E+01 -0.11091932641E+02 -0.10912220434E+03  0.10982212632E+03  0.00000000000E+00 0.  1.
          1    1    3    3  501    0 -0.33357359287E+02 -0.52140419649E+02 -0.57065102447E+03  0.57399819556E+03  0.00000000000E+00 0.  1.
         -3    1    1    2    0  502  0.38853992772E+02  0.63232352290E+02 -0.31387583047E+03  0.32253061883E+03  0.00000000000E+00 0. -1.
<mgrwt>
<rscale>  1 0.30000000E+03</rscale>
<asrwt>0</asrwt>
<pdfrwt beam="1">  1       21 0.23094379E-01 0.30000000E+03</pdfrwt>
<pdfrwt beam="2">0</pdfrwt>
<totfact> 0.18197978E+03</totfact>
</mgrwt>
</event>
<event>
 6    1  0.1295671E-001  0.3000000E+03  0.7818608E-02  0.1093470E+00
         21   -1    0    0  501  502  0.00000000000E+00  0.00000000000E+00  0.13524014274E+01  0.13524014274E+01  0.00000000000E+00 0. -1.
         13   -1    0    0    0    0 -0.00000000000E+00 -0.00000000000E+00 -0.10000000000E+04  0.10000000000E+04  0.00000000000E+00 0.  1.
    9000005    2    1    2  501    0  0.15652721758E+02 -0.30690018819E+02 -0.67258673469E+03  0.67347655311E+03  0.32965065377E+01 0.  0.
         13    1    3    3    0    0  0.11227473499E+02 -0.20715226825E+02 -0.48629378783E+03  0.48686427766E+03  0.00000000000E+00 0.  1.
          3    1    3    3  501    0  0.44252482588E+01 -0.99747919941E+01 -0.18629294687E+03  0.18661227545E+03  0.00000000000E+00 0.  1.
         -1    1    1    2    0  502 -0.15652721758E+02  0.30690018819E+02 -0.32606086388E+03  0.32787584831E+03  0.00000000000E+00 0. -1.
<mgrwt>
<rscale>  1 0.30000000E+03</rscale>
<asrwt>0</asrwt>
<pdfrwt beam="1">  1       21 0.49178337E-02 0.30000000E+03</pdfrwt>
<pdfrwt beam="2">0</pdfrwt>
<totfact> 0.29629565E+04</totfact>
</mgrwt>
</event>
<event>
 6    1  0.1295671E-001  0.3000000E+03  0.7818608E-02  0.1093470E+00
         21   -1    0    0  501  502  0.00000000000E+00  0.00000000000E+00  0.18336994357E+01  0.18336994357E+01  0.00000000000E+00 0. -1.
         13   -1    0    0    0    0 -0.00000000000E+00 -0.00000000000E+00 -0.10000000000E+04  0.10000000000E+04  0.00000000000E+00 0.  1.
    9000005    2    1    2  501    0 -0.28602258029E+02 -0.30522271131E+02 -0.60379401294E+03  0.60524928289E+03  0.31282869890E+01 0.  0.
         13    1    3    3    0    0 -0.38731122677E+01 -0.36381192020E+01 -0.63543295510E+02  0.63765094795E+02  0.00000000000E+00 0.  1.
          3    1    3    3  501    0 -0.24729145762E+02 -0.26884151929E+02 -0.54025071743E+03  0.54148418809E+03  0.00000000000E+00 0.  1.
         -3    1    1    2    0  502  0.28602258029E+02  0.30522271131E+02 -0.39437228763E+03  0.39658441655E+03  0.00000000000E+00 0. -1.
<mgrwt>
<rscale>  1 0.30000000E+03</rscale>
<asrwt>0</asrwt>
<pdfrwt beam="1">  1       21 0.66680120E-02 0.30000000E+03</pdfrwt>
<pdfrwt beam="2">0</pdfrwt>
<totfact> 0.17556304E+04</totfact>
</mgrwt>
</event>
<event>
 6    1  0.1295671E-001  0.3000000E+03  0.7818608E-02  0.1093470E+00
         21   -1    0    0  501  502  0.00000000000E+00  0.00000000000E+00  0.21294955612E+01  0.21294955612E+01  0.00000000000E+00 0. -1.
         13   -1    0    0    0    0 -0.00000000000E+00 -0.00000000000E+00 -0.10000000000E+04  0.10000000000E+04  0.00000000000E+00 0.  1.
    9000005    2    1    2  501    0  0.42069428450E+02 -0.76055140021E+01 -0.68009251757E+03  0.68148868470E+03  0.85623747633E+01 0.  0.
         13    1    3    3    0    0  0.13371491665E+02 -0.60117403497E+01 -0.26137923918E+03  0.26179007714E+03  0.00000000000E+00 0.  1.
          3    1    3    3  501    0  0.28697936785E+02 -0.15937736525E+01 -0.41871327839E+03  0.41969860756E+03  0.00000000000E+00 0.  1.
         -3    1    1    2    0  502 -0.42069428450E+02  0.76055140021E+01 -0.31777798687E+03  0.32064081086E+03  0.00000000000E+00 0. -1.
<mgrwt>
<rscale>  1 0.30000000E+03</rscale>
<asrwt>0</asrwt>
<pdfrwt beam="1">  1       21 0.77436366E-02 0.30000000E+03</pdfrwt>
<pdfrwt beam="2">0</pdfrwt>
<totfact> 0.13525262E+04</totfact>
</mgrwt>
</event>
<event>
 6    1  0.1295671E-001  0.3000000E+03  0.7818608E-02  0.1093470E+00
         21   -1    0    0  501  502  0.00000000000E+00  0.00000000000E+00  0.23062074187E+01  0.23062074187E+01  0.00000000000E+00 0. -1.
         13   -1    0    0    0    0 -0.00000000000E+00 -0.00000000000E+00 -0.10000000000E+04  0.10000000000E+04  0.00000000000E+00 0.  1.
    9000005    2    1    2  501    0 -0.24088971860E+02  0.18416041073E+02 -0.88731810517E+03  0.88784127172E+03  0.30454661241E+01 0.  0.
         13    1    3    3    0    0 -0.10530791924E+02  0.61909231373E+01 -0.36181431356E+03  0.36202047263E+03  0.00000000000E+00 0.  1.
          1    1    3    3  501    0 -0.13558179936E+02  0.12225117936E+02 -0.52550379162E+03  0.52582079909E+03  0.00000000000E+00 0.  1.
         -3    1    1    2    0  502  0.24088971860E+02 -0.18416041073E+02 -0.11037568741E+03  0.11446493570E+03  0.00000000000E+00 0. -1.
<mgrwt>
<rscale>  1 0.30000000E+03</rscale>
<asrwt>0</asrwt>
<pdfrwt beam="1">  1       21 0.83862265E-02 0.30000000E+03</pdfrwt>
<pdfrwt beam="2">0</pdfrwt>
<totfact> 0.11757215E+04</totfact>
</mgrwt>
</event>
<event>
 6    1  0.1295671E-001  0.3000000E+03  0.7818608E-02  0.1093470E+00
         21   -1    0    0  501  502  0.00000000000E+00  0.00000000000E+00  0.17876750509E+01  0.17876750509E+01  0.00000000000E+00 0. -1.
         13   -1    0    0    0    0 -0.00000000000E+00 -0.00000000000E+00 -0.10000000000E+04  0.10000000000E+04  0.00000000000E+00 0.  1.
    9000005    2    1    2  501    0  0.27103643727E+02 -0.30640083419E+02 -0.62349223676E+03  0.62484130392E+03  0.32655123872E+01 0.  0.
         13    1    3    3    0    0  0.39811820892E+01 -0.35585781940E+01 -0.96102514317E+02  0.96250748296E+02  0.00000000000E+00 0.  1.
          1    1    3    3  501    0  0.23122461638E+02 -0.27081505225E+02 -0.52738972245E+03  0.52859055563E+03  0.00000000000E+00 0.  1.
         -3    1    1    2    0  502 -0.27103643727E+02  0.30640083419E+02 -0.37472008819E+03  0.37694637113E+03  0.00000000000E+00 0. -1.
<mgrwt>
<rscale>  1 0.30000000E+03</rscale>
<asrwt>0</asrwt>
<pdfrwt beam="1">  1       21 0.65006503E-02 0.30000000E+03</pdfrwt>
<pdfrwt beam="2">0</pdfrwt>
<totfact> 0.18346867E+04</totfact>
</mgrwt>
</event>
<event>
 6    1  0.1295671E-001  0.3000000E+03  0.7818608E-02  0.1093470E+00
         21   -1    0    0  501  502  0.00000000000E+00  0.00000000000E+00  0.19765484936E+01  0.19765484936E+01  0.00000000000E+00 0. -1.
         13   -1    0    0    0    0 -0.00000000000E+00 -0.00000000000E+00 -0.10000000000E+04  0.10000000000E+04  0.00000000000E+00 0.  1.
    9000005    2    1    2  501    0 -0.20558768052E+02  0.25696305938E+02 -0.83545738228E+03  0.83611308071E+03  0.36170484057E+01 0.  0.
         13    1    3    3    0    0 -0.88453476103E+01  0.10886664878E+02 -0.31173462310E+03  0.31205005189E+03  0.00000000000E+00 0.  1.
          3    1    3    3  501    0 -0.11713420442E+02  0.14809641060E+02 -0.52372275919E+03  0.52406302882E+03  0.00000000000E+00 0.  1.
         -1    1    1    2    0  502  0.20558768052E+02 -0.25696305938E+02 -0.16256606923E+03  0.16586346779E+03  0.00000000000E+00 0. -1.
<mgrwt>
<rscale>  1 0.30000000E+03</rscale>
<asrwt>0</asrwt>
<pdfrwt beam="1">  1       21 0.71874642E-02 0.30000000E+03</pdfrwt>
<pdfrwt beam="2">0</pdfrwt>
<totfact> 0.15409183E+04</totfact>
</mgrwt>
</event>
<event>
 6    1  0.1295671E-001  0.3000000E+03  0.7818608E-02  0.1093470E+00
         21   -1    0    0  501  502  0.00000000000E+00  0.00000000000E+00  0.52683953813E+01  0.52683953813E+01  0.00000000000E+00 0. -1.
         13   -1    0    0    0    0 -0.00000000000E+00 -0.00000000000E+00 -0.10000000000E+04  0.10000000000E+04  0.00000000000E+00 0.  1.
    9000005    2    1    2  501    0 -0.28945381210E+01  0.52101082949E+02 -0.84651250504E+03  0.84813214025E+03  0.46695768687E+01 0.  0.
         13    1    3    3    0    0 -0.32804151295E+01  0.20510862733E+02 -0.34890486718E+03  0.34952262153E+03  0.00000000000E+00 0.  1.
          3    1    3    3  501    0  0.38587700849E+00  0.31590220216E+02 -0.49760763785E+03  0.49860951873E+03  0.00000000000E+00 0.  1.
         -3    1    1    2    0  502  0.28945381210E+01 -0.52101082949E+02 -0.14821909958E+03  0.15713625513E+03  0.00000000000E+00 0. -1.
<mgrwt>
<rscale>  1 0.30000000E+03</rscale>
<asrwt>0</asrwt>
<pdfrwt beam="1">  1       21 0.19157842E-01 0.30000000E+03</pdfrwt>
<pdfrwt beam="2">0</pdfrwt>
<totfact> 0.26039131E+03</totfact>
</mgrwt>
</event>
<event>
 6    1  0.1295671E-001  0.3000000E+03  0.7818608E-02  0.1093470E+00
         21   -1    0    0  501  502  0.00000000000E+00  0.00000000000E+00  0.11934506816E+01  0.11934506816E+01  0.00000000000E+00 0. -1.
         13   -1    0    0    0    0 -0.00000000000E+00 -0.00000000000E+00 -0.10000000000E+04  0.10000000000E+04  0.00000000000E+00 0.  1.
    9000005    2    1    2  501    0 -0.30831241544E+02  0.13659210383E+02 -0.59425760020E+03  0.59524149328E+03  0.57619828302E+01 0.  0.
         13    1    3    3    0    0 -0.14252174181E+02  0.53135705861E+01 -0.31567878886E+03  0.31604502249E+03  0.00000000000E+00 0.  1.
          1    1    3    3  501    0 -0.16579067363E+02  0.83456397972E+01 -0.27857881133E+03  0.27919647079E+03  0.00000000000E+00 0.  1.
         -1    1    1    2    0  502  0.30831241544E+02 -0.13659210383E+02 -0.40454894912E+03  0.40595195740E+03  0.00000000000E+00 0. -1.
<mgrwt>
<rscale>  1 0.30000000E+03</rscale>
<asrwt>0</asrwt>
<pdfrwt beam="1">  1       21 0.43398298E-02 0.30000000E+03</pdfrwt>
<pdfrwt beam="2">0</pdfrwt>
<totfact> 0.36640738E+04</totfact>
</mgrwt>
</event>
<event>
 6    1  0.1295671E-001  0.3000000E+03  0.7818608E-02  0.1093470E+00
         21   -1    0    0  501  502  0.00000000000E+00  0.00000000000E+00  0.46869477915E+02  0.46869477915E+02  0.00000000000E+00 0. -1.
         13   -1    0    0    0    0 -0.00000000000E+00 -0.00000000000E+00 -0.10000000000E+04  0.10000000000E+04  0.00000000000E+00 0.  1.
    9000005    2    1    2  501    0 -0.15140850681E+03  0.53619367025E+02 -0.82749948693E+03  0.84295103969E+03  0.33885085156E+01 0.  0.
         13    1    3    3    0    0 -0.31253408192E+02  0.11667173100E+02 -0.16537301047E+03  0.16870427097E+03  0.00000000000E+00 0.  1.
          3    1    3    3  501    0 -0.12015509862E+03  0.41952193926E+02 -0.66212647646E+03  0.67424676872E+03  0.00000000000E+00 0.  1.
         -1    1    1    2    0  502  0.15140850681E+03 -0.53619367025E+02 -0.12563103516E+03  0.20391843823E+03  0.00000000000E+00 0. -1.
<mgrwt>
<rscale>  1 0.30000000E+03</rscale>
<asrwt>0</asrwt>
<pdfrwt beam="1">  1       21 0.17043482E+00 0.30000000E+03</pdfrwt>
<pdfrwt beam="2">0</pdfrwt>
<totfact> 0.16103577E+01</totfact>
</mgrwt>
</event>
<event>
 6    1  0.1295671E-001  0.3000000E+03  0.7818608E-02  0.1093470E+00
         21   -1    0    0  501  502  0.00000000000E+00  0.00000000000E+00  0.14783550545E+01  0.14783550545E+01  0.00000000000E+00 0. -1.
         13   -1    0    0    0    0 -0.00000000000E+00 -0.00000000000E+00 -0.10000000000E+04  0.10000000000E+04  0.00000000000E+00 0.  1.
    9000005    2    1    2  501    0  0.26420811488E+02  0.19470166509E+02 -0.75912072275E+03  0.75983823378E+03  0.35669504041E+01 0.  0.
         13    1    3    3    0    0  0.54055105226E+01  0.46571510861E+01 -0.13552399694E+03  0.13571168832E+03  0.00000000000E+00 0.  1.
          3    1    3    3  501    0  0.21015300965E+02  0.14813015423E+02 -0.62359672582E+03  0.62412654546E+03  0.00000000000E+00 0.  1.
         -3    1    1    2    0  502 -0.26420811488E+02 -0.19470166509E+02 -0.23940092219E+03  0.24164012127E+03  0.00000000000E+00 0. -1.
<mgrwt>
<rscale>  1 0.30000000E+03</rscale>
<asrwt>0</asrwt>
<pdfrwt beam="1">  1       21 0.53758479E-02 0.30000000E+03</pdfrwt>
<pdfrwt beam="2">0</pdfrwt>
<totfact> 0.25450477E+04</totfact>
</mgrwt>
</event>
<event>
 6    1  0.1295671E-001  0.3000000E+03  0.7818608E-02  0.1093470E+00
         21   -1    0    0  501  502  0.00000000000E+00  0.00000000000E+00  0.22903588182E+01  0.22903588182E+01  0.00000000000E+00 0. -1.
         13   -1    0    0    0    0 -0.00000000000E+00 -0.00000000000E+00 -0.10000000000E+04  0.10000000000E+04  0.00000000000E+00 0.  1.
    9000005    2    1    2  501    0 -0.32920817707E+02 -0.10497510038E+02 -0.84312801964E+03  0.84389384473E+03  0.98987737964E+01 0.  0.
         13    1    3    3    0    0 -0.31568545466E+02 -0.11536713411E+02 -0.82538617213E+03  0.82607021613E+03  0.00000000000E+00 0.  1.
          1    1    3    3  501    0 -0.13522722414E+01  0.10392033725E+01 -0.17741847505E+02  0.17823628608E+02  0.00000000000E+00 0.  1.
         -3    1    1    2    0  502  0.32920817707E+02  0.10497510038E+02 -0.15458162154E+03  0.15839651408E+03  0.00000000000E+00 0. -1.
<mgrwt>
<rscale>  1 0.30000000E+03</rscale>
<asrwt>0</asrwt>
<pdfrwt beam="1">  1       21 0.83285951E-02 0.30000000E+03</pdfrwt>
<pdfrwt beam="2">0</pdfrwt>
<totfact> 0.11900883E+04</totfact>
</mgrwt>
</event>
<event>
 6    1  0.1295671E-001  0.3000000E+03  0.7818608E-02  0.1093470E+00
         21   -1    0    0  501  502  0.00000000000E+00  0.00000000000E+00  0.35139216276E+01  0.35139216276E+01  0.00000000000E+00 0. -1.
         13   -1    0    0    0    0 -0.00000000000E+00 -0.00000000000E+00 -0.10000000000E+04  0.10000000000E+04  0.00000000000E+00 0.  1.
    9000005    2    1    2  501    0  0.40333036614E+02 -0.36210686467E+02 -0.70078209492E+03  0.70288322877E+03  0.33646801085E+01 0.  0.
         13    1    3    3    0    0  0.11283639301E+02 -0.10026126925E+02 -0.21525128368E+03  0.21577988522E+03  0.00000000000E+00 0.  1.
          3    1    3    3  501    0  0.29049397314E+02 -0.26184559543E+02 -0.48553081123E+03  0.48710334355E+03  0.00000000000E+00 0.  1.
         -1    1    1    2    0  502 -0.40333036614E+02  0.36210686467E+02 -0.29570398346E+03  0.30063069286E+03  0.00000000000E+00 0. -1.
<mgrwt>
<rscale>  1 0.30000000E+03</rscale>
<asrwt>0</asrwt>
<pdfrwt beam="1">  1       21 0.12777924E-01 0.30000000E+03</pdfrwt>
<pdfrwt beam="2">0</pdfrwt>
<totfact> 0.55276426E+03</totfact>
</mgrwt>
</event>
<event>
 6    1  0.1295671E-001  0.3000000E+03  0.7818608E-02  0.1093470E+00
         21   -1    0    0  501  502  0.00000000000E+00  0.00000000000E+00  0.19752793590E+01  0.19752793590E+01  0.00000000000E+00 0. -1.
         13   -1    0    0    0    0 -0.00000000000E+00 -0.00000000000E+00 -0.10000000000E+04  0.10000000000E+04  0.00000000000E+00 0.  1.
    9000005    2    1    2  501    0 -0.32910930170E+02 -0.21507033261E+02 -0.73120287821E+03  0.73227252186E+03  0.44401986367E+01 0.  0.
         13    1    3    3    0    0 -0.32968404049E+02 -0.21550686305E+02 -0.72491673102E+03  0.72598596037E+03  0.00000000000E+00 0.  1.
          3    1    3    3  501    0  0.57473878282E-01  0.43653043983E-01 -0.62861471930E+01  0.62865614899E+01  0.00000000000E+00 0.  1.
         -3    1    1    2    0  502  0.32910930170E+02  0.21507033261E+02 -0.26682184243E+03  0.26970275749E+03  0.00000000000E+00 0. -1.
<mgrwt>
<rscale>  1 0.30000000E+03</rscale>
<asrwt>0</asrwt>
<pdfrwt beam="1">  1       21 0.71828492E-02 0.30000000E+03</pdfrwt>
<pdfrwt beam="2">0</pdfrwt>
<totfact> 0.15426456E+04</totfact>
</mgrwt>
</event>
<event>
 6    1  0.1295671E-001  0.3000000E+03  0.7818608E-02  0.1093470E+00
         21   -1    0    0  501  502  0.00000000000E+00  0.00000000000E+00  0.57411630813E+01  0.57411630813E+01  0.00000000000E+00 0. -1.
         13   -1    0    0    0    0 -0.00000000000E+00 -0.00000000000E+00 -0.10000000000E+04  0.10000000000E+04  0.00000000000E+00 0.  1.
    9000005    2    1    2  501    0 -0.21832001323E+02 -0.29867888894E+02 -0.93555493562E+03  0.93635186206E+03  0.11092562762E+02 0.  0.
         13    1    3    3    0    0 -0.88011376820E+00 -0.66723100383E+01 -0.11024936914E+03  0.11045459573E+03  0.00000000000E+00 0.  1.
          3    1    3    3  501    0 -0.20951887555E+02 -0.23195578856E+02 -0.82530556648E+03  0.82589726633E+03  0.00000000000E+00 0.  1.
         -3    1    1    2    0  502  0.21832001323E+02  0.29867888894E+02 -0.58703901299E+02  0.69389301024E+02  0.00000000000E+00 0. -1.
<mgrwt>
<rscale>  1 0.30000000E+03</rscale>
<asrwt>0</asrwt>
<pdfrwt beam="1">  1       21 0.20877001E-01 0.30000000E+03</pdfrwt>
<pdfrwt beam="2">0</pdfrwt>
<totfact> 0.22101642E+03</totfact>
</mgrwt>
</event>
<event>
 6    1  0.1295671E-001  0.3000000E+03  0.7818608E-02  0.1093470E+00
         21   -1    0    0  501  502  0.00000000000E+00  0.00000000000E+00  0.11941362896E+01  0.11941362896E+01  0.00000000000E+00 0. -1.
         13   -1    0    0    0    0 -0.00000000000E+00 -0.00000000000E+00 -0.10000000000E+04  0.10000000000E+04  0.00000000000E+00 0.  1.
    9000005    2    1    2  501    0  0.29008348526E+02  0.18223720300E+02 -0.44354811089E+03  0.44488059131E+03  0.31977461166E+01 0.  0.
         13    1    3    3    0    0  0.12877070303E+02  0.62666358408E+01 -0.18054903333E+03  0.18111610393E+03  0.00000000000E+00 0.  1.
          3    1    3    3  501    0  0.16131278223E+02  0.11957084459E+02 -0.26299907756E+03  0.26376448738E+03  0.00000000000E+00 0.  1.
         -3    1    1    2    0  502 -0.29008348526E+02 -0.18223720300E+02 -0.55525775282E+03  0.55631354498E+03  0.00000000000E+00 0. -1.
<mgrwt>
<rscale>  1 0.30000000E+03</rscale>
<asrwt>0</asrwt>
<pdfrwt beam="1">  1       21 0.43423229E-02 0.30000000E+03</pdfrwt>
<pdfrwt beam="2">0</pdfrwt>
<totfact> 0.36605144E+04</totfact>
</mgrwt>
</event>
<event>
 6    1  0.1295671E-001  0.3000000E+03  0.7818608E-02  0.1093470E+00
         21   -1    0    0  501  502  0.00000000000E+00  0.00000000000E+00  0.48032555338E+01  0.48032555338E+01  0.00000000000E+00 0. -1.
         13   -1    0    0    0    0 -0.00000000000E+00 -0.00000000000E+00 -0.10000000000E+04  0.10000000000E+04  0.00000000000E+00 0.  1.
    9000005    2    1    2  501    0  0.28174551363E+02 -0.16573633905E+02 -0.94047547733E+03  0.94106231295E+03  0.59718252639E+01 0.  0.
         13    1    3    3    0    0  0.26094907013E+01 -0.50901245855E+00 -0.45449011272E+02  0.45526708216E+02  0.00000000000E+00 0.  1.
          1    1    3    3  501    0  0.25565060662E+02 -0.16064621446E+02 -0.89502646606E+03  0.89553560473E+03  0.00000000000E+00 0.  1.
         -3    1    1    2    0  502 -0.28174551363E+02  0.16573633905E+02 -0.54721267133E+02  0.63740942588E+02  0.00000000000E+00 0. -1.
<mgrwt>
<rscale>  1 0.30000000E+03</rscale>
<asrwt>0</asrwt>
<pdfrwt beam="1">  1       21 0.17466421E-01 0.30000000E+03</pdfrwt>
<pdfrwt beam="2">0</pdfrwt>
<totfact> 0.31001055E+03</totfact>
</mgrwt>
</event>
<event>
 6    1  0.1295671E-001  0.3000000E+03  0.7818608E-02  0.1093470E+00
         21   -1    0    0  501  502  0.00000000000E+00  0.00000000000E+00  0.10886236352E+01  0.10886236352E+01  0.00000000000E+00 0. -1.
         13   -1    0    0    0    0 -0.00000000000E+00 -0.00000000000E+00 -0.10000000000E+04  0.10000000000E+04  0.00000000000E+00 0.  1.
    9000005    2    1    2  501    0 -0.30276626068E+02 -0.12952514412E+02 -0.50568590260E+03  0.50676503560E+03  0.28508778619E+01 0.  0.
         13    1    3    3    0    0 -0.16727651522E+02 -0.77449343230E+01 -0.30277056551E+03  0.30333119469E+03  0.00000000000E+00 0.  1.
          3    1    3    3  501    0 -0.13548974546E+02 -0.52075800886E+01 -0.20291533709E+03  0.20343384091E+03  0.00000000000E+00 0.  1.
         -1    1    1    2    0  502  0.30276626068E+02  0.12952514412E+02 -0.49322547377E+03  0.49432358804E+03  0.00000000000E+00 0. -1.
<mgrwt>
<rscale>  1 0.30000000E+03</rscale>
<asrwt>0</asrwt>
<pdfrwt beam="1">  1       21 0.39586397E-02 0.30000000E+03</pdfrwt>
<pdfrwt beam="2">0</pdfrwt>
<totfact> 0.42789590E+04</totfact>
</mgrwt>
</event>
<event>
 6    1  0.1295671E-001  0.3000000E+03  0.7818608E-02  0.1093470E+00
         21   -1    0    0  501  502  0.00000000000E+00  0.00000000000E+00  0.12449986665E+01  0.12449986665E+01  0.00000000000E+00 0. -1.
         13   -1    0    0    0    0 -0.00000000000E+00 -0.00000000000E+00 -0.10000000000E+04  0.10000000000E+04  0.00000000000E+00 0.  1.
    9000005    2    1    2  501    0 -0.13147788732E+02 -0.32582322359E+02 -0.52958995423E+03  0.53076618565E+03  0.35710115651E+01 0.  0.
         13    1    3    3    0    0 -0.13349909447E+02 -0.31734252258E+02 -0.51376456788E+03  0.51491680304E+03  0.00000000000E+00 0.  1.
          3    1    3    3  501    0  0.20212071537E+00 -0.84807010065E+00 -0.15825386353E+02  0.15849382604E+02  0.00000000000E+00 0.  1.
         -1    1    1    2    0  502  0.13147788732E+02  0.32582322359E+02 -0.46916504710E+03  0.47047881302E+03  0.00000000000E+00 0. -1.
<mgrwt>
<rscale>  1 0.30000000E+03</rscale>
<asrwt>0</asrwt>
<pdfrwt beam="1">  1       21 0.45272774E-02 0.30000000E+03</pdfrwt>
<pdfrwt beam="2">0</pdfrwt>
<totfact> 0.34106541E+04</totfact>
</mgrwt>
</event>
<event>
 6    1  0.1295671E-001  0.3000000E+03  0.7818608E-02  0.1093470E+00
         21   -1    0    0  501  502  0.00000000000E+00  0.00000000000E+00  0.10158348317E+01  0.10158348317E+01  0.00000000000E+00 0. -1.
         13   -1    0    0    0    0 -0.00000000000E+00 -0.00000000000E+00 -0.10000000000E+04  0.10000000000E+04  0.00000000000E+00 0.  1.
    9000005    2    1    2  501    0  0.20542494842E+02 -0.21993518365E+02 -0.66026648498E+03  0.66096381555E+03  0.39528895788E+01 0.  0.
         13    1    3    3    0    0  0.16507477992E+02 -0.16197763995E+02 -0.53305416258E+03  0.53355562469E+03  0.00000000000E+00 0.  1.
          1    1    3    3  501    0  0.40350168503E+01 -0.57957543699E+01 -0.12721232240E+03  0.12740819086E+03  0.00000000000E+00 0.  1.
         -3    1    1    2    0  502 -0.20542494842E+02  0.21993518365E+02 -0.33871768019E+03  0.34005201928E+03  0.00000000000E+00 0. -1.
<mgrwt>
<rscale>  1 0.30000000E+03</rscale>
<asrwt>0</asrwt>
<pdfrwt beam="1">  1       21 0.36939526E-02 0.30000000E+03</pdfrwt>
<pdfrwt beam="2">0</pdfrwt>
<totfact> 0.48067225E+04</totfact>
</mgrwt>
</event>
<event>
 6    1  0.1295671E-001  0.3000000E+03  0.7818608E-02  0.1093470E+00
         21   -1    0    0  501  502  0.00000000000E+00  0.00000000000E+00  0.22453570094E+01  0.22453570094E+01  0.00000000000E+00 0. -1.
         13   -1    0    0    0    0 -0.00000000000E+00 -0.00000000000E+00 -0.10000000000E+04  0.10000000000E+04  0.00000000000E+00 0.  1.
    9000005    2    1    2  501    0  0.42877368720E+02  0.16328614727E+02 -0.37668376808E+03  0.37948206002E+03  0.32985359611E+01 0.  0.
         13    1    3    3    0    0  0.24979271508E+02  0.11235122154E+02 -0.22288145772E+03  0.22455809086E+03  0.00000000000E+00 0.  1.
          1    1    3    3  501    0  0.17898097212E+02  0.50934925727E+01 -0.15380231036E+03  0.15492396917E+03  0.00000000000E+00 0.  1.
         -3    1    1    2    0  502 -0.42877368720E+02 -0.16328614727E+02 -0.62107087491E+03  0.62276329698E+03  0.00000000000E+00 0. -1.
<mgrwt>
<rscale>  1 0.30000000E+03</rscale>
<asrwt>0</asrwt>
<pdfrwt beam="1">  1       21 0.81649518E-02 0.30000000E+03</pdfrwt>
<pdfrwt beam="2">0</pdfrwt>
<totfact> 0.12323797E+04</totfact>
</mgrwt>
</event>
<event>
 6    1  0.1295671E-001  0.3000000E+03  0.7818608E-02  0.1093470E+00
         21   -1    0    0  501  502  0.00000000000E+00  0.00000000000E+00  0.13278309635E+01  0.13278309635E+01  0.00000000000E+00 0. -1.
         13   -1    0    0    0    0 -0.00000000000E+00 -0.00000000000E+00 -0.10000000000E+04  0.10000000000E+04  0.00000000000E+00 0.  1.
    9000005    2    1    2  501    0  0.30928882468E+02  0.11281408707E+02 -0.71235213989E+03  0.71312126435E+03  0.35356043274E+01 0.  0.
         13    1    3    3    0    0  0.46585425206E+01  0.29782858623E+01 -0.13101625657E+03  0.13113287799E+03  0.00000000000E+00 0.  1.
          3    1    3    3  501    0  0.26270339948E+02  0.83031228445E+01 -0.58133588333E+03  0.58198838635E+03  0.00000000000E+00 0.  1.
         -1    1    1    2    0  502 -0.30928882468E+02 -0.11281408707E+02 -0.28632002914E+03  0.28820656662E+03  0.00000000000E+00 0. -1.
<mgrwt>
<rscale>  1 0.30000000E+03</rscale>
<asrwt>0</asrwt>
<pdfrwt beam="1">  1       21 0.48284864E-02 0.30000000E+03</pdfrwt>
<pdfrwt beam="2">0</pdfrwt>
<totfact> 0.30569160E+04</totfact>
</mgrwt>
</event>
<event>
 6    1  0.1295671E-001  0.3000000E+03  0.7818608E-02  0.1093470E+00
         21   -1    0    0  501  502  0.00000000000E+00  0.00000000000E+00  0.70324507725E+01  0.70324507725E+01  0.00000000000E+00 0. -1.
         13   -1    0    0    0    0 -0.00000000000E+00 -0.00000000000E+00 -0.10000000000E+04  0.10000000000E+04  0.00000000000E+00 0.  1.
    9000005    2    1    2  501    0 -0.55020072356E+02  0.40115712142E+02 -0.79025831905E+03  0.79319253232E+03  0.31150898198E+01 0.  0.
         13    1    3    3    0    0 -0.15307010923E+02  0.10249321131E+02 -0.20036931823E+03  0.20121435549E+03  0.00000000000E+00 0.  1.
          1    1    3    3  501    0 -0.39713061433E+02  0.29866391012E+02 -0.58988900082E+03  0.59197817683E+03  0.00000000000E+00 0.  1.
         -1    1    1    2    0  502  0.55020072356E+02 -0.40115712142E+02 -0.20270923018E+03  0.21383991845E+03  0.00000000000E+00 0. -1.
<mgrwt>
<rscale>  1 0.30000000E+03</rscale>
<asrwt>0</asrwt>
<pdfrwt beam="1">  1       21 0.25572602E-01 0.30000000E+03</pdfrwt>
<pdfrwt beam="2">0</pdfrwt>
<totfact> 0.14918591E+03</totfact>
</mgrwt>
</event>
<event>
 6    1  0.1295671E-001  0.3000000E+03  0.7818608E-02  0.1093470E+00
         21   -1    0    0  501  502  0.00000000000E+00  0.00000000000E+00  0.12244242695E+01  0.12244242695E+01  0.00000000000E+00 0. -1.
         13   -1    0    0    0    0 -0.00000000000E+00 -0.00000000000E+00 -0.10000000000E+04  0.10000000000E+04  0.00000000000E+00 0.  1.
    9000005    2    1    2  501    0  0.32291400266E+02 -0.76241210702E+01 -0.37819829962E+03  0.37976081522E+03  0.91357093126E+01 0.  0.
         13    1    3    3    0    0  0.24209300995E+02 -0.44406418525E+01 -0.23129382283E+03  0.23259974642E+03  0.00000000000E+00 0.  1.
          1    1    3    3  501    0  0.80820992716E+01 -0.31834792177E+01 -0.14690447679E+03  0.14716106880E+03  0.00000000000E+00 0.  1.
         -3    1    1    2    0  502 -0.32291400266E+02  0.76241210702E+01 -0.62057727611E+03  0.62146360905E+03  0.00000000000E+00 0. -1.
<mgrwt>
<rscale>  1 0.30000000E+03</rscale>
<asrwt>0</asrwt>
<pdfrwt beam="1">  1       21 0.44524613E-02 0.30000000E+03</pdfrwt>
<pdfrwt beam="2">0</pdfrwt>
<totfact> 0.35084548E+04</totfact>
</mgrwt>
</event>
<event>
 6    1  0.1295671E-001  0.3000000E+03  0.7818608E-02  0.1093470E+00
         21   -1    0    0  501  502  0.00000000000E+00  0.00000000000E+00  0.21061235305E+01  0.21061235305E+01  0.00000000000E+00 0. -1.
         13   -1    0    0    0    0 -0.00000000000E+00 -0.00000000000E+00 -0.10000000000E+04  0.10000000000E+04  0.00000000000E+00 0.  1.
    9000005    2    1    2  501    0  0.30721338726E+02 -0.78473604817E+01 -0.86093267572E+03  0.86152251058E+03  0.32530590476E+01 0.  0.
         13    1    3    3    0    0  0.16021401001E+02 -0.37514081466E+01 -0.48953669863E+03  0.48981316608E+03  0.00000000000E+00 0.  1.
          3    1    3    3  501    0  0.14699937725E+02 -0.40959523351E+01 -0.37139597708E+03  0.37170934450E+03  0.00000000000E+00 0.  1.
         -3    1    1    2    0  502 -0.30721338726E+02  0.78473604817E+01 -0.13696120075E+03  0.14058361296E+03  0.00000000000E+00 0. -1.
<mgrwt>
<rscale>  1 0.30000000E+03</rscale>
<asrwt>0</asrwt>
<pdfrwt beam="1">  1       21 0.76586472E-02 0.30000000E+03</pdfrwt>
<pdfrwt beam="2">0</pdfrwt>
<totfact> 0.13789466E+04</totfact>
</mgrwt>
</event>
<event>
 6    1  0.1295671E-001  0.3000000E+03  0.7818608E-02  0.1093470E+00
         21   -1    0    0  501  502  0.00000000000E+00  0.00000000000E+00  0.16038039285E+01  0.16038039285E+01  0.00000000000E+00 0. -1.
         13   -1    0    0    0    0 -0.00000000000E+00 -0.00000000000E+00 -0.10000000000E+04  0.10000000000E+04  0.00000000000E+00 0.  1.
    9000005    2    1    2  501    0 -0.14567764113E+02  0.36365416347E+02 -0.60154489196E+03  0.60282363788E+03  0.23276787465E+01 0.  0.
         13    1    3    3    0    0 -0.44569855820E+01  0.12823224036E+02 -0.19457975396E+03  0.19505276324E+03  0.00000000000E+00 0.  1.
          1    1    3    3  501    0 -0.10110778531E+02  0.23542192312E+02 -0.40696513799E+03  0.40777087464E+03  0.00000000000E+00 0.  1.
         -3    1    1    2    0  502  0.14567764113E+02 -0.36365416347E+02 -0.39685130412E+03  0.39878016605E+03  0.00000000000E+00 0. -1.
<mgrwt>
<rscale>  1 0.30000000E+03</rscale>
<asrwt>0</asrwt>
<pdfrwt beam="1">  1       21 0.58320266E-02 0.30000000E+03</pdfrwt>
<pdfrwt beam="2">0</pdfrwt>
<totfact> 0.22128673E+04</totfact>
</mgrwt>
</event>
<event>
 6    1  0.1295671E-001  0.3000000E+03  0.7818608E-02  0.1093470E+00
         21   -1    0    0  501  502  0.00000000000E+00  0.00000000000E+00  0.15192128354E+01  0.15192128354E+01  0.00000000000E+00 0. -1.
         13   -1    0    0    0    0 -0.00000000000E+00 -0.00000000000E+00 -0.10000000000E+04  0.10000000000E+04  0.00000000000E+00 0.  1.
    9000005    2    1    2  501    0 -0.84575668371E+01 -0.36576725231E+02 -0.63183641608E+03  0.63295784466E+03  0.29981932732E+01 0.  0.
         13    1    3    3    0    0 -0.53898701029E+00 -0.33727336311E+01 -0.73011115920E+02  0.73090963101E+02  0.00000000000E+00 0.  1.
          3    1    3    3  501    0 -0.79185798268E+01 -0.33203991600E+02 -0.55882530016E+03  0.55986688156E+03  0.00000000000E+00 0.  1.
         -3    1    1    2    0  502  0.84575668371E+01  0.36576725231E+02 -0.36664437108E+03  0.36856136818E+03  0.00000000000E+00 0. -1.
<mgrwt>
<rscale>  1 0.30000000E+03</rscale>
<asrwt>0</asrwt>
<pdfrwt beam="1">  1       21 0.55244220E-02 0.30000000E+03</pdfrwt>
<pdfrwt beam="2">0</pdfrwt>
<totfact> 0.24288895E+04</totfact>
</mgrwt>
</event>
<event>
 6    1  0.1295671E-001  0.3000000E+03  0.7818608E-02  0.1093470E+00
         21   -1    0    0  501  502  0.00000000000E+00  0.00000000000E+00  0.15730844825E+02  0.15730844825E+02  0.00000000000E+00 0. -1.
         13   -1    0    0    0    0 -0.00000000000E+00 -0.00000000000E+00 -0.10000000000E+04  0.10000000000E+04  0.00000000000E+00 0.  1.
    9000005    2    1    2  501    0 -0.30900692351E+02  0.24480347412E+02 -0.97425284563E+03  0.97505570925E+03  0.32998069114E+01 0.  0.
         13    1    3    3    0    0 -0.26232005258E+02  0.20759248556E+02 -0.79510113100E+03  0.79580454449E+03  0.00000000000E+00 0.  1.
          1    1    3    3  501    0 -0.46686870929E+01  0.37210988560E+01 -0.17915171462E+03  0.17925116476E+03  0.00000000000E+00 0.  1.
         -3    1    1    2    0  502  0.30900692351E+02 -0.24480347412E+02 -0.10016309547E+02  0.40675135576E+02  0.00000000000E+00 0. -1.
<mgrwt>
<rscale>  1 0.30000000E+03</rscale>
<asrwt>0</asrwt>
<pdfrwt beam="1">  1       21 0.57203193E-01 0.30000000E+03</pdfrwt>
<pdfrwt beam="2">0</pdfrwt>
<totfact> 0.27942158E+02</totfact>
</mgrwt>
</event>
<event>
 6    1  0.1295671E-001  0.3000000E+03  0.7818608E-02  0.1093470E+00
         21   -1    0    0  501  502  0.00000000000E+00  0.00000000000E+00  0.15765059477E+01  0.15765059477E+01  0.00000000000E+00 0. -1.
         13   -1    0    0    0    0 -0.00000000000E+00 -0.00000000000E+00 -0.10000000000E+04  0.10000000000E+04  0.00000000000E+00 0.  1.
    9000005    2    1    2  501    0 -0.30481368173E+02 -0.25292958570E+02 -0.48257077143E+03  0.48420538287E+03  0.33846420584E+01 0.  0.
         13    1    3    3    0    0 -0.21601845387E+02 -0.19812609436E+02 -0.35193004796E+03  0.35314860593E+03  0.00000000000E+00 0.  1.
          1    1    3    3  501    0 -0.88795227858E+01 -0.54803491340E+01 -0.13064072347E+03  0.13105677693E+03  0.00000000000E+00 0.  1.
         -3    1    1    2    0  502  0.30481368173E+02  0.25292958570E+02 -0.51585272263E+03  0.51737112308E+03  0.00000000000E+00 0. -1.
<mgrwt>
<rscale>  1 0.30000000E+03</rscale>
<asrwt>0</asrwt>
<pdfrwt beam="1">  1       21 0.57327610E-02 0.30000000E+03</pdfrwt>
<pdfrwt beam="2">0</pdfrwt>
<totfact> 0.22792479E+04</totfact>
</mgrwt>
</event>
<event>
 6    1  0.1295671E-001  0.3000000E+03  0.7818608E-02  0.1093470E+00
         21   -1    0    0  501  502  0.00000000000E+00  0.00000000000E+00  0.66609911920E+01  0.66609911920E+01  0.00000000000E+00 0. -1.
         13   -1    0    0    0    0 -0.00000000000E+00 -0.00000000000E+00 -0.10000000000E+04  0.10000000000E+04  0.00000000000E+00 0.  1.
    9000005    2    1    2  501    0  0.13917200670E+02 -0.36237840052E+02 -0.93914780306E+03  0.94000098589E+03  0.98177369760E+01 0.  0.
         13    1    3    3    0    0  0.63122516390E+01 -0.28415233864E+02 -0.66874666287E+03  0.66937983921E+03  0.00000000000E+00 0.  1.
          1    1    3    3  501    0  0.76049490306E+01 -0.78226061884E+01 -0.27040114019E+03  0.27062114669E+03  0.00000000000E+00 0.  1.
         -3    1    1    2    0  502 -0.13917200670E+02  0.36237840052E+02 -0.54191205745E+02  0.66660005297E+02  0.00000000000E+00 0. -1.
<mgrwt>
<rscale>  1 0.30000000E+03</rscale>
<asrwt>0</asrwt>
<pdfrwt beam="1">  1       21 0.24221837E-01 0.30000000E+03</pdfrwt>
<pdfrwt beam="2">0</pdfrwt>
<totfact> 0.16589258E+03</totfact>
</mgrwt>
</event>
<event>
 6    1  0.1295671E-001  0.3000000E+03  0.7818608E-02  0.1093470E+00
         21   -1    0    0  501  502  0.00000000000E+00  0.00000000000E+00  0.16366020937E+02  0.16366020937E+02  0.00000000000E+00 0. -1.
         13   -1    0    0    0    0 -0.00000000000E+00 -0.00000000000E+00 -0.10000000000E+04  0.10000000000E+04  0.00000000000E+00 0.  1.
    9000005    2    1    2  501    0  0.11473421945E+03  0.74167879709E+01 -0.71387712177E+03  0.72312940673E+03  0.87546575704E+01 0.  0.
         13    1    3    3    0    0  0.96711853902E+02  0.60144047319E+01 -0.58025525383E+03  0.58829033253E+03  0.00000000000E+00 0.  1.
          1    1    3    3  501    0  0.18022365548E+02  0.14023832390E+01 -0.13362186794E+03  0.13483907420E+03  0.00000000000E+00 0.  1.
         -1    1    1    2    0  502 -0.11473421945E+03 -0.74167879709E+01 -0.26975685729E+03  0.29323661421E+03  0.00000000000E+00 0. -1.
<mgrwt>
<rscale>  1 0.30000000E+03</rscale>
<asrwt>0</asrwt>
<pdfrwt beam="1">  1       21 0.59512929E-01 0.30000000E+03</pdfrwt>
<pdfrwt beam="2">0</pdfrwt>
<totfact> 0.25575162E+02</totfact>
</mgrwt>
</event>
<event>
 6    1  0.1295671E-001  0.3000000E+03  0.7818608E-02  0.1093470E+00
         21   -1    0    0  501  502  0.00000000000E+00  0.00000000000E+00  0.16093330514E+01  0.16093330514E+01  0.00000000000E+00 0. -1.
         13   -1    0    0    0    0 -0.00000000000E+00 -0.00000000000E+00 -0.10000000000E+04  0.10000000000E+04  0.00000000000E+00 0.  1.
    9000005    2    1    2  501    0 -0.40021573825E+02 -0.10254090764E+01 -0.51001291333E+03  0.51159340671E+03  0.34444439608E+01 0.  0.
         13    1    3    3    0    0 -0.26127602938E+02 -0.15184750302E+01 -0.31479469397E+03  0.31588076351E+03  0.00000000000E+00 0.  1.
          1    1    3    3  501    0 -0.13893970887E+02  0.49306595382E+00 -0.19521821936E+03  0.19571264320E+03  0.00000000000E+00 0.  1.
         -3    1    1    2    0  502  0.40021573825E+02  0.10254090764E+01 -0.48837775362E+03  0.49001592634E+03  0.00000000000E+00 0. -1.
<mgrwt>
<rscale>  1 0.30000000E+03</rscale>
<asrwt>0</asrwt>
<pdfrwt beam="1">  1       21 0.58521325E-02 0.30000000E+03</pdfrwt>
<pdfrwt beam="2">0</pdfrwt>
<totfact> 0.21997845E+04</totfact>
</mgrwt>
</event>
<event>
 6    1  0.1295671E-001  0.3000000E+03  0.7818608E-02  0.1093470E+00
         21   -1    0    0  501  502  0.00000000000E+00  0.00000000000E+00  0.29525707452E+01  0.29525707452E+01  0.00000000000E+00 0. -1.
         13   -1    0    0    0    0 -0.00000000000E+00 -0.00000000000E+00 -0.10000000000E+04  0.10000000000E+04  0.00000000000E+00 0.  1.
    9000005    2    1    2  501    0  0.45360898603E+02  0.77227523348E+01 -0.76132152926E+03  0.76277773452E+03  0.10106895893E+02 0.  0.
         13    1    3    3    0    0  0.26307335122E+02  0.94821272929E-01 -0.46827084156E+03  0.46900923864E+03  0.00000000000E+00 0.  1.
          3    1    3    3  501    0  0.19053563481E+02  0.76279310618E+01 -0.29305068770E+03  0.29376849589E+03  0.00000000000E+00 0.  1.
         -1    1    1    2    0  502 -0.45360898603E+02 -0.77227523348E+01 -0.23572589999E+03  0.24017483622E+03  0.00000000000E+00 0. -1.
<mgrwt>
<rscale>  1 0.30000000E+03</rscale>
<asrwt>0</asrwt>
<pdfrwt beam="1">  1       21 0.10736644E-01 0.30000000E+03</pdfrwt>
<pdfrwt beam="2">0</pdfrwt>
<totfact> 0.75748569E+03</totfact>
</mgrwt>
</event>
<event>
 6    1  0.1295671E-001  0.3000000E+03  0.7818608E-02  0.1093470E+00
         21   -1    0    0  501  502  0.00000000000E+00  0.00000000000E+00  0.11167199959E+01  0.11167199959E+01  0.00000000000E+00 0. -1.
         13   -1    0    0    0    0 -0.00000000000E+00 -0.00000000000E+00 -0.10000000000E+04  0.10000000000E+04  0.00000000000E+00 0.  1.
    9000005    2    1    2  501    0  0.30217066529E+02  0.91332499361E+01 -0.64968598629E+03  0.65049550373E+03  0.74854670667E+01 0.  0.
         13    1    3    3    0    0  0.16033000322E+02  0.52782299321E+01 -0.27168433282E+03  0.27220818046E+03  0.00000000000E+00 0.  1.
          1    1    3    3  501    0  0.14184066207E+02  0.38550200040E+01 -0.37800165347E+03  0.37828732326E+03  0.00000000000E+00 0.  1.
         -3    1    1    2    0  502 -0.30217066529E+02 -0.91332499361E+01 -0.34919729371E+03  0.35062121627E+03  0.00000000000E+00 0. -1.
<mgrwt>
<rscale>  1 0.30000000E+03</rscale>
<asrwt>0</asrwt>
<pdfrwt beam="1">  1       21 0.40608085E-02 0.30000000E+03</pdfrwt>
<pdfrwt beam="2">0</pdfrwt>
<totfact> 0.40992028E+04</totfact>
</mgrwt>
</event>
<event>
 6    1  0.1295671E-001  0.3000000E+03  0.7818608E-02  0.1093470E+00
         21   -1    0    0  501  502  0.00000000000E+00  0.00000000000E+00  0.38961618089E+01  0.38961618089E+01  0.00000000000E+00 0. -1.
         13   -1    0    0    0    0 -0.00000000000E+00 -0.00000000000E+00 -0.10000000000E+04  0.10000000000E+04  0.00000000000E+00 0.  1.
    9000005    2    1    2  501    0 -0.94527032353E+01  0.32898743103E+02 -0.91773184809E+03  0.91837511336E+03  0.30696799572E+01 0.  0.
         13    1    3    3    0    0 -0.21902681036E+01  0.99467811057E+01 -0.24065432336E+03  0.24086975543E+03  0.00000000000E+00 0.  1.
          1    1    3    3  501    0 -0.72624351317E+01  0.22951961997E+02 -0.67707752473E+03  0.67750535793E+03  0.00000000000E+00 0.  1.
         -3    1    1    2    0  502  0.94527032353E+01 -0.32898743103E+02 -0.78371990099E+02  0.85521048451E+02  0.00000000000E+00 0. -1.
<mgrwt>
<rscale>  1 0.30000000E+03</rscale>
<asrwt>0</asrwt>
<pdfrwt beam="1">  1       21 0.14167891E-01 0.30000000E+03</pdfrwt>
<pdfrwt beam="2">0</pdfrwt>
<totfact> 0.45753016E+03</totfact>
</mgrwt>
</event>
<event>
 6    1  0.1295671E-001  0.3000000E+03  0.7818608E-02  0.1093470E+00
         21   -1    0    0  501  502  0.00000000000E+00  0.00000000000E+00  0.17865447105E+01  0.17865447105E+01  0.00000000000E+00 0. -1.
         13   -1    0    0    0    0 -0.00000000000E+00 -0.00000000000E+00 -0.10000000000E+04  0.10000000000E+04  0.00000000000E+00 0.  1.
    9000005    2    1    2  501    0 -0.35773905893E+02  0.16894615752E+02 -0.67323846286E+03  0.67441222365E+03  0.40766594797E+01 0.  0.
         13    1    3    3    0    0 -0.11215032032E+01  0.81378796240E+00 -0.14187687949E+02  0.14255192374E+02  0.00000000000E+00 0.  1.
          3    1    3    3  501    0 -0.34652402689E+02  0.16080827789E+02 -0.65905077491E+03  0.66015703128E+03  0.00000000000E+00 0.  1.
         -3    1    1    2    0  502  0.35773905893E+02 -0.16894615752E+02 -0.32497499243E+03  0.32737432106E+03  0.00000000000E+00 0. -1.
<mgrwt>
<rscale>  1 0.30000000E+03</rscale>
<asrwt>0</asrwt>
<pdfrwt beam="1">  1       21 0.64965399E-02 0.30000000E+03</pdfrwt>
<pdfrwt beam="2">0</pdfrwt>
<totfact> 0.18366970E+04</totfact>
</mgrwt>
</event>
<event>
 6    1  0.1295671E-001  0.3000000E+03  0.7818608E-02  0.1093470E+00
         21   -1    0    0  501  502  0.00000000000E+00  0.00000000000E+00  0.10705201164E+01  0.10705201164E+01  0.00000000000E+00 0. -1.
         13   -1    0    0    0    0 -0.00000000000E+00 -0.00000000000E+00 -0.10000000000E+04  0.10000000000E+04  0.00000000000E+00 0.  1.
    9000005    2    1    2  501    0 -0.24874801242E+02 -0.18611048047E+02 -0.65115307658E+03  0.65190930586E+03  0.45041182241E+01 0.  0.
         13    1    3    3    0    0 -0.12994615546E+02 -0.10050278333E+02 -0.29752054467E+03  0.29797372809E+03  0.00000000000E+00 0.  1.
          3    1    3    3  501    0 -0.11880185696E+02 -0.85607697138E+01 -0.35363253191E+03  0.35393557778E+03  0.00000000000E+00 0.  1.
         -3    1    1    2    0  502  0.24874801242E+02  0.18611048047E+02 -0.34777640330E+03  0.34916121425E+03  0.00000000000E+00 0. -1.
<mgrwt>
<rscale>  1 0.30000000E+03</rscale>
<asrwt>0</asrwt>
<pdfrwt beam="1">  1       21 0.38928086E-02 0.30000000E+03</pdfrwt>
<pdfrwt beam="2">0</pdfrwt>
<totfact> 0.44014086E+04</totfact>
</mgrwt>
</event>
<event>
 6    1  0.1295671E-001  0.3000000E+03  0.7818608E-02  0.1093470E+00
         21   -1    0    0  501  502  0.00000000000E+00  0.00000000000E+00  0.36545785775E+01  0.36545785775E+01  0.00000000000E+00 0. -1.
         13   -1    0    0    0    0 -0.00000000000E+00 -0.00000000000E+00 -0.10000000000E+04  0.10000000000E+04  0.00000000000E+00 0.  1.
    9000005    2    1    2  501    0  0.33957975024E+02 -0.12999824909E+02 -0.89888460208E+03  0.89963174060E+03  0.46477210100E+01 0.  0.
         13    1    3    3    0    0  0.99049075506E+01 -0.15956995554E+01 -0.25261332492E+03  0.25281247078E+03  0.00000000000E+00 0.  1.
          1    1    3    3  501    0  0.24053067474E+02 -0.11404125353E+02 -0.64627127716E+03  0.64681926982E+03  0.00000000000E+00 0.  1.
         -1    1    1    2    0  502 -0.33957975024E+02  0.12999824909E+02 -0.97460819340E+02  0.10402283798E+03  0.00000000000E+00 0. -1.
<mgrwt>
<rscale>  1 0.30000000E+03</rscale>
<asrwt>0</asrwt>
<pdfrwt beam="1">  1       21 0.13289405E-01 0.30000000E+03</pdfrwt>
<pdfrwt beam="2">0</pdfrwt>
<totfact> 0.51452561E+03</totfact>
</mgrwt>
</event>
<event>
 6    1  0.1295671E-001  0.3000000E+03  0.7818608E-02  0.1093470E+00
         21   -1    0    0  501  502  0.00000000000E+00  0.00000000000E+00  0.10559720139E+01  0.10559720139E+01  0.00000000000E+00 0. -1.
         13   -1    0    0    0    0 -0.00000000000E+00 -0.00000000000E+00 -0.10000000000E+04  0.10000000000E+04  0.00000000000E+00 0.  1.
    9000005    2    1    2  501    0 -0.45957504764E+01 -0.30425250550E+02 -0.65780569879E+03  0.65853272253E+03  0.31925667576E+01 0.  0.
         13    1    3    3    0    0 -0.48034313125E+01 -0.23632359586E+02 -0.50217299805E+03  0.50275170944E+03  0.00000000000E+00 0.  1.
          1    1    3    3  501    0  0.20768083614E+00 -0.67928909636E+01 -0.15563270074E+03  0.15578101309E+03  0.00000000000E+00 0.  1.
         -3    1    1    2    0  502  0.45957504764E+01  0.30425250550E+02 -0.34113832920E+03  0.34252324949E+03  0.00000000000E+00 0. -1.
<mgrwt>
<rscale>  1 0.30000000E+03</rscale>
<asrwt>0</asrwt>
<pdfrwt beam="1">  1       21 0.38399063E-02 0.30000000E+03</pdfrwt>
<pdfrwt beam="2">0</pdfrwt>
<totfact> 0.45038405E+04</totfact>
</mgrwt>
</event>
<event>
 6    1  0.1295671E-001  0.3000000E+03  0.7818608E-02  0.1093470E+00
         21   -1    0    0  501  502  0.00000000000E+00  0.00000000000E+00  0.94660370277E+00  0.94660370277E+00  0.00000000000E+00 0. -1.
         13   -1    0    0    0    0 -0.00000000000E+00 -0.00000000000E+00 -0.10000000000E+04  0.10000000000E+04  0.00000000000E+00 0.  1.
    9000005    2    1    2  501    0  0.30148940659E+02  0.35495770688E+01 -0.43717725120E+03  0.43825098389E+03  0.42915963186E+01 0.  0.
         13    1    3    3    0    0  0.24316430551E+01  0.56460376553E+00 -0.56036464903E+02  0.56092041006E+02  0.00000000000E+00 0.  1.
          1    1    3    3  501    0  0.27717297604E+02  0.29849733032E+01 -0.38114078629E+03  0.38215894289E+03  0.00000000000E+00 0.  1.
         -1    1    1    2    0  502 -0.30148940659E+02 -0.35495770688E+01 -0.56187614510E+03  0.56269561981E+03  0.00000000000E+00 0. -1.
<mgrwt>
<rscale>  1 0.30000000E+03</rscale>
<asrwt>0</asrwt>
<pdfrwt beam="1">  1       21 0.34422025E-02 0.30000000E+03</pdfrwt>
<pdfrwt beam="2">0</pdfrwt>
<totfact> 0.54103630E+04</totfact>
</mgrwt>
</event>
<event>
 6    1  0.1295671E-001  0.3000000E+03  0.7818608E-02  0.1093470E+00
         21   -1    0    0  501  502  0.00000000000E+00  0.00000000000E+00  0.92622926947E+00  0.92622926947E+00  0.00000000000E+00 0. -1.
         13   -1    0    0    0    0 -0.00000000000E+00 -0.00000000000E+00 -0.10000000000E+04  0.10000000000E+04  0.00000000000E+00 0.  1.
    9000005    2    1    2  501    0  0.28831156674E+02 -0.93194240986E+01 -0.47364346679E+03  0.47462299771E+03  0.32816235039E+01 0.  0.
         13    1    3    3    0    0  0.20149931948E+02 -0.68384060931E+01 -0.35437460678E+03  0.35501288073E+03  0.00000000000E+00 0.  1.
          1    1    3    3  501    0  0.86812247267E+01 -0.24810180054E+01 -0.11926886002E+03  0.11961011698E+03  0.00000000000E+00 0.  1.
         -1    1    1    2    0  502 -0.28831156674E+02  0.93194240986E+01 -0.52543030394E+03  0.52630323156E+03  0.00000000000E+00 0. -1.
<mgrwt>
<rscale>  1 0.30000000E+03</rscale>
<asrwt>0</asrwt>
<pdfrwt beam="1">  1       21 0.33681135E-02 0.30000000E+03</pdfrwt>
<pdfrwt beam="2">0</pdfrwt>
<totfact> 0.56107315E+04</totfact>
</mgrwt>
</event>
<event>
 6    1  0.1295671E-001  0.3000000E+03  0.7818608E-02  0.1093470E+00
         21   -1    0    0  501  502  0.00000000000E+00  0.00000000000E+00  0.26051071880E+01  0.26051071880E+01  0.00000000000E+00 0. -1.
         13   -1    0    0    0    0 -0.00000000000E+00 -0.00000000000E+00 -0.10000000000E+04  0.10000000000E+04  0.00000000000E+00 0.  1.
    9000005    2    1    2  501    0 -0.70692179453E+01 -0.38401547906E+02 -0.82090242265E+03  0.82184492145E+03  0.48615509529E+01 0.  0.
         13    1    3    3    0    0 -0.69150366612E+00 -0.14382206418E+02 -0.32960356157E+03  0.32991791985E+03  0.00000000000E+00 0.  1.
          3    1    3    3  501    0 -0.63777142792E+01 -0.24019341488E+02 -0.49129886109E+03  0.49192700161E+03  0.00000000000E+00 0.  1.
         -3    1    1    2    0  502  0.70692179453E+01  0.38401547906E+02 -0.17649247016E+03  0.18076018573E+03  0.00000000000E+00 0. -1.
<mgrwt>
<rscale>  1 0.30000000E+03</rscale>
<asrwt>0</asrwt>
<pdfrwt beam="1">  1       21 0.94731370E-02 0.30000000E+03</pdfrwt>
<pdfrwt beam="2">0</pdfrwt>
<totfact> 0.94753924E+03</totfact>
</mgrwt>
</event>
<event>
 6    1  0.1295671E-001  0.3000000E+03  0.7818608E-02  0.1093470E+00
         21   -1    0    0  501  502  0.00000000000E+00  0.00000000000E+00  0.15579008135E+01  0.15579008135E+01  0.00000000000E+00 0. -1.
         13   -1    0    0    0    0 -0.00000000000E+00 -0.00000000000E+00 -0.10000000000E+04  0.10000000000E+04  0.00000000000E+00 0.  1.
    9000005    2    1    2  501    0 -0.27355612914E+02  0.23123970211E+02 -0.70830301017E+03  0.70921608285E+03  0.33541612502E+01 0.  0.
         13    1    3    3    0    0 -0.13663926285E+01  0.50637098581E+00 -0.21362176586E+02  0.21411819840E+02  0.00000000000E+00 0.  1.
          1    1    3    3  501    0 -0.25989220285E+02  0.22617599225E+02 -0.68694083358E+03  0.68780426301E+03  0.00000000000E+00 0.  1.
         -3    1    1    2    0  502  0.27355612914E+02 -0.23123970211E+02 -0.29013908902E+03  0.29234181797E+03  0.00000000000E+00 0. -1.
<mgrwt>
<rscale>  1 0.30000000E+03</rscale>
<asrwt>0</asrwt>
<pdfrwt beam="1">  1       21 0.56651058E-02 0.30000000E+03</pdfrwt>
<pdfrwt beam="2">0</pdfrwt>
<totfact> 0.23262533E+04</totfact>
</mgrwt>
</event>
<event>
 6    1  0.1295671E-001  0.3000000E+03  0.7818608E-02  0.1093470E+00
         21   -1    0    0  501  502  0.00000000000E+00  0.00000000000E+00  0.71114122126E+01  0.71114122126E+01  0.00000000000E+00 0. -1.
         13   -1    0    0    0    0 -0.00000000000E+00 -0.00000000000E+00 -0.10000000000E+04  0.10000000000E+04  0.00000000000E+00 0.  1.
    9000005    2    1    2  501    0  0.34274874714E+02 -0.13090468338E+02 -0.94974945059E+03  0.95048003790E+03  0.64927776606E+01 0.  0.
         13    1    3    3    0    0  0.17088524085E+02 -0.43490885405E+01 -0.38962461964E+03  0.39002343065E+03  0.00000000000E+00 0.  1.
          1    1    3    3  501    0  0.17186350629E+02 -0.87413797972E+01 -0.56012483094E+03  0.56045660725E+03  0.00000000000E+00 0.  1.
         -3    1    1    2    0  502 -0.34274874714E+02  0.13090468338E+02 -0.43139137202E+02  0.56631374312E+02  0.00000000000E+00 0. -1.
<mgrwt>
<rscale>  1 0.30000000E+03</rscale>
<asrwt>0</asrwt>
<pdfrwt beam="1">  1       21 0.25859735E-01 0.30000000E+03</pdfrwt>
<pdfrwt beam="2">0</pdfrwt>
<totfact> 0.14594673E+03</totfact>
</mgrwt>
</event>
<event>
 6    1  0.1295671E-001  0.3000000E+03  0.7818608E-02  0.1093470E+00
         21   -1    0    0  501  502  0.00000000000E+00  0.00000000000E+00  0.42261505443E+01  0.42261505443E+01  0.00000000000E+00 0. -1.
         13   -1    0    0    0    0 -0.00000000000E+00 -0.00000000000E+00 -0.10000000000E+04  0.10000000000E+04  0.00000000000E+00 0.  1.
    9000005    2    1    2  501    0 -0.55728368791E+02 -0.26574729793E+02 -0.65444845905E+03  0.65736178298E+03  0.31401934933E+01 0.  0.
         13    1    3    3    0    0 -0.42855969638E+02 -0.19900870190E+02 -0.51358291483E+03  0.51575196478E+03  0.00000000000E+00 0.  1.
          1    1    3    3  501    0 -0.12872399153E+02 -0.66738596034E+01 -0.14086554422E+03  0.14160981820E+03  0.00000000000E+00 0.  1.
         -1    1    1    2    0  502  0.55728368791E+02  0.26574729793E+02 -0.34132539041E+03  0.34686436757E+03  0.00000000000E+00 0. -1.
<mgrwt>
<rscale>  1 0.30000000E+03</rscale>
<asrwt>0</asrwt>
<pdfrwt beam="1">  1       21 0.15367853E-01 0.30000000E+03</pdfrwt>
<pdfrwt beam="2">0</pdfrwt>
<totfact> 0.39371880E+03</totfact>
</mgrwt>
</event>
<event>
 6    1  0.1295671E-001  0.3000000E+03  0.7818608E-02  0.1093470E+00
         21   -1    0    0  501  502  0.00000000000E+00  0.00000000000E+00  0.36806887344E+01  0.36806887344E+01  0.00000000000E+00 0. -1.
         13   -1    0    0    0    0 -0.00000000000E+00 -0.00000000000E+00 -0.10000000000E+04  0.10000000000E+04  0.00000000000E+00 0.  1.
    9000005    2    1    2  501    0  0.13265545945E+02  0.36594607588E+02 -0.11400612756E+03  0.12050930437E+03  0.31552029264E+01 0.  0.
         13    1    3    3    0    0  0.87660258845E+01  0.27265736666E+02 -0.86475326755E+02  0.91094707548E+02  0.00000000000E+00 0.  1.
          1    1    3    3  501    0  0.44995200609E+01  0.93288709220E+01 -0.27530800805E+02  0.29414596826E+02  0.00000000000E+00 0.  1.
         -3    1    1    2    0  502 -0.13265545945E+02 -0.36594607588E+02 -0.88231318370E+03  0.88317138436E+03  0.00000000000E+00 0. -1.
<mgrwt>
<rscale>  1 0.30000000E+03</rscale>
<asrwt>0</asrwt>
<pdfrwt beam="1">  1       21 0.13384351E-01 0.30000000E+03</pdfrwt>
<pdfrwt beam="2">0</pdfrwt>
<totfact> 0.50786709E+03</totfact>
</mgrwt>
</event>
<event>
 6    1  0.1295671E-001  0.3000000E+03  0.7818608E-02  0.1093470E+00
         21   -1    0    0  501  502  0.00000000000E+00  0.00000000000E+00  0.21390891910E+01  0.21390891910E+01  0.00000000000E+00 0. -1.
         13   -1    0    0    0    0 -0.00000000000E+00 -0.00000000000E+00 -0.10000000000E+04  0.10000000000E+04  0.00000000000E+00 0.  1.
    9000005    2    1    2  501    0 -0.45762565444E+02  0.61107081083E+01 -0.51403595092E+03  0.51611630684E+03  0.33956150503E+01 0.  0.
         13    1    3    3    0    0 -0.12017733146E+02  0.18805871096E+01 -0.11964475519E+03  0.12026150656E+03  0.00000000000E+00 0.  1.
          3    1    3    3  501    0 -0.33744832298E+02  0.42301209987E+01 -0.39439119573E+03  0.39585480028E+03  0.00000000000E+00 0.  1.
         -1    1    1    2    0  502  0.45762565444E+02 -0.61107081083E+01 -0.48382495989E+03  0.48602278235E+03  0.00000000000E+00 0. -1.
<mgrwt>
<rscale>  1 0.30000000E+03</rscale>
<asrwt>0</asrwt>
<pdfrwt beam="1">  1       21 0.77785226E-02 0.30000000E+03</pdfrwt>
<pdfrwt beam="2">0</pdfrwt>
<totfact> 0.13419067E+04</totfact>
</mgrwt>
</event>
<event>
 6    1  0.1295671E-001  0.3000000E+03  0.7818608E-02  0.1093470E+00
         21   -1    0    0  501  502  0.00000000000E+00  0.00000000000E+00  0.10696729859E+02  0.10696729859E+02  0.00000000000E+00 0. -1.
         13   -1    0    0    0    0 -0.00000000000E+00 -0.00000000000E+00 -0.10000000000E+04  0.10000000000E+04  0.00000000000E+00 0.  1.
    9000005    2    1    2  501    0  0.20561727860E+02  0.35174029682E+02 -0.95907219827E+03  0.95996296671E+03  0.70298612555E+01 0.  0.
         13    1    3    3    0    0  0.41364201894E+01  0.74625641456E+01 -0.14211002695E+03  0.14236593551E+03  0.00000000000E+00 0.  1.
          1    1    3    3  501    0  0.16425307671E+02  0.27711465536E+02 -0.81696217132E+03  0.81759703120E+03  0.00000000000E+00 0.  1.
         -1    1    1    2    0  502 -0.20561727860E+02 -0.35174029682E+02 -0.30231071875E+02  0.50733763150E+02  0.00000000000E+00 0. -1.
<mgrwt>
<rscale>  1 0.30000000E+03</rscale>
<asrwt>0</asrwt>
<pdfrwt beam="1">  1       21 0.38897282E-01 0.30000000E+03</pdfrwt>
<pdfrwt beam="2">0</pdfrwt>
<totfact> 0.64022505E+02</totfact>
</mgrwt>
</event>
<event>
 6    1  0.1295671E-001  0.3000000E+03  0.7818608E-02  0.1093470E+00
         21   -1    0    0  501  502  0.00000000000E+00  0.00000000000E+00  0.16258487421E+01  0.16258487421E+01  0.00000000000E+00 0. -1.
         13   -1    0    0    0    0 -0.00000000000E+00 -0.00000000000E+00 -0.10000000000E+04  0.10000000000E+04  0.00000000000E+00 0.  1.
    9000005    2    1    2  501    0  0.32912334252E+02  0.15709350185E+02 -0.70608026963E+03  0.70706563645E+03  0.79032687271E+01 0.  0.
         13    1    3    3    0    0  0.32066469421E+01  0.67689427332E+00 -0.11652794781E+03  0.11657402537E+03  0.00000000000E+00 0.  1.
          1    1    3    3  501    0  0.29705687310E+02  0.15032455912E+02 -0.58955232183E+03  0.59049161108E+03  0.00000000000E+00 0.  1.
         -3    1    1    2    0  502 -0.32912334252E+02 -0.15709350185E+02 -0.29229388163E+03  0.29456021229E+03  0.00000000000E+00 0. -1.
<mgrwt>
<rscale>  1 0.30000000E+03</rscale>
<asrwt>0</asrwt>
<pdfrwt beam="1">  1       21 0.59121897E-02 0.30000000E+03</pdfrwt>
<pdfrwt beam="2">0</pdfrwt>
<totfact> 0.21614162E+04</totfact>
</mgrwt>
</event>
<event>
 6    1  0.1295671E-001  0.3000000E+03  0.7818608E-02  0.1093470E+00
         21   -1    0    0  501  502  0.00000000000E+00  0.00000000000E+00  0.11682296916E+01  0.11682296916E+01  0.00000000000E+00 0. -1.
         13   -1    0    0    0    0 -0.00000000000E+00 -0.00000000000E+00 -0.10000000000E+04  0.10000000000E+04  0.00000000000E+00 0.  1.
    9000005    2    1    2  501    0 -0.31696343457E+02 -0.52268369739E+01 -0.66815109441E+03  0.66893083350E+03  0.32553090743E+01 0.  0.
         13    1    3    3    0    0 -0.12383575492E+02 -0.50945964009E+00 -0.24696237443E+03  0.24727318269E+03  0.00000000000E+00 0.  1.
          1    1    3    3  501    0 -0.19312767965E+02 -0.47173773338E+01 -0.42118871998E+03  0.42165765081E+03  0.00000000000E+00 0.  1.
         -1    1    1    2    0  502  0.31696343457E+02  0.52268369739E+01 -0.33068067590E+03  0.33223739619E+03  0.00000000000E+00 0. -1.
<mgrwt>
<rscale>  1 0.30000000E+03</rscale>
<asrwt>0</asrwt>
<pdfrwt beam="1">  1       21 0.42481169E-02 0.30000000E+03</pdfrwt>
<pdfrwt beam="2">0</pdfrwt>
<totfact> 0.37988384E+04</totfact>
</mgrwt>
</event>
<event>
 6    1  0.1295671E-001  0.3000000E+03  0.7818608E-02  0.1093470E+00
         21   -1    0    0  501  502  0.00000000000E+00  0.00000000000E+00  0.10596584410E+01  0.10596584410E+01  0.00000000000E+00 0. -1.
         13   -1    0    0    0    0 -0.00000000000E+00 -0.00000000000E+00 -0.10000000000E+04  0.10000000000E+04  0.00000000000E+00 0.  1.
    9000005    2    1    2  501    0 -0.31703362787E+02  0.55444573552E+01 -0.44256960953E+03  0.44375880999E+03  0.42635607054E+01 0.  0.
         13    1    3    3    0    0 -0.27872883868E+02  0.37091069886E+01 -0.39526275529E+03  0.39626165705E+03  0.00000000000E+00 0.  1.
          1    1    3    3  501    0 -0.38304789194E+01  0.18353503666E+01 -0.47306854236E+02  0.47497152940E+02  0.00000000000E+00 0.  1.
         -3    1    1    2    0  502  0.31703362787E+02 -0.55444573552E+01 -0.55637073203E+03  0.55730084845E+03  0.00000000000E+00 0. -1.
<mgrwt>
<rscale>  1 0.30000000E+03</rscale>
<asrwt>0</asrwt>
<pdfrwt beam="1">  1       21 0.38533115E-02 0.30000000E+03</pdfrwt>
<pdfrwt beam="2">0</pdfrwt>
<totfact> 0.44775335E+04</totfact>
</mgrwt>
</event>
<event>
 6    1  0.1295671E-001  0.3000000E+03  0.7818608E-02  0.1093470E+00
         21   -1    0    0  501  502  0.00000000000E+00  0.00000000000E+00  0.13016997303E+01  0.13016997303E+01  0.00000000000E+00 0. -1.
         13   -1    0    0    0    0 -0.00000000000E+00 -0.00000000000E+00 -0.10000000000E+04  0.10000000000E+04  0.00000000000E+00 0.  1.
    9000005    2    1    2  501    0  0.30067225811E+02  0.17780154595E+02 -0.62167150889E+03  0.62266021576E+03  0.31792072724E+01 0.  0.
         13    1    3    3    0    0  0.13677767238E+02  0.98387389352E+01 -0.28983325446E+03  0.29032257489E+03  0.00000000000E+00 0.  1.
          3    1    3    3  501    0  0.16389458573E+02  0.79414156594E+01 -0.33183825443E+03  0.33233764087E+03  0.00000000000E+00 0.  1.
         -1    1    1    2    0  502 -0.30067225811E+02 -0.17780154595E+02 -0.37702679138E+03  0.37864148397E+03  0.00000000000E+00 0. -1.
<mgrwt>
<rscale>  1 0.30000000E+03</rscale>
<asrwt>0</asrwt>
<pdfrwt beam="1">  1       21 0.47334635E-02 0.30000000E+03</pdfrwt>
<pdfrwt beam="2">0</pdfrwt>
<totfact> 0.31620548E+04</totfact>
</mgrwt>
</event>
<event>
 6    1  0.1295671E-001  0.3000000E+03  0.7818608E-02  0.1093470E+00
         21   -1    0    0  501  502  0.00000000000E+00  0.00000000000E+00  0.12605472123E+01  0.12605472123E+01  0.00000000000E+00 0. -1.
         13   -1    0    0    0    0 -0.00000000000E+00 -0.00000000000E+00 -0.10000000000E+04  0.10000000000E+04  0.00000000000E+00 0.  1.
    9000005    2    1    2  501    0  0.21555261628E+02  0.26538612151E+02 -0.63054211010E+03  0.63147924644E+03  0.37092905017E+01 0.  0.
         13    1    3    3    0    0  0.64083370131E+01  0.76100474900E+01 -0.21579052600E+03  0.21601974613E+03  0.00000000000E+00 0.  1.
          3    1    3    3  501    0  0.15146924615E+02  0.18928564661E+02 -0.41475158410E+03  0.41545950031E+03  0.00000000000E+00 0.  1.
         -3    1    1    2    0  502 -0.21555261628E+02 -0.26538612151E+02 -0.36819734269E+03  0.36978130078E+03  0.00000000000E+00 0. -1.
<mgrwt>
<rscale>  1 0.30000000E+03</rscale>
<asrwt>0</asrwt>
<pdfrwt beam="1">  1       21 0.45838177E-02 0.30000000E+03</pdfrwt>
<pdfrwt beam="2">0</pdfrwt>
<totfact> 0.33395122E+04</totfact>
</mgrwt>
</event>
<event>
 6    1  0.1295671E-001  0.3000000E+03  0.7818608E-02  0.1093470E+00
         21   -1    0    0  501  502  0.00000000000E+00  0.00000000000E+00  0.11117712632E+01  0.11117712632E+01  0.00000000000E+00 0. -1.
         13   -1    0    0    0    0 -0.00000000000E+00 -0.00000000000E+00 -0.10000000000E+04  0.10000000000E+04  0.00000000000E+00 0.  1.
    9000005    2    1    2  501    0 -0.22315112643E+02 -0.23023681787E+02 -0.63139552483E+03  0.63222297827E+03  0.41870389334E+01 0.  0.
         13    1    3    3    0    0 -0.12742064362E+02 -0.10740210175E+02 -0.35084144591E+03  0.35123700330E+03  0.00000000000E+00 0.  1.
          1    1    3    3  501    0 -0.95730482813E+01 -0.12283471612E+02 -0.28055407893E+03  0.28098597497E+03  0.00000000000E+00 0.  1.
         -3    1    1    2    0  502  0.22315112643E+02  0.23023681787E+02 -0.36749270390E+03  0.36888879300E+03  0.00000000000E+00 0. -1.
<mgrwt>
<rscale>  1 0.30000000E+03</rscale>
<asrwt>0</asrwt>
<pdfrwt beam="1">  1       21 0.40428131E-02 0.30000000E+03</pdfrwt>
<pdfrwt beam="2">0</pdfrwt>
<totfact> 0.41299978E+04</totfact>
</mgrwt>
</event>
<event>
 6    1  0.1295671E-001  0.3000000E+03  0.7818608E-02  0.1093470E+00
         21   -1    0    0  501  502  0.00000000000E+00  0.00000000000E+00  0.96520697460E+00  0.96520697460E+00  0.00000000000E+00 0. -1.
         13   -1    0    0    0    0 -0.00000000000E+00 -0.00000000000E+00 -0.10000000000E+04  0.10000000000E+04  0.00000000000E+00 0.  1.
    9000005    2    1    2  501    0 -0.29305091348E+02 -0.75733607395E+01 -0.60827407455E+03  0.60903398434E+03  0.29833103304E+01 0.  0.
         13    1    3    3    0    0 -0.35466829465E+01 -0.18189359366E+00 -0.85032865162E+02  0.85106992679E+02  0.00000000000E+00 0.  1.
          1    1    3    3  501    0 -0.25758408402E+02 -0.73914671459E+01 -0.52324120939E+03  0.52392699166E+03  0.00000000000E+00 0.  1.
         -3    1    1    2    0  502  0.29305091348E+02  0.75733607395E+01 -0.39076071847E+03  0.39193122263E+03  0.00000000000E+00 0. -1.
<mgrwt>
<rscale>  1 0.30000000E+03</rscale>
<asrwt>0</asrwt>
<pdfrwt beam="1">  1       21 0.35098509E-02 0.30000000E+03</pdfrwt>
<pdfrwt beam="2">0</pdfrwt>
<totfact> 0.52369735E+04</totfact>
</mgrwt>
</event>
<event>
 6    1  0.1295671E-001  0.3000000E+03  0.7818608E-02  0.1093470E+00
         21   -1    0    0  501  502  0.00000000000E+00  0.00000000000E+00  0.96942052221E+00  0.96942052221E+00  0.00000000000E+00 0. -1.
         13   -1    0    0    0    0 -0.00000000000E+00 -0.00000000000E+00 -0.10000000000E+04  0.10000000000E+04  0.00000000000E+00 0.  1.
    9000005    2    1    2  501    0  0.24034894161E+02 -0.19640587469E+02 -0.49167287493E+03  0.49266314555E+03  0.33660401825E+01 0.  0.
         13    1    3    3    0    0  0.20855046258E+02 -0.16707312295E+02 -0.43924559116E+03  0.44005767416E+03  0.00000000000E+00 0.  1.
          1    1    3    3  501    0  0.31798479029E+01 -0.29332751746E+01 -0.52427283774E+02  0.52605471387E+02  0.00000000000E+00 0.  1.
         -3    1    1    2    0  502 -0.24034894161E+02  0.19640587469E+02 -0.50735770455E+03  0.50830627497E+03  0.00000000000E+00 0. -1.
<mgrwt>
<rscale>  1 0.30000000E+03</rscale>
<asrwt>0</asrwt>
<pdfrwt beam="1">  1       21 0.35251730E-02 0.30000000E+03</pdfrwt>
<pdfrwt beam="2">0</pdfrwt>
<totfact> 0.51989008E+04</totfact>
</mgrwt>
</event>
<event>
 6    1  0.1295671E-001  0.3000000E+03  0.7818608E-02  0.1093470E+00
         21   -1    0    0  501  502  0.00000000000E+00  0.00000000000E+00  0.29668181897E+01  0.29668181897E+01  0.00000000000E+00 0. -1.
         13   -1    0    0    0    0 -0.00000000000E+00 -0.00000000000E+00 -0.10000000000E+04  0.10000000000E+04  0.00000000000E+00 0.  1.
    9000005    2    1    2  501    0  0.52960732164E+02 -0.77628605941E+00 -0.61405135337E+03  0.61633970755E+03  0.31825693207E+01 0.  0.
         13    1    3    3    0    0  0.33587697934E+02 -0.18230819641E+01 -0.38052267422E+03  0.38200649560E+03  0.00000000000E+00 0.  1.
          1    1    3    3  501    0  0.19373034230E+02  0.10467959047E+01 -0.23352867915E+03  0.23433321195E+03  0.00000000000E+00 0.  1.
         -3    1    1    2    0  502 -0.52960732164E+02  0.77628605941E+00 -0.38298182844E+03  0.38662711064E+03  0.00000000000E+00 0. -1.
<mgrwt>
<rscale>  1 0.30000000E+03</rscale>
<asrwt>0</asrwt>
<pdfrwt beam="1">  1       21 0.10788453E-01 0.30000000E+03</pdfrwt>
<pdfrwt beam="2">0</pdfrwt>
<totfact> 0.75096531E+03</totfact>
</mgrwt>
</event>
<event>
 6    1  0.1295671E-001  0.3000000E+03  0.7818608E-02  0.1093470E+00
         21   -1    0    0  501  502  0.00000000000E+00  0.00000000000E+00  0.11665182520E+01  0.11665182520E+01  0.00000000000E+00 0. -1.
         13   -1    0    0    0    0 -0.00000000000E+00 -0.00000000000E+00 -0.10000000000E+04  0.10000000000E+04  0.00000000000E+00 0.  1.
    9000005    2    1    2  501    0 -0.29813415894E+02 -0.95097274613E+01 -0.69615722825E+03  0.69687687151E+03  0.48179783269E+01 0.  0.
         13    1    3    3    0    0 -0.38311629389E+00 -0.14215314599E+00 -0.25659237663E+01  0.25982591068E+01  0.00000000000E+00 0.  1.
          3    1    3    3  501    0 -0.29430299600E+02 -0.93675743153E+01 -0.69359130448E+03  0.69427861240E+03  0.00000000000E+00 0.  1.
         -1    1    1    2    0  502  0.29813415894E+02  0.95097274613E+01 -0.30267625350E+03  0.30428964674E+03  0.00000000000E+00 0. -1.
<mgrwt>
<rscale>  1 0.30000000E+03</rscale>
<asrwt>0</asrwt>
<pdfrwt beam="1">  1       21 0.42418935E-02 0.30000000E+03</pdfrwt>
<pdfrwt beam="2">0</pdfrwt>
<totfact> 0.38082609E+04</totfact>
</mgrwt>
</event>
<event>
 6    1  0.1295671E-001  0.3000000E+03  0.7818608E-02  0.1093470E+00
         21   -1    0    0  501  502  0.00000000000E+00  0.00000000000E+00  0.16334947324E+01  0.16334947324E+01  0.00000000000E+00 0. -1.
         13   -1    0    0    0    0 -0.00000000000E+00 -0.00000000000E+00 -0.10000000000E+04  0.10000000000E+04  0.00000000000E+00 0.  1.
    9000005    2    1    2  501    0 -0.26638275893E+02 -0.26472474008E+02 -0.68279027972E+03  0.68383049954E+03  0.33461018619E+01 0.  0.
         13    1    3    3    0    0 -0.12809061743E+02 -0.15073351006E+02 -0.36125611839E+03  0.36179726512E+03  0.00000000000E+00 0.  1.
          3    1    3    3  501    0 -0.13829214151E+02 -0.11399123002E+02 -0.32153416133E+03  0.32203323442E+03  0.00000000000E+00 0.  1.
         -1    1    1    2    0  502  0.26638275893E+02  0.26472474008E+02 -0.31557622555E+03  0.31780299520E+03  0.00000000000E+00 0. -1.
<mgrwt>
<rscale>  1 0.30000000E+03</rscale>
<asrwt>0</asrwt>
<pdfrwt beam="1">  1       21 0.59399934E-02 0.30000000E+03</pdfrwt>
<pdfrwt beam="2">0</pdfrwt>
<totfact> 0.21440058E+04</totfact>
</mgrwt>
</event>
<event>
 6    1  0.1295671E-001  0.3000000E+03  0.7818608E-02  0.1093470E+00
         21   -1    0    0  501  502  0.00000000000E+00  0.00000000000E+00  0.30314602998E+01  0.30314602998E+01  0.00000000000E+00 0. -1.
         13   -1    0    0    0    0 -0.00000000000E+00 -0.00000000000E+00 -0.10000000000E+04  0.10000000000E+04  0.00000000000E+00 0.  1.
    9000005    2    1    2  501    0  0.12173160171E+01 -0.38531310001E+02 -0.85638401801E+03  0.85725714347E+03  0.31749041736E+01 0.  0.
         13    1    3    3    0    0  0.78508782359E+00 -0.20868385872E+02 -0.42871264617E+03  0.42922096742E+03  0.00000000000E+00 0.  1.
          3    1    3    3  501    0  0.43222819353E+00 -0.17662924129E+02 -0.42767137185E+03  0.42803617605E+03  0.00000000000E+00 0.  1.
         -3    1    1    2    0  502 -0.12173160171E+01  0.38531310001E+02 -0.14058452169E+03  0.14577431683E+03  0.00000000000E+00 0. -1.
<mgrwt>
<rscale>  1 0.30000000E+03</rscale>
<asrwt>0</asrwt>
<pdfrwt beam="1">  1       21 0.11023515E-01 0.30000000E+03</pdfrwt>
<pdfrwt beam="2">0</pdfrwt>
<totfact> 0.72242115E+03</totfact>
</mgrwt>
</event>
<event>
 6    1  0.1295671E-001  0.3000000E+03  0.7818608E-02  0.1093470E+00
         21   -1    0    0  501  502  0.00000000000E+00  0.00000000000E+00  0.12449968864E+01  0.12449968864E+01  0.00000000000E+00 0. -1.
         13   -1    0    0    0    0 -0.00000000000E+00 -0.00000000000E+00 -0.10000000000E+04  0.10000000000E+04  0.00000000000E+00 0.  1.
    9000005    2    1    2  501    0  0.19671498180E+02  0.29195916983E+02 -0.49075487512E+03  0.49202647851E+03  0.32153846304E+01 0.  0.
         13    1    3    3    0    0  0.30737131266E+01  0.28956438910E+01 -0.65407713317E+02  0.65543889320E+02  0.00000000000E+00 0.  1.
          1    1    3    3  501    0  0.16597785054E+02  0.26300273092E+02 -0.42534716180E+03  0.42648258919E+03  0.00000000000E+00 0.  1.
         -1    1    1    2    0  502 -0.19671498180E+02 -0.29195916983E+02 -0.50800012800E+03  0.50921851837E+03  0.00000000000E+00 0. -1.
<mgrwt>
<rscale>  1 0.30000000E+03</rscale>
<asrwt>0</asrwt>
<pdfrwt beam="1">  1       21 0.45272710E-02 0.30000000E+03</pdfrwt>
<pdfrwt beam="2">0</pdfrwt>
<totfact> 0.34106624E+04</totfact>
</mgrwt>
</event>
<event>
 6    1  0.1295671E-001  0.3000000E+03  0.7818608E-02  0.1093470E+00
         21   -1    0    0  501  502  0.00000000000E+00  0.00000000000E+00  0.22116059296E+01  0.22116059296E+01  0.00000000000E+00 0. -1.
         13   -1    0    0    0    0 -0.00000000000E+00 -0.00000000000E+00 -0.10000000000E+04  0.10000000000E+04  0.00000000000E+00 0.  1.
    9000005    2    1    2  501    0 -0.77457270485E+01 -0.43840660653E+02 -0.65900148130E+03  0.66051207114E+03  0.33531993539E+01 0.  0.
         13    1    3    3    0    0 -0.28381522978E+01 -0.93531796126E+01 -0.13363974406E+03  0.13399670992E+03  0.00000000000E+00 0.  1.
          1    1    3    3  501    0 -0.49075747507E+01 -0.34487481041E+02 -0.52536173724E+03  0.52651536122E+03  0.00000000000E+00 0.  1.
         -1    1    1    2    0  502  0.77457270485E+01  0.43840660653E+02 -0.33878691277E+03  0.34169953479E+03  0.00000000000E+00 0. -1.
<mgrwt>
<rscale>  1 0.30000000E+03</rscale>
<asrwt>0</asrwt>
<pdfrwt beam="1">  1       21 0.80422203E-02 0.30000000E+03</pdfrwt>
<pdfrwt beam="2">0</pdfrwt>
<totfact> 0.12656296E+04</totfact>
</mgrwt>
</event>
<event>
 6    1  0.1295671E-001  0.3000000E+03  0.7818608E-02  0.1093470E+00
         21   -1    0    0  501  502  0.00000000000E+00  0.00000000000E+00  0.12457690936E+01  0.12457690936E+01  0.00000000000E+00 0. -1.
         13   -1    0    0    0    0 -0.00000000000E+00 -0.00000000000E+00 -0.10000000000E+04  0.10000000000E+04  0.00000000000E+00 0.  1.
    9000005    2    1    2  501    0  0.31276240423E+02  0.37670263544E+01 -0.71303219044E+03  0.71379233267E+03  0.96018682850E+01 0.  0.
         13    1    3    3    0    0  0.28431479385E+02  0.10228910393E+01 -0.66008450522E+03  0.66069732054E+03  0.00000000000E+00 0.  1.
          1    1    3    3  501    0  0.28447610376E+01  0.27441353151E+01 -0.52947685212E+02  0.53095012132E+02  0.00000000000E+00 0.  1.
         -3    1    1    2    0  502 -0.31276240423E+02 -0.37670263544E+01 -0.28572204047E+03  0.28745343643E+03  0.00000000000E+00 0. -1.
<mgrwt>
<rscale>  1 0.30000000E+03</rscale>
<asrwt>0</asrwt>
<pdfrwt beam="1">  1       21 0.45300790E-02 0.30000000E+03</pdfrwt>
<pdfrwt beam="2">0</pdfrwt>
<totfact> 0.34070738E+04</totfact>
</mgrwt>
</event>
<event>
 6    1  0.1295671E-001  0.3000000E+03  0.7818608E-02  0.1093470E+00
         21   -1    0    0  501  502  0.00000000000E+00  0.00000000000E+00  0.50236701455E+01  0.50236701455E+01  0.00000000000E+00 0. -1.
         13   -1    0    0    0    0 -0.00000000000E+00 -0.00000000000E+00 -0.10000000000E+04  0.10000000000E+04  0.00000000000E+00 0.  1.
    9000005    2    1    2  501    0  0.37641429005E+02  0.38528670101E+02 -0.82352283653E+03  0.82530823962E+03  0.65186266801E+01 0.  0.
         13    1    3    3    0    0  0.28325341433E+02  0.24779924280E+02 -0.56246470998E+03  0.56372237811E+03  0.00000000000E+00 0.  1.
          1    1    3    3  501    0  0.93160875715E+01  0.13748745822E+02 -0.26105812655E+03  0.26158586150E+03  0.00000000000E+00 0.  1.
         -3    1    1    2    0  502 -0.37641429005E+02 -0.38528670101E+02 -0.17145349332E+03  0.17971543053E+03  0.00000000000E+00 0. -1.
<mgrwt>
<rscale>  1 0.30000000E+03</rscale>
<asrwt>0</asrwt>
<pdfrwt beam="1">  1       21 0.18267930E-01 0.30000000E+03</pdfrwt>
<pdfrwt beam="2">0</pdfrwt>
<totfact> 0.28490887E+03</totfact>
</mgrwt>
</event>
<event>
 6    1  0.1295671E-001  0.3000000E+03  0.7818608E-02  0.1093470E+00
         21   -1    0    0  501  502  0.00000000000E+00  0.00000000000E+00  0.17651699866E+01  0.17651699866E+01  0.00000000000E+00 0. -1.
         13   -1    0    0    0    0 -0.00000000000E+00 -0.00000000000E+00 -0.10000000000E+04  0.10000000000E+04  0.00000000000E+00 0.  1.
    9000005    2    1    2  501    0 -0.18376449662E+02 -0.33399768418E+02 -0.70844593539E+03  0.70947962145E+03  0.35286624766E+01 0.  0.
         13    1    3    3    0    0 -0.10515741690E+02 -0.18143707892E+02 -0.35796198067E+03  0.35857573058E+03  0.00000000000E+00 0.  1.
          3    1    3    3  501    0 -0.78607079720E+01 -0.15256060526E+02 -0.35048395472E+03  0.35090389087E+03  0.00000000000E+00 0.  1.
         -3    1    1    2    0  502  0.18376449662E+02  0.33399768418E+02 -0.28978889463E+03  0.29228554853E+03  0.00000000000E+00 0. -1.
<mgrwt>
<rscale>  1 0.30000000E+03</rscale>
<asrwt>0</asrwt>
<pdfrwt beam="1">  1       21 0.64188135E-02 0.30000000E+03</pdfrwt>
<pdfrwt beam="2">0</pdfrwt>
<totfact> 0.18753602E+04</totfact>
</mgrwt>
</event>
<event>
 6    1  0.1295671E-001  0.3000000E+03  0.7818608E-02  0.1093470E+00
         21   -1    0    0  501  502  0.00000000000E+00  0.00000000000E+00  0.15470603752E+01  0.15470603752E+01  0.00000000000E+00 0. -1.
         13   -1    0    0    0    0 -0.00000000000E+00 -0.00000000000E+00 -0.10000000000E+04  0.10000000000E+04  0.00000000000E+00 0.  1.
    9000005    2    1    2  501    0 -0.36632692000E+02  0.26970524168E+01 -0.67664538735E+03  0.67764996419E+03  0.33564165803E+01 0.  0.
         13    1    3    3    0    0 -0.24243136268E+02  0.32194129555E+00 -0.45663090717E+03  0.45727411766E+03  0.00000000000E+00 0.  1.
          3    1    3    3  501    0 -0.12389555732E+02  0.23751111212E+01 -0.22001448018E+03  0.22037584652E+03  0.00000000000E+00 0.  1.
         -1    1    1    2    0  502  0.36632692000E+02 -0.26970524168E+01 -0.32180755228E+03  0.32389709619E+03  0.00000000000E+00 0. -1.
<mgrwt>
<rscale>  1 0.30000000E+03</rscale>
<asrwt>0</asrwt>
<pdfrwt beam="1">  1       21 0.56256860E-02 0.30000000E+03</pdfrwt>
<pdfrwt beam="2">0</pdfrwt>
<totfact> 0.23543303E+04</totfact>
</mgrwt>
</event>
<event>
 6    1  0.1295671E-001  0.3000000E+03  0.7818608E-02  0.1093470E+00
         21   -1    0    0  501  502  0.00000000000E+00  0.00000000000E+00  0.50337243982E+01  0.50337243982E+01  0.00000000000E+00 0. -1.
         13   -1    0    0    0    0 -0.00000000000E+00 -0.00000000000E+00 -0.10000000000E+04  0.10000000000E+04  0.00000000000E+00 0.  1.
    9000005    2    1    2  501    0  0.12681452496E+02  0.69454627305E+02 -0.50683070219E+03  0.51181865719E+03  0.98088059240E+01 0.  0.
         13    1    3    3    0    0  0.81826894993E+01  0.39807248015E+02 -0.25672492928E+03  0.25992164726E+03  0.00000000000E+00 0.  1.
          3    1    3    3  501    0  0.44987629965E+01  0.29647379290E+02 -0.25010577290E+03  0.25189700992E+03  0.00000000000E+00 0.  1.
         -1    1    1    2    0  502 -0.12681452496E+02 -0.69454627305E+02 -0.48813557342E+03  0.49321506721E+03  0.00000000000E+00 0. -1.
<mgrwt>
<rscale>  1 0.30000000E+03</rscale>
<asrwt>0</asrwt>
<pdfrwt beam="1">  1       21 0.18304491E-01 0.30000000E+03</pdfrwt>
<pdfrwt beam="2">0</pdfrwt>
<totfact> 0.28383616E+03</totfact>
</mgrwt>
</event>
<event>
 6    1  0.1295671E-001  0.3000000E+03  0.7818608E-02  0.1093470E+00
         21   -1    0    0  501  502  0.00000000000E+00  0.00000000000E+00  0.94719845092E+00  0.94719845092E+00  0.00000000000E+00 0. -1.
         13   -1    0    0    0    0 -0.00000000000E+00 -0.00000000000E+00 -0.10000000000E+04  0.10000000000E+04  0.00000000000E+00 0.  1.
    9000005    2    1    2  501    0 -0.12519289714E+02 -0.27902581631E+02 -0.45966946786E+03  0.46069756417E+03  0.33074574764E+01 0.  0.
         13    1    3    3    0    0 -0.10832502432E+02 -0.25821525649E+02 -0.42798762909E+03  0.42890267538E+03  0.00000000000E+00 0.  1.
          3    1    3    3  501    0 -0.16867872825E+01 -0.20810559828E+01 -0.31681838769E+02  0.31794888789E+02  0.00000000000E+00 0.  1.
         -1    1    1    2    0  502  0.12519289714E+02  0.27902581631E+02 -0.53938333369E+03  0.54024963428E+03  0.00000000000E+00 0. -1.
<mgrwt>
<rscale>  1 0.30000000E+03</rscale>
<asrwt>0</asrwt>
<pdfrwt beam="1">  1       21 0.34443653E-02 0.30000000E+03</pdfrwt>
<pdfrwt beam="2">0</pdfrwt>
<totfact> 0.54046823E+04</totfact>
</mgrwt>
</event>
<event>
 6    1  0.1295671E-001  0.3000000E+03  0.7818608E-02  0.1093470E+00
         21   -1    0    0  501  502  0.00000000000E+00  0.00000000000E+00  0.10490440951E+01  0.10490440951E+01  0.00000000000E+00 0. -1.
         13   -1    0    0    0    0 -0.00000000000E+00 -0.00000000000E+00 -0.10000000000E+04  0.10000000000E+04  0.00000000000E+00 0.  1.
    9000005    2    1    2  501    0  0.31776296885E+02  0.56371804048E+01 -0.52253875850E+03  0.52354502036E+03  0.33351706007E+01 0.  0.
         13    1    3    3    0    0  0.22080626169E+02  0.51796525982E+01 -0.35123488104E+03  0.35196636844E+03  0.00000000000E+00 0.  1.
          1    1    3    3  501    0  0.96956707153E+01  0.45752780659E+00 -0.17130387746E+03  0.17157865192E+03  0.00000000000E+00 0.  1.
         -1    1    1    2    0  502 -0.31776296885E+02 -0.56371804048E+01 -0.47641219741E+03  0.47750402374E+03  0.00000000000E+00 0. -1.
<mgrwt>
<rscale>  1 0.30000000E+03</rscale>
<asrwt>0</asrwt>
<pdfrwt beam="1">  1       21 0.38147138E-02 0.30000000E+03</pdfrwt>
<pdfrwt beam="2">0</pdfrwt>
<totfact> 0.45539406E+04</totfact>
</mgrwt>
</event>
<event>
 6    1  0.1295671E-001  0.3000000E+03  0.7818608E-02  0.1093470E+00
         21   -1    0    0  501  502  0.00000000000E+00  0.00000000000E+00  0.11090725118E+01  0.11090725118E+01  0.00000000000E+00 0. -1.
         13   -1    0    0    0    0 -0.00000000000E+00 -0.00000000000E+00 -0.10000000000E+04  0.10000000000E+04  0.00000000000E+00 0.  1.
    9000005    2    1    2  501    0 -0.20554822543E+02 -0.22102774493E+02 -0.70928461336E+03  0.70993412415E+03  0.32809319743E+01 0.  0.
         13    1    3    3    0    0 -0.19663203933E+01 -0.36811058433E+01 -0.89575053255E+02  0.89672220457E+02  0.00000000000E+00 0.  1.
          3    1    3    3  501    0 -0.18588502150E+02 -0.18421668649E+02 -0.61970956011E+03  0.62026190370E+03  0.00000000000E+00 0.  1.
         -1    1    1    2    0  502  0.20554822543E+02  0.22102774493E+02 -0.28960631412E+03  0.29117494836E+03  0.00000000000E+00 0. -1.
<mgrwt>
<rscale>  1 0.30000000E+03</rscale>
<asrwt>0</asrwt>
<pdfrwt beam="1">  1       21 0.40329995E-02 0.30000000E+03</pdfrwt>
<pdfrwt beam="2">0</pdfrwt>
<totfact> 0.41469441E+04</totfact>
</mgrwt>
</event>
<event>
 6    1  0.1295671E-001  0.3000000E+03  0.7818608E-02  0.1093470E+00
         21   -1    0    0  501  502  0.00000000000E+00  0.00000000000E+00  0.67916385004E+01  0.67916385004E+01  0.00000000000E+00 0. -1.
         13   -1    0    0    0    0 -0.00000000000E+00 -0.00000000000E+00 -0.10000000000E+04  0.10000000000E+04  0.00000000000E+00 0.  1.
    9000005    2    1    2  501    0 -0.13305624869E+02 -0.43303750160E+02 -0.91705900072E+03  0.91818588486E+03  0.39816984513E+01 0.  0.
         13    1    3    3    0    0 -0.87881079852E+01 -0.27810935692E+02 -0.62761970658E+03  0.62829704366E+03  0.00000000000E+00 0.  1.
          3    1    3    3  501    0 -0.45175168838E+01 -0.15492814469E+02 -0.28943929414E+03  0.28988884120E+03  0.00000000000E+00 0.  1.
         -3    1    1    2    0  502  0.13305624869E+02  0.43303750160E+02 -0.76149360779E+02  0.88605753640E+02  0.00000000000E+00 0. -1.
<mgrwt>
<rscale>  1 0.30000000E+03</rscale>
<asrwt>0</asrwt>
<pdfrwt beam="1">  1       21 0.24696919E-01 0.30000000E+03</pdfrwt>
<pdfrwt beam="2">0</pdfrwt>
<totfact> 0.15972426E+03</totfact>
</mgrwt>
</event>
<event>
 6    1  0.1295671E-001  0.3000000E+03  0.7818608E-02  0.1093470E+00
         21   -1    0    0  501  502  0.00000000000E+00  0.00000000000E+00  0.17723772286E+01  0.17723772286E+01  0.00000000000E+00 0. -1.
         13   -1    0    0    0    0 -0.00000000000E+00 -0.00000000000E+00 -0.10000000000E+04  0.10000000000E+04  0.00000000000E+00 0.  1.
    9000005    2    1    2  501    0  0.39517261824E+02 -0.55235069553E+01 -0.65709300332E+03  0.65831211505E+03  0.33915618202E+01 0.  0.
         13    1    3    3    0    0  0.28732749324E+02 -0.43144482266E+01 -0.45302284208E+03  0.45395361084E+03  0.00000000000E+00 0.  1.
          1    1    3    3  501    0  0.10784512500E+02 -0.12090587286E+01 -0.20407016124E+03  0.20435850421E+03  0.00000000000E+00 0.  1.
         -1    1    1    2    0  502 -0.39517261824E+02  0.55235069553E+01 -0.34113461945E+03  0.34346026218E+03  0.00000000000E+00 0. -1.
<mgrwt>
<rscale>  1 0.30000000E+03</rscale>
<asrwt>0</asrwt>
<pdfrwt beam="1">  1       21 0.64450217E-02 0.30000000E+03</pdfrwt>
<pdfrwt beam="2">0</pdfrwt>
<totfact> 0.18621841E+04</totfact>
</mgrwt>
</event>
<event>
 6    1  0.1295671E-001  0.3000000E+03  0.7818608E-02  0.1093470E+00
         21   -1    0    0  501  502  0.00000000000E+00  0.00000000000E+00  0.11166958000E+01  0.11166958000E+01  0.00000000000E+00 0. -1.
         13   -1    0    0    0    0 -0.00000000000E+00 -0.00000000000E+00 -0.10000000000E+04  0.10000000000E+04  0.00000000000E+00 0.  1.
    9000005    2    1    2  501    0 -0.28475193296E+02 -0.10144362441E+02 -0.71127973236E+03  0.71192893800E+03  0.31953688598E+01 0.  0.
         13    1    3    3    0    0 -0.25349216035E+02 -0.84752209261E+01 -0.64660030305E+03  0.64715250446E+03  0.00000000000E+00 0.  1.
          1    1    3    3  501    0 -0.31259772612E+01 -0.16691415147E+01 -0.64679429309E+02  0.64776433546E+02  0.00000000000E+00 0.  1.
         -1    1    1    2    0  502  0.28475193296E+02  0.10144362441E+02 -0.28760357184E+03  0.28918775780E+03  0.00000000000E+00 0. -1.
<mgrwt>
<rscale>  1 0.30000000E+03</rscale>
<asrwt>0</asrwt>
<pdfrwt beam="1">  1       21 0.40607206E-02 0.30000000E+03</pdfrwt>
<pdfrwt beam="2">0</pdfrwt>
<totfact> 0.40993525E+04</totfact>
</mgrwt>
</event>
<event>
 6    1  0.1295671E-001  0.3000000E+03  0.7818608E-02  0.1093470E+00
         21   -1    0    0  501  502  0.00000000000E+00  0.00000000000E+00  0.15897171680E+01  0.15897171680E+01  0.00000000000E+00 0. -1.
         13   -1    0    0    0    0 -0.00000000000E+00 -0.00000000000E+00 -0.10000000000E+04  0.10000000000E+04  0.00000000000E+00 0.  1.
    9000005    2    1    2  501    0  0.31862034635E+01 -0.33064617640E+02 -0.77554638973E+03  0.77626387382E+03  0.31588513151E+01 0.  0.
         13    1    3    3    0    0  0.19242584063E+01 -0.11188168238E+02 -0.29424474185E+03  0.29446365818E+03  0.00000000000E+00 0.  1.
          3    1    3    3  501    0  0.12619450573E+01 -0.21876449402E+02 -0.48130164788E+03  0.48180021564E+03  0.00000000000E+00 0.  1.
         -1    1    1    2    0  502 -0.31862034635E+01  0.33064617640E+02 -0.22286389310E+03  0.22532584335E+03  0.00000000000E+00 0. -1.
<mgrwt>
<rscale>  1 0.30000000E+03</rscale>
<asrwt>0</asrwt>
<pdfrwt beam="1">  1       21 0.57808019E-02 0.30000000E+03</pdfrwt>
<pdfrwt beam="2">0</pdfrwt>
<totfact> 0.22467473E+04</totfact>
</mgrwt>
</event>
<event>
 6    1  0.1295671E-001  0.3000000E+03  0.7818608E-02  0.1093470E+00
         21   -1    0    0  501  502  0.00000000000E+00  0.00000000000E+00  0.26937589804E+01  0.26937589804E+01  0.00000000000E+00 0. -1.
         13   -1    0    0    0    0 -0.00000000000E+00 -0.00000000000E+00 -0.10000000000E+04  0.10000000000E+04  0.00000000000E+00 0.  1.
    9000005    2    1    2  501    0  0.44543148175E+02 -0.15114392825E+02 -0.70327352843E+03  0.70492241551E+03  0.10460362188E+02 0.  0.
         13    1    3    3    0    0  0.32011616813E+02 -0.59617963003E+01 -0.45382091327E+03  0.45498759098E+03  0.00000000000E+00 0.  1.
          3    1    3    3  501    0  0.12531531362E+02 -0.91525965247E+01 -0.24945261517E+03  0.24993482453E+03  0.00000000000E+00 0.  1.
         -1    1    1    2    0  502 -0.44543148175E+02  0.15114392825E+02 -0.29403271259E+03  0.29777134347E+03  0.00000000000E+00 0. -1.
<mgrwt>
<rscale>  1 0.30000000E+03</rscale>
<asrwt>0</asrwt>
<pdfrwt beam="1">  1       21 0.97955079E-02 0.30000000E+03</pdfrwt>
<pdfrwt beam="2">0</pdfrwt>
<totfact> 0.89265506E+03</totfact>
</mgrwt>
</event>
<event>
 6    1  0.1295671E-001  0.3000000E+03  0.7818608E-02  0.1093470E+00
         21   -1    0    0  501  502  0.00000000000E+00  0.00000000000E+00  0.45138825727E+01  0.45138825727E+01  0.00000000000E+00 0. -1.
         13   -1    0    0    0    0 -0.00000000000E+00 -0.00000000000E+00 -0.10000000000E+04  0.10000000000E+04  0.00000000000E+00 0.  1.
    9000005    2    1    2  501    0 -0.25422445680E+02  0.41509479331E+02 -0.84378120995E+03  0.84519120192E+03  0.34784930968E+01 0.  0.
         13    1    3    3    0    0 -0.16036685000E+02  0.28032255386E+02 -0.58194123369E+03  0.58283666844E+03  0.00000000000E+00 0.  1.
          3    1    3    3  501    0 -0.93857606796E+01  0.13477223945E+02 -0.26183997626E+03  0.26235453348E+03  0.00000000000E+00 0.  1.
         -1    1    1    2    0  502  0.25422445680E+02 -0.41509479331E+02 -0.15170490748E+03  0.15932268066E+03  0.00000000000E+00 0. -1.
<mgrwt>
<rscale>  1 0.30000000E+03</rscale>
<asrwt>0</asrwt>
<pdfrwt beam="1">  1       21 0.16414153E-01 0.30000000E+03</pdfrwt>
<pdfrwt beam="2">0</pdfrwt>
<totfact> 0.34826001E+03</totfact>
</mgrwt>
</event>
<event>
 6    1  0.1295671E-001  0.3000000E+03  0.7818608E-02  0.1093470E+00
         21   -1    0    0  501  502  0.00000000000E+00  0.00000000000E+00  0.11082256107E+02  0.11082256107E+02  0.00000000000E+00 0. -1.
         13   -1    0    0    0    0 -0.00000000000E+00 -0.00000000000E+00 -0.10000000000E+04  0.10000000000E+04  0.00000000000E+00 0.  1.
    9000005    2    1    2  501    0 -0.13672528816E+02 -0.59088887830E+02 -0.90762297868E+03  0.90965605851E+03  0.40297189266E+01 0.  0.
         13    1    3    3    0    0 -0.49913993688E+01 -0.16306259562E+02 -0.27592951145E+03  0.27645597020E+03  0.00000000000E+00 0.  1.
          1    1    3    3  501    0 -0.86811294471E+01 -0.42782628268E+02 -0.63169346723E+03  0.63320008831E+03  0.00000000000E+00 0.  1.
         -3    1    1    2    0  502  0.13672528816E+02  0.59088887830E+02 -0.81294765209E+02  0.10142619760E+03  0.00000000000E+00 0. -1.
<mgrwt>
<rscale>  1 0.30000000E+03</rscale>
<asrwt>0</asrwt>
<pdfrwt beam="1">  1       21 0.40299198E-01 0.30000000E+03</pdfrwt>
<pdfrwt beam="2">0</pdfrwt>
<totfact> 0.59468686E+02</totfact>
</mgrwt>
</event>
<event>
 6    1  0.1295671E-001  0.3000000E+03  0.7818608E-02  0.1093470E+00
         21   -1    0    0  501  502  0.00000000000E+00  0.00000000000E+00  0.38451582646E+01  0.38451582646E+01  0.00000000000E+00 0. -1.
         13   -1    0    0    0    0 -0.00000000000E+00 -0.00000000000E+00 -0.10000000000E+04  0.10000000000E+04  0.00000000000E+00 0.  1.
    9000005    2    1    2  501    0 -0.27960960307E+02  0.17943967039E+02 -0.92170554488E+03  0.92231909460E+03  0.52535270640E+01 0.  0.
         13    1    3    3    0    0 -0.60919197633E+01  0.65014899422E+01 -0.26611739476E+03  0.26626649930E+03  0.00000000000E+00 0.  1.
          3    1    3    3  501    0 -0.21869040544E+02  0.11442477097E+02 -0.65558815012E+03  0.65605259530E+03  0.00000000000E+00 0.  1.
         -3    1    1    2    0  502  0.27960960307E+02 -0.17943967039E+02 -0.74449296856E+02  0.81526063665E+02  0.00000000000E+00 0. -1.
<mgrwt>
<rscale>  1 0.30000000E+03</rscale>
<asrwt>0</asrwt>
<pdfrwt beam="1">  1       21 0.13982423E-01 0.30000000E+03</pdfrwt>
<pdfrwt beam="2">0</pdfrwt>
<totfact> 0.46874835E+03</totfact>
</mgrwt>
</event>
<event>
 6    1  0.1295671E-001  0.3000000E+03  0.7818608E-02  0.1093470E+00
         21   -1    0    0  501  502  0.00000000000E+00  0.00000000000E+00  0.24768043797E+01  0.24768043797E+01  0.00000000000E+00 0. -1.
         13   -1    0    0    0    0 -0.00000000000E+00 -0.00000000000E+00 -0.10000000000E+04  0.10000000000E+04  0.00000000000E+00 0.  1.
    9000005    2    1    2  501    0  0.49189933124E+02 -0.65775019129E+01 -0.47266172276E+03  0.47527430179E+03  0.36938759734E+01 0.  0.
         13    1    3    3    0    0  0.42576281368E+00  0.21287959058E+00 -0.72531784041E+01  0.72687817862E+01  0.00000000000E+00 0.  1.
          3    1    3    3  501    0  0.48764170310E+02 -0.67903815035E+01 -0.46540854436E+03  0.46800552000E+03  0.00000000000E+00 0.  1.
         -1    1    1    2    0  502 -0.49189933124E+02  0.65775019129E+01 -0.52486147286E+03  0.52720250259E+03  0.00000000000E+00 0. -1.
<mgrwt>
<rscale>  1 0.30000000E+03</rscale>
<asrwt>0</asrwt>
<pdfrwt beam="1">  1       21 0.90065804E-02 0.30000000E+03</pdfrwt>
<pdfrwt beam="2">0</pdfrwt>
<totfact> 0.10364659E+04</totfact>
</mgrwt>
</event>
<event>
 6    1  0.1295671E-001  0.3000000E+03  0.7818608E-02  0.1093470E+00
         21   -1    0    0  501  502  0.00000000000E+00  0.00000000000E+00  0.10906237930E+01  0.10906237930E+01  0.00000000000E+00 0. -1.
         13   -1    0    0    0    0 -0.00000000000E+00 -0.00000000000E+00 -0.10000000000E+04  0.10000000000E+04  0.00000000000E+00 0.  1.
    9000005    2    1    2  501    0  0.24643502973E+02  0.20743822872E+02 -0.39520502519E+03  0.39652751553E+03  0.30741205446E+01 0.  0.
         13    1    3    3    0    0  0.13979110547E+02  0.98045763649E+01 -0.20467857402E+03  0.20538954187E+03  0.00000000000E+00 0.  1.
          1    1    3    3  501    0  0.10664392426E+02  0.10939246507E+02 -0.19052645117E+03  0.19113797366E+03  0.00000000000E+00 0.  1.
         -1    1    1    2    0  502 -0.24643502973E+02 -0.20743822872E+02 -0.60370435102E+03  0.60456310826E+03  0.00000000000E+00 0. -1.
<mgrwt>
<rscale>  1 0.30000000E+03</rscale>
<asrwt>0</asrwt>
<pdfrwt beam="1">  1       21 0.39659131E-02 0.30000000E+03</pdfrwt>
<pdfrwt beam="2">0</pdfrwt>
<totfact> 0.42657582E+04</totfact>
</mgrwt>
</event>
<event>
 6    1  0.1295671E-001  0.3000000E+03  0.7818608E-02  0.1093470E+00
         21   -1    0    0  501  502  0.00000000000E+00  0.00000000000E+00  0.19105582189E+01  0.19105582189E+01  0.00000000000E+00 0. -1.
         13   -1    0    0    0    0 -0.00000000000E+00 -0.00000000000E+00 -0.10000000000E+04  0.10000000000E+04  0.00000000000E+00 0.  1.
    9000005    2    1    2  501    0 -0.15707132771E+02 -0.30637451333E+02 -0.80699028901E+03  0.80773472647E+03  0.40858721406E+01 0.  0.
         13    1    3    3    0    0 -0.12296102954E+02 -0.26704610468E+02 -0.70226967930E+03  0.70288479343E+03  0.00000000000E+00 0.  1.
          1    1    3    3  501    0 -0.34110298174E+01 -0.39328408655E+01 -0.10472060971E+03  0.10484993304E+03  0.00000000000E+00 0.  1.
         -1    1    1    2    0  502  0.15707132771E+02  0.30637451333E+02 -0.19109915277E+03  0.19417583175E+03  0.00000000000E+00 0. -1.
<mgrwt>
<rscale>  1 0.30000000E+03</rscale>
<asrwt>0</asrwt>
<pdfrwt beam="1">  1       21 0.69474991E-02 0.30000000E+03</pdfrwt>
<pdfrwt beam="2">0</pdfrwt>
<totfact> 0.16348016E+04</totfact>
</mgrwt>
</event>
<event>
 6    1  0.1295671E-001  0.3000000E+03  0.7818608E-02  0.1093470E+00
         21   -1    0    0  501  502  0.00000000000E+00  0.00000000000E+00  0.15258895562E+01  0.15258895562E+01  0.00000000000E+00 0. -1.
         13   -1    0    0    0    0 -0.00000000000E+00 -0.00000000000E+00 -0.10000000000E+04  0.10000000000E+04  0.00000000000E+00 0.  1.
    9000005    2    1    2  501    0  0.16836778333E+02  0.29202332816E+02 -0.25309363263E+03  0.25538360417E+03  0.53051909241E+01 0.  0.
         13    1    3    3    0    0  0.15729635425E+01  0.34712535128E+01 -0.18381539031E+02  0.18772447694E+02  0.00000000000E+00 0.  1.
          1    1    3    3  501    0  0.15263814791E+02  0.25731079303E+02 -0.23471209360E+03  0.23661115647E+03  0.00000000000E+00 0.  1.
         -1    1    1    2    0  502 -0.16836778333E+02 -0.29202332816E+02 -0.74538047781E+03  0.74614228539E+03  0.00000000000E+00 0. -1.
<mgrwt>
<rscale>  1 0.30000000E+03</rscale>
<asrwt>0</asrwt>
<pdfrwt beam="1">  1       21 0.55487010E-02 0.30000000E+03</pdfrwt>
<pdfrwt beam="2">0</pdfrwt>
<totfact> 0.24106856E+04</totfact>
</mgrwt>
</event>
<event>
 6    1  0.1295671E-001  0.3000000E+03  0.7818608E-02  0.1093470E+00
         21   -1    0    0  501  502  0.00000000000E+00  0.00000000000E+00  0.39504820032E+01  0.39504820032E+01  0.00000000000E+00 0. -1.
         13   -1    0    0    0    0 -0.00000000000E+00 -0.00000000000E+00 -0.10000000000E+04  0.10000000000E+04  0.00000000000E+00 0.  1.
    9000005    2    1    2  501    0 -0.77409720653E+01 -0.46570120692E+02 -0.82925896297E+03  0.83060750397E+03  0.31143511812E+01 0.  0.
         13    1    3    3    0    0 -0.78925661969E+01 -0.45223899757E+02 -0.79827780081E+03  0.79959673648E+03  0.00000000000E+00 0.  1.
          1    1    3    3  501    0  0.15159413163E+00 -0.13462209352E+01 -0.30981162160E+02  0.31010767491E+02  0.00000000000E+00 0.  1.
         -1    1    1    2    0  502  0.77409720653E+01  0.46570120692E+02 -0.16679055502E+03  0.17334297804E+03  0.00000000000E+00 0. -1.
<mgrwt>
<rscale>  1 0.30000000E+03</rscale>
<asrwt>0</asrwt>
<pdfrwt beam="1">  1       21 0.14365419E-01 0.30000000E+03</pdfrwt>
<pdfrwt beam="2">0</pdfrwt>
<totfact> 0.44601689E+03</totfact>
</mgrwt>
</event>
<event>
 6    1  0.1295671E-001  0.3000000E+03  0.7818608E-02  0.1093470E+00
         21   -1    0    0  501  502  0.00000000000E+00  0.00000000000E+00  0.14817577214E+01  0.14817577214E+01  0.00000000000E+00 0. -1.
         13   -1    0    0    0    0 -0.00000000000E+00 -0.00000000000E+00 -0.10000000000E+04  0.10000000000E+04  0.00000000000E+00 0.  1.
    9000005    2    1    2  501    0 -0.32170461267E+02  0.20312469904E+02 -0.55222617822E+03  0.55357089443E+03  0.62807832398E+01 0.  0.
         13    1    3    3    0    0 -0.25153990032E+02  0.17491434523E+02 -0.40950792085E+03  0.41065242083E+03  0.00000000000E+00 0.  1.
          3    1    3    3  501    0 -0.70164712346E+01  0.28210353810E+01 -0.14271825737E+03  0.14291847360E+03  0.00000000000E+00 0.  1.
         -3    1    1    2    0  502  0.32170461267E+02 -0.20312469904E+02 -0.44629206406E+03  0.44791086329E+03  0.00000000000E+00 0. -1.
<mgrwt>
<rscale>  1 0.30000000E+03</rscale>
<asrwt>0</asrwt>
<pdfrwt beam="1">  1       21 0.53882213E-02 0.30000000E+03</pdfrwt>
<pdfrwt beam="2">0</pdfrwt>
<totfact> 0.25350501E+04</totfact>
</mgrwt>
</event>
<event>
 6    1  0.1295671E-001  0.3000000E+03  0.7818608E-02  0.1093470E+00
         21   -1    0    0  501  502  0.00000000000E+00  0.00000000000E+00  0.24687834192E+01  0.24687834192E+01  0.00000000000E+00 0. -1.
         13   -1    0    0    0    0 -0.00000000000E+00 -0.00000000000E+00 -0.10000000000E+04  0.10000000000E+04  0.00000000000E+00 0.  1.
    9000005    2    1    2  501    0 -0.36124132369E+00  0.31565054108E+02 -0.11645590372E+03  0.12082815932E+03  0.64018307058E+01 0.  0.
         13    1    3    3    0    0 -0.28470601642E+01  0.24771008401E+02 -0.87634318676E+02  0.91112471257E+02  0.00000000000E+00 0.  1.
          1    1    3    3  501    0  0.24858188405E+01  0.67940457062E+01 -0.28821585044E+02  0.29715688059E+02  0.00000000000E+00 0.  1.
         -1    1    1    2    0  502  0.36124132369E+00 -0.31565054108E+02 -0.88107531286E+03  0.88164062410E+03  0.00000000000E+00 0. -1.
<mgrwt>
<rscale>  1 0.30000000E+03</rscale>
<asrwt>0</asrwt>
<pdfrwt beam="1">  1       21 0.89774132E-02 0.30000000E+03</pdfrwt>
<pdfrwt beam="2">0</pdfrwt>
<totfact> 0.10424389E+04</totfact>
</mgrwt>
</event>
<event>
 6    1  0.1295671E-001  0.3000000E+03  0.7818608E-02  0.1093470E+00
         21   -1    0    0  501  502  0.00000000000E+00  0.00000000000E+00  0.29059896631E+01  0.29059896631E+01  0.00000000000E+00 0. -1.
         13   -1    0    0    0    0 -0.00000000000E+00 -0.00000000000E+00 -0.10000000000E+04  0.10000000000E+04  0.00000000000E+00 0.  1.
    9000005    2    1    2  501    0  0.27629573186E+02 -0.16756373402E+02 -0.89884288353E+03  0.89947749609E+03  0.98522756611E+01 0.  0.
         13    1    3    3    0    0  0.11232203466E+01 -0.42597996601E+01 -0.13876738391E+03  0.13883729454E+03  0.00000000000E+00 0.  1.
          1    1    3    3  501    0  0.26506352839E+02 -0.12496573742E+02 -0.76007549961E+03  0.76064020155E+03  0.00000000000E+00 0.  1.
         -1    1    1    2    0  502 -0.27629573186E+02  0.16756373402E+02 -0.98251126811E+02  0.10342849358E+03  0.00000000000E+00 0. -1.
<mgrwt>
<rscale>  1 0.30000000E+03</rscale>
<asrwt>0</asrwt>
<pdfrwt beam="1">  1       21 0.10567257E-01 0.30000000E+03</pdfrwt>
<pdfrwt beam="2">0</pdfrwt>
<totfact> 0.77941271E+03</totfact>
</mgrwt>
</event>
<event>
 6    1  0.1295671E-001  0.3000000E+03  0.7818608E-02  0.1093470E+00
         21   -1    0    0  501  502  0.00000000000E+00  0.00000000000E+00  0.24225863078E+01  0.24225863078E+01  0.00000000000E+00 0. -1.
         13   -1    0    0    0    0 -0.00000000000E+00 -0.00000000000E+00 -0.10000000000E+04  0.10000000000E+04  0.00000000000E+00 0.  1.
    9000005    2    1    2  501    0 -0.38887302670E+02 -0.22467430651E+02 -0.29598210341E+03  0.29939130168E+03  0.35690666029E+01 0.  0.
         13    1    3    3    0    0 -0.18503031548E+02 -0.86777937793E+01 -0.13659111613E+03  0.13811154654E+03  0.00000000000E+00 0.  1.
          3    1    3    3  501    0 -0.20384271121E+02 -0.13789636872E+02 -0.15939098727E+03  0.16127975514E+03  0.00000000000E+00 0.  1.
         -3    1    1    2    0  502  0.38887302670E+02  0.22467430651E+02 -0.70159531028E+03  0.70303128463E+03  0.00000000000E+00 0. -1.
<mgrwt>
<rscale>  1 0.30000000E+03</rscale>
<asrwt>0</asrwt>
<pdfrwt beam="1">  1       21 0.88094233E-02 0.30000000E+03</pdfrwt>
<pdfrwt beam="2">0</pdfrwt>
<totfact> 0.10778774E+04</totfact>
</mgrwt>
</event>
<event>
 6    1  0.1295671E-001  0.3000000E+03  0.7818608E-02  0.1093470E+00
         21   -1    0    0  501  502  0.00000000000E+00  0.00000000000E+00  0.21287928543E+01  0.21287928543E+01  0.00000000000E+00 0. -1.
         13   -1    0    0    0    0 -0.00000000000E+00 -0.00000000000E+00 -0.10000000000E+04  0.10000000000E+04  0.00000000000E+00 0.  1.
    9000005    2    1    2  501    0 -0.32506324920E+02  0.25174945288E+02 -0.72557348185E+03  0.72674453362E+03  0.32094485515E+01 0.  0.
         13    1    3    3    0    0 -0.11063244252E+02  0.10236778517E+02 -0.27975754133E+03  0.28016328978E+03  0.00000000000E+00 0.  1.
          1    1    3    3  501    0 -0.21443080668E+02  0.14938166772E+02 -0.44581594051E+03  0.44658124384E+03  0.00000000000E+00 0.  1.
         -1    1    1    2    0  502  0.32506324920E+02 -0.25174945288E+02 -0.27229772530E+03  0.27538425923E+03  0.00000000000E+00 0. -1.
<mgrwt>
<rscale>  1 0.30000000E+03</rscale>
<asrwt>0</asrwt>
<pdfrwt beam="1">  1       21 0.77410812E-02 0.30000000E+03</pdfrwt>
<pdfrwt beam="2">0</pdfrwt>
<totfact> 0.13533091E+04</totfact>
</mgrwt>
</event>
<event>
 6    1  0.1295671E-001  0.3000000E+03  0.7818608E-02  0.1093470E+00
         21   -1    0    0  501  502  0.00000000000E+00  0.00000000000E+00  0.24830976260E+01  0.24830976260E+01  0.00000000000E+00 0. -1.
         13   -1    0    0    0    0 -0.00000000000E+00 -0.00000000000E+00 -0.10000000000E+04  0.10000000000E+04  0.00000000000E+00 0.  1.
    9000005    2    1    2  501    0 -0.28369019983E+01 -0.39017246747E+02 -0.80888639753E+03  0.80983870784E+03  0.33369232879E+01 0.  0.
         13    1    3    3    0    0 -0.38934308363E-01 -0.19282015699E+02 -0.41769373196E+03  0.41813855522E+03  0.00000000000E+00 0.  1.
          3    1    3    3  501    0 -0.27979676899E+01 -0.19735231049E+02 -0.39119266557E+03  0.39170015262E+03  0.00000000000E+00 0.  1.
         -3    1    1    2    0  502  0.28369019983E+01  0.39017246747E+02 -0.18863050484E+03  0.19264438978E+03  0.00000000000E+00 0. -1.
<mgrwt>
<rscale>  1 0.30000000E+03</rscale>
<asrwt>0</asrwt>
<pdfrwt beam="1">  1       21 0.90294650E-02 0.30000000E+03</pdfrwt>
<pdfrwt beam="2">0</pdfrwt>
<totfact> 0.10318158E+04</totfact>
</mgrwt>
</event>
<event>
 6    1  0.1295671E-001  0.3000000E+03  0.7818608E-02  0.1093470E+00
         21   -1    0    0  501  502  0.00000000000E+00  0.00000000000E+00  0.31979580438E+01  0.31979580438E+01  0.00000000000E+00 0. -1.
         13   -1    0    0    0    0 -0.00000000000E+00 -0.00000000000E+00 -0.10000000000E+04  0.10000000000E+04  0.00000000000E+00 0.  1.
    9000005    2    1    2  501    0 -0.19267834117E+02  0.23513006107E+02 -0.92128528409E+03  0.92179223585E+03  0.32000778701E+01 0.  0.
         13    1    3    3    0    0 -0.24190521623E+01  0.33602510342E+01 -0.96561942891E+02  0.96650669503E+02  0.00000000000E+00 0.  1.
          3    1    3    3  501    0 -0.16848781955E+02  0.20152755073E+02 -0.82472334120E+03  0.82514156635E+03  0.00000000000E+00 0.  1.
         -1    1    1    2    0  502  0.19267834117E+02 -0.23513006107E+02 -0.75516757862E+02  0.81405722193E+02  0.00000000000E+00 0. -1.
<mgrwt>
<rscale>  1 0.30000000E+03</rscale>
<asrwt>0</asrwt>
<pdfrwt beam="1">  1       21 0.11628963E-01 0.30000000E+03</pdfrwt>
<pdfrwt beam="2">0</pdfrwt>
<totfact> 0.65599764E+03</totfact>
</mgrwt>
</event>
<event>
 6    1  0.1295671E-001  0.3000000E+03  0.7818608E-02  0.1093470E+00
         21   -1    0    0  501  502  0.00000000000E+00  0.00000000000E+00  0.29241802655E+01  0.29241802655E+01  0.00000000000E+00 0. -1.
         13   -1    0    0    0    0 -0.00000000000E+00 -0.00000000000E+00 -0.10000000000E+04  0.10000000000E+04  0.00000000000E+00 0.  1.
    9000005    2    1    2  501    0 -0.45943558801E+02  0.37608562593E+01 -0.76031202612E+03  0.76171462697E+03  0.31370749861E+01 0.  0.
         13    1    3    3    0    0 -0.24802843114E+01  0.69602744074E+00 -0.51958877396E+02  0.52022698938E+02  0.00000000000E+00 0.  1.
          1    1    3    3  501    0 -0.43463274490E+02  0.30648288185E+01 -0.70835314873E+03  0.70969192804E+03  0.00000000000E+00 0.  1.
         -1    1    1    2    0  502  0.45943558801E+02 -0.37608562593E+01 -0.23676379361E+03  0.24120955329E+03  0.00000000000E+00 0. -1.
<mgrwt>
<rscale>  1 0.30000000E+03</rscale>
<asrwt>0</asrwt>
<pdfrwt beam="1">  1       21 0.10633405E-01 0.30000000E+03</pdfrwt>
<pdfrwt beam="2">0</pdfrwt>
<totfact> 0.77073683E+03</totfact>
</mgrwt>
</event>
<event>
 6    1  0.1295671E-001  0.3000000E+03  0.7818608E-02  0.1093470E+00
         21   -1    0    0  501  502  0.00000000000E+00  0.00000000000E+00  0.27975681382E+01  0.27975681382E+01  0.00000000000E+00 0. -1.
         13   -1    0    0    0    0 -0.00000000000E+00 -0.00000000000E+00 -0.10000000000E+04  0.10000000000E+04  0.00000000000E+00 0.  1.
    9000005    2    1    2  501    0 -0.32244807224E+02  0.34828410544E+02 -0.71932669163E+03  0.72089745678E+03  0.30835251820E+01 0.  0.
         13    1    3    3    0    0 -0.81964378803E+01  0.10645395491E+02 -0.21354079798E+03  0.21396303055E+03  0.00000000000E+00 0.  1.
          1    1    3    3  501    0 -0.24048369344E+02  0.24183015053E+02 -0.50578589365E+03  0.50693442624E+03  0.00000000000E+00 0.  1.
         -1    1    1    2    0  502  0.32244807224E+02 -0.34828410544E+02 -0.27787574023E+03  0.28190011136E+03  0.00000000000E+00 0. -1.
<mgrwt>
<rscale>  1 0.30000000E+03</rscale>
<asrwt>0</asrwt>
<pdfrwt beam="1">  1       21 0.10172996E-01 0.30000000E+03</pdfrwt>
<pdfrwt beam="2">0</pdfrwt>
<totfact> 0.83433987E+03</totfact>
</mgrwt>
</event>
<event>
 6    1  0.1295671E-001  0.3000000E+03  0.7818608E-02  0.1093470E+00
         21   -1    0    0  501  502  0.00000000000E+00  0.00000000000E+00  0.10636202958E+01  0.10636202958E+01  0.00000000000E+00 0. -1.
         13   -1    0    0    0    0 -0.00000000000E+00 -0.00000000000E+00 -0.10000000000E+04  0.10000000000E+04  0.00000000000E+00 0.  1.
    9000005    2    1    2  501    0  0.17326018373E+02  0.25767397523E+02 -0.61231205811E+03  0.61319442103E+03  0.10825515814E+02 0.  0.
         13    1    3    3    0    0  0.18444993266E+02  0.21404879605E+02 -0.54487460647E+03  0.54560674796E+03  0.00000000000E+00 0.  1.
          3    1    3    3  501    0 -0.11189748930E+01  0.43625179177E+01 -0.67437451636E+02  0.67587673067E+02  0.00000000000E+00 0.  1.
         -1    1    1    2    0  502 -0.17326018373E+02 -0.25767397523E+02 -0.38662432160E+03  0.38786919926E+03  0.00000000000E+00 0. -1.
<mgrwt>
<rscale>  1 0.30000000E+03</rscale>
<asrwt>0</asrwt>
<pdfrwt beam="1">  1       21 0.38677183E-02 0.30000000E+03</pdfrwt>
<pdfrwt beam="2">0</pdfrwt>
<totfact> 0.44495289E+04</totfact>
</mgrwt>
</event>
<event>
 6    1  0.1295671E-001  0.3000000E+03  0.7818608E-02  0.1093470E+00
         21   -1    0    0  501  502  0.00000000000E+00  0.00000000000E+00  0.14014948189E+01  0.14014948189E+01  0.00000000000E+00 0. -1.
         13   -1    0    0    0    0 -0.00000000000E+00 -0.00000000000E+00 -0.10000000000E+04  0.10000000000E+04  0.00000000000E+00 0.  1.
    9000005    2    1    2  501    0  0.33824925192E+02  0.15609768335E+02 -0.46397354829E+03  0.46548019933E+03  0.35457044946E+01 0.  0.
         13    1    3    3    0    0  0.32890032209E+02  0.15372732689E+02 -0.44330555101E+03  0.44478971063E+03  0.00000000000E+00 0.  1.
          3    1    3    3  501    0  0.93489298294E+00  0.23703564566E+00 -0.20667997286E+02  0.20690488699E+02  0.00000000000E+00 0.  1.
         -1    1    1    2    0  502 -0.33824925192E+02 -0.15609768335E+02 -0.53462495689E+03  0.53592129549E+03  0.00000000000E+00 0. -1.
<mgrwt>
<rscale>  1 0.30000000E+03</rscale>
<asrwt>0</asrwt>
<pdfrwt beam="1">  1       21 0.50963555E-02 0.30000000E+03</pdfrwt>
<pdfrwt beam="2">0</pdfrwt>
<totfact> 0.27882015E+04</totfact>
</mgrwt>
</event>
<event>
 6    1  0.1295671E-001  0.3000000E+03  0.7818608E-02  0.1093470E+00
         21   -1    0    0  501  502  0.00000000000E+00  0.00000000000E+00  0.20991265459E+01  0.20991265459E+01  0.00000000000E+00 0. -1.
         13   -1    0    0    0    0 -0.00000000000E+00 -0.00000000000E+00 -0.10000000000E+04  0.10000000000E+04  0.00000000000E+00 0.  1.
    9000005    2    1    2  501    0 -0.61948071260E+01  0.37178074176E+02 -0.78338066094E+03  0.78429300539E+03  0.31102312145E+01 0.  0.
         13    1    3    3    0    0 -0.28013851705E+01  0.23587272375E+02 -0.47154868961E+03  0.47214655972E+03  0.00000000000E+00 0.  1.
          1    1    3    3  501    0 -0.33934219554E+01  0.13590801801E+02 -0.31183197132E+03  0.31214644567E+03  0.00000000000E+00 0.  1.
         -1    1    1    2    0  502  0.61948071260E+01 -0.37178074176E+02 -0.21452021252E+03  0.21780612116E+03  0.00000000000E+00 0. -1.
<mgrwt>
<rscale>  1 0.30000000E+03</rscale>
<asrwt>0</asrwt>
<pdfrwt beam="1">  1       21 0.76332035E-02 0.30000000E+03</pdfrwt>
<pdfrwt beam="2">0</pdfrwt>
<totfact> 0.13870113E+04</totfact>
</mgrwt>
</event>
<event>
 6    1  0.1295671E-001  0.3000000E+03  0.7818608E-02  0.1093470E+00
         21   -1    0    0  501  502  0.00000000000E+00  0.00000000000E+00  0.42401275597E+01  0.42401275597E+01  0.00000000000E+00 0. -1.
         13   -1    0    0    0    0 -0.00000000000E+00 -0.00000000000E+00 -0.10000000000E+04  0.10000000000E+04  0.00000000000E+00 0.  1.
    9000005    2    1    2  501    0  0.18857111751E+01 -0.34276575786E+02 -0.92444967003E+03  0.92509731663E+03  0.44060481791E+01 0.  0.
         13    1    3    3    0    0  0.80479907419E+00 -0.32623451612E+02 -0.87364684008E+03  0.87425610577E+03  0.00000000000E+00 0.  1.
          3    1    3    3  501    0  0.10809121009E+01 -0.16531241734E+01 -0.50802829950E+02  0.50841210857E+02  0.00000000000E+00 0.  1.
         -1    1    1    2    0  502 -0.18857111751E+01  0.34276575786E+02 -0.71310202406E+02  0.79142810927E+02  0.00000000000E+00 0. -1.
<mgrwt>
<rscale>  1 0.30000000E+03</rscale>
<asrwt>0</asrwt>
<pdfrwt beam="1">  1       21 0.15418678E-01 0.30000000E+03</pdfrwt>
<pdfrwt beam="2">0</pdfrwt>
<totfact> 0.39131225E+03</totfact>
</mgrwt>
</event>
<event>
 6    1  0.1295671E-001  0.3000000E+03  0.7818608E-02  0.1093470E+00
         21   -1    0    0  501  502  0.00000000000E+00  0.00000000000E+00  0.26246772630E+01  0.26246772630E+01  0.00000000000E+00 0. -1.
         13   -1    0    0    0    0 -0.00000000000E+00 -0.00000000000E+00 -0.10000000000E+04  0.10000000000E+04  0.00000000000E+00 0.  1.
    9000005    2    1    2  501    0  0.47343982705E+02 -0.10450328622E+02 -0.33835356843E+03  0.34182188163E+03  0.28981761565E+01 0.  0.
         13    1    3    3    0    0  0.11939049355E+01 -0.67548252347E+00 -0.79149643145E+01  0.80329537366E+01  0.00000000000E+00 0.  1.
          1    1    3    3  501    0  0.46150077769E+02 -0.97748460981E+01 -0.33043860412E+03  0.33378892790E+03  0.00000000000E+00 0.  1.
         -1    1    1    2    0  502 -0.47343982705E+02  0.10450328622E+02 -0.65902175430E+03  0.66080279563E+03  0.00000000000E+00 0. -1.
<mgrwt>
<rscale>  1 0.30000000E+03</rscale>
<asrwt>0</asrwt>
<pdfrwt beam="1">  1       21 0.95443011E-02 0.30000000E+03</pdfrwt>
<pdfrwt beam="2">0</pdfrwt>
<totfact> 0.93498928E+03</totfact>
</mgrwt>
</event>
<event>
 6    1  0.1295671E-001  0.3000000E+03  0.7818608E-02  0.1093470E+00
         21   -1    0    0  501  502  0.00000000000E+00  0.00000000000E+00  0.12723986873E+01  0.12723986873E+01  0.00000000000E+00 0. -1.
         13   -1    0    0    0    0 -0.00000000000E+00 -0.00000000000E+00 -0.10000000000E+04  0.10000000000E+04  0.00000000000E+00 0.  1.
    9000005    2    1    2  501    0  0.43666552029E+01 -0.29794616234E+02 -0.23407641809E+03  0.23602850368E+03  0.33012439768E+01 0.  0.
         13    1    3    3    0    0  0.28959851021E+01 -0.95599756686E+01 -0.73627382199E+02  0.74301892803E+02  0.00000000000E+00 0.  1.
          1    1    3    3  501    0  0.14706701008E+01 -0.20234640566E+02 -0.16044903589E+03  0.16172661088E+03  0.00000000000E+00 0.  1.
         -3    1    1    2    0  502 -0.43666552029E+01  0.29794616234E+02 -0.76465118323E+03  0.76524389501E+03  0.00000000000E+00 0. -1.
<mgrwt>
<rscale>  1 0.30000000E+03</rscale>
<asrwt>0</asrwt>
<pdfrwt beam="1">  1       21 0.46269141E-02 0.30000000E+03</pdfrwt>
<pdfrwt beam="2">0</pdfrwt>
<totfact> 0.32868359E+04</totfact>
</mgrwt>
</event>
<event>
 6    1  0.1295671E-001  0.3000000E+03  0.7818608E-02  0.1093470E+00
         21   -1    0    0  501  502  0.00000000000E+00  0.00000000000E+00  0.13752098766E+01  0.13752098766E+01  0.00000000000E+00 0. -1.
         13   -1    0    0    0    0 -0.00000000000E+00 -0.00000000000E+00 -0.10000000000E+04  0.10000000000E+04  0.00000000000E+00 0.  1.
    9000005    2    1    2  501    0  0.26743624869E+02  0.17061597591E+02 -0.75762647859E+03  0.75829804982E+03  0.34251574200E+01 0.  0.
         13    1    3    3    0    0  0.50409751945E+01  0.38773068476E+01 -0.18376233546E+03  0.18387234940E+03  0.00000000000E+00 0.  1.
          1    1    3    3  501    0  0.21702649674E+02  0.13184290744E+02 -0.57386414313E+03  0.57442570042E+03  0.00000000000E+00 0.  1.
         -1    1    1    2    0  502 -0.26743624869E+02 -0.17061597591E+02 -0.24099831153E+03  0.24307716006E+03  0.00000000000E+00 0. -1.
<mgrwt>
<rscale>  1 0.30000000E+03</rscale>
<asrwt>0</asrwt>
<pdfrwt beam="1">  1       21 0.50007737E-02 0.30000000E+03</pdfrwt>
<pdfrwt beam="2">0</pdfrwt>
<totfact> 0.28797058E+04</totfact>
</mgrwt>
</event>
<event>
 6    1  0.1295671E-001  0.3000000E+03  0.7818608E-02  0.1093470E+00
         21   -1    0    0  501  502  0.00000000000E+00  0.00000000000E+00  0.36090584272E+01  0.36090584272E+01  0.00000000000E+00 0. -1.
         13   -1    0    0    0    0 -0.00000000000E+00 -0.00000000000E+00 -0.10000000000E+04  0.10000000000E+04  0.00000000000E+00 0.  1.
    9000005    2    1    2  501    0  0.22661697657E+01 -0.30456932319E+02 -0.93022196271E+03  0.93073180535E+03  0.40041651944E+01 0.  0.
         13    1    3    3    0    0  0.15984988802E+01 -0.28572603361E+02 -0.83890828148E+03  0.83939624349E+03  0.00000000000E+00 0.  1.
          3    1    3    3  501    0  0.66767088554E+00 -0.18843289584E+01 -0.91313681230E+02  0.91335561857E+02  0.00000000000E+00 0.  1.
         -3    1    1    2    0  502 -0.22661697657E+01  0.30456932319E+02 -0.66168978867E+02  0.72877253076E+02  0.00000000000E+00 0. -1.
<mgrwt>
<rscale>  1 0.30000000E+03</rscale>
<asrwt>0</asrwt>
<pdfrwt beam="1">  1       21 0.13123877E-01 0.30000000E+03</pdfrwt>
<pdfrwt beam="2">0</pdfrwt>
<totfact> 0.52645227E+03</totfact>
</mgrwt>
</event>
<event>
 6    1  0.1295671E-001  0.3000000E+03  0.7818608E-02  0.1093470E+00
         21   -1    0    0  501  502  0.00000000000E+00  0.00000000000E+00  0.12765661576E+01  0.12765661576E+01  0.00000000000E+00 0. -1.
         13   -1    0    0    0    0 -0.00000000000E+00 -0.00000000000E+00 -0.10000000000E+04  0.10000000000E+04  0.00000000000E+00 0.  1.
    9000005    2    1    2  501    0  0.27838890735E+02 -0.12937340785E+02 -0.75445344255E+03  0.75508516243E+03  0.33506597542E+01 0.  0.
         13    1    3    3    0    0  0.20399045323E+02 -0.79603461113E+01 -0.51955675551E+03  0.52001799042E+03  0.00000000000E+00 0.  1.
          3    1    3    3  501    0  0.74398454121E+01 -0.49769946739E+01 -0.23489668704E+03  0.23506717201E+03  0.00000000000E+00 0.  1.
         -3    1    1    2    0  502 -0.27838890735E+02  0.12937340785E+02 -0.24426999129E+03  0.24619140373E+03  0.00000000000E+00 0. -1.
<mgrwt>
<rscale>  1 0.30000000E+03</rscale>
<asrwt>0</asrwt>
<pdfrwt beam="1">  1       21 0.46420685E-02 0.30000000E+03</pdfrwt>
<pdfrwt beam="2">0</pdfrwt>
<totfact> 0.32686220E+04</totfact>
</mgrwt>
</event>
<event>
 6    1  0.1295671E-001  0.3000000E+03  0.7818608E-02  0.1093470E+00
         21   -1    0    0  501  502  0.00000000000E+00  0.00000000000E+00  0.13722855611E+01  0.13722855611E+01  0.00000000000E+00 0. -1.
         13   -1    0    0    0    0 -0.00000000000E+00 -0.00000000000E+00 -0.10000000000E+04  0.10000000000E+04  0.00000000000E+00 0.  1.
    9000005    2    1    2  501    0  0.19341145544E+02 -0.30820366823E+02 -0.41047801225E+03  0.41209811584E+03  0.29467968403E+01 0.  0.
         13    1    3    3    0    0  0.19199334262E+02 -0.29641980699E+02 -0.39632157022E+03  0.39789200605E+03  0.00000000000E+00 0.  1.
          3    1    3    3  501    0  0.14181128198E+00 -0.11783861241E+01 -0.14156442038E+02  0.14206109794E+02  0.00000000000E+00 0.  1.
         -1    1    1    2    0  502 -0.19341145544E+02  0.30820366823E+02 -0.58814970218E+03  0.58927416972E+03  0.00000000000E+00 0. -1.
<mgrwt>
<rscale>  1 0.30000000E+03</rscale>
<asrwt>0</asrwt>
<pdfrwt beam="1">  1       21 0.49901398E-02 0.30000000E+03</pdfrwt>
<pdfrwt beam="2">0</pdfrwt>
<totfact> 0.28901744E+04</totfact>
</mgrwt>
</event>
<event>
 6    1  0.1295671E-001  0.3000000E+03  0.7818608E-02  0.1093470E+00
         21   -1    0    0  501  502  0.00000000000E+00  0.00000000000E+00  0.17649652674E+01  0.17649652674E+01  0.00000000000E+00 0. -1.
         13   -1    0    0    0    0 -0.00000000000E+00 -0.00000000000E+00 -0.10000000000E+04  0.10000000000E+04  0.00000000000E+00 0.  1.
    9000005    2    1    2  501    0  0.26819017223E+02  0.15669024191E+02 -0.83600775521E+03  0.83659091093E+03  0.32569127929E+01 0.  0.
         13    1    3    3    0    0  0.93359777530E+01  0.45342162056E+01 -0.24482762680E+03  0.24504751874E+03  0.00000000000E+00 0.  1.
          3    1    3    3  501    0  0.17483039470E+02  0.11134807985E+02 -0.59118012841E+03  0.59154339219E+03  0.00000000000E+00 0.  1.
         -3    1    1    2    0  502 -0.26819017223E+02 -0.15669024191E+02 -0.16222727952E+03  0.16517405433E+03  0.00000000000E+00 0. -1.
<mgrwt>
<rscale>  1 0.30000000E+03</rscale>
<asrwt>0</asrwt>
<pdfrwt beam="1">  1       21 0.64180691E-02 0.30000000E+03</pdfrwt>
<pdfrwt beam="2">0</pdfrwt>
<totfact> 0.18757366E+04</totfact>
</mgrwt>
</event>
<event>
 6    1  0.1295671E-001  0.3000000E+03  0.7818608E-02  0.1093470E+00
         21   -1    0    0  501  502  0.00000000000E+00  0.00000000000E+00  0.31025827350E+01  0.31025827350E+01  0.00000000000E+00 0. -1.
         13   -1    0    0    0    0 -0.00000000000E+00 -0.00000000000E+00 -0.10000000000E+04  0.10000000000E+04  0.00000000000E+00 0.  1.
    9000005    2    1    2  501    0 -0.66515916144E+01 -0.30777420659E+02 -0.91211322664E+03  0.91266004699E+03  0.25159197971E+01 0.  0.
         13    1    3    3    0    0 -0.49434287035E+01 -0.17245520909E+02 -0.50734027373E+03  0.50765736361E+03  0.00000000000E+00 0.  1.
          1    1    3    3  501    0 -0.17081629109E+01 -0.13531899750E+02 -0.40477295292E+03  0.40500268338E+03  0.00000000000E+00 0.  1.
         -1    1    1    2    0  502  0.66515916144E+01  0.30777420659E+02 -0.84784190621E+02  0.90442535748E+02  0.00000000000E+00 0. -1.
<mgrwt>
<rscale>  1 0.30000000E+03</rscale>
<asrwt>0</asrwt>
<pdfrwt beam="1">  1       21 0.11282143E-01 0.30000000E+03</pdfrwt>
<pdfrwt beam="2">0</pdfrwt>
<totfact> 0.69286484E+03</totfact>
</mgrwt>
</event>
<event>
 6    1  0.1295671E-001  0.3000000E+03  0.7818608E-02  0.1093470E+00
         21   -1    0    0  501  502  0.00000000000E+00  0.00000000000E+00  0.10211478804E+01  0.10211478804E+01  0.00000000000E+00 0. -1.
         13   -1    0    0    0    0 -0.00000000000E+00 -0.00000000000E+00 -0.10000000000E+04  0.10000000000E+04  0.00000000000E+00 0.  1.
    9000005    2    1    2  501    0  0.16555780985E+02  0.25299857963E+02 -0.65860455104E+03  0.65930658639E+03  0.33231782812E+01 0.  0.
         13    1    3    3    0    0  0.11812802902E+02  0.18660142504E+02 -0.44800872833E+03  0.44855274371E+03  0.00000000000E+00 0.  1.
          1    1    3    3  501    0  0.47429780833E+01  0.66397154582E+01 -0.21059582271E+03  0.21075384268E+03  0.00000000000E+00 0.  1.
         -1    1    1    2    0  502 -0.16555780985E+02 -0.25299857963E+02 -0.34037430108E+03  0.34171456149E+03  0.00000000000E+00 0. -1.
<mgrwt>
<rscale>  1 0.30000000E+03</rscale>
<asrwt>0</asrwt>
<pdfrwt beam="1">  1       21 0.37132728E-02 0.30000000E+03</pdfrwt>
<pdfrwt beam="2">0</pdfrwt>
<totfact> 0.47648178E+04</totfact>
</mgrwt>
</event>
<event>
 6    1  0.1295671E-001  0.3000000E+03  0.7818608E-02  0.1093470E+00
         21   -1    0    0  501  502  0.00000000000E+00  0.00000000000E+00  0.82290852355E+01  0.82290852355E+01  0.00000000000E+00 0. -1.
         13   -1    0    0    0    0 -0.00000000000E+00 -0.00000000000E+00 -0.10000000000E+04  0.10000000000E+04  0.00000000000E+00 0.  1.
    9000005    2    1    2  501    0  0.66019490807E+02 -0.22136809930E+01 -0.84125351273E+03  0.84385462900E+03  0.44371884228E+01 0.  0.
         13    1    3    3    0    0  0.47030026892E+02 -0.17387241383E+01 -0.62407470668E+03  0.62584669538E+03  0.00000000000E+00 0.  1.
          3    1    3    3  501    0  0.18989463915E+02 -0.47495685470E+00 -0.21717880605E+03  0.21800793362E+03  0.00000000000E+00 0.  1.
         -3    1    1    2    0  502 -0.66019490807E+02  0.22136809930E+01 -0.15051740203E+03  0.16437445624E+03  0.00000000000E+00 0. -1.
<mgrwt>
<rscale>  1 0.30000000E+03</rscale>
<asrwt>0</asrwt>
<pdfrwt beam="1">  1       21 0.29924009E-01 0.30000000E+03</pdfrwt>
<pdfrwt beam="2">0</pdfrwt>
<totfact> 0.10928089E+03</totfact>
</mgrwt>
</event>
<event>
 6    1  0.1295671E-001  0.3000000E+03  0.7818608E-02  0.1093470E+00
         21   -1    0    0  501  502  0.00000000000E+00  0.00000000000E+00  0.23119549881E+01  0.23119549881E+01  0.00000000000E+00 0. -1.
         13   -1    0    0    0    0 -0.00000000000E+00 -0.00000000000E+00 -0.10000000000E+04  0.10000000000E+04  0.00000000000E+00 0.  1.
    9000005    2    1    2  501    0  0.24351632471E+02  0.21341407979E+02 -0.86902835444E+03  0.86964027875E+03  0.39339420107E+01 0.  0.
         13    1    3    3    0    0  0.28748268358E+01  0.43756480572E+01 -0.13078283467E+03  0.13088758829E+03  0.00000000000E+00 0.  1.
          1    1    3    3  501    0  0.21476805635E+02  0.16965759922E+02 -0.73824551978E+03  0.73875269046E+03  0.00000000000E+00 0.  1.
         -1    1    1    2    0  502 -0.24351632471E+02 -0.21341407979E+02 -0.12865969057E+03  0.13267167624E+03  0.00000000000E+00 0. -1.
<mgrwt>
<rscale>  1 0.30000000E+03</rscale>
<asrwt>0</asrwt>
<pdfrwt beam="1">  1       21 0.84071268E-02 0.30000000E+03</pdfrwt>
<pdfrwt beam="2">0</pdfrwt>
<totfact> 0.11705768E+04</totfact>
</mgrwt>
</event>
<event>
 6    1  0.1295671E-001  0.3000000E+03  0.7818608E-02  0.1093470E+00
         21   -1    0    0  501  502  0.00000000000E+00  0.00000000000E+00  0.98718352442E+00  0.98718352442E+00  0.00000000000E+00 0. -1.
         13   -1    0    0    0    0 -0.00000000000E+00 -0.00000000000E+00 -0.10000000000E+04  0.10000000000E+04  0.00000000000E+00 0.  1.
    9000005    2    1    2  501    0 -0.25947646291E+02  0.17107862106E+02 -0.51611057606E+03  0.51708581641E+03  0.64541088265E+01 0.  0.
         13    1    3    3    0    0 -0.16744247615E+02  0.11978990894E+02 -0.28998885662E+03  0.29071876963E+03  0.00000000000E+00 0.  1.
          1    1    3    3  501    0 -0.92033986754E+01  0.51288712122E+01 -0.22612171943E+03  0.22636704678E+03  0.00000000000E+00 0.  1.
         -1    1    1    2    0  502  0.25947646291E+02 -0.17107862106E+02 -0.48290224042E+03  0.48390136711E+03  0.00000000000E+00 0. -1.
<mgrwt>
<rscale>  1 0.30000000E+03</rscale>
<asrwt>0</asrwt>
<pdfrwt beam="1">  1       21 0.35897658E-02 0.30000000E+03</pdfrwt>
<pdfrwt beam="2">0</pdfrwt>
<totfact> 0.50430486E+04</totfact>
</mgrwt>
</event>
<event>
 6    1  0.1295671E-001  0.3000000E+03  0.7818608E-02  0.1093470E+00
         21   -1    0    0  501  502  0.00000000000E+00  0.00000000000E+00  0.36296050656E+01  0.36296050656E+01  0.00000000000E+00 0. -1.
         13   -1    0    0    0    0 -0.00000000000E+00 -0.00000000000E+00 -0.10000000000E+04  0.10000000000E+04  0.00000000000E+00 0.  1.
    9000005    2    1    2  501    0  0.46947002165E+02 -0.46576119610E+01 -0.81010589192E+03  0.81148336012E+03  0.28236988722E+01 0.  0.
         13    1    3    3    0    0  0.20535141600E+02 -0.17287321878E+01 -0.33054673551E+03  0.33118850359E+03  0.00000000000E+00 0.  1.
          1    1    3    3  501    0  0.26411860565E+02 -0.29288797733E+01 -0.47955915641E+03  0.48029485653E+03  0.00000000000E+00 0.  1.
         -1    1    1    2    0  502 -0.46947002165E+02  0.46576119610E+01 -0.18626450302E+03  0.19214624494E+03  0.00000000000E+00 0. -1.
<mgrwt>
<rscale>  1 0.30000000E+03</rscale>
<asrwt>0</asrwt>
<pdfrwt beam="1">  1       21 0.13198592E-01 0.30000000E+03</pdfrwt>
<pdfrwt beam="2">0</pdfrwt>
<totfact> 0.52101790E+03</totfact>
</mgrwt>
</event>
<event>
 6    1  0.1295671E-001  0.3000000E+03  0.7818608E-02  0.1093470E+00
         21   -1    0    0  501  502  0.00000000000E+00  0.00000000000E+00  0.26148654276E+01  0.26148654276E+01  0.00000000000E+00 0. -1.
         13   -1    0    0    0    0 -0.00000000000E+00 -0.00000000000E+00 -0.10000000000E+04  0.10000000000E+04  0.00000000000E+00 0.  1.
    9000005    2    1    2  501    0  0.16776049691E+02  0.27984233863E+02 -0.88422266318E+03  0.88484263559E+03  0.56761340399E+01 0.  0.
         13    1    3    3    0    0  0.90172256518E+01  0.18657474739E+02 -0.60963797179E+03  0.60999005597E+03  0.00000000000E+00 0.  1.
          3    1    3    3  501    0  0.77588240393E+01  0.93267591232E+01 -0.27458469138E+03  0.27485257963E+03  0.00000000000E+00 0.  1.
         -3    1    1    2    0  502 -0.16776049691E+02 -0.27984233863E+02 -0.11316247140E+03  0.11777222984E+03  0.00000000000E+00 0. -1.
<mgrwt>
<rscale>  1 0.30000000E+03</rscale>
<asrwt>0</asrwt>
<pdfrwt beam="1">  1       21 0.95086216E-02 0.30000000E+03</pdfrwt>
<pdfrwt beam="2">0</pdfrwt>
<totfact> 0.94125010E+03</totfact>
</mgrwt>
</event>
<event>
 6    1  0.1295671E-001  0.3000000E+03  0.7818608E-02  0.1093470E+00
         21   -1    0    0  501  502  0.00000000000E+00  0.00000000000E+00  0.16298089674E+01  0.16298089674E+01  0.00000000000E+00 0. -1.
         13   -1    0    0    0    0 -0.00000000000E+00 -0.00000000000E+00 -0.10000000000E+04  0.10000000000E+04  0.00000000000E+00 0.  1.
    9000005    2    1    2  501    0 -0.26119960827E+02 -0.28619431501E+02 -0.36109222989E+03  0.36317501498E+03  0.26774619701E+01 0.  0.
         13    1    3    3    0    0 -0.87350418798E+00 -0.64405767103E+00 -0.14408701421E+02  0.14449515441E+02  0.00000000000E+00 0.  1.
          1    1    3    3  501    0 -0.25246456639E+02 -0.27975373830E+02 -0.34668352847E+03  0.34872549953E+03  0.00000000000E+00 0.  1.
         -3    1    1    2    0  502  0.26119960827E+02  0.28619431501E+02 -0.63727796114E+03  0.63845479399E+03  0.00000000000E+00 0. -1.
<mgrwt>
<rscale>  1 0.30000000E+03</rscale>
<asrwt>0</asrwt>
<pdfrwt beam="1">  1       21 0.59265906E-02 0.30000000E+03</pdfrwt>
<pdfrwt beam="2">0</pdfrwt>
<totfact> 0.21523711E+04</totfact>
</mgrwt>
</event>
<event>
 6    1  0.1295671E-001  0.3000000E+03  0.7818608E-02  0.1093470E+00
         21   -1    0    0  501  502  0.00000000000E+00  0.00000000000E+00  0.19163387668E+01  0.19163387668E+01  0.00000000000E+00 0. -1.
         13   -1    0    0    0    0 -0.00000000000E+00 -0.00000000000E+00 -0.10000000000E+04  0.10000000000E+04  0.00000000000E+00 0.  1.
    9000005    2    1    2  501    0 -0.12831514574E+02 -0.28841111679E+02 -0.84576840258E+03  0.84636443261E+03  0.34791525528E+01 0.  0.
         13    1    3    3    0    0 -0.98566648069E+01 -0.25124339228E+02 -0.72580125658E+03  0.72630286405E+03  0.00000000000E+00 0.  1.
          1    1    3    3  501    0 -0.29748497671E+01 -0.37167724510E+01 -0.11996714600E+03  0.12006156857E+03  0.00000000000E+00 0.  1.
         -1    1    1    2    0  502  0.12831514574E+02  0.28841111679E+02 -0.15231525865E+03  0.15555190615E+03  0.00000000000E+00 0. -1.
<mgrwt>
<rscale>  1 0.30000000E+03</rscale>
<asrwt>0</asrwt>
<pdfrwt beam="1">  1       21 0.69685193E-02 0.30000000E+03</pdfrwt>
<pdfrwt beam="2">0</pdfrwt>
<totfact> 0.16262332E+04</totfact>
</mgrwt>
</event>
<event>
 6    1  0.1295671E-001  0.3000000E+03  0.7818608E-02  0.1093470E+00
         21   -1    0    0  501  502  0.00000000000E+00  0.00000000000E+00  0.36421219698E+01  0.36421219698E+01  0.00000000000E+00 0. -1.
         13   -1    0    0    0    0 -0.00000000000E+00 -0.00000000000E+00 -0.10000000000E+04  0.10000000000E+04  0.00000000000E+00 0.  1.
    9000005    2    1    2  501    0 -0.34659091754E+01 -0.46186276707E+02 -0.81968539702E+03  0.82099943739E+03  0.32774124672E+01 0.  0.
         13    1    3    3    0    0  0.50777918183E+00 -0.11331932732E+02 -0.19360477274E+03  0.19393679013E+03  0.00000000000E+00 0.  1.
          1    1    3    3  501    0 -0.39736883572E+01 -0.34854343975E+02 -0.62608062428E+03  0.62706264726E+03  0.00000000000E+00 0.  1.
         -1    1    1    2    0  502  0.34659091754E+01  0.46186276707E+02 -0.17667248101E+03  0.18264268458E+03  0.00000000000E+00 0. -1.
<mgrwt>
<rscale>  1 0.30000000E+03</rscale>
<asrwt>0</asrwt>
<pdfrwt beam="1">  1       21 0.13244108E-01 0.30000000E+03</pdfrwt>
<pdfrwt beam="2">0</pdfrwt>
<totfact> 0.51774860E+03</totfact>
</mgrwt>
</event>
<event>
 6    1  0.1295671E-001  0.3000000E+03  0.7818608E-02  0.1093470E+00
         21   -1    0    0  501  502  0.00000000000E+00  0.00000000000E+00  0.10939113857E+02  0.10939113857E+02  0.00000000000E+00 0. -1.
         13   -1    0    0    0    0 -0.00000000000E+00 -0.00000000000E+00 -0.10000000000E+04  0.10000000000E+04  0.00000000000E+00 0.  1.
    9000005    2    1    2  501    0 -0.16068087233E+02  0.98726555261E+02 -0.64180426132E+03  0.64956357564E+03  0.38746358944E+01 0.  0.
         13    1    3    3    0    0 -0.15125327007E+02  0.84655515857E+02 -0.54998430132E+03  0.55666692338E+03  0.00000000000E+00 0.  1.
          1    1    3    3  501    0 -0.94276022649E+00  0.14071039404E+02 -0.91819959999E+02  0.92896652259E+02  0.00000000000E+00 0.  1.
         -3    1    1    2    0  502  0.16068087233E+02 -0.98726555261E+02 -0.34725662482E+03  0.36137553822E+03  0.00000000000E+00 0. -1.
<mgrwt>
<rscale>  1 0.30000000E+03</rscale>
<asrwt>0</asrwt>
<pdfrwt beam="1">  1       21 0.39778680E-01 0.30000000E+03</pdfrwt>
<pdfrwt beam="2">0</pdfrwt>
<totfact> 0.61105269E+02</totfact>
</mgrwt>
</event>
<event>
 6    1  0.1295671E-001  0.3000000E+03  0.7818608E-02  0.1093470E+00
         21   -1    0    0  501  502  0.00000000000E+00  0.00000000000E+00  0.16408229766E+01  0.16408229766E+01  0.00000000000E+00 0. -1.
         13   -1    0    0    0    0 -0.00000000000E+00 -0.00000000000E+00 -0.10000000000E+04  0.10000000000E+04  0.00000000000E+00 0.  1.
    9000005    2    1    2  501    0  0.26726582116E+02 -0.16977035784E+02 -0.81102501316E+03  0.81164972086E+03  0.33417741606E+01 0.  0.
         13    1    3    3    0    0  0.13633888189E+01 -0.77369482031E+00 -0.25330548750E+02  0.25379009687E+02  0.00000000000E+00 0.  1.
          3    1    3    3  501    0  0.25363193297E+02 -0.16203340963E+02 -0.78569446441E+03  0.78627071117E+03  0.00000000000E+00 0.  1.
         -1    1    1    2    0  502 -0.26726582116E+02  0.16977035784E+02 -0.18733416386E+03  0.18999110212E+03  0.00000000000E+00 0. -1.
<mgrwt>
<rscale>  1 0.30000000E+03</rscale>
<asrwt>0</asrwt>
<pdfrwt beam="1">  1       21 0.59666416E-02 0.30000000E+03</pdfrwt>
<pdfrwt beam="2">0</pdfrwt>
<totfact> 0.21275231E+04</totfact>
</mgrwt>
</event>
<event>
 6    1  0.1295671E-001  0.3000000E+03  0.7818608E-02  0.1093470E+00
         21   -1    0    0  501  502  0.00000000000E+00  0.00000000000E+00  0.16782633602E+01  0.16782633602E+01  0.00000000000E+00 0. -1.
         13   -1    0    0    0    0 -0.00000000000E+00 -0.00000000000E+00 -0.10000000000E+04  0.10000000000E+04  0.00000000000E+00 0.  1.
    9000005    2    1    2  501    0  0.29762470172E+02  0.45128012894E+01 -0.83726220246E+03  0.83782972490E+03  0.66695012747E+01 0.  0.
         13    1    3    3    0    0  0.12662596758E+02  0.25856630387E+01 -0.44971941872E+03  0.44990508175E+03  0.00000000000E+00 0.  1.
          3    1    3    3  501    0  0.17099873414E+02  0.19271382507E+01 -0.38754278374E+03  0.38792464314E+03  0.00000000000E+00 0.  1.
         -1    1    1    2    0  502 -0.29762470172E+02 -0.45128012894E+01 -0.16105953418E+03  0.16384853846E+03  0.00000000000E+00 0. -1.
<mgrwt>
<rscale>  1 0.30000000E+03</rscale>
<asrwt>0</asrwt>
<pdfrwt beam="1">  1       21 0.61027887E-02 0.30000000E+03</pdfrwt>
<pdfrwt beam="2">0</pdfrwt>
<totfact> 0.20463110E+04</totfact>
</mgrwt>
</event>
<event>
 6    1  0.1295671E-001  0.3000000E+03  0.7818608E-02  0.1093470E+00
         21   -1    0    0  501  502  0.00000000000E+00  0.00000000000E+00  0.21726483611E+01  0.21726483611E+01  0.00000000000E+00 0. -1.
         13   -1    0    0    0    0 -0.00000000000E+00 -0.00000000000E+00 -0.10000000000E+04  0.10000000000E+04  0.00000000000E+00 0.  1.
    9000005    2    1    2  501    0  0.39069089879E+02 -0.20572705408E+02 -0.65867707784E+03  0.66016016582E+03  0.25142952083E+01 0.  0.
         13    1    3    3    0    0  0.36041927019E+02 -0.19483703522E+02 -0.60312427047E+03  0.60451428506E+03  0.00000000000E+00 0.  1.
          3    1    3    3  501    0  0.30271628597E+01 -0.10890018859E+01 -0.55552807364E+02  0.55645880765E+02  0.00000000000E+00 0.  1.
         -3    1    1    2    0  502 -0.39069089879E+02  0.20572705408E+02 -0.33915027380E+03  0.34201248254E+03  0.00000000000E+00 0. -1.
<mgrwt>
<rscale>  1 0.30000000E+03</rscale>
<asrwt>0</asrwt>
<pdfrwt beam="1">  1       21 0.79005562E-02 0.30000000E+03</pdfrwt>
<pdfrwt beam="2">0</pdfrwt>
<totfact> 0.13057522E+04</totfact>
</mgrwt>
</event>
<event>
 6    1  0.1295671E-001  0.3000000E+03  0.7818608E-02  0.1093470E+00
         21   -1    0    0  501  502  0.00000000000E+00  0.00000000000E+00  0.10126683255E+01  0.10126683255E+01  0.00000000000E+00 0. -1.
         13   -1    0    0    0    0 -0.00000000000E+00 -0.00000000000E+00 -0.10000000000E+04  0.10000000000E+04  0.00000000000E+00 0.  1.
    9000005    2    1    2  501    0 -0.27969259612E+02  0.13109534815E+02 -0.47631806879E+03  0.47743144469E+03  0.10379900309E+02 0.  0.
         13    1    3    3    0    0 -0.12513780153E+02  0.86933250588E+01 -0.16617160715E+03  0.16686872570E+03  0.00000000000E+00 0.  1.
          3    1    3    3  501    0 -0.15455479459E+02  0.44162097561E+01 -0.31014646164E+03  0.31056271899E+03  0.00000000000E+00 0.  1.
         -1    1    1    2    0  502  0.27969259612E+02 -0.13109534815E+02 -0.52266926288E+03  0.52358122364E+03  0.00000000000E+00 0. -1.
<mgrwt>
<rscale>  1 0.30000000E+03</rscale>
<asrwt>0</asrwt>
<pdfrwt beam="1">  1       21 0.36824380E-02 0.30000000E+03</pdfrwt>
<pdfrwt beam="2">0</pdfrwt>
<totfact> 0.48319739E+04</totfact>
</mgrwt>
</event>
<event>
 6    1  0.1295671E-001  0.3000000E+03  0.7818608E-02  0.1093470E+00
         21   -1    0    0  501  502  0.00000000000E+00  0.00000000000E+00  0.26991513283E+01  0.26991513283E+01  0.00000000000E+00 0. -1.
         13   -1    0    0    0    0 -0.00000000000E+00 -0.00000000000E+00 -0.10000000000E+04  0.10000000000E+04  0.00000000000E+00 0.  1.
    9000005    2    1    2  501    0 -0.60520528028E+01  0.37844018440E+02 -0.83683494063E+03  0.83772004745E+03  0.36555376028E+01 0.  0.
         13    1    3    3    0    0 -0.59800856528E+01  0.35337494675E+02 -0.79782665052E+03  0.79863124422E+03  0.00000000000E+00 0.  1.
          3    1    3    3  501    0 -0.71967150072E-01  0.25065237651E+01 -0.39008290110E+02  0.39088803230E+02  0.00000000000E+00 0.  1.
         -3    1    1    2    0  502  0.60520528028E+01 -0.37844018440E+02 -0.16046590804E+03  0.16497910388E+03  0.00000000000E+00 0. -1.
<mgrwt>
<rscale>  1 0.30000000E+03</rscale>
<asrwt>0</asrwt>
<pdfrwt beam="1">  1       21 0.98151164E-02 0.30000000E+03</pdfrwt>
<pdfrwt beam="2">0</pdfrwt>
<totfact> 0.88947460E+03</totfact>
</mgrwt>
</event>
<event>
 6    1  0.1295671E-001  0.3000000E+03  0.7818608E-02  0.1093470E+00
         21   -1    0    0  501  502  0.00000000000E+00  0.00000000000E+00  0.18939084538E+01  0.18939084538E+01  0.00000000000E+00 0. -1.
         13   -1    0    0    0    0 -0.00000000000E+00 -0.00000000000E+00 -0.10000000000E+04  0.10000000000E+04  0.00000000000E+00 0.  1.
    9000005    2    1    2  501    0  0.28560612261E+02 -0.15245590565E+02 -0.83349992985E+03  0.83413418422E+03  0.30931587666E+01 0.  0.
         13    1    3    3    0    0  0.12987119073E+02 -0.82987424157E+01 -0.42054066749E+03  0.42082298820E+03  0.00000000000E+00 0.  1.
          3    1    3    3  501    0  0.15573493188E+02 -0.69468481497E+01 -0.41295926236E+03  0.41331119602E+03  0.00000000000E+00 0.  1.
         -1    1    1    2    0  502 -0.28560612261E+02  0.15245590565E+02 -0.16460616170E+03  0.16775972423E+03  0.00000000000E+00 0. -1.
<mgrwt>
<rscale>  1 0.30000000E+03</rscale>
<asrwt>0</asrwt>
<pdfrwt beam="1">  1       21 0.68869544E-02 0.30000000E+03</pdfrwt>
<pdfrwt beam="2">0</pdfrwt>
<totfact> 0.16598711E+04</totfact>
</mgrwt>
</event>
<event>
 6    1  0.1295671E-001  0.3000000E+03  0.7818608E-02  0.1093470E+00
         21   -1    0    0  501  502  0.00000000000E+00  0.00000000000E+00  0.14550379668E+01  0.14550379668E+01  0.00000000000E+00 0. -1.
         13   -1    0    0    0    0 -0.00000000000E+00 -0.00000000000E+00 -0.10000000000E+04  0.10000000000E+04  0.00000000000E+00 0.  1.
    9000005    2    1    2  501    0  0.26090896520E+01 -0.35458001981E+02 -0.67600074223E+03  0.67695719363E+03  0.54736873632E+01 0.  0.
         13    1    3    3    0    0  0.36860545691E+01 -0.15585287848E+02 -0.32024354829E+03  0.32064375625E+03  0.00000000000E+00 0.  1.
          3    1    3    3  501    0 -0.10769649171E+01 -0.19872714134E+02 -0.35575719394E+03  0.35631343738E+03  0.00000000000E+00 0.  1.
         -3    1    1    2    0  502 -0.26090896520E+01  0.35458001981E+02 -0.32254421980E+03  0.32449784434E+03  0.00000000000E+00 0. -1.
<mgrwt>
<rscale>  1 0.30000000E+03</rscale>
<asrwt>0</asrwt>
<pdfrwt beam="1">  1       21 0.52910583E-02 0.30000000E+03</pdfrwt>
<pdfrwt beam="2">0</pdfrwt>
<totfact> 0.26152277E+04</totfact>
</mgrwt>
</event>
<event>
 6    1  0.1295671E-001  0.3000000E+03  0.7818608E-02  0.1093470E+00
         21   -1    0    0  501  502  0.00000000000E+00  0.00000000000E+00  0.13957040652E+01  0.13957040652E+01  0.00000000000E+00 0. -1.
         13   -1    0    0    0    0 -0.00000000000E+00 -0.00000000000E+00 -0.10000000000E+04  0.10000000000E+04  0.00000000000E+00 0.  1.
    9000005    2    1    2  501    0 -0.35152043610E+02 -0.11337844434E+02 -0.43151203132E+03  0.43310189847E+03  0.32262055692E+01 0.  0.
         13    1    3    3    0    0 -0.29114007003E+01 -0.10115101328E+01 -0.26880589497E+02  0.27056708937E+02  0.00000000000E+00 0.  1.
          1    1    3    3  501    0 -0.32240642910E+02 -0.10326334301E+02 -0.40463144182E+03  0.40604518954E+03  0.00000000000E+00 0.  1.
         -1    1    1    2    0  502  0.35152043610E+02  0.11337844434E+02 -0.56709226461E+03  0.56829380559E+03  0.00000000000E+00 0. -1.
<mgrwt>
<rscale>  1 0.30000000E+03</rscale>
<asrwt>0</asrwt>
<pdfrwt beam="1">  1       21 0.50752982E-02 0.30000000E+03</pdfrwt>
<pdfrwt beam="2">0</pdfrwt>
<totfact> 0.28079682E+04</totfact>
</mgrwt>
</event>
<event>
 6    1  0.1295671E-001  0.3000000E+03  0.7818608E-02  0.1093470E+00
         21   -1    0    0  501  502  0.00000000000E+00  0.00000000000E+00  0.30855052908E+01  0.30855052908E+01  0.00000000000E+00 0. -1.
         13   -1    0    0    0    0 -0.00000000000E+00 -0.00000000000E+00 -0.10000000000E+04  0.10000000000E+04  0.00000000000E+00 0.  1.
    9000005    2    1    2  501    0 -0.33084132277E+02 -0.27012105609E+02 -0.81898428370E+03  0.82010087848E+03  0.24454619634E+01 0.  0.
         13    1    3    3    0    0 -0.12092464650E+02 -0.10536221825E+02 -0.28726449145E+03  0.28771188318E+03  0.00000000000E+00 0.  1.
          3    1    3    3  501    0 -0.20991667628E+02 -0.16475883784E+02 -0.53171979225E+03  0.53238899531E+03  0.00000000000E+00 0.  1.
         -3    1    1    2    0  502  0.33084132277E+02  0.27012105609E+02 -0.17793021101E+03  0.18298462681E+03  0.00000000000E+00 0. -1.
<mgrwt>
<rscale>  1 0.30000000E+03</rscale>
<asrwt>0</asrwt>
<pdfrwt beam="1">  1       21 0.11220043E-01 0.30000000E+03</pdfrwt>
<pdfrwt beam="2">0</pdfrwt>
<totfact> 0.69979345E+03</totfact>
</mgrwt>
</event>
<event>
 6    1  0.1295671E-001  0.3000000E+03  0.7818608E-02  0.1093470E+00
         21   -1    0    0  501  502  0.00000000000E+00  0.00000000000E+00  0.17469869159E+01  0.17469869159E+01  0.00000000000E+00 0. -1.
         13   -1    0    0    0    0 -0.00000000000E+00 -0.00000000000E+00 -0.10000000000E+04  0.10000000000E+04  0.00000000000E+00 0.  1.
    9000005    2    1    2  501    0  0.39235178426E+02 -0.13958364388E+02 -0.47165865530E+03  0.47350854378E+03  0.37707751840E+01 0.  0.
         13    1    3    3    0    0  0.18002152269E+02 -0.57626617946E+01 -0.19402483689E+03  0.19494338431E+03  0.00000000000E+00 0.  1.
          3    1    3    3  501    0  0.21233026157E+02 -0.81957025932E+01 -0.27763381841E+03  0.27856515946E+03  0.00000000000E+00 0.  1.
         -3    1    1    2    0  502 -0.39235178426E+02  0.13958364388E+02 -0.52659435778E+03  0.52823844314E+03  0.00000000000E+00 0. -1.
<mgrwt>
<rscale>  1 0.30000000E+03</rscale>
<asrwt>0</asrwt>
<pdfrwt beam="1">  1       21 0.63526931E-02 0.30000000E+03</pdfrwt>
<pdfrwt beam="2">0</pdfrwt>
<totfact> 0.19092499E+04</totfact>
</mgrwt>
</event>
<event>
 6    1  0.1295671E-001  0.3000000E+03  0.7818608E-02  0.1093470E+00
         21   -1    0    0  501  502  0.00000000000E+00  0.00000000000E+00  0.12554683166E+01  0.12554683166E+01  0.00000000000E+00 0. -1.
         13   -1    0    0    0    0 -0.00000000000E+00 -0.00000000000E+00 -0.10000000000E+04  0.10000000000E+04  0.00000000000E+00 0.  1.
    9000005    2    1    2  501    0  0.28375651147E+02 -0.20592873592E+02 -0.55130111985E+03  0.55244052782E+03  0.53261626197E+01 0.  0.
         13    1    3    3    0    0  0.27622763682E+02 -0.19533675964E+02 -0.54115842353E+03  0.54221492134E+03  0.00000000000E+00 0.  1.
          3    1    3    3  501    0  0.75288746496E+00 -0.10591976288E+01 -0.10142696322E+02  0.10225606478E+02  0.00000000000E+00 0.  1.
         -1    1    1    2    0  502 -0.28375651147E+02  0.20592873592E+02 -0.44744341184E+03  0.44881494050E+03  0.00000000000E+00 0. -1.
<mgrwt>
<rscale>  1 0.30000000E+03</rscale>
<asrwt>0</asrwt>
<pdfrwt beam="1">  1       21 0.45653490E-02 0.30000000E+03</pdfrwt>
<pdfrwt beam="2">0</pdfrwt>
<totfact> 0.33624931E+04</totfact>
</mgrwt>
</event>
<event>
 6    1  0.1295671E-001  0.3000000E+03  0.7818608E-02  0.1093470E+00
         21   -1    0    0  501  502  0.00000000000E+00  0.00000000000E+00  0.27153831792E+01  0.27153831792E+01  0.00000000000E+00 0. -1.
         13   -1    0    0    0    0 -0.00000000000E+00 -0.00000000000E+00 -0.10000000000E+04  0.10000000000E+04  0.00000000000E+00 0.  1.
    9000005    2    1    2  501    0 -0.45813804765E+01 -0.37441378103E+02 -0.84427006995E+03  0.84512002349E+03  0.36134816981E+01 0.  0.
         13    1    3    3    0    0  0.58212732318E+00 -0.51172795504E+01 -0.12127873365E+03  0.12138804166E+03  0.00000000000E+00 0.  1.
          3    1    3    3  501    0 -0.51635077996E+01 -0.32324098552E+02 -0.72299133630E+03  0.72373198183E+03  0.00000000000E+00 0.  1.
         -3    1    1    2    0  502  0.45813804765E+01  0.37441378103E+02 -0.15301454687E+03  0.15759535969E+03  0.00000000000E+00 0. -1.
<mgrwt>
<rscale>  1 0.30000000E+03</rscale>
<asrwt>0</asrwt>
<pdfrwt beam="1">  1       21 0.98741415E-02 0.30000000E+03</pdfrwt>
<pdfrwt beam="2">0</pdfrwt>
<totfact> 0.88000477E+03</totfact>
</mgrwt>
</event>
<event>
 6    1  0.1295671E-001  0.3000000E+03  0.7818608E-02  0.1093470E+00
         21   -1    0    0  501  502  0.00000000000E+00  0.00000000000E+00  0.21182751072E+01  0.21182751072E+01  0.00000000000E+00 0. -1.
         13   -1    0    0    0    0 -0.00000000000E+00 -0.00000000000E+00 -0.10000000000E+04  0.10000000000E+04  0.00000000000E+00 0.  1.
    9000005    2    1    2  501    0  0.84093426664E+01  0.38402852241E+02 -0.75899204020E+03  0.76001545076E+03  0.30120096605E+01 0.  0.
         13    1    3    3    0    0  0.77486194646E+01  0.36414597389E+02 -0.72924025889E+03  0.73018998842E+03  0.00000000000E+00 0.  1.
          3    1    3    3  501    0  0.66072320183E+00  0.19882548520E+01 -0.29751781318E+02  0.29825462345E+02  0.00000000000E+00 0.  1.
         -1    1    1    2    0  502 -0.84093426664E+01 -0.38402852241E+02 -0.23888968469E+03  0.24210282434E+03  0.00000000000E+00 0. -1.
<mgrwt>
<rscale>  1 0.30000000E+03</rscale>
<asrwt>0</asrwt>
<pdfrwt beam="1">  1       21 0.77028348E-02 0.30000000E+03</pdfrwt>
<pdfrwt beam="2">0</pdfrwt>
<totfact> 0.13651117E+04</totfact>
</mgrwt>
</event>
<event>
 6    1  0.1295671E-001  0.3000000E+03  0.7818608E-02  0.1093470E+00
         21   -1    0    0  501  502  0.00000000000E+00  0.00000000000E+00  0.13285271725E+01  0.13285271725E+01  0.00000000000E+00 0. -1.
         13   -1    0    0    0    0 -0.00000000000E+00 -0.00000000000E+00 -0.10000000000E+04  0.10000000000E+04  0.00000000000E+00 0.  1.
    9000005    2    1    2  501    0 -0.34786403687E+02 -0.68455529926E+01 -0.60943782884E+03  0.61048356419E+03  0.43312177721E+01 0.  0.
         13    1    3    3    0    0 -0.11574901879E+02 -0.40583018454E+00 -0.18351736685E+03  0.18388248146E+03  0.00000000000E+00 0.  1.
          1    1    3    3  501    0 -0.23211501808E+02 -0.64397228081E+01 -0.42592046199E+03  0.42660108273E+03  0.00000000000E+00 0.  1.
         -1    1    1    2    0  502  0.34786403687E+02  0.68455529926E+01 -0.38923364398E+03  0.39084496298E+03  0.00000000000E+00 0. -1.
<mgrwt>
<rscale>  1 0.30000000E+03</rscale>
<asrwt>0</asrwt>
<pdfrwt beam="1">  1       21 0.48310181E-02 0.30000000E+03</pdfrwt>
<pdfrwt beam="2">0</pdfrwt>
<totfact> 0.30541899E+04</totfact>
</mgrwt>
</event>
<event>
 6    1  0.1295671E-001  0.3000000E+03  0.7818608E-02  0.1093470E+00
         21   -1    0    0  501  502  0.00000000000E+00  0.00000000000E+00  0.11548843073E+01  0.11548843073E+01  0.00000000000E+00 0. -1.
         13   -1    0    0    0    0 -0.00000000000E+00 -0.00000000000E+00 -0.10000000000E+04  0.10000000000E+04  0.00000000000E+00 0.  1.
    9000005    2    1    2  501    0  0.67365856938E+01  0.31420752332E+02 -0.66011370554E+03  0.66090260512E+03  0.30828487930E+01 0.  0.
         13    1    3    3    0    0  0.86504201653E+00  0.58236691482E+01 -0.99371161862E+02  0.99545422948E+02  0.00000000000E+00 0.  1.
          3    1    3    3  501    0  0.58715436773E+01  0.25597083184E+02 -0.56074254368E+03  0.56135718218E+03  0.00000000000E+00 0.  1.
         -1    1    1    2    0  502 -0.67365856938E+01 -0.31420752332E+02 -0.33873141015E+03  0.34025227918E+03  0.00000000000E+00 0. -1.
<mgrwt>
<rscale>  1 0.30000000E+03</rscale>
<asrwt>0</asrwt>
<pdfrwt beam="1">  1       21 0.41995882E-02 0.30000000E+03</pdfrwt>
<pdfrwt beam="2">0</pdfrwt>
<totfact> 0.38732872E+04</totfact>
</mgrwt>
</event>
<event>
 6    1  0.1295671E-001  0.3000000E+03  0.7818608E-02  0.1093470E+00
         21   -1    0    0  501  502  0.00000000000E+00  0.00000000000E+00  0.14854071852E+01  0.14854071852E+01  0.00000000000E+00 0. -1.
         13   -1    0    0    0    0 -0.00000000000E+00 -0.00000000000E+00 -0.10000000000E+04  0.10000000000E+04  0.00000000000E+00 0.  1.
    9000005    2    1    2  501    0  0.23286339930E+02  0.22739371748E+02 -0.76668158516E+03  0.76737885860E+03  0.32135555535E+01 0.  0.
         13    1    3    3    0    0  0.20677297131E+02  0.18749837393E+02 -0.64355273627E+03  0.64415776902E+03  0.00000000000E+00 0.  1.
          3    1    3    3  501    0  0.26090427992E+01  0.39895343551E+01 -0.12312884889E+03  0.12322108958E+03  0.00000000000E+00 0.  1.
         -3    1    1    2    0  502 -0.23286339930E+02 -0.22739371748E+02 -0.23183300765E+03  0.23410654859E+03  0.00000000000E+00 0. -1.
<mgrwt>
<rscale>  1 0.30000000E+03</rscale>
<asrwt>0</asrwt>
<pdfrwt beam="1">  1       21 0.54014921E-02 0.30000000E+03</pdfrwt>
<pdfrwt beam="2">0</pdfrwt>
<totfact> 0.25243945E+04</totfact>
</mgrwt>
</event>
<event>
 6    1  0.1295671E-001  0.3000000E+03  0.7818608E-02  0.1093470E+00
         21   -1    0    0  501  502  0.00000000000E+00  0.00000000000E+00  0.14484044176E+01  0.14484044176E+01  0.00000000000E+00 0. -1.
         13   -1    0    0    0    0 -0.00000000000E+00 -0.00000000000E+00 -0.10000000000E+04  0.10000000000E+04  0.00000000000E+00 0.  1.
    9000005    2    1    2  501    0 -0.11144402637E+02  0.35444576235E+02 -0.60394457987E+03  0.60509602011E+03  0.34091505778E+01 0.  0.
         13    1    3    3    0    0 -0.78727080016E+01  0.24845191386E+02 -0.39731791844E+03  0.39817181138E+03  0.00000000000E+00 0.  1.
          1    1    3    3  501    0 -0.32716946351E+01  0.10599384849E+02 -0.20662666143E+03  0.20692420873E+03  0.00000000000E+00 0.  1.
         -1    1    1    2    0  502  0.11144402637E+02 -0.35444576235E+02 -0.39460701572E+03  0.39635238431E+03  0.00000000000E+00 0. -1.
<mgrwt>
<rscale>  1 0.30000000E+03</rscale>
<asrwt>0</asrwt>
<pdfrwt beam="1">  1       21 0.52669363E-02 0.30000000E+03</pdfrwt>
<pdfrwt beam="2">0</pdfrwt>
<totfact> 0.26357413E+04</totfact>
</mgrwt>
</event>
<event>
 6    1  0.1295671E-001  0.3000000E+03  0.7818608E-02  0.1093470E+00
         21   -1    0    0  501  502  0.00000000000E+00  0.00000000000E+00  0.12068161410E+02  0.12068161410E+02  0.00000000000E+00 0. -1.
         13   -1    0    0    0    0 -0.00000000000E+00 -0.00000000000E+00 -0.10000000000E+04  0.10000000000E+04  0.00000000000E+00 0.  1.
    9000005    2    1    2  501    0  0.70940444113E+02  0.12430403162E+02 -0.87603010714E+03  0.87899277287E+03  0.35333564475E+01 0.  0.
         13    1    3    3    0    0  0.75603265660E+00 -0.20981857235E+00 -0.81490746960E+01  0.81867592863E+01  0.00000000000E+00 0.  1.
          3    1    3    3  501    0  0.70184411457E+02  0.12640221735E+02 -0.86788103244E+03  0.87080601358E+03  0.00000000000E+00 0.  1.
         -1    1    1    2    0  502 -0.70940444113E+02 -0.12430403162E+02 -0.11190173145E+03  0.13307538854E+03  0.00000000000E+00 0. -1.
<mgrwt>
<rscale>  1 0.30000000E+03</rscale>
<asrwt>0</asrwt>
<pdfrwt beam="1">  1       21 0.43884316E-01 0.30000000E+03</pdfrwt>
<pdfrwt beam="2">0</pdfrwt>
<totfact> 0.49690414E+02</totfact>
</mgrwt>
</event>
<event>
 6    1  0.1295671E-001  0.3000000E+03  0.7818608E-02  0.1093470E+00
         21   -1    0    0  501  502  0.00000000000E+00  0.00000000000E+00  0.95208029558E+01  0.95208029558E+01  0.00000000000E+00 0. -1.
         13   -1    0    0    0    0 -0.00000000000E+00 -0.00000000000E+00 -0.10000000000E+04  0.10000000000E+04  0.00000000000E+00 0.  1.
    9000005    2    1    2  501    0  0.60004370249E+01 -0.97254818214E+02 -0.47217766030E+03  0.48213954817E+03  0.35065810592E+01 0.  0.
         13    1    3    3    0    0  0.12086221193E+01 -0.34355561367E+02 -0.15965713233E+03  0.16331615128E+03  0.00000000000E+00 0.  1.
          3    1    3    3  501    0  0.47918149056E+01 -0.62899256847E+02 -0.31252052797E+03  0.31882339689E+03  0.00000000000E+00 0.  1.
         -3    1    1    2    0  502 -0.60004370249E+01  0.97254818214E+02 -0.51830153674E+03  0.52738125479E+03  0.00000000000E+00 0. -1.
<mgrwt>
<rscale>  1 0.30000000E+03</rscale>
<asrwt>0</asrwt>
<pdfrwt beam="1">  1       21 0.34621175E-01 0.30000000E+03</pdfrwt>
<pdfrwt beam="2">0</pdfrwt>
<totfact> 0.81369569E+02</totfact>
</mgrwt>
</event>
<event>
 6    1  0.1295671E-001  0.3000000E+03  0.7818608E-02  0.1093470E+00
         21   -1    0    0  501  502  0.00000000000E+00  0.00000000000E+00  0.22168332963E+01  0.22168332963E+01  0.00000000000E+00 0. -1.
         13   -1    0    0    0    0 -0.00000000000E+00 -0.00000000000E+00 -0.10000000000E+04  0.10000000000E+04  0.00000000000E+00 0.  1.
    9000005    2    1    2  501    0  0.13119358859E+02  0.35100905669E+02 -0.19766395248E+03  0.20122061101E+03  0.38085466231E+01 0.  0.
         13    1    3    3    0    0  0.85414211263E+00  0.58513978201E+00 -0.54522754191E+01  0.55497076102E+01  0.00000000000E+00 0.  1.
          1    1    3    3  501    0  0.12265216746E+02  0.34515765887E+02 -0.19221167707E+03  0.19567090340E+03  0.00000000000E+00 0.  1.
         -1    1    1    2    0  502 -0.13119358859E+02 -0.35100905669E+02 -0.80011921422E+03  0.80099622229E+03  0.00000000000E+00 0. -1.
<mgrwt>
<rscale>  1 0.30000000E+03</rscale>
<asrwt>0</asrwt>
<pdfrwt beam="1">  1       21 0.80612290E-02 0.30000000E+03</pdfrwt>
<pdfrwt beam="2">0</pdfrwt>
<totfact> 0.12603903E+04</totfact>
</mgrwt>
</event>
<event>
 6    1  0.1295671E-001  0.3000000E+03  0.7818608E-02  0.1093470E+00
         21   -1    0    0  501  502  0.00000000000E+00  0.00000000000E+00  0.96669087378E+00  0.96669087378E+00  0.00000000000E+00 0. -1.
         13   -1    0    0    0    0 -0.00000000000E+00 -0.00000000000E+00 -0.10000000000E+04  0.10000000000E+04  0.00000000000E+00 0.  1.
    9000005    2    1    2  501    0 -0.27831760362E+02  0.13031872709E+02 -0.56659605482E+03  0.56743881921E+03  0.33597062256E+01 0.  0.
         13    1    3    3    0    0 -0.25593388181E+01  0.25045543862E+00 -0.41511982926E+02  0.41591557672E+02  0.00000000000E+00 0.  1.
          3    1    3    3  501    0 -0.25272421544E+02  0.12781417271E+02 -0.52508407189E+03  0.52584726154E+03  0.00000000000E+00 0.  1.
         -1    1    1    2    0  502  0.27831760362E+02 -0.13031872709E+02 -0.43243725431E+03  0.43352787166E+03  0.00000000000E+00 0. -1.
<mgrwt>
<rscale>  1 0.30000000E+03</rscale>
<asrwt>0</asrwt>
<pdfrwt beam="1">  1       21 0.35152470E-02 0.30000000E+03</pdfrwt>
<pdfrwt beam="2">0</pdfrwt>
<totfact> 0.52235161E+04</totfact>
</mgrwt>
</event>
<event>
 6    1  0.1295671E-001  0.3000000E+03  0.7818608E-02  0.1093470E+00
         21   -1    0    0  501  502  0.00000000000E+00  0.00000000000E+00  0.99724414848E+00  0.99724414848E+00  0.00000000000E+00 0. -1.
         13   -1    0    0    0    0 -0.00000000000E+00 -0.00000000000E+00 -0.10000000000E+04  0.10000000000E+04  0.00000000000E+00 0.  1.
    9000005    2    1    2  501    0 -0.27703812588E+02 -0.12109144418E+02 -0.64042829684E+03  0.64115036662E+03  0.33550879679E+01 0.  0.
         13    1    3    3    0    0 -0.57079219158E+01 -0.36433217322E+01 -0.16321300959E+03  0.16335342257E+03  0.00000000000E+00 0.  1.
          3    1    3    3  501    0 -0.21995890672E+02 -0.84658226854E+01 -0.47721528725E+03  0.47779694405E+03  0.00000000000E+00 0.  1.
         -1    1    1    2    0  502  0.27703812588E+02  0.12109144418E+02 -0.35857445901E+03  0.35984687753E+03  0.00000000000E+00 0. -1.
<mgrwt>
<rscale>  1 0.30000000E+03</rscale>
<asrwt>0</asrwt>
<pdfrwt beam="1">  1       21 0.36263500E-02 0.30000000E+03</pdfrwt>
<pdfrwt beam="2">0</pdfrwt>
<totfact> 0.49580171E+04</totfact>
</mgrwt>
</event>
<event>
 6    1  0.1295671E-001  0.3000000E+03  0.7818608E-02  0.1093470E+00
         21   -1    0    0  501  502  0.00000000000E+00  0.00000000000E+00  0.11382668674E+01  0.11382668674E+01  0.00000000000E+00 0. -1.
         13   -1    0    0    0    0 -0.00000000000E+00 -0.00000000000E+00 -0.10000000000E+04  0.10000000000E+04  0.00000000000E+00 0.  1.
    9000005    2    1    2  501    0 -0.28805337292E+02 -0.17263071318E+02 -0.48179841941E+03  0.48298555628E+03  0.41916040547E+01 0.  0.
         13    1    3    3    0    0 -0.13179913348E+02 -0.10328357794E+02 -0.24155587398E+03  0.24213555159E+03  0.00000000000E+00 0.  1.
          1    1    3    3  501    0 -0.15625423944E+02 -0.69347135241E+01 -0.24024254542E+03  0.24085000469E+03  0.00000000000E+00 0.  1.
         -1    1    1    2    0  502  0.28805337292E+02  0.17263071318E+02 -0.51706331373E+03  0.51815271059E+03  0.00000000000E+00 0. -1.
<mgrwt>
<rscale>  1 0.30000000E+03</rscale>
<asrwt>0</asrwt>
<pdfrwt beam="1">  1       21 0.41391610E-02 0.30000000E+03</pdfrwt>
<pdfrwt beam="2">0</pdfrwt>
<totfact> 0.39692084E+04</totfact>
</mgrwt>
</event>
<event>
 6    1  0.1295671E-001  0.3000000E+03  0.7818608E-02  0.1093470E+00
         21   -1    0    0  501  502  0.00000000000E+00  0.00000000000E+00  0.10552602044E+01  0.10552602044E+01  0.00000000000E+00 0. -1.
         13   -1    0    0    0    0 -0.00000000000E+00 -0.00000000000E+00 -0.10000000000E+04  0.10000000000E+04  0.00000000000E+00 0.  1.
    9000005    2    1    2  501    0  0.30200045833E+01 -0.31666530974E+02 -0.40875709561E+03  0.41001097679E+03  0.38403466435E+01 0.  0.
         13    1    3    3    0    0  0.41897679308E+00 -0.29887896895E+01 -0.26631660406E+02  0.26802121956E+02  0.00000000000E+00 0.  1.
          1    1    3    3  501    0  0.26010277902E+01 -0.28677741284E+02 -0.38212543520E+03  0.38320885483E+03  0.00000000000E+00 0.  1.
         -1    1    1    2    0  502 -0.30200045833E+01  0.31666530974E+02 -0.59018764419E+03  0.59104428342E+03  0.00000000000E+00 0. -1.
<mgrwt>
<rscale>  1 0.30000000E+03</rscale>
<asrwt>0</asrwt>
<pdfrwt beam="1">  1       21 0.38373179E-02 0.30000000E+03</pdfrwt>
<pdfrwt beam="2">0</pdfrwt>
<totfact> 0.45089481E+04</totfact>
</mgrwt>
</event>
<event>
 6    1  0.1295671E-001  0.3000000E+03  0.7818608E-02  0.1093470E+00
         21   -1    0    0  501  502  0.00000000000E+00  0.00000000000E+00  0.35618055916E+01  0.35618055916E+01  0.00000000000E+00 0. -1.
         13   -1    0    0    0    0 -0.00000000000E+00 -0.00000000000E+00 -0.10000000000E+04  0.10000000000E+04  0.00000000000E+00 0.  1.
    9000005    2    1    2  501    0  0.14502695871E+02 -0.50221498941E+02 -0.73994573533E+03  0.74179681805E+03  0.32094982285E+01 0.  0.
         13    1    3    3    0    0  0.84430424385E+01 -0.34379511796E+02 -0.49357398173E+03  0.49484190529E+03  0.00000000000E+00 0.  1.
          1    1    3    3  501    0  0.60596534323E+01 -0.15841987145E+02 -0.24637175361E+03  0.24695491275E+03  0.00000000000E+00 0.  1.
         -3    1    1    2    0  502 -0.14502695871E+02  0.50221498941E+02 -0.25649245907E+03  0.26176498755E+03  0.00000000000E+00 0. -1.
<mgrwt>
<rscale>  1 0.30000000E+03</rscale>
<asrwt>0</asrwt>
<pdfrwt beam="1">  1       21 0.12952048E-01 0.30000000E+03</pdfrwt>
<pdfrwt beam="2">0</pdfrwt>
<totfact> 0.53927899E+03</totfact>
</mgrwt>
</event>
<event>
 6    1  0.1295671E-001  0.3000000E+03  0.7818608E-02  0.1093470E+00
         21   -1    0    0  501  502  0.00000000000E+00  0.00000000000E+00  0.30531978578E+01  0.30531978578E+01  0.00000000000E+00 0. -1.
         13   -1    0    0    0    0 -0.00000000000E+00 -0.00000000000E+00 -0.10000000000E+04  0.10000000000E+04  0.00000000000E+00 0.  1.
    9000005    2    1    2  501    0  0.24106008011E+02 -0.39194732546E+02 -0.77582134673E+03  0.77719086432E+03  0.30904454221E+01 0.  0.
         13    1    3    3    0    0  0.14801605836E+02 -0.24641032453E+02 -0.45948280493E+03  0.46038105526E+03  0.00000000000E+00 0.  1.
          1    1    3    3  501    0  0.93044021751E+01 -0.14553700094E+02 -0.31633854180E+03  0.31680980906E+03  0.00000000000E+00 0.  1.
         -1    1    1    2    0  502 -0.24106008011E+02  0.39194732546E+02 -0.22112545541E+03  0.22586233354E+03  0.00000000000E+00 0. -1.
<mgrwt>
<rscale>  1 0.30000000E+03</rscale>
<asrwt>0</asrwt>
<pdfrwt beam="1">  1       21 0.11102561E-01 0.30000000E+03</pdfrwt>
<pdfrwt beam="2">0</pdfrwt>
<totfact> 0.71318938E+03</totfact>
</mgrwt>
</event>
<event>
 6    1  0.1295671E-001  0.3000000E+03  0.7818608E-02  0.1093470E+00
         21   -1    0    0  501  502  0.00000000000E+00  0.00000000000E+00  0.26346735971E+01  0.26346735971E+01  0.00000000000E+00 0. -1.
         13   -1    0    0    0    0 -0.00000000000E+00 -0.00000000000E+00 -0.10000000000E+04  0.10000000000E+04  0.00000000000E+00 0.  1.
    9000005    2    1    2  501    0  0.31838686412E+02  0.30060394688E+02 -0.75967729018E+03  0.76094699943E+03  0.36635288337E+01 0.  0.
         13    1    3    3    0    0  0.12265417967E+02  0.10183690325E+02 -0.30168871810E+03  0.30210963350E+03  0.00000000000E+00 0.  1.
          1    1    3    3  501    0  0.19573268446E+02  0.19876704363E+02 -0.45798857209E+03  0.45883736593E+03  0.00000000000E+00 0.  1.
         -3    1    1    2    0  502 -0.31838686412E+02 -0.30060394688E+02 -0.23768803622E+03  0.24168767417E+03  0.00000000000E+00 0. -1.
<mgrwt>
<rscale>  1 0.30000000E+03</rscale>
<asrwt>0</asrwt>
<pdfrwt beam="1">  1       21 0.95806515E-02 0.30000000E+03</pdfrwt>
<pdfrwt beam="2">0</pdfrwt>
<totfact> 0.92867532E+03</totfact>
</mgrwt>
</event>
<event>
 6    1  0.1295671E-001  0.3000000E+03  0.7818608E-02  0.1093470E+00
         21   -1    0    0  501  502  0.00000000000E+00  0.00000000000E+00  0.61025116588E+01  0.61025116588E+01  0.00000000000E+00 0. -1.
         13   -1    0    0    0    0 -0.00000000000E+00 -0.00000000000E+00 -0.10000000000E+04  0.10000000000E+04  0.00000000000E+00 0.  1.
    9000005    2    1    2  501    0  0.14798433737E+02 -0.47964288237E+02 -0.88217967251E+03  0.88362624065E+03  0.58984727721E+01 0.  0.
         13    1    3    3    0    0  0.15248148333E+02 -0.44528539723E+02 -0.82569416375E+03  0.82703455123E+03  0.00000000000E+00 0.  1.
          3    1    3    3  501    0 -0.44971459599E+00 -0.34357485132E+01 -0.56485508766E+02  0.56591689421E+02  0.00000000000E+00 0.  1.
         -3    1    1    2    0  502 -0.14798433737E+02  0.47964288237E+02 -0.11171781583E+03  0.12247627101E+03  0.00000000000E+00 0. -1.
<mgrwt>
<rscale>  1 0.30000000E+03</rscale>
<asrwt>0</asrwt>
<pdfrwt beam="1">  1       21 0.22190998E-01 0.30000000E+03</pdfrwt>
<pdfrwt beam="2">0</pdfrwt>
<totfact> 0.19655902E+03</totfact>
</mgrwt>
</event>
<event>
 6    1  0.1295671E-001  0.3000000E+03  0.7818608E-02  0.1093470E+00
         21   -1    0    0  501  502  0.00000000000E+00  0.00000000000E+00  0.28871486031E+01  0.28871486031E+01  0.00000000000E+00 0. -1.
         13   -1    0    0    0    0 -0.00000000000E+00 -0.00000000000E+00 -0.10000000000E+04  0.10000000000E+04  0.00000000000E+00 0.  1.
    9000005    2    1    2  501    0  0.14633017010E+02 -0.33901953524E+02 -0.86232199832E+03  0.86313006752E+03  0.55513090014E+01 0.  0.
         13    1    3    3    0    0  0.58111711392E+01 -0.12981236666E+02 -0.39662929617E+03  0.39688421585E+03  0.00000000000E+00 0.  1.
          1    1    3    3  501    0  0.88218458712E+01 -0.20920716858E+02 -0.46569270215E+03  0.46624585166E+03  0.00000000000E+00 0.  1.
         -1    1    1    2    0  502 -0.14633017010E+02  0.33901953524E+02 -0.13479085308E+03  0.13975708108E+03  0.00000000000E+00 0. -1.
<mgrwt>
<rscale>  1 0.30000000E+03</rscale>
<asrwt>0</asrwt>
<pdfrwt beam="1">  1       21 0.10498744E-01 0.30000000E+03</pdfrwt>
<pdfrwt beam="2">0</pdfrwt>
<totfact> 0.78855591E+03</totfact>
</mgrwt>
</event>
<event>
 6    1  0.1295671E-001  0.3000000E+03  0.7818608E-02  0.1093470E+00
         21   -1    0    0  501  502  0.00000000000E+00  0.00000000000E+00  0.44567971503E+01  0.44567971503E+01  0.00000000000E+00 0. -1.
         13   -1    0    0    0    0 -0.00000000000E+00 -0.00000000000E+00 -0.10000000000E+04  0.10000000000E+04  0.00000000000E+00 0.  1.
    9000005    2    1    2  501    0  0.46518874147E+02  0.22449913609E+02 -0.81577301653E+03  0.81741315475E+03  0.32629414060E+01 0.  0.
         13    1    3    3    0    0  0.29136759524E+02  0.15250595837E+02 -0.53680246460E+03  0.53780890420E+03  0.00000000000E+00 0.  1.
          3    1    3    3  501    0  0.17382114623E+02  0.71993177725E+01 -0.27897055193E+03  0.27960425056E+03  0.00000000000E+00 0.  1.
         -1    1    1    2    0  502 -0.46518874147E+02 -0.22449913609E+02 -0.17977018632E+03  0.18704364240E+03  0.00000000000E+00 0. -1.
<mgrwt>
<rscale>  1 0.30000000E+03</rscale>
<asrwt>0</asrwt>
<pdfrwt beam="1">  1       21 0.16206569E-01 0.30000000E+03</pdfrwt>
<pdfrwt beam="2">0</pdfrwt>
<totfact> 0.35663246E+03</totfact>
</mgrwt>
</event>
<event>
 6    1  0.1295671E-001  0.3000000E+03  0.7818608E-02  0.1093470E+00
         21   -1    0    0  501  502  0.00000000000E+00  0.00000000000E+00  0.11105302656E+01  0.11105302656E+01  0.00000000000E+00 0. -1.
         13   -1    0    0    0    0 -0.00000000000E+00 -0.00000000000E+00 -0.10000000000E+04  0.10000000000E+04  0.00000000000E+00 0.  1.
    9000005    2    1    2  501    0 -0.25820403690E+02  0.20012207207E+02 -0.59410906535E+03  0.59501404239E+03  0.29912266643E+01 0.  0.
         13    1    3    3    0    0 -0.12595035597E+02  0.90666281727E+01 -0.25698854459E+03  0.25745669678E+03  0.00000000000E+00 0.  1.
          1    1    3    3  501    0 -0.13225368093E+02  0.10945579034E+02 -0.33712052076E+03  0.33755734562E+03  0.00000000000E+00 0.  1.
         -1    1    1    2    0  502  0.25820403690E+02 -0.20012207207E+02 -0.40478040439E+03  0.40609648787E+03  0.00000000000E+00 0. -1.
<mgrwt>
<rscale>  1 0.30000000E+03</rscale>
<asrwt>0</asrwt>
<pdfrwt beam="1">  1       21 0.40383004E-02 0.30000000E+03</pdfrwt>
<pdfrwt beam="2">0</pdfrwt>
<totfact> 0.41377769E+04</totfact>
</mgrwt>
</event>
<event>
 6    1  0.1295671E-001  0.3000000E+03  0.7818608E-02  0.1093470E+00
         21   -1    0    0  501  502  0.00000000000E+00  0.00000000000E+00  0.31956696095E+01  0.31956696095E+01  0.00000000000E+00 0. -1.
         13   -1    0    0    0    0 -0.00000000000E+00 -0.00000000000E+00 -0.10000000000E+04  0.10000000000E+04  0.00000000000E+00 0.  1.
    9000005    2    1    2  501    0  0.57135500127E+00  0.42618021098E+02 -0.82763929060E+03  0.82874386293E+03  0.36017799106E+01 0.  0.
         13    1    3    3    0    0  0.42296876013E+00  0.53253797997E+01 -0.83543886199E+02  0.83714511847E+02  0.00000000000E+00 0.  1.
          1    1    3    3  501    0  0.14838624115E+00  0.37292641299E+02 -0.74409540440E+03  0.74502935108E+03  0.00000000000E+00 0.  1.
         -1    1    1    2    0  502 -0.57135500127E+00 -0.42618021098E+02 -0.16916503979E+03  0.17445180668E+03  0.00000000000E+00 0. -1.
<mgrwt>
<rscale>  1 0.30000000E+03</rscale>
<asrwt>0</asrwt>
<pdfrwt beam="1">  1       21 0.11620641E-01 0.30000000E+03</pdfrwt>
<pdfrwt beam="2">0</pdfrwt>
<totfact> 0.65684748E+03</totfact>
</mgrwt>
</event>
<event>
 6    1  0.1295671E-001  0.3000000E+03  0.7818608E-02  0.1093470E+00
         21   -1    0    0  501  502  0.00000000000E+00  0.00000000000E+00  0.20059502793E+01  0.20059502793E+01  0.00000000000E+00 0. -1.
         13   -1    0    0    0    0 -0.00000000000E+00 -0.00000000000E+00 -0.10000000000E+04  0.10000000000E+04  0.00000000000E+00 0.  1.
    9000005    2    1    2  501    0 -0.24586883014E+02 -0.20532974945E+02 -0.84881424064E+03  0.84942569823E+03  0.35048299393E+01 0.  0.
         13    1    3    3    0    0 -0.13127183976E+02 -0.12250172547E+02 -0.43670454007E+03  0.43707350069E+03  0.00000000000E+00 0.  1.
          1    1    3    3  501    0 -0.11459699038E+02 -0.82828023977E+01 -0.41210970056E+03  0.41235219754E+03  0.00000000000E+00 0.  1.
         -1    1    1    2    0  502  0.24586883014E+02  0.20532974945E+02 -0.14917980908E+03  0.15258025205E+03  0.00000000000E+00 0. -1.
<mgrwt>
<rscale>  1 0.30000000E+03</rscale>
<asrwt>0</asrwt>
<pdfrwt beam="1">  1       21 0.72943800E-02 0.30000000E+03</pdfrwt>
<pdfrwt beam="2">0</pdfrwt>
<totfact> 0.15017120E+04</totfact>
</mgrwt>
</event>
<event>
 6    1  0.1295671E-001  0.3000000E+03  0.7818608E-02  0.1093470E+00
         21   -1    0    0  501  502  0.00000000000E+00  0.00000000000E+00  0.12751924492E+01  0.12751924492E+01  0.00000000000E+00 0. -1.
         13   -1    0    0    0    0 -0.00000000000E+00 -0.00000000000E+00 -0.10000000000E+04  0.10000000000E+04  0.00000000000E+00 0.  1.
    9000005    2    1    2  501    0  0.35259931444E+02 -0.17839100997E+01 -0.43200683060E+03  0.43345857549E+03  0.31606765640E+01 0.  0.
         13    1    3    3    0    0  0.26603737242E+02 -0.26493641086E+00 -0.33462765077E+03  0.33568362142E+03  0.00000000000E+00 0.  1.
          3    1    3    3  501    0  0.86561942023E+01 -0.15189736889E+01 -0.97379179828E+02  0.97774954069E+02  0.00000000000E+00 0.  1.
         -1    1    1    2    0  502 -0.35259931444E+02  0.17839100997E+01 -0.56671797695E+03  0.56781661696E+03  0.00000000000E+00 0. -1.
<mgrwt>
<rscale>  1 0.30000000E+03</rscale>
<asrwt>0</asrwt>
<pdfrwt beam="1">  1       21 0.46370732E-02 0.30000000E+03</pdfrwt>
<pdfrwt beam="2">0</pdfrwt>
<totfact> 0.32746082E+04</totfact>
</mgrwt>
</event>
<event>
 6    1  0.1295671E-001  0.3000000E+03  0.7818608E-02  0.1093470E+00
         21   -1    0    0  501  502  0.00000000000E+00  0.00000000000E+00  0.21680557311E+01  0.21680557311E+01  0.00000000000E+00 0. -1.
         13   -1    0    0    0    0 -0.00000000000E+00 -0.00000000000E+00 -0.10000000000E+04  0.10000000000E+04  0.00000000000E+00 0.  1.
    9000005    2    1    2  501    0 -0.40249400877E+02  0.11937604690E+02 -0.71464883797E+03  0.71588988267E+03  0.35835491176E+01 0.  0.
         13    1    3    3    0    0 -0.15141379977E+02  0.27200563342E+01 -0.26616466085E+03  0.26660886478E+03  0.00000000000E+00 0.  1.
          3    1    3    3  501    0 -0.25108020901E+02  0.92175483553E+01 -0.44848417711E+03  0.44928101789E+03  0.00000000000E+00 0.  1.
         -1    1    1    2    0  502  0.40249400877E+02 -0.11937604690E+02 -0.28318310630E+03  0.28627817306E+03  0.00000000000E+00 0. -1.
<mgrwt>
<rscale>  1 0.30000000E+03</rscale>
<asrwt>0</asrwt>
<pdfrwt beam="1">  1       21 0.78838556E-02 0.30000000E+03</pdfrwt>
<pdfrwt beam="2">0</pdfrwt>
<totfact> 0.13106108E+04</totfact>
</mgrwt>
</event>
<event>
 6    1  0.1295671E-001  0.3000000E+03  0.7818608E-02  0.1093470E+00
         21   -1    0    0  501  502  0.00000000000E+00  0.00000000000E+00  0.25231373954E+01  0.25231373954E+01  0.00000000000E+00 0. -1.
         13   -1    0    0    0    0 -0.00000000000E+00 -0.00000000000E+00 -0.10000000000E+04  0.10000000000E+04  0.00000000000E+00 0.  1.
    9000005    2    1    2  501    0 -0.25262816213E+02 -0.38820681012E+02 -0.30619815627E+03  0.30969451141E+03  0.28503219648E+01 0.  0.
         13    1    3    3    0    0 -0.14149051683E+02 -0.23637820458E+02 -0.17558980256E+03  0.17773778715E+03  0.00000000000E+00 0.  1.
          3    1    3    3  501    0 -0.11113764531E+02 -0.15182860553E+02 -0.13060835372E+03  0.13195672426E+03  0.00000000000E+00 0.  1.
         -3    1    1    2    0  502  0.25262816213E+02  0.38820681012E+02 -0.69127870633E+03  0.69282862598E+03  0.00000000000E+00 0. -1.
<mgrwt>
<rscale>  1 0.30000000E+03</rscale>
<asrwt>0</asrwt>
<pdfrwt beam="1">  1       21 0.91750644E-02 0.30000000E+03</pdfrwt>
<pdfrwt beam="2">0</pdfrwt>
<totfact> 0.10029546E+04</totfact>
</mgrwt>
</event>
<event>
 6    1  0.1295671E-001  0.3000000E+03  0.7818608E-02  0.1093470E+00
         21   -1    0    0  501  502  0.00000000000E+00  0.00000000000E+00  0.12030026108E+01  0.12030026108E+01  0.00000000000E+00 0. -1.
         13   -1    0    0    0    0 -0.00000000000E+00 -0.00000000000E+00 -0.10000000000E+04  0.10000000000E+04  0.00000000000E+00 0.  1.
    9000005    2    1    2  501    0  0.22535076990E+02 -0.20814785157E+02 -0.73210660006E+03  0.73275402607E+03  0.27025728629E+01 0.  0.
         13    1    3    3    0    0  0.70125857564E+01 -0.49517256338E+01 -0.21530709451E+03  0.21547816801E+03  0.00000000000E+00 0.  1.
          1    1    3    3  501    0  0.15522491233E+02 -0.15863059524E+02 -0.51679950555E+03  0.51727585806E+03  0.00000000000E+00 0.  1.
         -1    1    1    2    0  502 -0.22535076990E+02  0.20814785157E+02 -0.26669039733E+03  0.26844897654E+03  0.00000000000E+00 0. -1.
<mgrwt>
<rscale>  1 0.30000000E+03</rscale>
<asrwt>0</asrwt>
<pdfrwt beam="1">  1       21 0.43745642E-02 0.30000000E+03</pdfrwt>
<pdfrwt beam="2">0</pdfrwt>
<totfact> 0.36149618E+04</totfact>
</mgrwt>
</event>
<event>
 6    1  0.1295671E-001  0.3000000E+03  0.7818608E-02  0.1093470E+00
         21   -1    0    0  501  502  0.00000000000E+00  0.00000000000E+00  0.10725554763E+01  0.10725554763E+01  0.00000000000E+00 0. -1.
         13   -1    0    0    0    0 -0.00000000000E+00 -0.00000000000E+00 -0.10000000000E+04  0.10000000000E+04  0.00000000000E+00 0.  1.
    9000005    2    1    2  501    0 -0.19030208610E+02  0.26547292058E+02 -0.49003884856E+03  0.49113676475E+03  0.32157490352E+01 0.  0.
         13    1    3    3    0    0 -0.10060991180E+02  0.13428277294E+02 -0.22815036237E+03  0.22876654044E+03  0.00000000000E+00 0.  1.
          1    1    3    3  501    0 -0.89692174300E+01  0.13119014764E+02 -0.26188848618E+03  0.26237022431E+03  0.00000000000E+00 0.  1.
         -3    1    1    2    0  502  0.19030208610E+02 -0.26547292058E+02 -0.50888859597E+03  0.50993579072E+03  0.00000000000E+00 0. -1.
<mgrwt>
<rscale>  1 0.30000000E+03</rscale>
<asrwt>0</asrwt>
<pdfrwt beam="1">  1       21 0.39002100E-02 0.30000000E+03</pdfrwt>
<pdfrwt beam="2">0</pdfrwt>
<totfact> 0.43873695E+04</totfact>
</mgrwt>
</event>
<event>
 6    1  0.1295671E-001  0.3000000E+03  0.7818608E-02  0.1093470E+00
         21   -1    0    0  501  502  0.00000000000E+00  0.00000000000E+00  0.23029633112E+01  0.23029633112E+01  0.00000000000E+00 0. -1.
         13   -1    0    0    0    0 -0.00000000000E+00 -0.00000000000E+00 -0.10000000000E+04  0.10000000000E+04  0.00000000000E+00 0.  1.
    9000005    2    1    2  501    0  0.13167371856E+02 -0.38946731048E+02 -0.75668344824E+03  0.75780801989E+03  0.35953623319E+01 0.  0.
         13    1    3    3    0    0  0.43906328247E+01 -0.14317431991E+02 -0.30709538711E+03  0.30746031175E+03  0.00000000000E+00 0.  1.
          3    1    3    3  501    0  0.87767390315E+01 -0.24629299057E+02 -0.44958806113E+03  0.45034770815E+03  0.00000000000E+00 0.  1.
         -3    1    1    2    0  502 -0.13167371856E+02  0.38946731048E+02 -0.24101358845E+03  0.24449494342E+03  0.00000000000E+00 0. -1.
<mgrwt>
<rscale>  1 0.30000000E+03</rscale>
<asrwt>0</asrwt>
<pdfrwt beam="1">  1       21 0.83744297E-02 0.30000000E+03</pdfrwt>
<pdfrwt beam="2">0</pdfrwt>
<totfact> 0.11786406E+04</totfact>
</mgrwt>
</event>
<event>
 6    1  0.1295671E-001  0.3000000E+03  0.7818608E-02  0.1093470E+00
         21   -1    0    0  501  502  0.00000000000E+00  0.00000000000E+00  0.86643952096E+01  0.86643952096E+01  0.00000000000E+00 0. -1.
         13   -1    0    0    0    0 -0.00000000000E+00 -0.00000000000E+00 -0.10000000000E+04  0.10000000000E+04  0.00000000000E+00 0.  1.
    9000005    2    1    2  501    0 -0.60499534915E+02  0.51124429694E+02 -0.76043076203E+03  0.76455182395E+03  0.32629171961E+01 0.  0.
         13    1    3    3    0    0 -0.30925825362E+02  0.27324839649E+02 -0.40911118741E+03  0.41118732616E+03  0.00000000000E+00 0.  1.
          1    1    3    3  501    0 -0.29573709553E+02  0.23799590045E+02 -0.35131957462E+03  0.35336449778E+03  0.00000000000E+00 0.  1.
         -3    1    1    2    0  502  0.60499534915E+02 -0.51124429694E+02 -0.23090484276E+03  0.24411257126E+03  0.00000000000E+00 0. -1.
<mgrwt>
<rscale>  1 0.30000000E+03</rscale>
<asrwt>0</asrwt>
<pdfrwt beam="1">  1       21 0.31506958E-01 0.30000000E+03</pdfrwt>
<pdfrwt beam="2">0</pdfrwt>
<totfact> 0.98537433E+02</totfact>
</mgrwt>
</event>
<event>
 6    1  0.1295671E-001  0.3000000E+03  0.7818608E-02  0.1093470E+00
         21   -1    0    0  501  502  0.00000000000E+00  0.00000000000E+00  0.10217415116E+01  0.10217415116E+01  0.00000000000E+00 0. -1.
         13   -1    0    0    0    0 -0.00000000000E+00 -0.00000000000E+00 -0.10000000000E+04  0.10000000000E+04  0.00000000000E+00 0.  1.
    9000005    2    1    2  501    0 -0.27385917302E+02  0.15251900521E+02 -0.58808191067E+03  0.58893143880E+03  0.41589683019E+01 0.  0.
         13    1    3    3    0    0 -0.22549010612E+02  0.11521754107E+02 -0.49729677325E+03  0.49794105011E+03  0.00000000000E+00 0.  1.
          3    1    3    3  501    0 -0.48369066893E+01  0.37301464133E+01 -0.90785137416E+02  0.90990388692E+02  0.00000000000E+00 0.  1.
         -1    1    1    2    0  502  0.27385917302E+02 -0.15251900521E+02 -0.41089634782E+03  0.41209030271E+03  0.00000000000E+00 0. -1.
<mgrwt>
<rscale>  1 0.30000000E+03</rscale>
<asrwt>0</asrwt>
<pdfrwt beam="1">  1       21 0.37154315E-02 0.30000000E+03</pdfrwt>
<pdfrwt beam="2">0</pdfrwt>
<totfact> 0.47601715E+04</totfact>
</mgrwt>
</event>
<event>
 6    1  0.1295671E-001  0.3000000E+03  0.7818608E-02  0.1093470E+00
         21   -1    0    0  501  502  0.00000000000E+00  0.00000000000E+00  0.35282074833E+01  0.35282074833E+01  0.00000000000E+00 0. -1.
         13   -1    0    0    0    0 -0.00000000000E+00 -0.00000000000E+00 -0.10000000000E+04  0.10000000000E+04  0.00000000000E+00 0.  1.
    9000005    2    1    2  501    0 -0.38808382286E+02 -0.14352681751E+02 -0.85804519707E+03  0.85904979271E+03  0.35911178250E+01 0.  0.
         13    1    3    3    0    0 -0.29382307729E+02 -0.11851265415E+02 -0.62994177534E+03  0.63073799063E+03  0.00000000000E+00 0.  1.
          3    1    3    3  501    0 -0.94260745565E+01 -0.25014163355E+01 -0.22810342173E+03  0.22831180208E+03  0.00000000000E+00 0.  1.
         -3    1    1    2    0  502  0.38808382286E+02  0.14352681751E+02 -0.13842659544E+03  0.14447841477E+03  0.00000000000E+00 0. -1.
<mgrwt>
<rscale>  1 0.30000000E+03</rscale>
<asrwt>0</asrwt>
<pdfrwt beam="1">  1       21 0.12829872E-01 0.30000000E+03</pdfrwt>
<pdfrwt beam="2">0</pdfrwt>
<totfact> 0.54868820E+03</totfact>
</mgrwt>
</event>
<event>
 6    1  0.1295671E-001  0.3000000E+03  0.7818608E-02  0.1093470E+00
         21   -1    0    0  501  502  0.00000000000E+00  0.00000000000E+00  0.10561503186E+01  0.10561503186E+01  0.00000000000E+00 0. -1.
         13   -1    0    0    0    0 -0.00000000000E+00 -0.00000000000E+00 -0.10000000000E+04  0.10000000000E+04  0.00000000000E+00 0.  1.
    9000005    2    1    2  501    0 -0.31589287418E+02 -0.69626850157E+01 -0.52692675739E+03  0.52793196210E+03  0.37399052119E+01 0.  0.
         13    1    3    3    0    0 -0.28875489651E+02 -0.53493492505E+01 -0.46759942305E+03  0.46852068244E+03  0.00000000000E+00 0.  1.
          1    1    3    3  501    0 -0.27137977666E+01 -0.16133357651E+01 -0.59327334342E+02  0.59411279659E+02  0.00000000000E+00 0.  1.
         -3    1    1    2    0  502  0.31589287418E+02  0.69626850157E+01 -0.47201709229E+03  0.47312418822E+03  0.00000000000E+00 0. -1.
<mgrwt>
<rscale>  1 0.30000000E+03</rscale>
<asrwt>0</asrwt>
<pdfrwt beam="1">  1       21 0.38405547E-02 0.30000000E+03</pdfrwt>
<pdfrwt beam="2">0</pdfrwt>
<totfact> 0.45025625E+04</totfact>
</mgrwt>
</event>
<event>
 6    1  0.1295671E-001  0.3000000E+03  0.7818608E-02  0.1093470E+00
         21   -1    0    0  501  502  0.00000000000E+00  0.00000000000E+00  0.11257254456E+01  0.11257254456E+01  0.00000000000E+00 0. -1.
         13   -1    0    0    0    0 -0.00000000000E+00 -0.00000000000E+00 -0.10000000000E+04  0.10000000000E+04  0.00000000000E+00 0.  1.
    9000005    2    1    2  501    0 -0.28225742435E+02  0.17885943664E+02 -0.53003928553E+03  0.53110142134E+03  0.32366691469E+01 0.  0.
         13    1    3    3    0    0 -0.27479750371E+02  0.17193004165E+02 -0.50330624016E+03  0.50434899371E+03  0.00000000000E+00 0.  1.
          1    1    3    3  501    0 -0.74599206388E+00  0.69293949933E+00 -0.26733045377E+02  0.26752427636E+02  0.00000000000E+00 0.  1.
         -1    1    1    2    0  502  0.28225742435E+02 -0.17885943664E+02 -0.46883498902E+03  0.47002430410E+03  0.00000000000E+00 0. -1.
<mgrwt>
<rscale>  1 0.30000000E+03</rscale>
<asrwt>0</asrwt>
<pdfrwt beam="1">  1       21 0.40935557E-02 0.30000000E+03</pdfrwt>
<pdfrwt beam="2">0</pdfrwt>
<totfact> 0.40440758E+04</totfact>
</mgrwt>
</event>
<event>
 6    1  0.1295671E-001  0.3000000E+03  0.7818608E-02  0.1093470E+00
         21   -1    0    0  501  502  0.00000000000E+00  0.00000000000E+00  0.22125072984E+01  0.22125072984E+01  0.00000000000E+00 0. -1.
         13   -1    0    0    0    0 -0.00000000000E+00 -0.00000000000E+00 -0.10000000000E+04  0.10000000000E+04  0.00000000000E+00 0.  1.
    9000005    2    1    2  501    0  0.38696807799E+02 -0.47797882067E+01 -0.22478082427E+03  0.22822310249E+03  0.62510993887E+01 0.  0.
         13    1    3    3    0    0  0.19745396258E+01  0.10180044038E+01 -0.95441940351E+01  0.97993254604E+01  0.00000000000E+00 0.  1.
          3    1    3    3  501    0  0.36722268173E+02 -0.57977926104E+01 -0.21523663023E+03  0.21842377703E+03  0.00000000000E+00 0.  1.
         -3    1    1    2    0  502 -0.38696807799E+02  0.47797882067E+01 -0.77300666844E+03  0.77398940481E+03  0.00000000000E+00 0. -1.
<mgrwt>
<rscale>  1 0.30000000E+03</rscale>
<asrwt>0</asrwt>
<pdfrwt beam="1">  1       21 0.80454981E-02 0.30000000E+03</pdfrwt>
<pdfrwt beam="2">0</pdfrwt>
<totfact> 0.12647238E+04</totfact>
</mgrwt>
</event>
<event>
 6    1  0.1295671E-001  0.3000000E+03  0.7818608E-02  0.1093470E+00
         21   -1    0    0  501  502  0.00000000000E+00  0.00000000000E+00  0.14496632562E+01  0.14496632562E+01  0.00000000000E+00 0. -1.
         13   -1    0    0    0    0 -0.00000000000E+00 -0.00000000000E+00 -0.10000000000E+04  0.10000000000E+04  0.00000000000E+00 0.  1.
    9000005    2    1    2  501    0  0.10320167762E+02 -0.29423959120E+02 -0.78589071630E+03  0.78651620984E+03  0.33548667873E+01 0.  0.
         13    1    3    3    0    0  0.61928181399E+01 -0.19997834181E+02 -0.56020017750E+03  0.56059120867E+03  0.00000000000E+00 0.  1.
          3    1    3    3  501    0  0.41273496221E+01 -0.94261249387E+01 -0.22569053880E+03  0.22592500116E+03  0.00000000000E+00 0.  1.
         -3    1    1    2    0  502 -0.10320167762E+02  0.29423959120E+02 -0.21265962044E+03  0.21493345342E+03  0.00000000000E+00 0. -1.
<mgrwt>
<rscale>  1 0.30000000E+03</rscale>
<asrwt>0</asrwt>
<pdfrwt beam="1">  1       21 0.52715139E-02 0.30000000E+03</pdfrwt>
<pdfrwt beam="2">0</pdfrwt>
<totfact> 0.26318293E+04</totfact>
</mgrwt>
</event>
<event>
 6    1  0.1295671E-001  0.3000000E+03  0.7818608E-02  0.1093470E+00
         21   -1    0    0  501  502  0.00000000000E+00  0.00000000000E+00  0.79866102384E+01  0.79866102384E+01  0.00000000000E+00 0. -1.
         13   -1    0    0    0    0 -0.00000000000E+00 -0.00000000000E+00 -0.10000000000E+04  0.10000000000E+04  0.00000000000E+00 0.  1.
    9000005    2    1    2  501    0  0.28321302229E+02 -0.52768703195E+02 -0.87005160282E+03  0.87211420807E+03  0.26015674511E+01 0.  0.
         13    1    3    3    0    0  0.13116130822E+02 -0.24961227508E+02 -0.39113405072E+03  0.39214913158E+03  0.00000000000E+00 0.  1.
          1    1    3    3  501    0  0.15205171407E+02 -0.27807475687E+02 -0.47891755209E+03  0.47996507648E+03  0.00000000000E+00 0.  1.
         -1    1    1    2    0  502 -0.28321302229E+02  0.52768703195E+02 -0.12196178695E+03  0.13587240217E+03  0.00000000000E+00 0. -1.
<mgrwt>
<rscale>  1 0.30000000E+03</rscale>
<asrwt>0</asrwt>
<pdfrwt beam="1">  1       21 0.29042280E-01 0.30000000E+03</pdfrwt>
<pdfrwt beam="2">0</pdfrwt>
<totfact> 0.11600190E+03</totfact>
</mgrwt>
</event>
<event>
 6    1  0.1295671E-001  0.3000000E+03  0.7818608E-02  0.1093470E+00
         21   -1    0    0  501  502  0.00000000000E+00  0.00000000000E+00  0.25058054367E+01  0.25058054367E+01  0.00000000000E+00 0. -1.
         13   -1    0    0    0    0 -0.00000000000E+00 -0.00000000000E+00 -0.10000000000E+04  0.10000000000E+04  0.00000000000E+00 0.  1.
    9000005    2    1    2  501    0 -0.73567950988E+00 -0.49531580373E+02 -0.56657542777E+03  0.56874907379E+03  0.37249026728E+01 0.  0.
         13    1    3    3    0    0 -0.91455619194E+00 -0.63272414972E+01 -0.62922256923E+02  0.63246192093E+02  0.00000000000E+00 0.  1.
          3    1    3    3  501    0  0.17887668206E+00 -0.43204338875E+02 -0.50365317085E+03  0.50550288169E+03  0.00000000000E+00 0.  1.
         -1    1    1    2    0  502  0.73567950988E+00  0.49531580373E+02 -0.43091876679E+03  0.43375673165E+03  0.00000000000E+00 0. -1.
<mgrwt>
<rscale>  1 0.30000000E+03</rscale>
<asrwt>0</asrwt>
<pdfrwt beam="1">  1       21 0.91120390E-02 0.30000000E+03</pdfrwt>
<pdfrwt beam="2">0</pdfrwt>
<totfact> 0.10152961E+04</totfact>
</mgrwt>
</event>
<event>
 6    1  0.1295671E-001  0.3000000E+03  0.7818608E-02  0.1093470E+00
         21   -1    0    0  501  502  0.00000000000E+00  0.00000000000E+00  0.19277927194E+01  0.19277927194E+01  0.00000000000E+00 0. -1.
         13   -1    0    0    0    0 -0.00000000000E+00 -0.00000000000E+00 -0.10000000000E+04  0.10000000000E+04  0.00000000000E+00 0.  1.
    9000005    2    1    2  501    0 -0.11455409672E+02 -0.29869045695E+02 -0.84177203527E+03  0.84238742142E+03  0.36086167211E+01 0.  0.
         13    1    3    3    0    0 -0.11502349723E+02 -0.29176814464E+02 -0.83194177805E+03  0.83253270963E+03  0.00000000000E+00 0.  1.
          1    1    3    3  501    0  0.46940050919E-01 -0.69223123095E+00 -0.98302572196E+01  0.98547117892E+01  0.00000000000E+00 0.  1.
         -3    1    1    2    0  502  0.11455409672E+02  0.29869045695E+02 -0.15630017201E+03  0.15954037130E+03  0.00000000000E+00 0. -1.
<mgrwt>
<rscale>  1 0.30000000E+03</rscale>
<asrwt>0</asrwt>
<pdfrwt beam="1">  1       21 0.70101701E-02 0.30000000E+03</pdfrwt>
<pdfrwt beam="2">0</pdfrwt>
<totfact> 0.16094568E+04</totfact>
</mgrwt>
</event>
<event>
 6    1  0.1295671E-001  0.3000000E+03  0.7818608E-02  0.1093470E+00
         21   -1    0    0  501  502  0.00000000000E+00  0.00000000000E+00  0.32137419359E+01  0.32137419359E+01  0.00000000000E+00 0. -1.
         13   -1    0    0    0    0 -0.00000000000E+00 -0.00000000000E+00 -0.10000000000E+04  0.10000000000E+04  0.00000000000E+00 0.  1.
    9000005    2    1    2  501    0  0.41392284993E+02  0.98488849913E+01 -0.82963173476E+03  0.83072908623E+03  0.34172500114E+01 0.  0.
         13    1    3    3    0    0  0.12491240390E+01  0.12571498293E+00 -0.15751493515E+02  0.15801444968E+02  0.00000000000E+00 0.  1.
          3    1    3    3  501    0  0.40143160954E+02  0.97231700083E+01 -0.81388024124E+03  0.81492764126E+03  0.00000000000E+00 0.  1.
         -3    1    1    2    0  502 -0.41392284993E+02 -0.98488849913E+01 -0.16715452331E+03  0.17248465571E+03  0.00000000000E+00 0. -1.
<mgrwt>
<rscale>  1 0.30000000E+03</rscale>
<asrwt>0</asrwt>
<pdfrwt beam="1">  1       21 0.11686359E-01 0.30000000E+03</pdfrwt>
<pdfrwt beam="2">0</pdfrwt>
<totfact> 0.65018054E+03</totfact>
</mgrwt>
</event>
<event>
 6    1  0.1295671E-001  0.3000000E+03  0.7818608E-02  0.1093470E+00
         21   -1    0    0  501  502  0.00000000000E+00  0.00000000000E+00  0.31444204114E+01  0.31444204114E+01  0.00000000000E+00 0. -1.
         13   -1    0    0    0    0 -0.00000000000E+00 -0.00000000000E+00 -0.10000000000E+04  0.10000000000E+04  0.00000000000E+00 0.  1.
    9000005    2    1    2  501    0 -0.32414046174E+02 -0.24761080342E+02 -0.84239954077E+03  0.84339320941E+03  0.33671796959E+01 0.  0.
         13    1    3    3    0    0 -0.27837920011E+02 -0.22532503450E+02 -0.72766673183E+03  0.72854755241E+03  0.00000000000E+00 0.  1.
          1    1    3    3  501    0 -0.45761261628E+01 -0.22285768918E+01 -0.11473280894E+03  0.11484565701E+03  0.00000000000E+00 0.  1.
         -3    1    1    2    0  502  0.32414046174E+02  0.24761080342E+02 -0.15445603882E+03  0.15975121100E+03  0.00000000000E+00 0. -1.
<mgrwt>
<rscale>  1 0.30000000E+03</rscale>
<asrwt>0</asrwt>
<pdfrwt beam="1">  1       21 0.11434280E-01 0.30000000E+03</pdfrwt>
<pdfrwt beam="2">0</pdfrwt>
<totfact> 0.67631972E+03</totfact>
</mgrwt>
</event>
<event>
 6    1  0.1295671E-001  0.3000000E+03  0.7818608E-02  0.1093470E+00
         21   -1    0    0  501  502  0.00000000000E+00  0.00000000000E+00  0.45871842349E+01  0.45871842349E+01  0.00000000000E+00 0. -1.
         13   -1    0    0    0    0 -0.00000000000E+00 -0.00000000000E+00 -0.10000000000E+04  0.10000000000E+04  0.00000000000E+00 0.  1.
    9000005    2    1    2  501    0 -0.39046521057E+02 -0.26576767395E+02 -0.85749874282E+03  0.85880911014E+03  0.42471569415E+01 0.  0.
         13    1    3    3    0    0 -0.26128980189E+01 -0.18068063517E+01 -0.80136238451E+02  0.80199180160E+02  0.00000000000E+00 0.  1.
          3    1    3    3  501    0 -0.36433623038E+02 -0.24769961043E+02 -0.77736250437E+03  0.77860992998E+03  0.00000000000E+00 0.  1.
         -3    1    1    2    0  502  0.39046521057E+02  0.26576767395E+02 -0.13791407294E+03  0.14577807410E+03  0.00000000000E+00 0. -1.
<mgrwt>
<rscale>  1 0.30000000E+03</rscale>
<asrwt>0</asrwt>
<pdfrwt beam="1">  1       21 0.16680705E-01 0.30000000E+03</pdfrwt>
<pdfrwt beam="2">0</pdfrwt>
<totfact> 0.33793282E+03</totfact>
</mgrwt>
</event>
<event>
 6    1  0.1295671E-001  0.3000000E+03  0.7818608E-02  0.1093470E+00
         21   -1    0    0  501  502  0.00000000000E+00  0.00000000000E+00  0.21256662185E+01  0.21256662185E+01  0.00000000000E+00 0. -1.
         13   -1    0    0    0    0 -0.00000000000E+00 -0.00000000000E+00 -0.10000000000E+04  0.10000000000E+04  0.00000000000E+00 0.  1.
    9000005    2    1    2  501    0 -0.29315636462E+02 -0.10916972418E+02 -0.86636335966E+03  0.86694533058E+03  0.54907587606E+01 0.  0.
         13    1    3    3    0    0 -0.22353320983E+02 -0.92807721450E+01 -0.60454649505E+03  0.60503079952E+03  0.00000000000E+00 0.  1.
          3    1    3    3  501    0 -0.69623154784E+01 -0.16362002733E+01 -0.26181686461E+03  0.26191453106E+03  0.00000000000E+00 0.  1.
         -1    1    1    2    0  502  0.29315636462E+02  0.10916972418E+02 -0.13151097412E+03  0.13518033563E+03  0.00000000000E+00 0. -1.
<mgrwt>
<rscale>  1 0.30000000E+03</rscale>
<asrwt>0</asrwt>
<pdfrwt beam="1">  1       21 0.77297116E-02 0.30000000E+03</pdfrwt>
<pdfrwt beam="2">0</pdfrwt>
<totfact> 0.13568012E+04</totfact>
</mgrwt>
</event>
<event>
 6    1  0.1295671E-001  0.3000000E+03  0.7818608E-02  0.1093470E+00
         21   -1    0    0  501  502  0.00000000000E+00  0.00000000000E+00  0.15944450909E+01  0.15944450909E+01  0.00000000000E+00 0. -1.
         13   -1    0    0    0    0 -0.00000000000E+00 -0.00000000000E+00 -0.10000000000E+04  0.10000000000E+04  0.00000000000E+00 0.  1.
    9000005    2    1    2  501    0 -0.34387359218E+01  0.39348003462E+02 -0.43222802365E+03  0.43404084658E+03  0.32096400834E+01 0.  0.
         13    1    3    3    0    0 -0.74966120523E-01  0.59843480141E+01 -0.77944213267E+02  0.78173642763E+02  0.00000000000E+00 0.  1.
          3    1    3    3  501    0 -0.33637698012E+01  0.33363655448E+02 -0.35428381038E+03  0.35586720381E+03  0.00000000000E+00 0.  1.
         -1    1    1    2    0  502  0.34387359218E+01 -0.39348003462E+02 -0.56617753126E+03  0.56755359851E+03  0.00000000000E+00 0. -1.
<mgrwt>
<rscale>  1 0.30000000E+03</rscale>
<asrwt>0</asrwt>
<pdfrwt beam="1">  1       21 0.57979944E-02 0.30000000E+03</pdfrwt>
<pdfrwt beam="2">0</pdfrwt>
<totfact> 0.22352882E+04</totfact>
</mgrwt>
</event>
<event>
 6    1  0.1295671E-001  0.3000000E+03  0.7818608E-02  0.1093470E+00
         21   -1    0    0  501  502  0.00000000000E+00  0.00000000000E+00  0.13615261645E+01  0.13615261645E+01  0.00000000000E+00 0. -1.
         13   -1    0    0    0    0 -0.00000000000E+00 -0.00000000000E+00 -0.10000000000E+04  0.10000000000E+04  0.00000000000E+00 0.  1.
    9000005    2    1    2  501    0  0.13708021077E+02 -0.32446588347E+02 -0.64555646268E+03  0.64652692027E+03  0.36360956301E+01 0.  0.
         13    1    3    3    0    0  0.82603097941E+01 -0.23225408373E+02 -0.46543242865E+03  0.46608475404E+03  0.00000000000E+00 0.  1.
          1    1    3    3  501    0  0.54477112826E+01 -0.92211799734E+01 -0.18012403404E+03  0.18044216624E+03  0.00000000000E+00 0.  1.
         -3    1    1    2    0  502 -0.13708021077E+02  0.32446588347E+02 -0.35308201115E+03  0.35483460589E+03  0.00000000000E+00 0. -1.
<mgrwt>
<rscale>  1 0.30000000E+03</rscale>
<asrwt>0</asrwt>
<pdfrwt beam="1">  1       21 0.49510147E-02 0.30000000E+03</pdfrwt>
<pdfrwt beam="2">0</pdfrwt>
<totfact> 0.29292065E+04</totfact>
</mgrwt>
</event>
<event>
 6    1  0.1295671E-001  0.3000000E+03  0.7818608E-02  0.1093470E+00
         21   -1    0    0  501  502  0.00000000000E+00  0.00000000000E+00  0.18225157542E+01  0.18225157542E+01  0.00000000000E+00 0. -1.
         13   -1    0    0    0    0 -0.00000000000E+00 -0.00000000000E+00 -0.10000000000E+04  0.10000000000E+04  0.00000000000E+00 0.  1.
    9000005    2    1    2  501    0 -0.27746388421E+02 -0.15233796694E+02 -0.83449672945E+03  0.83510922857E+03  0.45498960048E+01 0.  0.
         13    1    3    3    0    0 -0.14942120405E+02 -0.10587965502E+02 -0.45662562022E+03  0.45699270127E+03  0.00000000000E+00 0.  1.
          3    1    3    3  501    0 -0.12804268016E+02 -0.46458311921E+01 -0.37787110922E+03  0.37811652729E+03  0.00000000000E+00 0.  1.
         -1    1    1    2    0  502  0.27746388421E+02  0.15233796694E+02 -0.16368075480E+03  0.16671328719E+03  0.00000000000E+00 0. -1.
<mgrwt>
<rscale>  1 0.30000000E+03</rscale>
<asrwt>0</asrwt>
<pdfrwt beam="1">  1       21 0.66273440E-02 0.30000000E+03</pdfrwt>
<pdfrwt beam="2">0</pdfrwt>
<totfact> 0.17743511E+04</totfact>
</mgrwt>
</event>
<event>
 6    1  0.1295671E-001  0.3000000E+03  0.7818608E-02  0.1093470E+00
         21   -1    0    0  501  502  0.00000000000E+00  0.00000000000E+00  0.29371018588E+01  0.29371018588E+01  0.00000000000E+00 0. -1.
         13   -1    0    0    0    0 -0.00000000000E+00 -0.00000000000E+00 -0.10000000000E+04  0.10000000000E+04  0.00000000000E+00 0.  1.
    9000005    2    1    2  501    0 -0.28740133211E+02  0.40562058746E+02 -0.69744381397E+03  0.69922198622E+03  0.34980715336E+01 0.  0.
         13    1    3    3    0    0 -0.19640115578E+02  0.26191535979E+02 -0.47829838572E+03  0.47941743448E+03  0.00000000000E+00 0.  1.
          3    1    3    3  501    0 -0.91000176336E+01  0.14370522767E+02 -0.21914542825E+03  0.21980455174E+03  0.00000000000E+00 0.  1.
         -3    1    1    2    0  502  0.28740133211E+02 -0.40562058746E+02 -0.29961908417E+03  0.30371511564E+03  0.00000000000E+00 0. -1.
<mgrwt>
<rscale>  1 0.30000000E+03</rscale>
<asrwt>0</asrwt>
<pdfrwt beam="1">  1       21 0.10680393E-01 0.30000000E+03</pdfrwt>
<pdfrwt beam="2">0</pdfrwt>
<totfact> 0.76466256E+03</totfact>
</mgrwt>
</event>
<event>
 6    1  0.1295671E-001  0.3000000E+03  0.7818608E-02  0.1093470E+00
         21   -1    0    0  501  502  0.00000000000E+00  0.00000000000E+00  0.13890177212E+01  0.13890177212E+01  0.00000000000E+00 0. -1.
         13   -1    0    0    0    0 -0.00000000000E+00 -0.00000000000E+00 -0.10000000000E+04  0.10000000000E+04  0.00000000000E+00 0.  1.
    9000005    2    1    2  501    0 -0.44806722076E+01 -0.36635162338E+02 -0.50988288570E+03  0.51126927325E+03  0.73144438392E+01 0.  0.
         13    1    3    3    0    0 -0.58022067840E+01 -0.22442938374E+02 -0.34014477442E+03  0.34093374525E+03  0.00000000000E+00 0.  1.
          3    1    3    3  501    0  0.13215345764E+01 -0.14192223964E+02 -0.16973811129E+03  0.17033552800E+03  0.00000000000E+00 0.  1.
         -3    1    1    2    0  502  0.44806722076E+01  0.36635162338E+02 -0.48872809657E+03  0.49011974447E+03  0.00000000000E+00 0. -1.
<mgrwt>
<rscale>  1 0.30000000E+03</rscale>
<asrwt>0</asrwt>
<pdfrwt beam="1">  1       21 0.50509842E-02 0.30000000E+03</pdfrwt>
<pdfrwt beam="2">0</pdfrwt>
<totfact> 0.28310644E+04</totfact>
</mgrwt>
</event>
<event>
 6    1  0.1295671E-001  0.3000000E+03  0.7818608E-02  0.1093470E+00
         21   -1    0    0  501  502  0.00000000000E+00  0.00000000000E+00  0.17105843102E+01  0.17105843102E+01  0.00000000000E+00 0. -1.
         13   -1    0    0    0    0 -0.00000000000E+00 -0.00000000000E+00 -0.10000000000E+04  0.10000000000E+04  0.00000000000E+00 0.  1.
    9000005    2    1    2  501    0  0.41346664902E+00  0.39714611516E+02 -0.63359933670E+03  0.63486419271E+03  0.51963819780E+01 0.  0.
         13    1    3    3    0    0  0.23399091392E+01  0.99681079325E+01 -0.16736603306E+03  0.16767894135E+03  0.00000000000E+00 0.  1.
          1    1    3    3  501    0 -0.19264424902E+01  0.29746503583E+02 -0.46623330365E+03  0.46718525136E+03  0.00000000000E+00 0.  1.
         -1    1    1    2    0  502 -0.41346664902E+00 -0.39714611516E+02 -0.36469007898E+03  0.36684639160E+03  0.00000000000E+00 0. -1.
<mgrwt>
<rscale>  1 0.30000000E+03</rscale>
<asrwt>0</asrwt>
<pdfrwt beam="1">  1       21 0.62203197E-02 0.30000000E+03</pdfrwt>
<pdfrwt beam="2">0</pdfrwt>
<totfact> 0.19800124E+04</totfact>
</mgrwt>
</event>
<event>
 6    1  0.1295671E-001  0.3000000E+03  0.7818608E-02  0.1093470E+00
         21   -1    0    0  501  502  0.00000000000E+00  0.00000000000E+00  0.11336505684E+01  0.11336505684E+01  0.00000000000E+00 0. -1.
         13   -1    0    0    0    0 -0.00000000000E+00 -0.00000000000E+00 -0.10000000000E+04  0.10000000000E+04  0.00000000000E+00 0.  1.
    9000005    2    1    2  501    0  0.20988340854E+01  0.32803108183E+02 -0.39747006996E+03  0.39883975721E+03  0.32010012111E+01 0.  0.
         13    1    3    3    0    0  0.20401720573E+01  0.16287086442E+02 -0.18299497507E+03  0.18372967204E+03  0.00000000000E+00 0.  1.
          1    1    3    3  501    0  0.58662028142E-01  0.16516021741E+02 -0.21447509489E+03  0.21511008517E+03  0.00000000000E+00 0.  1.
         -3    1    1    2    0  502 -0.20988340854E+01 -0.32803108183E+02 -0.60139627948E+03  0.60229389336E+03  0.00000000000E+00 0. -1.
<mgrwt>
<rscale>  1 0.30000000E+03</rscale>
<asrwt>0</asrwt>
<pdfrwt beam="1">  1       21 0.41223744E-02 0.30000000E+03</pdfrwt>
<pdfrwt beam="2">0</pdfrwt>
<totfact> 0.39965127E+04</totfact>
</mgrwt>
</event>
<event>
 6    1  0.1295671E-001  0.3000000E+03  0.7818608E-02  0.1093470E+00
         21   -1    0    0  501  502  0.00000000000E+00  0.00000000000E+00  0.17750541788E+01  0.17750541788E+01  0.00000000000E+00 0. -1.
         13   -1    0    0    0    0 -0.00000000000E+00 -0.00000000000E+00 -0.10000000000E+04  0.10000000000E+04  0.00000000000E+00 0.  1.
    9000005    2    1    2  501    0  0.19487454828E+02 -0.37262338670E+02 -0.49283684667E+03  0.49464058134E+03  0.35922824080E+01 0.  0.
         13    1    3    3    0    0  0.61622397710E+01 -0.15441133105E+02 -0.19953817174E+03  0.20022957767E+03  0.00000000000E+00 0.  1.
          3    1    3    3  501    0  0.13325215057E+02 -0.21821205565E+02 -0.29329867492E+03  0.29441100367E+03  0.00000000000E+00 0.  1.
         -3    1    1    2    0  502 -0.19487454828E+02  0.37262338670E+02 -0.50538809915E+03  0.50713447284E+03  0.00000000000E+00 0. -1.
<mgrwt>
<rscale>  1 0.30000000E+03</rscale>
<asrwt>0</asrwt>
<pdfrwt beam="1">  1       21 0.64547561E-02 0.30000000E+03</pdfrwt>
<pdfrwt beam="2">0</pdfrwt>
<totfact> 0.18573266E+04</totfact>
</mgrwt>
</event>
<event>
 6    1  0.1295671E-001  0.3000000E+03  0.7818608E-02  0.1093470E+00
         21   -1    0    0  501  502  0.00000000000E+00  0.00000000000E+00  0.47947748566E+01  0.47947748566E+01  0.00000000000E+00 0. -1.
         13   -1    0    0    0    0 -0.00000000000E+00 -0.00000000000E+00 -0.10000000000E+04  0.10000000000E+04  0.00000000000E+00 0.  1.
    9000005    2    1    2  501    0  0.68115106635E+02 -0.21934488960E+01 -0.58373072548E+03  0.58771475514E+03  0.47533750942E+01 0.  0.
         13    1    3    3    0    0  0.24361750398E+02 -0.29872121356E+01 -0.20467151761E+03  0.20613793547E+03  0.00000000000E+00 0.  1.
          3    1    3    3  501    0  0.43753356237E+02  0.79376323968E+00 -0.37905920786E+03  0.38157681967E+03  0.00000000000E+00 0.  1.
         -1    1    1    2    0  502 -0.68115106635E+02  0.21934488960E+01 -0.41147449967E+03  0.41708001971E+03  0.00000000000E+00 0. -1.
<mgrwt>
<rscale>  1 0.30000000E+03</rscale>
<asrwt>0</asrwt>
<pdfrwt beam="1">  1       21 0.17435582E-01 0.30000000E+03</pdfrwt>
<pdfrwt beam="2">0</pdfrwt>
<totfact> 0.31104082E+03</totfact>
</mgrwt>
</event>
<event>
 6    1  0.1295671E-001  0.3000000E+03  0.7818608E-02  0.1093470E+00
         21   -1    0    0  501  502  0.00000000000E+00  0.00000000000E+00  0.31164277429E+01  0.31164277429E+01  0.00000000000E+00 0. -1.
         13   -1    0    0    0    0 -0.00000000000E+00 -0.00000000000E+00 -0.10000000000E+04  0.10000000000E+04  0.00000000000E+00 0.  1.
    9000005    2    1    2  501    0 -0.15155223351E+02  0.30137032137E+02 -0.89784652501E+03  0.89849206047E+03  0.46560439159E+01 0.  0.
         13    1    3    3    0    0 -0.14267059652E+02  0.27010075175E+02 -0.83892028432E+03  0.83947622754E+03  0.00000000000E+00 0.  1.
          1    1    3    3  501    0 -0.88816369923E+00  0.31269569626E+01 -0.58926240694E+02  0.59015832934E+02  0.00000000000E+00 0.  1.
         -3    1    1    2    0  502  0.15155223351E+02 -0.30137032137E+02 -0.99037047243E+02  0.10462436727E+03  0.00000000000E+00 0. -1.
<mgrwt>
<rscale>  1 0.30000000E+03</rscale>
<asrwt>0</asrwt>
<pdfrwt beam="1">  1       21 0.11332488E-01 0.30000000E+03</pdfrwt>
<pdfrwt beam="2">0</pdfrwt>
<totfact> 0.68732306E+03</totfact>
</mgrwt>
</event>
<event>
 6    1  0.1295671E-001  0.3000000E+03  0.7818608E-02  0.1093470E+00
         21   -1    0    0  501  502  0.00000000000E+00  0.00000000000E+00  0.11281758895E+01  0.11281758895E+01  0.00000000000E+00 0. -1.
         13   -1    0    0    0    0 -0.00000000000E+00 -0.00000000000E+00 -0.10000000000E+04  0.10000000000E+04  0.00000000000E+00 0.  1.
    9000005    2    1    2  501    0  0.29394271264E+02  0.69160138461E+01 -0.28407756752E+03  0.28569635965E+03  0.32389997620E+01 0.  0.
         13    1    3    3    0    0  0.17668435318E+01  0.78142884606E-01 -0.11230618004E+02  0.11369020324E+02  0.00000000000E+00 0.  1.
          1    1    3    3  501    0  0.27627427732E+02  0.68378709615E+01 -0.27284694951E+03  0.27432733933E+03  0.00000000000E+00 0.  1.
         -3    1    1    2    0  502 -0.29394271264E+02 -0.69160138461E+01 -0.71479425659E+03  0.71543181624E+03  0.00000000000E+00 0. -1.
<mgrwt>
<rscale>  1 0.30000000E+03</rscale>
<asrwt>0</asrwt>
<pdfrwt beam="1">  1       21 0.41024664E-02 0.30000000E+03</pdfrwt>
<pdfrwt beam="2">0</pdfrwt>
<totfact> 0.40292754E+04</totfact>
</mgrwt>
</event>
<event>
 6    1  0.1295671E-001  0.3000000E+03  0.7818608E-02  0.1093470E+00
         21   -1    0    0  501  502  0.00000000000E+00  0.00000000000E+00  0.20796125922E+01  0.20796125922E+01  0.00000000000E+00 0. -1.
         13   -1    0    0    0    0 -0.00000000000E+00 -0.00000000000E+00 -0.10000000000E+04  0.10000000000E+04  0.00000000000E+00 0.  1.
    9000005    2    1    2  501    0 -0.36423998285E+02 -0.98606509227E+00 -0.79972299736E+03  0.80056066709E+03  0.35817881389E+01 0.  0.
         13    1    3    3    0    0 -0.12140382273E+02 -0.76012478908E+00 -0.30380871357E+03  0.30405213551E+03  0.00000000000E+00 0.  1.
          1    1    3    3  501    0 -0.24283616013E+02 -0.22594030318E+00 -0.49591428379E+03  0.49650853157E+03  0.00000000000E+00 0.  1.
         -1    1    1    2    0  502  0.36423998285E+02  0.98606509227E+00 -0.19819739005E+03  0.20151894551E+03  0.00000000000E+00 0. -1.
<mgrwt>
<rscale>  1 0.30000000E+03</rscale>
<asrwt>0</asrwt>
<pdfrwt beam="1">  1       21 0.75622436E-02 0.30000000E+03</pdfrwt>
<pdfrwt beam="2">0</pdfrwt>
<totfact> 0.14098921E+04</totfact>
</mgrwt>
</event>
<event>
 6    1  0.1295671E-001  0.3000000E+03  0.7818608E-02  0.1093470E+00
         21   -1    0    0  501  502  0.00000000000E+00  0.00000000000E+00  0.12941030465E+01  0.12941030465E+01  0.00000000000E+00 0. -1.
         13   -1    0    0    0    0 -0.00000000000E+00 -0.00000000000E+00 -0.10000000000E+04  0.10000000000E+04  0.00000000000E+00 0.  1.
    9000005    2    1    2  501    0  0.21223882342E+02 -0.28833094000E+02 -0.52344407062E+03  0.52468566412E+03  0.44216025338E+01 0.  0.
         13    1    3    3    0    0  0.17995296207E+02 -0.26609729207E+02 -0.47292465915E+03  0.47401438967E+03  0.00000000000E+00 0.  1.
          1    1    3    3  501    0  0.32285861346E+01 -0.22233647927E+01 -0.50519411471E+02  0.50671274454E+02  0.00000000000E+00 0.  1.
         -3    1    1    2    0  502 -0.21223882342E+02  0.28833094000E+02 -0.47526182633E+03  0.47660843893E+03  0.00000000000E+00 0. -1.
<mgrwt>
<rscale>  1 0.30000000E+03</rscale>
<asrwt>0</asrwt>
<pdfrwt beam="1">  1       21 0.47058392E-02 0.30000000E+03</pdfrwt>
<pdfrwt beam="2">0</pdfrwt>
<totfact> 0.31936841E+04</totfact>
</mgrwt>
</event>
<event>
 6    1  0.1295671E-001  0.3000000E+03  0.7818608E-02  0.1093470E+00
         21   -1    0    0  501  502  0.00000000000E+00  0.00000000000E+00  0.10935529453E+01  0.10935529453E+01  0.00000000000E+00 0. -1.
         13   -1    0    0    0    0 -0.00000000000E+00 -0.00000000000E+00 -0.10000000000E+04  0.10000000000E+04  0.00000000000E+00 0.  1.
    9000005    2    1    2  501    0  0.31253507394E+02 -0.10387666036E+02 -0.52790802218E+03  0.52894505769E+03  0.33628634719E+01 0.  0.
         13    1    3    3    0    0  0.27512119756E+02 -0.79801103317E+01 -0.45224307060E+03  0.45314941664E+03  0.00000000000E+00 0.  1.
          3    1    3    3  501    0  0.37413876383E+01 -0.24075557042E+01 -0.75664951573E+02  0.75795641051E+02  0.00000000000E+00 0.  1.
         -3    1    1    2    0  502 -0.31253507394E+02  0.10387666036E+02 -0.47099842488E+03  0.47214849525E+03  0.00000000000E+00 0. -1.
<mgrwt>
<rscale>  1 0.30000000E+03</rscale>
<asrwt>0</asrwt>
<pdfrwt beam="1">  1       21 0.39765646E-02 0.30000000E+03</pdfrwt>
<pdfrwt beam="2">0</pdfrwt>
<totfact> 0.42465408E+04</totfact>
</mgrwt>
</event>
<event>
 6    1  0.1295671E-001  0.3000000E+03  0.7818608E-02  0.1093470E+00
         21   -1    0    0  501  502  0.00000000000E+00  0.00000000000E+00  0.14396480083E+01  0.14396480083E+01  0.00000000000E+00 0. -1.
         13   -1    0    0    0    0 -0.00000000000E+00 -0.00000000000E+00 -0.10000000000E+04  0.10000000000E+04  0.00000000000E+00 0.  1.
    9000005    2    1    2  501    0  0.12504941514E+02 -0.35530790342E+02 -0.55096967073E+03  0.55226682093E+03  0.35004030922E+01 0.  0.
         13    1    3    3    0    0  0.85806184836E+01 -0.19412050215E+02 -0.31716494848E+03  0.31787428215E+03  0.00000000000E+00 0.  1.
          3    1    3    3  501    0  0.39243230300E+01 -0.16118740127E+02 -0.23380472225E+03  0.23439253879E+03  0.00000000000E+00 0.  1.
         -1    1    1    2    0  502 -0.12504941514E+02  0.35530790342E+02 -0.44759068127E+03  0.44917282707E+03  0.00000000000E+00 0. -1.
<mgrwt>
<rscale>  1 0.30000000E+03</rscale>
<asrwt>0</asrwt>
<pdfrwt beam="1">  1       21 0.52350947E-02 0.30000000E+03</pdfrwt>
<pdfrwt beam="2">0</pdfrwt>
<totfact> 0.26632034E+04</totfact>
</mgrwt>
</event>
<event>
 6    1  0.1295671E-001  0.3000000E+03  0.7818608E-02  0.1093470E+00
         21   -1    0    0  501  502  0.00000000000E+00  0.00000000000E+00  0.96364128946E+00  0.96364128946E+00  0.00000000000E+00 0. -1.
         13   -1    0    0    0    0 -0.00000000000E+00 -0.00000000000E+00 -0.10000000000E+04  0.10000000000E+04  0.00000000000E+00 0.  1.
    9000005    2    1    2  501    0 -0.24465724572E+02 -0.18960195967E+02 -0.48215819421E+03  0.48315953002E+03  0.29234389941E+01 0.  0.
         13    1    3    3    0    0 -0.19509324892E+02 -0.15635030000E+02 -0.37129076458E+03  0.37213156247E+03  0.00000000000E+00 0.  1.
          1    1    3    3  501    0 -0.49563996791E+01 -0.33251659672E+01 -0.11086742963E+03  0.11102796755E+03  0.00000000000E+00 0.  1.
         -1    1    1    2    0  502  0.24465724572E+02  0.18960195967E+02 -0.51687816450E+03  0.51780411127E+03  0.00000000000E+00 0. -1.
<mgrwt>
<rscale>  1 0.30000000E+03</rscale>
<asrwt>0</asrwt>
<pdfrwt beam="1">  1       21 0.35041575E-02 0.30000000E+03</pdfrwt>
<pdfrwt beam="2">0</pdfrwt>
<totfact> 0.52512312E+04</totfact>
</mgrwt>
</event>
<event>
 6    1  0.1295671E-001  0.3000000E+03  0.7818608E-02  0.1093470E+00
         21   -1    0    0  501  502  0.00000000000E+00  0.00000000000E+00  0.91218609830E+00  0.91218609830E+00  0.00000000000E+00 0. -1.
         13   -1    0    0    0    0 -0.00000000000E+00 -0.00000000000E+00 -0.10000000000E+04  0.10000000000E+04  0.00000000000E+00 0.  1.
    9000005    2    1    2  501    0 -0.13885384401E+02  0.26701615721E+02 -0.52253334765E+03  0.52340832278E+03  0.30647616739E+01 0.  0.
         13    1    3    3    0    0 -0.11404774072E+02  0.22910038247E+02 -0.42504180584E+03  0.42581154921E+03  0.00000000000E+00 0.  1.
          1    1    3    3  501    0 -0.24806103289E+01  0.37915774744E+01 -0.97491541809E+02  0.97596773572E+02  0.00000000000E+00 0.  1.
         -3    1    1    2    0  502  0.13885384401E+02 -0.26701615721E+02 -0.47655446625E+03  0.47750386332E+03  0.00000000000E+00 0. -1.
<mgrwt>
<rscale>  1 0.30000000E+03</rscale>
<asrwt>0</asrwt>
<pdfrwt beam="1">  1       21 0.33170474E-02 0.30000000E+03</pdfrwt>
<pdfrwt beam="2">0</pdfrwt>
<totfact> 0.57556635E+04</totfact>
</mgrwt>
</event>
<event>
 6    1  0.1295671E-001  0.3000000E+03  0.7818608E-02  0.1093470E+00
         21   -1    0    0  501  502  0.00000000000E+00  0.00000000000E+00  0.10819597375E+01  0.10819597375E+01  0.00000000000E+00 0. -1.
         13   -1    0    0    0    0 -0.00000000000E+00 -0.00000000000E+00 -0.10000000000E+04  0.10000000000E+04  0.00000000000E+00 0.  1.
    9000005    2    1    2  501    0 -0.30990084787E+02  0.89278639324E+01 -0.55252365357E+03  0.55352409691E+03  0.81514412547E+01 0.  0.
         13    1    3    3    0    0 -0.18151143253E+02  0.25550292978E+01 -0.25686066288E+03  0.25751386820E+03  0.00000000000E+00 0.  1.
          3    1    3    3  501    0 -0.12838941535E+02  0.63728346347E+01 -0.29566299069E+03  0.29601022871E+03  0.00000000000E+00 0.  1.
         -3    1    1    2    0  502  0.30990084787E+02 -0.89278639324E+01 -0.44639438669E+03  0.44755786283E+03  0.00000000000E+00 0. -1.
<mgrwt>
<rscale>  1 0.30000000E+03</rscale>
<asrwt>0</asrwt>
<pdfrwt beam="1">  1       21 0.39344073E-02 0.30000000E+03</pdfrwt>
<pdfrwt beam="2">0</pdfrwt>
<totfact> 0.43234049E+04</totfact>
</mgrwt>
</event>
<event>
 6    1  0.1295671E-001  0.3000000E+03  0.7818608E-02  0.1093470E+00
         21   -1    0    0  501  502  0.00000000000E+00  0.00000000000E+00  0.16549549279E+01  0.16549549279E+01  0.00000000000E+00 0. -1.
         13   -1    0    0    0    0 -0.00000000000E+00 -0.00000000000E+00 -0.10000000000E+04  0.10000000000E+04  0.00000000000E+00 0.  1.
    9000005    2    1    2  501    0  0.38057430024E+02  0.11273256103E+00 -0.32569357731E+03  0.32792772692E+03  0.34506647773E+01 0.  0.
         13    1    3    3    0    0  0.22639489582E+01  0.75473202807E+00 -0.23610702511E+02  0.23730999945E+02  0.00000000000E+00 0.  1.
          3    1    3    3  501    0  0.35793481066E+02 -0.64199946704E+00 -0.30208287480E+03  0.30419672697E+03  0.00000000000E+00 0.  1.
         -3    1    1    2    0  502 -0.38057430024E+02 -0.11273256103E+00 -0.67265146776E+03  0.67372722801E+03  0.00000000000E+00 0. -1.
<mgrwt>
<rscale>  1 0.30000000E+03</rscale>
<asrwt>0</asrwt>
<pdfrwt beam="1">  1       21 0.60180306E-02 0.30000000E+03</pdfrwt>
<pdfrwt beam="2">0</pdfrwt>
<totfact> 0.20962896E+04</totfact>
</mgrwt>
</event>
<event>
 6    1  0.1295671E-001  0.3000000E+03  0.7818608E-02  0.1093470E+00
         21   -1    0    0  501  502  0.00000000000E+00  0.00000000000E+00  0.14408800247E+01  0.14408800247E+01  0.00000000000E+00 0. -1.
         13   -1    0    0    0    0 -0.00000000000E+00 -0.00000000000E+00 -0.10000000000E+04  0.10000000000E+04  0.00000000000E+00 0.  1.
    9000005    2    1    2  501    0 -0.22692639394E+02 -0.24007151921E+02 -0.73868120359E+03  0.73947173938E+03  0.87882635690E+01 0.  0.
         13    1    3    3    0    0 -0.12527778049E+02 -0.18021409407E+02 -0.42118715909E+03  0.42175862694E+03  0.00000000000E+00 0.  1.
          1    1    3    3  501    0 -0.10164861345E+02 -0.59857425133E+01 -0.31749404450E+03  0.31771311244E+03  0.00000000000E+00 0.  1.
         -3    1    1    2    0  502  0.22692639394E+02  0.24007151921E+02 -0.25987791639E+03  0.26196914065E+03  0.00000000000E+00 0. -1.
<mgrwt>
<rscale>  1 0.30000000E+03</rscale>
<asrwt>0</asrwt>
<pdfrwt beam="1">  1       21 0.52395748E-02 0.30000000E+03</pdfrwt>
<pdfrwt beam="2">0</pdfrwt>
<totfact> 0.26593128E+04</totfact>
</mgrwt>
</event>
<event>
 6    1  0.1295671E-001  0.3000000E+03  0.7818608E-02  0.1093470E+00
         21   -1    0    0  501  502  0.00000000000E+00  0.00000000000E+00  0.35475462732E+01  0.35475462732E+01  0.00000000000E+00 0. -1.
         13   -1    0    0    0    0 -0.00000000000E+00 -0.00000000000E+00 -0.10000000000E+04  0.10000000000E+04  0.00000000000E+00 0.  1.
    9000005    2    1    2  501    0  0.44426510912E+02 -0.85442209428E+01 -0.82451576484E+03  0.82575850396E+03  0.20351411362E+01 0.  0.
         13    1    3    3    0    0  0.11009863294E+02 -0.29763909471E+01 -0.20292982914E+03  0.20325007146E+03  0.00000000000E+00 0.  1.
          1    1    3    3  501    0  0.33416647618E+02 -0.55678299957E+01 -0.62158593570E+03  0.62250843250E+03  0.00000000000E+00 0.  1.
         -3    1    1    2    0  502 -0.44426510912E+02  0.85442209428E+01 -0.17193668888E+03  0.17778904231E+03  0.00000000000E+00 0. -1.
<mgrwt>
<rscale>  1 0.30000000E+03</rscale>
<asrwt>0</asrwt>
<pdfrwt beam="1">  1       21 0.12900195E-01 0.30000000E+03</pdfrwt>
<pdfrwt beam="2">0</pdfrwt>
<totfact> 0.54324235E+03</totfact>
</mgrwt>
</event>
<event>
 6    1  0.1295671E-001  0.3000000E+03  0.7818608E-02  0.1093470E+00
         21   -1    0    0  501  502  0.00000000000E+00  0.00000000000E+00  0.15092207744E+01  0.15092207744E+01  0.00000000000E+00 0. -1.
         13   -1    0    0    0    0 -0.00000000000E+00 -0.00000000000E+00 -0.10000000000E+04  0.10000000000E+04  0.00000000000E+00 0.  1.
    9000005    2    1    2  501    0 -0.14076189739E+02  0.33062890298E+02 -0.68819156434E+03  0.68913621203E+03  0.31298038354E+01 0.  0.
         13    1    3    3    0    0 -0.44483744471E+01  0.12599060549E+02 -0.28004196851E+03  0.28036053304E+03  0.00000000000E+00 0.  1.
          3    1    3    3  501    0 -0.96278152918E+01  0.20463829749E+02 -0.40814959583E+03  0.40877567899E+03  0.00000000000E+00 0.  1.
         -1    1    1    2    0  502  0.14076189739E+02 -0.33062890298E+02 -0.31029921489E+03  0.31237300875E+03  0.00000000000E+00 0. -1.
<mgrwt>
<rscale>  1 0.30000000E+03</rscale>
<asrwt>0</asrwt>
<pdfrwt beam="1">  1       21 0.54880871E-02 0.30000000E+03</pdfrwt>
<pdfrwt beam="2">0</pdfrwt>
<totfact> 0.24565306E+04</totfact>
</mgrwt>
</event>
<event>
 6    1  0.1295671E-001  0.3000000E+03  0.7818608E-02  0.1093470E+00
         21   -1    0    0  501  502  0.00000000000E+00  0.00000000000E+00  0.60141805615E+01  0.60141805615E+01  0.00000000000E+00 0. -1.
         13   -1    0    0    0    0 -0.00000000000E+00 -0.00000000000E+00 -0.10000000000E+04  0.10000000000E+04  0.00000000000E+00 0.  1.
    9000005    2    1    2  501    0  0.17045529719E+02  0.51019448556E+02 -0.85918549916E+03  0.86087748443E+03  0.40971980900E+01 0.  0.
         13    1    3    3    0    0  0.16611465770E+01  0.24988212120E+01 -0.56615948502E+02  0.56695406693E+02  0.00000000000E+00 0.  1.
          3    1    3    3  501    0  0.15384383142E+02  0.48520627344E+02 -0.80256955065E+03  0.80418207774E+03  0.00000000000E+00 0.  1.
         -3    1    1    2    0  502 -0.17045529719E+02 -0.51019448556E+02 -0.13480032028E+03  0.14513669613E+03  0.00000000000E+00 0. -1.
<mgrwt>
<rscale>  1 0.30000000E+03</rscale>
<asrwt>0</asrwt>
<pdfrwt beam="1">  1       21 0.21869794E-01 0.30000000E+03</pdfrwt>
<pdfrwt beam="2">0</pdfrwt>
<totfact> 0.20215595E+03</totfact>
</mgrwt>
</event>
<event>
 6    1  0.1295671E-001  0.3000000E+03  0.7818608E-02  0.1093470E+00
         21   -1    0    0  501  502  0.00000000000E+00  0.00000000000E+00  0.21108346729E+01  0.21108346729E+01  0.00000000000E+00 0. -1.
         13   -1    0    0    0    0 -0.00000000000E+00 -0.00000000000E+00 -0.10000000000E+04  0.10000000000E+04  0.00000000000E+00 0.  1.
    9000005    2    1    2  501    0 -0.39573782514E+02  0.11089902949E+02 -0.72224986346E+03  0.72342446087E+03  0.30025166803E+01 0.  0.
         13    1    3    3    0    0 -0.31472660921E+02  0.97757165638E+01 -0.59127004158E+03  0.59218777013E+03  0.00000000000E+00 0.  1.
          3    1    3    3  501    0 -0.81011215923E+01  0.13141863853E+01 -0.13097982188E+03  0.13123669074E+03  0.00000000000E+00 0.  1.
         -1    1    1    2    0  502  0.39573782514E+02 -0.11089902949E+02 -0.27563930186E+03  0.27868637380E+03  0.00000000000E+00 0. -1.
<mgrwt>
<rscale>  1 0.30000000E+03</rscale>
<asrwt>0</asrwt>
<pdfrwt beam="1">  1       21 0.76757786E-02 0.30000000E+03</pdfrwt>
<pdfrwt beam="2">0</pdfrwt>
<totfact> 0.13735573E+04</totfact>
</mgrwt>
</event>
<event>
 6    1  0.1295671E-001  0.3000000E+03  0.7818608E-02  0.1093470E+00
         21   -1    0    0  501  502  0.00000000000E+00  0.00000000000E+00  0.18313054631E+01  0.18313054631E+01  0.00000000000E+00 0. -1.
         13   -1    0    0    0    0 -0.00000000000E+00 -0.00000000000E+00 -0.10000000000E+04  0.10000000000E+04  0.00000000000E+00 0.  1.
    9000005    2    1    2  501    0 -0.31930293654E+02  0.21926768901E+02 -0.71083899913E+03  0.71190255437E+03  0.35829301544E+01 0.  0.
         13    1    3    3    0    0 -0.12571544717E+02  0.10775397224E+02 -0.30007728757E+03  0.30053374425E+03  0.00000000000E+00 0.  1.
          3    1    3    3  501    0 -0.19358748936E+02  0.11151371677E+02 -0.41076171156E+03  0.41136881012E+03  0.00000000000E+00 0.  1.
         -1    1    1    2    0  502  0.31930293654E+02 -0.21926768901E+02 -0.28732969541E+03  0.28992875109E+03  0.00000000000E+00 0. -1.
<mgrwt>
<rscale>  1 0.30000000E+03</rscale>
<asrwt>0</asrwt>
<pdfrwt beam="1">  1       21 0.66593066E-02 0.30000000E+03</pdfrwt>
<pdfrwt beam="2">0</pdfrwt>
<totfact> 0.17596121E+04</totfact>
</mgrwt>
</event>
<event>
 6    1  0.1295671E-001  0.3000000E+03  0.7818608E-02  0.1093470E+00
         21   -1    0    0  501  502  0.00000000000E+00  0.00000000000E+00  0.18671941030E+01  0.18671941030E+01  0.00000000000E+00 0. -1.
         13   -1    0    0    0    0 -0.00000000000E+00 -0.00000000000E+00 -0.10000000000E+04  0.10000000000E+04  0.00000000000E+00 0.  1.
    9000005    2    1    2  501    0 -0.37235718700E+02 -0.53720324892E+01 -0.74454599104E+03  0.74550489159E+03  0.36678511018E+01 0.  0.
         13    1    3    3    0    0 -0.20809087691E+02 -0.47971287573E+01 -0.42832726397E+03  0.42885927253E+03  0.00000000000E+00 0.  1.
          3    1    3    3  501    0 -0.16426631009E+02 -0.57490373191E+00 -0.31621872707E+03  0.31664561906E+03  0.00000000000E+00 0.  1.
         -1    1    1    2    0  502  0.37235718700E+02  0.53720324892E+01 -0.25358681486E+03  0.25636230251E+03  0.00000000000E+00 0. -1.
<mgrwt>
<rscale>  1 0.30000000E+03</rscale>
<asrwt>0</asrwt>
<pdfrwt beam="1">  1       21 0.67898111E-02 0.30000000E+03</pdfrwt>
<pdfrwt beam="2">0</pdfrwt>
<totfact> 0.17013437E+04</totfact>
</mgrwt>
</event>
<event>
 6    1  0.1295671E-001  0.3000000E+03  0.7818608E-02  0.1093470E+00
         21   -1    0    0  501  502  0.00000000000E+00  0.00000000000E+00  0.13282761231E+01  0.13282761231E+01  0.00000000000E+00 0. -1.
         13   -1    0    0    0    0 -0.00000000000E+00 -0.00000000000E+00 -0.10000000000E+04  0.10000000000E+04  0.00000000000E+00 0.  1.
    9000005    2    1    2  501    0  0.26643297714E+02  0.24674322698E+02 -0.52919505233E+03  0.53044927612E+03  0.32161492345E+01 0.  0.
         13    1    3    3    0    0  0.16560033768E+02  0.15631482615E+02 -0.30890378012E+03  0.30974202708E+03  0.00000000000E+00 0.  1.
          3    1    3    3  501    0  0.10083263946E+02  0.90428400830E+01 -0.22029127221E+03  0.22070724904E+03  0.00000000000E+00 0.  1.
         -1    1    1    2    0  502 -0.26643297714E+02 -0.24674322698E+02 -0.46947667155E+03  0.47087900000E+03  0.00000000000E+00 0. -1.
<mgrwt>
<rscale>  1 0.30000000E+03</rscale>
<asrwt>0</asrwt>
<pdfrwt beam="1">  1       21 0.48301052E-02 0.30000000E+03</pdfrwt>
<pdfrwt beam="2">0</pdfrwt>
<totfact> 0.30551725E+04</totfact>
</mgrwt>
</event>
<event>
 6    1  0.1295671E-001  0.3000000E+03  0.7818608E-02  0.1093470E+00
         21   -1    0    0  501  502  0.00000000000E+00  0.00000000000E+00  0.27490356004E+01  0.27490356004E+01  0.00000000000E+00 0. -1.
         13   -1    0    0    0    0 -0.00000000000E+00 -0.00000000000E+00 -0.10000000000E+04  0.10000000000E+04  0.00000000000E+00 0.  1.
    9000005    2    1    2  501    0  0.45875481879E+02  0.12211397191E+02 -0.71061145108E+03  0.71220491046E+03  0.36772292031E+01 0.  0.
         13    1    3    3    0    0  0.23896898349E+02  0.82516374288E+01 -0.37988006210E+03  0.38072038671E+03  0.00000000000E+00 0.  1.
          3    1    3    3  501    0  0.21978583531E+02  0.39597597625E+01 -0.33073138898E+03  0.33148452375E+03  0.00000000000E+00 0.  1.
         -3    1    1    2    0  502 -0.45875481879E+02 -0.12211397191E+02 -0.28663951332E+03  0.29054412514E+03  0.00000000000E+00 0. -1.
<mgrwt>
<rscale>  1 0.30000000E+03</rscale>
<asrwt>0</asrwt>
<pdfrwt beam="1">  1       21 0.99965142E-02 0.30000000E+03</pdfrwt>
<pdfrwt beam="2">0</pdfrwt>
<totfact> 0.86085588E+03</totfact>
</mgrwt>
</event>
<event>
 6    1  0.1295671E-001  0.3000000E+03  0.7818608E-02  0.1093470E+00
         21   -1    0    0  501  502  0.00000000000E+00  0.00000000000E+00  0.11283882645E+01  0.11283882645E+01  0.00000000000E+00 0. -1.
         13   -1    0    0    0    0 -0.00000000000E+00 -0.00000000000E+00 -0.10000000000E+04  0.10000000000E+04  0.00000000000E+00 0.  1.
    9000005    2    1    2  501    0  0.24770596242E+02 -0.22362457182E+02 -0.45179409886E+03  0.45303399218E+03  0.28685140844E+01 0.  0.
         13    1    3    3    0    0  0.81972592694E+01 -0.86251987409E+01 -0.14717616285E+03  0.14765639852E+03  0.00000000000E+00 0.  1.
          1    1    3    3  501    0  0.16573336972E+02 -0.13737258441E+02 -0.30461793601E+03  0.30537759366E+03  0.00000000000E+00 0.  1.
         -3    1    1    2    0  502 -0.24770596242E+02  0.22362457182E+02 -0.54707751287E+03  0.54809439609E+03  0.00000000000E+00 0. -1.
<mgrwt>
<rscale>  1 0.30000000E+03</rscale>
<asrwt>0</asrwt>
<pdfrwt beam="1">  1       21 0.41032387E-02 0.30000000E+03</pdfrwt>
<pdfrwt beam="2">0</pdfrwt>
<totfact> 0.40279967E+04</totfact>
</mgrwt>
</event>
<event>
 6    1  0.1295671E-001  0.3000000E+03  0.7818608E-02  0.1093470E+00
         21   -1    0    0  501  502  0.00000000000E+00  0.00000000000E+00  0.28320886994E+01  0.28320886994E+01  0.00000000000E+00 0. -1.
         13   -1    0    0    0    0 -0.00000000000E+00 -0.00000000000E+00 -0.10000000000E+04  0.10000000000E+04  0.00000000000E+00 0.  1.
    9000005    2    1    2  501    0  0.35367059038E+02  0.16767688841E+02 -0.83665872720E+03  0.83761955154E+03  0.87580287484E+01 0.  0.
         13    1    3    3    0    0  0.12516227089E+02  0.17384512385E+01 -0.23499322280E+03  0.23533272810E+03  0.00000000000E+00 0.  1.
          3    1    3    3  501    0  0.22850831949E+02  0.15029237603E+02 -0.60166550440E+03  0.60228682344E+03  0.00000000000E+00 0.  1.
         -1    1    1    2    0  502 -0.35367059038E+02 -0.16767688841E+02 -0.16050918410E+03  0.16521253716E+03  0.00000000000E+00 0. -1.
<mgrwt>
<rscale>  1 0.30000000E+03</rscale>
<asrwt>0</asrwt>
<pdfrwt beam="1">  1       21 0.10298526E-01 0.30000000E+03</pdfrwt>
<pdfrwt beam="2">0</pdfrwt>
<totfact> 0.81622925E+03</totfact>
</mgrwt>
</event>
<event>
 6    1  0.1295671E-001  0.3000000E+03  0.7818608E-02  0.1093470E+00
         21   -1    0    0  501  502  0.00000000000E+00  0.00000000000E+00  0.22503564079E+01  0.22503564079E+01  0.00000000000E+00 0. -1.
         13   -1    0    0    0    0 -0.00000000000E+00 -0.00000000000E+00 -0.10000000000E+04  0.10000000000E+04  0.00000000000E+00 0.  1.
    9000005    2    1    2  501    0  0.40268982644E+02  0.56629934039E+01 -0.75640103043E+03  0.75749984358E+03  0.31358763415E+01 0.  0.
         13    1    3    3    0    0  0.39571009075E+02  0.59355404838E+01 -0.73864797022E+03  0.73973097766E+03  0.00000000000E+00 0.  1.
          3    1    3    3  501    0  0.69797356900E+00 -0.27254707994E+00 -0.17753060218E+02  0.17768865921E+02  0.00000000000E+00 0.  1.
         -3    1    1    2    0  502 -0.40268982644E+02 -0.56629934039E+01 -0.24134861316E+03  0.24475051283E+03  0.00000000000E+00 0. -1.
<mgrwt>
<rscale>  1 0.30000000E+03</rscale>
<asrwt>0</asrwt>
<pdfrwt beam="1">  1       21 0.81831315E-02 0.30000000E+03</pdfrwt>
<pdfrwt beam="2">0</pdfrwt>
<totfact> 0.12275686E+04</totfact>
</mgrwt>
</event>
<event>
 6    1  0.1295671E-001  0.3000000E+03  0.7818608E-02  0.1093470E+00
         21   -1    0    0  501  502  0.00000000000E+00  0.00000000000E+00  0.60528031416E+01  0.60528031416E+01  0.00000000000E+00 0. -1.
         13   -1    0    0    0    0 -0.00000000000E+00 -0.00000000000E+00 -0.10000000000E+04  0.10000000000E+04  0.00000000000E+00 0.  1.
    9000005    2    1    2  501    0 -0.67083583129E+02  0.41678332017E+01 -0.74989250565E+03  0.75291199201E+03  0.44855016267E+01 0.  0.
         13    1    3    3    0    0 -0.64364418739E+02  0.31013227242E+01 -0.71867294194E+03  0.72155609212E+03  0.00000000000E+00 0.  1.
          1    1    3    3  501    0 -0.27191643905E+01  0.10665104775E+01 -0.31219563708E+02  0.31355899886E+02  0.00000000000E+00 0.  1.
         -1    1    1    2    0  502  0.67083583129E+02 -0.41678332017E+01 -0.24405469121E+03  0.25314081113E+03  0.00000000000E+00 0. -1.
<mgrwt>
<rscale>  1 0.30000000E+03</rscale>
<asrwt>0</asrwt>
<pdfrwt beam="1">  1       21 0.22010240E-01 0.30000000E+03</pdfrwt>
<pdfrwt beam="2">0</pdfrwt>
<totfact> 0.19968034E+03</totfact>
</mgrwt>
</event>
<event>
 6    1  0.1295671E-001  0.3000000E+03  0.7818608E-02  0.1093470E+00
         21   -1    0    0  501  502  0.00000000000E+00  0.00000000000E+00  0.18917384112E+01  0.18917384112E+01  0.00000000000E+00 0. -1.
         13   -1    0    0    0    0 -0.00000000000E+00 -0.00000000000E+00 -0.10000000000E+04  0.10000000000E+04  0.00000000000E+00 0.  1.
    9000005    2    1    2  501    0  0.38827246648E+02  0.14459546841E+02 -0.64526708620E+03  0.64662630437E+03  0.62714742061E+01 0.  0.
         13    1    3    3    0    0 -0.10725598808E+00  0.34549684269E+00 -0.12612227867E+02  0.12617415095E+02  0.00000000000E+00 0.  1.
          1    1    3    3  501    0  0.38934502637E+02  0.14114049998E+02 -0.63265485834E+03  0.63400888928E+03  0.00000000000E+00 0.  1.
         -1    1    1    2    0  502 -0.38827246648E+02 -0.14459546841E+02 -0.35284117538E+03  0.35526543404E+03  0.00000000000E+00 0. -1.
<mgrwt>
<rscale>  1 0.30000000E+03</rscale>
<asrwt>0</asrwt>
<pdfrwt beam="1">  1       21 0.68790633E-02 0.30000000E+03</pdfrwt>
<pdfrwt beam="2">0</pdfrwt>
<totfact> 0.16631818E+04</totfact>
</mgrwt>
</event>
<event>
 6    1  0.1295671E-001  0.3000000E+03  0.7818608E-02  0.1093470E+00
         21   -1    0    0  501  502  0.00000000000E+00  0.00000000000E+00  0.15051030466E+01  0.15051030466E+01  0.00000000000E+00 0. -1.
         13   -1    0    0    0    0 -0.00000000000E+00 -0.00000000000E+00 -0.10000000000E+04  0.10000000000E+04  0.00000000000E+00 0.  1.
    9000005    2    1    2  501    0  0.36418577887E+02 -0.52234998328E+01 -0.65552880079E+03  0.65657128202E+03  0.37738509950E+01 0.  0.
         13    1    3    3    0    0  0.25200595493E+02 -0.47920802224E+01 -0.43238893202E+03  0.43314919206E+03  0.00000000000E+00 0.  1.
          1    1    3    3  501    0  0.11217982393E+02 -0.43141961039E+00 -0.22313986877E+03  0.22342208997E+03  0.00000000000E+00 0.  1.
         -3    1    1    2    0  502 -0.36418577887E+02  0.52234998328E+01 -0.34296609617E+03  0.34493382102E+03  0.00000000000E+00 0. -1.
<mgrwt>
<rscale>  1 0.30000000E+03</rscale>
<asrwt>0</asrwt>
<pdfrwt beam="1">  1       21 0.54731135E-02 0.30000000E+03</pdfrwt>
<pdfrwt beam="2">0</pdfrwt>
<totfact> 0.24680626E+04</totfact>
</mgrwt>
</event>
<event>
 6    1  0.1295671E-001  0.3000000E+03  0.7818608E-02  0.1093470E+00
         21   -1    0    0  501  502  0.00000000000E+00  0.00000000000E+00  0.11955528089E+01  0.11955528089E+01  0.00000000000E+00 0. -1.
         13   -1    0    0    0    0 -0.00000000000E+00 -0.00000000000E+00 -0.10000000000E+04  0.10000000000E+04  0.00000000000E+00 0.  1.
    9000005    2    1    2  501    0 -0.63036653101E+01  0.33359559945E+02 -0.40991103197E+03  0.41132433727E+03  0.28389892632E+01 0.  0.
         13    1    3    3    0    0 -0.56384589625E+01  0.23393956144E+02 -0.29547031514E+03  0.29644860690E+03  0.00000000000E+00 0.  1.
          1    1    3    3  501    0 -0.66520634758E+00  0.99656038012E+01 -0.11444071683E+03  0.11487573037E+03  0.00000000000E+00 0.  1.
         -1    1    1    2    0  502  0.63036653101E+01 -0.33359559945E+02 -0.58889341522E+03  0.58987121554E+03  0.00000000000E+00 0. -1.
<mgrwt>
<rscale>  1 0.30000000E+03</rscale>
<asrwt>0</asrwt>
<pdfrwt beam="1">  1       21 0.43474739E-02 0.30000000E+03</pdfrwt>
<pdfrwt beam="2">0</pdfrwt>
<totfact> 0.36531772E+04</totfact>
</mgrwt>
</event>
<event>
 6    1  0.1295671E-001  0.3000000E+03  0.7818608E-02  0.1093470E+00
         21   -1    0    0  501  502  0.00000000000E+00  0.00000000000E+00  0.22379148337E+01  0.22379148337E+01  0.00000000000E+00 0. -1.
         13   -1    0    0    0    0 -0.00000000000E+00 -0.00000000000E+00 -0.10000000000E+04  0.10000000000E+04  0.00000000000E+00 0.  1.
    9000005    2    1    2  501    0  0.24799723115E+02  0.37885884149E+02 -0.64249140529E+03  0.64409321997E+03  0.32409329691E+01 0.  0.
         13    1    3    3    0    0  0.49300272001E+01  0.88627895106E+01 -0.16057793291E+03  0.16089787675E+03  0.00000000000E+00 0.  1.
          3    1    3    3  501    0  0.19869695915E+02  0.29023094638E+02 -0.48191347238E+03  0.48319534321E+03  0.00000000000E+00 0.  1.
         -3    1    1    2    0  502 -0.24799723115E+02 -0.37885884149E+02 -0.35527067987E+03  0.35814469487E+03  0.00000000000E+00 0. -1.
<mgrwt>
<rscale>  1 0.30000000E+03</rscale>
<asrwt>0</asrwt>
<pdfrwt beam="1">  1       21 0.81378893E-02 0.30000000E+03</pdfrwt>
<pdfrwt beam="2">0</pdfrwt>
<totfact> 0.12395952E+04</totfact>
</mgrwt>
</event>
<event>
 6    1  0.1295671E-001  0.3000000E+03  0.7818608E-02  0.1093470E+00
         21   -1    0    0  501  502  0.00000000000E+00  0.00000000000E+00  0.31390715135E+01  0.31390715135E+01  0.00000000000E+00 0. -1.
         13   -1    0    0    0    0 -0.00000000000E+00 -0.00000000000E+00 -0.10000000000E+04  0.10000000000E+04  0.00000000000E+00 0.  1.
    9000005    2    1    2  501    0  0.15701477405E+02  0.37946798133E+02 -0.83940385664E+03  0.84041468687E+03  0.33934485907E+01 0.  0.
         13    1    3    3    0    0  0.20736933287E+01  0.26905240231E+01 -0.74895459238E+02  0.74972454528E+02  0.00000000000E+00 0.  1.
          3    1    3    3  501    0  0.13627784076E+02  0.35256274110E+02 -0.76450839740E+03  0.76544223234E+03  0.00000000000E+00 0.  1.
         -3    1    1    2    0  502 -0.15701477405E+02 -0.37946798133E+02 -0.15745707185E+03  0.16272438464E+03  0.00000000000E+00 0. -1.
<mgrwt>
<rscale>  1 0.30000000E+03</rscale>
<asrwt>0</asrwt>
<pdfrwt beam="1">  1       21 0.11414830E-01 0.30000000E+03</pdfrwt>
<pdfrwt beam="2">0</pdfrwt>
<totfact> 0.67840174E+03</totfact>
</mgrwt>
</event>
<event>
 6    1  0.1295671E-001  0.3000000E+03  0.7818608E-02  0.1093470E+00
         21   -1    0    0  501  502  0.00000000000E+00  0.00000000000E+00  0.32957743945E+01  0.32957743945E+01  0.00000000000E+00 0. -1.
         13   -1    0    0    0    0 -0.00000000000E+00 -0.00000000000E+00 -0.10000000000E+04  0.10000000000E+04  0.00000000000E+00 0.  1.
    9000005    2    1    2  501    0  0.50040691833E+02 -0.15187440360E+02 -0.70486667408E+03  0.70680987985E+03  0.29066888794E+01 0.  0.
         13    1    3    3    0    0  0.15256494606E+02 -0.59993092350E+01 -0.22493688637E+03  0.22553349017E+03  0.00000000000E+00 0.  1.
          3    1    3    3  501    0  0.34784197227E+02 -0.91881311248E+01 -0.47992978771E+03  0.48127638968E+03  0.00000000000E+00 0.  1.
         -3    1    1    2    0  502 -0.50040691833E+02  0.15187440360E+02 -0.29183755153E+03  0.29648589455E+03  0.00000000000E+00 0. -1.
<mgrwt>
<rscale>  1 0.30000000E+03</rscale>
<asrwt>0</asrwt>
<pdfrwt beam="1">  1       21 0.11984659E-01 0.30000000E+03</pdfrwt>
<pdfrwt beam="2">0</pdfrwt>
<totfact> 0.62115230E+03</totfact>
</mgrwt>
</event>
<event>
 6    1  0.1295671E-001  0.3000000E+03  0.7818608E-02  0.1093470E+00
         21   -1    0    0  501  502  0.00000000000E+00  0.00000000000E+00  0.29773220389E+01  0.29773220389E+01  0.00000000000E+00 0. -1.
         13   -1    0    0    0    0 -0.00000000000E+00 -0.00000000000E+00 -0.10000000000E+04  0.10000000000E+04  0.00000000000E+00 0.  1.
    9000005    2    1    2  501    0 -0.19242703241E+02  0.34375549717E+02 -0.84529401294E+03  0.84621779973E+03  0.32613212447E+01 0.  0.
         13    1    3    3    0    0 -0.74027506382E+01  0.14968077467E+02 -0.32898995730E+03  0.32941347280E+03  0.00000000000E+00 0.  1.
          3    1    3    3  501    0 -0.11839952603E+02  0.19407472250E+02 -0.51630405564E+03  0.51680432692E+03  0.00000000000E+00 0.  1.
         -3    1    1    2    0  502  0.19242703241E+02 -0.34375549717E+02 -0.15172866502E+03  0.15675952231E+03  0.00000000000E+00 0. -1.
<mgrwt>
<rscale>  1 0.30000000E+03</rscale>
<asrwt>0</asrwt>
<pdfrwt beam="1">  1       21 0.10826648E-01 0.30000000E+03</pdfrwt>
<pdfrwt beam="2">0</pdfrwt>
<totfact> 0.74621241E+03</totfact>
</mgrwt>
</event>
<event>
 6    1  0.1295671E-001  0.3000000E+03  0.7818608E-02  0.1093470E+00
         21   -1    0    0  501  502  0.00000000000E+00  0.00000000000E+00  0.89326278554E+01  0.89326278554E+01  0.00000000000E+00 0. -1.
         13   -1    0    0    0    0 -0.00000000000E+00 -0.00000000000E+00 -0.10000000000E+04  0.10000000000E+04  0.00000000000E+00 0.  1.
    9000005    2    1    2  501    0  0.35024487536E+02  0.31850532131E+02 -0.93212706783E+03  0.93333414509E+03  0.32534104383E+01 0.  0.
         13    1    3    3    0    0  0.29670259601E+02  0.25350148660E+02 -0.77230027351E+03  0.77328563080E+03  0.00000000000E+00 0.  1.
          1    1    3    3  501    0  0.53542279347E+01  0.65003834706E+01 -0.15982679432E+03  0.16004851429E+03  0.00000000000E+00 0.  1.
         -3    1    1    2    0  502 -0.35024487536E+02 -0.31850532131E+02 -0.58940304313E+02  0.75598482767E+02  0.00000000000E+00 0. -1.
<mgrwt>
<rscale>  1 0.30000000E+03</rscale>
<asrwt>0</asrwt>
<pdfrwt beam="1">  1       21 0.32482352E-01 0.30000000E+03</pdfrwt>
<pdfrwt beam="2">0</pdfrwt>
<totfact> 0.92648123E+02</totfact>
</mgrwt>
</event>
<event>
 6    1  0.1295671E-001  0.3000000E+03  0.7818608E-02  0.1093470E+00
         21   -1    0    0  501  502  0.00000000000E+00  0.00000000000E+00  0.45606155764E+01  0.45606155764E+01  0.00000000000E+00 0. -1.
         13   -1    0    0    0    0 -0.00000000000E+00 -0.00000000000E+00 -0.10000000000E+04  0.10000000000E+04  0.00000000000E+00 0.  1.
    9000005    2    1    2  501    0  0.26802162204E+02 -0.34434341262E+02 -0.88095969357E+03  0.88204661892E+03  0.34894856061E+01 0.  0.
         13    1    3    3    0    0  0.19045954983E+02 -0.22587756901E+02 -0.57180735981E+03  0.57257018076E+03  0.00000000000E+00 0.  1.
          1    1    3    3  501    0  0.77562072208E+01 -0.11846584361E+02 -0.30915233376E+03  0.30947643816E+03  0.00000000000E+00 0.  1.
         -3    1    1    2    0  502 -0.26802162204E+02  0.34434341262E+02 -0.11447969086E+03  0.12251399665E+03  0.00000000000E+00 0. -1.
<mgrwt>
<rscale>  1 0.30000000E+03</rscale>
<asrwt>0</asrwt>
<pdfrwt beam="1">  1       21 0.16584092E-01 0.30000000E+03</pdfrwt>
<pdfrwt beam="2">0</pdfrwt>
<totfact> 0.34162254E+03</totfact>
</mgrwt>
</event>
<event>
 6    1  0.1295671E-001  0.3000000E+03  0.7818608E-02  0.1093470E+00
         21   -1    0    0  501  502  0.00000000000E+00  0.00000000000E+00  0.41296769302E+01  0.41296769302E+01  0.00000000000E+00 0. -1.
         13   -1    0    0    0    0 -0.00000000000E+00 -0.00000000000E+00 -0.10000000000E+04  0.10000000000E+04  0.00000000000E+00 0.  1.
    9000005    2    1    2  501    0 -0.19580150870E+02  0.52273320340E+02 -0.74638308987E+03  0.74847412378E+03  0.31487768169E+01 0.  0.
         13    1    3    3    0    0 -0.31517481796E+01  0.89669654668E+01 -0.11219542809E+03  0.11259730933E+03  0.00000000000E+00 0.  1.
          3    1    3    3  501    0 -0.16428402690E+02  0.43306354873E+02 -0.63418766178E+03  0.63587681444E+03  0.00000000000E+00 0.  1.
         -3    1    1    2    0  502  0.19580150870E+02 -0.52273320340E+02 -0.24948723320E+03  0.25565555315E+03  0.00000000000E+00 0. -1.
<mgrwt>
<rscale>  1 0.30000000E+03</rscale>
<asrwt>0</asrwt>
<pdfrwt beam="1">  1       21 0.15017039E-01 0.30000000E+03</pdfrwt>
<pdfrwt beam="2">0</pdfrwt>
<totfact> 0.41093915E+03</totfact>
</mgrwt>
</event>
<event>
 6    1  0.1295671E-001  0.3000000E+03  0.7818608E-02  0.1093470E+00
         21   -1    0    0  501  502  0.00000000000E+00  0.00000000000E+00  0.17478657141E+01  0.17478657141E+01  0.00000000000E+00 0. -1.
         13   -1    0    0    0    0 -0.00000000000E+00 -0.00000000000E+00 -0.10000000000E+04  0.10000000000E+04  0.00000000000E+00 0.  1.
    9000005    2    1    2  501    0  0.16378213763E+02  0.26348136343E+02 -0.83419677637E+03  0.83478490384E+03  0.43707903772E+01 0.  0.
         13    1    3    3    0    0  0.13751824936E+01  0.80560169376E+00 -0.61156062446E+02  0.61176826453E+02  0.00000000000E+00 0.  1.
          3    1    3    3  501    0  0.15003031270E+02  0.25542534649E+02 -0.77304071392E+03  0.77360807739E+03  0.00000000000E+00 0.  1.
         -1    1    1    2    0  502 -0.16378213763E+02 -0.26348136343E+02 -0.16405535792E+03  0.16696296187E+03  0.00000000000E+00 0. -1.
<mgrwt>
<rscale>  1 0.30000000E+03</rscale>
<asrwt>0</asrwt>
<pdfrwt beam="1">  1       21 0.63558887E-02 0.30000000E+03</pdfrwt>
<pdfrwt beam="2">0</pdfrwt>
<totfact> 0.19075903E+04</totfact>
</mgrwt>
</event>
<event>
 6    1  0.1295671E-001  0.3000000E+03  0.7818608E-02  0.1093470E+00
         21   -1    0    0  501  502  0.00000000000E+00  0.00000000000E+00  0.15376484649E+01  0.15376484649E+01  0.00000000000E+00 0. -1.
         13   -1    0    0    0    0 -0.00000000000E+00 -0.00000000000E+00 -0.10000000000E+04  0.10000000000E+04  0.00000000000E+00 0.  1.
    9000005    2    1    2  501    0 -0.15628554707E+02  0.26911001416E+02 -0.80327736624E+03  0.80388737095E+03  0.34531623524E+01 0.  0.
         13    1    3    3    0    0 -0.93937379077E+01  0.13539324620E+02 -0.39535807353E+03  0.39570135447E+03  0.00000000000E+00 0.  1.
          1    1    3    3  501    0 -0.62348167998E+01  0.13371676796E+02 -0.40791929272E+03  0.40818601648E+03  0.00000000000E+00 0.  1.
         -3    1    1    2    0  502  0.15628554707E+02 -0.26911001416E+02 -0.19518498529E+03  0.19765027752E+03  0.00000000000E+00 0. -1.
<mgrwt>
<rscale>  1 0.30000000E+03</rscale>
<asrwt>0</asrwt>
<pdfrwt beam="1">  1       21 0.55914608E-02 0.30000000E+03</pdfrwt>
<pdfrwt beam="2">0</pdfrwt>
<totfact> 0.23791315E+04</totfact>
</mgrwt>
</event>
<event>
 6    1  0.1295671E-001  0.3000000E+03  0.7818608E-02  0.1093470E+00
         21   -1    0    0  501  502  0.00000000000E+00  0.00000000000E+00  0.12311194182E+01  0.12311194182E+01  0.00000000000E+00 0. -1.
         13   -1    0    0    0    0 -0.00000000000E+00 -0.00000000000E+00 -0.10000000000E+04  0.10000000000E+04  0.00000000000E+00 0.  1.
    9000005    2    1    2  501    0  0.25348529649E+02 -0.20623077072E+02 -0.67951948053E+03  0.68031362426E+03  0.34703998024E+01 0.  0.
         13    1    3    3    0    0  0.12690624851E+02 -0.81141547938E+01 -0.31609628759E+03  0.31645498020E+03  0.00000000000E+00 0.  1.
          3    1    3    3  501    0  0.12657904799E+02 -0.12508922278E+02 -0.36342319294E+03  0.36385864406E+03  0.00000000000E+00 0.  1.
         -3    1    1    2    0  502 -0.25348529649E+02  0.20623077072E+02 -0.31924940005E+03  0.32091749516E+03  0.00000000000E+00 0. -1.
<mgrwt>
<rscale>  1 0.30000000E+03</rscale>
<asrwt>0</asrwt>
<pdfrwt beam="1">  1       21 0.44768073E-02 0.30000000E+03</pdfrwt>
<pdfrwt beam="2">0</pdfrwt>
<totfact> 0.34761595E+04</totfact>
</mgrwt>
</event>
<event>
 6    1  0.1295671E-001  0.3000000E+03  0.7818608E-02  0.1093470E+00
         21   -1    0    0  501  502  0.00000000000E+00  0.00000000000E+00  0.17438248073E+01  0.17438248073E+01  0.00000000000E+00 0. -1.
         13   -1    0    0    0    0 -0.00000000000E+00 -0.00000000000E+00 -0.10000000000E+04  0.10000000000E+04  0.00000000000E+00 0.  1.
    9000005    2    1    2  501    0 -0.31800437266E+02  0.42927776125E+01 -0.81859871685E+03  0.81924314511E+03  0.50769912128E+01 0.  0.
         13    1    3    3    0    0 -0.30756103743E+02  0.42795023949E+01 -0.80708773096E+03  0.80768487514E+03  0.00000000000E+00 0.  1.
          1    1    3    3  501    0 -0.10443335228E+01  0.13275217554E-01 -0.11510985889E+02  0.11558269977E+02  0.00000000000E+00 0.  1.
         -1    1    1    2    0  502  0.31800437266E+02 -0.42927776125E+01 -0.17965745834E+03  0.18250067969E+03  0.00000000000E+00 0. -1.
<mgrwt>
<rscale>  1 0.30000000E+03</rscale>
<asrwt>0</asrwt>
<pdfrwt beam="1">  1       21 0.63411945E-02 0.30000000E+03</pdfrwt>
<pdfrwt beam="2">0</pdfrwt>
<totfact> 0.19152401E+04</totfact>
</mgrwt>
</event>
<event>
 6    1  0.1295671E-001  0.3000000E+03  0.7818608E-02  0.1093470E+00
         21   -1    0    0  501  502  0.00000000000E+00  0.00000000000E+00  0.12747991147E+01  0.12747991147E+01  0.00000000000E+00 0. -1.
         13   -1    0    0    0    0 -0.00000000000E+00 -0.00000000000E+00 -0.10000000000E+04  0.10000000000E+04  0.00000000000E+00 0.  1.
    9000005    2    1    2  501    0 -0.30304168196E+02  0.69306293747E+01 -0.74464700807E+03  0.74530194060E+03  0.30724250960E+01 0.  0.
         13    1    3    3    0    0 -0.19420899720E+02  0.32235946238E+01 -0.49092716227E+03  0.49132172918E+03  0.00000000000E+00 0.  1.
          1    1    3    3  501    0 -0.10883268476E+02  0.37070347509E+01 -0.25371984580E+03  0.25398021142E+03  0.00000000000E+00 0.  1.
         -3    1    1    2    0  502  0.30304168196E+02 -0.69306293747E+01 -0.25407819281E+03  0.25597285851E+03  0.00000000000E+00 0. -1.
<mgrwt>
<rscale>  1 0.30000000E+03</rscale>
<asrwt>0</asrwt>
<pdfrwt beam="1">  1       21 0.46356429E-02 0.30000000E+03</pdfrwt>
<pdfrwt beam="2">0</pdfrwt>
<totfact> 0.32763254E+04</totfact>
</mgrwt>
</event>
<event>
 6    1  0.1295671E-001  0.3000000E+03  0.7818608E-02  0.1093470E+00
         21   -1    0    0  501  502  0.00000000000E+00  0.00000000000E+00  0.17125392057E+02  0.17125392057E+02  0.00000000000E+00 0. -1.
         13   -1    0    0    0    0 -0.00000000000E+00 -0.00000000000E+00 -0.10000000000E+04  0.10000000000E+04  0.00000000000E+00 0.  1.
    9000005    2    1    2  501    0  0.65835748802E+02  0.88077696913E+01 -0.92960994932E+03  0.93198405964E+03  0.27761348592E+01 0.  0.
         13    1    3    3    0    0  0.63403766478E+02  0.79510265057E+01 -0.89472507129E+03  0.89700401873E+03  0.00000000000E+00 0.  1.
          1    1    3    3  501    0  0.24319823244E+01  0.85674318561E+00 -0.34884878027E+02  0.34980040907E+02  0.00000000000E+00 0.  1.
         -1    1    1    2    0  502 -0.65835748802E+02 -0.88077696913E+01 -0.53264658624E+02  0.85141332416E+02  0.00000000000E+00 0. -1.
<mgrwt>
<rscale>  1 0.30000000E+03</rscale>
<asrwt>0</asrwt>
<pdfrwt beam="1">  1       21 0.62274284E-01 0.30000000E+03</pdfrwt>
<pdfrwt beam="2">0</pdfrwt>
<totfact> 0.23088727E+02</totfact>
</mgrwt>
</event>
<event>
 6    1  0.1295671E-001  0.3000000E+03  0.7818608E-02  0.1093470E+00
         21   -1    0    0  501  502  0.00000000000E+00  0.00000000000E+00  0.94825613163E+01  0.94825613163E+01  0.00000000000E+00 0. -1.
         13   -1    0    0    0    0 -0.00000000000E+00 -0.00000000000E+00 -0.10000000000E+04  0.10000000000E+04  0.00000000000E+00 0.  1.
    9000005    2    1    2  501    0  0.51360949064E+02  0.73769845911E+02 -0.68881629432E+03  0.69467544932E+03  0.51142262161E+01 0.  0.
         13    1    3    3    0    0  0.16387876891E+02  0.25309597688E+02 -0.21437478031E+03  0.21648483706E+03  0.00000000000E+00 0.  1.
          3    1    3    3  501    0  0.34973072173E+02  0.48460248222E+02 -0.47444151401E+03  0.47819061226E+03  0.00000000000E+00 0.  1.
         -3    1    1    2    0  502 -0.51360949064E+02 -0.73769845911E+02 -0.30170114436E+03  0.31480711200E+03  0.00000000000E+00 0. -1.
<mgrwt>
<rscale>  1 0.30000000E+03</rscale>
<asrwt>0</asrwt>
<pdfrwt beam="1">  1       21 0.34482114E-01 0.30000000E+03</pdfrwt>
<pdfrwt beam="2">0</pdfrwt>
<totfact> 0.82041180E+02</totfact>
</mgrwt>
</event>
<event>
 6    1  0.1295671E-001  0.3000000E+03  0.7818608E-02  0.1093470E+00
         21   -1    0    0  501  502  0.00000000000E+00  0.00000000000E+00  0.58263648052E+01  0.58263648052E+01  0.00000000000E+00 0. -1.
         13   -1    0    0    0    0 -0.00000000000E+00 -0.00000000000E+00 -0.10000000000E+04  0.10000000000E+04  0.00000000000E+00 0.  1.
    9000005    2    1    2  501    0  0.63435546665E+02  0.15199701825E+02 -0.75795964535E+03  0.76077096593E+03  0.38130193984E+01 0.  0.
         13    1    3    3    0    0  0.72614949735E+01  0.13178904365E+01 -0.73366712476E+02  0.73736969317E+02  0.00000000000E+00 0.  1.
          3    1    3    3  501    0  0.56174051691E+02  0.13881811389E+02 -0.68459293287E+03  0.68703399662E+03  0.00000000000E+00 0.  1.
         -1    1    1    2    0  502 -0.63435546665E+02 -0.15199701825E+02 -0.23621398985E+03  0.24505539887E+03  0.00000000000E+00 0. -1.
<mgrwt>
<rscale>  1 0.30000000E+03</rscale>
<asrwt>0</asrwt>
<pdfrwt beam="1">  1       21 0.21186826E-01 0.30000000E+03</pdfrwt>
<pdfrwt beam="2">0</pdfrwt>
<totfact> 0.21486174E+03</totfact>
</mgrwt>
</event>
<event>
 6    1  0.1295671E-001  0.3000000E+03  0.7818608E-02  0.1093470E+00
         21   -1    0    0  501  502  0.00000000000E+00  0.00000000000E+00  0.13098881084E+01  0.13098881084E+01  0.00000000000E+00 0. -1.
         13   -1    0    0    0    0 -0.00000000000E+00 -0.00000000000E+00 -0.10000000000E+04  0.10000000000E+04  0.00000000000E+00 0.  1.
    9000005    2    1    2  501    0  0.23423392170E+02  0.24470159552E+02 -0.67341017399E+03  0.67427092711E+03  0.35463649106E+01 0.  0.
         13    1    3    3    0    0  0.14733479883E+01  0.14761810886E+01 -0.27499762257E+02  0.27578737989E+02  0.00000000000E+00 0.  1.
          1    1    3    3  501    0  0.21950044181E+02  0.22993978463E+02 -0.64591041173E+03  0.64669218912E+03  0.00000000000E+00 0.  1.
         -1    1    1    2    0  502 -0.23423392170E+02 -0.24470159552E+02 -0.32527993791E+03  0.32703896100E+03  0.00000000000E+00 0. -1.
<mgrwt>
<rscale>  1 0.30000000E+03</rscale>
<asrwt>0</asrwt>
<pdfrwt beam="1">  1       21 0.47632395E-02 0.30000000E+03</pdfrwt>
<pdfrwt beam="2">0</pdfrwt>
<totfact> 0.31285079E+04</totfact>
</mgrwt>
</event>
<event>
 6    1  0.1295671E-001  0.3000000E+03  0.7818608E-02  0.1093470E+00
         21   -1    0    0  501  502  0.00000000000E+00  0.00000000000E+00  0.25457309077E+01  0.25457309077E+01  0.00000000000E+00 0. -1.
         13   -1    0    0    0    0 -0.00000000000E+00 -0.00000000000E+00 -0.10000000000E+04  0.10000000000E+04  0.00000000000E+00 0.  1.
    9000005    2    1    2  501    0 -0.40278240391E+02 -0.28596813872E+02 -0.39929395315E+03  0.40234919811E+03  0.30169166443E+01 0.  0.
         13    1    3    3    0    0 -0.25607612540E+02 -0.19387554059E+02 -0.26782325051E+03  0.26974232257E+03  0.00000000000E+00 0.  1.
          1    1    3    3  501    0 -0.14670627851E+02 -0.92092598130E+01 -0.13147070264E+03  0.13260687554E+03  0.00000000000E+00 0.  1.
         -1    1    1    2    0  502  0.40278240391E+02  0.28596813872E+02 -0.59816031594E+03  0.60019653280E+03  0.00000000000E+00 0. -1.
<mgrwt>
<rscale>  1 0.30000000E+03</rscale>
<asrwt>0</asrwt>
<pdfrwt beam="1">  1       21 0.92572228E-02 0.30000000E+03</pdfrwt>
<pdfrwt beam="2">0</pdfrwt>
<totfact> 0.98720323E+03</totfact>
</mgrwt>
</event>
<event>
 6    1  0.1295671E-001  0.3000000E+03  0.7818608E-02  0.1093470E+00
         21   -1    0    0  501  502  0.00000000000E+00  0.00000000000E+00  0.82179916037E+01  0.82179916037E+01  0.00000000000E+00 0. -1.
         13   -1    0    0    0    0 -0.00000000000E+00 -0.00000000000E+00 -0.10000000000E+04  0.10000000000E+04  0.00000000000E+00 0.  1.
    9000005    2    1    2  501    0  0.43814646675E+02 -0.57074357052E+02 -0.80242208849E+03  0.80564853496E+03  0.33389066346E+01 0.  0.
         13    1    3    3    0    0  0.41408473791E+02 -0.55052605773E+02 -0.76702030507E+03  0.77010752463E+03  0.00000000000E+00 0.  1.
          1    1    3    3  501    0  0.24061728843E+01 -0.20217512796E+01 -0.35401783414E+02  0.35541010327E+02  0.00000000000E+00 0.  1.
         -3    1    1    2    0  502 -0.43814646675E+02  0.57074357052E+02 -0.18935991991E+03  0.20256945664E+03  0.00000000000E+00 0. -1.
<mgrwt>
<rscale>  1 0.30000000E+03</rscale>
<asrwt>0</asrwt>
<pdfrwt beam="1">  1       21 0.29883669E-01 0.30000000E+03</pdfrwt>
<pdfrwt beam="2">0</pdfrwt>
<totfact> 0.10957606E+03</totfact>
</mgrwt>
</event>
<event>
 6    1  0.1295671E-001  0.3000000E+03  0.7818608E-02  0.1093470E+00
         21   -1    0    0  501  502  0.00000000000E+00  0.00000000000E+00  0.17483548748E+01  0.17483548748E+01  0.00000000000E+00 0. -1.
         13   -1    0    0    0    0 -0.00000000000E+00 -0.00000000000E+00 -0.10000000000E+04  0.10000000000E+04  0.00000000000E+00 0.  1.
    9000005    2    1    2  501    0  0.40397256748E+01  0.38211103414E+02 -0.69460000804E+03  0.69567528433E+03  0.43037486001E+01 0.  0.
         13    1    3    3    0    0  0.30977623094E+01  0.16107904158E+02 -0.26706373048E+03  0.26756699506E+03  0.00000000000E+00 0.  1.
          1    1    3    3  501    0  0.94196336537E+00  0.22103199257E+02 -0.42753627756E+03  0.42810828927E+03  0.00000000000E+00 0.  1.
         -3    1    1    2    0  502 -0.40397256748E+01 -0.38211103414E+02 -0.30365163708E+03  0.30607307054E+03  0.00000000000E+00 0. -1.
<mgrwt>
<rscale>  1 0.30000000E+03</rscale>
<asrwt>0</asrwt>
<pdfrwt beam="1">  1       21 0.63576675E-02 0.30000000E+03</pdfrwt>
<pdfrwt beam="2">0</pdfrwt>
<totfact> 0.19066674E+04</totfact>
</mgrwt>
</event>
<event>
 6    1  0.1295671E-001  0.3000000E+03  0.7818608E-02  0.1093470E+00
         21   -1    0    0  501  502  0.00000000000E+00  0.00000000000E+00  0.14412269182E+01  0.14412269182E+01  0.00000000000E+00 0. -1.
         13   -1    0    0    0    0 -0.00000000000E+00 -0.00000000000E+00 -0.10000000000E+04  0.10000000000E+04  0.00000000000E+00 0.  1.
    9000005    2    1    2  501    0 -0.31963467087E+02  0.88669749815E+01 -0.74176232628E+03  0.74251131060E+03  0.33780482151E+01 0.  0.
         13    1    3    3    0    0 -0.21019068369E+02  0.61313454214E+01 -0.52342654348E+03  0.52388428212E+03  0.00000000000E+00 0.  1.
          3    1    3    3  501    0 -0.10944398718E+02  0.27356295601E+01 -0.21833578280E+03  0.21862702848E+03  0.00000000000E+00 0.  1.
         -1    1    1    2    0  502  0.31963467087E+02 -0.88669749815E+01 -0.25679644680E+03  0.25892991632E+03  0.00000000000E+00 0. -1.
<mgrwt>
<rscale>  1 0.30000000E+03</rscale>
<asrwt>0</asrwt>
<pdfrwt beam="1">  1       21 0.52408362E-02 0.30000000E+03</pdfrwt>
<pdfrwt beam="2">0</pdfrwt>
<totfact> 0.26582189E+04</totfact>
</mgrwt>
</event>
<event>
 6    1  0.1295671E-001  0.3000000E+03  0.7818608E-02  0.1093470E+00
         21   -1    0    0  501  502  0.00000000000E+00  0.00000000000E+00  0.12817157548E+01  0.12817157548E+01  0.00000000000E+00 0. -1.
         13   -1    0    0    0    0 -0.00000000000E+00 -0.00000000000E+00 -0.10000000000E+04  0.10000000000E+04  0.00000000000E+00 0.  1.
    9000005    2    1    2  501    0 -0.55451974631E+01  0.33312690922E+02 -0.66254105133E+03  0.66341248584E+03  0.38726066497E+01 0.  0.
         13    1    3    3    0    0 -0.27748676405E+01  0.19600593587E+02 -0.35148619301E+03  0.35204321756E+03  0.00000000000E+00 0.  1.
          1    1    3    3  501    0 -0.27703298226E+01  0.13712097334E+02 -0.31105485833E+03  0.31136926828E+03  0.00000000000E+00 0.  1.
         -1    1    1    2    0  502  0.55451974631E+01 -0.33312690922E+02 -0.33617723291E+03  0.33786922991E+03  0.00000000000E+00 0. -1.
<mgrwt>
<rscale>  1 0.30000000E+03</rscale>
<asrwt>0</asrwt>
<pdfrwt beam="1">  1       21 0.46607944E-02 0.30000000E+03</pdfrwt>
<pdfrwt beam="2">0</pdfrwt>
<totfact> 0.32463334E+04</totfact>
</mgrwt>
</event>
<event>
 6    1  0.1295671E-001  0.3000000E+03  0.7818608E-02  0.1093470E+00
         21   -1    0    0  501  502  0.00000000000E+00  0.00000000000E+00  0.10808698960E+02  0.10808698960E+02  0.00000000000E+00 0. -1.
         13   -1    0    0    0    0 -0.00000000000E+00 -0.00000000000E+00 -0.10000000000E+04  0.10000000000E+04  0.00000000000E+00 0.  1.
    9000005    2    1    2  501    0 -0.79842519141E+02 -0.35896107396E+02 -0.22229602820E+03  0.23893324404E+03  0.31957110368E+01 0.  0.
         13    1    3    3    0    0 -0.42743255089E+02 -0.20635628343E+02 -0.11793969023E+03  0.12713215779E+03  0.00000000000E+00 0.  1.
          3    1    3    3  501    0 -0.37099264052E+02 -0.15260479053E+02 -0.10435633796E+03  0.11180108625E+03  0.00000000000E+00 0.  1.
         -3    1    1    2    0  502  0.79842519141E+02  0.35896107396E+02 -0.76689527284E+03  0.77187545491E+03  0.00000000000E+00 0. -1.
<mgrwt>
<rscale>  1 0.30000000E+03</rscale>
<asrwt>0</asrwt>
<pdfrwt beam="1">  1       21 0.39304443E-01 0.30000000E+03</pdfrwt>
<pdfrwt beam="2">0</pdfrwt>
<totfact> 0.62651306E+02</totfact>
</mgrwt>
</event>
<event>
 6    1  0.1295671E-001  0.3000000E+03  0.7818608E-02  0.1093470E+00
         21   -1    0    0  501  502  0.00000000000E+00  0.00000000000E+00  0.15608707649E+01  0.15608707649E+01  0.00000000000E+00 0. -1.
         13   -1    0    0    0    0 -0.00000000000E+00 -0.00000000000E+00 -0.10000000000E+04  0.10000000000E+04  0.00000000000E+00 0.  1.
    9000005    2    1    2  501    0 -0.24550843091E+02  0.18348662322E+02 -0.81441616335E+03  0.81500291924E+03  0.40809229162E+01 0.  0.
         13    1    3    3    0    0 -0.25231751748E+01  0.31572701809E+01 -0.13360873287E+03  0.13366984801E+03  0.00000000000E+00 0.  1.
          1    1    3    3  501    0 -0.22027667917E+02  0.15191392141E+02 -0.68080743048E+03  0.68133307123E+03  0.00000000000E+00 0.  1.
         -3    1    1    2    0  502  0.24550843091E+02 -0.18348662322E+02 -0.18402296588E+03  0.18655795153E+03  0.00000000000E+00 0. -1.
<mgrwt>
<rscale>  1 0.30000000E+03</rscale>
<asrwt>0</asrwt>
<pdfrwt beam="1">  1       21 0.56759057E-02 0.30000000E+03</pdfrwt>
<pdfrwt beam="2">0</pdfrwt>
<totfact> 0.23186507E+04</totfact>
</mgrwt>
</event>
<event>
 6    1  0.1295671E-001  0.3000000E+03  0.7818608E-02  0.1093470E+00
         21   -1    0    0  501  502  0.00000000000E+00  0.00000000000E+00  0.83147631702E+01  0.83147631702E+01  0.00000000000E+00 0. -1.
         13   -1    0    0    0    0 -0.00000000000E+00 -0.00000000000E+00 -0.10000000000E+04  0.10000000000E+04  0.00000000000E+00 0.  1.
    9000005    2    1    2  501    0  0.86221534812E+02  0.24425612515E+02 -0.40424349056E+03  0.41407695818E+03  0.40204512402E+01 0.  0.
         13    1    3    3    0    0  0.57159287841E+02  0.18156844186E+02 -0.26982393305E+03  0.27640877342E+03  0.00000000000E+00 0.  1.
          3    1    3    3  501    0  0.29062246971E+02  0.62687683295E+01 -0.13441955751E+03  0.13766818477E+03  0.00000000000E+00 0.  1.
         -3    1    1    2    0  502 -0.86221534812E+02 -0.24425612515E+02 -0.58744174627E+03  0.59423780499E+03  0.00000000000E+00 0. -1.
<mgrwt>
<rscale>  1 0.30000000E+03</rscale>
<asrwt>0</asrwt>
<pdfrwt beam="1">  1       21 0.30235566E-01 0.30000000E+03</pdfrwt>
<pdfrwt beam="2">0</pdfrwt>
<totfact> 0.10703900E+03</totfact>
</mgrwt>
</event>
<event>
 6    1  0.1295671E-001  0.3000000E+03  0.7818608E-02  0.1093470E+00
         21   -1    0    0  501  502  0.00000000000E+00  0.00000000000E+00  0.11376463997E+01  0.11376463997E+01  0.00000000000E+00 0. -1.
         13   -1    0    0    0    0 -0.00000000000E+00 -0.00000000000E+00 -0.10000000000E+04  0.10000000000E+04  0.00000000000E+00 0.  1.
    9000005    2    1    2  501    0  0.32668830996E+02 -0.10129047267E+01 -0.38366326862E+03  0.38507093519E+03  0.37206113308E+01 0.  0.
         13    1    3    3    0    0  0.23567646543E+02  0.93537461481E+00 -0.27316612428E+03  0.27418249459E+03  0.00000000000E+00 0.  1.
          3    1    3    3  501    0  0.91011844526E+01 -0.19482793415E+01 -0.11049714434E+03  0.11088844060E+03  0.00000000000E+00 0.  1.
         -3    1    1    2    0  502 -0.32668830996E+02  0.10129047267E+01 -0.61519908498E+03  0.61606671121E+03  0.00000000000E+00 0. -1.
<mgrwt>
<rscale>  1 0.30000000E+03</rscale>
<asrwt>0</asrwt>
<pdfrwt beam="1">  1       21 0.41369047E-02 0.30000000E+03</pdfrwt>
<pdfrwt beam="2">0</pdfrwt>
<totfact> 0.39728614E+04</totfact>
</mgrwt>
</event>
<event>
 6    1  0.1295671E-001  0.3000000E+03  0.7818608E-02  0.1093470E+00
         21   -1    0    0  501  502  0.00000000000E+00  0.00000000000E+00  0.16737102185E+01  0.16737102185E+01  0.00000000000E+00 0. -1.
         13   -1    0    0    0    0 -0.00000000000E+00 -0.00000000000E+00 -0.10000000000E+04  0.10000000000E+04  0.00000000000E+00 0.  1.
    9000005    2    1    2  501    0  0.37207663811E+02 -0.16209941234E+02 -0.46843985364E+03  0.47023527761E+03  0.61763576997E+01 0.  0.
         13    1    3    3    0    0  0.25173936051E+02 -0.90084763754E+01 -0.33283016511E+03  0.33390237871E+03  0.00000000000E+00 0.  1.
          1    1    3    3  501    0  0.12033727760E+02 -0.72014648590E+01 -0.13560968853E+03  0.13633289890E+03  0.00000000000E+00 0.  1.
         -3    1    1    2    0  502 -0.37207663811E+02  0.16209941234E+02 -0.52988643614E+03  0.53143843260E+03  0.00000000000E+00 0. -1.
<mgrwt>
<rscale>  1 0.30000000E+03</rscale>
<asrwt>0</asrwt>
<pdfrwt beam="1">  1       21 0.60862318E-02 0.30000000E+03</pdfrwt>
<pdfrwt beam="2">0</pdfrwt>
<totfact> 0.20559273E+04</totfact>
</mgrwt>
</event>
<event>
 6    1  0.1295671E-001  0.3000000E+03  0.7818608E-02  0.1093470E+00
         21   -1    0    0  501  502  0.00000000000E+00  0.00000000000E+00  0.15821763710E+01  0.15821763710E+01  0.00000000000E+00 0. -1.
         13   -1    0    0    0    0 -0.00000000000E+00 -0.00000000000E+00 -0.10000000000E+04  0.10000000000E+04  0.00000000000E+00 0.  1.
    9000005    2    1    2  501    0  0.20957159200E+02  0.33192450920E+02 -0.57501518826E+03  0.57636372315E+03  0.34253930090E+01 0.  0.
         13    1    3    3    0    0  0.16067834139E+02  0.26405710836E+02 -0.47060248783E+03  0.47161651626E+03  0.00000000000E+00 0.  1.
          3    1    3    3  501    0  0.48893250609E+01  0.67867400834E+01 -0.10441270042E+03  0.10474720689E+03  0.00000000000E+00 0.  1.
         -3    1    1    2    0  502 -0.20957159200E+02 -0.33192450920E+02 -0.42340263537E+03  0.42521845322E+03  0.00000000000E+00 0. -1.
<mgrwt>
<rscale>  1 0.30000000E+03</rscale>
<asrwt>0</asrwt>
<pdfrwt beam="1">  1       21 0.57533808E-02 0.30000000E+03</pdfrwt>
<pdfrwt beam="2">0</pdfrwt>
<totfact> 0.22652107E+04</totfact>
</mgrwt>
</event>
<event>
 6    1  0.1295671E-001  0.3000000E+03  0.7818608E-02  0.1093470E+00
         21   -1    0    0  501  502  0.00000000000E+00  0.00000000000E+00  0.80093473985E+01  0.80093473985E+01  0.00000000000E+00 0. -1.
         13   -1    0    0    0    0 -0.00000000000E+00 -0.00000000000E+00 -0.10000000000E+04  0.10000000000E+04  0.00000000000E+00 0.  1.
    9000005    2    1    2  501    0 -0.18389667509E+02 -0.83931376194E+02 -0.35612040524E+03  0.36636020085E+03  0.39240235794E+01 0.  0.
         13    1    3    3    0    0 -0.54449998194E+01 -0.23681235358E+02 -0.10832089202E+03  0.11101290276E+03  0.00000000000E+00 0.  1.
          1    1    3    3  501    0 -0.12944667690E+02 -0.60250140836E+02 -0.24779951322E+03  0.25534729810E+03  0.00000000000E+00 0.  1.
         -1    1    1    2    0  502  0.18389667509E+02  0.83931376194E+02 -0.63587024736E+03  0.64164914654E+03  0.00000000000E+00 0. -1.
<mgrwt>
<rscale>  1 0.30000000E+03</rscale>
<asrwt>0</asrwt>
<pdfrwt beam="1">  1       21 0.29124961E-01 0.30000000E+03</pdfrwt>
<pdfrwt beam="2">0</pdfrwt>
<totfact> 0.11534685E+03</totfact>
</mgrwt>
</event>
<event>
 6    1  0.1295671E-001  0.3000000E+03  0.7818608E-02  0.1093470E+00
         21   -1    0    0  501  502  0.00000000000E+00  0.00000000000E+00  0.24694470680E+01  0.24694470680E+01  0.00000000000E+00 0. -1.
         13   -1    0    0    0    0 -0.00000000000E+00 -0.00000000000E+00 -0.10000000000E+04  0.10000000000E+04  0.00000000000E+00 0.  1.
    9000005    2    1    2  501    0  0.27505948580E+02  0.24574484088E+02 -0.83435126423E+03  0.83517341383E+03  0.34808867597E+01 0.  0.
         13    1    3    3    0    0  0.15432805842E+02  0.15917224978E+02 -0.51354805954E+03  0.51402639913E+03  0.00000000000E+00 0.  1.
          1    1    3    3  501    0  0.12073142738E+02  0.86572591097E+01 -0.32080320469E+03  0.32114701470E+03  0.00000000000E+00 0.  1.
         -1    1    1    2    0  502 -0.27505948580E+02 -0.24574484088E+02 -0.16317928870E+03  0.16729603324E+03  0.00000000000E+00 0. -1.
<mgrwt>
<rscale>  1 0.30000000E+03</rscale>
<asrwt>0</asrwt>
<pdfrwt beam="1">  1       21 0.89798265E-02 0.30000000E+03</pdfrwt>
<pdfrwt beam="2">0</pdfrwt>
<totfact> 0.10419427E+04</totfact>
</mgrwt>
</event>
<event>
 6    1  0.1295671E-001  0.3000000E+03  0.7818608E-02  0.1093470E+00
         21   -1    0    0  501  502  0.00000000000E+00  0.00000000000E+00  0.26573501486E+02  0.26573501486E+02  0.00000000000E+00 0. -1.
         13   -1    0    0    0    0 -0.00000000000E+00 -0.00000000000E+00 -0.10000000000E+04  0.10000000000E+04  0.00000000000E+00 0.  1.
    9000005    2    1    2  501    0 -0.54812620342E+02 -0.15695988273E+02 -0.96757579123E+03  0.96925842343E+03  0.28622046502E+01 0.  0.
         13    1    3    3    0    0 -0.11675034513E+02 -0.27943802750E+01 -0.18655533234E+03  0.18694118598E+03  0.00000000000E+00 0.  1.
          3    1    3    3  501    0 -0.43137585828E+02 -0.12901607998E+02 -0.78102045889E+03  0.78231723745E+03  0.00000000000E+00 0.  1.
         -1    1    1    2    0  502  0.54812620342E+02  0.15695988273E+02 -0.58507072804E+01  0.57315078054E+02  0.00000000000E+00 0. -1.
<mgrwt>
<rscale>  1 0.30000000E+03</rscale>
<asrwt>0</asrwt>
<pdfrwt beam="1">  1       21 0.96631118E-01 0.30000000E+03</pdfrwt>
<pdfrwt beam="2">0</pdfrwt>
<totfact> 0.80441311E+01</totfact>
</mgrwt>
</event>
<event>
 6    1  0.1295671E-001  0.3000000E+03  0.7818608E-02  0.1093470E+00
         21   -1    0    0  501  502  0.00000000000E+00  0.00000000000E+00  0.10941952967E+02  0.10941952967E+02  0.00000000000E+00 0. -1.
         13   -1    0    0    0    0 -0.00000000000E+00 -0.00000000000E+00 -0.10000000000E+04  0.10000000000E+04  0.00000000000E+00 0.  1.
    9000005    2    1    2  501    0 -0.38391468651E+02 -0.94307333807E+02 -0.60956777383E+03  0.61802892757E+03  0.43710798206E+01 0.  0.
         13    1    3    3    0    0 -0.67561998263E+01 -0.21278778081E+02 -0.13589382373E+03  0.13771551822E+03  0.00000000000E+00 0.  1.
          3    1    3    3  501    0 -0.31635268825E+02 -0.73028555726E+02 -0.47367395011E+03  0.48031340934E+03  0.00000000000E+00 0.  1.
         -3    1    1    2    0  502  0.38391468651E+02  0.94307333807E+02 -0.37949027320E+03  0.39291302540E+03  0.00000000000E+00 0. -1.
<mgrwt>
<rscale>  1 0.30000000E+03</rscale>
<asrwt>0</asrwt>
<pdfrwt beam="1">  1       21 0.39789004E-01 0.30000000E+03</pdfrwt>
<pdfrwt beam="2">0</pdfrwt>
<totfact> 0.61072205E+02</totfact>
</mgrwt>
</event>
<event>
 6    1  0.1295671E-001  0.3000000E+03  0.7818608E-02  0.1093470E+00
         21   -1    0    0  501  502  0.00000000000E+00  0.00000000000E+00  0.47638769149E+01  0.47638769149E+01  0.00000000000E+00 0. -1.
         13   -1    0    0    0    0 -0.00000000000E+00 -0.00000000000E+00 -0.10000000000E+04  0.10000000000E+04  0.00000000000E+00 0.  1.
    9000005    2    1    2  501    0 -0.67023498653E+01  0.67959625446E+02 -0.42692021359E+03  0.43235981930E+03  0.32729790755E+01 0.  0.
         13    1    3    3    0    0 -0.70539734818E+00  0.19126912427E+02 -0.12522513135E+03  0.12667939804E+03  0.00000000000E+00 0.  1.
          3    1    3    3  501    0 -0.59969525172E+01  0.48832713020E+02 -0.30169508223E+03  0.30568042126E+03  0.00000000000E+00 0.  1.
         -1    1    1    2    0  502  0.67023498653E+01 -0.67959625446E+02 -0.56831590950E+03  0.57240405761E+03  0.00000000000E+00 0. -1.
<mgrwt>
<rscale>  1 0.30000000E+03</rscale>
<asrwt>0</asrwt>
<pdfrwt beam="1">  1       21 0.17323225E-01 0.30000000E+03</pdfrwt>
<pdfrwt beam="2">0</pdfrwt>
<totfact> 0.31483769E+03</totfact>
</mgrwt>
</event>
<event>
 6    1  0.1295671E-001  0.3000000E+03  0.7818608E-02  0.1093470E+00
         21   -1    0    0  501  502  0.00000000000E+00  0.00000000000E+00  0.10980193618E+01  0.10980193618E+01  0.00000000000E+00 0. -1.
         13   -1    0    0    0    0 -0.00000000000E+00 -0.00000000000E+00 -0.10000000000E+04  0.10000000000E+04  0.00000000000E+00 0.  1.
    9000005    2    1    2  501    0  0.26764846692E+02  0.19290025892E+02 -0.51160323764E+03  0.51268372079E+03  0.42734864666E+01 0.  0.
         13    1    3    3    0    0  0.52524029763E+01  0.22721746011E+01 -0.73337546149E+02  0.73560493402E+02  0.00000000000E+00 0.  1.
          3    1    3    3  501    0  0.21512443716E+02  0.17017851291E+02 -0.43826569149E+03  0.43912322739E+03  0.00000000000E+00 0.  1.
         -3    1    1    2    0  502 -0.26764846692E+02 -0.19290025892E+02 -0.48729874300E+03  0.48841429857E+03  0.00000000000E+00 0. -1.
<mgrwt>
<rscale>  1 0.30000000E+03</rscale>
<asrwt>0</asrwt>
<pdfrwt beam="1">  1       21 0.39928061E-02 0.30000000E+03</pdfrwt>
<pdfrwt beam="2">0</pdfrwt>
<totfact> 0.42174974E+04</totfact>
</mgrwt>
</event>
<event>
 6    1  0.1295671E-001  0.3000000E+03  0.7818608E-02  0.1093470E+00
         21   -1    0    0  501  502  0.00000000000E+00  0.00000000000E+00  0.40728649318E+01  0.40728649318E+01  0.00000000000E+00 0. -1.
         13   -1    0    0    0    0 -0.00000000000E+00 -0.00000000000E+00 -0.10000000000E+04  0.10000000000E+04  0.00000000000E+00 0.  1.
    9000005    2    1    2  501    0  0.44987356259E+02 -0.10779255000E+02 -0.15290958213E+03  0.15978698378E+03  0.32381035793E+01 0.  0.
         13    1    3    3    0    0  0.16026146257E+02 -0.23261088421E+01 -0.51821762781E+02  0.54293123358E+02  0.00000000000E+00 0.  1.
          3    1    3    3  501    0  0.28961210002E+02 -0.84531461578E+01 -0.10108781935E+03  0.10549386042E+03  0.00000000000E+00 0.  1.
         -1    1    1    2    0  502 -0.44987356259E+02  0.10779255000E+02 -0.84301755293E+03  0.84428588115E+03  0.00000000000E+00 0. -1.
<mgrwt>
<rscale>  1 0.30000000E+03</rscale>
<asrwt>0</asrwt>
<pdfrwt beam="1">  1       21 0.14810449E-01 0.30000000E+03</pdfrwt>
<pdfrwt beam="2">0</pdfrwt>
<totfact> 0.42160426E+03</totfact>
</mgrwt>
</event>
<event>
 6    1  0.1295671E-001  0.3000000E+03  0.7818608E-02  0.1093470E+00
         21   -1    0    0  501  502  0.00000000000E+00  0.00000000000E+00  0.41960354171E+01  0.41960354171E+01  0.00000000000E+00 0. -1.
         13   -1    0    0    0    0 -0.00000000000E+00 -0.00000000000E+00 -0.10000000000E+04  0.10000000000E+04  0.00000000000E+00 0.  1.
    9000005    2    1    2  501    0  0.27423296546E+02 -0.58139765376E+02 -0.55631900317E+03  0.56003468994E+03  0.39687696397E+01 0.  0.
         13    1    3    3    0    0  0.11686075083E+02 -0.25344042281E+02 -0.22468239375E+03  0.22640906097E+03  0.00000000000E+00 0.  1.
          1    1    3    3  501    0  0.15737221463E+02 -0.32795723095E+02 -0.33163660943E+03  0.33362562897E+03  0.00000000000E+00 0.  1.
         -1    1    1    2    0  502 -0.27423296546E+02  0.58139765376E+02 -0.43948496141E+03  0.44416134548E+03  0.00000000000E+00 0. -1.
<mgrwt>
<rscale>  1 0.30000000E+03</rscale>
<asrwt>0</asrwt>
<pdfrwt beam="1">  1       21 0.15258343E-01 0.30000000E+03</pdfrwt>
<pdfrwt beam="2">0</pdfrwt>
<totfact> 0.39897844E+03</totfact>
</mgrwt>
</event>
<event>
 6    1  0.1295671E-001  0.3000000E+03  0.7818608E-02  0.1093470E+00
         21   -1    0    0  501  502  0.00000000000E+00  0.00000000000E+00  0.17884391021E+01  0.17884391021E+01  0.00000000000E+00 0. -1.
         13   -1    0    0    0    0 -0.00000000000E+00 -0.00000000000E+00 -0.10000000000E+04  0.10000000000E+04  0.00000000000E+00 0.  1.
    9000005    2    1    2  501    0 -0.32233953609E+02 -0.21476222998E+02 -0.69881900447E+03  0.69990077992E+03  0.35839657227E+01 0.  0.
         13    1    3    3    0    0 -0.22436793658E+01 -0.15930368099E+01 -0.68862162567E+02  0.68917119040E+02  0.00000000000E+00 0.  1.
          3    1    3    3  501    0 -0.29990274243E+02 -0.19883186188E+02 -0.62995684190E+03  0.63098366088E+03  0.00000000000E+00 0.  1.
         -1    1    1    2    0  502  0.32233953609E+02  0.21476222998E+02 -0.29939255643E+03  0.30188765918E+03  0.00000000000E+00 0. -1.
<mgrwt>
<rscale>  1 0.30000000E+03</rscale>
<asrwt>0</asrwt>
<pdfrwt beam="1">  1       21 0.65034286E-02 0.30000000E+03</pdfrwt>
<pdfrwt beam="2">0</pdfrwt>
<totfact> 0.18333298E+04</totfact>
</mgrwt>
</event>
<event>
 6    1  0.1295671E-001  0.3000000E+03  0.7818608E-02  0.1093470E+00
         21   -1    0    0  501  502  0.00000000000E+00  0.00000000000E+00  0.44541180378E+01  0.44541180378E+01  0.00000000000E+00 0. -1.
         13   -1    0    0    0    0 -0.00000000000E+00 -0.00000000000E+00 -0.10000000000E+04  0.10000000000E+04  0.00000000000E+00 0.  1.
    9000005    2    1    2  501    0  0.94929203529E+01 -0.35785154586E+02 -0.91559929736E+03  0.91635105784E+03  0.25485416868E+01 0.  0.
         13    1    3    3    0    0  0.17145720043E+01 -0.99607973096E+01 -0.23279241856E+03  0.23301173227E+03  0.00000000000E+00 0.  1.
          1    1    3    3  501    0  0.77783483486E+01 -0.25824357276E+02 -0.68280687880E+03  0.68333932557E+03  0.00000000000E+00 0.  1.
         -1    1    1    2    0  502 -0.94929203529E+01  0.35785154586E+02 -0.79946584604E+02  0.88103060193E+02  0.00000000000E+00 0. -1.
<mgrwt>
<rscale>  1 0.30000000E+03</rscale>
<asrwt>0</asrwt>
<pdfrwt beam="1">  1       21 0.16196827E-01 0.30000000E+03</pdfrwt>
<pdfrwt beam="2">0</pdfrwt>
<totfact> 0.35703276E+03</totfact>
</mgrwt>
</event>
<event>
 6    1  0.1295671E-001  0.3000000E+03  0.7818608E-02  0.1093470E+00
         21   -1    0    0  501  502  0.00000000000E+00  0.00000000000E+00  0.54529557794E+01  0.54529557794E+01  0.00000000000E+00 0. -1.
         13   -1    0    0    0    0 -0.00000000000E+00 -0.00000000000E+00 -0.10000000000E+04  0.10000000000E+04  0.00000000000E+00 0.  1.
    9000005    2    1    2  501    0  0.31966939811E+02 -0.20206943745E+02 -0.66065745243E+02  0.76201790395E+02  0.34386550482E+01 0.  0.
         13    1    3    3    0    0  0.17726258083E+02 -0.10164102781E+02 -0.38592769772E+02  0.43668422111E+02  0.00000000000E+00 0.  1.
          1    1    3    3  501    0  0.14240681729E+02 -0.10042840964E+02 -0.27472975471E+02  0.32533368284E+02  0.00000000000E+00 0.  1.
         -3    1    1    2    0  502 -0.31966939811E+02  0.20206943745E+02 -0.92848129898E+03  0.92925116538E+03  0.00000000000E+00 0. -1.
<mgrwt>
<rscale>  1 0.30000000E+03</rscale>
<asrwt>0</asrwt>
<pdfrwt beam="1">  1       21 0.19828972E-01 0.30000000E+03</pdfrwt>
<pdfrwt beam="2">0</pdfrwt>
<totfact> 0.24388556E+03</totfact>
</mgrwt>
</event>
<event>
 6    1  0.1295671E-001  0.3000000E+03  0.7818608E-02  0.1093470E+00
         21   -1    0    0  501  502  0.00000000000E+00  0.00000000000E+00  0.40406871860E+01  0.40406871860E+01  0.00000000000E+00 0. -1.
         13   -1    0    0    0    0 -0.00000000000E+00 -0.00000000000E+00 -0.10000000000E+04  0.10000000000E+04  0.00000000000E+00 0.  1.
    9000005    2    1    2  501    0 -0.20569403215E+02 -0.25963430899E+02 -0.92639830454E+03  0.92699567459E+03  0.31562598700E+01 0.  0.
         13    1    3    3    0    0 -0.47504989654E+01 -0.82451592672E+01 -0.27294494940E+03  0.27311077477E+03  0.00000000000E+00 0.  1.
          1    1    3    3  501    0 -0.15818904249E+02 -0.17718271631E+02 -0.65345335513E+03  0.65388489982E+03  0.00000000000E+00 0.  1.
         -1    1    1    2    0  502  0.20569403215E+02  0.25963430899E+02 -0.69561008279E+02  0.77045012593E+02  0.00000000000E+00 0. -1.
<mgrwt>
<rscale>  1 0.30000000E+03</rscale>
<asrwt>0</asrwt>
<pdfrwt beam="1">  1       21 0.14693439E-01 0.30000000E+03</pdfrwt>
<pdfrwt beam="2">0</pdfrwt>
<totfact> 0.42782734E+03</totfact>
</mgrwt>
</event>
<event>
 6    1  0.1295671E-001  0.3000000E+03  0.7818608E-02  0.1093470E+00
         21   -1    0    0  501  502  0.00000000000E+00  0.00000000000E+00  0.11687043824E+01  0.11687043824E+01  0.00000000000E+00 0. -1.
         13   -1    0    0    0    0 -0.00000000000E+00 -0.00000000000E+00 -0.10000000000E+04  0.10000000000E+04  0.00000000000E+00 0.  1.
    9000005    2    1    2  501    0  0.19805747642E+02  0.27557890873E+02 -0.54149750244E+03  0.54257748840E+03  0.43681559632E+01 0.  0.
         13    1    3    3    0    0  0.18141376569E+02  0.25653781378E+02 -0.47942637934E+03  0.48045486702E+03  0.00000000000E+00 0.  1.
          1    1    3    3  501    0  0.16643710727E+01  0.19041094958E+01 -0.62071123098E+02  0.62122621377E+02  0.00000000000E+00 0.  1.
         -3    1    1    2    0  502 -0.19805747642E+02 -0.27557890873E+02 -0.45733379318E+03  0.45859121598E+03  0.00000000000E+00 0. -1.
<mgrwt>
<rscale>  1 0.30000000E+03</rscale>
<asrwt>0</asrwt>
<pdfrwt beam="1">  1       21 0.42498431E-02 0.30000000E+03</pdfrwt>
<pdfrwt beam="2">0</pdfrwt>
<totfact> 0.37962313E+04</totfact>
</mgrwt>
</event>
<event>
 6    1  0.1295671E-001  0.3000000E+03  0.7818608E-02  0.1093470E+00
         21   -1    0    0  501  502  0.00000000000E+00  0.00000000000E+00  0.26789232403E+01  0.26789232403E+01  0.00000000000E+00 0. -1.
         13   -1    0    0    0    0 -0.00000000000E+00 -0.00000000000E+00 -0.10000000000E+04  0.10000000000E+04  0.00000000000E+00 0.  1.
    9000005    2    1    2  501    0 -0.31379781235E+02  0.24780144924E+01 -0.89649109855E+03  0.89704978080E+03  0.33448817593E+01 0.  0.
         13    1    3    3    0    0 -0.77728998532E+01 -0.66668533367E+00 -0.24066235938E+03  0.24078877395E+03  0.00000000000E+00 0.  1.
          3    1    3    3  501    0 -0.23606881382E+02  0.31446998261E+01 -0.65582873917E+03  0.65626100685E+03  0.00000000000E+00 0.  1.
         -3    1    1    2    0  502  0.31379781235E+02 -0.24780144924E+01 -0.10082997821E+03  0.10562914244E+03  0.00000000000E+00 0. -1.
<mgrwt>
<rscale>  1 0.30000000E+03</rscale>
<asrwt>0</asrwt>
<pdfrwt beam="1">  1       21 0.97415596E-02 0.30000000E+03</pdfrwt>
<pdfrwt beam="2">0</pdfrwt>
<totfact> 0.90149566E+03</totfact>
</mgrwt>
</event>
<event>
 6    1  0.1295671E-001  0.3000000E+03  0.7818608E-02  0.1093470E+00
         21   -1    0    0  501  502  0.00000000000E+00  0.00000000000E+00  0.25872243068E+01  0.25872243068E+01  0.00000000000E+00 0. -1.
         13   -1    0    0    0    0 -0.00000000000E+00 -0.00000000000E+00 -0.10000000000E+04  0.10000000000E+04  0.00000000000E+00 0.  1.
    9000005    2    1    2  501    0  0.18327423678E+02  0.38296128854E+02 -0.77436244214E+03  0.77553229870E+03  0.32659740718E+01 0.  0.
         13    1    3    3    0    0  0.20887009143E+01  0.27199237188E+01 -0.72809200739E+02  0.72889919528E+02  0.00000000000E+00 0.  1.
          1    1    3    3  501    0  0.16238722764E+02  0.35576205135E+02 -0.70155324140E+03  0.70264237917E+03  0.00000000000E+00 0.  1.
         -3    1    1    2    0  502 -0.18327423678E+02 -0.38296128854E+02 -0.22305033355E+03  0.22705492561E+03  0.00000000000E+00 0. -1.
<mgrwt>
<rscale>  1 0.30000000E+03</rscale>
<asrwt>0</asrwt>
<pdfrwt beam="1">  1       21 0.94081082E-02 0.30000000E+03</pdfrwt>
<pdfrwt beam="2">0</pdfrwt>
<totfact> 0.95922944E+03</totfact>
</mgrwt>
</event>
<event>
 6    1  0.1295671E-001  0.3000000E+03  0.7818608E-02  0.1093470E+00
         21   -1    0    0  501  502  0.00000000000E+00  0.00000000000E+00  0.27656521498E+01  0.27656521498E+01  0.00000000000E+00 0. -1.
         13   -1    0    0    0    0 -0.00000000000E+00 -0.00000000000E+00 -0.10000000000E+04  0.10000000000E+04  0.00000000000E+00 0.  1.
    9000005    2    1    2  501    0 -0.35301476329E+00  0.46726313923E+02 -0.72738011488E+03  0.72889564633E+03  0.48537298585E+01 0.  0.
         13    1    3    3    0    0  0.17287128599E+00  0.34075530711E+02 -0.49577685856E+03  0.49694654155E+03  0.00000000000E+00 0.  1.
          1    1    3    3  501    0 -0.52588604929E+00  0.12650783212E+02 -0.23160325632E+03  0.23194910478E+03  0.00000000000E+00 0.  1.
         -1    1    1    2    0  502  0.35301476329E+00 -0.46726313923E+02 -0.26985423297E+03  0.27387000582E+03  0.00000000000E+00 0. -1.
<mgrwt>
<rscale>  1 0.30000000E+03</rscale>
<asrwt>0</asrwt>
<pdfrwt beam="1">  1       21 0.10056938E-01 0.30000000E+03</pdfrwt>
<pdfrwt beam="2">0</pdfrwt>
<totfact> 0.85163443E+03</totfact>
</mgrwt>
</event>
<event>
 6    1  0.1295671E-001  0.3000000E+03  0.7818608E-02  0.1093470E+00
         21   -1    0    0  501  502  0.00000000000E+00  0.00000000000E+00  0.11703277773E+01  0.11703277773E+01  0.00000000000E+00 0. -1.
         13   -1    0    0    0    0 -0.00000000000E+00 -0.00000000000E+00 -0.10000000000E+04  0.10000000000E+04  0.00000000000E+00 0.  1.
    9000005    2    1    2  501    0 -0.16315129849E+02  0.26482715812E+02 -0.70632901434E+03  0.70702044667E+03  0.31173385614E+01 0.  0.
         13    1    3    3    0    0 -0.48305850871E+01  0.57820318325E+01 -0.15346730913E+03  0.15365214420E+03  0.00000000000E+00 0.  1.
          1    1    3    3  501    0 -0.11484544762E+02  0.20700683980E+02 -0.55286170521E+03  0.55336830247E+03  0.00000000000E+00 0.  1.
         -1    1    1    2    0  502  0.16315129849E+02 -0.26482715812E+02 -0.29250065788E+03  0.29414988111E+03  0.00000000000E+00 0. -1.
<mgrwt>
<rscale>  1 0.30000000E+03</rscale>
<asrwt>0</asrwt>
<pdfrwt beam="1">  1       21 0.42557463E-02 0.30000000E+03</pdfrwt>
<pdfrwt beam="2">0</pdfrwt>
<totfact> 0.37873364E+04</totfact>
</mgrwt>
</event>
<event>
 6    1  0.1295671E-001  0.3000000E+03  0.7818608E-02  0.1093470E+00
         21   -1    0    0  501  502  0.00000000000E+00  0.00000000000E+00  0.28934393566E+01  0.28934393566E+01  0.00000000000E+00 0. -1.
         13   -1    0    0    0    0 -0.00000000000E+00 -0.00000000000E+00 -0.10000000000E+04  0.10000000000E+04  0.00000000000E+00 0.  1.
    9000005    2    1    2  501    0  0.31100670676E+02 -0.10908592347E+02 -0.89470820139E+03  0.89532172801E+03  0.34614903079E+01 0.  0.
         13    1    3    3    0    0  0.43615860246E+01 -0.21573274334E+01 -0.16371436574E+03  0.16378666321E+03  0.00000000000E+00 0.  1.
          1    1    3    3  501    0  0.26739084652E+02 -0.87512649136E+01 -0.73099383565E+03  0.73153506481E+03  0.00000000000E+00 0.  1.
         -1    1    1    2    0  502 -0.31100670676E+02  0.10908592347E+02 -0.10239835925E+03  0.10757171134E+03  0.00000000000E+00 0. -1.
<mgrwt>
<rscale>  1 0.30000000E+03</rscale>
<asrwt>0</asrwt>
<pdfrwt beam="1">  1       21 0.10521620E-01 0.30000000E+03</pdfrwt>
<pdfrwt beam="2">0</pdfrwt>
<totfact> 0.78548511E+03</totfact>
</mgrwt>
</event>
<event>
 6    1  0.1295671E-001  0.3000000E+03  0.7818608E-02  0.1093470E+00
         21   -1    0    0  501  502  0.00000000000E+00  0.00000000000E+00  0.15407399583E+01  0.15407399583E+01  0.00000000000E+00 0. -1.
         13   -1    0    0    0    0 -0.00000000000E+00 -0.00000000000E+00 -0.10000000000E+04  0.10000000000E+04  0.00000000000E+00 0.  1.
    9000005    2    1    2  501    0 -0.29927500622E+02 -0.27792960645E+01 -0.82082362074E+03  0.82138025559E+03  0.32753804647E+01 0.  0.
         13    1    3    3    0    0 -0.28688424180E+01 -0.69546909893E+00 -0.59667320625E+02  0.59740296992E+02  0.00000000000E+00 0.  1.
          3    1    3    3  501    0 -0.27058658204E+02 -0.20838269656E+01 -0.76115630012E+03  0.76163995859E+03  0.00000000000E+00 0.  1.
         -3    1    1    2    0  502  0.29927500622E+02  0.27792960645E+01 -0.17763563930E+03  0.18016048437E+03  0.00000000000E+00 0. -1.
<mgrwt>
<rscale>  1 0.30000000E+03</rscale>
<asrwt>0</asrwt>
<pdfrwt beam="1">  1       21 0.56027026E-02 0.30000000E+03</pdfrwt>
<pdfrwt beam="2">0</pdfrwt>
<totfact> 0.23709410E+04</totfact>
</mgrwt>
</event>
<event>
 6    1  0.1295671E-001  0.3000000E+03  0.7818608E-02  0.1093470E+00
         21   -1    0    0  501  502  0.00000000000E+00  0.00000000000E+00  0.96160395806E+00  0.96160395806E+00  0.00000000000E+00 0. -1.
         13   -1    0    0    0    0 -0.00000000000E+00 -0.00000000000E+00 -0.10000000000E+04  0.10000000000E+04  0.00000000000E+00 0.  1.
    9000005    2    1    2  501    0  0.26886118586E+02  0.15190463171E+02 -0.47294477628E+03  0.47396244808E+03  0.31665807534E+01 0.  0.
         13    1    3    3    0    0  0.64260704221E+01  0.24864736638E+01 -0.92651687046E+02  0.92907545683E+02  0.00000000000E+00 0.  1.
          3    1    3    3  501    0  0.20460048164E+02  0.12703989508E+02 -0.38029308924E+03  0.38105490240E+03  0.00000000000E+00 0.  1.
         -1    1    1    2    0  502 -0.26886118586E+02 -0.15190463171E+02 -0.52609361976E+03  0.52699915588E+03  0.00000000000E+00 0. -1.
<mgrwt>
<rscale>  1 0.30000000E+03</rscale>
<asrwt>0</asrwt>
<pdfrwt beam="1">  1       21 0.34967490E-02 0.30000000E+03</pdfrwt>
<pdfrwt beam="2">0</pdfrwt>
<totfact> 0.52698742E+04</totfact>
</mgrwt>
</event>
<event>
 6    1  0.1295671E-001  0.3000000E+03  0.7818608E-02  0.1093470E+00
         21   -1    0    0  501  502  0.00000000000E+00  0.00000000000E+00  0.14478238326E+01  0.14478238326E+01  0.00000000000E+00 0. -1.
         13   -1    0    0    0    0 -0.00000000000E+00 -0.00000000000E+00 -0.10000000000E+04  0.10000000000E+04  0.00000000000E+00 0.  1.
    9000005    2    1    2  501    0  0.23840224776E+02  0.23549957115E+02 -0.73543836865E+03  0.73620862517E+03  0.32540596265E+01 0.  0.
         13    1    3    3    0    0  0.16497812617E+02  0.17631847753E+02 -0.50368628749E+03  0.50426474800E+03  0.00000000000E+00 0.  1.
          1    1    3    3  501    0  0.73424121586E+01  0.59181093616E+01 -0.23175208116E+03  0.23194387717E+03  0.00000000000E+00 0.  1.
         -1    1    1    2    0  502 -0.23840224776E+02 -0.23549957115E+02 -0.26311380752E+03  0.26523919866E+03  0.00000000000E+00 0. -1.
<mgrwt>
<rscale>  1 0.30000000E+03</rscale>
<asrwt>0</asrwt>
<pdfrwt beam="1">  1       21 0.52648250E-02 0.30000000E+03</pdfrwt>
<pdfrwt beam="2">0</pdfrwt>
<totfact> 0.26375485E+04</totfact>
</mgrwt>
</event>
<event>
 6    1  0.1295671E-001  0.3000000E+03  0.7818608E-02  0.1093470E+00
         21   -1    0    0  501  502  0.00000000000E+00  0.00000000000E+00  0.32508693501E+01  0.32508693501E+01  0.00000000000E+00 0. -1.
         13   -1    0    0    0    0 -0.00000000000E+00 -0.00000000000E+00 -0.10000000000E+04  0.10000000000E+04  0.00000000000E+00 0.  1.
    9000005    2    1    2  501    0 -0.90852574294E+01 -0.51232486212E+02 -0.70293493635E+03  0.70486506152E+03  0.31497072075E+01 0.  0.
         13    1    3    3    0    0 -0.29233822142E+01 -0.21010153920E+02 -0.26861867633E+03  0.26945494244E+03  0.00000000000E+00 0.  1.
          3    1    3    3  501    0 -0.61618752152E+01 -0.30222332291E+02 -0.43431626002E+03  0.43541011907E+03  0.00000000000E+00 0.  1.
         -1    1    1    2    0  502  0.90852574294E+01  0.51232486212E+02 -0.29381419430E+03  0.29838580783E+03  0.00000000000E+00 0. -1.
<mgrwt>
<rscale>  1 0.30000000E+03</rscale>
<asrwt>0</asrwt>
<pdfrwt beam="1">  1       21 0.11821368E-01 0.30000000E+03</pdfrwt>
<pdfrwt beam="2">0</pdfrwt>
<totfact> 0.63679737E+03</totfact>
</mgrwt>
</event>
<event>
 6    1  0.1295671E-001  0.3000000E+03  0.7818608E-02  0.1093470E+00
         21   -1    0    0  501  502  0.00000000000E+00  0.00000000000E+00  0.28327180344E+01  0.28327180344E+01  0.00000000000E+00 0. -1.
         13   -1    0    0    0    0 -0.00000000000E+00 -0.00000000000E+00 -0.10000000000E+04  0.10000000000E+04  0.00000000000E+00 0.  1.
    9000005    2    1    2  501    0 -0.50654446477E+02  0.82398744242E+01 -0.36812655679E+03  0.37170198482E+03  0.33816011935E+01 0.  0.
         13    1    3    3    0    0 -0.46433500916E+00 -0.76139526793E-01 -0.61262801332E+01  0.61443235998E+01  0.00000000000E+00 0.  1.
          3    1    3    3  501    0 -0.50190111468E+02  0.83160139510E+01 -0.36200027666E+03  0.36555766122E+03  0.00000000000E+00 0.  1.
         -1    1    1    2    0  502  0.50654446477E+02 -0.82398744242E+01 -0.62904072517E+03  0.63113073321E+03  0.00000000000E+00 0. -1.
<mgrwt>
<rscale>  1 0.30000000E+03</rscale>
<asrwt>0</asrwt>
<pdfrwt beam="1">  1       21 0.10300815E-01 0.30000000E+03</pdfrwt>
<pdfrwt beam="2">0</pdfrwt>
<totfact> 0.81590465E+03</totfact>
</mgrwt>
</event>
<event>
 6    1  0.1295671E-001  0.3000000E+03  0.7818608E-02  0.1093470E+00
         21   -1    0    0  501  502  0.00000000000E+00  0.00000000000E+00  0.42131206832E+01  0.42131206832E+01  0.00000000000E+00 0. -1.
         13   -1    0    0    0    0 -0.00000000000E+00 -0.00000000000E+00 -0.10000000000E+04  0.10000000000E+04  0.00000000000E+00 0.  1.
    9000005    2    1    2  501    0 -0.38398117145E+02 -0.35490153175E+02 -0.79493518514E+03  0.79666705489E+03  0.47414554951E+01 0.  0.
         13    1    3    3    0    0 -0.18381453803E+02 -0.15200966526E+02 -0.39215316291E+03  0.39287790777E+03  0.00000000000E+00 0.  1.
          3    1    3    3  501    0 -0.20016663342E+02 -0.20289186649E+02 -0.40278202223E+03  0.40378914712E+03  0.00000000000E+00 0.  1.
         -1    1    1    2    0  502  0.38398117145E+02  0.35490153175E+02 -0.20085169418E+03  0.20754606579E+03  0.00000000000E+00 0. -1.
<mgrwt>
<rscale>  1 0.30000000E+03</rscale>
<asrwt>0</asrwt>
<pdfrwt beam="1">  1       21 0.15320471E-01 0.30000000E+03</pdfrwt>
<pdfrwt beam="2">0</pdfrwt>
<totfact> 0.39598190E+03</totfact>
</mgrwt>
</event>
<event>
 6    1  0.1295671E-001  0.3000000E+03  0.7818608E-02  0.1093470E+00
         21   -1    0    0  501  502  0.00000000000E+00  0.00000000000E+00  0.12816959947E+01  0.12816959947E+01  0.00000000000E+00 0. -1.
         13   -1    0    0    0    0 -0.00000000000E+00 -0.00000000000E+00 -0.10000000000E+04  0.10000000000E+04  0.00000000000E+00 0.  1.
    9000005    2    1    2  501    0  0.12360142754E+02  0.27532298323E+02 -0.76786340886E+03  0.76846248890E+03  0.30954159642E+01 0.  0.
         13    1    3    3    0    0  0.77252099589E+01  0.16666468926E+02 -0.42862241617E+03  0.42901588047E+03  0.00000000000E+00 0.  1.
          1    1    3    3  501    0  0.46349327949E+01  0.10865829397E+02 -0.33924099269E+03  0.33944660843E+03  0.00000000000E+00 0.  1.
         -3    1    1    2    0  502 -0.12360142754E+02 -0.27532298323E+02 -0.23085489515E+03  0.23281920710E+03  0.00000000000E+00 0. -1.
<mgrwt>
<rscale>  1 0.30000000E+03</rscale>
<asrwt>0</asrwt>
<pdfrwt beam="1">  1       21 0.46607225E-02 0.30000000E+03</pdfrwt>
<pdfrwt beam="2">0</pdfrwt>
<totfact> 0.32464185E+04</totfact>
</mgrwt>
</event>
<event>
 6    1  0.1295671E-001  0.3000000E+03  0.7818608E-02  0.1093470E+00
         21   -1    0    0  501  502  0.00000000000E+00  0.00000000000E+00  0.10038851442E+01  0.10038851442E+01  0.00000000000E+00 0. -1.
         13   -1    0    0    0    0 -0.00000000000E+00 -0.00000000000E+00 -0.10000000000E+04  0.10000000000E+04  0.00000000000E+00 0.  1.
    9000005    2    1    2  501    0  0.30850663392E+02 -0.29207950964E+01 -0.50990211692E+03  0.51092916299E+03  0.93886250512E+01 0.  0.
         13    1    3    3    0    0  0.18405358609E+02  0.23922232599E+01 -0.32774665952E+03  0.32827176665E+03  0.00000000000E+00 0.  1.
          1    1    3    3  501    0  0.12445304783E+02 -0.53130183562E+01 -0.18215545740E+03  0.18265739634E+03  0.00000000000E+00 0.  1.
         -3    1    1    2    0  502 -0.30850663392E+02  0.29207950964E+01 -0.48909399794E+03  0.49007472215E+03  0.00000000000E+00 0. -1.
<mgrwt>
<rscale>  1 0.30000000E+03</rscale>
<asrwt>0</asrwt>
<pdfrwt beam="1">  1       21 0.36504991E-02 0.30000000E+03</pdfrwt>
<pdfrwt beam="2">0</pdfrwt>
<totfact> 0.49031202E+04</totfact>
</mgrwt>
</event>
<event>
 6    1  0.1295671E-001  0.3000000E+03  0.7818608E-02  0.1093470E+00
         21   -1    0    0  501  502  0.00000000000E+00  0.00000000000E+00  0.19272881757E+01  0.19272881757E+01  0.00000000000E+00 0. -1.
         13   -1    0    0    0    0 -0.00000000000E+00 -0.00000000000E+00 -0.10000000000E+04  0.10000000000E+04  0.00000000000E+00 0.  1.
    9000005    2    1    2  501    0  0.27100818829E+02 -0.32883774847E+02 -0.61752159914E+03  0.61899786074E+03  0.31030903356E+01 0.  0.
         13    1    3    3    0    0  0.18667344873E+02 -0.20322469582E+02 -0.39748647450E+03  0.39844318283E+03  0.00000000000E+00 0.  1.
          3    1    3    3  501    0  0.84334739556E+01 -0.12561305264E+02 -0.22003512464E+03  0.22055467791E+03  0.00000000000E+00 0.  1.
         -3    1    1    2    0  502 -0.27100818829E+02  0.32883774847E+02 -0.38055111269E+03  0.38292942744E+03  0.00000000000E+00 0. -1.
<mgrwt>
<rscale>  1 0.30000000E+03</rscale>
<asrwt>0</asrwt>
<pdfrwt beam="1">  1       21 0.70083354E-02 0.30000000E+03</pdfrwt>
<pdfrwt beam="2">0</pdfrwt>
<totfact> 0.16101902E+04</totfact>
</mgrwt>
</event>
<event>
 6    1  0.1295671E-001  0.3000000E+03  0.7818608E-02  0.1093470E+00
         21   -1    0    0  501  502  0.00000000000E+00  0.00000000000E+00  0.47444310672E+01  0.47444310672E+01  0.00000000000E+00 0. -1.
         13   -1    0    0    0    0 -0.00000000000E+00 -0.00000000000E+00 -0.10000000000E+04  0.10000000000E+04  0.00000000000E+00 0.  1.
    9000005    2    1    2  501    0 -0.41690517899E+02  0.25672162057E+02 -0.85085517753E+03  0.85226940942E+03  0.33843649182E+01 0.  0.
         13    1    3    3    0    0 -0.89676835140E+01  0.67911929292E+01 -0.17960908573E+03  0.17996100501E+03  0.00000000000E+00 0.  1.
          3    1    3    3  501    0 -0.32722834385E+02  0.18880969128E+02 -0.67124609180E+03  0.67230840441E+03  0.00000000000E+00 0.  1.
         -3    1    1    2    0  502  0.41690517899E+02 -0.25672162057E+02 -0.14440039141E+03  0.15247502164E+03  0.00000000000E+00 0. -1.
<mgrwt>
<rscale>  1 0.30000000E+03</rscale>
<asrwt>0</asrwt>
<pdfrwt beam="1">  1       21 0.17252513E-01 0.30000000E+03</pdfrwt>
<pdfrwt beam="2">0</pdfrwt>
<totfact> 0.31726261E+03</totfact>
</mgrwt>
</event>
<event>
 6    1  0.1295671E-001  0.3000000E+03  0.7818608E-02  0.1093470E+00
         21   -1    0    0  501  502  0.00000000000E+00  0.00000000000E+00  0.13173012841E+01  0.13173012841E+01  0.00000000000E+00 0. -1.
         13   -1    0    0    0    0 -0.00000000000E+00 -0.00000000000E+00 -0.10000000000E+04  0.10000000000E+04  0.00000000000E+00 0.  1.
    9000005    2    1    2  501    0 -0.16722363963E+02 -0.29840623328E+02 -0.66446083556E+03  0.66534951404E+03  0.34166617303E+01 0.  0.
         13    1    3    3    0    0 -0.13382110884E+02 -0.21306183001E+02 -0.47039992363E+03  0.47107231130E+03  0.00000000000E+00 0.  1.
          3    1    3    3  501    0 -0.33402530788E+01 -0.85344403266E+01 -0.19406091193E+03  0.19427720274E+03  0.00000000000E+00 0.  1.
         -3    1    1    2    0  502  0.16722363963E+02  0.29840623328E+02 -0.33422186315E+03  0.33596778725E+03  0.00000000000E+00 0. -1.
<mgrwt>
<rscale>  1 0.30000000E+03</rscale>
<asrwt>0</asrwt>
<pdfrwt beam="1">  1       21 0.47901966E-02 0.30000000E+03</pdfrwt>
<pdfrwt beam="2">0</pdfrwt>
<totfact> 0.30986147E+04</totfact>
</mgrwt>
</event>
<event>
 6    1  0.1295671E-001  0.3000000E+03  0.7818608E-02  0.1093470E+00
         21   -1    0    0  501  502  0.00000000000E+00  0.00000000000E+00  0.10736271642E+01  0.10736271642E+01  0.00000000000E+00 0. -1.
         13   -1    0    0    0    0 -0.00000000000E+00 -0.00000000000E+00 -0.10000000000E+04  0.10000000000E+04  0.00000000000E+00 0.  1.
    9000005    2    1    2  501    0  0.17113144628E+02  0.24755824919E+02 -0.30930434730E+03  0.31079524224E+03  0.43350611510E+01 0.  0.
         13    1    3    3    0    0  0.58600237937E+01  0.11923140339E+02 -0.14449960300E+03  0.14510905010E+03  0.00000000000E+00 0.  1.
          3    1    3    3  501    0  0.11253120834E+02  0.12832684581E+02 -0.16480474430E+03  0.16568619214E+03  0.00000000000E+00 0.  1.
         -1    1    1    2    0  502 -0.17113144628E+02 -0.24755824919E+02 -0.68962202554E+03  0.69027838492E+03  0.00000000000E+00 0. -1.
<mgrwt>
<rscale>  1 0.30000000E+03</rscale>
<asrwt>0</asrwt>
<pdfrwt beam="1">  1       21 0.39041070E-02 0.30000000E+03</pdfrwt>
<pdfrwt beam="2">0</pdfrwt>
<totfact> 0.43800056E+04</totfact>
</mgrwt>
</event>
<event>
 6    1  0.1295671E-001  0.3000000E+03  0.7818608E-02  0.1093470E+00
         21   -1    0    0  501  502  0.00000000000E+00  0.00000000000E+00  0.44583777400E+01  0.44583777400E+01  0.00000000000E+00 0. -1.
         13   -1    0    0    0    0 -0.00000000000E+00 -0.00000000000E+00 -0.10000000000E+04  0.10000000000E+04  0.00000000000E+00 0.  1.
    9000005    2    1    2  501    0  0.55258912574E+02 -0.41989252702E+01 -0.21850666905E+03  0.22544971482E+03  0.33512835564E+01 0.  0.
         13    1    3    3    0    0  0.27569851199E+02 -0.30566236067E+01 -0.10372477181E+03  0.10736977196E+03  0.00000000000E+00 0.  1.
          3    1    3    3  501    0  0.27689061374E+02 -0.11423016634E+01 -0.11478189724E+03  0.11807994287E+03  0.00000000000E+00 0.  1.
         -1    1    1    2    0  502 -0.55258912574E+02  0.41989252702E+01 -0.77703495321E+03  0.77900866292E+03  0.00000000000E+00 0. -1.
<mgrwt>
<rscale>  1 0.30000000E+03</rscale>
<asrwt>0</asrwt>
<pdfrwt beam="1">  1       21 0.16212317E-01 0.30000000E+03</pdfrwt>
<pdfrwt beam="2">0</pdfrwt>
<totfact> 0.35639661E+03</totfact>
</mgrwt>
</event>
<event>
 6    1  0.1295671E-001  0.3000000E+03  0.7818608E-02  0.1093470E+00
         21   -1    0    0  501  502  0.00000000000E+00  0.00000000000E+00  0.32855141168E+01  0.32855141168E+01  0.00000000000E+00 0. -1.
         13   -1    0    0    0    0 -0.00000000000E+00 -0.00000000000E+00 -0.10000000000E+04  0.10000000000E+04  0.00000000000E+00 0.  1.
    9000005    2    1    2  501    0  0.50318467137E+02 -0.26791397609E+02 -0.54734718440E+03  0.55031675276E+03  0.31402196226E+01 0.  0.
         13    1    3    3    0    0  0.22242389300E+02 -0.10204404536E+02 -0.24015696882E+03  0.24140054562E+03  0.00000000000E+00 0.  1.
          1    1    3    3  501    0  0.28076077837E+02 -0.16586993073E+02 -0.30719021558E+03  0.30891620714E+03  0.00000000000E+00 0.  1.
         -3    1    1    2    0  502 -0.50318467137E+02  0.26791397609E+02 -0.44936730148E+03  0.45296876135E+03  0.00000000000E+00 0. -1.
<mgrwt>
<rscale>  1 0.30000000E+03</rscale>
<asrwt>0</asrwt>
<pdfrwt beam="1">  1       21 0.11947349E-01 0.30000000E+03</pdfrwt>
<pdfrwt beam="2">0</pdfrwt>
<totfact> 0.62467618E+03</totfact>
</mgrwt>
</event>
<event>
 6    1  0.1295671E-001  0.3000000E+03  0.7818608E-02  0.1093470E+00
         21   -1    0    0  501  502  0.00000000000E+00  0.00000000000E+00  0.34688453073E+01  0.34688453073E+01  0.00000000000E+00 0. -1.
         13   -1    0    0    0    0 -0.00000000000E+00 -0.00000000000E+00 -0.10000000000E+04  0.10000000000E+04  0.00000000000E+00 0.  1.
    9000005    2    1    2  501    0  0.26727699848E+02 -0.20204138751E+02 -0.91064126838E+03  0.91127530035E+03  0.57075546790E+01 0.  0.
         13    1    3    3    0    0  0.22476898015E+02 -0.18037427779E+02 -0.82279101504E+03  0.82329558130E+03  0.00000000000E+00 0.  1.
          1    1    3    3  501    0  0.42508018329E+01 -0.21667109719E+01 -0.87850253338E+02  0.87979719050E+02  0.00000000000E+00 0.  1.
         -1    1    1    2    0  502 -0.26727699848E+02  0.20204138751E+02 -0.85889886311E+02  0.92193544960E+02  0.00000000000E+00 0. -1.
<mgrwt>
<rscale>  1 0.30000000E+03</rscale>
<asrwt>0</asrwt>
<pdfrwt beam="1">  1       21 0.12614010E-01 0.30000000E+03</pdfrwt>
<pdfrwt beam="2">0</pdfrwt>
<totfact> 0.56593010E+03</totfact>
</mgrwt>
</event>
<event>
 6    1  0.1295671E-001  0.3000000E+03  0.7818608E-02  0.1093470E+00
         21   -1    0    0  501  502  0.00000000000E+00  0.00000000000E+00  0.13685220346E+01  0.13685220346E+01  0.00000000000E+00 0. -1.
         13   -1    0    0    0    0 -0.00000000000E+00 -0.00000000000E+00 -0.10000000000E+04  0.10000000000E+04  0.00000000000E+00 0.  1.
    9000005    2    1    2  501    0  0.30123989582E+02 -0.12942796597E+02 -0.28215585103E+03  0.28414310787E+03  0.71000526162E+01 0.  0.
         13    1    3    3    0    0  0.56449805472E+01 -0.14222931449E+01 -0.31683038197E+02  0.32213407652E+02  0.00000000000E+00 0.  1.
          1    1    3    3  501    0  0.24479009034E+02 -0.11520503452E+02 -0.25047281284E+03  0.25192970022E+03  0.00000000000E+00 0.  1.
         -3    1    1    2    0  502 -0.30123989582E+02  0.12942796597E+02 -0.71647562693E+03  0.71722541416E+03  0.00000000000E+00 0. -1.
<mgrwt>
<rscale>  1 0.30000000E+03</rscale>
<asrwt>0</asrwt>
<pdfrwt beam="1">  1       21 0.49764543E-02 0.30000000E+03</pdfrwt>
<pdfrwt beam="2">0</pdfrwt>
<totfact> 0.29037348E+04</totfact>
</mgrwt>
</event>
<event>
 6    1  0.1295671E-001  0.3000000E+03  0.7818608E-02  0.1093470E+00
         21   -1    0    0  501  502  0.00000000000E+00  0.00000000000E+00  0.12364827395E+01  0.12364827395E+01  0.00000000000E+00 0. -1.
         13   -1    0    0    0    0 -0.00000000000E+00 -0.00000000000E+00 -0.10000000000E+04  0.10000000000E+04  0.00000000000E+00 0.  1.
    9000005    2    1    2  501    0 -0.32847870784E+02  0.11897708199E+02 -0.54875922505E+03  0.54987808735E+03  0.29471683613E+01 0.  0.
         13    1    3    3    0    0 -0.13561704864E+02  0.35995978579E+01 -0.23169082840E+03  0.23211530951E+03  0.00000000000E+00 0.  1.
          1    1    3    3  501    0 -0.19286165920E+02  0.82981103407E+01 -0.31706839665E+03  0.31776277784E+03  0.00000000000E+00 0.  1.
         -1    1    1    2    0  502  0.32847870784E+02 -0.11897708199E+02 -0.45000429221E+03  0.45135839539E+03  0.00000000000E+00 0. -1.
<mgrwt>
<rscale>  1 0.30000000E+03</rscale>
<asrwt>0</asrwt>
<pdfrwt beam="1">  1       21 0.44963104E-02 0.30000000E+03</pdfrwt>
<pdfrwt beam="2">0</pdfrwt>
<totfact> 0.34506183E+04</totfact>
</mgrwt>
</event>
<event>
 6    1  0.1295671E-001  0.3000000E+03  0.7818608E-02  0.1093470E+00
         21   -1    0    0  501  502  0.00000000000E+00  0.00000000000E+00  0.18243550080E+01  0.18243550080E+01  0.00000000000E+00 0. -1.
         13   -1    0    0    0    0 -0.00000000000E+00 -0.00000000000E+00 -0.10000000000E+04  0.10000000000E+04  0.00000000000E+00 0.  1.
    9000005    2    1    2  501    0 -0.16392222121E+02  0.29512056715E+02 -0.80560787417E+03  0.80631984663E+03  0.28251909238E+01 0.  0.
         13    1    3    3    0    0 -0.82292211878E+01  0.17364403880E+02 -0.44166599874E+03  0.44208381224E+03  0.00000000000E+00 0.  1.
          1    1    3    3  501    0 -0.81630009336E+01  0.12147652834E+02 -0.36394187543E+03  0.36423603439E+03  0.00000000000E+00 0.  1.
         -1    1    1    2    0  502  0.16392222121E+02 -0.29512056715E+02 -0.19256777082E+03  0.19550450838E+03  0.00000000000E+00 0. -1.
<mgrwt>
<rscale>  1 0.30000000E+03</rscale>
<asrwt>0</asrwt>
<pdfrwt beam="1">  1       21 0.66340322E-02 0.30000000E+03</pdfrwt>
<pdfrwt beam="2">0</pdfrwt>
<totfact> 0.17712513E+04</totfact>
</mgrwt>
</event>
<event>
 6    1  0.1295671E-001  0.3000000E+03  0.7818608E-02  0.1093470E+00
         21   -1    0    0  501  502  0.00000000000E+00  0.00000000000E+00  0.24273808999E+01  0.24273808999E+01  0.00000000000E+00 0. -1.
         13   -1    0    0    0    0 -0.00000000000E+00 -0.00000000000E+00 -0.10000000000E+04  0.10000000000E+04  0.00000000000E+00 0.  1.
    9000005    2    1    2  501    0 -0.17498012611E+02 -0.45318411243E+02 -0.57926604064E+03  0.58130942542E+03  0.34005003548E+01 0.  0.
         13    1    3    3    0    0 -0.41960588577E+00 -0.46099458348E+00 -0.12070525278E+02  0.12086611005E+02  0.00000000000E+00 0.  1.
          1    1    3    3  501    0 -0.17078406725E+02 -0.44857416660E+02 -0.56719551536E+03  0.56922281442E+03  0.00000000000E+00 0.  1.
         -3    1    1    2    0  502  0.17498012611E+02  0.45318411243E+02 -0.41830657846E+03  0.42111795548E+03  0.00000000000E+00 0. -1.
<mgrwt>
<rscale>  1 0.30000000E+03</rscale>
<asrwt>0</asrwt>
<pdfrwt beam="1">  1       21 0.88268582E-02 0.30000000E+03</pdfrwt>
<pdfrwt beam="2">0</pdfrwt>
<totfact> 0.10741151E+04</totfact>
</mgrwt>
</event>
<event>
 6    1  0.1295671E-001  0.3000000E+03  0.7818608E-02  0.1093470E+00
         21   -1    0    0  501  502  0.00000000000E+00  0.00000000000E+00  0.39981855207E+01  0.39981855207E+01  0.00000000000E+00 0. -1.
         13   -1    0    0    0    0 -0.00000000000E+00 -0.00000000000E+00 -0.10000000000E+04  0.10000000000E+04  0.00000000000E+00 0.  1.
    9000005    2    1    2  501    0  0.47798352925E+02 -0.29640983022E+02 -0.27007355552E+03  0.27589441025E+03  0.38379415966E+01 0.  0.
         13    1    3    3    0    0  0.12091816102E+02 -0.72279491736E+01 -0.76016080477E+02  0.77310411699E+02  0.00000000000E+00 0.  1.
          1    1    3    3  501    0  0.35706536824E+02 -0.22413033848E+02 -0.19405747505E+03  0.19858399855E+03  0.00000000000E+00 0.  1.
         -1    1    1    2    0  502 -0.47798352925E+02  0.29640983022E+02 -0.72592825896E+03  0.72810377527E+03  0.00000000000E+00 0. -1.
<mgrwt>
<rscale>  1 0.30000000E+03</rscale>
<asrwt>0</asrwt>
<pdfrwt beam="1">  1       21 0.14538887E-01 0.30000000E+03</pdfrwt>
<pdfrwt beam="2">0</pdfrwt>
<totfact> 0.43625774E+03</totfact>
</mgrwt>
</event>
<event>
 6    1  0.1295671E-001  0.3000000E+03  0.7818608E-02  0.1093470E+00
         21   -1    0    0  501  502  0.00000000000E+00  0.00000000000E+00  0.31148680414E+01  0.31148680414E+01  0.00000000000E+00 0. -1.
         13   -1    0    0    0    0 -0.00000000000E+00 -0.00000000000E+00 -0.10000000000E+04  0.10000000000E+04  0.00000000000E+00 0.  1.
    9000005    2    1    2  501    0 -0.31265275880E+02  0.41381180631E+02 -0.68175566139E+03  0.68374595471E+03  0.52753340039E+01 0.  0.
         13    1    3    3    0    0 -0.27178999935E+02  0.34792629989E+02 -0.55489980772E+03  0.55665341259E+03  0.00000000000E+00 0.  1.
          1    1    3    3  501    0 -0.40862759449E+01  0.65885506414E+01 -0.12685585367E+03  0.12709254212E+03  0.00000000000E+00 0.  1.
         -1    1    1    2    0  502  0.31265275880E+02 -0.41381180631E+02 -0.31512947056E+03  0.31936891333E+03  0.00000000000E+00 0. -1.
<mgrwt>
<rscale>  1 0.30000000E+03</rscale>
<asrwt>0</asrwt>
<pdfrwt beam="1">  1       21 0.11326817E-01 0.30000000E+03</pdfrwt>
<pdfrwt beam="2">0</pdfrwt>
<totfact> 0.68794404E+03</totfact>
</mgrwt>
</event>
<event>
 6    1  0.1295671E-001  0.3000000E+03  0.7818608E-02  0.1093470E+00
         21   -1    0    0  501  502  0.00000000000E+00  0.00000000000E+00  0.12860732368E+01  0.12860732368E+01  0.00000000000E+00 0. -1.
         13   -1    0    0    0    0 -0.00000000000E+00 -0.00000000000E+00 -0.10000000000E+04  0.10000000000E+04  0.00000000000E+00 0.  1.
    9000005    2    1    2  501    0 -0.74857068681E+01 -0.29322799036E+02 -0.76718297419E+03  0.76778565707E+03  0.30392375229E+01 0.  0.
         13    1    3    3    0    0 -0.39447629083E+01 -0.19083514162E+02 -0.46343283317E+03  0.46384235741E+03  0.00000000000E+00 0.  1.
          3    1    3    3  501    0 -0.35409439599E+01 -0.10239284874E+02 -0.30375014102E+03  0.30394329966E+03  0.00000000000E+00 0.  1.
         -1    1    1    2    0  502  0.74857068681E+01  0.29322799036E+02 -0.23153095257E+03  0.23350041617E+03  0.00000000000E+00 0. -1.
<mgrwt>
<rscale>  1 0.30000000E+03</rscale>
<asrwt>0</asrwt>
<pdfrwt beam="1">  1       21 0.46766398E-02 0.30000000E+03</pdfrwt>
<pdfrwt beam="2">0</pdfrwt>
<totfact> 0.32276589E+04</totfact>
</mgrwt>
</event>
<event>
 6    1  0.1295671E-001  0.3000000E+03  0.7818608E-02  0.1093470E+00
         21   -1    0    0  501  502  0.00000000000E+00  0.00000000000E+00  0.36971333991E+01  0.36971333991E+01  0.00000000000E+00 0. -1.
         13   -1    0    0    0    0 -0.00000000000E+00 -0.00000000000E+00 -0.10000000000E+04  0.10000000000E+04  0.00000000000E+00 0.  1.
    9000005    2    1    2  501    0 -0.45020236488E+02  0.25446253074E+02 -0.76170547378E+03  0.76346751364E+03  0.36169206998E+01 0.  0.
         13    1    3    3    0    0 -0.16070400771E+02  0.11096097101E+02 -0.28716653060E+03  0.28782980640E+03  0.00000000000E+00 0.  1.
          3    1    3    3  501    0 -0.28949835717E+02  0.14350155973E+02 -0.47453894317E+03  0.47563770725E+03  0.00000000000E+00 0.  1.
         -3    1    1    2    0  502  0.45020236488E+02 -0.25446253074E+02 -0.23459739282E+03  0.24022961975E+03  0.00000000000E+00 0. -1.
<mgrwt>
<rscale>  1 0.30000000E+03</rscale>
<asrwt>0</asrwt>
<pdfrwt beam="1">  1       21 0.13444150E-01 0.30000000E+03</pdfrwt>
<pdfrwt beam="2">0</pdfrwt>
<totfact> 0.50373967E+03</totfact>
</mgrwt>
</event>
<event>
 6    1  0.1295671E-001  0.3000000E+03  0.7818608E-02  0.1093470E+00
         21   -1    0    0  501  502  0.00000000000E+00  0.00000000000E+00  0.40995697772E+01  0.40995697772E+01  0.00000000000E+00 0. -1.
         13   -1    0    0    0    0 -0.00000000000E+00 -0.00000000000E+00 -0.10000000000E+04  0.10000000000E+04  0.00000000000E+00 0.  1.
    9000005    2    1    2  501    0 -0.21101988290E+02  0.47425790603E+02 -0.79166238463E+03  0.79336827454E+03  0.30640311245E+01 0.  0.
         13    1    3    3    0    0 -0.16519778914E+02  0.36510154912E+02 -0.59115594951E+03  0.59251265907E+03  0.00000000000E+00 0.  1.
          3    1    3    3  501    0 -0.45822093754E+01  0.10915635692E+02 -0.20050643512E+03  0.20085561548E+03  0.00000000000E+00 0.  1.
         -1    1    1    2    0  502  0.21101988290E+02 -0.47425790603E+02 -0.20423804559E+03  0.21073129523E+03  0.00000000000E+00 0. -1.
<mgrwt>
<rscale>  1 0.30000000E+03</rscale>
<asrwt>0</asrwt>
<pdfrwt beam="1">  1       21 0.14907558E-01 0.30000000E+03</pdfrwt>
<pdfrwt beam="2">0</pdfrwt>
<totfact> 0.41654075E+03</totfact>
</mgrwt>
</event>
<event>
 6    1  0.1295671E-001  0.3000000E+03  0.7818608E-02  0.1093470E+00
         21   -1    0    0  501  502  0.00000000000E+00  0.00000000000E+00  0.85170436763E+01  0.85170436763E+01  0.00000000000E+00 0. -1.
         13   -1    0    0    0    0 -0.00000000000E+00 -0.00000000000E+00 -0.10000000000E+04  0.10000000000E+04  0.00000000000E+00 0.  1.
    9000005    2    1    2  501    0 -0.35459733433E+02 -0.26565642696E+01 -0.96105124955E+03  0.96171385141E+03  0.30947874289E+01 0.  0.
         13    1    3    3    0    0 -0.32627427773E+02 -0.32214811265E+01 -0.87416216870E+03  0.87477678534E+03  0.00000000000E+00 0.  1.
          3    1    3    3  501    0 -0.28323056595E+01  0.56491685688E+00 -0.86889080849E+02  0.86937066072E+02  0.00000000000E+00 0.  1.
         -1    1    1    2    0  502  0.35459733433E+02  0.26565642696E+01 -0.30431706773E+02  0.46803192263E+02  0.00000000000E+00 0. -1.
<mgrwt>
<rscale>  1 0.30000000E+03</rscale>
<asrwt>0</asrwt>
<pdfrwt beam="1">  1       21 0.30971133E-01 0.30000000E+03</pdfrwt>
<pdfrwt beam="2">0</pdfrwt>
<totfact> 0.10199927E+03</totfact>
</mgrwt>
</event>
<event>
 6    1  0.1295671E-001  0.3000000E+03  0.7818608E-02  0.1093470E+00
         21   -1    0    0  501  502  0.00000000000E+00  0.00000000000E+00  0.28392019234E+01  0.28392019234E+01  0.00000000000E+00 0. -1.
         13   -1    0    0    0    0 -0.00000000000E+00 -0.00000000000E+00 -0.10000000000E+04  0.10000000000E+04  0.00000000000E+00 0.  1.
    9000005    2    1    2  501    0 -0.20362608933E+02 -0.38817560583E+02 -0.78323975107E+03  0.78447333187E+03  0.35301424659E+01 0.  0.
         13    1    3    3    0    0 -0.11113577563E+02 -0.24849521470E+02 -0.48847817620E+03  0.48923607691E+03  0.00000000000E+00 0.  1.
          1    1    3    3  501    0 -0.92490313694E+01 -0.13968039113E+02 -0.29476157487E+03  0.29523725496E+03  0.00000000000E+00 0.  1.
         -1    1    1    2    0  502  0.20362608933E+02  0.38817560583E+02 -0.21392104701E+03  0.21836587006E+03  0.00000000000E+00 0. -1.
<mgrwt>
<rscale>  1 0.30000000E+03</rscale>
<asrwt>0</asrwt>
<pdfrwt beam="1">  1       21 0.10324392E-01 0.30000000E+03</pdfrwt>
<pdfrwt beam="2">0</pdfrwt>
<totfact> 0.81257179E+03</totfact>
</mgrwt>
</event>
<event>
 6    1  0.1295671E-001  0.3000000E+03  0.7818608E-02  0.1093470E+00
         21   -1    0    0  501  502  0.00000000000E+00  0.00000000000E+00  0.12362522110E+01  0.12362522110E+01  0.00000000000E+00 0. -1.
         13   -1    0    0    0    0 -0.00000000000E+00 -0.00000000000E+00 -0.10000000000E+04  0.10000000000E+04  0.00000000000E+00 0.  1.
    9000005    2    1    2  501    0 -0.34667500278E+02  0.53277507151E+01 -0.48494303414E+03  0.48621979978E+03  0.31187867570E+01 0.  0.
         13    1    3    3    0    0 -0.88682789849E+01 -0.38069406801E-02 -0.12292265552E+03  0.12324214225E+03  0.00000000000E+00 0.  1.
          3    1    3    3  501    0 -0.25799221293E+02  0.53315576558E+01 -0.36202037863E+03  0.36297765753E+03  0.00000000000E+00 0.  1.
         -1    1    1    2    0  502  0.34667500278E+02 -0.53277507151E+01 -0.51382071365E+03  0.51501645243E+03  0.00000000000E+00 0. -1.
<mgrwt>
<rscale>  1 0.30000000E+03</rscale>
<asrwt>0</asrwt>
<pdfrwt beam="1">  1       21 0.44954721E-02 0.30000000E+03</pdfrwt>
<pdfrwt beam="2">0</pdfrwt>
<totfact> 0.34517102E+04</totfact>
</mgrwt>
</event>
<event>
 6    1  0.1295671E-001  0.3000000E+03  0.7818608E-02  0.1093470E+00
         21   -1    0    0  501  502  0.00000000000E+00  0.00000000000E+00  0.12025605788E+01  0.12025605788E+01  0.00000000000E+00 0. -1.
         13   -1    0    0    0    0 -0.00000000000E+00 -0.00000000000E+00 -0.10000000000E+04  0.10000000000E+04  0.00000000000E+00 0.  1.
    9000005    2    1    2  501    0  0.32439837820E+02  0.63537623264E+01 -0.61981952346E+03  0.62078571794E+03  0.10293326404E+02 0.  0.
         13    1    3    3    0    0  0.21590553687E+02  0.42539028133E+01 -0.31599756670E+03  0.31676286060E+03  0.00000000000E+00 0.  1.
          1    1    3    3  501    0  0.10849284133E+02  0.20998595131E+01 -0.30382195676E+03  0.30402285734E+03  0.00000000000E+00 0.  1.
         -3    1    1    2    0  502 -0.32439837820E+02 -0.63537623264E+01 -0.37897791596E+03  0.38041684264E+03  0.00000000000E+00 0. -1.
<mgrwt>
<rscale>  1 0.30000000E+03</rscale>
<asrwt>0</asrwt>
<pdfrwt beam="1">  1       21 0.43729568E-02 0.30000000E+03</pdfrwt>
<pdfrwt beam="2">0</pdfrwt>
<totfact> 0.36172120E+04</totfact>
</mgrwt>
</event>
<event>
 6    1  0.1295671E-001  0.3000000E+03  0.7818608E-02  0.1093470E+00
         21   -1    0    0  501  502  0.00000000000E+00  0.00000000000E+00  0.14096927198E+01  0.14096927198E+01  0.00000000000E+00 0. -1.
         13   -1    0    0    0    0 -0.00000000000E+00 -0.00000000000E+00 -0.10000000000E+04  0.10000000000E+04  0.00000000000E+00 0.  1.
    9000005    2    1    2  501    0  0.25606159988E+02  0.16788557094E+02 -0.78667159821E+03  0.78729040276E+03  0.60368675771E+01 0.  0.
         13    1    3    3    0    0  0.18889383177E+02  0.12005748466E+02 -0.63559207869E+03  0.63598603545E+03  0.00000000000E+00 0.  1.
          3    1    3    3  501    0  0.67167768109E+01  0.47828086279E+01 -0.15107951952E+03  0.15130436731E+03  0.00000000000E+00 0.  1.
         -1    1    1    2    0  502 -0.25606159988E+02 -0.16788557094E+02 -0.21191870907E+03  0.21411928996E+03  0.00000000000E+00 0. -1.
<mgrwt>
<rscale>  1 0.30000000E+03</rscale>
<asrwt>0</asrwt>
<pdfrwt beam="1">  1       21 0.51261662E-02 0.30000000E+03</pdfrwt>
<pdfrwt beam="2">0</pdfrwt>
<totfact> 0.27605857E+04</totfact>
</mgrwt>
</event>
<event>
 6    1  0.1295671E-001  0.3000000E+03  0.7818608E-02  0.1093470E+00
         21   -1    0    0  501  502  0.00000000000E+00  0.00000000000E+00  0.27573117846E+01  0.27573117846E+01  0.00000000000E+00 0. -1.
         13   -1    0    0    0    0 -0.00000000000E+00 -0.00000000000E+00 -0.10000000000E+04  0.10000000000E+04  0.00000000000E+00 0.  1.
    9000005    2    1    2  501    0 -0.40652752786E+02 -0.28190618009E+02 -0.66580604713E+03  0.66764896467E+03  0.31765351079E+01 0.  0.
         13    1    3    3    0    0 -0.39385712030E+01 -0.19581314444E+01 -0.51046664401E+02  0.51235813337E+02  0.00000000000E+00 0.  1.
          1    1    3    3  501    0 -0.36714181583E+02 -0.26232486565E+02 -0.61475938273E+03  0.61641315133E+03  0.00000000000E+00 0.  1.
         -3    1    1    2    0  502  0.40652752786E+02  0.28190618009E+02 -0.33143664109E+03  0.33510834712E+03  0.00000000000E+00 0. -1.
<mgrwt>
<rscale>  1 0.30000000E+03</rscale>
<asrwt>0</asrwt>
<pdfrwt beam="1">  1       21 0.10026609E-01 0.30000000E+03</pdfrwt>
<pdfrwt beam="2">0</pdfrwt>
<totfact> 0.85624402E+03</totfact>
</mgrwt>
</event>
<event>
 6    1  0.1295671E-001  0.3000000E+03  0.7818608E-02  0.1093470E+00
         21   -1    0    0  501  502  0.00000000000E+00  0.00000000000E+00  0.28979140118E+01  0.28979140118E+01  0.00000000000E+00 0. -1.
         13   -1    0    0    0    0 -0.00000000000E+00 -0.00000000000E+00 -0.10000000000E+04  0.10000000000E+04  0.00000000000E+00 0.  1.
    9000005    2    1    2  501    0  0.41863565767E+02  0.27749284523E+02 -0.67814629172E+03  0.68001189754E+03  0.33476713872E+01 0.  0.
         13    1    3    3    0    0  0.20433417229E+02  0.11880535067E+02 -0.33126832833E+03  0.33211048916E+03  0.00000000000E+00 0.  1.
          3    1    3    3  501    0  0.21430148537E+02  0.15868749456E+02 -0.34687796338E+03  0.34790140838E+03  0.00000000000E+00 0.  1.
         -1    1    1    2    0  502 -0.41863565767E+02 -0.27749284523E+02 -0.31895579427E+03  0.32288601647E+03  0.00000000000E+00 0. -1.
<mgrwt>
<rscale>  1 0.30000000E+03</rscale>
<asrwt>0</asrwt>
<pdfrwt beam="1">  1       21 0.10537891E-01 0.30000000E+03</pdfrwt>
<pdfrwt beam="2">0</pdfrwt>
<totfact> 0.78331187E+03</totfact>
</mgrwt>
</event>
<event>
 6    1  0.1295671E-001  0.3000000E+03  0.7818608E-02  0.1093470E+00
         21   -1    0    0  501  502  0.00000000000E+00  0.00000000000E+00  0.45440892273E+01  0.45440892273E+01  0.00000000000E+00 0. -1.
         13   -1    0    0    0    0 -0.00000000000E+00 -0.00000000000E+00 -0.10000000000E+04  0.10000000000E+04  0.00000000000E+00 0.  1.
    9000005    2    1    2  501    0 -0.14229066286E+02 -0.39145819684E+02 -0.89260182193E+03  0.89357641322E+03  0.24356170315E+01 0.  0.
         13    1    3    3    0    0 -0.19457844245E+01 -0.49050103437E+01 -0.13124507391E+03  0.13135111202E+03  0.00000000000E+00 0.  1.
          1    1    3    3  501    0 -0.12283281861E+02 -0.34240809341E+02 -0.76135674802E+03  0.76222530120E+03  0.00000000000E+00 0.  1.
         -3    1    1    2    0  502  0.14229066286E+02  0.39145819684E+02 -0.10285408885E+03  0.11096767601E+03  0.00000000000E+00 0. -1.
<mgrwt>
<rscale>  1 0.30000000E+03</rscale>
<asrwt>0</asrwt>
<pdfrwt beam="1">  1       21 0.16523996E-01 0.30000000E+03</pdfrwt>
<pdfrwt beam="2">0</pdfrwt>
<totfact> 0.34394802E+03</totfact>
</mgrwt>
</event>
<event>
 6    1  0.1295671E-001  0.3000000E+03  0.7818608E-02  0.1093470E+00
         21   -1    0    0  501  502  0.00000000000E+00  0.00000000000E+00  0.16468447525E+01  0.16468447525E+01  0.00000000000E+00 0. -1.
         13   -1    0    0    0    0 -0.00000000000E+00 -0.00000000000E+00 -0.10000000000E+04  0.10000000000E+04  0.00000000000E+00 0.  1.
    9000005    2    1    2  501    0  0.17416805421E+02 -0.36267870813E+02 -0.44512751783E+03  0.44696016792E+03  0.40225625153E+01 0.  0.
         13    1    3    3    0    0  0.11835069284E+02 -0.28489725472E+02 -0.33545497966E+03  0.33687056372E+03  0.00000000000E+00 0.  1.
          1    1    3    3  501    0  0.55817361368E+01 -0.77781453416E+01 -0.10967253817E+03  0.11008960420E+03  0.00000000000E+00 0.  1.
         -3    1    1    2    0  502 -0.17416805421E+02  0.36267870813E+02 -0.55322563742E+03  0.55468667684E+03  0.00000000000E+00 0. -1.
<mgrwt>
<rscale>  1 0.30000000E+03</rscale>
<asrwt>0</asrwt>
<pdfrwt beam="1">  1       21 0.59885390E-02 0.30000000E+03</pdfrwt>
<pdfrwt beam="2">0</pdfrwt>
<totfact> 0.21141261E+04</totfact>
</mgrwt>
</event>
<event>
 6    1  0.1295671E-001  0.3000000E+03  0.7818608E-02  0.1093470E+00
         21   -1    0    0  501  502  0.00000000000E+00  0.00000000000E+00  0.24890234022E+01  0.24890234022E+01  0.00000000000E+00 0. -1.
         13   -1    0    0    0    0 -0.00000000000E+00 -0.00000000000E+00 -0.10000000000E+04  0.10000000000E+04  0.00000000000E+00 0.  1.
    9000005    2    1    2  501    0 -0.52643540308E+01 -0.42129425894E+02 -0.76117965318E+03  0.76237426672E+03  0.41780602712E+01 0.  0.
         13    1    3    3    0    0 -0.18870266629E+01 -0.29726548919E+02 -0.52051601056E+03  0.52136757267E+03  0.00000000000E+00 0.  1.
          1    1    3    3  501    0 -0.33773273679E+01 -0.12402876975E+02 -0.24066364262E+03  0.24100669405E+03  0.00000000000E+00 0.  1.
         -3    1    1    2    0  502  0.52643540308E+01  0.42129425894E+02 -0.23633132341E+03  0.24011475668E+03  0.00000000000E+00 0. -1.
<mgrwt>
<rscale>  1 0.30000000E+03</rscale>
<asrwt>0</asrwt>
<pdfrwt beam="1">  1       21 0.90510133E-02 0.30000000E+03</pdfrwt>
<pdfrwt beam="2">0</pdfrwt>
<totfact> 0.10274659E+04</totfact>
</mgrwt>
</event>
<event>
 6    1  0.1295671E-001  0.3000000E+03  0.7818608E-02  0.1093470E+00
         21   -1    0    0  501  502  0.00000000000E+00  0.00000000000E+00  0.10765760792E+01  0.10765760792E+01  0.00000000000E+00 0. -1.
         13   -1    0    0    0    0 -0.00000000000E+00 -0.00000000000E+00 -0.10000000000E+04  0.10000000000E+04  0.00000000000E+00 0.  1.
    9000005    2    1    2  501    0 -0.26897529819E+02 -0.18651410154E+02 -0.50330445981E+03  0.50437796545E+03  0.32249898251E+01 0.  0.
         13    1    3    3    0    0 -0.18200359394E+02 -0.14336055672E+02 -0.34820762651E+03  0.34897754474E+03  0.00000000000E+00 0.  1.
          1    1    3    3  501    0 -0.86971704259E+01 -0.43153544819E+01 -0.15509683330E+03  0.15540042071E+03  0.00000000000E+00 0.  1.
         -3    1    1    2    0  502  0.26897529819E+02  0.18651410154E+02 -0.49561896411E+03  0.49669861062E+03  0.00000000000E+00 0. -1.
<mgrwt>
<rscale>  1 0.30000000E+03</rscale>
<asrwt>0</asrwt>
<pdfrwt beam="1">  1       21 0.39148304E-02 0.30000000E+03</pdfrwt>
<pdfrwt beam="2">0</pdfrwt>
<totfact> 0.43598424E+04</totfact>
</mgrwt>
</event>
<event>
 6    1  0.1295671E-001  0.3000000E+03  0.7818608E-02  0.1093470E+00
         21   -1    0    0  501  502  0.00000000000E+00  0.00000000000E+00  0.14748543377E+01  0.14748543377E+01  0.00000000000E+00 0. -1.
         13   -1    0    0    0    0 -0.00000000000E+00 -0.00000000000E+00 -0.10000000000E+04  0.10000000000E+04  0.00000000000E+00 0.  1.
    9000005    2    1    2  501    0  0.24159432826E+02 -0.25660356358E+02 -0.69685014365E+03  0.69774810391E+03  0.31877468264E+01 0.  0.
         13    1    3    3    0    0  0.18379813980E+02 -0.21292819326E+02 -0.56221086215E+03  0.56291407447E+03  0.00000000000E+00 0.  1.
          1    1    3    3  501    0  0.57796188457E+01 -0.43675370312E+01 -0.13463928150E+03  0.13483402944E+03  0.00000000000E+00 0.  1.
         -3    1    1    2    0  502 -0.24159432826E+02  0.25660356358E+02 -0.30167500201E+03  0.30372675042E+03  0.00000000000E+00 0. -1.
<mgrwt>
<rscale>  1 0.30000000E+03</rscale>
<asrwt>0</asrwt>
<pdfrwt beam="1">  1       21 0.53631180E-02 0.30000000E+03</pdfrwt>
<pdfrwt beam="2">0</pdfrwt>
<totfact> 0.25553972E+04</totfact>
</mgrwt>
</event>
<event>
 6    1  0.1295671E-001  0.3000000E+03  0.7818608E-02  0.1093470E+00
         21   -1    0    0  501  502  0.00000000000E+00  0.00000000000E+00  0.13298173598E+01  0.13298173598E+01  0.00000000000E+00 0. -1.
         13   -1    0    0    0    0 -0.00000000000E+00 -0.00000000000E+00 -0.10000000000E+04  0.10000000000E+04  0.00000000000E+00 0.  1.
    9000005    2    1    2  501    0 -0.71821465570E+01 -0.35049583294E+02 -0.58452632235E+03  0.58564340486E+03  0.52076502843E+01 0.  0.
         13    1    3    3    0    0 -0.49566656203E+01 -0.13101461104E+02 -0.20758858736E+03  0.20806066043E+03  0.00000000000E+00 0.  1.
          1    1    3    3  501    0 -0.22254809367E+01 -0.21948122190E+02 -0.37693773499E+03  0.37758274443E+03  0.00000000000E+00 0.  1.
         -1    1    1    2    0  502  0.71821465570E+01  0.35049583294E+02 -0.41414386029E+03  0.41568641250E+03  0.00000000000E+00 0. -1.
<mgrwt>
<rscale>  1 0.30000000E+03</rscale>
<asrwt>0</asrwt>
<pdfrwt beam="1">  1       21 0.48357097E-02 0.30000000E+03</pdfrwt>
<pdfrwt beam="2">0</pdfrwt>
<totfact> 0.30491481E+04</totfact>
</mgrwt>
</event>
<event>
 6    1  0.1295671E-001  0.3000000E+03  0.7818608E-02  0.1093470E+00
         21   -1    0    0  501  502  0.00000000000E+00  0.00000000000E+00  0.16063520666E+01  0.16063520666E+01  0.00000000000E+00 0. -1.
         13   -1    0    0    0    0 -0.00000000000E+00 -0.00000000000E+00 -0.10000000000E+04  0.10000000000E+04  0.00000000000E+00 0.  1.
    9000005    2    1    2  501    0  0.21810343201E+02 -0.31527959272E+02 -0.64296554597E+03  0.64411671732E+03  0.34567237850E+01 0.  0.
         13    1    3    3    0    0  0.10741975774E+02 -0.17646540269E+02 -0.36630885459E+03  0.36689094752E+03  0.00000000000E+00 0.  1.
          1    1    3    3  501    0  0.11068367428E+02 -0.13881419003E+02 -0.27665669139E+03  0.27722576980E+03  0.00000000000E+00 0.  1.
         -1    1    1    2    0  502 -0.21810343201E+02  0.31527959272E+02 -0.35542810196E+03  0.35748963475E+03  0.00000000000E+00 0. -1.
<mgrwt>
<rscale>  1 0.30000000E+03</rscale>
<asrwt>0</asrwt>
<pdfrwt beam="1">  1       21 0.58412926E-02 0.30000000E+03</pdfrwt>
<pdfrwt beam="2">0</pdfrwt>
<totfact> 0.22068230E+04</totfact>
</mgrwt>
</event>
<event>
 6    1  0.1295671E-001  0.3000000E+03  0.7818608E-02  0.1093470E+00
         21   -1    0    0  501  502  0.00000000000E+00  0.00000000000E+00  0.13474412373E+01  0.13474412373E+01  0.00000000000E+00 0. -1.
         13   -1    0    0    0    0 -0.00000000000E+00 -0.00000000000E+00 -0.10000000000E+04  0.10000000000E+04  0.00000000000E+00 0.  1.
    9000005    2    1    2  501    0  0.36356441002E+02 -0.22188863758E+01 -0.55361146965E+03  0.55481828737E+03  0.33103485841E+01 0.  0.
         13    1    3    3    0    0  0.25132768052E+02 -0.25148445333E+01 -0.36494143862E+03  0.36581448043E+03  0.00000000000E+00 0.  1.
          1    1    3    3  501    0  0.11223672950E+02  0.29595815754E+00 -0.18867003103E+03  0.18900380693E+03  0.00000000000E+00 0.  1.
         -1    1    1    2    0  502 -0.36356441002E+02  0.22188863758E+01 -0.44504108911E+03  0.44652915387E+03  0.00000000000E+00 0. -1.
<mgrwt>
<rscale>  1 0.30000000E+03</rscale>
<asrwt>0</asrwt>
<pdfrwt beam="1">  1       21 0.48997966E-02 0.30000000E+03</pdfrwt>
<pdfrwt beam="2">0</pdfrwt>
<totfact> 0.29815581E+04</totfact>
</mgrwt>
</event>
<event>
 6    1  0.1295671E-001  0.3000000E+03  0.7818608E-02  0.1093470E+00
         21   -1    0    0  501  502  0.00000000000E+00  0.00000000000E+00  0.10098131423E+01  0.10098131423E+01  0.00000000000E+00 0. -1.
         13   -1    0    0    0    0 -0.00000000000E+00 -0.00000000000E+00 -0.10000000000E+04  0.10000000000E+04  0.00000000000E+00 0.  1.
    9000005    2    1    2  501    0  0.28322738549E+02 -0.12685171156E+02 -0.60243649170E+03  0.60324364536E+03  0.31745950052E+01 0.  0.
         13    1    3    3    0    0  0.43457910821E+01 -0.20843799145E+01 -0.73479853484E+02  0.73637758031E+02  0.00000000000E+00 0.  1.
          1    1    3    3  501    0  0.23976947467E+02 -0.10600791242E+02 -0.52895663822E+03  0.52960588733E+03  0.00000000000E+00 0.  1.
         -3    1    1    2    0  502 -0.28322738549E+02  0.12685171156E+02 -0.39655369516E+03  0.39776616778E+03  0.00000000000E+00 0. -1.
<mgrwt>
<rscale>  1 0.30000000E+03</rscale>
<asrwt>0</asrwt>
<pdfrwt beam="1">  1       21 0.36720555E-02 0.30000000E+03</pdfrwt>
<pdfrwt beam="2">0</pdfrwt>
<totfact> 0.48549222E+04</totfact>
</mgrwt>
</event>
<event>
 6    1  0.1295671E-001  0.3000000E+03  0.7818608E-02  0.1093470E+00
         21   -1    0    0  501  502  0.00000000000E+00  0.00000000000E+00  0.51171894029E+01  0.51171894029E+01  0.00000000000E+00 0. -1.
         13   -1    0    0    0    0 -0.00000000000E+00 -0.00000000000E+00 -0.10000000000E+04  0.10000000000E+04  0.00000000000E+00 0.  1.
    9000005    2    1    2  501    0 -0.26537475502E+02  0.19988382148E+02 -0.94247727811E+03  0.94306791171E+03  0.31453644905E+01 0.  0.
         13    1    3    3    0    0 -0.58914696085E+01  0.51833497852E+01 -0.19035582633E+03  0.19051749827E+03  0.00000000000E+00 0.  1.
          1    1    3    3  501    0 -0.20646005894E+02  0.14805032363E+02 -0.75212145178E+03  0.75255041344E+03  0.00000000000E+00 0.  1.
         -1    1    1    2    0  502  0.26537475502E+02 -0.19988382148E+02 -0.52405532489E+02  0.62049277694E+02  0.00000000000E+00 0. -1.
<mgrwt>
<rscale>  1 0.30000000E+03</rscale>
<asrwt>0</asrwt>
<pdfrwt beam="1">  1       21 0.18608001E-01 0.30000000E+03</pdfrwt>
<pdfrwt beam="2">0</pdfrwt>
<totfact> 0.27515576E+03</totfact>
</mgrwt>
</event>
<event>
 6    1  0.1295671E-001  0.3000000E+03  0.7818608E-02  0.1093470E+00
         21   -1    0    0  501  502  0.00000000000E+00  0.00000000000E+00  0.25934897910E+01  0.25934897910E+01  0.00000000000E+00 0. -1.
         13   -1    0    0    0    0 -0.00000000000E+00 -0.00000000000E+00 -0.10000000000E+04  0.10000000000E+04  0.00000000000E+00 0.  1.
    9000005    2    1    2  501    0 -0.46787365311E+02 -0.18709077863E+02 -0.43028680989E+03  0.43323960895E+03  0.32761019785E+01 0.  0.
         13    1    3    3    0    0 -0.29865973575E+02 -0.10590222551E+02 -0.26187150829E+03  0.26378175837E+03  0.00000000000E+00 0.  1.
          1    1    3    3  501    0 -0.16921391736E+02 -0.81188553118E+01 -0.16841530160E+03  0.16945785058E+03  0.00000000000E+00 0.  1.
         -3    1    1    2    0  502  0.46787365311E+02  0.18709077863E+02 -0.56711970031E+03  0.56935388084E+03  0.00000000000E+00 0. -1.
<mgrwt>
<rscale>  1 0.30000000E+03</rscale>
<asrwt>0</asrwt>
<pdfrwt beam="1">  1       21 0.94308919E-02 0.30000000E+03</pdfrwt>
<pdfrwt beam="2">0</pdfrwt>
<totfact> 0.95510912E+03</totfact>
</mgrwt>
</event>
<event>
 6    1  0.1295671E-001  0.3000000E+03  0.7818608E-02  0.1093470E+00
         21   -1    0    0  501  502  0.00000000000E+00  0.00000000000E+00  0.19465646717E+01  0.19465646717E+01  0.00000000000E+00 0. -1.
         13   -1    0    0    0    0 -0.00000000000E+00 -0.00000000000E+00 -0.10000000000E+04  0.10000000000E+04  0.00000000000E+00 0.  1.
    9000005    2    1    2  501    0 -0.42571392130E+02 -0.13312806769E+01 -0.62720296509E+03  0.62865824847E+03  0.36794315440E+01 0.  0.
         13    1    3    3    0    0 -0.28286034924E+02 -0.22133061963E+01 -0.40011964950E+03  0.40112433535E+03  0.00000000000E+00 0.  1.
          3    1    3    3  501    0 -0.14285357206E+02  0.88202551937E+00 -0.22708331559E+03  0.22753391311E+03  0.00000000000E+00 0.  1.
         -1    1    1    2    0  502  0.42571392130E+02  0.13312806769E+01 -0.37085047024E+03  0.37328831620E+03  0.00000000000E+00 0. -1.
<mgrwt>
<rscale>  1 0.30000000E+03</rscale>
<asrwt>0</asrwt>
<pdfrwt beam="1">  1       21 0.70784319E-02 0.30000000E+03</pdfrwt>
<pdfrwt beam="2">0</pdfrwt>
<totfact> 0.15825278E+04</totfact>
</mgrwt>
</event>
<event>
 6    1  0.1295671E-001  0.3000000E+03  0.7818608E-02  0.1093470E+00
         21   -1    0    0  501  502  0.00000000000E+00  0.00000000000E+00  0.15875312773E+01  0.15875312773E+01  0.00000000000E+00 0. -1.
         13   -1    0    0    0    0 -0.00000000000E+00 -0.00000000000E+00 -0.10000000000E+04  0.10000000000E+04  0.00000000000E+00 0.  1.
    9000005    2    1    2  501    0  0.29757450659E+02 -0.23045064317E+02 -0.65443849935E+03  0.65556054900E+03  0.73008980647E+01 0.  0.
         13    1    3    3    0    0  0.16432335726E+02 -0.17015075915E+02 -0.38655222063E+03  0.38727529451E+03  0.00000000000E+00 0.  1.
          1    1    3    3  501    0  0.13325114932E+02 -0.60299884021E+01 -0.26788627872E+03  0.26828525448E+03  0.00000000000E+00 0.  1.
         -3    1    1    2    0  502 -0.29757450659E+02  0.23045064317E+02 -0.34397396937E+03  0.34602698228E+03  0.00000000000E+00 0. -1.
<mgrwt>
<rscale>  1 0.30000000E+03</rscale>
<asrwt>0</asrwt>
<pdfrwt beam="1">  1       21 0.57728532E-02 0.30000000E+03</pdfrwt>
<pdfrwt beam="2">0</pdfrwt>
<totfact> 0.22520756E+04</totfact>
</mgrwt>
</event>
<event>
 6    1  0.1295671E-001  0.3000000E+03  0.7818608E-02  0.1093470E+00
         21   -1    0    0  501  502  0.00000000000E+00  0.00000000000E+00  0.11290315712E+01  0.11290315712E+01  0.00000000000E+00 0. -1.
         13   -1    0    0    0    0 -0.00000000000E+00 -0.00000000000E+00 -0.10000000000E+04  0.10000000000E+04  0.00000000000E+00 0.  1.
    9000005    2    1    2  501    0 -0.14994963339E+02  0.28948494403E+02 -0.38500387774E+03  0.38639683843E+03  0.34156434324E+01 0.  0.
         13    1    3    3    0    0 -0.36678954999E+01  0.10583108479E+02 -0.12964225379E+03  0.13012520744E+03  0.00000000000E+00 0.  1.
          1    1    3    3  501    0 -0.11327067839E+02  0.18365385924E+02 -0.25536162395E+03  0.25627163099E+03  0.00000000000E+00 0.  1.
         -1    1    1    2    0  502  0.14994963339E+02 -0.28948494403E+02 -0.61386709069E+03  0.61473219314E+03  0.00000000000E+00 0. -1.
<mgrwt>
<rscale>  1 0.30000000E+03</rscale>
<asrwt>0</asrwt>
<pdfrwt beam="1">  1       21 0.41055780E-02 0.30000000E+03</pdfrwt>
<pdfrwt beam="2">0</pdfrwt>
<totfact> 0.40241271E+04</totfact>
</mgrwt>
</event>
<event>
 6    1  0.1295671E-001  0.3000000E+03  0.7818608E-02  0.1093470E+00
         21   -1    0    0  501  502  0.00000000000E+00  0.00000000000E+00  0.16834121978E+01  0.16834121978E+01  0.00000000000E+00 0. -1.
         13   -1    0    0    0    0 -0.00000000000E+00 -0.00000000000E+00 -0.10000000000E+04  0.10000000000E+04  0.00000000000E+00 0.  1.
    9000005    2    1    2  501    0 -0.73669738991E+01  0.33179572949E+02 -0.77847390931E+03  0.77922901316E+03  0.45903273532E+01 0.  0.
         13    1    3    3    0    0 -0.65830837916E+01  0.27384787516E+02 -0.67839952303E+03  0.67898392943E+03  0.00000000000E+00 0.  1.
          1    1    3    3  501    0 -0.78389010751E+00  0.57947854337E+01 -0.10007438629E+03  0.10024508373E+03  0.00000000000E+00 0.  1.
         -3    1    1    2    0  502  0.73669738991E+01 -0.33179572949E+02 -0.21984267849E+03  0.22245439904E+03  0.00000000000E+00 0. -1.
<mgrwt>
<rscale>  1 0.30000000E+03</rscale>
<asrwt>0</asrwt>
<pdfrwt beam="1">  1       21 0.61215118E-02 0.30000000E+03</pdfrwt>
<pdfrwt beam="2">0</pdfrwt>
<totfact> 0.20355205E+04</totfact>
</mgrwt>
</event>
<event>
 6    1  0.1295671E-001  0.3000000E+03  0.7818608E-02  0.1093470E+00
         21   -1    0    0  501  502  0.00000000000E+00  0.00000000000E+00  0.21921232671E+01  0.21921232671E+01  0.00000000000E+00 0. -1.
         13   -1    0    0    0    0 -0.00000000000E+00 -0.00000000000E+00 -0.10000000000E+04  0.10000000000E+04  0.00000000000E+00 0.  1.
    9000005    2    1    2  501    0 -0.13646177833E+02 -0.43256912515E+02 -0.38062337723E+03  0.38334312305E+03  0.45184114266E+01 0.  0.
         13    1    3    3    0    0 -0.10081799578E+02 -0.25659674413E+02 -0.23993277217E+03  0.24151148365E+03  0.00000000000E+00 0.  1.
          1    1    3    3  501    0 -0.35643782543E+01 -0.17597238102E+02 -0.14069060506E+03  0.14183163940E+03  0.00000000000E+00 0.  1.
         -1    1    1    2    0  502  0.13646177833E+02  0.43256912515E+02 -0.61718449950E+03  0.61884900022E+03  0.00000000000E+00 0. -1.
<mgrwt>
<rscale>  1 0.30000000E+03</rscale>
<asrwt>0</asrwt>
<pdfrwt beam="1">  1       21 0.79713741E-02 0.30000000E+03</pdfrwt>
<pdfrwt beam="2">0</pdfrwt>
<totfact> 0.12854542E+04</totfact>
</mgrwt>
</event>
<event>
 6    1  0.1295671E-001  0.3000000E+03  0.7818608E-02  0.1093470E+00
         21   -1    0    0  501  502  0.00000000000E+00  0.00000000000E+00  0.15826944947E+01  0.15826944947E+01  0.00000000000E+00 0. -1.
         13   -1    0    0    0    0 -0.00000000000E+00 -0.00000000000E+00 -0.10000000000E+04  0.10000000000E+04  0.00000000000E+00 0.  1.
    9000005    2    1    2  501    0 -0.16335943525E+02  0.33938123719E+02 -0.65840919946E+03  0.65949473582E+03  0.34602529890E+01 0.  0.
         13    1    3    3    0    0 -0.10134000674E+02  0.23047226021E+02 -0.46302006666E+03  0.46370405943E+03  0.00000000000E+00 0.  1.
          1    1    3    3  501    0 -0.62019428510E+01  0.10890897698E+02 -0.19538913279E+03  0.19579067639E+03  0.00000000000E+00 0.  1.
         -1    1    1    2    0  502  0.16335943525E+02 -0.33938123719E+02 -0.34000810605E+03  0.34208795868E+03  0.00000000000E+00 0. -1.
<mgrwt>
<rscale>  1 0.30000000E+03</rscale>
<asrwt>0</asrwt>
<pdfrwt beam="1">  1       21 0.57552648E-02 0.30000000E+03</pdfrwt>
<pdfrwt beam="2">0</pdfrwt>
<totfact> 0.22639347E+04</totfact>
</mgrwt>
</event>
<event>
 6    1  0.1295671E-001  0.3000000E+03  0.7818608E-02  0.1093470E+00
         21   -1    0    0  501  502  0.00000000000E+00  0.00000000000E+00  0.51430750264E+01  0.51430750264E+01  0.00000000000E+00 0. -1.
         13   -1    0    0    0    0 -0.00000000000E+00 -0.00000000000E+00 -0.10000000000E+04  0.10000000000E+04  0.00000000000E+00 0.  1.
    9000005    2    1    2  501    0  0.35758922385E+01 -0.51262792175E+02 -0.84791881664E+03  0.84947847228E+03  0.25873523603E+01 0.  0.
         13    1    3    3    0    0  0.92211023303E-01 -0.20463194041E+00 -0.19044354680E+01  0.19176161127E+01  0.00000000000E+00 0.  1.
          1    1    3    3  501    0  0.34836812152E+01 -0.51058160234E+02 -0.84601438117E+03  0.84756085617E+03  0.00000000000E+00 0.  1.
         -1    1    1    2    0  502 -0.35758922385E+01  0.51262792175E+02 -0.14693810834E+03  0.15566460275E+03  0.00000000000E+00 0. -1.
<mgrwt>
<rscale>  1 0.30000000E+03</rscale>
<asrwt>0</asrwt>
<pdfrwt beam="1">  1       21 0.18702130E-01 0.30000000E+03</pdfrwt>
<pdfrwt beam="2">0</pdfrwt>
<totfact> 0.27254269E+03</totfact>
</mgrwt>
</event>
<event>
 6    1  0.1295671E-001  0.3000000E+03  0.7818608E-02  0.1093470E+00
         21   -1    0    0  501  502  0.00000000000E+00  0.00000000000E+00  0.15556383111E+01  0.15556383111E+01  0.00000000000E+00 0. -1.
         13   -1    0    0    0    0 -0.00000000000E+00 -0.00000000000E+00 -0.10000000000E+04  0.10000000000E+04  0.00000000000E+00 0.  1.
    9000005    2    1    2  501    0 -0.69392717991E+01 -0.38345797215E+02 -0.56282362039E+03  0.56419539331E+03  0.52402773596E+01 0.  0.
         13    1    3    3    0    0 -0.22762213390E+01 -0.24676049882E+02 -0.33627370823E+03  0.33718555051E+03  0.00000000000E+00 0.  1.
          3    1    3    3  501    0 -0.46630504601E+01 -0.13669747333E+02 -0.22654991216E+03  0.22700984280E+03  0.00000000000E+00 0.  1.
         -1    1    1    2    0  502  0.69392717991E+01  0.38345797215E+02 -0.43562074130E+03  0.43736024500E+03  0.00000000000E+00 0. -1.
<mgrwt>
<rscale>  1 0.30000000E+03</rscale>
<asrwt>0</asrwt>
<pdfrwt beam="1">  1       21 0.56568785E-02 0.30000000E+03</pdfrwt>
<pdfrwt beam="2">0</pdfrwt>
<totfact> 0.23320707E+04</totfact>
</mgrwt>
</event>
<event>
 6    1  0.1295671E-001  0.3000000E+03  0.7818608E-02  0.1093470E+00
         21   -1    0    0  501  502  0.00000000000E+00  0.00000000000E+00  0.39036236470E+01  0.39036236470E+01  0.00000000000E+00 0. -1.
         13   -1    0    0    0    0 -0.00000000000E+00 -0.00000000000E+00 -0.10000000000E+04  0.10000000000E+04  0.00000000000E+00 0.  1.
    9000005    2    1    2  501    0 -0.55099924633E+02 -0.17019697692E+02 -0.69080012383E+03  0.69320847788E+03  0.27406029853E+01 0.  0.
         13    1    3    3    0    0 -0.32830391342E+02 -0.95783972609E+01 -0.42429188526E+03  0.42566792713E+03  0.00000000000E+00 0.  1.
          3    1    3    3  501    0 -0.22269533291E+02 -0.74413004315E+01 -0.26650823857E+03  0.26754055074E+03  0.00000000000E+00 0.  1.
         -1    1    1    2    0  502  0.55099924633E+02  0.17019697692E+02 -0.30529625252E+03  0.31069514577E+03  0.00000000000E+00 0. -1.
<mgrwt>
<rscale>  1 0.30000000E+03</rscale>
<asrwt>0</asrwt>
<pdfrwt beam="1">  1       21 0.14195025E-01 0.30000000E+03</pdfrwt>
<pdfrwt beam="2">0</pdfrwt>
<totfact> 0.45592257E+03</totfact>
</mgrwt>
</event>
<event>
 6    1  0.1295671E-001  0.3000000E+03  0.7818608E-02  0.1093470E+00
         21   -1    0    0  501  502  0.00000000000E+00  0.00000000000E+00  0.12323645043E+02  0.12323645043E+02  0.00000000000E+00 0. -1.
         13   -1    0    0    0    0 -0.00000000000E+00 -0.00000000000E+00 -0.10000000000E+04  0.10000000000E+04  0.00000000000E+00 0.  1.
    9000005    2    1    2  501    0  0.43274223543E+02  0.11040615257E+01 -0.95984769957E+03  0.96086189774E+03  0.86082972221E+01 0.  0.
         13    1    3    3    0    0  0.76701483137E+01  0.30285178038E+01 -0.22213560017E+03  0.22228861410E+03  0.00000000000E+00 0.  1.
          3    1    3    3  501    0  0.35604075230E+02 -0.19244562781E+01 -0.73771209939E+03  0.73857328363E+03  0.00000000000E+00 0.  1.
         -1    1    1    2    0  502 -0.43274223543E+02 -0.11040615257E+01 -0.27828655389E+02  0.51461747307E+02  0.00000000000E+00 0. -1.
<mgrwt>
<rscale>  1 0.30000000E+03</rscale>
<asrwt>0</asrwt>
<pdfrwt beam="1">  1       21 0.44813349E-01 0.30000000E+03</pdfrwt>
<pdfrwt beam="2">0</pdfrwt>
<totfact> 0.47527765E+02</totfact>
</mgrwt>
</event>
<event>
 6    1  0.1295671E-001  0.3000000E+03  0.7818608E-02  0.1093470E+00
         21   -1    0    0  501  502  0.00000000000E+00  0.00000000000E+00  0.20503355545E+01  0.20503355545E+01  0.00000000000E+00 0. -1.
         13   -1    0    0    0    0 -0.00000000000E+00 -0.00000000000E+00 -0.10000000000E+04  0.10000000000E+04  0.00000000000E+00 0.  1.
    9000005    2    1    2  501    0  0.94771428743E+01  0.28901524417E+02 -0.86983439098E+03  0.87037407480E+03  0.37480668127E+01 0.  0.
         13    1    3    3    0    0  0.65041157430E+01  0.24373815656E+02 -0.72027909652E+03  0.72072072489E+03  0.00000000000E+00 0.  1.
          1    1    3    3  501    0  0.29730271313E+01  0.45277087611E+01 -0.14955529446E+03  0.14965334991E+03  0.00000000000E+00 0.  1.
         -3    1    1    2    0  502 -0.94771428743E+01 -0.28901524417E+02 -0.12811527346E+03  0.13167626075E+03  0.00000000000E+00 0. -1.
<mgrwt>
<rscale>  1 0.30000000E+03</rscale>
<asrwt>0</asrwt>
<pdfrwt beam="1">  1       21 0.74557814E-02 0.30000000E+03</pdfrwt>
<pdfrwt beam="2">0</pdfrwt>
<totfact> 0.14453313E+04</totfact>
</mgrwt>
</event>
<event>
 6    1  0.1295671E-001  0.3000000E+03  0.7818608E-02  0.1093470E+00
         21   -1    0    0  501  502  0.00000000000E+00  0.00000000000E+00  0.15364791948E+01  0.15364791948E+01  0.00000000000E+00 0. -1.
         13   -1    0    0    0    0 -0.00000000000E+00 -0.00000000000E+00 -0.10000000000E+04  0.10000000000E+04  0.00000000000E+00 0.  1.
    9000005    2    1    2  501    0  0.33456620055E+02  0.13228150266E+02 -0.69676679563E+03  0.69770224254E+03  0.31815659144E+01 0.  0.
         13    1    3    3    0    0  0.29319387570E+02  0.12519178706E+02 -0.62556990577E+03  0.62638172334E+03  0.00000000000E+00 0.  1.
          1    1    3    3  501    0  0.41372324847E+01  0.70897155939E+00 -0.71196889859E+02  0.71320519199E+02  0.00000000000E+00 0.  1.
         -3    1    1    2    0  502 -0.33456620055E+02 -0.13228150266E+02 -0.30169672517E+03  0.30383423666E+03  0.00000000000E+00 0. -1.
<mgrwt>
<rscale>  1 0.30000000E+03</rscale>
<asrwt>0</asrwt>
<pdfrwt beam="1">  1       21 0.55872089E-02 0.30000000E+03</pdfrwt>
<pdfrwt beam="2">0</pdfrwt>
<totfact> 0.23822406E+04</totfact>
</mgrwt>
</event>
<event>
 6    1  0.1295671E-001  0.3000000E+03  0.7818608E-02  0.1093470E+00
         21   -1    0    0  501  502  0.00000000000E+00  0.00000000000E+00  0.14970425090E+01  0.14970425090E+01  0.00000000000E+00 0. -1.
         13   -1    0    0    0    0 -0.00000000000E+00 -0.00000000000E+00 -0.10000000000E+04  0.10000000000E+04  0.00000000000E+00 0.  1.
    9000005    2    1    2  501    0  0.13875567158E+02 -0.30449698689E+02 -0.74939789943E+03  0.75015455611E+03  0.38640495076E+01 0.  0.
         13    1    3    3    0    0  0.60901061692E+01 -0.96908770300E+01 -0.23303346354E+03  0.23331437508E+03  0.00000000000E+00 0.  1.
          3    1    3    3  501    0  0.77854609884E+01 -0.20758821659E+02 -0.51636443589E+03  0.51684018103E+03  0.00000000000E+00 0.  1.
         -1    1    1    2    0  502 -0.13875567158E+02  0.30449698689E+02 -0.24910505807E+03  0.25134248640E+03  0.00000000000E+00 0. -1.
<mgrwt>
<rscale>  1 0.30000000E+03</rscale>
<asrwt>0</asrwt>
<pdfrwt beam="1">  1       21 0.54438024E-02 0.30000000E+03</pdfrwt>
<pdfrwt beam="2">0</pdfrwt>
<totfact> 0.24908798E+04</totfact>
</mgrwt>
</event>
<event>
 6    1  0.1295671E-001  0.3000000E+03  0.7818608E-02  0.1093470E+00
         21   -1    0    0  501  502  0.00000000000E+00  0.00000000000E+00  0.15290488350E+01  0.15290488350E+01  0.00000000000E+00 0. -1.
         13   -1    0    0    0    0 -0.00000000000E+00 -0.00000000000E+00 -0.10000000000E+04  0.10000000000E+04  0.00000000000E+00 0.  1.
    9000005    2    1    2  501    0  0.18391887436E+02 -0.32327949401E+02 -0.65168001165E+03  0.65274929947E+03  0.33841603535E+01 0.  0.
         13    1    3    3    0    0  0.16927807736E+02 -0.27412499368E+02 -0.56119245570E+03  0.56211650761E+03  0.00000000000E+00 0.  1.
          3    1    3    3  501    0  0.14640797005E+01 -0.49154500327E+01 -0.90487555953E+02  0.90632791862E+02  0.00000000000E+00 0.  1.
         -1    1    1    2    0  502 -0.18391887436E+02  0.32327949401E+02 -0.34679093952E+03  0.34877974936E+03  0.00000000000E+00 0. -1.
<mgrwt>
<rscale>  1 0.30000000E+03</rscale>
<asrwt>0</asrwt>
<pdfrwt beam="1">  1       21 0.55601893E-02 0.30000000E+03</pdfrwt>
<pdfrwt beam="2">0</pdfrwt>
<totfact> 0.24021450E+04</totfact>
</mgrwt>
</event>
<event>
 6    1  0.1295671E-001  0.3000000E+03  0.7818608E-02  0.1093470E+00
         21   -1    0    0  501  502  0.00000000000E+00  0.00000000000E+00  0.15782312275E+01  0.15782312275E+01  0.00000000000E+00 0. -1.
         13   -1    0    0    0    0 -0.00000000000E+00 -0.00000000000E+00 -0.10000000000E+04  0.10000000000E+04  0.00000000000E+00 0.  1.
    9000005    2    1    2  501    0  0.35041848900E+02 -0.20091065877E+01 -0.73287443872E+03  0.73372126906E+03  0.31607053473E+01 0.  0.
         13    1    3    3    0    0  0.23861242279E+01 -0.32986229961E+00 -0.36358694687E+02  0.36438401135E+02  0.00000000000E+00 0.  1.
          3    1    3    3  501    0  0.32655724672E+02 -0.16792442881E+01 -0.69651574404E+03  0.69728286793E+03  0.00000000000E+00 0.  1.
         -3    1    1    2    0  502 -0.35041848900E+02  0.20091065877E+01 -0.26554733005E+03  0.26785696216E+03  0.00000000000E+00 0. -1.
<mgrwt>
<rscale>  1 0.30000000E+03</rscale>
<asrwt>0</asrwt>
<pdfrwt beam="1">  1       21 0.57390347E-02 0.30000000E+03</pdfrwt>
<pdfrwt beam="2">0</pdfrwt>
<totfact> 0.22749629E+04</totfact>
</mgrwt>
</event>
<event>
 6    1  0.1295671E-001  0.3000000E+03  0.7818608E-02  0.1093470E+00
         21   -1    0    0  501  502  0.00000000000E+00  0.00000000000E+00  0.14530727004E+01  0.14530727004E+01  0.00000000000E+00 0. -1.
         13   -1    0    0    0    0 -0.00000000000E+00 -0.00000000000E+00 -0.10000000000E+04  0.10000000000E+04  0.00000000000E+00 0.  1.
    9000005    2    1    2  501    0 -0.38365404148E+01 -0.35354037776E+02 -0.67792748908E+03  0.67886750081E+03  0.32827080921E+01 0.  0.
         13    1    3    3    0    0 -0.33857024242E+01 -0.28772579572E+02 -0.57426554772E+03  0.57499586399E+03  0.00000000000E+00 0.  1.
          3    1    3    3  501    0 -0.45083799052E+00 -0.65814582036E+01 -0.10366194136E+03  0.10387163681E+03  0.00000000000E+00 0.  1.
         -1    1    1    2    0  502  0.38365404148E+01  0.35354037776E+02 -0.32061943822E+03  0.32258557189E+03  0.00000000000E+00 0. -1.
<mgrwt>
<rscale>  1 0.30000000E+03</rscale>
<asrwt>0</asrwt>
<pdfrwt beam="1">  1       21 0.52839119E-02 0.30000000E+03</pdfrwt>
<pdfrwt beam="2">0</pdfrwt>
<totfact> 0.26212793E+04</totfact>
</mgrwt>
</event>
<event>
 6    1  0.1295671E-001  0.3000000E+03  0.7818608E-02  0.1093470E+00
         21   -1    0    0  501  502  0.00000000000E+00  0.00000000000E+00  0.16996866516E+01  0.16996866516E+01  0.00000000000E+00 0. -1.
         13   -1    0    0    0    0 -0.00000000000E+00 -0.00000000000E+00 -0.10000000000E+04  0.10000000000E+04  0.00000000000E+00 0.  1.
    9000005    2    1    2  501    0 -0.20010643355E+02  0.28349367115E+02 -0.76829336757E+03  0.76908991134E+03  0.45255510794E+01 0.  0.
         13    1    3    3    0    0 -0.61501702696E+01  0.73115257154E+01 -0.17290768185E+03  0.17317144523E+03  0.00000000000E+00 0.  1.
          3    1    3    3  501    0 -0.13860473085E+02  0.21037841400E+02 -0.59538568572E+03  0.59591846611E+03  0.00000000000E+00 0.  1.
         -1    1    1    2    0  502  0.20010643355E+02 -0.28349367115E+02 -0.23000694578E+03  0.23260977531E+03  0.00000000000E+00 0. -1.
<mgrwt>
<rscale>  1 0.30000000E+03</rscale>
<asrwt>0</asrwt>
<pdfrwt beam="1">  1       21 0.61806918E-02 0.30000000E+03</pdfrwt>
<pdfrwt beam="2">0</pdfrwt>
<totfact> 0.20019889E+04</totfact>
</mgrwt>
</event>
<event>
 6    1  0.1295671E-001  0.3000000E+03  0.7818608E-02  0.1093470E+00
         21   -1    0    0  501  502  0.00000000000E+00  0.00000000000E+00  0.14087082644E+01  0.14087082644E+01  0.00000000000E+00 0. -1.
         13   -1    0    0    0    0 -0.00000000000E+00 -0.00000000000E+00 -0.10000000000E+04  0.10000000000E+04  0.00000000000E+00 0.  1.
    9000005    2    1    2  501    0  0.20076638245E+02  0.23100935681E+02 -0.78759863456E+03  0.78820780298E+03  0.48173523105E+01 0.  0.
         13    1    3    3    0    0  0.15858555233E+02  0.18895535373E+02 -0.58127982152E+03  0.58180303019E+03  0.00000000000E+00 0.  1.
          1    1    3    3  501    0  0.42180830123E+01  0.42054003086E+01 -0.20631881304E+03  0.20640477279E+03  0.00000000000E+00 0.  1.
         -3    1    1    2    0  502 -0.20076638245E+02 -0.23100935681E+02 -0.21099265717E+03  0.21320090528E+03  0.00000000000E+00 0. -1.
<mgrwt>
<rscale>  1 0.30000000E+03</rscale>
<asrwt>0</asrwt>
<pdfrwt beam="1">  1       21 0.51225863E-02 0.30000000E+03</pdfrwt>
<pdfrwt beam="2">0</pdfrwt>
<totfact> 0.27638794E+04</totfact>
</mgrwt>
</event>
<event>
 6    1  0.1295671E-001  0.3000000E+03  0.7818608E-02  0.1093470E+00
         21   -1    0    0  501  502  0.00000000000E+00  0.00000000000E+00  0.41010019177E+01  0.41010019177E+01  0.00000000000E+00 0. -1.
         13   -1    0    0    0    0 -0.00000000000E+00 -0.00000000000E+00 -0.10000000000E+04  0.10000000000E+04  0.00000000000E+00 0.  1.
    9000005    2    1    2  501    0  0.10863711602E+02 -0.31399043738E+02 -0.92711844267E+03  0.92771589224E+03  0.20615044175E+01 0.  0.
         13    1    3    3    0    0  0.10740632097E+02 -0.29645701854E+02 -0.87756924970E+03  0.87813553444E+03  0.00000000000E+00 0.  1.
          3    1    3    3  501    0  0.12307950490E+00 -0.17533418843E+01 -0.49549192970E+02  0.49580357807E+02  0.00000000000E+00 0.  1.
         -3    1    1    2    0  502 -0.10863711602E+02  0.31399043738E+02 -0.68780555410E+02  0.76385109674E+02  0.00000000000E+00 0. -1.
<mgrwt>
<rscale>  1 0.30000000E+03</rscale>
<asrwt>0</asrwt>
<pdfrwt beam="1">  1       21 0.14912766E-01 0.30000000E+03</pdfrwt>
<pdfrwt beam="2">0</pdfrwt>
<totfact> 0.41627175E+03</totfact>
</mgrwt>
</event>
<event>
 6    1  0.1295671E-001  0.3000000E+03  0.7818608E-02  0.1093470E+00
         21   -1    0    0  501  502  0.00000000000E+00  0.00000000000E+00  0.18283205162E+01  0.18283205162E+01  0.00000000000E+00 0. -1.
         13   -1    0    0    0    0 -0.00000000000E+00 -0.00000000000E+00 -0.10000000000E+04  0.10000000000E+04  0.00000000000E+00 0.  1.
    9000005    2    1    2  501    0 -0.20464694377E+02  0.23181781886E+02 -0.84475632592E+03  0.84532761944E+03  0.30553696411E+01 0.  0.
         13    1    3    3    0    0 -0.10571760850E+02  0.13350076689E+02 -0.49726512221E+03  0.49755661833E+03  0.00000000000E+00 0.  1.
          3    1    3    3  501    0 -0.98929335276E+01  0.98317051966E+01 -0.34749120371E+03  0.34777100111E+03  0.00000000000E+00 0.  1.
         -1    1    1    2    0  502  0.20464694377E+02 -0.23181781886E+02 -0.15341535356E+03  0.15650070107E+03  0.00000000000E+00 0. -1.
<mgrwt>
<rscale>  1 0.30000000E+03</rscale>
<asrwt>0</asrwt>
<pdfrwt beam="1">  1       21 0.66484523E-02 0.30000000E+03</pdfrwt>
<pdfrwt beam="2">0</pdfrwt>
<totfact> 0.17645962E+04</totfact>
</mgrwt>
</event>
<event>
 6    1  0.1295671E-001  0.3000000E+03  0.7818608E-02  0.1093470E+00
         21   -1    0    0  501  502  0.00000000000E+00  0.00000000000E+00  0.27980271963E+01  0.27980271963E+01  0.00000000000E+00 0. -1.
         13   -1    0    0    0    0 -0.00000000000E+00 -0.00000000000E+00 -0.10000000000E+04  0.10000000000E+04  0.00000000000E+00 0.  1.
    9000005    2    1    2  501    0  0.25361554985E+02 -0.17648339877E+02 -0.90546166083E+03  0.90599432266E+03  0.31970424672E+01 0.  0.
         13    1    3    3    0    0  0.13400614735E+02 -0.11198417360E+02 -0.52050478537E+03  0.52079766956E+03  0.00000000000E+00 0.  1.
          1    1    3    3  501    0  0.11960940250E+02 -0.64499225170E+01 -0.38495687546E+03  0.38519665310E+03  0.00000000000E+00 0.  1.
         -1    1    1    2    0  502 -0.25361554985E+02  0.17648339877E+02 -0.91740311975E+02  0.96803704541E+02  0.00000000000E+00 0. -1.
<mgrwt>
<rscale>  1 0.30000000E+03</rscale>
<asrwt>0</asrwt>
<pdfrwt beam="1">  1       21 0.10174666E-01 0.30000000E+03</pdfrwt>
<pdfrwt beam="2">0</pdfrwt>
<totfact> 0.83409503E+03</totfact>
</mgrwt>
</event>
<event>
 6    1  0.1295671E-001  0.3000000E+03  0.7818608E-02  0.1093470E+00
         21   -1    0    0  501  502  0.00000000000E+00  0.00000000000E+00  0.10164271707E+01  0.10164271707E+01  0.00000000000E+00 0. -1.
         13   -1    0    0    0    0 -0.00000000000E+00 -0.00000000000E+00 -0.10000000000E+04  0.10000000000E+04  0.00000000000E+00 0.  1.
    9000005    2    1    2  501    0 -0.36990352735E+01  0.31394059156E+02 -0.55408537932E+03  0.55499661550E+03  0.33713248549E+01 0.  0.
         13    1    3    3    0    0 -0.41009482682E+00  0.15946466925E+02 -0.26367011294E+03  0.26415220318E+03  0.00000000000E+00 0.  1.
          1    1    3    3  501    0 -0.32889404466E+01  0.15447592231E+02 -0.29041526638E+03  0.29084441232E+03  0.00000000000E+00 0.  1.
         -3    1    1    2    0  502  0.36990352735E+01 -0.31394059156E+02 -0.44489819351E+03  0.44601981167E+03  0.00000000000E+00 0. -1.
<mgrwt>
<rscale>  1 0.30000000E+03</rscale>
<asrwt>0</asrwt>
<pdfrwt beam="1">  1       21 0.36961066E-02 0.30000000E+03</pdfrwt>
<pdfrwt beam="2">0</pdfrwt>
<totfact> 0.48020220E+04</totfact>
</mgrwt>
</event>
<event>
 6    1  0.1295671E-001  0.3000000E+03  0.7818608E-02  0.1093470E+00
         21   -1    0    0  501  502  0.00000000000E+00  0.00000000000E+00  0.32142973154E+01  0.32142973154E+01  0.00000000000E+00 0. -1.
         13   -1    0    0    0    0 -0.00000000000E+00 -0.00000000000E+00 -0.10000000000E+04  0.10000000000E+04  0.00000000000E+00 0.  1.
    9000005    2    1    2  501    0  0.34638614510E+02 -0.35436223671E+02 -0.25570407421E+03  0.26047777632E+03  0.29221266110E+01 0.  0.
         13    1    3    3    0    0  0.16826153695E+02 -0.17745128702E+02 -0.11876471538E+03  0.12125620257E+03  0.00000000000E+00 0.  1.
          1    1    3    3  501    0  0.17812460815E+02 -0.17691094968E+02 -0.13693935883E+03  0.13922157375E+03  0.00000000000E+00 0.  1.
         -1    1    1    2    0  502 -0.34638614510E+02  0.35436223671E+02 -0.74108162847E+03  0.74273652100E+03  0.00000000000E+00 0. -1.
<mgrwt>
<rscale>  1 0.30000000E+03</rscale>
<asrwt>0</asrwt>
<pdfrwt beam="1">  1       21 0.11688379E-01 0.30000000E+03</pdfrwt>
<pdfrwt beam="2">0</pdfrwt>
<totfact> 0.64997726E+03</totfact>
</mgrwt>
</event>
<event>
 6    1  0.1295671E-001  0.3000000E+03  0.7818608E-02  0.1093470E+00
         21   -1    0    0  501  502  0.00000000000E+00  0.00000000000E+00  0.33209014706E+01  0.33209014706E+01  0.00000000000E+00 0. -1.
         13   -1    0    0    0    0 -0.00000000000E+00 -0.00000000000E+00 -0.10000000000E+04  0.10000000000E+04  0.00000000000E+00 0.  1.
    9000005    2    1    2  501    0  0.22873422385E+02 -0.44999175383E+02 -0.25763553845E+03  0.26255541703E+03  0.33402252910E+01 0.  0.
         13    1    3    3    0    0  0.56842028901E+01 -0.82742185119E+01 -0.50180353446E+02  0.51174610173E+02  0.00000000000E+00 0.  1.
          3    1    3    3  501    0  0.17189219495E+02 -0.36724956871E+02 -0.20745518500E+03  0.21138080686E+03  0.00000000000E+00 0.  1.
         -1    1    1    2    0  502 -0.22873422385E+02  0.44999175383E+02 -0.73904356008E+03  0.74076548444E+03  0.00000000000E+00 0. -1.
<mgrwt>
<rscale>  1 0.30000000E+03</rscale>
<asrwt>0</asrwt>
<pdfrwt beam="1">  1       21 0.12076031E-01 0.30000000E+03</pdfrwt>
<pdfrwt beam="2">0</pdfrwt>
<totfact> 0.61264626E+03</totfact>
</mgrwt>
</event>
<event>
 6    1  0.1295671E-001  0.3000000E+03  0.7818608E-02  0.1093470E+00
         21   -1    0    0  501  502  0.00000000000E+00  0.00000000000E+00  0.11184774939E+01  0.11184774939E+01  0.00000000000E+00 0. -1.
         13   -1    0    0    0    0 -0.00000000000E+00 -0.00000000000E+00 -0.10000000000E+04  0.10000000000E+04  0.00000000000E+00 0.  1.
    9000005    2    1    2  501    0  0.27438143273E+02  0.18199128833E+02 -0.42429729549E+03  0.42559168061E+03  0.40029548150E+01 0.  0.
         13    1    3    3    0    0  0.15268208925E+02  0.11271604166E+02 -0.26603534603E+03  0.26671140321E+03  0.00000000000E+00 0.  1.
          3    1    3    3  501    0  0.12169934347E+02  0.69275246666E+01 -0.15826194946E+03  0.15888027740E+03  0.00000000000E+00 0.  1.
         -3    1    1    2    0  502 -0.27438143273E+02 -0.18199128833E+02 -0.57458422702E+03  0.57552679688E+03  0.00000000000E+00 0. -1.
<mgrwt>
<rscale>  1 0.30000000E+03</rscale>
<asrwt>0</asrwt>
<pdfrwt beam="1">  1       21 0.40671995E-02 0.30000000E+03</pdfrwt>
<pdfrwt beam="2">0</pdfrwt>
<totfact> 0.40883525E+04</totfact>
</mgrwt>
</event>
<event>
 6    1  0.1295671E-001  0.3000000E+03  0.7818608E-02  0.1093470E+00
         21   -1    0    0  501  502  0.00000000000E+00  0.00000000000E+00  0.47632263601E+01  0.47632263601E+01  0.00000000000E+00 0. -1.
         13   -1    0    0    0    0 -0.00000000000E+00 -0.00000000000E+00 -0.10000000000E+04  0.10000000000E+04  0.00000000000E+00 0.  1.
    9000005    2    1    2  501    0 -0.37612191354E+02  0.25726228020E+02 -0.87482065155E+03  0.87601324304E+03  0.33932065611E+01 0.  0.
         13    1    3    3    0    0 -0.35002678924E+02  0.23376438191E+02 -0.79103337730E+03  0.79215241551E+03  0.00000000000E+00 0.  1.
          1    1    3    3  501    0 -0.26095124301E+01  0.23497898282E+01 -0.83787274253E+02  0.83860827530E+02  0.00000000000E+00 0.  1.
         -1    1    1    2    0  502  0.37612191354E+02 -0.25726228020E+02 -0.12041612209E+03  0.12874998332E+03  0.00000000000E+00 0. -1.
<mgrwt>
<rscale>  1 0.30000000E+03</rscale>
<asrwt>0</asrwt>
<pdfrwt beam="1">  1       21 0.17320860E-01 0.30000000E+03</pdfrwt>
<pdfrwt beam="2">0</pdfrwt>
<totfact> 0.31491837E+03</totfact>
</mgrwt>
</event>
<event>
 6    1  0.1295671E-001  0.3000000E+03  0.7818608E-02  0.1093470E+00
         21   -1    0    0  501  502  0.00000000000E+00  0.00000000000E+00  0.10501753404E+01  0.10501753404E+01  0.00000000000E+00 0. -1.
         13   -1    0    0    0    0 -0.00000000000E+00 -0.00000000000E+00 -0.10000000000E+04  0.10000000000E+04  0.00000000000E+00 0.  1.
    9000005    2    1    2  501    0  0.25064365453E+02  0.20160123882E+02 -0.49193960111E+03  0.49302062916E+03  0.54878615719E+01 0.  0.
         13    1    3    3    0    0  0.11539290477E+02  0.12691901927E+02 -0.24871120387E+03  0.24930203074E+03  0.00000000000E+00 0.  1.
          3    1    3    3  501    0  0.13525074976E+02  0.74682219552E+01 -0.24322839724E+03  0.24371859842E+03  0.00000000000E+00 0.  1.
         -3    1    1    2    0  502 -0.25064365453E+02 -0.20160123882E+02 -0.50701022355E+03  0.50802954618E+03  0.00000000000E+00 0. -1.
<mgrwt>
<rscale>  1 0.30000000E+03</rscale>
<asrwt>0</asrwt>
<pdfrwt beam="1">  1       21 0.38188275E-02 0.30000000E+03</pdfrwt>
<pdfrwt beam="2">0</pdfrwt>
<totfact> 0.45457003E+04</totfact>
</mgrwt>
</event>
<event>
 6    1  0.1295671E-001  0.3000000E+03  0.7818608E-02  0.1093470E+00
         21   -1    0    0  501  502  0.00000000000E+00  0.00000000000E+00  0.34879142754E+01  0.34879142754E+01  0.00000000000E+00 0. -1.
         13   -1    0    0    0    0 -0.00000000000E+00 -0.00000000000E+00 -0.10000000000E+04  0.10000000000E+04  0.00000000000E+00 0.  1.
    9000005    2    1    2  501    0  0.35421673553E+02 -0.19724064810E+01 -0.10103813554E+03  0.10731149146E+03  0.69617542350E+01 0.  0.
         13    1    3    3    0    0  0.32776700545E+00 -0.22876267708E+00 -0.72172974177E-01  0.40616808157E+00  0.00000000000E+00 0.  1.
          1    1    3    3  501    0  0.35093906548E+02 -0.17436438040E+01 -0.10096596256E+03  0.10690532338E+03  0.00000000000E+00 0.  1.
         -1    1    1    2    0  502 -0.35421673553E+02  0.19724064810E+01 -0.89547395019E+03  0.89617642282E+03  0.00000000000E+00 0. -1.
<mgrwt>
<rscale>  1 0.30000000E+03</rscale>
<asrwt>0</asrwt>
<pdfrwt beam="1">  1       21 0.12683351E-01 0.30000000E+03</pdfrwt>
<pdfrwt beam="2">0</pdfrwt>
<totfact> 0.56030318E+03</totfact>
</mgrwt>
</event>
<event>
 6    1  0.1295671E-001  0.3000000E+03  0.7818608E-02  0.1093470E+00
         21   -1    0    0  501  502  0.00000000000E+00  0.00000000000E+00  0.15720428253E+01  0.15720428253E+01  0.00000000000E+00 0. -1.
         13   -1    0    0    0    0 -0.00000000000E+00 -0.00000000000E+00 -0.10000000000E+04  0.10000000000E+04  0.00000000000E+00 0.  1.
    9000005    2    1    2  501    0  0.22792941597E+02 -0.31764391568E+02 -0.42241014424E+03  0.42422897707E+03  0.33764286239E+01 0.  0.
         13    1    3    3    0    0  0.10369708786E+02 -0.12009781142E+02 -0.18021811209E+03  0.18091526643E+03  0.00000000000E+00 0.  1.
          3    1    3    3  501    0  0.12423232810E+02 -0.19754610426E+02 -0.24219203215E+03  0.24331371064E+03  0.00000000000E+00 0.  1.
         -1    1    1    2    0  502 -0.22792941597E+02  0.31764391568E+02 -0.57601781293E+03  0.57734306576E+03  0.00000000000E+00 0. -1.
<mgrwt>
<rscale>  1 0.30000000E+03</rscale>
<asrwt>0</asrwt>
<pdfrwt beam="1">  1       21 0.57165314E-02 0.30000000E+03</pdfrwt>
<pdfrwt beam="2">0</pdfrwt>
<totfact> 0.22903904E+04</totfact>
</mgrwt>
</event>
<event>
 6    1  0.1295671E-001  0.3000000E+03  0.7818608E-02  0.1093470E+00
         21   -1    0    0  501  502  0.00000000000E+00  0.00000000000E+00  0.39835517607E+01  0.39835517607E+01  0.00000000000E+00 0. -1.
         13   -1    0    0    0    0 -0.00000000000E+00 -0.00000000000E+00 -0.10000000000E+04  0.10000000000E+04  0.00000000000E+00 0.  1.
    9000005    2    1    2  501    0  0.16212442963E+02  0.34798394457E+02 -0.89637145833E+03  0.89719921032E+03  0.32954697110E+01 0.  0.
         13    1    3    3    0    0  0.88009823166E+01  0.16642833961E+02 -0.40774263892E+03  0.40817704591E+03  0.00000000000E+00 0.  1.
          3    1    3    3  501    0  0.74114606461E+01  0.18155560496E+02 -0.48862881941E+03  0.48902216441E+03  0.00000000000E+00 0.  1.
         -1    1    1    2    0  502 -0.16212442963E+02 -0.34798394457E+02 -0.99644989908E+02  0.10678434144E+03  0.00000000000E+00 0. -1.
<mgrwt>
<rscale>  1 0.30000000E+03</rscale>
<asrwt>0</asrwt>
<pdfrwt beam="1">  1       21 0.14485673E-01 0.30000000E+03</pdfrwt>
<pdfrwt beam="2">0</pdfrwt>
<totfact> 0.43921750E+03</totfact>
</mgrwt>
</event>
<event>
 6    1  0.1295671E-001  0.3000000E+03  0.7818608E-02  0.1093470E+00
         21   -1    0    0  501  502  0.00000000000E+00  0.00000000000E+00  0.11115081901E+01  0.11115081901E+01  0.00000000000E+00 0. -1.
         13   -1    0    0    0    0 -0.00000000000E+00 -0.00000000000E+00 -0.10000000000E+04  0.10000000000E+04  0.00000000000E+00 0.  1.
    9000005    2    1    2  501    0 -0.17792107732E+02 -0.26008469249E+02 -0.65987657659E+03  0.66063819318E+03  0.35674067664E+01 0.  0.
         13    1    3    3    0    0 -0.12704723383E+02 -0.17773927545E+02 -0.42279061187E+03  0.42335472595E+03  0.00000000000E+00 0.  1.
          3    1    3    3  501    0 -0.50873843495E+01 -0.82345417040E+01 -0.23708596472E+03  0.23728346724E+03  0.00000000000E+00 0.  1.
         -1    1    1    2    0  502  0.17792107732E+02  0.26008469249E+02 -0.33901191522E+03  0.34047331501E+03  0.00000000000E+00 0. -1.
<mgrwt>
<rscale>  1 0.30000000E+03</rscale>
<asrwt>0</asrwt>
<pdfrwt beam="1">  1       21 0.40418565E-02 0.30000000E+03</pdfrwt>
<pdfrwt beam="2">0</pdfrwt>
<totfact> 0.41316449E+04</totfact>
</mgrwt>
</event>
<event>
 6    1  0.1295671E-001  0.3000000E+03  0.7818608E-02  0.1093470E+00
         21   -1    0    0  501  502  0.00000000000E+00  0.00000000000E+00  0.50522232038E+01  0.50522232038E+01  0.00000000000E+00 0. -1.
         13   -1    0    0    0    0 -0.00000000000E+00 -0.00000000000E+00 -0.10000000000E+04  0.10000000000E+04  0.00000000000E+00 0.  1.
    9000005    2    1    2  501    0 -0.29902486270E+02  0.77605032251E+01 -0.95002351491E+03  0.95053091176E+03  0.31545577423E+01 0.  0.
         13    1    3    3    0    0 -0.14689391041E+02  0.21923426847E+01 -0.45917762062E+03  0.45941775309E+03  0.00000000000E+00 0.  1.
          3    1    3    3  501    0 -0.15213095229E+02  0.55681605404E+01 -0.49084589430E+03  0.49111315868E+03  0.00000000000E+00 0.  1.
         -1    1    1    2    0  502  0.29902486270E+02 -0.77605032251E+01 -0.44924261882E+02  0.54521311440E+02  0.00000000000E+00 0. -1.
<mgrwt>
<rscale>  1 0.30000000E+03</rscale>
<asrwt>0</asrwt>
<pdfrwt beam="1">  1       21 0.18371759E-01 0.30000000E+03</pdfrwt>
<pdfrwt beam="2">0</pdfrwt>
<totfact> 0.28187794E+03</totfact>
</mgrwt>
</event>
<event>
 6    1  0.1295671E-001  0.3000000E+03  0.7818608E-02  0.1093470E+00
         21   -1    0    0  501  502  0.00000000000E+00  0.00000000000E+00  0.41545672782E+01  0.41545672782E+01  0.00000000000E+00 0. -1.
         13   -1    0    0    0    0 -0.00000000000E+00 -0.00000000000E+00 -0.10000000000E+04  0.10000000000E+04  0.00000000000E+00 0.  1.
    9000005    2    1    2  501    0 -0.50260338301E+02  0.10696873546E+02 -0.80080011030E+03  0.80245379259E+03  0.32783961315E+01 0.  0.
         13    1    3    3    0    0 -0.32218306151E+02  0.80553696571E+01 -0.50051405291E+03  0.50161461840E+03  0.00000000000E+00 0.  1.
          1    1    3    3  501    0 -0.18042032150E+02  0.26415038893E+01 -0.30028605739E+03  0.30083917419E+03  0.00000000000E+00 0.  1.
         -1    1    1    2    0  502  0.50260338301E+02 -0.10696873546E+02 -0.19504532242E+03  0.20170077468E+03  0.00000000000E+00 0. -1.
<mgrwt>
<rscale>  1 0.30000000E+03</rscale>
<asrwt>0</asrwt>
<pdfrwt beam="1">  1       21 0.15107549E-01 0.30000000E+03</pdfrwt>
<pdfrwt beam="2">0</pdfrwt>
<totfact> 0.40639167E+03</totfact>
</mgrwt>
</event>
<event>
 6    1  0.1295671E-001  0.3000000E+03  0.7818608E-02  0.1093470E+00
         21   -1    0    0  501  502  0.00000000000E+00  0.00000000000E+00  0.13712691911E+01  0.13712691911E+01  0.00000000000E+00 0. -1.
         13   -1    0    0    0    0 -0.00000000000E+00 -0.00000000000E+00 -0.10000000000E+04  0.10000000000E+04  0.00000000000E+00 0.  1.
    9000005    2    1    2  501    0  0.23403852603E+02 -0.24294532953E+02 -0.70426589344E+03  0.70508180824E+03  0.34558641707E+01 0.  0.
         13    1    3    3    0    0  0.34083906974E+01 -0.54759719656E+01 -0.13695580909E+03  0.13710761117E+03  0.00000000000E+00 0.  1.
          1    1    3    3  501    0  0.19995461906E+02 -0.18818560988E+02 -0.56731008435E+03  0.56797419707E+03  0.00000000000E+00 0.  1.
         -1    1    1    2    0  502 -0.23403852603E+02  0.24294532953E+02 -0.29436283737E+03  0.29628946095E+03  0.00000000000E+00 0. -1.
<mgrwt>
<rscale>  1 0.30000000E+03</rscale>
<asrwt>0</asrwt>
<pdfrwt beam="1">  1       21 0.49864439E-02 0.30000000E+03</pdfrwt>
<pdfrwt beam="2">0</pdfrwt>
<totfact> 0.28938268E+04</totfact>
</mgrwt>
</event>
<event>
 6    1  0.1295671E-001  0.3000000E+03  0.7818608E-02  0.1093470E+00
         21   -1    0    0  501  502  0.00000000000E+00  0.00000000000E+00  0.27900215220E+01  0.27900215220E+01  0.00000000000E+00 0. -1.
         13   -1    0    0    0    0 -0.00000000000E+00 -0.00000000000E+00 -0.10000000000E+04  0.10000000000E+04  0.00000000000E+00 0.  1.
    9000005    2    1    2  501    0 -0.11204759196E+02  0.43243705545E+02 -0.23261067040E+03  0.23688685101E+03  0.34772828811E+01 0.  0.
         13    1    3    3    0    0 -0.10815860561E+02  0.42342181335E+02 -0.22423986603E+03  0.22845866295E+03  0.00000000000E+00 0.  1.
          1    1    3    3  501    0 -0.38889863532E+00  0.90152421034E+00 -0.83708043727E+01  0.84281880553E+01  0.00000000000E+00 0.  1.
         -3    1    1    2    0  502  0.11204759196E+02 -0.43243705545E+02 -0.76459930808E+03  0.76590317052E+03  0.00000000000E+00 0. -1.
<mgrwt>
<rscale>  1 0.30000000E+03</rscale>
<asrwt>0</asrwt>
<pdfrwt beam="1">  1       21 0.10145554E-01 0.30000000E+03</pdfrwt>
<pdfrwt beam="2">0</pdfrwt>
<totfact> 0.83838057E+03</totfact>
</mgrwt>
</event>
<event>
 6    1  0.1295671E-001  0.3000000E+03  0.7818608E-02  0.1093470E+00
         21   -1    0    0  501  502  0.00000000000E+00  0.00000000000E+00  0.24620921139E+02  0.24620921139E+02  0.00000000000E+00 0. -1.
         13   -1    0    0    0    0 -0.00000000000E+00 -0.00000000000E+00 -0.10000000000E+04  0.10000000000E+04  0.00000000000E+00 0.  1.
    9000005    2    1    2  501    0  0.57552660567E+02 -0.27258232639E+02 -0.95590510010E+03  0.95802846035E+03  0.29411655275E+01 0.  0.
         13    1    3    3    0    0  0.19667700992E+02 -0.79727038349E+01 -0.30830790788E+03  0.30903745490E+03  0.00000000000E+00 0.  1.
          1    1    3    3  501    0  0.37884959575E+02 -0.19285528804E+02 -0.64759719223E+03  0.64899100546E+03  0.00000000000E+00 0.  1.
         -1    1    1    2    0  502 -0.57552660567E+02  0.27258232639E+02 -0.19473978757E+02  0.66592460786E+02  0.00000000000E+00 0. -1.
<mgrwt>
<rscale>  1 0.30000000E+03</rscale>
<asrwt>0</asrwt>
<pdfrwt beam="1">  1       21 0.89530811E-01 0.30000000E+03</pdfrwt>
<pdfrwt beam="2">0</pdfrwt>
<totfact> 0.97473854E+01</totfact>
</mgrwt>
</event>
<event>
 6    1  0.1295671E-001  0.3000000E+03  0.7818608E-02  0.1093470E+00
         21   -1    0    0  501  502  0.00000000000E+00  0.00000000000E+00  0.15969117637E+01  0.15969117637E+01  0.00000000000E+00 0. -1.
         13   -1    0    0    0    0 -0.00000000000E+00 -0.00000000000E+00 -0.10000000000E+04  0.10000000000E+04  0.00000000000E+00 0.  1.
    9000005    2    1    2  501    0  0.13373290871E+02 -0.27851102062E+02 -0.81582353658E+03  0.81642180145E+03  0.46889506717E+01 0.  0.
         13    1    3    3    0    0  0.12243272967E+02 -0.27419437627E+02 -0.77980678528E+03  0.78038474207E+03  0.00000000000E+00 0.  1.
          3    1    3    3  501    0  0.11300179043E+01 -0.43166443556E+00 -0.36016751299E+02  0.36037059380E+02  0.00000000000E+00 0.  1.
         -3    1    1    2    0  502 -0.13373290871E+02  0.27851102062E+02 -0.18257955166E+03  0.18517511031E+03  0.00000000000E+00 0. -1.
<mgrwt>
<rscale>  1 0.30000000E+03</rscale>
<asrwt>0</asrwt>
<pdfrwt beam="1">  1       21 0.58069641E-02 0.30000000E+03</pdfrwt>
<pdfrwt beam="2">0</pdfrwt>
<totfact> 0.22293452E+04</totfact>
</mgrwt>
</event>
<event>
 6    1  0.1295671E-001  0.3000000E+03  0.7818608E-02  0.1093470E+00
         21   -1    0    0  501  502  0.00000000000E+00  0.00000000000E+00  0.13810933186E+01  0.13810933186E+01  0.00000000000E+00 0. -1.
         13   -1    0    0    0    0 -0.00000000000E+00 -0.00000000000E+00 -0.10000000000E+04  0.10000000000E+04  0.00000000000E+00 0.  1.
    9000005    2    1    2  501    0  0.91537805200E+00  0.33286803496E+02 -0.72029014870E+03  0.72106743557E+03  0.33910342800E+01 0.  0.
         13    1    3    3    0    0 -0.11815799357E+01  0.14280282234E+02 -0.32114738013E+03  0.32146689154E+03  0.00000000000E+00 0.  1.
          3    1    3    3  501    0  0.20969579877E+01  0.19006521262E+02 -0.39914276857E+03  0.39960054402E+03  0.00000000000E+00 0.  1.
         -1    1    1    2    0  502 -0.91537805200E+00 -0.33286803496E+02 -0.27832875798E+03  0.28031365775E+03  0.00000000000E+00 0. -1.
<mgrwt>
<rscale>  1 0.30000000E+03</rscale>
<asrwt>0</asrwt>
<pdfrwt beam="1">  1       21 0.50221681E-02 0.30000000E+03</pdfrwt>
<pdfrwt beam="2">0</pdfrwt>
<totfact> 0.28588221E+04</totfact>
</mgrwt>
</event>
<event>
 6    1  0.1295671E-001  0.3000000E+03  0.7818608E-02  0.1093470E+00
         21   -1    0    0  501  502  0.00000000000E+00  0.00000000000E+00  0.13016985012E+01  0.13016985012E+01  0.00000000000E+00 0. -1.
         13   -1    0    0    0    0 -0.00000000000E+00 -0.00000000000E+00 -0.10000000000E+04  0.10000000000E+04  0.00000000000E+00 0.  1.
    9000005    2    1    2  501    0 -0.90708937922E+01  0.29653373651E+02 -0.75443725862E+03  0.75508013009E+03  0.29701815093E+01 0.  0.
         13    1    3    3    0    0 -0.77557523011E-01  0.23002568306E+01 -0.45051569057E+02  0.45110321116E+02  0.00000000000E+00 0.  1.
          3    1    3    3  501    0 -0.89933362692E+01  0.27353116821E+02 -0.70938568956E+03  0.70996980897E+03  0.00000000000E+00 0.  1.
         -1    1    1    2    0  502  0.90708937922E+01 -0.29653373651E+02 -0.24426104288E+03  0.24622156841E+03  0.00000000000E+00 0. -1.
<mgrwt>
<rscale>  1 0.30000000E+03</rscale>
<asrwt>0</asrwt>
<pdfrwt beam="1">  1       21 0.47334591E-02 0.30000000E+03</pdfrwt>
<pdfrwt beam="2">0</pdfrwt>
<totfact> 0.31620599E+04</totfact>
</mgrwt>
</event>
<event>
 6    1  0.1295671E-001  0.3000000E+03  0.7818608E-02  0.1093470E+00
         21   -1    0    0  501  502  0.00000000000E+00  0.00000000000E+00  0.94975916200E+00  0.94975916200E+00  0.00000000000E+00 0. -1.
         13   -1    0    0    0    0 -0.00000000000E+00 -0.00000000000E+00 -0.10000000000E+04  0.10000000000E+04  0.00000000000E+00 0.  1.
    9000005    2    1    2  501    0  0.30353032869E+02 -0.90575818369E+00 -0.42356186045E+03  0.42466076658E+03  0.31607036520E+01 0.  0.
         13    1    3    3    0    0  0.23091116041E+02  0.60269904559E+00 -0.32615876531E+03  0.32697569187E+03  0.00000000000E+00 0.  1.
          3    1    3    3  501    0  0.72619168281E+01 -0.15084572293E+01 -0.97403095134E+02  0.97685074709E+02  0.00000000000E+00 0.  1.
         -1    1    1    2    0  502 -0.30353032869E+02  0.90575818369E+00 -0.57548838039E+03  0.57628899258E+03  0.00000000000E+00 0. -1.
<mgrwt>
<rscale>  1 0.30000000E+03</rscale>
<asrwt>0</asrwt>
<pdfrwt beam="1">  1       21 0.34536770E-02 0.30000000E+03</pdfrwt>
<pdfrwt beam="2">0</pdfrwt>
<totfact> 0.53803296E+04</totfact>
</mgrwt>
</event>
<event>
 6    1  0.1295671E-001  0.3000000E+03  0.7818608E-02  0.1093470E+00
         21   -1    0    0  501  502  0.00000000000E+00  0.00000000000E+00  0.22030034173E+01  0.22030034173E+01  0.00000000000E+00 0. -1.
         13   -1    0    0    0    0 -0.00000000000E+00 -0.00000000000E+00 -0.10000000000E+04  0.10000000000E+04  0.00000000000E+00 0.  1.
    9000005    2    1    2  501    0  0.53963219799E+01 -0.44986449095E+02 -0.37153937547E+03  0.37430849883E+03  0.35275878826E+01 0.  0.
         13    1    3    3    0    0  0.50043515821E+01 -0.41385019229E+02 -0.34882427024E+03  0.35130632624E+03  0.00000000000E+00 0.  1.
          3    1    3    3  501    0  0.39197039782E+00 -0.36014298662E+01 -0.22715105238E+02  0.23002172590E+02  0.00000000000E+00 0.  1.
         -1    1    1    2    0  502 -0.53963219799E+01  0.44986449095E+02 -0.62625762111E+03  0.62789450459E+03  0.00000000000E+00 0. -1.
<mgrwt>
<rscale>  1 0.30000000E+03</rscale>
<asrwt>0</asrwt>
<pdfrwt beam="1">  1       21 0.80109384E-02 0.30000000E+03</pdfrwt>
<pdfrwt beam="2">0</pdfrwt>
<totfact> 0.12743247E+04</totfact>
</mgrwt>
</event>
<event>
 6    1  0.1295671E-001  0.3000000E+03  0.7818608E-02  0.1093470E+00
         21   -1    0    0  501  502  0.00000000000E+00  0.00000000000E+00  0.13707212931E+01  0.13707212931E+01  0.00000000000E+00 0. -1.
         13   -1    0    0    0    0 -0.00000000000E+00 -0.00000000000E+00 -0.10000000000E+04  0.10000000000E+04  0.00000000000E+00 0.  1.
    9000005    2    1    2  501    0 -0.21134754241E+02  0.22665477306E+02 -0.77173877967E+03  0.77237355919E+03  0.44462557352E+01 0.  0.
         13    1    3    3    0    0 -0.16373635564E+02  0.19934712870E+02 -0.64700268009E+03  0.64751676176E+03  0.00000000000E+00 0.  1.
          3    1    3    3  501    0 -0.47611186773E+01  0.27307644365E+01 -0.12473609958E+03  0.12485679743E+03  0.00000000000E+00 0.  1.
         -3    1    1    2    0  502  0.21134754241E+02 -0.22665477306E+02 -0.22689049904E+03  0.22899716210E+03  0.00000000000E+00 0. -1.
<mgrwt>
<rscale>  1 0.30000000E+03</rscale>
<asrwt>0</asrwt>
<pdfrwt beam="1">  1       21 0.49844516E-02 0.30000000E+03</pdfrwt>
<pdfrwt beam="2">0</pdfrwt>
<totfact> 0.28957986E+04</totfact>
</mgrwt>
</event>
<event>
 6    1  0.1295671E-001  0.3000000E+03  0.7818608E-02  0.1093470E+00
         21   -1    0    0  501  502  0.00000000000E+00  0.00000000000E+00  0.26640958698E+01  0.26640958698E+01  0.00000000000E+00 0. -1.
         13   -1    0    0    0    0 -0.00000000000E+00 -0.00000000000E+00 -0.10000000000E+04  0.10000000000E+04  0.00000000000E+00 0.  1.
    9000005    2    1    2  501    0  0.19134157785E+02  0.44859259198E+02 -0.66125130143E+03  0.66305942968E+03  0.40068075326E+01 0.  0.
         13    1    3    3    0    0  0.18576133163E+02  0.41894028474E+02 -0.60968072737E+03  0.61140066378E+03  0.00000000000E+00 0.  1.
          1    1    3    3  501    0  0.55802462219E+00  0.29652307246E+01 -0.51570574066E+02  0.51658765899E+02  0.00000000000E+00 0.  1.
         -1    1    1    2    0  502 -0.19134157785E+02 -0.44859259198E+02 -0.33608460270E+03  0.33960466619E+03  0.00000000000E+00 0. -1.
<mgrwt>
<rscale>  1 0.30000000E+03</rscale>
<asrwt>0</asrwt>
<pdfrwt beam="1">  1       21 0.96876418E-02 0.30000000E+03</pdfrwt>
<pdfrwt beam="2">0</pdfrwt>
<totfact> 0.91046586E+03</totfact>
</mgrwt>
</event>
<event>
 6    1  0.1295671E-001  0.3000000E+03  0.7818608E-02  0.1093470E+00
         21   -1    0    0  501  502  0.00000000000E+00  0.00000000000E+00  0.37281917843E+01  0.37281917843E+01  0.00000000000E+00 0. -1.
         13   -1    0    0    0    0 -0.00000000000E+00 -0.00000000000E+00 -0.10000000000E+04  0.10000000000E+04  0.00000000000E+00 0.  1.
    9000005    2    1    2  501    0 -0.34216567208E+00 -0.37313097371E+02 -0.89531247579E+03  0.89609375902E+03  0.26853929739E+01 0.  0.
         13    1    3    3    0    0 -0.69377621003E+00 -0.70596466536E+01 -0.19121659132E+03  0.19134812445E+03  0.00000000000E+00 0.  1.
          3    1    3    3  501    0  0.35161053795E+00 -0.30253450718E+02 -0.70409588447E+03  0.70474563457E+03  0.00000000000E+00 0.  1.
         -3    1    1    2    0  502  0.34216567208E+00  0.37313097371E+02 -0.10095933243E+03  0.10763443277E+03  0.00000000000E+00 0. -1.
<mgrwt>
<rscale>  1 0.30000000E+03</rscale>
<asrwt>0</asrwt>
<pdfrwt beam="1">  1       21 0.13557090E-01 0.30000000E+03</pdfrwt>
<pdfrwt beam="2">0</pdfrwt>
<totfact> 0.49608057E+03</totfact>
</mgrwt>
</event>
<event>
 6    1  0.1295671E-001  0.3000000E+03  0.7818608E-02  0.1093470E+00
         21   -1    0    0  501  502  0.00000000000E+00  0.00000000000E+00  0.49581166519E+01  0.49581166519E+01  0.00000000000E+00 0. -1.
         13   -1    0    0    0    0 -0.00000000000E+00 -0.00000000000E+00 -0.10000000000E+04  0.10000000000E+04  0.00000000000E+00 0.  1.
    9000005    2    1    2  501    0  0.61629073292E+02  0.14997167543E+02 -0.71543647605E+03  0.71824878388E+03  0.29843877863E+01 0.  0.
         13    1    3    3    0    0  0.56998285532E+01  0.84785905156E+00 -0.57690595929E+02  0.57977683372E+02  0.00000000000E+00 0.  1.
          3    1    3    3  501    0  0.55929244739E+02  0.14149308492E+02 -0.65774588012E+03  0.66027110051E+03  0.00000000000E+00 0.  1.
         -3    1    1    2    0  502 -0.61629073292E+02 -0.14997167543E+02 -0.27960540730E+03  0.28670933277E+03  0.00000000000E+00 0. -1.
<mgrwt>
<rscale>  1 0.30000000E+03</rscale>
<asrwt>0</asrwt>
<pdfrwt beam="1">  1       21 0.18029553E-01 0.30000000E+03</pdfrwt>
<pdfrwt beam="2">0</pdfrwt>
<totfact> 0.29205139E+03</totfact>
</mgrwt>
</event>
<event>
 6    1  0.1295671E-001  0.3000000E+03  0.7818608E-02  0.1093470E+00
         21   -1    0    0  501  502  0.00000000000E+00  0.00000000000E+00  0.22222626995E+01  0.22222626995E+01  0.00000000000E+00 0. -1.
         13   -1    0    0    0    0 -0.00000000000E+00 -0.00000000000E+00 -0.10000000000E+04  0.10000000000E+04  0.00000000000E+00 0.  1.
    9000005    2    1    2  501    0  0.42829076585E+02  0.12982569612E+02 -0.65451547620E+03  0.65605488005E+03  0.38236287351E+01 0.  0.
         13    1    3    3    0    0  0.25987301329E+01  0.17610311620E+01 -0.42143853601E+02  0.42260608436E+02  0.00000000000E+00 0.  1.
          1    1    3    3  501    0  0.40230346452E+02  0.11221538450E+02 -0.61237162260E+03  0.61379427161E+03  0.00000000000E+00 0.  1.
         -3    1    1    2    0  502 -0.42829076585E+02 -0.12982569612E+02 -0.34326226110E+03  0.34616738265E+03  0.00000000000E+00 0. -1.
<mgrwt>
<rscale>  1 0.30000000E+03</rscale>
<asrwt>0</asrwt>
<pdfrwt beam="1">  1       21 0.80809723E-02 0.30000000E+03</pdfrwt>
<pdfrwt beam="2">0</pdfrwt>
<totfact> 0.12549838E+04</totfact>
</mgrwt>
</event>
<event>
 6    1  0.1295671E-001  0.3000000E+03  0.7818608E-02  0.1093470E+00
         21   -1    0    0  501  502  0.00000000000E+00  0.00000000000E+00  0.11173459925E+02  0.11173459925E+02  0.00000000000E+00 0. -1.
         13   -1    0    0    0    0 -0.00000000000E+00 -0.00000000000E+00 -0.10000000000E+04  0.10000000000E+04  0.00000000000E+00 0.  1.
    9000005    2    1    2  501    0  0.17143901215E+02  0.39142798278E+02 -0.95683476647E+03  0.95779232483E+03  0.27009575913E+01 0.  0.
         13    1    3    3    0    0  0.12643239019E+02  0.29643188150E+02 -0.69551263250E+03  0.69625885421E+03  0.00000000000E+00 0.  1.
          3    1    3    3  501    0  0.45006621951E+01  0.94996101281E+01 -0.26132213397E+03  0.26153347062E+03  0.00000000000E+00 0.  1.
         -3    1    1    2    0  502 -0.17143901215E+02 -0.39142798278E+02 -0.31991773610E+02  0.53381135100E+02  0.00000000000E+00 0. -1.
<mgrwt>
<rscale>  1 0.30000000E+03</rscale>
<asrwt>0</asrwt>
<pdfrwt beam="1">  1       21 0.40630849E-01 0.30000000E+03</pdfrwt>
<pdfrwt beam="2">0</pdfrwt>
<totfact> 0.58457440E+02</totfact>
</mgrwt>
</event>
<event>
 6    1  0.1295671E-001  0.3000000E+03  0.7818608E-02  0.1093470E+00
         21   -1    0    0  501  502  0.00000000000E+00  0.00000000000E+00  0.10048669401E+02  0.10048669401E+02  0.00000000000E+00 0. -1.
         13   -1    0    0    0    0 -0.00000000000E+00 -0.00000000000E+00 -0.10000000000E+04  0.10000000000E+04  0.00000000000E+00 0.  1.
    9000005    2    1    2  501    0  0.38950621375E+02  0.12422821632E+02 -0.95607521051E+03  0.95695376461E+03  0.30367818000E+01 0.  0.
         13    1    3    3    0    0  0.31947748456E+01  0.70790480599E+00 -0.60368029257E+02  0.60456651180E+02  0.00000000000E+00 0.  1.
          1    1    3    3  501    0  0.35755846529E+02  0.11714916826E+02 -0.89570718125E+03  0.89649711343E+03  0.00000000000E+00 0.  1.
         -3    1    1    2    0  502 -0.38950621375E+02 -0.12422821632E+02 -0.33876120090E+02  0.53094904795E+02  0.00000000000E+00 0. -1.
<mgrwt>
<rscale>  1 0.30000000E+03</rscale>
<asrwt>0</asrwt>
<pdfrwt beam="1">  1       21 0.36540693E-01 0.30000000E+03</pdfrwt>
<pdfrwt beam="2">0</pdfrwt>
<totfact> 0.72849728E+02</totfact>
</mgrwt>
</event>
<event>
 6    1  0.1295671E-001  0.3000000E+03  0.7818608E-02  0.1093470E+00
         21   -1    0    0  501  502  0.00000000000E+00  0.00000000000E+00  0.25299683727E+01  0.25299683727E+01  0.00000000000E+00 0. -1.
         13   -1    0    0    0    0 -0.00000000000E+00 -0.00000000000E+00 -0.10000000000E+04  0.10000000000E+04  0.00000000000E+00 0.  1.
    9000005    2    1    2  501    0  0.22979322007E+02  0.34056706307E+02 -0.78750706025E+03  0.78858521421E+03  0.33707034584E+01 0.  0.
         13    1    3    3    0    0  0.77045706024E+01  0.11707942282E+02 -0.23904682631E+03  0.23945734796E+03  0.00000000000E+00 0.  1.
          1    1    3    3  501    0  0.15274751405E+02  0.22348764025E+02 -0.54846023393E+03  0.54912786625E+03  0.00000000000E+00 0.  1.
         -3    1    1    2    0  502 -0.22979322007E+02 -0.34056706307E+02 -0.20996297138E+03  0.21394475417E+03  0.00000000000E+00 0. -1.
<mgrwt>
<rscale>  1 0.30000000E+03</rscale>
<asrwt>0</asrwt>
<pdfrwt beam="1">  1       21 0.91999044E-02 0.30000000E+03</pdfrwt>
<pdfrwt beam="2">0</pdfrwt>
<totfact> 0.99815257E+03</totfact>
</mgrwt>
</event>
<event>
 6    1  0.1295671E-001  0.3000000E+03  0.7818608E-02  0.1093470E+00
         21   -1    0    0  501  502  0.00000000000E+00  0.00000000000E+00  0.15396081236E+01  0.15396081236E+01  0.00000000000E+00 0. -1.
         13   -1    0    0    0    0 -0.00000000000E+00 -0.00000000000E+00 -0.10000000000E+04  0.10000000000E+04  0.00000000000E+00 0.  1.
    9000005    2    1    2  501    0  0.24510941008E+02  0.28990585973E+02 -0.62258176873E+03  0.62374868758E+03  0.36230101768E+01 0.  0.
         13    1    3    3    0    0  0.57320419265E+01  0.92975064162E+01 -0.17528763062E+03  0.17562759857E+03  0.00000000000E+00 0.  1.
          3    1    3    3  501    0  0.18778899082E+02  0.19693079557E+02 -0.44729413811E+03  0.44812108902E+03  0.00000000000E+00 0.  1.
         -1    1    1    2    0  502 -0.24510941008E+02 -0.28990585973E+02 -0.37587862315E+03  0.37779092054E+03  0.00000000000E+00 0. -1.
<mgrwt>
<rscale>  1 0.30000000E+03</rscale>
<asrwt>0</asrwt>
<pdfrwt beam="1">  1       21 0.55985868E-02 0.30000000E+03</pdfrwt>
<pdfrwt beam="2">0</pdfrwt>
<totfact> 0.23739346E+04</totfact>
</mgrwt>
</event>
<event>
 6    1  0.1295671E-001  0.3000000E+03  0.7818608E-02  0.1093470E+00
         21   -1    0    0  501  502  0.00000000000E+00  0.00000000000E+00  0.18361485466E+01  0.18361485466E+01  0.00000000000E+00 0. -1.
         13   -1    0    0    0    0 -0.00000000000E+00 -0.00000000000E+00 -0.10000000000E+04  0.10000000000E+04  0.00000000000E+00 0.  1.
    9000005    2    1    2  501    0  0.69003582031E+00  0.40288894275E+02 -0.66767228888E+03  0.66889719906E+03  0.36751087291E+01 0.  0.
         13    1    3    3    0    0 -0.13340425502E+01  0.15103570901E+02 -0.23743214206E+03  0.23791578259E+03  0.00000000000E+00 0.  1.
          3    1    3    3  501    0  0.20240783705E+01  0.25185323374E+02 -0.43024014683E+03  0.43098141648E+03  0.00000000000E+00 0.  1.
         -3    1    1    2    0  502 -0.69003582031E+00 -0.40288894275E+02 -0.33049156257E+03  0.33293894948E+03  0.00000000000E+00 0. -1.
<mgrwt>
<rscale>  1 0.30000000E+03</rscale>
<asrwt>0</asrwt>
<pdfrwt beam="1">  1       21 0.66769179E-02 0.30000000E+03</pdfrwt>
<pdfrwt beam="2">0</pdfrwt>
<totfact> 0.17515714E+04</totfact>
</mgrwt>
</event>
<event>
 6    1  0.1295671E-001  0.3000000E+03  0.7818608E-02  0.1093470E+00
         21   -1    0    0  501  502  0.00000000000E+00  0.00000000000E+00  0.30567513394E+01  0.30567513394E+01  0.00000000000E+00 0. -1.
         13   -1    0    0    0    0 -0.00000000000E+00 -0.00000000000E+00 -0.10000000000E+04  0.10000000000E+04  0.00000000000E+00 0.  1.
    9000005    2    1    2  501    0  0.11942805153E+02  0.42874893101E+02 -0.79562807305E+03  0.79688040210E+03  0.36684570559E+01 0.  0.
         13    1    3    3    0    0  0.11586629754E+02  0.37247333211E+02 -0.70097155400E+03  0.70205607563E+03  0.00000000000E+00 0.  1.
          1    1    3    3  501    0  0.35617539914E+00  0.56275598900E+01 -0.94656519052E+02  0.94824326469E+02  0.00000000000E+00 0.  1.
         -1    1    1    2    0  502 -0.11942805153E+02 -0.42874893101E+02 -0.20131517561E+03  0.20617634924E+03  0.00000000000E+00 0. -1.
<mgrwt>
<rscale>  1 0.30000000E+03</rscale>
<asrwt>0</asrwt>
<pdfrwt beam="1">  1       21 0.11115483E-01 0.30000000E+03</pdfrwt>
<pdfrwt beam="2">0</pdfrwt>
<totfact> 0.71169716E+03</totfact>
</mgrwt>
</event>
<event>
 6    1  0.1295671E-001  0.3000000E+03  0.7818608E-02  0.1093470E+00
         21   -1    0    0  501  502  0.00000000000E+00  0.00000000000E+00  0.17148807664E+01  0.17148807664E+01  0.00000000000E+00 0. -1.
         13   -1    0    0    0    0 -0.00000000000E+00 -0.00000000000E+00 -0.10000000000E+04  0.10000000000E+04  0.00000000000E+00 0.  1.
    9000005    2    1    2  501    0 -0.20070378040E+02  0.34731056160E+02 -0.62014679397E+03  0.62145489159E+03  0.38819931685E+01 0.  0.
         13    1    3    3    0    0 -0.17730833663E+01  0.13319673030E+01 -0.33629094718E+02  0.33702136031E+02  0.00000000000E+00 0.  1.
          1    1    3    3  501    0 -0.18297294673E+02  0.33399088857E+02 -0.58651769926E+03  0.58775275556E+03  0.00000000000E+00 0.  1.
         -3    1    1    2    0  502  0.20070378040E+02 -0.34731056160E+02 -0.37813832526E+03  0.38025998918E+03  0.00000000000E+00 0. -1.
<mgrwt>
<rscale>  1 0.30000000E+03</rscale>
<asrwt>0</asrwt>
<pdfrwt beam="1">  1       21 0.62359432E-02 0.30000000E+03</pdfrwt>
<pdfrwt beam="2">0</pdfrwt>
<totfact> 0.19714508E+04</totfact>
</mgrwt>
</event>
<event>
 6    1  0.1295671E-001  0.3000000E+03  0.7818608E-02  0.1093470E+00
         21   -1    0    0  501  502  0.00000000000E+00  0.00000000000E+00  0.20320794790E+01  0.20320794790E+01  0.00000000000E+00 0. -1.
         13   -1    0    0    0    0 -0.00000000000E+00 -0.00000000000E+00 -0.10000000000E+04  0.10000000000E+04  0.00000000000E+00 0.  1.
    9000005    2    1    2  501    0 -0.41325740414E+02 -0.17785434854E+02 -0.51278071792E+03  0.51476340608E+03  0.36278160216E+01 0.  0.
         13    1    3    3    0    0 -0.14382483677E+02 -0.44643814242E+01 -0.16391083056E+03  0.16460117531E+03  0.00000000000E+00 0.  1.
          1    1    3    3  501    0 -0.26943256737E+02 -0.13321053429E+02 -0.34886988736E+03  0.35016223077E+03  0.00000000000E+00 0.  1.
         -3    1    1    2    0  502  0.41325740414E+02  0.17785434854E+02 -0.48518720260E+03  0.48726867340E+03  0.00000000000E+00 0. -1.
<mgrwt>
<rscale>  1 0.30000000E+03</rscale>
<asrwt>0</asrwt>
<pdfrwt beam="1">  1       21 0.73893955E-02 0.30000000E+03</pdfrwt>
<pdfrwt beam="2">0</pdfrwt>
<totfact> 0.14681264E+04</totfact>
</mgrwt>
</event>
<event>
 6    1  0.1295671E-001  0.3000000E+03  0.7818608E-02  0.1093470E+00
         21   -1    0    0  501  502  0.00000000000E+00  0.00000000000E+00  0.10617814468E+01  0.10617814468E+01  0.00000000000E+00 0. -1.
         13   -1    0    0    0    0 -0.00000000000E+00 -0.00000000000E+00 -0.10000000000E+04  0.10000000000E+04  0.00000000000E+00 0.  1.
    9000005    2    1    2  501    0 -0.31911667122E+02  0.55752015906E+00 -0.40675888268E+03  0.40802297061E+03  0.33601453119E+01 0.  0.
         13    1    3    3    0    0 -0.16661114890E+02  0.13927724942E+01 -0.19641367818E+03  0.19712398520E+03  0.00000000000E+00 0.  1.
          3    1    3    3  501    0 -0.15250552232E+02 -0.83525233515E+00 -0.21034520450E+03  0.21089898541E+03  0.00000000000E+00 0.  1.
         -1    1    1    2    0  502  0.31911667122E+02 -0.55752015906E+00 -0.59217933587E+03  0.59303881084E+03  0.00000000000E+00 0. -1.
<mgrwt>
<rscale>  1 0.30000000E+03</rscale>
<asrwt>0</asrwt>
<pdfrwt beam="1">  1       21 0.38610316E-02 0.30000000E+03</pdfrwt>
<pdfrwt beam="2">0</pdfrwt>
<totfact> 0.44624927E+04</totfact>
</mgrwt>
</event>
<event>
 6    1  0.1295671E-001  0.3000000E+03  0.7818608E-02  0.1093470E+00
         21   -1    0    0  501  502  0.00000000000E+00  0.00000000000E+00  0.10021183017E+01  0.10021183017E+01  0.00000000000E+00 0. -1.
         13   -1    0    0    0    0 -0.00000000000E+00 -0.00000000000E+00 -0.10000000000E+04  0.10000000000E+04  0.00000000000E+00 0.  1.
    9000005    2    1    2  501    0  0.30188469566E+02 -0.43630640304E+01 -0.62697424438E+03  0.62773014407E+03  0.42486041462E+01 0.  0.
         13    1    3    3    0    0  0.22169559147E+02 -0.46669399221E+01 -0.43785667976E+03  0.43844240408E+03  0.00000000000E+00 0.  1.
          1    1    3    3  501    0  0.80189104194E+01  0.30387589165E+00 -0.18911756462E+03  0.18928773999E+03  0.00000000000E+00 0.  1.
         -3    1    1    2    0  502 -0.30188469566E+02  0.43630640304E+01 -0.37202363732E+03  0.37327197423E+03  0.00000000000E+00 0. -1.
<mgrwt>
<rscale>  1 0.30000000E+03</rscale>
<asrwt>0</asrwt>
<pdfrwt beam="1">  1       21 0.36440742E-02 0.30000000E+03</pdfrwt>
<pdfrwt beam="2">0</pdfrwt>
<totfact> 0.49176316E+04</totfact>
</mgrwt>
</event>
<event>
 6    1  0.1295671E-001  0.3000000E+03  0.7818608E-02  0.1093470E+00
         21   -1    0    0  501  502  0.00000000000E+00  0.00000000000E+00  0.56075816728E+01  0.56075816728E+01  0.00000000000E+00 0. -1.
         13   -1    0    0    0    0 -0.00000000000E+00 -0.00000000000E+00 -0.10000000000E+04  0.10000000000E+04  0.00000000000E+00 0.  1.
    9000005    2    1    2  501    0 -0.20510103057E+02  0.52021842550E+02 -0.83140871323E+03  0.83329790535E+03  0.42443119652E+01 0.  0.
         13    1    3    3    0    0 -0.74696976393E+00  0.62511714537E+00 -0.10856622451E+02  0.10900228727E+02  0.00000000000E+00 0.  1.
          1    1    3    3  501    0 -0.19763133293E+02  0.51396725405E+02 -0.82055209078E+03  0.82239767662E+03  0.00000000000E+00 0.  1.
         -3    1    1    2    0  502  0.20510103057E+02 -0.52021842550E+02 -0.16298370509E+03  0.17230967633E+03  0.00000000000E+00 0. -1.
<mgrwt>
<rscale>  1 0.30000000E+03</rscale>
<asrwt>0</asrwt>
<pdfrwt beam="1">  1       21 0.20391249E-01 0.30000000E+03</pdfrwt>
<pdfrwt beam="2">0</pdfrwt>
<totfact> 0.23120327E+03</totfact>
</mgrwt>
</event>
<event>
 6    1  0.1295671E-001  0.3000000E+03  0.7818608E-02  0.1093470E+00
         21   -1    0    0  501  502  0.00000000000E+00  0.00000000000E+00  0.14979126688E+01  0.14979126688E+01  0.00000000000E+00 0. -1.
         13   -1    0    0    0    0 -0.00000000000E+00 -0.00000000000E+00 -0.10000000000E+04  0.10000000000E+04  0.00000000000E+00 0.  1.
    9000005    2    1    2  501    0  0.32212700927E+02 -0.47663999541E+01 -0.23082259110E+03  0.23312808921E+03  0.30431474948E+01 0.  0.
         13    1    3    3    0    0  0.14445921614E+02 -0.33222286052E+01 -0.97990092003E+02  0.99104893849E+02  0.00000000000E+00 0.  1.
          3    1    3    3  501    0  0.17766779313E+02 -0.14441713490E+01 -0.13283249910E+03  0.13402319536E+03  0.00000000000E+00 0.  1.
         -3    1    1    2    0  502 -0.32212700927E+02  0.47663999541E+01 -0.76767949623E+03  0.76836982346E+03  0.00000000000E+00 0. -1.
<mgrwt>
<rscale>  1 0.30000000E+03</rscale>
<asrwt>0</asrwt>
<pdfrwt beam="1">  1       21 0.54469666E-02 0.30000000E+03</pdfrwt>
<pdfrwt beam="2">0</pdfrwt>
<totfact> 0.24884010E+04</totfact>
</mgrwt>
</event>
<event>
 6    1  0.1295671E-001  0.3000000E+03  0.7818608E-02  0.1093470E+00
         21   -1    0    0  501  502  0.00000000000E+00  0.00000000000E+00  0.35726593375E+01  0.35726593375E+01  0.00000000000E+00 0. -1.
         13   -1    0    0    0    0 -0.00000000000E+00 -0.00000000000E+00 -0.10000000000E+04  0.10000000000E+04  0.00000000000E+00 0.  1.
    9000005    2    1    2  501    0  0.44083903019E+02 -0.22316787417E+02 -0.78025169459E+03  0.78182203485E+03  0.33996704773E+01 0.  0.
         13    1    3    3    0    0  0.64320240736E+01 -0.22948686991E+01 -0.12094026974E+03  0.12113292782E+03  0.00000000000E+00 0.  1.
          3    1    3    3  501    0  0.37651878946E+02 -0.20021918718E+02 -0.65931142485E+03  0.66068910703E+03  0.00000000000E+00 0.  1.
         -1    1    1    2    0  502 -0.44083903019E+02  0.22316787417E+02 -0.21617564607E+03  0.22175062448E+03  0.00000000000E+00 0. -1.
<mgrwt>
<rscale>  1 0.30000000E+03</rscale>
<asrwt>0</asrwt>
<pdfrwt beam="1">  1       21 0.12991516E-01 0.30000000E+03</pdfrwt>
<pdfrwt beam="2">0</pdfrwt>
<totfact> 0.53629139E+03</totfact>
</mgrwt>
</event>
<event>
 6    1  0.1295671E-001  0.3000000E+03  0.7818608E-02  0.1093470E+00
         21   -1    0    0  501  502  0.00000000000E+00  0.00000000000E+00  0.33025707668E+01  0.33025707668E+01  0.00000000000E+00 0. -1.
         13   -1    0    0    0    0 -0.00000000000E+00 -0.00000000000E+00 -0.10000000000E+04  0.10000000000E+04  0.00000000000E+00 0.  1.
    9000005    2    1    2  501    0  0.26216901324E+02 -0.24382048863E+02 -0.89069926781E+03  0.89142129241E+03  0.22191580169E+01 0.  0.
         13    1    3    3    0    0  0.40887661840E+01 -0.49450723304E+01 -0.16302403486E+03  0.16315026108E+03  0.00000000000E+00 0.  1.
          1    1    3    3  501    0  0.22128135140E+02 -0.19436976532E+02 -0.72767523295E+03  0.72827103133E+03  0.00000000000E+00 0.  1.
         -3    1    1    2    0  502 -0.26216901324E+02  0.24382048863E+02 -0.10599816143E+03  0.11188127836E+03  0.00000000000E+00 0. -1.
<mgrwt>
<rscale>  1 0.30000000E+03</rscale>
<asrwt>0</asrwt>
<pdfrwt beam="1">  1       21 0.12009374E-01 0.30000000E+03</pdfrwt>
<pdfrwt beam="2">0</pdfrwt>
<totfact> 0.61883435E+03</totfact>
</mgrwt>
</event>
<event>
 6    1  0.1295671E-001  0.3000000E+03  0.7818608E-02  0.1093470E+00
         21   -1    0    0  501  502  0.00000000000E+00  0.00000000000E+00  0.10007198802E+01  0.10007198802E+01  0.00000000000E+00 0. -1.
         13   -1    0    0    0    0 -0.00000000000E+00 -0.00000000000E+00 -0.10000000000E+04  0.10000000000E+04  0.00000000000E+00 0.  1.
    9000005    2    1    2  501    0  0.28247076260E+02 -0.13933299560E+02 -0.52100568040E+03  0.52197053761E+03  0.37800752292E+01 0.  0.
         13    1    3    3    0    0  0.19648577975E+01 -0.14915117704E+01 -0.58194199618E+02  0.58246460345E+02  0.00000000000E+00 0.  1.
          1    1    3    3  501    0  0.26282218463E+02 -0.12441787790E+02 -0.46281148079E+03  0.46372407727E+03  0.00000000000E+00 0.  1.
         -3    1    1    2    0  502 -0.28247076260E+02  0.13933299560E+02 -0.47799359972E+03  0.47903018227E+03  0.00000000000E+00 0. -1.
<mgrwt>
<rscale>  1 0.30000000E+03</rscale>
<asrwt>0</asrwt>
<pdfrwt beam="1">  1       21 0.36389891E-02 0.30000000E+03</pdfrwt>
<pdfrwt beam="2">0</pdfrwt>
<totfact> 0.49291652E+04</totfact>
</mgrwt>
</event>
<event>
 6    1  0.1295671E-001  0.3000000E+03  0.7818608E-02  0.1093470E+00
         21   -1    0    0  501  502  0.00000000000E+00  0.00000000000E+00  0.24125418100E+01  0.24125418100E+01  0.00000000000E+00 0. -1.
         13   -1    0    0    0    0 -0.00000000000E+00 -0.00000000000E+00 -0.10000000000E+04  0.10000000000E+04  0.00000000000E+00 0.  1.
    9000005    2    1    2  501    0 -0.29873079442E+02 -0.38704030442E+02 -0.45753723177E+03  0.46015370149E+03  0.32722610574E+01 0.  0.
         13    1    3    3    0    0 -0.13619823988E+02 -0.15147713049E+02 -0.19515057784E+03  0.19621085813E+03  0.00000000000E+00 0.  1.
          1    1    3    3  501    0 -0.16253255453E+02 -0.23556317394E+02 -0.26238665393E+03  0.26394284336E+03  0.00000000000E+00 0.  1.
         -1    1    1    2    0  502  0.29873079442E+02  0.38704030442E+02 -0.54005022642E+03  0.54225884032E+03  0.00000000000E+00 0. -1.
<mgrwt>
<rscale>  1 0.30000000E+03</rscale>
<asrwt>0</asrwt>
<pdfrwt beam="1">  1       21 0.87728978E-02 0.30000000E+03</pdfrwt>
<pdfrwt beam="2">0</pdfrwt>
<totfact> 0.10858245E+04</totfact>
</mgrwt>
</event>
<event>
 6    1  0.1295671E-001  0.3000000E+03  0.7818608E-02  0.1093470E+00
         21   -1    0    0  501  502  0.00000000000E+00  0.00000000000E+00  0.11184310676E+01  0.11184310676E+01  0.00000000000E+00 0. -1.
         13   -1    0    0    0    0 -0.00000000000E+00 -0.00000000000E+00 -0.10000000000E+04  0.10000000000E+04  0.00000000000E+00 0.  1.
    9000005    2    1    2  501    0 -0.30951005527E+02 -0.11959724781E+02 -0.44464964895E+03  0.44589413325E+03  0.26959219654E+01 0.  0.
         13    1    3    3    0    0 -0.21107742813E+02 -0.94816818014E+01 -0.31040319852E+03  0.31126449324E+03  0.00000000000E+00 0.  1.
          1    1    3    3  501    0 -0.98432627147E+01 -0.24780429797E+01 -0.13424645042E+03  0.13462964001E+03  0.00000000000E+00 0.  1.
         -1    1    1    2    0  502  0.30951005527E+02  0.11959724781E+02 -0.55423191999E+03  0.55522429782E+03  0.00000000000E+00 0. -1.
<mgrwt>
<rscale>  1 0.30000000E+03</rscale>
<asrwt>0</asrwt>
<pdfrwt beam="1">  1       21 0.40670306E-02 0.30000000E+03</pdfrwt>
<pdfrwt beam="2">0</pdfrwt>
<totfact> 0.40886386E+04</totfact>
</mgrwt>
</event>
<event>
 6    1  0.1295671E-001  0.3000000E+03  0.7818608E-02  0.1093470E+00
         21   -1    0    0  501  502  0.00000000000E+00  0.00000000000E+00  0.31782521437E+01  0.31782521437E+01  0.00000000000E+00 0. -1.
         13   -1    0    0    0    0 -0.00000000000E+00 -0.00000000000E+00 -0.10000000000E+04  0.10000000000E+04  0.00000000000E+00 0.  1.
    9000005    2    1    2  501    0  0.33414200444E+02 -0.38000285845E+02 -0.71879000791E+03  0.72057928022E+03  0.38591571042E+01 0.  0.
         13    1    3    3    0    0  0.28034097566E+02 -0.30646764414E+02 -0.57095277260E+03  0.57246153000E+03  0.00000000000E+00 0.  1.
          1    1    3    3  501    0  0.53801028776E+01 -0.73535214306E+01 -0.14783723531E+03  0.14811775022E+03  0.00000000000E+00 0.  1.
         -1    1    1    2    0  502 -0.33414200444E+02  0.38000285845E+02 -0.27803173995E+03  0.28259897192E+03  0.00000000000E+00 0. -1.
<mgrwt>
<rscale>  1 0.30000000E+03</rscale>
<asrwt>0</asrwt>
<pdfrwt beam="1">  1       21 0.11557305E-01 0.30000000E+03</pdfrwt>
<pdfrwt beam="2">0</pdfrwt>
<totfact> 0.66337005E+03</totfact>
</mgrwt>
</event>
<event>
 6    1  0.1295671E-001  0.3000000E+03  0.7818608E-02  0.1093470E+00
         21   -1    0    0  501  502  0.00000000000E+00  0.00000000000E+00  0.27424740217E+01  0.27424740217E+01  0.00000000000E+00 0. -1.
         13   -1    0    0    0    0 -0.00000000000E+00 -0.00000000000E+00 -0.10000000000E+04  0.10000000000E+04  0.00000000000E+00 0.  1.
    9000005    2    1    2  501    0 -0.11204304850E+02 -0.45649087621E+02 -0.27887143014E+03  0.28282028494E+03  0.29433609699E+01 0.  0.
         13    1    3    3    0    0 -0.58116414054E+01 -0.27557799410E+02 -0.16024704849E+03  0.16270317770E+03  0.00000000000E+00 0.  1.
          1    1    3    3  501    0 -0.53926634441E+01 -0.18091288211E+02 -0.11862438165E+03  0.12011710723E+03  0.00000000000E+00 0.  1.
         -3    1    1    2    0  502  0.11204304850E+02  0.45649087621E+02 -0.71838609584E+03  0.71992218909E+03  0.00000000000E+00 0. -1.
<mgrwt>
<rscale>  1 0.30000000E+03</rscale>
<asrwt>0</asrwt>
<pdfrwt beam="1">  1       21 0.99726538E-02 0.30000000E+03</pdfrwt>
<pdfrwt beam="2">0</pdfrwt>
<totfact> 0.86453929E+03</totfact>
</mgrwt>
</event>
<event>
 6    1  0.1295671E-001  0.3000000E+03  0.7818608E-02  0.1093470E+00
         21   -1    0    0  501  502  0.00000000000E+00  0.00000000000E+00  0.13081959606E+01  0.13081959606E+01  0.00000000000E+00 0. -1.
         13   -1    0    0    0    0 -0.00000000000E+00 -0.00000000000E+00 -0.10000000000E+04  0.10000000000E+04  0.00000000000E+00 0.  1.
    9000005    2    1    2  501    0  0.21797183270E+02  0.26142529105E+02 -0.33406844639E+03  0.33581382592E+03  0.32633996223E+01 0.  0.
         13    1    3    3    0    0  0.30213503821E+01  0.26352262785E+01 -0.31757547824E+02  0.32009605113E+02  0.00000000000E+00 0.  1.
          1    1    3    3  501    0  0.18775832887E+02  0.23507302827E+02 -0.30231089857E+03  0.30380422080E+03  0.00000000000E+00 0.  1.
         -1    1    1    2    0  502 -0.21797183270E+02 -0.26142529105E+02 -0.66462335765E+03  0.66549437004E+03  0.00000000000E+00 0. -1.
<mgrwt>
<rscale>  1 0.30000000E+03</rscale>
<asrwt>0</asrwt>
<pdfrwt beam="1">  1       21 0.47570863E-02 0.30000000E+03</pdfrwt>
<pdfrwt beam="2">0</pdfrwt>
<totfact> 0.31353946E+04</totfact>
</mgrwt>
</event>
<event>
 6    1  0.1295671E-001  0.3000000E+03  0.7818608E-02  0.1093470E+00
         21   -1    0    0  501  502  0.00000000000E+00  0.00000000000E+00  0.21129151383E+01  0.21129151383E+01  0.00000000000E+00 0. -1.
         13   -1    0    0    0    0 -0.00000000000E+00 -0.00000000000E+00 -0.10000000000E+04  0.10000000000E+04  0.00000000000E+00 0.  1.
    9000005    2    1    2  501    0  0.32335715897E+02  0.13215582421E+02 -0.82427832232E+03  0.82502465304E+03  0.32673135156E+01 0.  0.
         13    1    3    3    0    0  0.20925998449E+02  0.69049444556E+01 -0.50821368137E+03  0.50869118490E+03  0.00000000000E+00 0.  1.
          3    1    3    3  501    0  0.11409717448E+02  0.63106379652E+01 -0.31606464096E+03  0.31633346814E+03  0.00000000000E+00 0.  1.
         -1    1    1    2    0  502 -0.32335715897E+02 -0.13215582421E+02 -0.17360876254E+03  0.17708826210E+03  0.00000000000E+00 0. -1.
<mgrwt>
<rscale>  1 0.30000000E+03</rscale>
<asrwt>0</asrwt>
<pdfrwt beam="1">  1       21 0.76833440E-02 0.30000000E+03</pdfrwt>
<pdfrwt beam="2">0</pdfrwt>
<totfact> 0.13711876E+04</totfact>
</mgrwt>
</event>
<event>
 6    1  0.1295671E-001  0.3000000E+03  0.7818608E-02  0.1093470E+00
         21   -1    0    0  501  502  0.00000000000E+00  0.00000000000E+00  0.23077566081E+01  0.23077566081E+01  0.00000000000E+00 0. -1.
         13   -1    0    0    0    0 -0.00000000000E+00 -0.00000000000E+00 -0.10000000000E+04  0.10000000000E+04  0.00000000000E+00 0.  1.
    9000005    2    1    2  501    0  0.22048458088E+01  0.46798560747E+02 -0.60758084558E+03  0.60939317386E+03  0.32541971273E+01 0.  0.
         13    1    3    3    0    0  0.17817913789E+01  0.11697739206E+02 -0.16237348944E+03  0.16280406001E+03  0.00000000000E+00 0.  1.
          1    1    3    3  501    0  0.42305442992E+00  0.35100821541E+02 -0.44520735613E+03  0.44658911384E+03  0.00000000000E+00 0.  1.
         -1    1    1    2    0  502 -0.22048458088E+01 -0.46798560747E+02 -0.39011139782E+03  0.39291458275E+03  0.00000000000E+00 0. -1.
<mgrwt>
<rscale>  1 0.30000000E+03</rscale>
<asrwt>0</asrwt>
<pdfrwt beam="1">  1       21 0.83918599E-02 0.30000000E+03</pdfrwt>
<pdfrwt beam="2">0</pdfrwt>
<totfact> 0.11743314E+04</totfact>
</mgrwt>
</event>
<event>
 6    1  0.1295671E-001  0.3000000E+03  0.7818608E-02  0.1093470E+00
         21   -1    0    0  501  502  0.00000000000E+00  0.00000000000E+00  0.10331623976E+01  0.10331623976E+01  0.00000000000E+00 0. -1.
         13   -1    0    0    0    0 -0.00000000000E+00 -0.00000000000E+00 -0.10000000000E+04  0.10000000000E+04  0.00000000000E+00 0.  1.
    9000005    2    1    2  501    0  0.20234935059E+02  0.23449221705E+02 -0.62973335991E+03  0.63050289421E+03  0.32367308353E+01 0.  0.
         13    1    3    3    0    0  0.16057086850E+02  0.17112679011E+02 -0.49500244487E+03  0.49555836614E+03  0.00000000000E+00 0.  1.
          1    1    3    3  501    0  0.41778482087E+01  0.63365426941E+01 -0.13473091503E+03  0.13494452806E+03  0.00000000000E+00 0.  1.
         -3    1    1    2    0  502 -0.20234935059E+02 -0.23449221705E+02 -0.36923347770E+03  0.37053026819E+03  0.00000000000E+00 0. -1.
<mgrwt>
<rscale>  1 0.30000000E+03</rscale>
<asrwt>0</asrwt>
<pdfrwt beam="1">  1       21 0.37569621E-02 0.30000000E+03</pdfrwt>
<pdfrwt beam="2">0</pdfrwt>
<totfact> 0.46721514E+04</totfact>
</mgrwt>
</event>
<event>
 6    1  0.1295671E-001  0.3000000E+03  0.7818608E-02  0.1093470E+00
         21   -1    0    0  501  502  0.00000000000E+00  0.00000000000E+00  0.60615283400E+01  0.60615283400E+01  0.00000000000E+00 0. -1.
         13   -1    0    0    0    0 -0.00000000000E+00 -0.00000000000E+00 -0.10000000000E+04  0.10000000000E+04  0.00000000000E+00 0.  1.
    9000005    2    1    2  501    0  0.40636735412E+02  0.36890736594E+02 -0.85364392990E+03  0.85541349762E+03  0.34672969154E+01 0.  0.
         13    1    3    3    0    0  0.26585626438E+02  0.24745117896E+02 -0.58884395160E+03  0.58996297827E+03  0.00000000000E+00 0.  1.
          3    1    3    3  501    0  0.14051108974E+02  0.12145618698E+02 -0.26479997830E+03  0.26545051936E+03  0.00000000000E+00 0.  1.
         -1    1    1    2    0  502 -0.40636735412E+02 -0.36890736594E+02 -0.14029454176E+03  0.15064803072E+03  0.00000000000E+00 0. -1.
<mgrwt>
<rscale>  1 0.30000000E+03</rscale>
<asrwt>0</asrwt>
<pdfrwt beam="1">  1       21 0.22041968E-01 0.30000000E+03</pdfrwt>
<pdfrwt beam="2">0</pdfrwt>
<totfact> 0.19912723E+03</totfact>
</mgrwt>
</event>
<event>
 6    1  0.1295671E-001  0.3000000E+03  0.7818608E-02  0.1093470E+00
         21   -1    0    0  501  502  0.00000000000E+00  0.00000000000E+00  0.10831564609E+01  0.10831564609E+01  0.00000000000E+00 0. -1.
         13   -1    0    0    0    0 -0.00000000000E+00 -0.00000000000E+00 -0.10000000000E+04  0.10000000000E+04  0.00000000000E+00 0.  1.
    9000005    2    1    2  501    0 -0.17815638560E+02 -0.25191983490E+02 -0.67159905719E+03  0.67231429195E+03  0.30299399402E+01 0.  0.
         13    1    3    3    0    0 -0.86084154402E+01 -0.11425317812E+02 -0.34286753288E+03  0.34316583135E+03  0.00000000000E+00 0.  1.
          3    1    3    3  501    0 -0.92072231193E+01 -0.13766665678E+02 -0.32873152431E+03  0.32914846060E+03  0.00000000000E+00 0.  1.
         -3    1    1    2    0  502  0.17815638560E+02  0.25191983490E+02 -0.32731778635E+03  0.32876886451E+03  0.00000000000E+00 0. -1.
<mgrwt>
<rscale>  1 0.30000000E+03</rscale>
<asrwt>0</asrwt>
<pdfrwt beam="1">  1       21 0.39387591E-02 0.30000000E+03</pdfrwt>
<pdfrwt beam="2">0</pdfrwt>
<totfact> 0.43153700E+04</totfact>
</mgrwt>
</event>
<event>
 6    1  0.1295671E-001  0.3000000E+03  0.7818608E-02  0.1093470E+00
         21   -1    0    0  501  502  0.00000000000E+00  0.00000000000E+00  0.19782620329E+01  0.19782620329E+01  0.00000000000E+00 0. -1.
         13   -1    0    0    0    0 -0.00000000000E+00 -0.00000000000E+00 -0.10000000000E+04  0.10000000000E+04  0.00000000000E+00 0.  1.
    9000005    2    1    2  501    0 -0.39171075869E+02 -0.15572158312E+02 -0.65724877695E+03  0.65860808823E+03  0.34342067740E+01 0.  0.
         13    1    3    3    0    0 -0.24181175101E+02 -0.11319926360E+02 -0.42242164404E+03  0.42326459256E+03  0.00000000000E+00 0.  1.
          1    1    3    3  501    0 -0.14989900768E+02 -0.42522319524E+01 -0.23482713291E+03  0.23534349566E+03  0.00000000000E+00 0.  1.
         -1    1    1    2    0  502  0.39171075869E+02  0.15572158312E+02 -0.34077296101E+03  0.34337017380E+03  0.00000000000E+00 0. -1.
<mgrwt>
<rscale>  1 0.30000000E+03</rscale>
<asrwt>0</asrwt>
<pdfrwt beam="1">  1       21 0.71936953E-02 0.30000000E+03</pdfrwt>
<pdfrwt beam="2">0</pdfrwt>
<totfact> 0.15385909E+04</totfact>
</mgrwt>
</event>
<event>
 6    1  0.1295671E-001  0.3000000E+03  0.7818608E-02  0.1093470E+00
         21   -1    0    0  501  502  0.00000000000E+00  0.00000000000E+00  0.39003566249E+01  0.39003566249E+01  0.00000000000E+00 0. -1.
         13   -1    0    0    0    0 -0.00000000000E+00 -0.00000000000E+00 -0.10000000000E+04  0.10000000000E+04  0.00000000000E+00 0.  1.
    9000005    2    1    2  501    0  0.26669354802E+02  0.20574619330E+02 -0.92065871110E+03  0.92128132910E+03  0.35007974519E+01 0.  0.
         13    1    3    3    0    0  0.25562633911E+02  0.20061377657E+02 -0.90018614608E+03  0.90077244892E+03  0.00000000000E+00 0.  1.
          3    1    3    3  501    0  0.11067208917E+01  0.51324167378E+00 -0.20472565016E+02  0.20508880186E+02  0.00000000000E+00 0.  1.
         -1    1    1    2    0  502 -0.26669354802E+02 -0.20574619330E+02 -0.75440932275E+02  0.82619027522E+02  0.00000000000E+00 0. -1.
<mgrwt>
<rscale>  1 0.30000000E+03</rscale>
<asrwt>0</asrwt>
<pdfrwt beam="1">  1       21 0.14183145E-01 0.30000000E+03</pdfrwt>
<pdfrwt beam="2">0</pdfrwt>
<totfact> 0.45662538E+03</totfact>
</mgrwt>
</event>
<event>
 6    1  0.1295671E-001  0.3000000E+03  0.7818608E-02  0.1093470E+00
         21   -1    0    0  501  502  0.00000000000E+00  0.00000000000E+00  0.11685911214E+01  0.11685911214E+01  0.00000000000E+00 0. -1.
         13   -1    0    0    0    0 -0.00000000000E+00 -0.00000000000E+00 -0.10000000000E+04  0.10000000000E+04  0.00000000000E+00 0.  1.
    9000005    2    1    2  501    0 -0.22779861858E+02 -0.20415953987E+02 -0.72176187788E+03  0.72241554936E+03  0.28782481956E+01 0.  0.
         13    1    3    3    0    0 -0.11390056715E+02 -0.92947635572E+01 -0.37641810972E+03  0.37670508272E+03  0.00000000000E+00 0.  1.
          1    1    3    3  501    0 -0.11389805143E+02 -0.11121190430E+02 -0.34534376816E+03  0.34571046664E+03  0.00000000000E+00 0.  1.
         -1    1    1    2    0  502  0.22779861858E+02  0.20415953987E+02 -0.27706953100E+03  0.27875304176E+03  0.00000000000E+00 0. -1.
<mgrwt>
<rscale>  1 0.30000000E+03</rscale>
<asrwt>0</asrwt>
<pdfrwt beam="1">  1       21 0.42494312E-02 0.30000000E+03</pdfrwt>
<pdfrwt beam="2">0</pdfrwt>
<totfact> 0.37968531E+04</totfact>
</mgrwt>
</event>
<event>
 6    1  0.1295671E-001  0.3000000E+03  0.7818608E-02  0.1093470E+00
         21   -1    0    0  501  502  0.00000000000E+00  0.00000000000E+00  0.11986677242E+01  0.11986677242E+01  0.00000000000E+00 0. -1.
         13   -1    0    0    0    0 -0.00000000000E+00 -0.00000000000E+00 -0.10000000000E+04  0.10000000000E+04  0.00000000000E+00 0.  1.
    9000005    2    1    2  501    0  0.29196746635E+02 -0.12777270580E+02 -0.69332799711E+03  0.69406731610E+03  0.31652857998E+01 0.  0.
         13    1    3    3    0    0  0.70257073873E+00  0.84984166893E-01 -0.10337050137E+02  0.10361246714E+02  0.00000000000E+00 0.  1.
          3    1    3    3  501    0  0.28494175896E+02 -0.12862254747E+02 -0.68299094698E+03  0.68370606938E+03  0.00000000000E+00 0.  1.
         -1    1    1    2    0  502 -0.29196746635E+02  0.12777270580E+02 -0.30547333516E+03  0.30713135163E+03  0.00000000000E+00 0. -1.
<mgrwt>
<rscale>  1 0.30000000E+03</rscale>
<asrwt>0</asrwt>
<pdfrwt beam="1">  1       21 0.43588009E-02 0.30000000E+03</pdfrwt>
<pdfrwt beam="2">0</pdfrwt>
<totfact> 0.36371228E+04</totfact>
</mgrwt>
</event>
<event>
 6    1  0.1295671E-001  0.3000000E+03  0.7818608E-02  0.1093470E+00
         21   -1    0    0  501  502  0.00000000000E+00  0.00000000000E+00  0.12687930055E+01  0.12687930055E+01  0.00000000000E+00 0. -1.
         13   -1    0    0    0    0 -0.00000000000E+00 -0.00000000000E+00 -0.10000000000E+04  0.10000000000E+04  0.00000000000E+00 0.  1.
    9000005    2    1    2  501    0  0.19252183580E+02  0.28580444809E+02 -0.62364482278E+03  0.62460278177E+03  0.28777794301E+01 0.  0.
         13    1    3    3    0    0  0.49743941219E+01  0.95085832646E+01 -0.18294477096E+03  0.18325923435E+03  0.00000000000E+00 0.  1.
          3    1    3    3  501    0  0.14277789459E+02  0.19071861545E+02 -0.44070005182E+03  0.44134354742E+03  0.00000000000E+00 0.  1.
         -3    1    1    2    0  502 -0.19252183580E+02 -0.28580444809E+02 -0.37508638422E+03  0.37666601124E+03  0.00000000000E+00 0. -1.
<mgrwt>
<rscale>  1 0.30000000E+03</rscale>
<asrwt>0</asrwt>
<pdfrwt beam="1">  1       21 0.46138025E-02 0.30000000E+03</pdfrwt>
<pdfrwt beam="2">0</pdfrwt>
<totfact> 0.33027233E+04</totfact>
</mgrwt>
</event>
<event>
 6    1  0.1295671E-001  0.3000000E+03  0.7818608E-02  0.1093470E+00
         21   -1    0    0  501  502  0.00000000000E+00  0.00000000000E+00  0.23109025010E+01  0.23109025010E+01  0.00000000000E+00 0. -1.
         13   -1    0    0    0    0 -0.00000000000E+00 -0.00000000000E+00 -0.10000000000E+04  0.10000000000E+04  0.00000000000E+00 0.  1.
    9000005    2    1    2  501    0 -0.35830955019E+02 -0.14837857000E+01 -0.83011235275E+03  0.83093988879E+03  0.94085943107E+01 0.  0.
         13    1    3    3    0    0 -0.24654681122E+02  0.29266711999E+01 -0.60118947434E+03  0.60170192186E+03  0.00000000000E+00 0.  1.
          1    1    3    3  501    0 -0.11176273897E+02 -0.44104568998E+01 -0.22892287840E+03  0.22923796694E+03  0.00000000000E+00 0.  1.
         -3    1    1    2    0  502  0.35830955019E+02  0.14837857000E+01 -0.16757674475E+03  0.17137101371E+03  0.00000000000E+00 0. -1.
<mgrwt>
<rscale>  1 0.30000000E+03</rscale>
<asrwt>0</asrwt>
<pdfrwt beam="1">  1       21 0.84032995E-02 0.30000000E+03</pdfrwt>
<pdfrwt beam="2">0</pdfrwt>
<totfact> 0.11715163E+04</totfact>
</mgrwt>
</event>
<event>
 6    1  0.1295671E-001  0.3000000E+03  0.7818608E-02  0.1093470E+00
         21   -1    0    0  501  502  0.00000000000E+00  0.00000000000E+00  0.98167689773E+00  0.98167689773E+00  0.00000000000E+00 0. -1.
         13   -1    0    0    0    0 -0.00000000000E+00 -0.00000000000E+00 -0.10000000000E+04  0.10000000000E+04  0.00000000000E+00 0.  1.
    9000005    2    1    2  501    0 -0.37991668850E+01 -0.30994604992E+02 -0.49452280069E+03  0.49552066817E+03  0.35823143443E+01 0.  0.
         13    1    3    3    0    0  0.24656416962E+00 -0.11350243828E+02 -0.16996887472E+03  0.17034760697E+03  0.00000000000E+00 0.  1.
          3    1    3    3  501    0 -0.40457310546E+01 -0.19644361164E+02 -0.32455392597E+03  0.32517306119E+03  0.00000000000E+00 0.  1.
         -3    1    1    2    0  502  0.37991668850E+01  0.30994604992E+02 -0.50449552242E+03  0.50546100873E+03  0.00000000000E+00 0. -1.
<mgrwt>
<rscale>  1 0.30000000E+03</rscale>
<asrwt>0</asrwt>
<pdfrwt beam="1">  1       21 0.35697417E-02 0.30000000E+03</pdfrwt>
<pdfrwt beam="2">0</pdfrwt>
<totfact> 0.50905690E+04</totfact>
</mgrwt>
</event>
<event>
 6    1  0.1295671E-001  0.3000000E+03  0.7818608E-02  0.1093470E+00
         21   -1    0    0  501  502  0.00000000000E+00  0.00000000000E+00  0.50256958413E+01  0.50256958413E+01  0.00000000000E+00 0. -1.
         13   -1    0    0    0    0 -0.00000000000E+00 -0.00000000000E+00 -0.10000000000E+04  0.10000000000E+04  0.00000000000E+00 0.  1.
    9000005    2    1    2  501    0 -0.47778104808E+02 -0.29391523797E+02 -0.80458694053E+03  0.80654658561E+03  0.32620410340E+01 0.  0.
         13    1    3    3    0    0 -0.34193257038E+02 -0.19418374792E+02 -0.55477396555E+03  0.55616580707E+03  0.00000000000E+00 0.  1.
          3    1    3    3  501    0 -0.13584847770E+02 -0.99731490058E+01 -0.24981297499E+03  0.25038077854E+03  0.00000000000E+00 0.  1.
         -3    1    1    2    0  502  0.47778104808E+02  0.29391523797E+02 -0.19038736363E+03  0.19847911023E+03  0.00000000000E+00 0. -1.
<mgrwt>
<rscale>  1 0.30000000E+03</rscale>
<asrwt>0</asrwt>
<pdfrwt beam="1">  1       21 0.18275296E-01 0.30000000E+03</pdfrwt>
<pdfrwt beam="2">0</pdfrwt>
<totfact> 0.28469226E+03</totfact>
</mgrwt>
</event>
<event>
 6    1  0.1295671E-001  0.3000000E+03  0.7818608E-02  0.1093470E+00
         21   -1    0    0  501  502  0.00000000000E+00  0.00000000000E+00  0.35165535725E+01  0.35165535725E+01  0.00000000000E+00 0. -1.
         13   -1    0    0    0    0 -0.00000000000E+00 -0.00000000000E+00 -0.10000000000E+04  0.10000000000E+04  0.00000000000E+00 0.  1.
    9000005    2    1    2  501    0 -0.21898769122E+02 -0.29478321509E+02 -0.89209613969E+03  0.89285835308E+03  0.34624687011E+01 0.  0.
         13    1    3    3    0    0 -0.96510516011E+01 -0.15834317092E+02 -0.44008260960E+03  0.44047312252E+03  0.00000000000E+00 0.  1.
          1    1    3    3  501    0 -0.12247717521E+02 -0.13644004417E+02 -0.45201353009E+03  0.45238523056E+03  0.00000000000E+00 0.  1.
         -1    1    1    2    0  502  0.21898769122E+02  0.29478321509E+02 -0.10438730674E+03  0.11065820050E+03  0.00000000000E+00 0. -1.
<mgrwt>
<rscale>  1 0.30000000E+03</rscale>
<asrwt>0</asrwt>
<pdfrwt beam="1">  1       21 0.12787495E-01 0.30000000E+03</pdfrwt>
<pdfrwt beam="2">0</pdfrwt>
<totfact> 0.55200988E+03</totfact>
</mgrwt>
</event>
<event>
 6    1  0.1295671E-001  0.3000000E+03  0.7818608E-02  0.1093470E+00
         21   -1    0    0  501  502  0.00000000000E+00  0.00000000000E+00  0.96985123544E+00  0.96985123544E+00  0.00000000000E+00 0. -1.
         13   -1    0    0    0    0 -0.00000000000E+00 -0.00000000000E+00 -0.10000000000E+04  0.10000000000E+04  0.00000000000E+00 0.  1.
    9000005    2    1    2  501    0 -0.26764458846E+02 -0.15059134628E+02 -0.44035508645E+03  0.44145136268E+03  0.48569176251E+01 0.  0.
         13    1    3    3    0    0 -0.10420603972E+02 -0.83208044369E+01 -0.20500259268E+03  0.20543584833E+03  0.00000000000E+00 0.  1.
          1    1    3    3  501    0 -0.16343854873E+02 -0.67383301908E+01 -0.23535249377E+03  0.23601551434E+03  0.00000000000E+00 0.  1.
         -1    1    1    2    0  502  0.26764458846E+02  0.15059134628E+02 -0.55867506231E+03  0.55951848856E+03  0.00000000000E+00 0. -1.
<mgrwt>
<rscale>  1 0.30000000E+03</rscale>
<asrwt>0</asrwt>
<pdfrwt beam="1">  1       21 0.35267392E-02 0.30000000E+03</pdfrwt>
<pdfrwt beam="2">0</pdfrwt>
<totfact> 0.51950332E+04</totfact>
</mgrwt>
</event>
<event>
 6    1  0.1295671E-001  0.3000000E+03  0.7818608E-02  0.1093470E+00
         21   -1    0    0  501  502  0.00000000000E+00  0.00000000000E+00  0.13584335427E+01  0.13584335427E+01  0.00000000000E+00 0. -1.
         13   -1    0    0    0    0 -0.00000000000E+00 -0.00000000000E+00 -0.10000000000E+04  0.10000000000E+04  0.00000000000E+00 0.  1.
    9000005    2    1    2  501    0 -0.34278733594E+02 -0.40436551107E+01 -0.67366860814E+03  0.67455756702E+03  0.26711243394E+01 0.  0.
         13    1    3    3    0    0 -0.25754544452E+02 -0.31746163544E+01 -0.48309800965E+03  0.48379444155E+03  0.00000000000E+00 0.  1.
          3    1    3    3  501    0 -0.85241891426E+01 -0.86903875629E+00 -0.19057059849E+03  0.19076312547E+03  0.00000000000E+00 0.  1.
         -1    1    1    2    0  502  0.34278733594E+02  0.40436551107E+01 -0.32497295831E+03  0.32680086652E+03  0.00000000000E+00 0. -1.
<mgrwt>
<rscale>  1 0.30000000E+03</rscale>
<asrwt>0</asrwt>
<pdfrwt beam="1">  1       21 0.49397688E-02 0.30000000E+03</pdfrwt>
<pdfrwt beam="2">0</pdfrwt>
<totfact> 0.29405778E+04</totfact>
</mgrwt>
</event>
<event>
 6    1  0.1295671E-001  0.3000000E+03  0.7818608E-02  0.1093470E+00
         21   -1    0    0  501  502  0.00000000000E+00  0.00000000000E+00  0.16324935040E+01  0.16324935040E+01  0.00000000000E+00 0. -1.
         13   -1    0    0    0    0 -0.00000000000E+00 -0.00000000000E+00 -0.10000000000E+04  0.10000000000E+04  0.00000000000E+00 0.  1.
    9000005    2    1    2  501    0 -0.37973887291E+02  0.11691084929E+02 -0.58645643952E+03  0.58780955470E+03  0.31968046053E+01 0.  0.
         13    1    3    3    0    0 -0.46033578136E+01  0.99222603942E+00 -0.84745384519E+02  0.84876119215E+02  0.00000000000E+00 0.  1.
          3    1    3    3  501    0 -0.33370529477E+02  0.10698858890E+02 -0.50171105500E+03  0.50293343548E+03  0.00000000000E+00 0.  1.
         -3    1    1    2    0  502  0.37973887291E+02 -0.11691084929E+02 -0.41191106698E+03  0.41382293881E+03  0.00000000000E+00 0. -1.
<mgrwt>
<rscale>  1 0.30000000E+03</rscale>
<asrwt>0</asrwt>
<pdfrwt beam="1">  1       21 0.59363525E-02 0.30000000E+03</pdfrwt>
<pdfrwt beam="2">0</pdfrwt>
<totfact> 0.21462732E+04</totfact>
</mgrwt>
</event>
<event>
 6    1  0.1295671E-001  0.3000000E+03  0.7818608E-02  0.1093470E+00
         21   -1    0    0  501  502  0.00000000000E+00  0.00000000000E+00  0.15356052629E+01  0.15356052629E+01  0.00000000000E+00 0. -1.
         13   -1    0    0    0    0 -0.00000000000E+00 -0.00000000000E+00 -0.10000000000E+04  0.10000000000E+04  0.00000000000E+00 0.  1.
    9000005    2    1    2  501    0 -0.29092396561E+01  0.38315277579E+02 -0.40781800960E+03  0.40964061758E+03  0.36582022861E+01 0.  0.
         13    1    3    3    0    0 -0.31847352242E-01  0.30047077193E+01 -0.23047794455E+02  0.23242850771E+02  0.00000000000E+00 0.  1.
          3    1    3    3  501    0 -0.28773923038E+01  0.35310569860E+02 -0.38477021514E+03  0.38639776681E+03  0.00000000000E+00 0.  1.
         -1    1    1    2    0  502  0.29092396561E+01 -0.38315277579E+02 -0.59064638514E+03  0.59189498769E+03  0.00000000000E+00 0. -1.
<mgrwt>
<rscale>  1 0.30000000E+03</rscale>
<asrwt>0</asrwt>
<pdfrwt beam="1">  1       21 0.55840309E-02 0.30000000E+03</pdfrwt>
<pdfrwt beam="2">0</pdfrwt>
<totfact> 0.23845685E+04</totfact>
</mgrwt>
</event>
<event>
 6    1  0.1295671E-001  0.3000000E+03  0.7818608E-02  0.1093470E+00
         21   -1    0    0  501  502  0.00000000000E+00  0.00000000000E+00  0.14507288313E+01  0.14507288313E+01  0.00000000000E+00 0. -1.
         13   -1    0    0    0    0 -0.00000000000E+00 -0.00000000000E+00 -0.10000000000E+04  0.10000000000E+04  0.00000000000E+00 0.  1.
    9000005    2    1    2  501    0  0.33372680655E+02  0.85317998304E+01 -0.71165988851E+03  0.71250082781E+03  0.33324589111E+01 0.  0.
         13    1    3    3    0    0  0.23222999917E+02  0.61396041028E+01 -0.46366869172E+03  0.46429048897E+03  0.00000000000E+00 0.  1.
          3    1    3    3  501    0  0.10149680738E+02  0.23921957277E+01 -0.24799119679E+03  0.24821033884E+03  0.00000000000E+00 0.  1.
         -1    1    1    2    0  502 -0.33372680655E+02 -0.85317998304E+01 -0.28688938266E+03  0.28894990103E+03  0.00000000000E+00 0. -1.
<mgrwt>
<rscale>  1 0.30000000E+03</rscale>
<asrwt>0</asrwt>
<pdfrwt beam="1">  1       21 0.52753887E-02 0.30000000E+03</pdfrwt>
<pdfrwt beam="2">0</pdfrwt>
<totfact> 0.26285250E+04</totfact>
</mgrwt>
</event>
<event>
 6    1  0.1295671E-001  0.3000000E+03  0.7818608E-02  0.1093470E+00
         21   -1    0    0  501  502  0.00000000000E+00  0.00000000000E+00  0.26253218136E+01  0.26253218136E+01  0.00000000000E+00 0. -1.
         13   -1    0    0    0    0 -0.00000000000E+00 -0.00000000000E+00 -0.10000000000E+04  0.10000000000E+04  0.00000000000E+00 0.  1.
    9000005    2    1    2  501    0  0.88388185739E+01  0.35926193526E+02 -0.84530443897E+03  0.84611917577E+03  0.30412107638E+01 0.  0.
         13    1    3    3    0    0  0.43002754856E+01  0.19116313296E+02 -0.48085004849E+03  0.48124909863E+03  0.00000000000E+00 0.  1.
          1    1    3    3  501    0  0.45385430883E+01  0.16809880230E+02 -0.36445439048E+03  0.36487007714E+03  0.00000000000E+00 0.  1.
         -1    1    1    2    0  502 -0.88388185739E+01 -0.35926193526E+02 -0.15207023921E+03  0.15650614604E+03  0.00000000000E+00 0. -1.
<mgrwt>
<rscale>  1 0.30000000E+03</rscale>
<asrwt>0</asrwt>
<pdfrwt beam="1">  1       21 0.95466449E-02 0.30000000E+03</pdfrwt>
<pdfrwt beam="2">0</pdfrwt>
<totfact> 0.93458019E+03</totfact>
</mgrwt>
</event>
<event>
 6    1  0.1295671E-001  0.3000000E+03  0.7818608E-02  0.1093470E+00
         21   -1    0    0  501  502  0.00000000000E+00  0.00000000000E+00  0.24888526974E+01  0.24888526974E+01  0.00000000000E+00 0. -1.
         13   -1    0    0    0    0 -0.00000000000E+00 -0.00000000000E+00 -0.10000000000E+04  0.10000000000E+04  0.00000000000E+00 0.  1.
    9000005    2    1    2  501    0  0.45467413030E+01  0.46710429218E+02 -0.66592649448E+03  0.66759943954E+03  0.53271545945E+01 0.  0.
         13    1    3    3    0    0  0.46072902367E+01  0.38007642877E+02 -0.51403035258E+03  0.51545417974E+03  0.00000000000E+00 0.  1.
          1    1    3    3  501    0 -0.60548933775E-01  0.87027863402E+01 -0.15189614190E+03  0.15214525980E+03  0.00000000000E+00 0.  1.
         -1    1    1    2    0  502 -0.45467413030E+01 -0.46710429218E+02 -0.33158465283E+03  0.33488941316E+03  0.00000000000E+00 0. -1.
<mgrwt>
<rscale>  1 0.30000000E+03</rscale>
<asrwt>0</asrwt>
<pdfrwt beam="1">  1       21 0.90503925E-02 0.30000000E+03</pdfrwt>
<pdfrwt beam="2">0</pdfrwt>
<totfact> 0.10275908E+04</totfact>
</mgrwt>
</event>
<event>
 6    1  0.1295671E-001  0.3000000E+03  0.7818608E-02  0.1093470E+00
         21   -1    0    0  501  502  0.00000000000E+00  0.00000000000E+00  0.15802814184E+01  0.15802814184E+01  0.00000000000E+00 0. -1.
         13   -1    0    0    0    0 -0.00000000000E+00 -0.00000000000E+00 -0.10000000000E+04  0.10000000000E+04  0.00000000000E+00 0.  1.
    9000005    2    1    2  501    0  0.20921150225E+02  0.26608009917E+02 -0.76108193150E+03  0.76184103579E+03  0.32212787453E+01 0.  0.
         13    1    3    3    0    0  0.25162807344E+01  0.20513165773E+01 -0.88023084759E+02  0.88082932620E+02  0.00000000000E+00 0.  1.
          3    1    3    3  501    0  0.18404869491E+02  0.24556693340E+02 -0.67305884674E+03  0.67375810317E+03  0.00000000000E+00 0.  1.
         -3    1    1    2    0  502 -0.20921150225E+02 -0.26608009917E+02 -0.23733778708E+03  0.23973924563E+03  0.00000000000E+00 0. -1.
<mgrwt>
<rscale>  1 0.30000000E+03</rscale>
<asrwt>0</asrwt>
<pdfrwt beam="1">  1       21 0.57464900E-02 0.30000000E+03</pdfrwt>
<pdfrwt beam="2">0</pdfrwt>
<totfact> 0.22698869E+04</totfact>
</mgrwt>
</event>
<event>
 6    1  0.1295671E-001  0.3000000E+03  0.7818608E-02  0.1093470E+00
         21   -1    0    0  501  502  0.00000000000E+00  0.00000000000E+00  0.14830941801E+01  0.14830941801E+01  0.00000000000E+00 0. -1.
         13   -1    0    0    0    0 -0.00000000000E+00 -0.00000000000E+00 -0.10000000000E+04  0.10000000000E+04  0.00000000000E+00 0.  1.
    9000005    2    1    2  501    0 -0.35595573823E+02 -0.79689363562E+01 -0.34153366272E+03  0.34348801020E+03  0.28673264034E+01 0.  0.
         13    1    3    3    0    0 -0.21202056683E+02 -0.32999754623E+01 -0.20054547159E+03  0.20169011682E+03  0.00000000000E+00 0.  1.
          3    1    3    3  501    0 -0.14393517140E+02 -0.46689608939E+01 -0.14098819113E+03  0.14179789338E+03  0.00000000000E+00 0.  1.
         -3    1    1    2    0  502  0.35595573823E+02  0.79689363562E+01 -0.65698324310E+03  0.65799508398E+03  0.00000000000E+00 0. -1.
<mgrwt>
<rscale>  1 0.30000000E+03</rscale>
<asrwt>0</asrwt>
<pdfrwt beam="1">  1       21 0.53930811E-02 0.30000000E+03</pdfrwt>
<pdfrwt beam="2">0</pdfrwt>
<totfact> 0.25311399E+04</totfact>
</mgrwt>
</event>
<event>
 6    1  0.1295671E-001  0.3000000E+03  0.7818608E-02  0.1093470E+00
         21   -1    0    0  501  502  0.00000000000E+00  0.00000000000E+00  0.20506969429E+01  0.20506969429E+01  0.00000000000E+00 0. -1.
         13   -1    0    0    0    0 -0.00000000000E+00 -0.00000000000E+00 -0.10000000000E+04  0.10000000000E+04  0.00000000000E+00 0.  1.
    9000005    2    1    2  501    0  0.18770822188E+02 -0.28685205778E+02 -0.82544844955E+03  0.82617651107E+03  0.52249192924E+01 0.  0.
         13    1    3    3    0    0  0.10154552422E+02 -0.17964485614E+02 -0.54593299020E+03  0.54632286009E+03  0.00000000000E+00 0.  1.
          1    1    3    3  501    0  0.86162697660E+01 -0.10720720164E+02 -0.27951545935E+03  0.27985365097E+03  0.00000000000E+00 0.  1.
         -3    1    1    2    0  502 -0.18770822188E+02  0.28685205778E+02 -0.17250085351E+03  0.17587418588E+03  0.00000000000E+00 0. -1.
<mgrwt>
<rscale>  1 0.30000000E+03</rscale>
<asrwt>0</asrwt>
<pdfrwt beam="1">  1       21 0.74570955E-02 0.30000000E+03</pdfrwt>
<pdfrwt beam="2">0</pdfrwt>
<totfact> 0.14448855E+04</totfact>
</mgrwt>
</event>
<event>
 6    1  0.1295671E-001  0.3000000E+03  0.7818608E-02  0.1093470E+00
         21   -1    0    0  501  502  0.00000000000E+00  0.00000000000E+00  0.13349744847E+01  0.13349744847E+01  0.00000000000E+00 0. -1.
         13   -1    0    0    0    0 -0.00000000000E+00 -0.00000000000E+00 -0.10000000000E+04  0.10000000000E+04  0.00000000000E+00 0.  1.
    9000005    2    1    2  501    0  0.25411306409E+02  0.26088646572E+02 -0.47294418547E+03  0.47435418391E+03  0.30556918642E+01 0.  0.
         13    1    3    3    0    0  0.23343913339E+02  0.23155649987E+02 -0.41631861841E+03  0.41761503140E+03  0.00000000000E+00 0.  1.
          1    1    3    3  501    0  0.20673930703E+01  0.29329965846E+01 -0.56625567056E+02  0.56739152509E+02  0.00000000000E+00 0.  1.
         -3    1    1    2    0  502 -0.25411306409E+02 -0.26088646572E+02 -0.52572084005E+03  0.52698079058E+03  0.00000000000E+00 0. -1.
<mgrwt>
<rscale>  1 0.30000000E+03</rscale>
<asrwt>0</asrwt>
<pdfrwt beam="1">  1       21 0.48544629E-02 0.30000000E+03</pdfrwt>
<pdfrwt beam="2">0</pdfrwt>
<totfact> 0.30291241E+04</totfact>
</mgrwt>
</event>
<event>
 6    1  0.1295671E-001  0.3000000E+03  0.7818608E-02  0.1093470E+00
         21   -1    0    0  501  502  0.00000000000E+00  0.00000000000E+00  0.13548693850E+01  0.13548693850E+01  0.00000000000E+00 0. -1.
         13   -1    0    0    0    0 -0.00000000000E+00 -0.00000000000E+00 -0.10000000000E+04  0.10000000000E+04  0.00000000000E+00 0.  1.
    9000005    2    1    2  501    0 -0.18893319297E+02  0.29844523149E+02 -0.36507441498E+03  0.36680029743E+03  0.39340370127E+01 0.  0.
         13    1    3    3    0    0 -0.17872892420E+02  0.26247662014E+02 -0.33202483708E+03  0.33353991138E+03  0.00000000000E+00 0.  1.
          1    1    3    3  501    0 -0.10204268764E+01  0.35968611351E+01 -0.33049577903E+02  0.33260386056E+02  0.00000000000E+00 0.  1.
         -3    1    1    2    0  502  0.18893319297E+02 -0.29844523149E+02 -0.63357071563E+03  0.63455457195E+03  0.00000000000E+00 0. -1.
<mgrwt>
<rscale>  1 0.30000000E+03</rscale>
<asrwt>0</asrwt>
<pdfrwt beam="1">  1       21 0.49268082E-02 0.30000000E+03</pdfrwt>
<pdfrwt beam="2">0</pdfrwt>
<totfact> 0.29537685E+04</totfact>
</mgrwt>
</event>
<event>
 6    1  0.1295671E-001  0.3000000E+03  0.7818608E-02  0.1093470E+00
         21   -1    0    0  501  502  0.00000000000E+00  0.00000000000E+00  0.46935805175E+01  0.46935805175E+01  0.00000000000E+00 0. -1.
         13   -1    0    0    0    0 -0.00000000000E+00 -0.00000000000E+00 -0.10000000000E+04  0.10000000000E+04  0.00000000000E+00 0.  1.
    9000005    2    1    2  501    0  0.51742420890E+02  0.42742101522E+02 -0.59736517917E+03  0.60113268536E+03  0.33440628562E+01 0.  0.
         13    1    3    3    0    0  0.37876067727E+02  0.32791648597E+02 -0.45331307604E+03  0.45607305735E+03  0.00000000000E+00 0.  1.
          3    1    3    3  501    0  0.13866353164E+02  0.99504529255E+01 -0.14405210313E+03  0.14505962801E+03  0.00000000000E+00 0.  1.
         -3    1    1    2    0  502 -0.51742420890E+02 -0.42742101522E+02 -0.39794124031E+03  0.40356089516E+03  0.00000000000E+00 0. -1.
<mgrwt>
<rscale>  1 0.30000000E+03</rscale>
<asrwt>0</asrwt>
<pdfrwt beam="1">  1       21 0.17067602E-01 0.30000000E+03</pdfrwt>
<pdfrwt beam="2">0</pdfrwt>
<totfact> 0.32373632E+03</totfact>
</mgrwt>
</event>
<event>
 6    1  0.1295671E-001  0.3000000E+03  0.7818608E-02  0.1093470E+00
         21   -1    0    0  501  502  0.00000000000E+00  0.00000000000E+00  0.17594650560E+01  0.17594650560E+01  0.00000000000E+00 0. -1.
         13   -1    0    0    0    0 -0.00000000000E+00 -0.00000000000E+00 -0.10000000000E+04  0.10000000000E+04  0.00000000000E+00 0.  1.
    9000005    2    1    2  501    0 -0.74457749128E+01 -0.30354322943E+02 -0.83278684140E+03  0.83337968839E+03  0.33101832942E+01 0.  0.
         13    1    3    3    0    0 -0.18613075767E+01 -0.13573946282E+02 -0.38524268644E+03  0.38548624352E+03  0.00000000000E+00 0.  1.
          1    1    3    3  501    0 -0.55844673361E+01 -0.16780376660E+02 -0.44754415496E+03  0.44789344487E+03  0.00000000000E+00 0.  1.
         -3    1    1    2    0  502  0.74457749128E+01  0.30354322943E+02 -0.16545369354E+03  0.16837977667E+03  0.00000000000E+00 0. -1.
<mgrwt>
<rscale>  1 0.30000000E+03</rscale>
<asrwt>0</asrwt>
<pdfrwt beam="1">  1       21 0.63980682E-02 0.30000000E+03</pdfrwt>
<pdfrwt beam="2">0</pdfrwt>
<totfact> 0.18858922E+04</totfact>
</mgrwt>
</event>
<event>
 6    1  0.1295671E-001  0.3000000E+03  0.7818608E-02  0.1093470E+00
         21   -1    0    0  501  502  0.00000000000E+00  0.00000000000E+00  0.10973172226E+01  0.10973172226E+01  0.00000000000E+00 0. -1.
         13   -1    0    0    0    0 -0.00000000000E+00 -0.00000000000E+00 -0.10000000000E+04  0.10000000000E+04  0.00000000000E+00 0.  1.
    9000005    2    1    2  501    0  0.27810390919E+02  0.16345791067E+02 -0.60915520587E+03  0.61001714835E+03  0.32021423157E+01 0.  0.
         13    1    3    3    0    0  0.23361676221E+02  0.12862275860E+02 -0.51951606720E+03  0.52020010585E+03  0.00000000000E+00 0.  1.
          1    1    3    3  501    0  0.44487146980E+01  0.34835152074E+01 -0.89639138677E+02  0.89817042499E+02  0.00000000000E+00 0.  1.
         -1    1    1    2    0  502 -0.27810390919E+02 -0.16345791067E+02 -0.38974747690E+03  0.39108016887E+03  0.00000000000E+00 0. -1.
<mgrwt>
<rscale>  1 0.30000000E+03</rscale>
<asrwt>0</asrwt>
<pdfrwt beam="1">  1       21 0.39902529E-02 0.30000000E+03</pdfrwt>
<pdfrwt beam="2">0</pdfrwt>
<totfact> 0.42220425E+04</totfact>
</mgrwt>
</event>
<event>
 6    1  0.1295671E-001  0.3000000E+03  0.7818608E-02  0.1093470E+00
         21   -1    0    0  501  502  0.00000000000E+00  0.00000000000E+00  0.14950199851E+01  0.14950199851E+01  0.00000000000E+00 0. -1.
         13   -1    0    0    0    0 -0.00000000000E+00 -0.00000000000E+00 -0.10000000000E+04  0.10000000000E+04  0.00000000000E+00 0.  1.
    9000005    2    1    2  501    0  0.79699111927E+01  0.34721448990E+02 -0.69155841928E+03  0.69248807888E+03  0.41944736059E+01 0.  0.
         13    1    3    3    0    0  0.47281860799E+01  0.19855619753E+02 -0.43545387385E+03  0.43593196445E+03  0.00000000000E+00 0.  1.
          3    1    3    3  501    0  0.32417251128E+01  0.14865829238E+02 -0.25610454543E+03  0.25655611442E+03  0.00000000000E+00 0.  1.
         -3    1    1    2    0  502 -0.79699111927E+01 -0.34721448990E+02 -0.30694656074E+03  0.30900694111E+03  0.00000000000E+00 0. -1.
<mgrwt>
<rscale>  1 0.30000000E+03</rscale>
<asrwt>0</asrwt>
<pdfrwt beam="1">  1       21 0.54364478E-02 0.30000000E+03</pdfrwt>
<pdfrwt beam="2">0</pdfrwt>
<totfact> 0.24966560E+04</totfact>
</mgrwt>
</event>
<event>
 6    1  0.1295671E-001  0.3000000E+03  0.7818608E-02  0.1093470E+00
         21   -1    0    0  501  502  0.00000000000E+00  0.00000000000E+00  0.28129901400E+01  0.28129901400E+01  0.00000000000E+00 0. -1.
         13   -1    0    0    0    0 -0.00000000000E+00 -0.00000000000E+00 -0.10000000000E+04  0.10000000000E+04  0.00000000000E+00 0.  1.
    9000005    2    1    2  501    0 -0.29477363219E+02 -0.68850400977E+01 -0.91017300975E+03  0.91068397769E+03  0.37524429800E+01 0.  0.
         13    1    3    3    0    0 -0.93332187700E+01 -0.31184161708E+01 -0.25220560554E+03  0.25239750584E+03  0.00000000000E+00 0.  1.
          1    1    3    3  501    0 -0.20144144449E+02 -0.37666239269E+01 -0.65796740421E+03  0.65828647185E+03  0.00000000000E+00 0.  1.
         -1    1    1    2    0  502  0.29477363219E+02  0.68850400977E+01 -0.87014000112E+02  0.92129012449E+02  0.00000000000E+00 0. -1.
<mgrwt>
<rscale>  1 0.30000000E+03</rscale>
<asrwt>0</asrwt>
<pdfrwt beam="1">  1       21 0.10229077E-01 0.30000000E+03</pdfrwt>
<pdfrwt beam="2">0</pdfrwt>
<totfact> 0.82617415E+03</totfact>
</mgrwt>
</event>
<event>
 6    1  0.1295671E-001  0.3000000E+03  0.7818608E-02  0.1093470E+00
         21   -1    0    0  501  502  0.00000000000E+00  0.00000000000E+00  0.91251011395E+00  0.91251011395E+00  0.00000000000E+00 0. -1.
         13   -1    0    0    0    0 -0.00000000000E+00 -0.00000000000E+00 -0.10000000000E+04  0.10000000000E+04  0.00000000000E+00 0.  1.
    9000005    2    1    2  501    0 -0.23110776842E+02 -0.19271261793E+02 -0.48345130910E+03  0.48439904420E+03  0.34316485389E+01 0.  0.
         13    1    3    3    0    0 -0.14780214240E+02 -0.13513337838E+02 -0.34181952536E+03  0.34240568475E+03  0.00000000000E+00 0.  1.
          3    1    3    3  501    0 -0.83305626016E+01 -0.57579239550E+01 -0.14163178374E+03  0.14199335944E+03  0.00000000000E+00 0.  1.
         -1    1    1    2    0  502  0.23110776842E+02  0.19271261793E+02 -0.51563618079E+03  0.51651346592E+03  0.00000000000E+00 0. -1.
<mgrwt>
<rscale>  1 0.30000000E+03</rscale>
<asrwt>0</asrwt>
<pdfrwt beam="1">  1       21 0.33182256E-02 0.30000000E+03</pdfrwt>
<pdfrwt beam="2">0</pdfrwt>
<totfact> 0.57522538E+04</totfact>
</mgrwt>
</event>
<event>
 6    1  0.1295671E-001  0.3000000E+03  0.7818608E-02  0.1093470E+00
         21   -1    0    0  501  502  0.00000000000E+00  0.00000000000E+00  0.21228734930E+01  0.21228734930E+01  0.00000000000E+00 0. -1.
         13   -1    0    0    0    0 -0.00000000000E+00 -0.00000000000E+00 -0.10000000000E+04  0.10000000000E+04  0.00000000000E+00 0.  1.
    9000005    2    1    2  501    0 -0.36585062417E+02 -0.79146595395E+01 -0.79079059674E+03  0.79168062621E+03  0.27087648218E+01 0.  0.
         13    1    3    3    0    0 -0.97931221578E+01 -0.32278587301E+01 -0.22884587819E+03  0.22907806591E+03  0.00000000000E+00 0.  1.
          3    1    3    3  501    0 -0.26791940260E+02 -0.46868008094E+01 -0.56194471854E+03  0.56260256031E+03  0.00000000000E+00 0.  1.
         -3    1    1    2    0  502  0.36585062417E+02  0.79146595395E+01 -0.20708652977E+03  0.21044224728E+03  0.00000000000E+00 0. -1.
<mgrwt>
<rscale>  1 0.30000000E+03</rscale>
<asrwt>0</asrwt>
<pdfrwt beam="1">  1       21 0.77195563E-02 0.30000000E+03</pdfrwt>
<pdfrwt beam="2">0</pdfrwt>
<totfact> 0.13599321E+04</totfact>
</mgrwt>
</event>
<event>
 6    1  0.1295671E-001  0.3000000E+03  0.7818608E-02  0.1093470E+00
         21   -1    0    0  501  502  0.00000000000E+00  0.00000000000E+00  0.38741920624E+01  0.38741920624E+01  0.00000000000E+00 0. -1.
         13   -1    0    0    0    0 -0.00000000000E+00 -0.00000000000E+00 -0.10000000000E+04  0.10000000000E+04  0.00000000000E+00 0.  1.
    9000005    2    1    2  501    0  0.10850678814E+02 -0.59605656864E+02 -0.61168486206E+03  0.61468861624E+03  0.36266928009E+01 0.  0.
         13    1    3    3    0    0  0.14170890415E+00 -0.10497132185E+01 -0.16638990795E+02  0.16672672069E+02  0.00000000000E+00 0.  1.
          3    1    3    3  501    0  0.10708969910E+02 -0.58555943646E+02 -0.59504587127E+03  0.59801594417E+03  0.00000000000E+00 0.  1.
         -1    1    1    2    0  502 -0.10850678814E+02  0.59605656864E+02 -0.38444094588E+03  0.38918557582E+03  0.00000000000E+00 0. -1.
<mgrwt>
<rscale>  1 0.30000000E+03</rscale>
<asrwt>0</asrwt>
<pdfrwt beam="1">  1       21 0.14088001E-01 0.30000000E+03</pdfrwt>
<pdfrwt beam="2">0</pdfrwt>
<totfact> 0.46231275E+03</totfact>
</mgrwt>
</event>
<event>
 6    1  0.1295671E-001  0.3000000E+03  0.7818608E-02  0.1093470E+00
         21   -1    0    0  501  502  0.00000000000E+00  0.00000000000E+00  0.10224795138E+01  0.10224795138E+01  0.00000000000E+00 0. -1.
         13   -1    0    0    0    0 -0.00000000000E+00 -0.00000000000E+00 -0.10000000000E+04  0.10000000000E+04  0.00000000000E+00 0.  1.
    9000005    2    1    2  501    0  0.27288262838E+02  0.12464669040E+02 -0.66972027453E+03  0.67040131976E+03  0.35589542039E+01 0.  0.
         13    1    3    3    0    0  0.26447904638E+02  0.11433061737E+02 -0.64805996706E+03  0.64870018303E+03  0.00000000000E+00 0.  1.
          3    1    3    3  501    0  0.84035819928E+00  0.10316073026E+01 -0.21660307475E+02  0.21701136731E+02  0.00000000000E+00 0.  1.
         -1    1    1    2    0  502 -0.27288262838E+02 -0.12464669040E+02 -0.32925724595E+03  0.33062115975E+03  0.00000000000E+00 0. -1.
<mgrwt>
<rscale>  1 0.30000000E+03</rscale>
<asrwt>0</asrwt>
<pdfrwt beam="1">  1       21 0.37181152E-02 0.30000000E+03</pdfrwt>
<pdfrwt beam="2">0</pdfrwt>
<totfact> 0.47544052E+04</totfact>
</mgrwt>
</event>
<event>
 6    1  0.1295671E-001  0.3000000E+03  0.7818608E-02  0.1093470E+00
         21   -1    0    0  501  502  0.00000000000E+00  0.00000000000E+00  0.97860632918E+00  0.97860632918E+00  0.00000000000E+00 0. -1.
         13   -1    0    0    0    0 -0.00000000000E+00 -0.00000000000E+00 -0.10000000000E+04  0.10000000000E+04  0.00000000000E+00 0.  1.
    9000005    2    1    2  501    0  0.16411371539E+02  0.26159656477E+02 -0.57216623675E+03  0.57300782960E+03  0.31795542783E+01 0.  0.
         13    1    3    3    0    0  0.50542467562E+01  0.10902264454E+02 -0.21543204255E+03  0.21576693383E+03  0.00000000000E+00 0.  1.
          3    1    3    3  501    0  0.11357124783E+02  0.15257392023E+02 -0.35673419421E+03  0.35724089577E+03  0.00000000000E+00 0.  1.
         -1    1    1    2    0  502 -0.16411371539E+02 -0.26159656477E+02 -0.42685515692E+03  0.42797077672E+03  0.00000000000E+00 0. -1.
<mgrwt>
<rscale>  1 0.30000000E+03</rscale>
<asrwt>0</asrwt>
<pdfrwt beam="1">  1       21 0.35585760E-02 0.30000000E+03</pdfrwt>
<pdfrwt beam="2">0</pdfrwt>
<totfact> 0.51173749E+04</totfact>
</mgrwt>
</event>
<event>
 6    1  0.1295671E-001  0.3000000E+03  0.7818608E-02  0.1093470E+00
         21   -1    0    0  501  502  0.00000000000E+00  0.00000000000E+00  0.44152524153E+01  0.44152524153E+01  0.00000000000E+00 0. -1.
         13   -1    0    0    0    0 -0.00000000000E+00 -0.00000000000E+00 -0.10000000000E+04  0.10000000000E+04  0.00000000000E+00 0.  1.
    9000005    2    1    2  501    0 -0.59235444117E+02 -0.44047223584E+01 -0.72256896419E+03  0.72501257276E+03  0.30138385898E+01 0.  0.
         13    1    3    3    0    0 -0.44037875063E+02 -0.22026070735E+01 -0.54518657382E+03  0.54696671397E+03  0.00000000000E+00 0.  1.
          1    1    3    3  501    0 -0.15197569054E+02 -0.22021152849E+01 -0.17738239037E+03  0.17804585879E+03  0.00000000000E+00 0.  1.
         -1    1    1    2    0  502  0.59235444117E+02  0.44047223584E+01 -0.27301578339E+03  0.27940267966E+03  0.00000000000E+00 0. -1.
<mgrwt>
<rscale>  1 0.30000000E+03</rscale>
<asrwt>0</asrwt>
<pdfrwt beam="1">  1       21 0.16055497E-01 0.30000000E+03</pdfrwt>
<pdfrwt beam="2">0</pdfrwt>
<totfact> 0.36291634E+03</totfact>
</mgrwt>
</event>
<event>
 6    1  0.1295671E-001  0.3000000E+03  0.7818608E-02  0.1093470E+00
         21   -1    0    0  501  502  0.00000000000E+00  0.00000000000E+00  0.12106482419E+01  0.12106482419E+01  0.00000000000E+00 0. -1.
         13   -1    0    0    0    0 -0.00000000000E+00 -0.00000000000E+00 -0.10000000000E+04  0.10000000000E+04  0.00000000000E+00 0.  1.
    9000005    2    1    2  501    0 -0.20400048879E+02 -0.26062307129E+02 -0.34833757516E+03  0.34991738133E+03  0.27751829315E+01 0.  0.
         13    1    3    3    0    0 -0.19163754626E+02 -0.23203948434E+02 -0.31729455890E+03  0.31871854326E+03  0.00000000000E+00 0.  1.
          3    1    3    3  501    0 -0.12362942533E+01 -0.28583586952E+01 -0.31043016264E+02  0.31198838066E+02  0.00000000000E+00 0.  1.
         -3    1    1    2    0  502  0.20400048879E+02  0.26062307129E+02 -0.65045177660E+03  0.65129326691E+03  0.00000000000E+00 0. -1.
<mgrwt>
<rscale>  1 0.30000000E+03</rscale>
<asrwt>0</asrwt>
<pdfrwt beam="1">  1       21 0.44023665E-02 0.30000000E+03</pdfrwt>
<pdfrwt beam="2">0</pdfrwt>
<totfact> 0.35763813E+04</totfact>
</mgrwt>
</event>
<event>
 6    1  0.1295671E-001  0.3000000E+03  0.7818608E-02  0.1093470E+00
         21   -1    0    0  501  502  0.00000000000E+00  0.00000000000E+00  0.63838493253E+01  0.63838493253E+01  0.00000000000E+00 0. -1.
         13   -1    0    0    0    0 -0.00000000000E+00 -0.00000000000E+00 -0.10000000000E+04  0.10000000000E+04  0.00000000000E+00 0.  1.
    9000005    2    1    2  501    0 -0.54791193641E+02  0.10214849272E+02 -0.85723458488E+03  0.85905310055E+03  0.38311882937E+01 0.  0.
         13    1    3    3    0    0 -0.18868036488E+02  0.18320749578E+01 -0.30244324901E+03  0.30303676042E+03  0.00000000000E+00 0.  1.
          3    1    3    3  501    0 -0.35923157153E+02  0.83827743138E+01 -0.55479133587E+03  0.55601634012E+03  0.00000000000E+00 0.  1.
         -3    1    1    2    0  502  0.54791193641E+02 -0.10214849272E+02 -0.13638156580E+03  0.14733074878E+03  0.00000000000E+00 0. -1.
<mgrwt>
<rscale>  1 0.30000000E+03</rscale>
<asrwt>0</asrwt>
<pdfrwt beam="1">  1       21 0.23214046E-01 0.30000000E+03</pdfrwt>
<pdfrwt beam="2">0</pdfrwt>
<totfact> 0.18016756E+03</totfact>
</mgrwt>
</event>
<event>
 6    1  0.1295671E-001  0.3000000E+03  0.7818608E-02  0.1093470E+00
         21   -1    0    0  501  502  0.00000000000E+00  0.00000000000E+00  0.30623214525E+01  0.30623214525E+01  0.00000000000E+00 0. -1.
         13   -1    0    0    0    0 -0.00000000000E+00 -0.00000000000E+00 -0.10000000000E+04  0.10000000000E+04  0.00000000000E+00 0.  1.
    9000005    2    1    2  501    0 -0.47546306623E+02 -0.25296796326E+02 -0.61125808037E+03  0.61364053004E+03  0.42047723143E+01 0.  0.
         13    1    3    3    0    0 -0.14764054334E+02 -0.10094326115E+02 -0.20315351308E+03  0.20393926203E+03  0.00000000000E+00 0.  1.
          3    1    3    3  501    0 -0.32782252289E+02 -0.15202470211E+02 -0.40810456729E+03  0.40970126801E+03  0.00000000000E+00 0.  1.
         -3    1    1    2    0  502  0.47546306623E+02  0.25296796326E+02 -0.38567959818E+03  0.38942179141E+03  0.00000000000E+00 0. -1.
<mgrwt>
<rscale>  1 0.30000000E+03</rscale>
<asrwt>0</asrwt>
<pdfrwt beam="1">  1       21 0.11135738E-01 0.30000000E+03</pdfrwt>
<pdfrwt beam="2">0</pdfrwt>
<totfact> 0.70936753E+03</totfact>
</mgrwt>
</event>
<event>
 6    1  0.1295671E-001  0.3000000E+03  0.7818608E-02  0.1093470E+00
         21   -1    0    0  501  502  0.00000000000E+00  0.00000000000E+00  0.10189543611E+01  0.10189543611E+01  0.00000000000E+00 0. -1.
         13   -1    0    0    0    0 -0.00000000000E+00 -0.00000000000E+00 -0.10000000000E+04  0.10000000000E+04  0.00000000000E+00 0.  1.
    9000005    2    1    2  501    0  0.24205713794E+02 -0.19768316659E+02 -0.42146387503E+03  0.42265679682E+03  0.55015472078E+01 0.  0.
         13    1    3    3    0    0  0.11970354497E+02 -0.13250654849E+02 -0.23128099839E+03  0.23196932870E+03  0.00000000000E+00 0.  1.
          3    1    3    3  501    0  0.12235359297E+02 -0.65176618104E+01 -0.19018287664E+03  0.19068746812E+03  0.00000000000E+00 0.  1.
         -3    1    1    2    0  502 -0.24205713794E+02  0.19768316659E+02 -0.57751717061E+03  0.57836215754E+03  0.00000000000E+00 0. -1.
<mgrwt>
<rscale>  1 0.30000000E+03</rscale>
<asrwt>0</asrwt>
<pdfrwt beam="1">  1       21 0.37052964E-02 0.30000000E+03</pdfrwt>
<pdfrwt beam="2">0</pdfrwt>
<totfact> 0.47820484E+04</totfact>
</mgrwt>
</event>
<event>
 6    1  0.1295671E-001  0.3000000E+03  0.7818608E-02  0.1093470E+00
         21   -1    0    0  501  502  0.00000000000E+00  0.00000000000E+00  0.50306671860E+01  0.50306671860E+01  0.00000000000E+00 0. -1.
         13   -1    0    0    0    0 -0.00000000000E+00 -0.00000000000E+00 -0.10000000000E+04  0.10000000000E+04  0.00000000000E+00 0.  1.
    9000005    2    1    2  501    0 -0.51053615275E+02 -0.27827035310E+02 -0.78511860293E+03  0.78727359070E+03  0.27695523631E+01 0.  0.
         13    1    3    3    0    0 -0.46762058857E+02 -0.24589268414E+02 -0.71079072430E+03  0.71275155281E+03  0.00000000000E+00 0.  1.
          3    1    3    3  501    0 -0.42915564185E+01 -0.32377668966E+01 -0.74327878629E+02  0.74522037897E+02  0.00000000000E+00 0.  1.
         -1    1    1    2    0  502  0.51053615275E+02  0.27827035310E+02 -0.20985072988E+03  0.21775707648E+03  0.00000000000E+00 0. -1.
<mgrwt>
<rscale>  1 0.30000000E+03</rscale>
<asrwt>0</asrwt>
<pdfrwt beam="1">  1       21 0.18293374E-01 0.30000000E+03</pdfrwt>
<pdfrwt beam="2">0</pdfrwt>
<totfact> 0.28416171E+03</totfact>
</mgrwt>
</event>
<event>
 6    1  0.1295671E-001  0.3000000E+03  0.7818608E-02  0.1093470E+00
         21   -1    0    0  501  502  0.00000000000E+00  0.00000000000E+00  0.11846880339E+01  0.11846880339E+01  0.00000000000E+00 0. -1.
         13   -1    0    0    0    0 -0.00000000000E+00 -0.00000000000E+00 -0.10000000000E+04  0.10000000000E+04  0.00000000000E+00 0.  1.
    9000005    2    1    2  501    0 -0.26409533292E+02  0.19978036837E+02 -0.63302420531E+03  0.63389771697E+03  0.31757938930E+01 0.  0.
         13    1    3    3    0    0 -0.17984400210E+02  0.15342296450E+02 -0.45724953458E+03  0.45786019873E+03  0.00000000000E+00 0.  1.
          1    1    3    3  501    0 -0.84251330822E+01  0.46357403867E+01 -0.17577467074E+03  0.17603751824E+03  0.00000000000E+00 0.  1.
         -3    1    1    2    0  502  0.26409533292E+02 -0.19978036837E+02 -0.36579110665E+03  0.36728697106E+03  0.00000000000E+00 0. -1.
<mgrwt>
<rscale>  1 0.30000000E+03</rscale>
<asrwt>0</asrwt>
<pdfrwt beam="1">  1       21 0.43079656E-02 0.30000000E+03</pdfrwt>
<pdfrwt beam="2">0</pdfrwt>
<totfact> 0.37100430E+04</totfact>
</mgrwt>
</event>
<event>
 6    1  0.1295671E-001  0.3000000E+03  0.7818608E-02  0.1093470E+00
         21   -1    0    0  501  502  0.00000000000E+00  0.00000000000E+00  0.63477505065E+01  0.63477505065E+01  0.00000000000E+00 0. -1.
         13   -1    0    0    0    0 -0.00000000000E+00 -0.00000000000E+00 -0.10000000000E+04  0.10000000000E+04  0.00000000000E+00 0.  1.
    9000005    2    1    2  501    0  0.11036418879E+02 -0.55385503764E+02 -0.85154843610E+03  0.85343323075E+03  0.49176996080E+01 0.  0.
         13    1    3    3    0    0 -0.28916863031E+00 -0.40097308702E+01 -0.71202880470E+02  0.71316279680E+02  0.00000000000E+00 0.  1.
          1    1    3    3  501    0  0.11325587509E+02 -0.51375772894E+02 -0.78034555562E+03  0.78211695107E+03  0.00000000000E+00 0.  1.
         -1    1    1    2    0  502 -0.11036418879E+02  0.55385503764E+02 -0.14210381340E+03  0.15291451975E+03  0.00000000000E+00 0. -1.
<mgrwt>
<rscale>  1 0.30000000E+03</rscale>
<asrwt>0</asrwt>
<pdfrwt beam="1">  1       21 0.23082778E-01 0.30000000E+03</pdfrwt>
<pdfrwt beam="2">0</pdfrwt>
<totfact> 0.18215686E+03</totfact>
</mgrwt>
</event>
<event>
 6    1  0.1295671E-001  0.3000000E+03  0.7818608E-02  0.1093470E+00
         21   -1    0    0  501  502  0.00000000000E+00  0.00000000000E+00  0.25625053047E+01  0.25625053047E+01  0.00000000000E+00 0. -1.
         13   -1    0    0    0    0 -0.00000000000E+00 -0.00000000000E+00 -0.10000000000E+04  0.10000000000E+04  0.00000000000E+00 0.  1.
    9000005    2    1    2  501    0 -0.38487370459E+01 -0.43030090626E+02 -0.75960365433E+03  0.76083675761E+03  0.29083640801E+01 0.  0.
         13    1    3    3    0    0 -0.15089954893E+01 -0.24355343300E+02 -0.40620364802E+03  0.40693594518E+03  0.00000000000E+00 0.  1.
          1    1    3    3  501    0 -0.23397415566E+01 -0.18674747326E+02 -0.35340000631E+03  0.35390081243E+03  0.00000000000E+00 0.  1.
         -1    1    1    2    0  502  0.38487370459E+01  0.43030090626E+02 -0.23783384036E+03  0.24172574769E+03  0.00000000000E+00 0. -1.
<mgrwt>
<rscale>  1 0.30000000E+03</rscale>
<asrwt>0</asrwt>
<pdfrwt beam="1">  1       21 0.93182208E-02 0.30000000E+03</pdfrwt>
<pdfrwt beam="2">0</pdfrwt>
<totfact> 0.97574847E+03</totfact>
</mgrwt>
</event>
<event>
 6    1  0.1295671E-001  0.3000000E+03  0.7818608E-02  0.1093470E+00
         21   -1    0    0  501  502  0.00000000000E+00  0.00000000000E+00  0.11862037382E+01  0.11862037382E+01  0.00000000000E+00 0. -1.
         13   -1    0    0    0    0 -0.00000000000E+00 -0.00000000000E+00 -0.10000000000E+04  0.10000000000E+04  0.00000000000E+00 0.  1.
    9000005    2    1    2  501    0  0.29791405338E+02 -0.12205186983E+02 -0.67498275632E+03  0.67575873585E+03  0.34136984863E+01 0.  0.
         13    1    3    3    0    0  0.10906334691E+02 -0.62154339241E+01 -0.26995951117E+03  0.27025121170E+03  0.00000000000E+00 0.  1.
          1    1    3    3  501    0  0.18885070647E+02 -0.59897530587E+01 -0.40502324515E+03  0.40550752416E+03  0.00000000000E+00 0.  1.
         -3    1    1    2    0  502 -0.29791405338E+02  0.12205186983E+02 -0.32383103995E+03  0.32542746788E+03  0.00000000000E+00 0. -1.
<mgrwt>
<rscale>  1 0.30000000E+03</rscale>
<asrwt>0</asrwt>
<pdfrwt beam="1">  1       21 0.43134772E-02 0.30000000E+03</pdfrwt>
<pdfrwt beam="2">0</pdfrwt>
<totfact> 0.37020278E+04</totfact>
</mgrwt>
</event>
<event>
 6    1  0.1295671E-001  0.3000000E+03  0.7818608E-02  0.1093470E+00
         21   -1    0    0  501  502  0.00000000000E+00  0.00000000000E+00  0.45582644556E+01  0.45582644556E+01  0.00000000000E+00 0. -1.
         13   -1    0    0    0    0 -0.00000000000E+00 -0.00000000000E+00 -0.10000000000E+04  0.10000000000E+04  0.00000000000E+00 0.  1.
    9000005    2    1    2  501    0 -0.53915988890E+02 -0.11753427697E+02 -0.78692973681E+03  0.78886790645E+03  0.30143373380E+01 0.  0.
         13    1    3    3    0    0 -0.37603840565E+02 -0.83461436732E+01 -0.52918306127E+03  0.53058309366E+03  0.00000000000E+00 0.  1.
          3    1    3    3  501    0 -0.16312148325E+02 -0.34072840240E+01 -0.25774667554E+03  0.25828481279E+03  0.00000000000E+00 0.  1.
         -1    1    1    2    0  502  0.53915988890E+02  0.11753427697E+02 -0.20851199873E+03  0.21569035800E+03  0.00000000000E+00 0. -1.
<mgrwt>
<rscale>  1 0.30000000E+03</rscale>
<asrwt>0</asrwt>
<pdfrwt beam="1">  1       21 0.16575542E-01 0.30000000E+03</pdfrwt>
<pdfrwt beam="2">0</pdfrwt>
<totfact> 0.34195194E+03</totfact>
</mgrwt>
</event>
<event>
 6    1  0.1295671E-001  0.3000000E+03  0.7818608E-02  0.1093470E+00
         21   -1    0    0  501  502  0.00000000000E+00  0.00000000000E+00  0.13966062684E+01  0.13966062684E+01  0.00000000000E+00 0. -1.
         13   -1    0    0    0    0 -0.00000000000E+00 -0.00000000000E+00 -0.10000000000E+04  0.10000000000E+04  0.00000000000E+00 0.  1.
    9000005    2    1    2  501    0  0.12114419759E+02 -0.34266400361E+02 -0.61302867513E+03  0.61411271945E+03  0.30545550102E+01 0.  0.
         13    1    3    3    0    0  0.22894231798E+01 -0.99269552828E+01 -0.18422781093E+03  0.18450927407E+03  0.00000000000E+00 0.  1.
          3    1    3    3  501    0  0.98249965795E+01 -0.24339445078E+02 -0.42880086420E+03  0.42960344538E+03  0.00000000000E+00 0.  1.
         -1    1    1    2    0  502 -0.12114419759E+02  0.34266400361E+02 -0.38557471861E+03  0.38728388682E+03  0.00000000000E+00 0. -1.
<mgrwt>
<rscale>  1 0.30000000E+03</rscale>
<asrwt>0</asrwt>
<pdfrwt beam="1">  1       21 0.50785790E-02 0.30000000E+03</pdfrwt>
<pdfrwt beam="2">0</pdfrwt>
<totfact> 0.28048742E+04</totfact>
</mgrwt>
</event>
<event>
 6    1  0.1295671E-001  0.3000000E+03  0.7818608E-02  0.1093470E+00
         21   -1    0    0  501  502  0.00000000000E+00  0.00000000000E+00  0.26051995370E+01  0.26051995370E+01  0.00000000000E+00 0. -1.
         13   -1    0    0    0    0 -0.00000000000E+00 -0.00000000000E+00 -0.10000000000E+04  0.10000000000E+04  0.00000000000E+00 0.  1.
    9000005    2    1    2  501    0 -0.65620820522E+01  0.43271081914E+02 -0.75610641258E+03  0.75737972456E+03  0.34194412141E+01 0.  0.
         13    1    3    3    0    0 -0.51710081729E+01  0.39437137466E+02 -0.69522851289E+03  0.69636535832E+03  0.00000000000E+00 0.  1.
          1    1    3    3  501    0 -0.13910738793E+01  0.38339444480E+01 -0.60877899685E+02  0.61014366232E+02  0.00000000000E+00 0.  1.
         -1    1    1    2    0  502  0.65620820522E+01 -0.43271081914E+02 -0.24128838789E+03  0.24522547498E+03  0.00000000000E+00 0. -1.
<mgrwt>
<rscale>  1 0.30000000E+03</rscale>
<asrwt>0</asrwt>
<pdfrwt beam="1">  1       21 0.94734728E-02 0.30000000E+03</pdfrwt>
<pdfrwt beam="2">0</pdfrwt>
<totfact> 0.94747943E+03</totfact>
</mgrwt>
</event>
<event>
 6    1  0.1295671E-001  0.3000000E+03  0.7818608E-02  0.1093470E+00
         21   -1    0    0  501  502  0.00000000000E+00  0.00000000000E+00  0.10424879604E+01  0.10424879604E+01  0.00000000000E+00 0. -1.
         13   -1    0    0    0    0 -0.00000000000E+00 -0.00000000000E+00 -0.10000000000E+04  0.10000000000E+04  0.00000000000E+00 0.  1.
    9000005    2    1    2  501    0  0.73583019633E+00  0.31199515986E+02 -0.61977671484E+03  0.62057957491E+03  0.46777441861E+01 0.  0.
         13    1    3    3    0    0  0.25542374628E+01  0.11874467894E+02 -0.23717564105E+03  0.23748644556E+03  0.00000000000E+00 0.  1.
          1    1    3    3  501    0 -0.18184072664E+01  0.19325048091E+02 -0.38260107379E+03  0.38309312935E+03  0.00000000000E+00 0.  1.
         -3    1    1    2    0  502 -0.73583019633E+00 -0.31199515986E+02 -0.37918079720E+03  0.38046291305E+03  0.00000000000E+00 0. -1.
<mgrwt>
<rscale>  1 0.30000000E+03</rscale>
<asrwt>0</asrwt>
<pdfrwt beam="1">  1       21 0.37908733E-02 0.30000000E+03</pdfrwt>
<pdfrwt beam="2">0</pdfrwt>
<totfact> 0.46021631E+04</totfact>
</mgrwt>
</event>
<event>
 6    1  0.1295671E-001  0.3000000E+03  0.7818608E-02  0.1093470E+00
         21   -1    0    0  501  502  0.00000000000E+00  0.00000000000E+00  0.22404686692E+01  0.22404686692E+01  0.00000000000E+00 0. -1.
         13   -1    0    0    0    0 -0.00000000000E+00 -0.00000000000E+00 -0.10000000000E+04  0.10000000000E+04  0.00000000000E+00 0.  1.
    9000005    2    1    2  501    0 -0.90288918467E+01  0.42118084116E+02 -0.30014865113E+03  0.30330099055E+03  0.68428207953E+01 0.  0.
         13    1    3    3    0    0 -0.51648220497E+00  0.40917450681E+00 -0.12733966262E+02  0.12751002878E+02  0.00000000000E+00 0.  1.
          1    1    3    3  501    0 -0.85124096417E+01  0.41708909610E+02 -0.28741468487E+03  0.29054998767E+03  0.00000000000E+00 0.  1.
         -1    1    1    2    0  502  0.90288918467E+01 -0.42118084116E+02 -0.69761088020E+03  0.69893947812E+03  0.00000000000E+00 0. -1.
<mgrwt>
<rscale>  1 0.30000000E+03</rscale>
<asrwt>0</asrwt>
<pdfrwt beam="1">  1       21 0.81471760E-02 0.30000000E+03</pdfrwt>
<pdfrwt beam="2">0</pdfrwt>
<totfact> 0.12371118E+04</totfact>
</mgrwt>
</event>
<event>
 6    1  0.1295671E-001  0.3000000E+03  0.7818608E-02  0.1093470E+00
         21   -1    0    0  501  502  0.00000000000E+00  0.00000000000E+00  0.60353502498E+01  0.60353502498E+01  0.00000000000E+00 0. -1.
         13   -1    0    0    0    0 -0.00000000000E+00 -0.00000000000E+00 -0.10000000000E+04  0.10000000000E+04  0.00000000000E+00 0.  1.
    9000005    2    1    2  501    0 -0.49056545591E+02  0.24407531756E+02 -0.85347284039E+03  0.85523674028E+03  0.34235023809E+01 0.  0.
         13    1    3    3    0    0 -0.52379303458E+01  0.35374450017E+01 -0.87872868976E+02  0.88099889520E+02  0.00000000000E+00 0.  1.
          3    1    3    3  501    0 -0.43818615245E+02  0.20870086755E+02 -0.76559997141E+03  0.76713685076E+03  0.00000000000E+00 0.  1.
         -1    1    1    2    0  502  0.49056545591E+02 -0.24407531756E+02 -0.14049180936E+03  0.15079860997E+03  0.00000000000E+00 0. -1.
<mgrwt>
<rscale>  1 0.30000000E+03</rscale>
<asrwt>0</asrwt>
<pdfrwt beam="1">  1       21 0.21946774E-01 0.30000000E+03</pdfrwt>
<pdfrwt beam="2">0</pdfrwt>
<totfact> 0.20079349E+03</totfact>
</mgrwt>
</event>
<event>
 6    1  0.1295671E-001  0.3000000E+03  0.7818608E-02  0.1093470E+00
         21   -1    0    0  501  502  0.00000000000E+00  0.00000000000E+00  0.15038441625E+01  0.15038441625E+01  0.00000000000E+00 0. -1.
         13   -1    0    0    0    0 -0.00000000000E+00 -0.00000000000E+00 -0.10000000000E+04  0.10000000000E+04  0.00000000000E+00 0.  1.
    9000005    2    1    2  501    0 -0.23148441795E+02 -0.26773267279E+02 -0.70266905811E+03  0.70356705565E+03  0.31840814761E+01 0.  0.
         13    1    3    3    0    0 -0.97130387380E+01 -0.99852697859E+01 -0.30289665391E+03  0.30321680640E+03  0.00000000000E+00 0.  1.
          3    1    3    3  501    0 -0.13435403057E+02 -0.16787997493E+02 -0.39977240420E+03  0.40035024925E+03  0.00000000000E+00 0.  1.
         -3    1    1    2    0  502  0.23148441795E+02  0.26773267279E+02 -0.29582709773E+03  0.29793678851E+03  0.00000000000E+00 0. -1.
<mgrwt>
<rscale>  1 0.30000000E+03</rscale>
<asrwt>0</asrwt>
<pdfrwt beam="1">  1       21 0.54685358E-02 0.30000000E+03</pdfrwt>
<pdfrwt beam="2">0</pdfrwt>
<totfact> 0.24716049E+04</totfact>
</mgrwt>
</event>
<event>
 6    1  0.1295671E-001  0.3000000E+03  0.7818608E-02  0.1093470E+00
         21   -1    0    0  501  502  0.00000000000E+00  0.00000000000E+00  0.14259814609E+01  0.14259814609E+01  0.00000000000E+00 0. -1.
         13   -1    0    0    0    0 -0.00000000000E+00 -0.00000000000E+00 -0.10000000000E+04  0.10000000000E+04  0.00000000000E+00 0.  1.
    9000005    2    1    2  501    0  0.26600267203E+02 -0.22733407540E+02 -0.68579890056E+03  0.68669966152E+03  0.34512454867E+01 0.  0.
         13    1    3    3    0    0  0.60130073266E+01 -0.35276934417E+01 -0.12434626122E+03  0.12454153347E+03  0.00000000000E+00 0.  1.
          1    1    3    3  501    0  0.20587259876E+02 -0.19205714098E+02 -0.56145263933E+03  0.56215812806E+03  0.00000000000E+00 0.  1.
         -1    1    1    2    0  502 -0.26600267203E+02  0.22733407540E+02 -0.31277511798E+03  0.31472631994E+03  0.00000000000E+00 0. -1.
<mgrwt>
<rscale>  1 0.30000000E+03</rscale>
<asrwt>0</asrwt>
<pdfrwt beam="1">  1       21 0.51853981E-02 0.30000000E+03</pdfrwt>
<pdfrwt beam="2">0</pdfrwt>
<totfact> 0.27069599E+04</totfact>
</mgrwt>
</event>
<event>
 6    1  0.1295671E-001  0.3000000E+03  0.7818608E-02  0.1093470E+00
         21   -1    0    0  501  502  0.00000000000E+00  0.00000000000E+00  0.16885671850E+01  0.16885671850E+01  0.00000000000E+00 0. -1.
         13   -1    0    0    0    0 -0.00000000000E+00 -0.00000000000E+00 -0.10000000000E+04  0.10000000000E+04  0.00000000000E+00 0.  1.
    9000005    2    1    2  501    0 -0.33278163459E+02 -0.14778442486E+02 -0.73033478124E+03  0.73124943481E+03  0.33173346044E+01 0.  0.
         13    1    3    3    0    0 -0.21064974314E+02 -0.96664560657E+01 -0.43260570715E+03  0.43322612038E+03  0.00000000000E+00 0.  1.
          3    1    3    3  501    0 -0.12213189145E+02 -0.51119864202E+01 -0.29772907408E+03  0.29802331444E+03  0.00000000000E+00 0.  1.
         -3    1    1    2    0  502  0.33278163459E+02  0.14778442486E+02 -0.26797665158E+03  0.27043913237E+03  0.00000000000E+00 0. -1.
<mgrwt>
<rscale>  1 0.30000000E+03</rscale>
<asrwt>0</asrwt>
<pdfrwt beam="1">  1       21 0.61402573E-02 0.30000000E+03</pdfrwt>
<pdfrwt beam="2">0</pdfrwt>
<totfact> 0.20248054E+04</totfact>
</mgrwt>
</event>
<event>
 6    1  0.1295671E-001  0.3000000E+03  0.7818608E-02  0.1093470E+00
         21   -1    0    0  501  502  0.00000000000E+00  0.00000000000E+00  0.89569578925E+01  0.89569578925E+01  0.00000000000E+00 0. -1.
         13   -1    0    0    0    0 -0.00000000000E+00 -0.00000000000E+00 -0.10000000000E+04  0.10000000000E+04  0.00000000000E+00 0.  1.
    9000005    2    1    2  501    0 -0.76441168722E+02  0.36752688295E+02 -0.71916182826E+03  0.72415280270E+03  0.30877269213E+01 0.  0.
         13    1    3    3    0    0 -0.70376189348E+02  0.33800739946E+02 -0.66870385481E+03  0.67324597547E+03  0.00000000000E+00 0.  1.
          3    1    3    3  501    0 -0.60649793749E+01  0.29519483482E+01 -0.50457973448E+02  0.50906827227E+02  0.00000000000E+00 0.  1.
         -3    1    1    2    0  502  0.76441168722E+02 -0.36752688295E+02 -0.27188121385E+03  0.28480415520E+03  0.00000000000E+00 0. -1.
<mgrwt>
<rscale>  1 0.30000000E+03</rscale>
<asrwt>0</asrwt>
<pdfrwt beam="1">  1       21 0.32570825E-01 0.30000000E+03</pdfrwt>
<pdfrwt beam="2">0</pdfrwt>
<totfact> 0.92138590E+02</totfact>
</mgrwt>
</event>
<event>
 6    1  0.1295671E-001  0.3000000E+03  0.7818608E-02  0.1093470E+00
         21   -1    0    0  501  502  0.00000000000E+00  0.00000000000E+00  0.14208114337E+01  0.14208114337E+01  0.00000000000E+00 0. -1.
         13   -1    0    0    0    0 -0.00000000000E+00 -0.00000000000E+00 -0.10000000000E+04  0.10000000000E+04  0.00000000000E+00 0.  1.
    9000005    2    1    2  501    0  0.51281257682E+01  0.31299659702E+02 -0.76920378061E+03  0.76986294793E+03  0.29216660344E+01 0.  0.
         13    1    3    3    0    0  0.50476798871E-01  0.97154599266E+00 -0.38733107295E+02  0.38745322946E+02  0.00000000000E+00 0.  1.
          3    1    3    3  501    0  0.50776489693E+01  0.30328113709E+02 -0.73047067331E+03  0.73111762499E+03  0.00000000000E+00 0.  1.
         -3    1    1    2    0  502 -0.51281257682E+01 -0.31299659702E+02 -0.22937540796E+03  0.23155786350E+03  0.00000000000E+00 0. -1.
<mgrwt>
<rscale>  1 0.30000000E+03</rscale>
<asrwt>0</asrwt>
<pdfrwt beam="1">  1       21 0.51665979E-02 0.30000000E+03</pdfrwt>
<pdfrwt beam="2">0</pdfrwt>
<totfact> 0.27238042E+04</totfact>
</mgrwt>
</event>
<event>
 6    1  0.1295671E-001  0.3000000E+03  0.7818608E-02  0.1093470E+00
         21   -1    0    0  501  502  0.00000000000E+00  0.00000000000E+00  0.15974870465E+01  0.15974870465E+01  0.00000000000E+00 0. -1.
         13   -1    0    0    0    0 -0.00000000000E+00 -0.00000000000E+00 -0.10000000000E+04  0.10000000000E+04  0.00000000000E+00 0.  1.
    9000005    2    1    2  501    0 -0.31826982393E+02 -0.68764260731E+01 -0.78847810528E+03  0.78916279360E+03  0.44665701353E+01 0.  0.
         13    1    3    3    0    0 -0.18962055578E+02 -0.25043653979E+01 -0.42301051274E+03  0.42344270603E+03  0.00000000000E+00 0.  1.
          1    1    3    3  501    0 -0.12864926814E+02 -0.43720606752E+01 -0.36546759254E+03  0.36572008757E+03  0.00000000000E+00 0.  1.
         -3    1    1    2    0  502  0.31826982393E+02  0.68764260731E+01 -0.20992440767E+03  0.21243469345E+03  0.00000000000E+00 0. -1.
<mgrwt>
<rscale>  1 0.30000000E+03</rscale>
<asrwt>0</asrwt>
<pdfrwt beam="1">  1       21 0.58090561E-02 0.30000000E+03</pdfrwt>
<pdfrwt beam="2">0</pdfrwt>
<totfact> 0.22279626E+04</totfact>
</mgrwt>
</event>
<event>
 6    1  0.1295671E-001  0.3000000E+03  0.7818608E-02  0.1093470E+00
         21   -1    0    0  501  502  0.00000000000E+00  0.00000000000E+00  0.16742150944E+01  0.16742150944E+01  0.00000000000E+00 0. -1.
         13   -1    0    0    0    0 -0.00000000000E+00 -0.00000000000E+00 -0.10000000000E+04  0.10000000000E+04  0.00000000000E+00 0.  1.
    9000005    2    1    2  501    0 -0.59103536874E+01 -0.35266344395E+02 -0.74180305010E+03  0.74267120198E+03  0.31783316757E+01 0.  0.
         13    1    3    3    0    0 -0.10084073274E+01 -0.18375747609E+01 -0.38301951032E+02  0.38359262495E+02  0.00000000000E+00 0.  1.
          3    1    3    3  501    0 -0.49019463600E+01 -0.33428769634E+02 -0.70350109907E+03  0.70431193949E+03  0.00000000000E+00 0.  1.
         -1    1    1    2    0  502  0.59103536874E+01  0.35266344395E+02 -0.25652273481E+03  0.25900301311E+03  0.00000000000E+00 0. -1.
<mgrwt>
<rscale>  1 0.30000000E+03</rscale>
<asrwt>0</asrwt>
<pdfrwt beam="1">  1       21 0.60880677E-02 0.30000000E+03</pdfrwt>
<pdfrwt beam="2">0</pdfrwt>
<totfact> 0.20548575E+04</totfact>
</mgrwt>
</event>
<event>
 6    1  0.1295671E-001  0.3000000E+03  0.7818608E-02  0.1093470E+00
         21   -1    0    0  501  502  0.00000000000E+00  0.00000000000E+00  0.19558659210E+01  0.19558659210E+01  0.00000000000E+00 0. -1.
         13   -1    0    0    0    0 -0.00000000000E+00 -0.00000000000E+00 -0.10000000000E+04  0.10000000000E+04  0.00000000000E+00 0.  1.
    9000005    2    1    2  501    0 -0.42246581663E+02 -0.49226332806E+00 -0.64491493845E+03  0.64630822458E+03  0.37453089682E+01 0.  0.
         13    1    3    3    0    0 -0.20724843221E+02 -0.26852004702E+00 -0.34495407440E+03  0.34557619229E+03  0.00000000000E+00 0.  1.
          1    1    3    3  501    0 -0.21521738442E+02 -0.22374328104E+00 -0.29996086405E+03  0.30073203230E+03  0.00000000000E+00 0.  1.
         -3    1    1    2    0  502  0.42246581663E+02  0.49226332806E+00 -0.35312919563E+03  0.35564764134E+03  0.00000000000E+00 0. -1.
<mgrwt>
<rscale>  1 0.30000000E+03</rscale>
<asrwt>0</asrwt>
<pdfrwt beam="1">  1       21 0.71122547E-02 0.30000000E+03</pdfrwt>
<pdfrwt beam="2">0</pdfrwt>
<totfact> 0.15694388E+04</totfact>
</mgrwt>
</event>
<event>
 6    1  0.1295671E-001  0.3000000E+03  0.7818608E-02  0.1093470E+00
         21   -1    0    0  501  502  0.00000000000E+00  0.00000000000E+00  0.12279957407E+01  0.12279957407E+01  0.00000000000E+00 0. -1.
         13   -1    0    0    0    0 -0.00000000000E+00 -0.00000000000E+00 -0.10000000000E+04  0.10000000000E+04  0.00000000000E+00 0.  1.
    9000005    2    1    2  501    0 -0.32313712069E+02 -0.35636842345E+01 -0.68499425233E+03  0.68577062392E+03  0.27105474463E+01 0.  0.
         13    1    3    3    0    0 -0.31756719905E+01  0.34023054170E+00 -0.58851353460E+02  0.58937954270E+02  0.00000000000E+00 0.  1.
          3    1    3    3  501    0 -0.29138040078E+02 -0.39039147762E+01 -0.62614289887E+03  0.62683266965E+03  0.00000000000E+00 0.  1.
         -3    1    1    2    0  502  0.32313712069E+02  0.35636842345E+01 -0.31377775193E+03  0.31545737182E+03  0.00000000000E+00 0. -1.
<mgrwt>
<rscale>  1 0.30000000E+03</rscale>
<asrwt>0</asrwt>
<pdfrwt beam="1">  1       21 0.44654485E-02 0.30000000E+03</pdfrwt>
<pdfrwt beam="2">0</pdfrwt>
<totfact> 0.34911698E+04</totfact>
</mgrwt>
</event>
<event>
 6    1  0.1295671E-001  0.3000000E+03  0.7818608E-02  0.1093470E+00
         21   -1    0    0  501  502  0.00000000000E+00  0.00000000000E+00  0.14444447960E+01  0.14444447960E+01  0.00000000000E+00 0. -1.
         13   -1    0    0    0    0 -0.00000000000E+00 -0.00000000000E+00 -0.10000000000E+04  0.10000000000E+04  0.00000000000E+00 0.  1.
    9000005    2    1    2  501    0  0.27447733229E+02 -0.20698617160E+02 -0.71159343693E+03  0.71243048642E+03  0.31886810992E+01 0.  0.
         13    1    3    3    0    0  0.93530878204E+00 -0.24470526152E+00 -0.13614157262E+02  0.13648441711E+02  0.00000000000E+00 0.  1.
          1    1    3    3  501    0  0.26512424447E+02 -0.20453911899E+02 -0.69797927967E+03  0.69878204471E+03  0.00000000000E+00 0.  1.
         -1    1    1    2    0  502 -0.27447733229E+02  0.20698617160E+02 -0.28696211827E+03  0.28901395837E+03  0.00000000000E+00 0. -1.
<mgrwt>
<rscale>  1 0.30000000E+03</rscale>
<asrwt>0</asrwt>
<pdfrwt beam="1">  1       21 0.52525376E-02 0.30000000E+03</pdfrwt>
<pdfrwt beam="2">0</pdfrwt>
<totfact> 0.26481049E+04</totfact>
</mgrwt>
</event>
<event>
 6    1  0.1295671E-001  0.3000000E+03  0.7818608E-02  0.1093470E+00
         21   -1    0    0  501  502  0.00000000000E+00  0.00000000000E+00  0.41677480057E+01  0.41677480057E+01  0.00000000000E+00 0. -1.
         13   -1    0    0    0    0 -0.00000000000E+00 -0.00000000000E+00 -0.10000000000E+04  0.10000000000E+04  0.00000000000E+00 0.  1.
    9000005    2    1    2  501    0  0.29476843699E+02 -0.52015578582E+02 -0.68668641834E+03  0.68929372368E+03  0.36187900575E+01 0.  0.
         13    1    3    3    0    0  0.20722966001E+02 -0.33142104121E+02 -0.44424542167E+03  0.44596169686E+03  0.00000000000E+00 0.  1.
          3    1    3    3  501    0  0.87538776982E+01 -0.18873474461E+02 -0.24244099666E+03  0.24333202682E+03  0.00000000000E+00 0.  1.
         -3    1    1    2    0  502 -0.29476843699E+02  0.52015578582E+02 -0.30914583366E+03  0.31487402433E+03  0.00000000000E+00 0. -1.
<mgrwt>
<rscale>  1 0.30000000E+03</rscale>
<asrwt>0</asrwt>
<pdfrwt beam="1">  1       21 0.15155479E-01 0.30000000E+03</pdfrwt>
<pdfrwt beam="2">0</pdfrwt>
<totfact> 0.40401353E+03</totfact>
</mgrwt>
</event>
<event>
 6    1  0.1295671E-001  0.3000000E+03  0.7818608E-02  0.1093470E+00
         21   -1    0    0  501  502  0.00000000000E+00  0.00000000000E+00  0.16474009078E+01  0.16474009078E+01  0.00000000000E+00 0. -1.
         13   -1    0    0    0    0 -0.00000000000E+00 -0.00000000000E+00 -0.10000000000E+04  0.10000000000E+04  0.00000000000E+00 0.  1.
    9000005    2    1    2  501    0  0.20212673188E+02  0.29252712093E+02 -0.73987695813E+03  0.74073758834E+03  0.31604254414E+01 0.  0.
         13    1    3    3    0    0  0.57415228965E+01  0.60731634543E+01 -0.18201603323E+03  0.18220780651E+03  0.00000000000E+00 0.  1.
          1    1    3    3  501    0  0.14471150292E+02  0.23179548639E+02 -0.55786092490E+03  0.55852978184E+03  0.00000000000E+00 0.  1.
         -3    1    1    2    0  502 -0.20212673188E+02 -0.29252712093E+02 -0.25847564096E+03  0.26090981256E+03  0.00000000000E+00 0. -1.
<mgrwt>
<rscale>  1 0.30000000E+03</rscale>
<asrwt>0</asrwt>
<pdfrwt beam="1">  1       21 0.59905614E-02 0.30000000E+03</pdfrwt>
<pdfrwt beam="2">0</pdfrwt>
<totfact> 0.21128954E+04</totfact>
</mgrwt>
</event>
<event>
 6    1  0.1295671E-001  0.3000000E+03  0.7818608E-02  0.1093470E+00
         21   -1    0    0  501  502  0.00000000000E+00  0.00000000000E+00  0.12914641849E+01  0.12914641849E+01  0.00000000000E+00 0. -1.
         13   -1    0    0    0    0 -0.00000000000E+00 -0.00000000000E+00 -0.10000000000E+04  0.10000000000E+04  0.00000000000E+00 0.  1.
    9000005    2    1    2  501    0  0.42963412742E+01  0.31720781751E+02 -0.72507937139E+03  0.72579629877E+03  0.39377593927E+01 0.  0.
         13    1    3    3    0    0  0.34217163492E+01  0.19953071088E+02 -0.41721351359E+03  0.41770438004E+03  0.00000000000E+00 0.  1.
          3    1    3    3  501    0  0.87462492495E+00  0.11767710663E+02 -0.30786585781E+03  0.30809191873E+03  0.00000000000E+00 0.  1.
         -3    1    1    2    0  502 -0.42963412742E+01 -0.31720781751E+02 -0.27362916442E+03  0.27549516541E+03  0.00000000000E+00 0. -1.
<mgrwt>
<rscale>  1 0.30000000E+03</rscale>
<asrwt>0</asrwt>
<pdfrwt beam="1">  1       21 0.46962433E-02 0.30000000E+03</pdfrwt>
<pdfrwt beam="2">0</pdfrwt>
<totfact> 0.32047873E+04</totfact>
</mgrwt>
</event>
<event>
 6    1  0.1295671E-001  0.3000000E+03  0.7818608E-02  0.1093470E+00
         21   -1    0    0  501  502  0.00000000000E+00  0.00000000000E+00  0.29123972859E+01  0.29123972859E+01  0.00000000000E+00 0. -1.
         13   -1    0    0    0    0 -0.00000000000E+00 -0.00000000000E+00 -0.10000000000E+04  0.10000000000E+04  0.00000000000E+00 0.  1.
    9000005    2    1    2  501    0  0.87660843771E+01 -0.53189040295E+02 -0.48967220610E+03  0.49264158393E+03  0.33079520169E+01 0.  0.
         13    1    3    3    0    0  0.44171400797E+01 -0.17382435385E+02 -0.16004932410E+03  0.16105106746E+03  0.00000000000E+00 0.  1.
          3    1    3    3  501    0  0.43489442973E+01 -0.35806604910E+02 -0.32962288200E+03  0.33159051647E+03  0.00000000000E+00 0.  1.
         -3    1    1    2    0  502 -0.87660843771E+01  0.53189040295E+02 -0.50741539661E+03  0.51027081335E+03  0.00000000000E+00 0. -1.
<mgrwt>
<rscale>  1 0.30000000E+03</rscale>
<asrwt>0</asrwt>
<pdfrwt beam="1">  1       21 0.10590558E-01 0.30000000E+03</pdfrwt>
<pdfrwt beam="2">0</pdfrwt>
<totfact> 0.77633982E+03</totfact>
</mgrwt>
</event>
<event>
 6    1  0.1295671E-001  0.3000000E+03  0.7818608E-02  0.1093470E+00
         21   -1    0    0  501  502  0.00000000000E+00  0.00000000000E+00  0.22100728821E+01  0.22100728821E+01  0.00000000000E+00 0. -1.
         13   -1    0    0    0    0 -0.00000000000E+00 -0.00000000000E+00 -0.10000000000E+04  0.10000000000E+04  0.00000000000E+00 0.  1.
    9000005    2    1    2  501    0  0.57482841338E+00  0.35603264758E+02 -0.82576547581E+03  0.82653897470E+03  0.31832008024E+01 0.  0.
         13    1    3    3    0    0  0.72167466487E+00  0.35859414880E+01 -0.69805780726E+02  0.69901550866E+02  0.00000000000E+00 0.  1.
          1    1    3    3  501    0 -0.14684625149E+00  0.32017323270E+02 -0.75595969509E+03  0.75663742383E+03  0.00000000000E+00 0.  1.
         -3    1    1    2    0  502 -0.57482841338E+00 -0.35603264758E+02 -0.17202445131E+03  0.17567109818E+03  0.00000000000E+00 0. -1.
<mgrwt>
<rscale>  1 0.30000000E+03</rscale>
<asrwt>0</asrwt>
<pdfrwt beam="1">  1       21 0.80366456E-02 0.30000000E+03</pdfrwt>
<pdfrwt beam="2">0</pdfrwt>
<totfact> 0.12671724E+04</totfact>
</mgrwt>
</event>
<event>
 6    1  0.1295671E-001  0.3000000E+03  0.7818608E-02  0.1093470E+00
         21   -1    0    0  501  502  0.00000000000E+00  0.00000000000E+00  0.17162508490E+01  0.17162508490E+01  0.00000000000E+00 0. -1.
         13   -1    0    0    0    0 -0.00000000000E+00 -0.00000000000E+00 -0.10000000000E+04  0.10000000000E+04  0.00000000000E+00 0.  1.
    9000005    2    1    2  501    0  0.28736805642E+02  0.12635296305E+02 -0.82552525572E+03  0.82612880322E+03  0.33759401812E+01 0.  0.
         13    1    3    3    0    0  0.88278497358E+01  0.22179198568E+01 -0.23497876333E+03  0.23515498998E+03  0.00000000000E+00 0.  1.
          1    1    3    3  501    0  0.19908955906E+02  0.10417376448E+02 -0.59054649239E+03  0.59097381323E+03  0.00000000000E+00 0.  1.
         -1    1    1    2    0  502 -0.28736805642E+02 -0.12635296305E+02 -0.17275849343E+03  0.17558744763E+03  0.00000000000E+00 0. -1.
<mgrwt>
<rscale>  1 0.30000000E+03</rscale>
<asrwt>0</asrwt>
<pdfrwt beam="1">  1       21 0.62409253E-02 0.30000000E+03</pdfrwt>
<pdfrwt beam="2">0</pdfrwt>
<totfact> 0.19687327E+04</totfact>
</mgrwt>
</event>
<event>
 6    1  0.1295671E-001  0.3000000E+03  0.7818608E-02  0.1093470E+00
         21   -1    0    0  501  502  0.00000000000E+00  0.00000000000E+00  0.13281102381E+01  0.13281102381E+01  0.00000000000E+00 0. -1.
         13   -1    0    0    0    0 -0.00000000000E+00 -0.00000000000E+00 -0.10000000000E+04  0.10000000000E+04  0.00000000000E+00 0.  1.
    9000005    2    1    2  501    0  0.21573073897E+02  0.25483496133E+02 -0.68788022630E+03  0.68874809781E+03  0.89403808111E+01 0.  0.
         13    1    3    3    0    0  0.20192454746E+02  0.26141200603E+02 -0.65950528150E+03  0.66033197251E+03  0.00000000000E+00 0.  1.
          1    1    3    3  501    0  0.13806191515E+01 -0.65770447025E+00 -0.28374944800E+02  0.28416125295E+02  0.00000000000E+00 0.  1.
         -3    1    1    2    0  502 -0.21573073897E+02 -0.25483496133E+02 -0.31079166347E+03  0.31258001243E+03  0.00000000000E+00 0. -1.
<mgrwt>
<rscale>  1 0.30000000E+03</rscale>
<asrwt>0</asrwt>
<pdfrwt beam="1">  1       21 0.48295020E-02 0.30000000E+03</pdfrwt>
<pdfrwt beam="2">0</pdfrwt>
<totfact> 0.30558220E+04</totfact>
</mgrwt>
</event>
<event>
 6    1  0.1295671E-001  0.3000000E+03  0.7818608E-02  0.1093470E+00
         21   -1    0    0  501  502  0.00000000000E+00  0.00000000000E+00  0.42639537311E+01  0.42639537311E+01  0.00000000000E+00 0. -1.
         13   -1    0    0    0    0 -0.00000000000E+00 -0.00000000000E+00 -0.10000000000E+04  0.10000000000E+04  0.00000000000E+00 0.  1.
    9000005    2    1    2  501    0 -0.61886279727E+02 -0.10745307542E+02 -0.63131011481E+03  0.63446450434E+03  0.68828009977E+01 0.  0.
         13    1    3    3    0    0 -0.33654266274E+02 -0.30365271334E+01 -0.35863030992E+03  0.36021872429E+03  0.00000000000E+00 0.  1.
          1    1    3    3  501    0 -0.28232013453E+02 -0.77087804083E+01 -0.27267980489E+03  0.27424578005E+03  0.00000000000E+00 0.  1.
         -1    1    1    2    0  502  0.61886279727E+02  0.10745307542E+02 -0.36442593146E+03  0.36979944939E+03  0.00000000000E+00 0. -1.
<mgrwt>
<rscale>  1 0.30000000E+03</rscale>
<asrwt>0</asrwt>
<pdfrwt beam="1">  1       21 0.15505319E-01 0.30000000E+03</pdfrwt>
<pdfrwt beam="2">0</pdfrwt>
<totfact> 0.38725936E+03</totfact>
</mgrwt>
</event>
<event>
 6    1  0.1295671E-001  0.3000000E+03  0.7818608E-02  0.1093470E+00
         21   -1    0    0  501  502  0.00000000000E+00  0.00000000000E+00  0.22366563461E+01  0.22366563461E+01  0.00000000000E+00 0. -1.
         13   -1    0    0    0    0 -0.00000000000E+00 -0.00000000000E+00 -0.10000000000E+04  0.10000000000E+04  0.00000000000E+00 0.  1.
    9000005    2    1    2  501    0 -0.44151558038E+02 -0.90597727881E+01 -0.64887168610E+03  0.65044576921E+03  0.37140412994E+01 0.  0.
         13    1    3    3    0    0 -0.19513970756E+02 -0.58789026602E+01 -0.29538554491E+03  0.29608778545E+03  0.00000000000E+00 0.  1.
          1    1    3    3  501    0 -0.24637587282E+02 -0.31808701279E+01 -0.35348614119E+03  0.35435798376E+03  0.00000000000E+00 0.  1.
         -1    1    1    2    0  502  0.44151558038E+02  0.90597727881E+01 -0.34889165755E+03  0.35179088714E+03  0.00000000000E+00 0. -1.
<mgrwt>
<rscale>  1 0.30000000E+03</rscale>
<asrwt>0</asrwt>
<pdfrwt beam="1">  1       21 0.81333130E-02 0.30000000E+03</pdfrwt>
<pdfrwt beam="2">0</pdfrwt>
<totfact> 0.12408218E+04</totfact>
</mgrwt>
</event>
<event>
 6    1  0.1295671E-001  0.3000000E+03  0.7818608E-02  0.1093470E+00
         21   -1    0    0  501  502  0.00000000000E+00  0.00000000000E+00  0.50997821419E+01  0.50997821419E+01  0.00000000000E+00 0. -1.
         13   -1    0    0    0    0 -0.00000000000E+00 -0.00000000000E+00 -0.10000000000E+04  0.10000000000E+04  0.00000000000E+00 0.  1.
    9000005    2    1    2  501    0 -0.29182977568E+02  0.27140946634E+02 -0.91441095585E+03  0.91528442453E+03  0.31471335716E+01 0.  0.
         13    1    3    3    0    0 -0.48083666112E+01  0.45882984988E+01 -0.18122537559E+03  0.18134720740E+03  0.00000000000E+00 0.  1.
          1    1    3    3  501    0 -0.24374610957E+02  0.22552648135E+02 -0.73318558026E+03  0.73393721713E+03  0.00000000000E+00 0.  1.
         -3    1    1    2    0  502  0.29182977568E+02 -0.27140946634E+02 -0.80489262013E+02  0.89815357614E+02  0.00000000000E+00 0. -1.
<mgrwt>
<rscale>  1 0.30000000E+03</rscale>
<asrwt>0</asrwt>
<pdfrwt beam="1">  1       21 0.18544701E-01 0.30000000E+03</pdfrwt>
<pdfrwt beam="2">0</pdfrwt>
<totfact> 0.27693366E+03</totfact>
</mgrwt>
</event>
<event>
 6    1  0.1295671E-001  0.3000000E+03  0.7818608E-02  0.1093470E+00
         21   -1    0    0  501  502  0.00000000000E+00  0.00000000000E+00  0.10926179607E+02  0.10926179607E+02  0.00000000000E+00 0. -1.
         13   -1    0    0    0    0 -0.00000000000E+00 -0.00000000000E+00 -0.10000000000E+04  0.10000000000E+04  0.00000000000E+00 0.  1.
    9000005    2    1    2  501    0  0.96731380054E+02  0.29381063811E+02 -0.62270756270E+03  0.63086770835E+03  0.30248961922E+01 0.  0.
         13    1    3    3    0    0  0.30129004739E+02  0.10605101080E+02 -0.19538334026E+03  0.19797695509E+03  0.00000000000E+00 0.  1.
          3    1    3    3  501    0  0.66602375315E+02  0.18775962732E+02 -0.42732422244E+03  0.43289075326E+03  0.00000000000E+00 0.  1.
         -3    1    1    2    0  502 -0.96731380054E+02 -0.29381063811E+02 -0.36636625769E+03  0.38005847126E+03  0.00000000000E+00 0. -1.
<mgrwt>
<rscale>  1 0.30000000E+03</rscale>
<asrwt>0</asrwt>
<pdfrwt beam="1">  1       21 0.39731646E-01 0.30000000E+03</pdfrwt>
<pdfrwt beam="2">0</pdfrwt>
<totfact> 0.61256215E+02</totfact>
</mgrwt>
</event>
<event>
 6    1  0.1295671E-001  0.3000000E+03  0.7818608E-02  0.1093470E+00
         21   -1    0    0  501  502  0.00000000000E+00  0.00000000000E+00  0.11678951147E+01  0.11678951147E+01  0.00000000000E+00 0. -1.
         13   -1    0    0    0    0 -0.00000000000E+00 -0.00000000000E+00 -0.10000000000E+04  0.10000000000E+04  0.00000000000E+00 0.  1.
    9000005    2    1    2  501    0  0.30594733858E+02 -0.83172684575E+01 -0.68073686380E+03  0.68149650588E+03  0.54401374186E+01 0.  0.
         13    1    3    3    0    0  0.26583025524E+02 -0.65466696465E+01 -0.61832145460E+03  0.61892724722E+03  0.00000000000E+00 0.  1.
          1    1    3    3  501    0  0.40117083343E+01 -0.17705988110E+01 -0.62415409205E+02  0.62569258667E+02  0.00000000000E+00 0.  1.
         -3    1    1    2    0  502 -0.30594733858E+02  0.83172684575E+01 -0.31809524108E+03  0.31967138923E+03  0.00000000000E+00 0. -1.
<mgrwt>
<rscale>  1 0.30000000E+03</rscale>
<asrwt>0</asrwt>
<pdfrwt beam="1">  1       21 0.42469003E-02 0.30000000E+03</pdfrwt>
<pdfrwt beam="2">0</pdfrwt>
<totfact> 0.38006776E+04</totfact>
</mgrwt>
</event>
<event>
 6    1  0.1295671E-001  0.3000000E+03  0.7818608E-02  0.1093470E+00
         21   -1    0    0  501  502  0.00000000000E+00  0.00000000000E+00  0.12111846388E+01  0.12111846388E+01  0.00000000000E+00 0. -1.
         13   -1    0    0    0    0 -0.00000000000E+00 -0.00000000000E+00 -0.10000000000E+04  0.10000000000E+04  0.00000000000E+00 0.  1.
    9000005    2    1    2  501    0  0.20099136539E+02 -0.22684196145E+02 -0.74374117721E+03  0.74436912077E+03  0.39876356508E+01 0.  0.
         13    1    3    3    0    0  0.19263754130E+02 -0.22632437733E+02 -0.72639691910E+03  0.72700467917E+03  0.00000000000E+00 0.  1.
          1    1    3    3  501    0  0.83538240872E+00 -0.51758412660E-01 -0.17344258111E+02  0.17364441602E+02  0.00000000000E+00 0.  1.
         -1    1    1    2    0  502 -0.20099136539E+02  0.22684196145E+02 -0.25504763815E+03  0.25684206386E+03  0.00000000000E+00 0. -1.
<mgrwt>
<rscale>  1 0.30000000E+03</rscale>
<asrwt>0</asrwt>
<pdfrwt beam="1">  1       21 0.44043171E-02 0.30000000E+03</pdfrwt>
<pdfrwt beam="2">0</pdfrwt>
<totfact> 0.35736986E+04</totfact>
</mgrwt>
</event>
<event>
 6    1  0.1295671E-001  0.3000000E+03  0.7818608E-02  0.1093470E+00
         21   -1    0    0  501  502  0.00000000000E+00  0.00000000000E+00  0.91195444752E+00  0.91195444752E+00  0.00000000000E+00 0. -1.
         13   -1    0    0    0    0 -0.00000000000E+00 -0.00000000000E+00 -0.10000000000E+04  0.10000000000E+04  0.00000000000E+00 0.  1.
    9000005    2    1    2  501    0 -0.27936324612E+02  0.11255917315E+02 -0.50452596376E+03  0.50543361319E+03  0.30911693306E+01 0.  0.
         13    1    3    3    0    0 -0.98213060331E+01  0.44270024213E+01 -0.15741552353E+03  0.15778372366E+03  0.00000000000E+00 0.  1.
          1    1    3    3  501    0 -0.18115018579E+02  0.68289148937E+01 -0.34711044023E+03  0.34764988953E+03  0.00000000000E+00 0.  1.
         -3    1    1    2    0  502  0.27936324612E+02 -0.11255917315E+02 -0.49456208179E+03  0.49547834126E+03  0.00000000000E+00 0. -1.
<mgrwt>
<rscale>  1 0.30000000E+03</rscale>
<asrwt>0</asrwt>
<pdfrwt beam="1">  1       21 0.33162050E-02 0.30000000E+03</pdfrwt>
<pdfrwt beam="2">0</pdfrwt>
<totfact> 0.57581031E+04</totfact>
</mgrwt>
</event>
<event>
 6    1  0.1295671E-001  0.3000000E+03  0.7818608E-02  0.1093470E+00
         21   -1    0    0  501  502  0.00000000000E+00  0.00000000000E+00  0.12929575635E+01  0.12929575635E+01  0.00000000000E+00 0. -1.
         13   -1    0    0    0    0 -0.00000000000E+00 -0.00000000000E+00 -0.10000000000E+04  0.10000000000E+04  0.00000000000E+00 0.  1.
    9000005    2    1    2  501    0 -0.10497559651E+02  0.32701751551E+02 -0.64348876380E+03  0.64441814927E+03  0.41663732034E+01 0.  0.
         13    1    3    3    0    0 -0.10186584174E+01  0.14343743357E+01 -0.49755824920E+02  0.49786918043E+02  0.00000000000E+00 0.  1.
          1    1    3    3  501    0 -0.94789012337E+01  0.31267377215E+02 -0.59373293888E+03  0.59463123123E+03  0.00000000000E+00 0.  1.
         -3    1    1    2    0  502  0.10497559651E+02 -0.32701751551E+02 -0.35521827864E+03  0.35687480829E+03  0.00000000000E+00 0. -1.
<mgrwt>
<rscale>  1 0.30000000E+03</rscale>
<asrwt>0</asrwt>
<pdfrwt beam="1">  1       21 0.47016738E-02 0.30000000E+03</pdfrwt>
<pdfrwt beam="2">0</pdfrwt>
<totfact> 0.31984964E+04</totfact>
</mgrwt>
</event>
<event>
 6    1  0.1295671E-001  0.3000000E+03  0.7818608E-02  0.1093470E+00
         21   -1    0    0  501  502  0.00000000000E+00  0.00000000000E+00  0.14393028659E+01  0.14393028659E+01  0.00000000000E+00 0. -1.
         13   -1    0    0    0    0 -0.00000000000E+00 -0.00000000000E+00 -0.10000000000E+04  0.10000000000E+04  0.00000000000E+00 0.  1.
    9000005    2    1    2  501    0 -0.16753485469E+02  0.26680250202E+02 -0.77748389392E+03  0.77812905244E+03  0.33319542501E+01 0.  0.
         13    1    3    3    0    0 -0.53514051901E+01  0.99634898870E+01 -0.24523664867E+03  0.24549729636E+03  0.00000000000E+00 0.  1.
          1    1    3    3  501    0 -0.11402080279E+02  0.16716760315E+02 -0.53224724524E+03  0.53263175607E+03  0.00000000000E+00 0.  1.
         -1    1    1    2    0  502  0.16753485469E+02 -0.26680250202E+02 -0.22107680322E+03  0.22331025043E+03  0.00000000000E+00 0. -1.
<mgrwt>
<rscale>  1 0.30000000E+03</rscale>
<asrwt>0</asrwt>
<pdfrwt beam="1">  1       21 0.52338396E-02 0.30000000E+03</pdfrwt>
<pdfrwt beam="2">0</pdfrwt>
<totfact> 0.26642949E+04</totfact>
</mgrwt>
</event>
<event>
 6    1  0.1295671E-001  0.3000000E+03  0.7818608E-02  0.1093470E+00
         21   -1    0    0  501  502  0.00000000000E+00  0.00000000000E+00  0.21855850069E+01  0.21855850069E+01  0.00000000000E+00 0. -1.
         13   -1    0    0    0    0 -0.00000000000E+00 -0.00000000000E+00 -0.10000000000E+04  0.10000000000E+04  0.00000000000E+00 0.  1.
    9000005    2    1    2  501    0  0.12893739879E+02  0.36401929845E+02 -0.78076898793E+03  0.78173135748E+03  0.35147877969E+01 0.  0.
         13    1    3    3    0    0  0.12745225095E+02  0.36414102904E+02 -0.77419237499E+03  0.77515305660E+03  0.00000000000E+00 0.  1.
          1    1    3    3  501    0  0.14851478418E+00 -0.12173059627E-01 -0.65766129363E+01  0.65783008854E+01  0.00000000000E+00 0.  1.
         -1    1    1    2    0  502 -0.12893739879E+02 -0.36401929845E+02 -0.21704542706E+03  0.22045422753E+03  0.00000000000E+00 0. -1.
<mgrwt>
<rscale>  1 0.30000000E+03</rscale>
<asrwt>0</asrwt>
<pdfrwt beam="1">  1       21 0.79475986E-02 0.30000000E+03</pdfrwt>
<pdfrwt beam="2">0</pdfrwt>
<totfact> 0.12922144E+04</totfact>
</mgrwt>
</event>
<event>
 6    1  0.1295671E-001  0.3000000E+03  0.7818608E-02  0.1093470E+00
         21   -1    0    0  501  502  0.00000000000E+00  0.00000000000E+00  0.18631471326E+01  0.18631471326E+01  0.00000000000E+00 0. -1.
         13   -1    0    0    0    0 -0.00000000000E+00 -0.00000000000E+00 -0.10000000000E+04  0.10000000000E+04  0.00000000000E+00 0.  1.
    9000005    2    1    2  501    0  0.40228893451E+02  0.59009906533E+01 -0.66607412011E+03  0.66732040839E+03  0.29340099978E+01 0.  0.
         13    1    3    3    0    0  0.26112858884E+02  0.24569334162E+01 -0.42274727628E+03  0.42356012267E+03  0.00000000000E+00 0.  1.
          3    1    3    3  501    0  0.14116034567E+02  0.34440572371E+01 -0.24332684383E+03  0.24376028571E+03  0.00000000000E+00 0.  1.
         -1    1    1    2    0  502 -0.40228893451E+02 -0.59009906533E+01 -0.33206273276E+03  0.33454273874E+03  0.00000000000E+00 0. -1.
<mgrwt>
<rscale>  1 0.30000000E+03</rscale>
<asrwt>0</asrwt>
<pdfrwt beam="1">  1       21 0.67750948E-02 0.30000000E+03</pdfrwt>
<pdfrwt beam="2">0</pdfrwt>
<totfact> 0.17077648E+04</totfact>
</mgrwt>
</event>
<event>
 6    1  0.1295671E-001  0.3000000E+03  0.7818608E-02  0.1093470E+00
         21   -1    0    0  501  502  0.00000000000E+00  0.00000000000E+00  0.27924721284E+01  0.27924721284E+01  0.00000000000E+00 0. -1.
         13   -1    0    0    0    0 -0.00000000000E+00 -0.00000000000E+00 -0.10000000000E+04  0.10000000000E+04  0.00000000000E+00 0.  1.
    9000005    2    1    2  501    0 -0.34715971711E+02  0.34279722526E+02 -0.69049881711E+03  0.69222761364E+03  0.31866271892E+01 0.  0.
         13    1    3    3    0    0 -0.15320337137E+02  0.13242027413E+02 -0.29775280235E+03  0.29844060603E+03  0.00000000000E+00 0.  1.
          1    1    3    3  501    0 -0.19395634574E+02  0.21037695113E+02 -0.39274601476E+03  0.39378700761E+03  0.00000000000E+00 0.  1.
         -3    1    1    2    0  502  0.34715971711E+02 -0.34279722526E+02 -0.30670871076E+03  0.31056485849E+03  0.00000000000E+00 0. -1.
<mgrwt>
<rscale>  1 0.30000000E+03</rscale>
<asrwt>0</asrwt>
<pdfrwt beam="1">  1       21 0.10154466E-01 0.30000000E+03</pdfrwt>
<pdfrwt beam="2">0</pdfrwt>
<totfact> 0.83706517E+03</totfact>
</mgrwt>
</event>
<event>
 6    1  0.1295671E-001  0.3000000E+03  0.7818608E-02  0.1093470E+00
         21   -1    0    0  501  502  0.00000000000E+00  0.00000000000E+00  0.13827794133E+01  0.13827794133E+01  0.00000000000E+00 0. -1.
         13   -1    0    0    0    0 -0.00000000000E+00 -0.00000000000E+00 -0.10000000000E+04  0.10000000000E+04  0.00000000000E+00 0.  1.
    9000005    2    1    2  501    0 -0.25188436093E+02 -0.18312160070E+02 -0.77207862670E+03  0.77271374557E+03  0.33666399915E+01 0.  0.
         13    1    3    3    0    0 -0.24905088547E+02 -0.17606965255E+02 -0.75950563675E+03  0.76011780726E+03  0.00000000000E+00 0.  1.
          1    1    3    3  501    0 -0.28334754517E+00 -0.70519481517E+00 -0.12572989949E+02  0.12595938306E+02  0.00000000000E+00 0.  1.
         -3    1    1    2    0  502  0.25188436093E+02  0.18312160070E+02 -0.22653859389E+03  0.22866903385E+03  0.00000000000E+00 0. -1.
<mgrwt>
<rscale>  1 0.30000000E+03</rscale>
<asrwt>0</asrwt>
<pdfrwt beam="1">  1       21 0.50282994E-02 0.30000000E+03</pdfrwt>
<pdfrwt beam="2">0</pdfrwt>
<totfact> 0.28528807E+04</totfact>
</mgrwt>
</event>
<event>
 6    1  0.1295671E-001  0.3000000E+03  0.7818608E-02  0.1093470E+00
         21   -1    0    0  501  502  0.00000000000E+00  0.00000000000E+00  0.15119417328E+01  0.15119417328E+01  0.00000000000E+00 0. -1.
         13   -1    0    0    0    0 -0.00000000000E+00 -0.00000000000E+00 -0.10000000000E+04  0.10000000000E+04  0.00000000000E+00 0.  1.
    9000005    2    1    2  501    0  0.69470039906E+01  0.33330993507E+02 -0.73913505214E+03  0.73993365941E+03  0.46881811304E+01 0.  0.
         13    1    3    3    0    0  0.74629438292E+01  0.29656575418E+02 -0.64244380196E+03  0.64317124211E+03  0.00000000000E+00 0.  1.
          1    1    3    3  501    0 -0.51593983857E+00  0.36744180887E+01 -0.96691250178E+02  0.96762417307E+02  0.00000000000E+00 0.  1.
         -1    1    1    2    0  502 -0.69470039906E+01 -0.33330993507E+02 -0.25935300613E+03  0.26157828232E+03  0.00000000000E+00 0. -1.
<mgrwt>
<rscale>  1 0.30000000E+03</rscale>
<asrwt>0</asrwt>
<pdfrwt beam="1">  1       21 0.54979815E-02 0.30000000E+03</pdfrwt>
<pdfrwt beam="2">0</pdfrwt>
<totfact> 0.24489558E+04</totfact>
</mgrwt>
</event>
<event>
 6    1  0.1295671E-001  0.3000000E+03  0.7818608E-02  0.1093470E+00
         21   -1    0    0  501  502  0.00000000000E+00  0.00000000000E+00  0.10916211204E+01  0.10916211204E+01  0.00000000000E+00 0. -1.
         13   -1    0    0    0    0 -0.00000000000E+00 -0.00000000000E+00 -0.10000000000E+04  0.10000000000E+04  0.00000000000E+00 0.  1.
    9000005    2    1    2  501    0  0.13822109704E+02  0.29558305027E+02 -0.43144611935E+03  0.43269197290E+03  0.34417136043E+01 0.  0.
         13    1    3    3    0    0  0.56158354926E+01  0.13424287279E+02 -0.17136926868E+03  0.17198597427E+03  0.00000000000E+00 0.  1.
          3    1    3    3  501    0  0.82062742117E+01  0.16134017748E+02 -0.26007685068E+03  0.26070599863E+03  0.00000000000E+00 0.  1.
         -3    1    1    2    0  502 -0.13822109704E+02 -0.29558305027E+02 -0.56746225953E+03  0.56839964822E+03  0.00000000000E+00 0. -1.
<mgrwt>
<rscale>  1 0.30000000E+03</rscale>
<asrwt>0</asrwt>
<pdfrwt beam="1">  1       21 0.39695397E-02 0.30000000E+03</pdfrwt>
<pdfrwt beam="2">0</pdfrwt>
<totfact> 0.42591997E+04</totfact>
</mgrwt>
</event>
<event>
 6    1  0.1295671E-001  0.3000000E+03  0.7818608E-02  0.1093470E+00
         21   -1    0    0  501  502  0.00000000000E+00  0.00000000000E+00  0.22106605162E+01  0.22106605162E+01  0.00000000000E+00 0. -1.
         13   -1    0    0    0    0 -0.00000000000E+00 -0.00000000000E+00 -0.10000000000E+04  0.10000000000E+04  0.00000000000E+00 0.  1.
    9000005    2    1    2  501    0  0.14740633864E+02 -0.27376995553E+02 -0.87460017544E+03  0.87515808750E+03  0.30700268511E+01 0.  0.
         13    1    3    3    0    0  0.91376028198E+01 -0.18195992392E+02 -0.60873246581E+03  0.60907290603E+03  0.00000000000E+00 0.  1.
          3    1    3    3  501    0  0.56030310443E+01 -0.91810031613E+01 -0.26586770963E+03  0.26608518147E+03  0.00000000000E+00 0.  1.
         -3    1    1    2    0  502 -0.14740633864E+02  0.27376995553E+02 -0.12318916404E+03  0.12705257302E+03  0.00000000000E+00 0. -1.
<mgrwt>
<rscale>  1 0.30000000E+03</rscale>
<asrwt>0</asrwt>
<pdfrwt beam="1">  1       21 0.80387825E-02 0.30000000E+03</pdfrwt>
<pdfrwt beam="2">0</pdfrwt>
<totfact> 0.12665807E+04</totfact>
</mgrwt>
</event>
<event>
 6    1  0.1295671E-001  0.3000000E+03  0.7818608E-02  0.1093470E+00
         21   -1    0    0  501  502  0.00000000000E+00  0.00000000000E+00  0.17920950147E+01  0.17920950147E+01  0.00000000000E+00 0. -1.
         13   -1    0    0    0    0 -0.00000000000E+00 -0.00000000000E+00 -0.10000000000E+04  0.10000000000E+04  0.00000000000E+00 0.  1.
    9000005    2    1    2  501    0  0.32268946796E+02 -0.15804505067E+01 -0.82103664133E+03  0.82169923170E+03  0.66841769439E+01 0.  0.
         13    1    3    3    0    0 -0.55844941697E-01 -0.11210263183E+00 -0.30948221519E+02  0.30948474936E+02  0.00000000000E+00 0.  1.
          3    1    3    3  501    0  0.32324791738E+02 -0.14683478749E+01 -0.79008841981E+03  0.79075075677E+03  0.00000000000E+00 0.  1.
         -3    1    1    2    0  502 -0.32268946796E+02  0.15804505067E+01 -0.17717126365E+03  0.18009286331E+03  0.00000000000E+00 0. -1.
<mgrwt>
<rscale>  1 0.30000000E+03</rscale>
<asrwt>0</asrwt>
<pdfrwt beam="1">  1       21 0.65167229E-02 0.30000000E+03</pdfrwt>
<pdfrwt beam="2">0</pdfrwt>
<totfact> 0.18268586E+04</totfact>
</mgrwt>
</event>
<event>
 6    1  0.1295671E-001  0.3000000E+03  0.7818608E-02  0.1093470E+00
         21   -1    0    0  501  502  0.00000000000E+00  0.00000000000E+00  0.49805715193E+01  0.49805715193E+01  0.00000000000E+00 0. -1.
         13   -1    0    0    0    0 -0.00000000000E+00 -0.00000000000E+00 -0.10000000000E+04  0.10000000000E+04  0.00000000000E+00 0.  1.
    9000005    2    1    2  501    0  0.36138205190E+02  0.31831719201E+02 -0.86470837925E+03  0.86605541982E+03  0.34901063674E+01 0.  0.
         13    1    3    3    0    0  0.19971132798E+02  0.15281108940E+02 -0.45370012959E+03  0.45439648549E+03  0.00000000000E+00 0.  1.
          3    1    3    3  501    0  0.16167072392E+02  0.16550610261E+02 -0.41100824965E+03  0.41165893433E+03  0.00000000000E+00 0.  1.
         -1    1    1    2    0  502 -0.36138205190E+02 -0.31831719201E+02 -0.13031104924E+03  0.13892515170E+03  0.00000000000E+00 0. -1.
<mgrwt>
<rscale>  1 0.30000000E+03</rscale>
<asrwt>0</asrwt>
<pdfrwt beam="1">  1       21 0.18111207E-01 0.30000000E+03</pdfrwt>
<pdfrwt beam="2">0</pdfrwt>
<totfact> 0.28957538E+03</totfact>
</mgrwt>
</event>
<event>
 6    1  0.1295671E-001  0.3000000E+03  0.7818608E-02  0.1093470E+00
         21   -1    0    0  501  502  0.00000000000E+00  0.00000000000E+00  0.16812257929E+01  0.16812257929E+01  0.00000000000E+00 0. -1.
         13   -1    0    0    0    0 -0.00000000000E+00 -0.00000000000E+00 -0.10000000000E+04  0.10000000000E+04  0.00000000000E+00 0.  1.
    9000005    2    1    2  501    0 -0.29551732892E+02  0.19826775497E+02 -0.74760914542E+03  0.74845854926E+03  0.20879900412E+01 0.  0.
         13    1    3    3    0    0 -0.28464969187E+02  0.18788233381E+02 -0.70832289686E+03  0.70914355275E+03  0.00000000000E+00 0.  1.
          1    1    3    3  501    0 -0.10867637048E+01  0.10385421159E+01 -0.39286248560E+02  0.39314996515E+02  0.00000000000E+00 0.  1.
         -1    1    1    2    0  502  0.29551732892E+02 -0.19826775497E+02 -0.25070962878E+03  0.25322267653E+03  0.00000000000E+00 0. -1.
<mgrwt>
<rscale>  1 0.30000000E+03</rscale>
<asrwt>0</asrwt>
<pdfrwt beam="1">  1       21 0.61135612E-02 0.30000000E+03</pdfrwt>
<pdfrwt beam="2">0</pdfrwt>
<totfact> 0.20400917E+04</totfact>
</mgrwt>
</event>
<event>
 6    1  0.1295671E-001  0.3000000E+03  0.7818608E-02  0.1093470E+00
         21   -1    0    0  501  502  0.00000000000E+00  0.00000000000E+00  0.16968570974E+01  0.16968570974E+01  0.00000000000E+00 0. -1.
         13   -1    0    0    0    0 -0.00000000000E+00 -0.00000000000E+00 -0.10000000000E+04  0.10000000000E+04  0.00000000000E+00 0.  1.
    9000005    2    1    2  501    0  0.29906006809E+02 -0.27218127043E+02 -0.58912402210E+03  0.59052444972E+03  0.41008079297E+01 0.  0.
         13    1    3    3    0    0  0.13678044126E+02 -0.13082426607E+02 -0.24691428296E+03  0.24763865188E+03  0.00000000000E+00 0.  1.
          3    1    3    3  501    0  0.16227962683E+02 -0.14135700436E+02 -0.34220973914E+03  0.34288579784E+03  0.00000000000E+00 0.  1.
         -3    1    1    2    0  502 -0.29906006809E+02  0.27218127043E+02 -0.40917912080E+03  0.41117240737E+03  0.00000000000E+00 0. -1.
<mgrwt>
<rscale>  1 0.30000000E+03</rscale>
<asrwt>0</asrwt>
<pdfrwt beam="1">  1       21 0.61704025E-02 0.30000000E+03</pdfrwt>
<pdfrwt beam="2">0</pdfrwt>
<totfact> 0.20077570E+04</totfact>
</mgrwt>
</event>
<event>
 6    1  0.1295671E-001  0.3000000E+03  0.7818608E-02  0.1093470E+00
         21   -1    0    0  501  502  0.00000000000E+00  0.00000000000E+00  0.97428784458E+01  0.97428784458E+01  0.00000000000E+00 0. -1.
         13   -1    0    0    0    0 -0.00000000000E+00 -0.00000000000E+00 -0.10000000000E+04  0.10000000000E+04  0.00000000000E+00 0.  1.
    9000005    2    1    2  501    0 -0.45696429644E+02  0.76194415648E+02 -0.71489780336E+03  0.72040482914E+03  0.32397445669E+01 0.  0.
         13    1    3    3    0    0 -0.35541572707E+02  0.56556447786E+02 -0.53587783361E+03  0.54002489547E+03  0.00000000000E+00 0.  1.
          3    1    3    3  501    0 -0.10154856937E+02  0.19637967862E+02 -0.17901996975E+03  0.18037993367E+03  0.00000000000E+00 0.  1.
         -3    1    1    2    0  502  0.45696429644E+02 -0.76194415648E+02 -0.27535931819E+03  0.28933804930E+03  0.00000000000E+00 0. -1.
<mgrwt>
<rscale>  1 0.30000000E+03</rscale>
<asrwt>0</asrwt>
<pdfrwt beam="1">  1       21 0.35428724E-01 0.30000000E+03</pdfrwt>
<pdfrwt beam="2">0</pdfrwt>
<totfact> 0.77620683E+02</totfact>
</mgrwt>
</event>
<event>
 6    1  0.1295671E-001  0.3000000E+03  0.7818608E-02  0.1093470E+00
         21   -1    0    0  501  502  0.00000000000E+00  0.00000000000E+00  0.39648863360E+01  0.39648863360E+01  0.00000000000E+00 0. -1.
         13   -1    0    0    0    0 -0.00000000000E+00 -0.00000000000E+00 -0.10000000000E+04  0.10000000000E+04  0.00000000000E+00 0.  1.
    9000005    2    1    2  501    0 -0.25144029672E+02  0.23043745716E+02 -0.91992096268E+03  0.92055864901E+03  0.32268011216E+01 0.  0.
         13    1    3    3    0    0 -0.13265582448E+02  0.10589905702E+02 -0.42654593632E+03  0.42688354100E+03  0.00000000000E+00 0.  1.
          1    1    3    3  501    0 -0.11878447224E+02  0.12453840015E+02 -0.49337502636E+03  0.49367510801E+03  0.00000000000E+00 0.  1.
         -3    1    1    2    0  502  0.25144029672E+02 -0.23043745716E+02 -0.76114150986E+02  0.83406237327E+02  0.00000000000E+00 0. -1.
<mgrwt>
<rscale>  1 0.30000000E+03</rscale>
<asrwt>0</asrwt>
<pdfrwt beam="1">  1       21 0.14417799E-01 0.30000000E+03</pdfrwt>
<pdfrwt beam="2">0</pdfrwt>
<totfact> 0.44303616E+03</totfact>
</mgrwt>
</event>
<event>
 6    1  0.1295671E-001  0.3000000E+03  0.7818608E-02  0.1093470E+00
         21   -1    0    0  501  502  0.00000000000E+00  0.00000000000E+00  0.92751931333E+00  0.92751931333E+00  0.00000000000E+00 0. -1.
         13   -1    0    0    0    0 -0.00000000000E+00 -0.00000000000E+00 -0.10000000000E+04  0.10000000000E+04  0.00000000000E+00 0.  1.
    9000005    2    1    2  501    0 -0.17340955164E+02 -0.24734558899E+02 -0.54986064529E+03  0.55070115382E+03  0.35389891056E+01 0.  0.
         13    1    3    3    0    0 -0.39671133363E+01 -0.74063012867E+01 -0.13129258268E+03  0.13156113998E+03  0.00000000000E+00 0.  1.
          3    1    3    3  501    0 -0.13373841827E+02 -0.17328257612E+02 -0.41856806262E+03  0.41914001384E+03  0.00000000000E+00 0.  1.
         -3    1    1    2    0  502  0.17340955164E+02  0.24734558899E+02 -0.44921183539E+03  0.45022636550E+03  0.00000000000E+00 0. -1.
<mgrwt>
<rscale>  1 0.30000000E+03</rscale>
<asrwt>0</asrwt>
<pdfrwt beam="1">  1       21 0.33728046E-02 0.30000000E+03</pdfrwt>
<pdfrwt beam="2">0</pdfrwt>
<totfact> 0.55977041E+04</totfact>
</mgrwt>
</event>
<event>
 6    1  0.1295671E-001  0.3000000E+03  0.7818608E-02  0.1093470E+00
         21   -1    0    0  501  502  0.00000000000E+00  0.00000000000E+00  0.21903711444E+02  0.21903711444E+02  0.00000000000E+00 0. -1.
         13   -1    0    0    0    0 -0.00000000000E+00 -0.00000000000E+00 -0.10000000000E+04  0.10000000000E+04  0.00000000000E+00 0.  1.
    9000005    2    1    2  501    0 -0.93411455749E+01 -0.14442209670E+03 -0.59541763325E+03  0.61277298388E+03  0.48551786981E+01 0.  0.
         13    1    3    3    0    0 -0.56636114508E+01 -0.52412001203E+02 -0.21442340886E+03  0.22080872408E+03  0.00000000000E+00 0.  1.
          3    1    3    3  501    0 -0.36775341241E+01 -0.92010095501E+02 -0.38099422440E+03  0.39196425979E+03  0.00000000000E+00 0.  1.
         -3    1    1    2    0  502  0.93411455749E+01  0.14442209670E+03 -0.38267865530E+03  0.40913072757E+03  0.00000000000E+00 0. -1.
<mgrwt>
<rscale>  1 0.30000000E+03</rscale>
<asrwt>0</asrwt>
<pdfrwt beam="1">  1       21 0.79650028E-01 0.30000000E+03</pdfrwt>
<pdfrwt beam="2">0</pdfrwt>
<totfact> 0.13006099E+02</totfact>
</mgrwt>
</event>
<event>
 6    1  0.1295671E-001  0.3000000E+03  0.7818608E-02  0.1093470E+00
         21   -1    0    0  501  502  0.00000000000E+00  0.00000000000E+00  0.11797480847E+01  0.11797480847E+01  0.00000000000E+00 0. -1.
         13   -1    0    0    0    0 -0.00000000000E+00 -0.00000000000E+00 -0.10000000000E+04  0.10000000000E+04  0.00000000000E+00 0.  1.
    9000005    2    1    2  501    0 -0.25136350961E+02 -0.19269511092E+02 -0.69154076163E+03  0.69227226138E+03  0.30180575362E+01 0.  0.
         13    1    3    3    0    0 -0.48701484217E+01 -0.41374280948E+01 -0.16667823105E+03  0.16680068754E+03  0.00000000000E+00 0.  1.
          3    1    3    3  501    0 -0.20266202540E+02 -0.15132082997E+02 -0.52486253058E+03  0.52547157383E+03  0.00000000000E+00 0.  1.
         -1    1    1    2    0  502  0.25136350961E+02  0.19269511092E+02 -0.30727949028E+03  0.30890748671E+03  0.00000000000E+00 0. -1.
<mgrwt>
<rscale>  1 0.30000000E+03</rscale>
<asrwt>0</asrwt>
<pdfrwt beam="1">  1       21 0.42900021E-02 0.30000000E+03</pdfrwt>
<pdfrwt beam="2">0</pdfrwt>
<totfact> 0.37363536E+04</totfact>
</mgrwt>
</event>
<event>
 6    1  0.1295671E-001  0.3000000E+03  0.7818608E-02  0.1093470E+00
         21   -1    0    0  501  502  0.00000000000E+00  0.00000000000E+00  0.42558728061E+01  0.42558728061E+01  0.00000000000E+00 0. -1.
         13   -1    0    0    0    0 -0.00000000000E+00 -0.00000000000E+00 -0.10000000000E+04  0.10000000000E+04  0.00000000000E+00 0.  1.
    9000005    2    1    2  501    0  0.34205738621E+02 -0.13247107556E+02 -0.91303227352E+03  0.91377510606E+03  0.33902136532E+01 0.  0.
         13    1    3    3    0    0  0.25800999166E+02 -0.85971548698E+01 -0.65637249840E+03  0.65693565840E+03  0.00000000000E+00 0.  1.
          3    1    3    3  501    0  0.84047394552E+01 -0.46499526858E+01 -0.25665977512E+03  0.25683944766E+03  0.00000000000E+00 0.  1.
         -3    1    1    2    0  502 -0.34205738621E+02  0.13247107556E+02 -0.82711853674E+02  0.90480766748E+02  0.00000000000E+00 0. -1.
<mgrwt>
<rscale>  1 0.30000000E+03</rscale>
<asrwt>0</asrwt>
<pdfrwt beam="1">  1       21 0.15475934E-01 0.30000000E+03</pdfrwt>
<pdfrwt beam="2">0</pdfrwt>
<totfact> 0.38862702E+03</totfact>
</mgrwt>
</event>
<event>
 6    1  0.1295671E-001  0.3000000E+03  0.7818608E-02  0.1093470E+00
         21   -1    0    0  501  502  0.00000000000E+00  0.00000000000E+00  0.26947932023E+01  0.26947932023E+01  0.00000000000E+00 0. -1.
         13   -1    0    0    0    0 -0.00000000000E+00 -0.00000000000E+00 -0.10000000000E+04  0.10000000000E+04  0.00000000000E+00 0.  1.
    9000005    2    1    2  501    0 -0.26034453522E+01  0.29913254243E+02 -0.90639075170E+03  0.90695024321E+03  0.10628649415E+02 0.  0.
         13    1    3    3    0    0 -0.36014547826E+01  0.42850080220E+01 -0.24180505052E+03  0.24186982910E+03  0.00000000000E+00 0.  1.
          1    1    3    3  501    0  0.99800943041E+00  0.25628246221E+02 -0.66458570117E+03  0.66508041411E+03  0.00000000000E+00 0.  1.
         -1    1    1    2    0  502  0.26034453522E+01 -0.29913254243E+02 -0.90914455102E+02  0.95744549994E+02  0.00000000000E+00 0. -1.
<mgrwt>
<rscale>  1 0.30000000E+03</rscale>
<asrwt>0</asrwt>
<pdfrwt beam="1">  1       21 0.97992687E-02 0.30000000E+03</pdfrwt>
<pdfrwt beam="2">0</pdfrwt>
<totfact> 0.89204372E+03</totfact>
</mgrwt>
</event>
<event>
 6    1  0.1295671E-001  0.3000000E+03  0.7818608E-02  0.1093470E+00
         21   -1    0    0  501  502  0.00000000000E+00  0.00000000000E+00  0.37016761284E+01  0.37016761284E+01  0.00000000000E+00 0. -1.
         13   -1    0    0    0    0 -0.00000000000E+00 -0.00000000000E+00 -0.10000000000E+04  0.10000000000E+04  0.00000000000E+00 0.  1.
    9000005    2    1    2  501    0 -0.48287725474E+02  0.15867068219E+02 -0.77367067389E+03  0.77534550953E+03  0.32983680607E+01 0.  0.
         13    1    3    3    0    0 -0.38154209866E+02  0.12005475583E+02 -0.62694459380E+03  0.62821922836E+03  0.00000000000E+00 0.  1.
          1    1    3    3  501    0 -0.10133515608E+02  0.38615926367E+01 -0.14672608009E+03  0.14712628118E+03  0.00000000000E+00 0.  1.
         -3    1    1    2    0  502  0.48287725474E+02 -0.15867068219E+02 -0.22262764998E+03  0.22835616659E+03  0.00000000000E+00 0. -1.
<mgrwt>
<rscale>  1 0.30000000E+03</rscale>
<asrwt>0</asrwt>
<pdfrwt beam="1">  1       21 0.13460669E-01 0.30000000E+03</pdfrwt>
<pdfrwt beam="2">0</pdfrwt>
<totfact> 0.50260838E+03</totfact>
</mgrwt>
</event>
<event>
 6    1  0.1295671E-001  0.3000000E+03  0.7818608E-02  0.1093470E+00
         21   -1    0    0  501  502  0.00000000000E+00  0.00000000000E+00  0.41162473813E+01  0.41162473813E+01  0.00000000000E+00 0. -1.
         13   -1    0    0    0    0 -0.00000000000E+00 -0.00000000000E+00 -0.10000000000E+04  0.10000000000E+04  0.00000000000E+00 0.  1.
    9000005    2    1    2  501    0 -0.67894070671E+01 -0.41537660705E+02 -0.87674676234E+03  0.87776318743E+03  0.34430564097E+01 0.  0.
         13    1    3    3    0    0 -0.20481913093E+01 -0.54882467553E+01 -0.11470606862E+03  0.11485555328E+03  0.00000000000E+00 0.  1.
          3    1    3    3  501    0 -0.47412157578E+01 -0.36049413949E+02 -0.76204069371E+03  0.76290763415E+03  0.00000000000E+00 0.  1.
         -3    1    1    2    0  502  0.67894070671E+01  0.41537660705E+02 -0.11913699028E+03  0.12635305995E+03  0.00000000000E+00 0. -1.
<mgrwt>
<rscale>  1 0.30000000E+03</rscale>
<asrwt>0</asrwt>
<pdfrwt beam="1">  1       21 0.14968204E-01 0.30000000E+03</pdfrwt>
<pdfrwt beam="2">0</pdfrwt>
<totfact> 0.41342397E+03</totfact>
</mgrwt>
</event>
<event>
 6    1  0.1295671E-001  0.3000000E+03  0.7818608E-02  0.1093470E+00
         21   -1    0    0  501  502  0.00000000000E+00  0.00000000000E+00  0.17774548895E+01  0.17774548895E+01  0.00000000000E+00 0. -1.
         13   -1    0    0    0    0 -0.00000000000E+00 -0.00000000000E+00 -0.10000000000E+04  0.10000000000E+04  0.00000000000E+00 0.  1.
    9000005    2    1    2  501    0 -0.51188825518E+01 -0.33059156481E+02 -0.80338583601E+03  0.80408968592E+03  0.35086636248E+01 0.  0.
         13    1    3    3    0    0 -0.10899610441E+01 -0.18399624245E+02 -0.44419545290E+03  0.44457770363E+03  0.00000000000E+00 0.  1.
          1    1    3    3  501    0 -0.40289215077E+01 -0.14659532236E+02 -0.35919038311E+03  0.35951198229E+03  0.00000000000E+00 0.  1.
         -3    1    1    2    0  502  0.51188825518E+01  0.33059156481E+02 -0.19483670910E+03  0.19768776897E+03  0.00000000000E+00 0. -1.
<mgrwt>
<rscale>  1 0.30000000E+03</rscale>
<asrwt>0</asrwt>
<pdfrwt beam="1">  1       21 0.64634860E-02 0.30000000E+03</pdfrwt>
<pdfrwt beam="2">0</pdfrwt>
<totfact> 0.18529870E+04</totfact>
</mgrwt>
</event>
<event>
 6    1  0.1295671E-001  0.3000000E+03  0.7818608E-02  0.1093470E+00
         21   -1    0    0  501  502  0.00000000000E+00  0.00000000000E+00  0.21656956507E+01  0.21656956507E+01  0.00000000000E+00 0. -1.
         13   -1    0    0    0    0 -0.00000000000E+00 -0.00000000000E+00 -0.10000000000E+04  0.10000000000E+04  0.00000000000E+00 0.  1.
    9000005    2    1    2  501    0 -0.39108988715E+02  0.22991500034E+02 -0.60787365826E+03  0.60957503405E+03  0.36353359024E+01 0.  0.
         13    1    3    3    0    0 -0.65887207951E+01  0.26290846904E+01 -0.85042312665E+02  0.85337672053E+02  0.00000000000E+00 0.  1.
          1    1    3    3  501    0 -0.32520267920E+02  0.20362415344E+02 -0.52283134559E+03  0.52423736200E+03  0.00000000000E+00 0.  1.
         -1    1    1    2    0  502  0.39108988715E+02 -0.22991500034E+02 -0.38996064609E+03  0.39259066160E+03  0.00000000000E+00 0. -1.
<mgrwt>
<rscale>  1 0.30000000E+03</rscale>
<asrwt>0</asrwt>
<pdfrwt beam="1">  1       21 0.78752735E-02 0.30000000E+03</pdfrwt>
<pdfrwt beam="2">0</pdfrwt>
<totfact> 0.13131184E+04</totfact>
</mgrwt>
</event>
<event>
 6    1  0.1295671E-001  0.3000000E+03  0.7818608E-02  0.1093470E+00
         21   -1    0    0  501  502  0.00000000000E+00  0.00000000000E+00  0.13490400200E+01  0.13490400200E+01  0.00000000000E+00 0. -1.
         13   -1    0    0    0    0 -0.00000000000E+00 -0.00000000000E+00 -0.10000000000E+04  0.10000000000E+04  0.00000000000E+00 0.  1.
    9000005    2    1    2  501    0  0.22687323701E+02  0.25386553322E+02 -0.31223597660E+03  0.31409019420E+03  0.14674005313E+01 0.  0.
         13    1    3    3    0    0  0.44768694611E+01  0.58808982994E+01 -0.69286680597E+02  0.69679777792E+02  0.00000000000E+00 0.  1.
          3    1    3    3  501    0  0.18210454240E+02  0.19505655023E+02 -0.24294929601E+03  0.24441041641E+03  0.00000000000E+00 0.  1.
         -1    1    1    2    0  502 -0.22687323701E+02 -0.25386553322E+02 -0.68641498338E+03  0.68725884582E+03  0.00000000000E+00 0. -1.
<mgrwt>
<rscale>  1 0.30000000E+03</rscale>
<asrwt>0</asrwt>
<pdfrwt beam="1">  1       21 0.49056104E-02 0.30000000E+03</pdfrwt>
<pdfrwt beam="2">0</pdfrwt>
<totfact> 0.29755425E+04</totfact>
</mgrwt>
</event>
<event>
 6    1  0.1295671E-001  0.3000000E+03  0.7818608E-02  0.1093470E+00
         21   -1    0    0  501  502  0.00000000000E+00  0.00000000000E+00  0.21594152467E+01  0.21594152467E+01  0.00000000000E+00 0. -1.
         13   -1    0    0    0    0 -0.00000000000E+00 -0.00000000000E+00 -0.10000000000E+04  0.10000000000E+04  0.00000000000E+00 0.  1.
    9000005    2    1    2  501    0 -0.17493249465E+02  0.41811436995E+02 -0.39194609484E+03  0.39457210222E+03  0.33455271235E+01 0.  0.
         13    1    3    3    0    0 -0.15243605553E+02  0.38391921708E+02 -0.36138157724E+03  0.36373472687E+03  0.00000000000E+00 0.  1.
          1    1    3    3  501    0 -0.22496439124E+01  0.34195152872E+01 -0.30564517600E+02  0.30837375353E+02  0.00000000000E+00 0.  1.
         -3    1    1    2    0  502  0.17493249465E+02 -0.41811436995E+02 -0.60589448991E+03  0.60758731302E+03  0.00000000000E+00 0. -1.
<mgrwt>
<rscale>  1 0.30000000E+03</rscale>
<asrwt>0</asrwt>
<pdfrwt beam="1">  1       21 0.78524356E-02 0.30000000E+03</pdfrwt>
<pdfrwt beam="2">0</pdfrwt>
<totfact> 0.13198275E+04</totfact>
</mgrwt>
</event>
<event>
 6    1  0.1295671E-001  0.3000000E+03  0.7818608E-02  0.1093470E+00
         21   -1    0    0  501  502  0.00000000000E+00  0.00000000000E+00  0.20680686306E+01  0.20680686306E+01  0.00000000000E+00 0. -1.
         13   -1    0    0    0    0 -0.00000000000E+00 -0.00000000000E+00 -0.10000000000E+04  0.10000000000E+04  0.00000000000E+00 0.  1.
    9000005    2    1    2  501    0  0.22667494952E+02  0.28826332803E+02 -0.79467907052E+03  0.79553357216E+03  0.37505353686E+01 0.  0.
         13    1    3    3    0    0  0.11357914063E+02  0.12690418760E+02 -0.33572275824E+03  0.33615445756E+03  0.00000000000E+00 0.  1.
          3    1    3    3  501    0  0.11309580889E+02  0.16135914043E+02 -0.45895631228E+03  0.45937911459E+03  0.00000000000E+00 0.  1.
         -3    1    1    2    0  502 -0.22667494952E+02 -0.28826332803E+02 -0.20325286085E+03  0.20653449647E+03  0.00000000000E+00 0. -1.
<mgrwt>
<rscale>  1 0.30000000E+03</rscale>
<asrwt>0</asrwt>
<pdfrwt beam="1">  1       21 0.75202654E-02 0.30000000E+03</pdfrwt>
<pdfrwt beam="2">0</pdfrwt>
<totfact> 0.14237036E+04</totfact>
</mgrwt>
</event>
<event>
 6    1  0.1295671E-001  0.3000000E+03  0.7818608E-02  0.1093470E+00
         21   -1    0    0  501  502  0.00000000000E+00  0.00000000000E+00  0.16046957811E+01  0.16046957811E+01  0.00000000000E+00 0. -1.
         13   -1    0    0    0    0 -0.00000000000E+00 -0.00000000000E+00 -0.10000000000E+04  0.10000000000E+04  0.00000000000E+00 0.  1.
    9000005    2    1    2  501    0  0.35616824737E+02  0.14674551524E+02 -0.63477053838E+03  0.63594519434E+03  0.29585698013E+01 0.  0.
         13    1    3    3    0    0  0.20982836558E+02  0.76459158014E+01 -0.38601579686E+03  0.38666126634E+03  0.00000000000E+00 0.  1.
          3    1    3    3  501    0  0.14633988178E+02  0.70286357225E+01 -0.24875474152E+03  0.24928392800E+03  0.00000000000E+00 0.  1.
         -3    1    1    2    0  502 -0.35616824737E+02 -0.14674551524E+02 -0.36362476583E+03  0.36565950144E+03  0.00000000000E+00 0. -1.
<mgrwt>
<rscale>  1 0.30000000E+03</rscale>
<asrwt>0</asrwt>
<pdfrwt beam="1">  1       21 0.58352697E-02 0.30000000E+03</pdfrwt>
<pdfrwt beam="2">0</pdfrwt>
<totfact> 0.22107488E+04</totfact>
</mgrwt>
</event>
<event>
 6    1  0.1295671E-001  0.3000000E+03  0.7818608E-02  0.1093470E+00
         21   -1    0    0  501  502  0.00000000000E+00  0.00000000000E+00  0.16863984911E+01  0.16863984911E+01  0.00000000000E+00 0. -1.
         13   -1    0    0    0    0 -0.00000000000E+00 -0.00000000000E+00 -0.10000000000E+04  0.10000000000E+04  0.00000000000E+00 0.  1.
    9000005    2    1    2  501    0  0.34048462998E+01 -0.33869360640E+02 -0.77887528994E+03  0.77962357145E+03  0.27330048681E+01 0.  0.
         13    1    3    3    0    0  0.29147767506E+01 -0.15981834778E+02 -0.38002127394E+03  0.38036835254E+03  0.00000000000E+00 0.  1.
          1    1    3    3  501    0  0.49006954920E+00 -0.17887525862E+02 -0.39885401600E+03  0.39925521891E+03  0.00000000000E+00 0.  1.
         -1    1    1    2    0  502 -0.34048462998E+01  0.33869360640E+02 -0.21943831157E+03  0.22206282704E+03  0.00000000000E+00 0. -1.
<mgrwt>
<rscale>  1 0.30000000E+03</rscale>
<asrwt>0</asrwt>
<pdfrwt beam="1">  1       21 0.61323711E-02 0.30000000E+03</pdfrwt>
<pdfrwt beam="2">0</pdfrwt>
<totfact> 0.20293025E+04</totfact>
</mgrwt>
</event>
<event>
 6    1  0.1295671E-001  0.3000000E+03  0.7818608E-02  0.1093470E+00
         21   -1    0    0  501  502  0.00000000000E+00  0.00000000000E+00  0.59784181096E+01  0.59784181096E+01  0.00000000000E+00 0. -1.
         13   -1    0    0    0    0 -0.00000000000E+00 -0.00000000000E+00 -0.10000000000E+04  0.10000000000E+04  0.00000000000E+00 0.  1.
    9000005    2    1    2  501    0 -0.45848230241E+01  0.53569199301E+02 -0.85840293116E+03  0.86009113922E+03  0.32397260783E+01 0.  0.
         13    1    3    3    0    0 -0.60249138224E+00  0.22306489840E+02 -0.34118868720E+03  0.34191762569E+03  0.00000000000E+00 0.  1.
          3    1    3    3  501    0 -0.39823316418E+01  0.31262709461E+02 -0.51721424396E+03  0.51817351353E+03  0.00000000000E+00 0.  1.
         -3    1    1    2    0  502  0.45848230241E+01 -0.53569199301E+02 -0.13561865073E+03  0.14588727889E+03  0.00000000000E+00 0. -1.
<mgrwt>
<rscale>  1 0.30000000E+03</rscale>
<asrwt>0</asrwt>
<pdfrwt beam="1">  1       21 0.21739748E-01 0.30000000E+03</pdfrwt>
<pdfrwt beam="2">0</pdfrwt>
<totfact> 0.20448861E+03</totfact>
</mgrwt>
</event>
<event>
 6    1  0.1295671E-001  0.3000000E+03  0.7818608E-02  0.1093470E+00
         21   -1    0    0  501  502  0.00000000000E+00  0.00000000000E+00  0.16858570905E+01  0.16858570905E+01  0.00000000000E+00 0. -1.
         13   -1    0    0    0    0 -0.00000000000E+00 -0.00000000000E+00 -0.10000000000E+04  0.10000000000E+04  0.00000000000E+00 0.  1.
    9000005    2    1    2  501    0 -0.31437551664E+02  0.14060180706E+02 -0.77129507162E+03  0.77206950954E+03  0.30383729866E+01 0.  0.
         13    1    3    3    0    0 -0.55958184591E+01  0.27446505038E+01 -0.16712019613E+03  0.16723637835E+03  0.00000000000E+00 0.  1.
          1    1    3    3  501    0 -0.25841733205E+02  0.11315530202E+02 -0.60417487550E+03  0.60483313119E+03  0.00000000000E+00 0.  1.
         -3    1    1    2    0  502  0.31437551664E+02 -0.14060180706E+02 -0.22701907129E+03  0.22961634755E+03  0.00000000000E+00 0. -1.
<mgrwt>
<rscale>  1 0.30000000E+03</rscale>
<asrwt>0</asrwt>
<pdfrwt beam="1">  1       21 0.61304023E-02 0.30000000E+03</pdfrwt>
<pdfrwt beam="2">0</pdfrwt>
<totfact> 0.20304276E+04</totfact>
</mgrwt>
</event>
<event>
 6    1  0.1295671E-001  0.3000000E+03  0.7818608E-02  0.1093470E+00
         21   -1    0    0  501  502  0.00000000000E+00  0.00000000000E+00  0.14876609800E+01  0.14876609800E+01  0.00000000000E+00 0. -1.
         13   -1    0    0    0    0 -0.00000000000E+00 -0.00000000000E+00 -0.10000000000E+04  0.10000000000E+04  0.00000000000E+00 0.  1.
    9000005    2    1    2  501    0 -0.36114729994E+02  0.13181747278E+02 -0.48724546832E+03  0.48877736729E+03  0.41395880616E+01 0.  0.
         13    1    3    3    0    0 -0.28098892531E+01  0.22674394626E+01 -0.42505343366E+02  0.42658422076E+02  0.00000000000E+00 0.  1.
          1    1    3    3  501    0 -0.33304840741E+02  0.10914307816E+02 -0.44474012496E+03  0.44611894521E+03  0.00000000000E+00 0.  1.
         -1    1    1    2    0  502  0.36114729994E+02 -0.13181747278E+02 -0.51126687070E+03  0.51271029369E+03  0.00000000000E+00 0. -1.
<mgrwt>
<rscale>  1 0.30000000E+03</rscale>
<asrwt>0</asrwt>
<pdfrwt beam="1">  1       21 0.54096877E-02 0.30000000E+03</pdfrwt>
<pdfrwt beam="2">0</pdfrwt>
<totfact> 0.25178485E+04</totfact>
</mgrwt>
</event>
<event>
 6    1  0.1295671E-001  0.3000000E+03  0.7818608E-02  0.1093470E+00
         21   -1    0    0  501  502  0.00000000000E+00  0.00000000000E+00  0.43624686567E+01  0.43624686567E+01  0.00000000000E+00 0. -1.
         13   -1    0    0    0    0 -0.00000000000E+00 -0.00000000000E+00 -0.10000000000E+04  0.10000000000E+04  0.00000000000E+00 0.  1.
    9000005    2    1    2  501    0 -0.48460993448E+02 -0.42074602602E+02 -0.61563796986E+03  0.61898160925E+03  0.30631006162E+01 0.  0.
         13    1    3    3    0    0 -0.42627789223E+02 -0.35738464605E+02 -0.52910813948E+03  0.53202423772E+03  0.00000000000E+00 0.  1.
          3    1    3    3  501    0 -0.58332042251E+01 -0.63361379972E+01 -0.86529830387E+02  0.86957371528E+02  0.00000000000E+00 0.  1.
         -1    1    1    2    0  502  0.48460993448E+02  0.42074602602E+02 -0.37999956148E+03  0.38538085940E+03  0.00000000000E+00 0. -1.
<mgrwt>
<rscale>  1 0.30000000E+03</rscale>
<asrwt>0</asrwt>
<pdfrwt beam="1">  1       21 0.15863556E-01 0.30000000E+03</pdfrwt>
<pdfrwt beam="2">0</pdfrwt>
<totfact> 0.37114223E+03</totfact>
</mgrwt>
</event>
<event>
 6    1  0.1295671E-001  0.3000000E+03  0.7818608E-02  0.1093470E+00
         21   -1    0    0  501  502  0.00000000000E+00  0.00000000000E+00  0.14038946722E+01  0.14038946722E+01  0.00000000000E+00 0. -1.
         13   -1    0    0    0    0 -0.00000000000E+00 -0.00000000000E+00 -0.10000000000E+04  0.10000000000E+04  0.00000000000E+00 0.  1.
    9000005    2    1    2  501    0 -0.12781880490E+02  0.32878636133E+02 -0.66604497958E+03  0.66698704040E+03  0.33787660088E+01 0.  0.
         13    1    3    3    0    0 -0.29748606318E+01  0.43721309939E+01 -0.96491273625E+02  0.96636076136E+02  0.00000000000E+00 0.  1.
          3    1    3    3  501    0 -0.98070198578E+01  0.28506505139E+02 -0.56955370595E+03  0.57035096427E+03  0.00000000000E+00 0.  1.
         -3    1    1    2    0  502  0.12781880490E+02 -0.32878636133E+02 -0.33255112575E+03  0.33441685427E+03  0.00000000000E+00 0. -1.
<mgrwt>
<rscale>  1 0.30000000E+03</rscale>
<asrwt>0</asrwt>
<pdfrwt beam="1">  1       21 0.51050823E-02 0.30000000E+03</pdfrwt>
<pdfrwt beam="2">0</pdfrwt>
<totfact> 0.27800729E+04</totfact>
</mgrwt>
</event>
<event>
 6    1  0.1295671E-001  0.3000000E+03  0.7818608E-02  0.1093470E+00
         21   -1    0    0  501  502  0.00000000000E+00  0.00000000000E+00  0.36199160041E+01  0.36199160041E+01  0.00000000000E+00 0. -1.
         13   -1    0    0    0    0 -0.00000000000E+00 -0.00000000000E+00 -0.10000000000E+04  0.10000000000E+04  0.00000000000E+00 0.  1.
    9000005    2    1    2  501    0  0.31475723851E+02  0.36117476761E+02 -0.80151821325E+03  0.80295516576E+03  0.32184982934E+01 0.  0.
         13    1    3    3    0    0  0.89854778919E+01  0.81954408120E+01 -0.20036698786E+03  0.20073573147E+03  0.00000000000E+00 0.  1.
          1    1    3    3  501    0  0.22490245959E+02  0.27922035949E+02 -0.60115122539E+03  0.60221943429E+03  0.00000000000E+00 0.  1.
         -1    1    1    2    0  502 -0.31475723851E+02 -0.36117476761E+02 -0.19486187075E+03  0.20066475024E+03  0.00000000000E+00 0. -1.
<mgrwt>
<rscale>  1 0.30000000E+03</rscale>
<asrwt>0</asrwt>
<pdfrwt beam="1">  1       21 0.13163359E-01 0.30000000E+03</pdfrwt>
<pdfrwt beam="2">0</pdfrwt>
<totfact> 0.52356998E+03</totfact>
</mgrwt>
</event>
<event>
 6    1  0.1295671E-001  0.3000000E+03  0.7818608E-02  0.1093470E+00
         21   -1    0    0  501  502  0.00000000000E+00  0.00000000000E+00  0.44627222747E+01  0.44627222747E+01  0.00000000000E+00 0. -1.
         13   -1    0    0    0    0 -0.00000000000E+00 -0.00000000000E+00 -0.10000000000E+04  0.10000000000E+04  0.00000000000E+00 0.  1.
    9000005    2    1    2  501    0 -0.20936836038E+02 -0.53904560373E+02 -0.74889198476E+03  0.75112904256E+03  0.34030894194E+01 0.  0.
         13    1    3    3    0    0 -0.14802081323E+02 -0.41507672679E+02 -0.57976766616E+03  0.58144005300E+03  0.00000000000E+00 0.  1.
          3    1    3    3  501    0 -0.61347547156E+01 -0.12396887694E+02 -0.16912431859E+03  0.16968898957E+03  0.00000000000E+00 0.  1.
         -3    1    1    2    0  502  0.20936836038E+02  0.53904560373E+02 -0.24664529297E+03  0.25333367971E+03  0.00000000000E+00 0. -1.
<mgrwt>
<rscale>  1 0.30000000E+03</rscale>
<asrwt>0</asrwt>
<pdfrwt beam="1">  1       21 0.16228115E-01 0.30000000E+03</pdfrwt>
<pdfrwt beam="2">0</pdfrwt>
<totfact> 0.35574954E+03</totfact>
</mgrwt>
</event>
<event>
 6    1  0.1295671E-001  0.3000000E+03  0.7818608E-02  0.1093470E+00
         21   -1    0    0  501  502  0.00000000000E+00  0.00000000000E+00  0.21840646512E+01  0.21840646512E+01  0.00000000000E+00 0. -1.
         13   -1    0    0    0    0 -0.00000000000E+00 -0.00000000000E+00 -0.10000000000E+04  0.10000000000E+04  0.00000000000E+00 0.  1.
    9000005    2    1    2  501    0 -0.41727010233E+02  0.82653590490E+00 -0.72363064727E+03  0.72484059755E+03  0.32789700062E+01 0.  0.
         13    1    3    3    0    0 -0.36555995538E+02  0.18055055805E+01 -0.63162743242E+03  0.63268697951E+03  0.00000000000E+00 0.  1.
          3    1    3    3  501    0 -0.51710146950E+01 -0.97896967562E+00 -0.92003214858E+02  0.92153618046E+02  0.00000000000E+00 0.  1.
         -3    1    1    2    0  502  0.41727010233E+02 -0.82653590490E+00 -0.27418528807E+03  0.27734346710E+03  0.00000000000E+00 0. -1.
<mgrwt>
<rscale>  1 0.30000000E+03</rscale>
<asrwt>0</asrwt>
<pdfrwt beam="1">  1       21 0.79420700E-02 0.30000000E+03</pdfrwt>
<pdfrwt beam="2">0</pdfrwt>
<totfact> 0.12937942E+04</totfact>
</mgrwt>
</event>
<event>
 6    1  0.1295671E-001  0.3000000E+03  0.7818608E-02  0.1093470E+00
         21   -1    0    0  501  502  0.00000000000E+00  0.00000000000E+00  0.17362836915E+01  0.17362836915E+01  0.00000000000E+00 0. -1.
         13   -1    0    0    0    0 -0.00000000000E+00 -0.00000000000E+00 -0.10000000000E+04  0.10000000000E+04  0.00000000000E+00 0.  1.
    9000005    2    1    2  501    0  0.33365300075E+02  0.16169966002E+02 -0.72689774949E+03  0.72784908247E+03  0.30393385214E+01 0.  0.
         13    1    3    3    0    0  0.22145432978E+01  0.68891701665E+00 -0.59889438469E+02  0.59934327800E+02  0.00000000000E+00 0.  1.
          1    1    3    3  501    0  0.31150756778E+02  0.15481048985E+02 -0.66700831102E+03  0.66791475467E+03  0.00000000000E+00 0.  1.
         -1    1    1    2    0  502 -0.33365300075E+02 -0.16169966002E+02 -0.27136596681E+03  0.27388720122E+03  0.00000000000E+00 0. -1.
<mgrwt>
<rscale>  1 0.30000000E+03</rscale>
<asrwt>0</asrwt>
<pdfrwt beam="1">  1       21 0.63137722E-02 0.30000000E+03</pdfrwt>
<pdfrwt beam="2">0</pdfrwt>
<totfact> 0.19296438E+04</totfact>
</mgrwt>
</event>
<event>
 6    1  0.1295671E-001  0.3000000E+03  0.7818608E-02  0.1093470E+00
         21   -1    0    0  501  502  0.00000000000E+00  0.00000000000E+00  0.47990241157E+01  0.47990241157E+01  0.00000000000E+00 0. -1.
         13   -1    0    0    0    0 -0.00000000000E+00 -0.00000000000E+00 -0.10000000000E+04  0.10000000000E+04  0.00000000000E+00 0.  1.
    9000005    2    1    2  501    0  0.33814325595E+02 -0.29673690060E+02 -0.87926128408E+03  0.88043685690E+03  0.66870637019E+01 0.  0.
         13    1    3    3    0    0  0.29721941515E+02 -0.23567273793E+02 -0.70340658492E+03  0.70442858681E+03  0.00000000000E+00 0.  1.
          1    1    3    3  501    0  0.40923840805E+01 -0.61064162673E+01 -0.17585469916E+03  0.17600827010E+03  0.00000000000E+00 0.  1.
         -1    1    1    2    0  502 -0.33814325595E+02  0.29673690060E+02 -0.11593969181E+03  0.12436216721E+03  0.00000000000E+00 0. -1.
<mgrwt>
<rscale>  1 0.30000000E+03</rscale>
<asrwt>0</asrwt>
<pdfrwt beam="1">  1       21 0.17451034E-01 0.30000000E+03</pdfrwt>
<pdfrwt beam="2">0</pdfrwt>
<totfact> 0.31052397E+03</totfact>
</mgrwt>
</event>
<event>
 6    1  0.1295671E-001  0.3000000E+03  0.7818608E-02  0.1093470E+00
         21   -1    0    0  501  502  0.00000000000E+00  0.00000000000E+00  0.16569621616E+01  0.16569621616E+01  0.00000000000E+00 0. -1.
         13   -1    0    0    0    0 -0.00000000000E+00 -0.00000000000E+00 -0.10000000000E+04  0.10000000000E+04  0.00000000000E+00 0.  1.
    9000005    2    1    2  501    0  0.21521939687E+02 -0.29988485839E+02 -0.29279577078E+03  0.29514479013E+03  0.43105202974E+01 0.  0.
         13    1    3    3    0    0  0.11965760929E+02 -0.20230913284E+02 -0.18435106063E+03  0.18584343637E+03  0.00000000000E+00 0.  1.
          1    1    3    3  501    0  0.95561787587E+01 -0.97575725552E+01 -0.10844471015E+03  0.10930135376E+03  0.00000000000E+00 0.  1.
         -3    1    1    2    0  502 -0.21521939687E+02  0.29988485839E+02 -0.70554726706E+03  0.70651217203E+03  0.00000000000E+00 0. -1.
<mgrwt>
<rscale>  1 0.30000000E+03</rscale>
<asrwt>0</asrwt>
<pdfrwt beam="1">  1       21 0.60253297E-02 0.30000000E+03</pdfrwt>
<pdfrwt beam="2">0</pdfrwt>
<totfact> 0.20919113E+04</totfact>
</mgrwt>
</event>
<event>
 6    1  0.1295671E-001  0.3000000E+03  0.7818608E-02  0.1093470E+00
         21   -1    0    0  501  502  0.00000000000E+00  0.00000000000E+00  0.25981714666E+01  0.25981714666E+01  0.00000000000E+00 0. -1.
         13   -1    0    0    0    0 -0.00000000000E+00 -0.00000000000E+00 -0.10000000000E+04  0.10000000000E+04  0.00000000000E+00 0.  1.
    9000005    2    1    2  501    0  0.21943001524E+02 -0.23828737481E+02 -0.88565344628E+03  0.88624953597E+03  0.26285075511E+01 0.  0.
         13    1    3    3    0    0  0.70407021495E+01 -0.75211245133E+01 -0.24940218659E+03  0.24961488232E+03  0.00000000000E+00 0.  1.
          1    1    3    3  501    0  0.14902299375E+02 -0.16307612968E+02 -0.63625125970E+03  0.63663465365E+03  0.00000000000E+00 0.  1.
         -1    1    1    2    0  502 -0.21943001524E+02  0.23828737481E+02 -0.11174838225E+03  0.11634863549E+03  0.00000000000E+00 0. -1.
<mgrwt>
<rscale>  1 0.30000000E+03</rscale>
<asrwt>0</asrwt>
<pdfrwt beam="1">  1       21 0.94479162E-02 0.30000000E+03</pdfrwt>
<pdfrwt beam="2">0</pdfrwt>
<totfact> 0.95204767E+03</totfact>
</mgrwt>
</event>
<event>
 6    1  0.1295671E-001  0.3000000E+03  0.7818608E-02  0.1093470E+00
         21   -1    0    0  501  502  0.00000000000E+00  0.00000000000E+00  0.10019503698E+01  0.10019503698E+01  0.00000000000E+00 0. -1.
         13   -1    0    0    0    0 -0.00000000000E+00 -0.00000000000E+00 -0.10000000000E+04  0.10000000000E+04  0.00000000000E+00 0.  1.
    9000005    2    1    2  501    0 -0.24899144248E+02 -0.19177693375E+02 -0.54872668028E+03  0.54963507369E+03  0.31612135692E+01 0.  0.
         13    1    3    3    0    0 -0.20981437957E+02 -0.17387526146E+02 -0.46521205158E+03  0.46600944169E+03  0.00000000000E+00 0.  1.
          1    1    3    3  501    0 -0.39177062907E+01 -0.17901672297E+01 -0.83514628697E+02  0.83625632002E+02  0.00000000000E+00 0.  1.
         -3    1    1    2    0  502  0.24899144248E+02  0.19177693375E+02 -0.45027136935E+03  0.45136687668E+03  0.00000000000E+00 0. -1.
<mgrwt>
<rscale>  1 0.30000000E+03</rscale>
<asrwt>0</asrwt>
<pdfrwt beam="1">  1       21 0.36434636E-02 0.30000000E+03</pdfrwt>
<pdfrwt beam="2">0</pdfrwt>
<totfact> 0.49190144E+04</totfact>
</mgrwt>
</event>
<event>
 6    1  0.1295671E-001  0.3000000E+03  0.7818608E-02  0.1093470E+00
         21   -1    0    0  501  502  0.00000000000E+00  0.00000000000E+00  0.57821902338E+01  0.57821902338E+01  0.00000000000E+00 0. -1.
         13   -1    0    0    0    0 -0.00000000000E+00 -0.00000000000E+00 -0.10000000000E+04  0.10000000000E+04  0.00000000000E+00 0.  1.
    9000005    2    1    2  501    0  0.54688348832E+02  0.92676221458E+01 -0.84099310635E+03  0.84282663171E+03  0.32591204277E+01 0.  0.
         13    1    3    3    0    0  0.26735084389E+01 -0.25018951362E+00 -0.40898594497E+02  0.40986647509E+02  0.00000000000E+00 0.  1.
          3    1    3    3  501    0  0.52014840393E+02  0.95178116595E+01 -0.80009451186E+03  0.80183998420E+03  0.00000000000E+00 0.  1.
         -3    1    1    2    0  502 -0.54688348832E+02 -0.92676221458E+01 -0.15322470341E+03  0.16295555852E+03  0.00000000000E+00 0. -1.
<mgrwt>
<rscale>  1 0.30000000E+03</rscale>
<asrwt>0</asrwt>
<pdfrwt beam="1">  1       21 0.21026191E-01 0.30000000E+03</pdfrwt>
<pdfrwt beam="2">0</pdfrwt>
<totfact> 0.21802073E+03</totfact>
</mgrwt>
</event>
<event>
 6    1  0.1295671E-001  0.3000000E+03  0.7818608E-02  0.1093470E+00
         21   -1    0    0  501  502  0.00000000000E+00  0.00000000000E+00  0.15469889367E+02  0.15469889367E+02  0.00000000000E+00 0. -1.
         13   -1    0    0    0    0 -0.00000000000E+00 -0.00000000000E+00 -0.10000000000E+04  0.10000000000E+04  0.00000000000E+00 0.  1.
    9000005    2    1    2  501    0 -0.99976506525E+02 -0.22419548154E+02 -0.78004837166E+03  0.78675452134E+03  0.30457726504E+01 0.  0.
         13    1    3    3    0    0 -0.70147945550E+02 -0.14301230991E+02 -0.54550674893E+03  0.55018439873E+03  0.00000000000E+00 0.  1.
          3    1    3    3  501    0 -0.29828560975E+02 -0.81183171635E+01 -0.23454162272E+03  0.23657012261E+03  0.00000000000E+00 0.  1.
         -3    1    1    2    0  502  0.99976506525E+02  0.22419548154E+02 -0.20448173898E+03  0.22871536803E+03  0.00000000000E+00 0. -1.
<mgrwt>
<rscale>  1 0.30000000E+03</rscale>
<asrwt>0</asrwt>
<pdfrwt beam="1">  1       21 0.56254262E-01 0.30000000E+03</pdfrwt>
<pdfrwt beam="2">0</pdfrwt>
<totfact> 0.29001760E+02</totfact>
</mgrwt>
</event>
<event>
 6    1  0.1295671E-001  0.3000000E+03  0.7818608E-02  0.1093470E+00
         21   -1    0    0  501  502  0.00000000000E+00  0.00000000000E+00  0.26818913395E+01  0.26818913395E+01  0.00000000000E+00 0. -1.
         13   -1    0    0    0    0 -0.00000000000E+00 -0.00000000000E+00 -0.10000000000E+04  0.10000000000E+04  0.00000000000E+00 0.  1.
    9000005    2    1    2  501    0  0.36402996115E+02 -0.14095334824E+02 -0.82785939756E+03  0.82878505020E+03  0.31017284561E+01 0.  0.
         13    1    3    3    0    0  0.14522544088E+02 -0.57367403416E+01 -0.29956823450E+03  0.29997490161E+03  0.00000000000E+00 0.  1.
          1    1    3    3  501    0  0.21880452026E+02 -0.83585944824E+01 -0.52829116306E+03  0.52881014858E+03  0.00000000000E+00 0.  1.
         -1    1    1    2    0  502 -0.36402996115E+02  0.14095334824E+02 -0.16945871110E+03  0.17389684114E+03  0.00000000000E+00 0. -1.
<mgrwt>
<rscale>  1 0.30000000E+03</rscale>
<asrwt>0</asrwt>
<pdfrwt beam="1">  1       21 0.97523527E-02 0.30000000E+03</pdfrwt>
<pdfrwt beam="2">0</pdfrwt>
<totfact> 0.89971628E+03</totfact>
</mgrwt>
</event>
<event>
 6    1  0.1295671E-001  0.3000000E+03  0.7818608E-02  0.1093470E+00
         21   -1    0    0  501  502  0.00000000000E+00  0.00000000000E+00  0.13515098266E+01  0.13515098266E+01  0.00000000000E+00 0. -1.
         13   -1    0    0    0    0 -0.00000000000E+00 -0.00000000000E+00 -0.10000000000E+04  0.10000000000E+04  0.00000000000E+00 0.  1.
    9000005    2    1    2  501    0  0.22902294747E+02 -0.21995442543E+02 -0.75057015898E+03  0.75124918476E+03  0.33851809374E+01 0.  0.
         13    1    3    3    0    0  0.47851263319E+00 -0.19556383679E+00 -0.58981882549E+01  0.59207976020E+01  0.00000000000E+00 0.  1.
          1    1    3    3  501    0  0.22423782114E+02 -0.21799878706E+02 -0.74467197072E+03  0.74532838715E+03  0.00000000000E+00 0.  1.
         -1    1    1    2    0  502 -0.22902294747E+02  0.21995442543E+02 -0.24807833119E+03  0.25010232507E+03  0.00000000000E+00 0. -1.
<mgrwt>
<rscale>  1 0.30000000E+03</rscale>
<asrwt>0</asrwt>
<pdfrwt beam="1">  1       21 0.49145916E-02 0.30000000E+03</pdfrwt>
<pdfrwt beam="2">0</pdfrwt>
<totfact> 0.29662868E+04</totfact>
</mgrwt>
</event>
<event>
 6    1  0.1295671E-001  0.3000000E+03  0.7818608E-02  0.1093470E+00
         21   -1    0    0  501  502  0.00000000000E+00  0.00000000000E+00  0.13436609554E+01  0.13436609554E+01  0.00000000000E+00 0. -1.
         13   -1    0    0    0    0 -0.00000000000E+00 -0.00000000000E+00 -0.10000000000E+04  0.10000000000E+04  0.00000000000E+00 0.  1.
    9000005    2    1    2  501    0 -0.24057386569E+02  0.26977881662E+02 -0.42983542066E+03  0.43137541523E+03  0.44380243625E+01 0.  0.
         13    1    3    3    0    0 -0.17539834485E+02  0.16617841081E+02 -0.27915049707E+03  0.28019421559E+03  0.00000000000E+00 0.  1.
          3    1    3    3  501    0 -0.65175520844E+01  0.10360040581E+02 -0.15068492359E+03  0.15118119964E+03  0.00000000000E+00 0.  1.
         -3    1    1    2    0  502  0.24057386569E+02 -0.26977881662E+02 -0.56882091838E+03  0.56996824573E+03  0.00000000000E+00 0. -1.
<mgrwt>
<rscale>  1 0.30000000E+03</rscale>
<asrwt>0</asrwt>
<pdfrwt beam="1">  1       21 0.48860501E-02 0.30000000E+03</pdfrwt>
<pdfrwt beam="2">0</pdfrwt>
<totfact> 0.29958576E+04</totfact>
</mgrwt>
</event>
<event>
 6    1  0.1295671E-001  0.3000000E+03  0.7818608E-02  0.1093470E+00
         21   -1    0    0  501  502  0.00000000000E+00  0.00000000000E+00  0.40811868457E+01  0.40811868457E+01  0.00000000000E+00 0. -1.
         13   -1    0    0    0    0 -0.00000000000E+00 -0.00000000000E+00 -0.10000000000E+04  0.10000000000E+04  0.00000000000E+00 0.  1.
    9000005    2    1    2  501    0 -0.27012344449E+02  0.16007646864E+02 -0.93503872539E+03  0.93558084672E+03  0.53095447821E+01 0.  0.
         13    1    3    3    0    0 -0.19598372886E+02  0.13924943515E+02 -0.67447521983E+03  0.67490356529E+03  0.00000000000E+00 0.  1.
          1    1    3    3  501    0 -0.74139715626E+01  0.20827033485E+01 -0.26056350556E+03  0.26067728143E+03  0.00000000000E+00 0.  1.
         -1    1    1    2    0  502  0.27012344449E+02 -0.16007646864E+02 -0.60880087768E+02  0.68500340126E+02  0.00000000000E+00 0. -1.
<mgrwt>
<rscale>  1 0.30000000E+03</rscale>
<asrwt>0</asrwt>
<pdfrwt beam="1">  1       21 0.14840711E-01 0.30000000E+03</pdfrwt>
<pdfrwt beam="2">0</pdfrwt>
<totfact> 0.42001663E+03</totfact>
</mgrwt>
</event>
<event>
 6    1  0.1295671E-001  0.3000000E+03  0.7818608E-02  0.1093470E+00
         21   -1    0    0  501  502  0.00000000000E+00  0.00000000000E+00  0.13646975885E+01  0.13646975885E+01  0.00000000000E+00 0. -1.
         13   -1    0    0    0    0 -0.00000000000E+00 -0.00000000000E+00 -0.10000000000E+04  0.10000000000E+04  0.00000000000E+00 0.  1.
    9000005    2    1    2  501    0 -0.35742422456E+02 -0.50690239362E+01 -0.60317693030E+03  0.60426201585E+03  0.26379523113E+01 0.  0.
         13    1    3    3    0    0 -0.72810481736E+01 -0.21152198573E+01 -0.12660954953E+03  0.12683637432E+03  0.00000000000E+00 0.  1.
          3    1    3    3  501    0 -0.28461374283E+02 -0.29538040789E+01 -0.47656738076E+03  0.47742564153E+03  0.00000000000E+00 0.  1.
         -3    1    1    2    0  502  0.35742422456E+02  0.50690239362E+01 -0.39545837211E+03  0.39710268174E+03  0.00000000000E+00 0. -1.
<mgrwt>
<rscale>  1 0.30000000E+03</rscale>
<asrwt>0</asrwt>
<pdfrwt beam="1">  1       21 0.49625471E-02 0.30000000E+03</pdfrwt>
<pdfrwt beam="2">0</pdfrwt>
<totfact> 0.29176164E+04</totfact>
</mgrwt>
</event>
<event>
 6    1  0.1295671E-001  0.3000000E+03  0.7818608E-02  0.1093470E+00
         21   -1    0    0  501  502  0.00000000000E+00  0.00000000000E+00  0.98443029477E+01  0.98443029477E+01  0.00000000000E+00 0. -1.
         13   -1    0    0    0    0 -0.00000000000E+00 -0.00000000000E+00 -0.10000000000E+04  0.10000000000E+04  0.00000000000E+00 0.  1.
    9000005    2    1    2  501    0 -0.92789337462E+02 -0.11355450267E+02 -0.66398415865E+03  0.67054107593E+03  0.34006147352E+01 0.  0.
         13    1    3    3    0    0 -0.28539354564E+02 -0.49161409346E+01 -0.21055869675E+03  0.21254088543E+03  0.00000000000E+00 0.  1.
          3    1    3    3  501    0 -0.64249982898E+02 -0.64393093322E+01 -0.45342546190E+03  0.45800019051E+03  0.00000000000E+00 0.  1.
         -3    1    1    2    0  502  0.92789337462E+02  0.11355450267E+02 -0.32617153840E+03  0.33930322701E+03  0.00000000000E+00 0. -1.
<mgrwt>
<rscale>  1 0.30000000E+03</rscale>
<asrwt>0</asrwt>
<pdfrwt beam="1">  1       21 0.35797541E-01 0.30000000E+03</pdfrwt>
<pdfrwt beam="2">0</pdfrwt>
<totfact> 0.75990218E+02</totfact>
</mgrwt>
</event>
<event>
 6    1  0.1295671E-001  0.3000000E+03  0.7818608E-02  0.1093470E+00
         21   -1    0    0  501  502  0.00000000000E+00  0.00000000000E+00  0.13370082405E+01  0.13370082405E+01  0.00000000000E+00 0. -1.
         13   -1    0    0    0    0 -0.00000000000E+00 -0.00000000000E+00 -0.10000000000E+04  0.10000000000E+04  0.00000000000E+00 0.  1.
    9000005    2    1    2  501    0 -0.11428769869E+02 -0.28818525298E+02 -0.23697645867E+03  0.23901981778E+03  0.33922185911E+01 0.  0.
         13    1    3    3    0    0 -0.98344495009E+01 -0.22111192915E+02 -0.17635856404E+03  0.17801113549E+03  0.00000000000E+00 0.  1.
          1    1    3    3  501    0 -0.15943203686E+01 -0.67073323832E+01 -0.60617894632E+02  0.61008682290E+02  0.00000000000E+00 0.  1.
         -3    1    1    2    0  502  0.11428769869E+02  0.28818525298E+02 -0.76168653309E+03  0.76231719046E+03  0.00000000000E+00 0. -1.
<mgrwt>
<rscale>  1 0.30000000E+03</rscale>
<asrwt>0</asrwt>
<pdfrwt beam="1">  1       21 0.48618584E-02 0.30000000E+03</pdfrwt>
<pdfrwt beam="2">0</pdfrwt>
<totfact> 0.30212839E+04</totfact>
</mgrwt>
</event>
<event>
 6    1  0.1295671E-001  0.3000000E+03  0.7818608E-02  0.1093470E+00
         21   -1    0    0  501  502  0.00000000000E+00  0.00000000000E+00  0.32592860222E+01  0.32592860222E+01  0.00000000000E+00 0. -1.
         13   -1    0    0    0    0 -0.00000000000E+00 -0.00000000000E+00 -0.10000000000E+04  0.10000000000E+04  0.00000000000E+00 0.  1.
    9000005    2    1    2  501    0  0.16449041817E+02  0.32182405433E+02 -0.88638188269E+03  0.88713284701E+03  0.50564882903E+01 0.  0.
         13    1    3    3    0    0  0.75374308183E+01  0.19362373177E+02 -0.47267014462E+03  0.47312660037E+03  0.00000000000E+00 0.  1.
          3    1    3    3  501    0  0.89116109985E+01  0.12820032256E+02 -0.41371173807E+03  0.41400624664E+03  0.00000000000E+00 0.  1.
         -3    1    1    2    0  502 -0.16449041817E+02 -0.32182405433E+02 -0.11035883129E+03  0.11612643902E+03  0.00000000000E+00 0. -1.
<mgrwt>
<rscale>  1 0.30000000E+03</rscale>
<asrwt>0</asrwt>
<pdfrwt beam="1">  1       21 0.11851974E-01 0.30000000E+03</pdfrwt>
<pdfrwt beam="2">0</pdfrwt>
<totfact> 0.63382061E+03</totfact>
</mgrwt>
</event>
<event>
 6    1  0.1295671E-001  0.3000000E+03  0.7818608E-02  0.1093470E+00
         21   -1    0    0  501  502  0.00000000000E+00  0.00000000000E+00  0.97688752844E+00  0.97688752844E+00  0.00000000000E+00 0. -1.
         13   -1    0    0    0    0 -0.00000000000E+00 -0.00000000000E+00 -0.10000000000E+04  0.10000000000E+04  0.00000000000E+00 0.  1.
    9000005    2    1    2  501    0  0.11817617434E+02 -0.28472731516E+02 -0.42603196933E+03  0.42715705288E+03  0.30913441746E+01 0.  0.
         13    1    3    3    0    0  0.28725943687E+01 -0.74197211585E+01 -0.92459893075E+02  0.92801594210E+02  0.00000000000E+00 0.  1.
          3    1    3    3  501    0  0.89450230654E+01 -0.21053010357E+02 -0.33357207626E+03  0.33435545867E+03  0.00000000000E+00 0.  1.
         -1    1    1    2    0  502 -0.11817617434E+02  0.28472731516E+02 -0.57299114314E+03  0.57381983465E+03  0.00000000000E+00 0. -1.
<mgrwt>
<rscale>  1 0.30000000E+03</rscale>
<asrwt>0</asrwt>
<pdfrwt beam="1">  1       21 0.35523258E-02 0.30000000E+03</pdfrwt>
<pdfrwt beam="2">0</pdfrwt>
<totfact> 0.51324773E+04</totfact>
</mgrwt>
</event>
<event>
 6    1  0.1295671E-001  0.3000000E+03  0.7818608E-02  0.1093470E+00
         21   -1    0    0  501  502  0.00000000000E+00  0.00000000000E+00  0.10809383778E+01  0.10809383778E+01  0.00000000000E+00 0. -1.
         13   -1    0    0    0    0 -0.00000000000E+00 -0.00000000000E+00 -0.10000000000E+04  0.10000000000E+04  0.00000000000E+00 0.  1.
    9000005    2    1    2  501    0 -0.30095147178E+02 -0.10419356291E+02 -0.61929229199E+03  0.62012061880E+03  0.35154056822E+01 0.  0.
         13    1    3    3    0    0 -0.24659057859E+02 -0.87437425509E+01 -0.53223663004E+03  0.53287930390E+03  0.00000000000E+00 0.  1.
          3    1    3    3  501    0 -0.54360893193E+01 -0.16756137397E+01 -0.87055661946E+02  0.87241314899E+02  0.00000000000E+00 0.  1.
         -1    1    1    2    0  502  0.30095147178E+02  0.10419356291E+02 -0.37962676964E+03  0.38096031958E+03  0.00000000000E+00 0. -1.
<mgrwt>
<rscale>  1 0.30000000E+03</rscale>
<asrwt>0</asrwt>
<pdfrwt beam="1">  1       21 0.39306933E-02 0.30000000E+03</pdfrwt>
<pdfrwt beam="2">0</pdfrwt>
<totfact> 0.43302809E+04</totfact>
</mgrwt>
</event>
<event>
 6    1  0.1295671E-001  0.3000000E+03  0.7818608E-02  0.1093470E+00
         21   -1    0    0  501  502  0.00000000000E+00  0.00000000000E+00  0.18872278624E+01  0.18872278624E+01  0.00000000000E+00 0. -1.
         13   -1    0    0    0    0 -0.00000000000E+00 -0.00000000000E+00 -0.10000000000E+04  0.10000000000E+04  0.00000000000E+00 0.  1.
    9000005    2    1    2  501    0 -0.12317545117E+02  0.32207418971E+02 -0.80229595409E+03  0.80305748666E+03  0.57869840704E+01 0.  0.
         13    1    3    3    0    0 -0.83076709398E+01  0.13673473627E+02 -0.37194364824E+03  0.37228760219E+03  0.00000000000E+00 0.  1.
          1    1    3    3  501    0 -0.40098741772E+01  0.18533945343E+02 -0.43035230585E+03  0.43076988448E+03  0.00000000000E+00 0.  1.
         -1    1    1    2    0  502  0.12317545117E+02 -0.32207418971E+02 -0.19581681805E+03  0.19882974120E+03  0.00000000000E+00 0. -1.
<mgrwt>
<rscale>  1 0.30000000E+03</rscale>
<asrwt>0</asrwt>
<pdfrwt beam="1">  1       21 0.68626612E-02 0.30000000E+03</pdfrwt>
<pdfrwt beam="2">0</pdfrwt>
<totfact> 0.16700958E+04</totfact>
</mgrwt>
</event>
<event>
 6    1  0.1295671E-001  0.3000000E+03  0.7818608E-02  0.1093470E+00
         21   -1    0    0  501  502  0.00000000000E+00  0.00000000000E+00  0.12835344008E+01  0.12835344008E+01  0.00000000000E+00 0. -1.
         13   -1    0    0    0    0 -0.00000000000E+00 -0.00000000000E+00 -0.10000000000E+04  0.10000000000E+04  0.00000000000E+00 0.  1.
    9000005    2    1    2  501    0 -0.31199258634E+02 -0.54859540354E+01 -0.72858240858E+03  0.72929842784E+03  0.63546299641E+01 0.  0.
         13    1    3    3    0    0 -0.23333012386E+02 -0.68512705914E+01 -0.54185222715E+03  0.54239764513E+03  0.00000000000E+00 0.  1.
          3    1    3    3  501    0 -0.78662462483E+01  0.13653165560E+01 -0.18673018143E+03  0.18690078271E+03  0.00000000000E+00 0.  1.
         -3    1    1    2    0  502  0.31199258634E+02  0.54859540354E+01 -0.27013405702E+03  0.27198510656E+03  0.00000000000E+00 0. -1.
<mgrwt>
<rscale>  1 0.30000000E+03</rscale>
<asrwt>0</asrwt>
<pdfrwt beam="1">  1       21 0.46674077E-02 0.30000000E+03</pdfrwt>
<pdfrwt beam="2">0</pdfrwt>
<totfact> 0.32385188E+04</totfact>
</mgrwt>
</event>
