<event>
 6    1  0.1439793E-004  0.7051965E+03  0.7818608E-02  0.9708386E-01
         21   -1    0    0  501  502  0.00000000000E+00  0.00000000000E+00  0.25600260524E+03  0.25600260524E+03  0.00000000000E+00 0.  1.
         13   -1    0    0    0    0 -0.00000000000E+00 -0.00000000000E+00 -0.10000000000E+04  0.10000000000E+04  0.00000000000E+00 0.  1.
    9000005    2    1    2  501    0 -0.86748405614E+02 -0.26777762658E+03 -0.65049975719E+03  0.95940194543E+03  0.64658488662E+03 0.  0.
         13    1    3    3    0    0  0.33366284790E+02  0.20472257668E+03 -0.12317113157E+03  0.24123799455E+03  0.00000000000E+00 0.  1.
          1    1    3    3  501    0 -0.12011469040E+03 -0.47250020326E+03 -0.52732862562E+03  0.71816395087E+03  0.00000000000E+00 0.  1.
         -1    1    1    2    0  502  0.86748405614E+02  0.26777762658E+03 -0.93497637567E+02  0.29660065981E+03  0.00000000000E+00 0. -1.
<mgrwt>
<rscale>  1 0.70519654E+03</rscale>
<asrwt>0</asrwt>
<pdfrwt beam="1">  1       21 0.39385015E-01 0.70519654E+03</pdfrwt>
<pdfrwt beam="2">0</pdfrwt>
<totfact> 0.58073611E+02</totfact>
</mgrwt>
</event>
<event>
 6    1  0.1439793E-004  0.6479497E+03  0.7818608E-02  0.9810634E-01
         21   -1    0    0  501  502  0.00000000000E+00  0.00000000000E+00  0.12537479646E+03  0.12537479646E+03  0.00000000000E+00 0.  1.
         13   -1    0    0    0    0 -0.00000000000E+00 -0.00000000000E+00 -0.10000000000E+04  0.10000000000E+04  0.00000000000E+00 0.  1.
    9000005    2    1    2  501    0 -0.10203279871E+02 -0.30465239920E+02 -0.87998714394E+03  0.10928019831E+04  0.64715265824E+03 0.  0.
         13    1    3    3    0    0 -0.12437232390E+03 -0.95360716006E+02  0.41403318292E+02  0.16209989474E+03  0.00000000000E+00 0.  1.
          3    1    3    3  501    0  0.11416904403E+03  0.64895476087E+02 -0.92139046223E+03  0.93070208838E+03  0.00000000000E+00 0.  1.
         -3    1    1    2    0  502  0.10203279871E+02  0.30465239920E+02  0.53619403933E+01  0.32572813331E+02  0.00000000000E+00 0. -1.
<mgrwt>
<rscale>  1 0.64794969E+03</rscale>
<asrwt>0</asrwt>
<pdfrwt beam="1">  1       21 0.19288430E-01 0.64794969E+03</pdfrwt>
<pdfrwt beam="2">0</pdfrwt>
<totfact> 0.24056013E+03</totfact>
</mgrwt>
</event>
<event>
 6    1  0.1439793E-004  0.6516750E+03  0.7818608E-02  0.9803641E-01
         21   -1    0    0  501  502  0.00000000000E+00  0.00000000000E+00  0.17096338815E+03  0.17096338815E+03  0.00000000000E+00 0.  1.
         13   -1    0    0    0    0 -0.00000000000E+00 -0.00000000000E+00 -0.10000000000E+04  0.10000000000E+04  0.00000000000E+00 0.  1.
    9000005    2    1    2  501    0  0.54538200121E+02  0.61470757237E+02 -0.86353579606E+03  0.10818384030E+04  0.64647288407E+03 0.  0.
         13    1    3    3    0    0 -0.54746588811E+01  0.20751681590E+03 -0.89676984247E+03  0.92048321610E+03  0.00000000000E+00 0.  1.
          3    1    3    3  501    0  0.60012859002E+02 -0.14604605866E+03  0.33234046405E+02  0.16135518689E+03  0.00000000000E+00 0.  1.
         -3    1    1    2    0  502 -0.54538200121E+02 -0.61470757237E+02  0.34499184210E+02  0.89124985155E+02  0.00000000000E+00 0. -1.
<mgrwt>
<rscale>  1 0.65167496E+03</rscale>
<asrwt>0</asrwt>
<pdfrwt beam="1">  1       21 0.26302059E-01 0.65167496E+03</pdfrwt>
<pdfrwt beam="2">0</pdfrwt>
<totfact> 0.13177567E+03</totfact>
</mgrwt>
</event>
<event>
 6    1  0.1439793E-004  0.6601089E+03  0.7818608E-02  0.9787993E-01
         21   -1    0    0  501  502  0.00000000000E+00  0.00000000000E+00  0.14083200363E+03  0.14083200363E+03  0.00000000000E+00 0.  1.
         13   -1    0    0    0    0 -0.00000000000E+00 -0.00000000000E+00 -0.10000000000E+04  0.10000000000E+04  0.00000000000E+00 0.  1.
    9000005    2    1    2  501    0 -0.20514627376E+02  0.56152948353E+02 -0.85600369854E+03  0.10809653491E+04  0.65739618989E+03 0.  0.
         13    1    3    3    0    0 -0.27414458158E+03  0.18470406223E+03 -0.25983744932E+03  0.42045967973E+03  0.00000000000E+00 0.  1.
          3    1    3    3  501    0  0.25362995421E+03 -0.12855111387E+03 -0.59616624922E+03  0.66050566936E+03  0.00000000000E+00 0.  1.
         -1    1    1    2    0  502  0.20514627376E+02 -0.56152948353E+02 -0.31642978287E+01  0.59866654541E+02  0.00000000000E+00 0. -1.
<mgrwt>
<rscale>  1 0.66010890E+03</rscale>
<asrwt>0</asrwt>
<pdfrwt beam="1">  1       21 0.21666461E-01 0.66010890E+03</pdfrwt>
<pdfrwt beam="2">0</pdfrwt>
<totfact> 0.19229799E+03</totfact>
</mgrwt>
</event>
<event>
 6    1  0.1439793E-004  0.6570352E+03  0.7818608E-02  0.9793667E-01
         21   -1    0    0  501  502  0.00000000000E+00  0.00000000000E+00  0.19607272333E+03  0.19607272333E+03  0.00000000000E+00 0. -1.
         13   -1    0    0    0    0 -0.00000000000E+00 -0.00000000000E+00 -0.10000000000E+04  0.10000000000E+04  0.00000000000E+00 0.  1.
    9000005    2    1    2  501    0 -0.85744355786E+02  0.48084752358E+02 -0.86049126247E+03  0.10826543719E+04  0.64963915997E+03 0.  0.
         13    1    3    3    0    0 -0.35015761695E+03  0.12021710785E+03 -0.59692491961E+03  0.70241146729E+03  0.00000000000E+00 0.  1.
          3    1    3    3  501    0  0.26441326117E+03 -0.72132355490E+02 -0.26356634287E+03  0.38024290458E+03  0.00000000000E+00 0.  1.
         -3    1    1    2    0  502  0.85744355786E+02 -0.48084752358E+02  0.56563985802E+02  0.11341835146E+03  0.00000000000E+00 0. -1.
<mgrwt>
<rscale>  1 0.65703522E+03</rscale>
<asrwt>0</asrwt>
<pdfrwt beam="1">  1       21 0.30165033E-01 0.65703522E+03</pdfrwt>
<pdfrwt beam="2">0</pdfrwt>
<totfact> 0.10032625E+03</totfact>
</mgrwt>
</event>
<event>
 6    1  0.1439793E-004  0.6635019E+03  0.7818608E-02  0.9781769E-01
         21   -1    0    0  501  502  0.00000000000E+00  0.00000000000E+00  0.18249970369E+03  0.18249970369E+03  0.00000000000E+00 0.  1.
         13   -1    0    0    0    0 -0.00000000000E+00 -0.00000000000E+00 -0.10000000000E+04  0.10000000000E+04  0.00000000000E+00 0.  1.
    9000005    2    1    2  501    0  0.24812739092E+02 -0.95524004540E+02 -0.85026362125E+03  0.10785095939E+04  0.65612057668E+03 0.  0.
         13    1    3    3    0    0  0.67410569115E+02 -0.20502288423E+03 -0.91790571153E+03  0.94293661672E+03  0.00000000000E+00 0.  1.
          3    1    3    3  501    0 -0.42597830023E+02  0.10949887969E+03  0.67642090281E+02  0.13557297723E+03  0.00000000000E+00 0.  1.
         -1    1    1    2    0  502 -0.24812739092E+02  0.95524004540E+02  0.32763324939E+02  0.10399010975E+03  0.00000000000E+00 0. -1.
<mgrwt>
<rscale>  1 0.66350186E+03</rscale>
<asrwt>0</asrwt>
<pdfrwt beam="1">  1       21 0.28076877E-01 0.66350186E+03</pdfrwt>
<pdfrwt beam="2">0</pdfrwt>
<totfact> 0.11572265E+03</totfact>
</mgrwt>
</event>
<event>
 6    1  0.1439793E-004  0.6626410E+03  0.7818608E-02  0.9783344E-01
         21   -1    0    0  501  502  0.00000000000E+00  0.00000000000E+00  0.14295564820E+03  0.14295564820E+03  0.00000000000E+00 0.  1.
         13   -1    0    0    0    0 -0.00000000000E+00 -0.00000000000E+00 -0.10000000000E+04  0.10000000000E+04  0.00000000000E+00 0.  1.
    9000005    2    1    2  501    0  0.58715365437E+02  0.38241038104E+02 -0.84167594168E+03  0.10712196101E+04  0.65892578574E+03 0.  0.
         13    1    3    3    0    0  0.22747649129E+03  0.99800884759E+02 -0.42392189954E+02  0.25199775486E+03  0.00000000000E+00 0.  1.
          3    1    3    3  501    0 -0.16876112585E+03 -0.61559846654E+02 -0.79928375173E+03  0.81922185524E+03  0.00000000000E+00 0.  1.
         -1    1    1    2    0  502 -0.58715365437E+02 -0.38241038104E+02 -0.15368410115E+02  0.71736038106E+02  0.00000000000E+00 0. -1.
<mgrwt>
<rscale>  1 0.66264098E+03</rscale>
<asrwt>0</asrwt>
<pdfrwt beam="1">  1       21 0.21993176E-01 0.66264098E+03</pdfrwt>
<pdfrwt beam="2">0</pdfrwt>
<totfact> 0.18678998E+03</totfact>
</mgrwt>
</event>
<event>
 6    1  0.1439793E-004  0.7496896E+03  0.7818608E-02  0.9635838E-01
         21   -1    0    0  501  502  0.00000000000E+00  0.00000000000E+00  0.43866188477E+03  0.43866188477E+03  0.00000000000E+00 0. -1.
         13   -1    0    0    0    0 -0.00000000000E+00 -0.00000000000E+00 -0.10000000000E+04  0.10000000000E+04  0.00000000000E+00 0.  1.
    9000005    2    1    2  501    0 -0.37258210122E+03 -0.96866335160E+02 -0.70369812876E+03  0.10282147110E+04  0.64329925103E+03 0.  0.
         13    1    3    3    0    0  0.11792861926E+03  0.10136456713E+03 -0.10041066062E+02  0.15582925822E+03  0.00000000000E+00 0.  1.
          3    1    3    3  501    0 -0.49051072048E+03 -0.19823090229E+03 -0.69365706270E+03  0.87238545274E+03  0.00000000000E+00 0.  1.
         -3    1    1    2    0  502  0.37258210122E+03  0.96866335160E+02  0.14236001353E+03  0.41044717381E+03  0.00000000000E+00 0. -1.
<mgrwt>
<rscale>  1 0.74968956E+03</rscale>
<asrwt>0</asrwt>
<pdfrwt beam="1">  1       21 0.67486442E-01 0.74968956E+03</pdfrwt>
<pdfrwt beam="2">0</pdfrwt>
<totfact> 0.18050430E+02</totfact>
</mgrwt>
</event>
<event>
 6    1  0.1439793E-004  0.6692760E+03  0.7818608E-02  0.9771267E-01
         21   -1    0    0  501  502  0.00000000000E+00  0.00000000000E+00  0.13188834438E+03  0.13188834438E+03  0.00000000000E+00 0.  1.
         13   -1    0    0    0    0 -0.00000000000E+00 -0.00000000000E+00 -0.10000000000E+04  0.10000000000E+04  0.00000000000E+00 0.  1.
    9000005    2    1    2  501    0 -0.24200809453E+01  0.23825657092E+02 -0.87964470963E+03  0.11053077112E+04  0.66884736857E+03 0.  0.
         13    1    3    3    0    0 -0.10064383604E+03  0.32221522111E+03 -0.32909735825E+03  0.47144130245E+03  0.00000000000E+00 0.  1.
          3    1    3    3  501    0  0.98223755092E+02 -0.29838956402E+03 -0.55054735138E+03  0.63386640871E+03  0.00000000000E+00 0.  1.
         -1    1    1    2    0  502  0.24200809453E+01 -0.23825657092E+02  0.11533054005E+02  0.26580633219E+02  0.00000000000E+00 0. -1.
<mgrwt>
<rscale>  1 0.66927597E+03</rscale>
<asrwt>0</asrwt>
<pdfrwt beam="1">  1       21 0.20290514E-01 0.66927597E+03</pdfrwt>
<pdfrwt beam="2">0</pdfrwt>
<totfact> 0.21813392E+03</totfact>
</mgrwt>
</event>
<event>
 6    1  0.1439793E-004  0.6408499E+03  0.7818608E-02  0.9824102E-01
         21   -1    0    0  501  502  0.00000000000E+00  0.00000000000E+00  0.12195076974E+03  0.12195076974E+03  0.00000000000E+00 0.  1.
         13   -1    0    0    0    0 -0.00000000000E+00 -0.00000000000E+00 -0.10000000000E+04  0.10000000000E+04  0.00000000000E+00 0.  1.
    9000005    2    1    2  501    0 -0.18870302353E+02 -0.34325208062E+02 -0.87223637686E+03  0.10823515591E+04  0.63965169596E+03 0.  0.
         13    1    3    3    0    0  0.31027991505E+03 -0.26155618285E+02 -0.40985345361E+03  0.51472089086E+03  0.00000000000E+00 0.  1.
          1    1    3    3  501    0 -0.32915021740E+03 -0.81695897771E+01 -0.46238292324E+03  0.56763066823E+03  0.00000000000E+00 0.  1.
         -1    1    1    2    0  502  0.18870302353E+02  0.34325208062E+02 -0.58128534013E+01  0.39599210649E+02  0.00000000000E+00 0. -1.
<mgrwt>
<rscale>  1 0.64084990E+03</rscale>
<asrwt>0</asrwt>
<pdfrwt beam="1">  1       21 0.18761656E-01 0.64084990E+03</pdfrwt>
<pdfrwt beam="2">0</pdfrwt>
<totfact> 0.25367981E+03</totfact>
</mgrwt>
</event>
<event>
 6    1  0.1439793E-004  0.6561841E+03  0.7818608E-02  0.9795244E-01
         21   -1    0    0  501  502  0.00000000000E+00  0.00000000000E+00  0.21936452911E+03  0.21936452911E+03  0.00000000000E+00 0. -1.
         13   -1    0    0    0    0 -0.00000000000E+00 -0.00000000000E+00 -0.10000000000E+04  0.10000000000E+04  0.00000000000E+00 0.  1.
    9000005    2    1    2  501    0  0.26490908438E+02 -0.14210244597E+02 -0.89011085651E+03  0.11058367381E+04  0.65549512211E+03 0.  0.
         13    1    3    3    0    0  0.28456675509E+03  0.15624047346E+02 -0.15127306687E+03  0.32265444320E+03  0.00000000000E+00 0.  1.
          3    1    3    3  501    0 -0.25807584665E+03 -0.29834291944E+02 -0.73883778964E+03  0.78318229487E+03  0.00000000000E+00 0.  1.
         -1    1    1    2    0  502 -0.26490908438E+02  0.14210244597E+02  0.10947538562E+03  0.11352779104E+03  0.00000000000E+00 0. -1.
<mgrwt>
<rscale>  1 0.65618409E+03</rscale>
<asrwt>0</asrwt>
<pdfrwt beam="1">  1       21 0.33748388E-01 0.65618409E+03</pdfrwt>
<pdfrwt beam="2">0</pdfrwt>
<totfact> 0.80005493E+02</totfact>
</mgrwt>
</event>
<event>
 6    1  0.1439793E-004  0.6430036E+03  0.7818608E-02  0.9819997E-01
         21   -1    0    0  501  502  0.00000000000E+00  0.00000000000E+00  0.25284030186E+03  0.25284030186E+03  0.00000000000E+00 0. -1.
         13   -1    0    0    0    0 -0.00000000000E+00 -0.00000000000E+00 -0.10000000000E+04  0.10000000000E+04  0.00000000000E+00 0.  1.
    9000005    2    1    2  501    0 -0.23738232268E+02 -0.23790077989E+02 -0.89454918924E+03  0.11016677727E+04  0.64212472152E+03 0.  0.
         13    1    3    3    0    0  0.12729560009E+03 -0.66801678631E+02  0.43788472084E+02  0.15027995328E+03  0.00000000000E+00 0.  1.
          1    1    3    3  501    0 -0.15103383236E+03  0.43011600642E+02 -0.93833766132E+03  0.95138781943E+03  0.00000000000E+00 0.  1.
         -3    1    1    2    0  502  0.23738232268E+02  0.23790077989E+02  0.14738949110E+03  0.15117252915E+03  0.00000000000E+00 0. -1.
<mgrwt>
<rscale>  1 0.64300360E+03</rscale>
<asrwt>0</asrwt>
<pdfrwt beam="1">  1       21 0.38898507E-01 0.64300360E+03</pdfrwt>
<pdfrwt beam="2">0</pdfrwt>
<totfact> 0.59872380E+02</totfact>
</mgrwt>
</event>
<event>
 6    1  0.1439793E-004  0.8356301E+03  0.7818608E-02  0.9509829E-01
         21   -1    0    0  501  502  0.00000000000E+00  0.00000000000E+00  0.51219543225E+03  0.51219543225E+03  0.00000000000E+00 0. -1.
         13   -1    0    0    0    0 -0.00000000000E+00 -0.00000000000E+00 -0.10000000000E+04  0.10000000000E+04  0.00000000000E+00 0.  1.
    9000005    2    1    2  501    0 -0.51756615600E+03 -0.12037224565E+03 -0.51244732167E+03  0.98024480608E+03  0.64491349729E+03 0.  0.
         13    1    3    3    0    0 -0.12218453017E+03 -0.30111665740E+03 -0.42799425038E+03  0.53738196763E+03  0.00000000000E+00 0.  1.
          1    1    3    3  501    0 -0.39538162583E+03  0.18074441175E+03 -0.84453071292E+02  0.44286283844E+03  0.00000000000E+00 0.  1.
         -3    1    1    2    0  502  0.51756615600E+03  0.12037224565E+03  0.24642753918E+02  0.53195062617E+03  0.00000000000E+00 0. -1.
<mgrwt>
<rscale>  1 0.83563008E+03</rscale>
<asrwt>0</asrwt>
<pdfrwt beam="1">  1       21 0.78799295E-01 0.83563008E+03</pdfrwt>
<pdfrwt beam="2">0</pdfrwt>
<totfact> 0.12533392E+02</totfact>
</mgrwt>
</event>
<event>
 6    1  0.1439793E-004  0.6453159E+03  0.7818608E-02  0.9815609E-01
         21   -1    0    0  501  502  0.00000000000E+00  0.00000000000E+00  0.11765612617E+03  0.11765612617E+03  0.00000000000E+00 0.  1.
         13   -1    0    0    0    0 -0.00000000000E+00 -0.00000000000E+00 -0.10000000000E+04  0.10000000000E+04  0.00000000000E+00 0.  1.
    9000005    2    1    2  501    0 -0.24173367631E+02  0.14450186039E+02 -0.87724958573E+03  0.10890360047E+04  0.64470103489E+03 0.  0.
         13    1    3    3    0    0  0.15132004942E+03 -0.25841855663E+03 -0.56124963622E+03  0.63614390033E+03  0.00000000000E+00 0.  1.
          3    1    3    3  501    0 -0.17549341705E+03  0.27286874267E+03 -0.31599994951E+03  0.45289210442E+03  0.00000000000E+00 0.  1.
         -1    1    1    2    0  502  0.24173367631E+02 -0.14450186039E+02 -0.50942880916E+01  0.28620121425E+02  0.00000000000E+00 0. -1.
<mgrwt>
<rscale>  1 0.64531588E+03</rscale>
<asrwt>0</asrwt>
<pdfrwt beam="1">  1       21 0.18100942E-01 0.64531588E+03</pdfrwt>
<pdfrwt beam="2">0</pdfrwt>
<totfact> 0.27153123E+03</totfact>
</mgrwt>
</event>
<event>
 6    1  0.1439793E-004  0.6436160E+03  0.7818608E-02  0.9818833E-01
         21   -1    0    0  501  502  0.00000000000E+00  0.00000000000E+00  0.18025273624E+03  0.18025273624E+03  0.00000000000E+00 0.  1.
         13   -1    0    0    0    0 -0.00000000000E+00 -0.00000000000E+00 -0.10000000000E+04  0.10000000000E+04  0.00000000000E+00 0.  1.
    9000005    2    1    2  501    0  0.87374263279E+01 -0.27214683345E+02 -0.89348922573E+03  0.11011650724E+04  0.64298097846E+03 0.  0.
         13    1    3    3    0    0  0.31906170351E+03 -0.39660356693E+02 -0.35049260642E+03  0.47562420217E+03  0.00000000000E+00 0.  1.
          3    1    3    3  501    0 -0.31032427718E+03  0.12445673349E+02 -0.54299661932E+03  0.62554087027E+03  0.00000000000E+00 0.  1.
         -1    1    1    2    0  502 -0.87374263279E+01  0.27214683345E+02  0.73741961972E+02  0.79087663791E+02  0.00000000000E+00 0. -1.
<mgrwt>
<rscale>  1 0.64361597E+03</rscale>
<asrwt>0</asrwt>
<pdfrwt beam="1">  1       21 0.27731189E-01 0.64361597E+03</pdfrwt>
<pdfrwt beam="2">0</pdfrwt>
<totfact> 0.11874227E+03</totfact>
</mgrwt>
</event>
<event>
 6    1  0.1439793E-004  0.6449746E+03  0.7818608E-02  0.9816255E-01
         21   -1    0    0  501  502  0.00000000000E+00  0.00000000000E+00  0.41140521083E+03  0.41140521083E+03  0.00000000000E+00 0. -1.
         13   -1    0    0    0    0 -0.00000000000E+00 -0.00000000000E+00 -0.10000000000E+04  0.10000000000E+04  0.00000000000E+00 0.  1.
    9000005    2    1    2  501    0 -0.38247982128E+02 -0.24303676635E+02 -0.89415684425E+03  0.11025011054E+04  0.64338064043E+03 0.  0.
         13    1    3    3    0    0  0.87418568695E+02 -0.19260586300E+03 -0.30540747768E+02  0.21370952690E+03  0.00000000000E+00 0.  1.
          1    1    3    3  501    0 -0.12566655082E+03  0.16830218636E+03 -0.86361609649E+03  0.88879157852E+03  0.00000000000E+00 0.  1.
         -1    1    1    2    0  502  0.38247982128E+02  0.24303676635E+02  0.30556205509E+03  0.30890410542E+03  0.00000000000E+00 0. -1.
<mgrwt>
<rscale>  1 0.64497459E+03</rscale>
<asrwt>0</asrwt>
<pdfrwt beam="1">  1       21 0.63293108E-01 0.64497459E+03</pdfrwt>
<pdfrwt beam="2">0</pdfrwt>
<totfact> 0.21082147E+02</totfact>
</mgrwt>
</event>
<event>
 6    1  0.1439793E-004  0.6635043E+03  0.7818608E-02  0.9781764E-01
         21   -1    0    0  501  502  0.00000000000E+00  0.00000000000E+00  0.13502098037E+03  0.13502098037E+03  0.00000000000E+00 0. -1.
         13   -1    0    0    0    0 -0.00000000000E+00 -0.00000000000E+00 -0.10000000000E+04  0.10000000000E+04  0.00000000000E+00 0.  1.
    9000005    2    1    2  501    0  0.11799620040E+02  0.68983726605E+02 -0.80185350229E+03  0.10407722854E+04  0.65980294429E+03 0.  0.
         13    1    3    3    0    0 -0.29481413029E+03  0.17012236689E+03 -0.39686633689E+03  0.52283829287E+03  0.00000000000E+00 0.  1.
          1    1    3    3  501    0  0.30661375033E+03 -0.10113864028E+03 -0.40498716540E+03  0.51793399250E+03  0.00000000000E+00 0.  1.
         -3    1    1    2    0  502 -0.11799620040E+02 -0.68983726605E+02 -0.63125517338E+02  0.94248694997E+02  0.00000000000E+00 0. -1.
<mgrwt>
<rscale>  1 0.66350427E+03</rscale>
<asrwt>0</asrwt>
<pdfrwt beam="1">  1       21 0.20772458E-01 0.66350427E+03</pdfrwt>
<pdfrwt beam="2">0</pdfrwt>
<totfact> 0.20855241E+03</totfact>
</mgrwt>
</event>
<event>
 6    1  0.1439793E-004  0.6951779E+03  0.7818608E-02  0.9725514E-01
         21   -1    0    0  501  502  0.00000000000E+00  0.00000000000E+00  0.28746107161E+03  0.28746107161E+03  0.00000000000E+00 0. -1.
         13   -1    0    0    0    0 -0.00000000000E+00 -0.00000000000E+00 -0.10000000000E+04  0.10000000000E+04  0.00000000000E+00 0.  1.
    9000005    2    1    2  501    0  0.10044673429E+03 -0.43633529910E+02 -0.85869910925E+03  0.11048241919E+04  0.68649756258E+03 0.  0.
         13    1    3    3    0    0  0.38683822991E+03 -0.58021647690E+02 -0.61317820363E+03  0.72732237496E+03  0.00000000000E+00 0.  1.
          3    1    3    3  501    0 -0.28639149562E+03  0.14388117780E+02 -0.24552090562E+03  0.37750181694E+03  0.00000000000E+00 0.  1.
         -1    1    1    2    0  502 -0.10044673429E+03  0.43633529910E+02  0.14616018086E+03  0.18263687971E+03  0.00000000000E+00 0. -1.
<mgrwt>
<rscale>  1 0.69517792E+03</rscale>
<asrwt>0</asrwt>
<pdfrwt beam="1">  1       21 0.44224779E-01 0.69517792E+03</pdfrwt>
<pdfrwt beam="2">0</pdfrwt>
<totfact> 0.45605253E+02</totfact>
</mgrwt>
</event>
<event>
 6    1  0.1439793E-004  0.7016948E+03  0.7818608E-02  0.9714338E-01
         21   -1    0    0  501  502  0.00000000000E+00  0.00000000000E+00  0.28152253056E+03  0.28152253056E+03  0.00000000000E+00 0.  1.
         13   -1    0    0    0    0 -0.00000000000E+00 -0.00000000000E+00 -0.10000000000E+04  0.10000000000E+04  0.00000000000E+00 0.  1.
    9000005    2    1    2  501    0 -0.26513927297E+03 -0.43394017227E+02 -0.73006511712E+03  0.10126059108E+04  0.64822355754E+03 0.  0.
         13    1    3    3    0    0 -0.32436144197E+03  0.16502058613E+03 -0.15041374937E+03  0.39378475705E+03  0.00000000000E+00 0.  1.
          1    1    3    3  501    0  0.59222168999E+02 -0.20841460336E+03 -0.57965136775E+03  0.61882115375E+03  0.00000000000E+00 0.  1.
         -3    1    1    2    0  502  0.26513927297E+03  0.43394017227E+02  0.11587647677E+02  0.26891661976E+03  0.00000000000E+00 0. -1.
<mgrwt>
<rscale>  1 0.70169484E+03</rscale>
<asrwt>0</asrwt>
<pdfrwt beam="1">  1       21 0.43311157E-01 0.70169484E+03</pdfrwt>
<pdfrwt beam="2">0</pdfrwt>
<totfact> 0.47629590E+02</totfact>
</mgrwt>
</event>
<event>
 6    1  0.1439793E-004  0.6543089E+03  0.7818608E-02  0.9798727E-01
         21   -1    0    0  501  502  0.00000000000E+00  0.00000000000E+00  0.12627714178E+03  0.12627714178E+03  0.00000000000E+00 0.  1.
         13   -1    0    0    0    0 -0.00000000000E+00 -0.00000000000E+00 -0.10000000000E+04  0.10000000000E+04  0.00000000000E+00 0.  1.
    9000005    2    1    2  501    0 -0.12427334755E+02  0.20182854119E+02 -0.88452525740E+03  0.11002295300E+04  0.65387942430E+03 0.  0.
         13    1    3    3    0    0 -0.29888105116E+03  0.12029724236E+03 -0.29334792238E+03  0.43572274766E+03  0.00000000000E+00 0.  1.
          3    1    3    3  501    0  0.28645371641E+03 -0.10011438824E+03 -0.59117733502E+03  0.66450678237E+03  0.00000000000E+00 0.  1.
         -3    1    1    2    0  502  0.12427334755E+02 -0.20182854119E+02  0.10802399178E+02  0.26047611743E+02  0.00000000000E+00 0. -1.
<mgrwt>
<rscale>  1 0.65430886E+03</rscale>
<asrwt>0</asrwt>
<pdfrwt beam="1">  1       21 0.19427252E-01 0.65430886E+03</pdfrwt>
<pdfrwt beam="2">0</pdfrwt>
<totfact> 0.23722820E+03</totfact>
</mgrwt>
</event>
<event>
 6    1  0.1439793E-004  0.6757674E+03  0.7818608E-02  0.9759595E-01
         21   -1    0    0  501  502  0.00000000000E+00  0.00000000000E+00  0.62898975896E+03  0.62898975896E+03  0.00000000000E+00 0. -1.
         13   -1    0    0    0    0 -0.00000000000E+00 -0.00000000000E+00 -0.10000000000E+04  0.10000000000E+04  0.00000000000E+00 0.  1.
    9000005    2    1    2  501    0  0.79755933994E+02 -0.13274038488E+03 -0.87281005241E+03  0.11038382861E+04  0.65778458131E+03 0.  0.
         13    1    3    3    0    0  0.20477940278E+03 -0.89637739766E+02 -0.93237534253E+03  0.95879784499E+03  0.00000000000E+00 0.  1.
          3    1    3    3  501    0 -0.12502346878E+03 -0.43102645117E+02  0.59565290116E+02  0.14504044108E+03  0.00000000000E+00 0.  1.
         -3    1    1    2    0  502 -0.79755933994E+02  0.13274038488E+03  0.50179981138E+03  0.52515147290E+03  0.00000000000E+00 0. -1.
<mgrwt>
<rscale>  1 0.67576740E+03</rscale>
<asrwt>0</asrwt>
<pdfrwt beam="1">  1       21 0.96767652E-01 0.67576740E+03</pdfrwt>
<pdfrwt beam="2">0</pdfrwt>
<totfact> 0.78284946E+01</totfact>
</mgrwt>
</event>
<event>
 6    1  0.1439793E-004  0.6589526E+03  0.7818608E-02  0.9790124E-01
         21   -1    0    0  501  502  0.00000000000E+00  0.00000000000E+00  0.15117629718E+03  0.15117629718E+03  0.00000000000E+00 0.  1.
         13   -1    0    0    0    0 -0.00000000000E+00 -0.00000000000E+00 -0.10000000000E+04  0.10000000000E+04  0.00000000000E+00 0.  1.
    9000005    2    1    2  501    0  0.74531934307E+02  0.10776178863E+01 -0.85137181619E+03  0.10765930325E+04  0.65472316111E+03 0.  0.
         13    1    3    3    0    0  0.26217977989E+03  0.13084801861E+03 -0.78663555279E+03  0.83943727215E+03  0.00000000000E+00 0.  1.
          1    1    3    3  501    0 -0.18764784558E+03 -0.12977040073E+03 -0.64736263391E+02  0.23715576032E+03  0.00000000000E+00 0.  1.
         -1    1    1    2    0  502 -0.74531934307E+02 -0.10776178863E+01  0.25481133643E+01  0.74583264702E+02  0.00000000000E+00 0. -1.
<mgrwt>
<rscale>  1 0.65895264E+03</rscale>
<asrwt>0</asrwt>
<pdfrwt beam="1">  1       21 0.23257891E-01 0.65895264E+03</pdfrwt>
<pdfrwt beam="2">0</pdfrwt>
<totfact> 0.16760709E+03</totfact>
</mgrwt>
</event>
<event>
 6    1  0.1439793E-004  0.6756428E+03  0.7818608E-02  0.9759818E-01
         21   -1    0    0  501  502  0.00000000000E+00  0.00000000000E+00  0.25574983705E+03  0.25574983705E+03  0.00000000000E+00 0.  1.
         13   -1    0    0    0    0 -0.00000000000E+00 -0.00000000000E+00 -0.10000000000E+04  0.10000000000E+04  0.00000000000E+00 0.  1.
    9000005    2    1    2  501    0  0.25035451363E+02 -0.15953396657E+03 -0.83214351329E+03  0.10718936396E+04  0.65606042980E+03 0.  0.
         13    1    3    3    0    0  0.21246709302E+03 -0.10646584481E+01 -0.86993389665E+01  0.21264777830E+03  0.00000000000E+00 0.  1.
          3    1    3    3  501    0 -0.18743164166E+03 -0.15846930812E+03 -0.82344417432E+03  0.85924586128E+03  0.00000000000E+00 0.  1.
         -3    1    1    2    0  502 -0.25035451363E+02  0.15953396657E+03  0.87893350331E+02  0.18385619747E+03  0.00000000000E+00 0. -1.
<mgrwt>
<rscale>  1 0.67564277E+03</rscale>
<asrwt>0</asrwt>
<pdfrwt beam="1">  1       21 0.39346128E-01 0.67564277E+03</pdfrwt>
<pdfrwt beam="2">0</pdfrwt>
<totfact> 0.58322412E+02</totfact>
</mgrwt>
</event>
<event>
 6    1  0.1439793E-004  0.5953917E+03  0.7818608E-02  0.9915013E-01
         21   -1    0    0  501  502  0.00000000000E+00  0.00000000000E+00  0.10092129628E+03  0.10092129628E+03  0.00000000000E+00 0.  1.
         13   -1    0    0    0    0 -0.00000000000E+00 -0.00000000000E+00 -0.10000000000E+04  0.10000000000E+04  0.00000000000E+00 0.  1.
    9000005    2    1    2  501    0  0.37364211233E+02  0.40748543960E+01 -0.86553711361E+03  0.10505454391E+04  0.59420411969E+03 0.  0.
         13    1    3    3    0    0  0.21826392548E+03  0.39345614295E+02 -0.67975293477E+02  0.23196521087E+03  0.00000000000E+00 0.  1.
          1    1    3    3  501    0 -0.18089971425E+03 -0.35270759900E+02 -0.79756182014E+03  0.81858022824E+03  0.00000000000E+00 0.  1.
         -1    1    1    2    0  502 -0.37364211233E+02 -0.40748543960E+01 -0.33541590105E+02  0.50375857175E+02  0.00000000000E+00 0. -1.
<mgrwt>
<rscale>  1 0.59539166E+03</rscale>
<asrwt>0</asrwt>
<pdfrwt beam="1">  1       21 0.15526353E-01 0.59539166E+03</pdfrwt>
<pdfrwt beam="2">0</pdfrwt>
<totfact> 0.36310947E+03</totfact>
</mgrwt>
</event>
<event>
 6    1  0.1439793E-004  0.6714654E+03  0.7818608E-02  0.9767314E-01
         21   -1    0    0  501  502  0.00000000000E+00  0.00000000000E+00  0.43335393451E+03  0.43335393451E+03  0.00000000000E+00 0. -1.
         13   -1    0    0    0    0 -0.00000000000E+00 -0.00000000000E+00 -0.10000000000E+04  0.10000000000E+04  0.00000000000E+00 0.  1.
    9000005    2    1    2  501    0 -0.13200373910E+02  0.19172064661E+02 -0.88681337854E+03  0.11123415885E+04  0.67106186245E+03 0.  0.
         13    1    3    3    0    0  0.29167424395E+03  0.99914133348E+02 -0.64507905941E+03  0.71497111236E+03  0.00000000000E+00 0.  1.
          1    1    3    3  501    0 -0.30487461786E+03 -0.80742068687E+02 -0.24173431913E+03  0.39737047615E+03  0.00000000000E+00 0.  1.
         -3    1    1    2    0  502  0.13200373910E+02 -0.19172064661E+02  0.32016731305E+03  0.32101234600E+03  0.00000000000E+00 0. -1.
<mgrwt>
<rscale>  1 0.67146544E+03</rscale>
<asrwt>0</asrwt>
<pdfrwt beam="1">  1       21 0.66669834E-01 0.67146544E+03</pdfrwt>
<pdfrwt beam="2">0</pdfrwt>
<totfact> 0.18708343E+02</totfact>
</mgrwt>
</event>
<event>
 6    1  0.1439793E-004  0.6692521E+03  0.7818608E-02  0.9771310E-01
         21   -1    0    0  501  502  0.00000000000E+00  0.00000000000E+00  0.18323646450E+03  0.18323646450E+03  0.00000000000E+00 0.  1.
         13   -1    0    0    0    0 -0.00000000000E+00 -0.00000000000E+00 -0.10000000000E+04  0.10000000000E+04  0.00000000000E+00 0.  1.
    9000005    2    1    2  501    0  0.10068441287E+03  0.10342311198E+02 -0.84522006170E+03  0.10780980401E+04  0.66155431903E+03 0.  0.
         13    1    3    3    0    0  0.17428173739E+03 -0.21399143384E+03 -0.78832988604E+03  0.83524275930E+03  0.00000000000E+00 0.  1.
          1    1    3    3  501    0 -0.73597324518E+02  0.22433374504E+03 -0.56890175664E+02  0.24285528083E+03  0.00000000000E+00 0.  1.
         -3    1    1    2    0  502 -0.10068441287E+03 -0.10342311198E+02  0.28456526195E+02  0.10513842437E+03  0.00000000000E+00 0. -1.
<mgrwt>
<rscale>  1 0.66925214E+03</rscale>
<asrwt>0</asrwt>
<pdfrwt beam="1">  1       21 0.28190224E-01 0.66925214E+03</pdfrwt>
<pdfrwt beam="2">0</pdfrwt>
<totfact> 0.11476126E+03</totfact>
</mgrwt>
</event>
<event>
 6    1  0.1439793E-004  0.6808365E+03  0.7818608E-02  0.9750577E-01
         21   -1    0    0  501  502  0.00000000000E+00  0.00000000000E+00  0.18529775484E+03  0.18529775484E+03  0.00000000000E+00 0.  1.
         13   -1    0    0    0    0 -0.00000000000E+00 -0.00000000000E+00 -0.10000000000E+04  0.10000000000E+04  0.00000000000E+00 0.  1.
    9000005    2    1    2  501    0 -0.11793254318E+03 -0.92805408839E+02 -0.77187342521E+03  0.10292361117E+04  0.66409145482E+03 0.  0.
         13    1    3    3    0    0  0.23964091363E+03 -0.22561187448E+02 -0.91663495628E+02  0.25756352827E+03  0.00000000000E+00 0.  1.
          1    1    3    3  501    0 -0.35757345682E+03 -0.70244221392E+02 -0.68020992958E+03  0.77167258339E+03  0.00000000000E+00 0.  1.
         -1    1    1    2    0  502  0.11793254318E+03  0.92805408839E+02 -0.42828819955E+02  0.15606164317E+03  0.00000000000E+00 0. -1.
<mgrwt>
<rscale>  1 0.68083654E+03</rscale>
<asrwt>0</asrwt>
<pdfrwt beam="1">  1       21 0.28507346E-01 0.68083654E+03</pdfrwt>
<pdfrwt beam="2">0</pdfrwt>
<totfact> 0.11215951E+03</totfact>
</mgrwt>
</event>
<event>
 6    1  0.1439793E-004  0.8270354E+03  0.7818608E-02  0.9521688E-01
         21   -1    0    0  501  502  0.00000000000E+00  0.00000000000E+00  0.45564240925E+03  0.45564240925E+03  0.00000000000E+00 0. -1.
         13   -1    0    0    0    0 -0.00000000000E+00 -0.00000000000E+00 -0.10000000000E+04  0.10000000000E+04  0.00000000000E+00 0.  1.
    9000005    2    1    2  501    0 -0.51863454857E+03 -0.79116791122E+01 -0.39062578990E+03  0.91464531477E+03  0.64416081413E+03 0.  0.
         13    1    3    3    0    0 -0.14562677463E+03  0.28900984477E+03 -0.47142373399E+02  0.32704166589E+03  0.00000000000E+00 0.  1.
          3    1    3    3  501    0 -0.37300777394E+03 -0.29692152388E+03 -0.34348341650E+03  0.58760364888E+03  0.00000000000E+00 0.  1.
         -1    1    1    2    0  502  0.51863454857E+03  0.79116791122E+01 -0.15373180086E+03  0.54099709448E+03  0.00000000000E+00 0. -1.
<mgrwt>
<rscale>  1 0.82703539E+03</rscale>
<asrwt>0</asrwt>
<pdfrwt beam="1">  1       21 0.70098830E-01 0.82703539E+03</pdfrwt>
<pdfrwt beam="2">0</pdfrwt>
<totfact> 0.16434494E+02</totfact>
</mgrwt>
</event>
<event>
 6    1  0.1439793E-004  0.6735389E+03  0.7818608E-02  0.9763586E-01
         21   -1    0    0  501  502  0.00000000000E+00  0.00000000000E+00  0.24496302920E+03  0.24496302920E+03  0.00000000000E+00 0. -1.
         13   -1    0    0    0    0 -0.00000000000E+00 -0.00000000000E+00 -0.10000000000E+04  0.10000000000E+04  0.00000000000E+00 0.  1.
    9000005    2    1    2  501    0 -0.10396627539E+03  0.73834499839E+01 -0.86311445721E+03  0.10948156189E+04  0.66542555661E+03 0.  0.
         13    1    3    3    0    0 -0.27375816239E+03  0.15943027537E+03 -0.15846282208E+03  0.35422028480E+03  0.00000000000E+00 0.  1.
          1    1    3    3  501    0  0.16979188701E+03 -0.15204682539E+03 -0.70465163513E+03  0.74059533410E+03  0.00000000000E+00 0.  1.
         -1    1    1    2    0  502  0.10396627539E+03 -0.73834499839E+01  0.10807748641E+03  0.15014741030E+03  0.00000000000E+00 0. -1.
<mgrwt>
<rscale>  1 0.67353892E+03</rscale>
<asrwt>0</asrwt>
<pdfrwt beam="1">  1       21 0.37686619E-01 0.67353892E+03</pdfrwt>
<pdfrwt beam="2">0</pdfrwt>
<totfact> 0.63761769E+02</totfact>
</mgrwt>
</event>
<event>
 6    1  0.1439793E-004  0.6866088E+03  0.7818608E-02  0.9740411E-01
         21   -1    0    0  501  502  0.00000000000E+00  0.00000000000E+00  0.70326265759E+03  0.70326265759E+03  0.00000000000E+00 0. -1.
         13   -1    0    0    0    0 -0.00000000000E+00 -0.00000000000E+00 -0.10000000000E+04  0.10000000000E+04  0.00000000000E+00 0.  1.
    9000005    2    1    2  501    0  0.40708387357E+01 -0.72655873629E+02 -0.87961236648E+03  0.11158626734E+04  0.68274163707E+03 0.  0.
         13    1    3    3    0    0  0.18165198635E+03  0.88708703748E+02 -0.85045663985E+03  0.87415283248E+03  0.00000000000E+00 0.  1.
          3    1    3    3  501    0 -0.17758114761E+03 -0.16136457738E+03 -0.29155726635E+02  0.24170984096E+03  0.00000000000E+00 0.  1.
         -3    1    1    2    0  502 -0.40708387357E+01  0.72655873629E+02  0.58287502407E+03  0.58739998416E+03  0.00000000000E+00 0. -1.
<mgrwt>
<rscale>  1 0.68660876E+03</rscale>
<asrwt>0</asrwt>
<pdfrwt beam="1">  1       21 0.10819425E+00 0.68660876E+03</pdfrwt>
<pdfrwt beam="2">0</pdfrwt>
<totfact> 0.59321313E+01</totfact>
</mgrwt>
</event>
<event>
 6    1  0.1439793E-004  0.6540581E+03  0.7818608E-02  0.9799194E-01
         21   -1    0    0  501  502  0.00000000000E+00  0.00000000000E+00  0.19872481332E+03  0.19872481332E+03  0.00000000000E+00 0. -1.
         13   -1    0    0    0    0 -0.00000000000E+00 -0.00000000000E+00 -0.10000000000E+04  0.10000000000E+04  0.00000000000E+00 0.  1.
    9000005    2    1    2  501    0  0.41699351192E+02 -0.51758452621E+02 -0.87952013781E+03  0.10960600887E+04  0.65067216927E+03 0.  0.
         13    1    3    3    0    0  0.21260131594E+03  0.86119401881E+02 -0.45802170900E+02  0.23390961882E+03  0.00000000000E+00 0.  1.
          3    1    3    3  501    0 -0.17090196475E+03 -0.13787785450E+03 -0.83371796691E+03  0.86215046985E+03  0.00000000000E+00 0.  1.
         -1    1    1    2    0  502 -0.41699351192E+02  0.51758452621E+02  0.78244951129E+02  0.10266472464E+03  0.00000000000E+00 0. -1.
<mgrwt>
<rscale>  1 0.65405814E+03</rscale>
<asrwt>0</asrwt>
<pdfrwt beam="1">  1       21 0.30573047E-01 0.65405814E+03</pdfrwt>
<pdfrwt beam="2">0</pdfrwt>
<totfact> 0.97678010E+02</totfact>
</mgrwt>
</event>
<event>
 6    1  0.1439793E-004  0.6483580E+03  0.7818608E-02  0.9809865E-01
         21   -1    0    0  501  502  0.00000000000E+00  0.00000000000E+00  0.26379261894E+03  0.26379261894E+03  0.00000000000E+00 0. -1.
         13   -1    0    0    0    0 -0.00000000000E+00 -0.00000000000E+00 -0.10000000000E+04  0.10000000000E+04  0.00000000000E+00 0.  1.
    9000005    2    1    2  501    0  0.91318635721E+01  0.72396806372E+02 -0.88557847646E+03  0.10975505886E+04  0.64423859562E+03 0.  0.
         13    1    3    3    0    0  0.61851135403E+02 -0.25202697289E+03 -0.62949378089E+03  0.68088587751E+03  0.00000000000E+00 0.  1.
          1    1    3    3  501    0 -0.52719271831E+02  0.32442377926E+03 -0.25608469557E+03  0.41666471110E+03  0.00000000000E+00 0.  1.
         -3    1    1    2    0  502 -0.91318635721E+01 -0.72396806372E+02  0.14937109540E+03  0.16624203033E+03  0.00000000000E+00 0. -1.
<mgrwt>
<rscale>  1 0.64835797E+03</rscale>
<asrwt>0</asrwt>
<pdfrwt beam="1">  1       21 0.40583479E-01 0.64835797E+03</pdfrwt>
<pdfrwt beam="2">0</pdfrwt>
<totfact> 0.54808259E+02</totfact>
</mgrwt>
</event>
<event>
 6    1  0.1439793E-004  0.6446222E+03  0.7818608E-02  0.9816923E-01
         21   -1    0    0  501  502  0.00000000000E+00  0.00000000000E+00  0.14315440904E+03  0.14315440904E+03  0.00000000000E+00 0.  1.
         13   -1    0    0    0    0 -0.00000000000E+00 -0.00000000000E+00 -0.10000000000E+04  0.10000000000E+04  0.00000000000E+00 0.  1.
    9000005    2    1    2  501    0  0.14122573156E+02 -0.35867757211E+02 -0.88538500208E+03  0.10951914956E+04  0.64346862162E+03 0.  0.
         13    1    3    3    0    0 -0.93076830862E+02  0.28770802072E+03 -0.38080486522E+03  0.48626283737E+03  0.00000000000E+00 0.  1.
          1    1    3    3  501    0  0.10719940402E+03 -0.32357577793E+03 -0.50458013686E+03  0.60892865821E+03  0.00000000000E+00 0.  1.
         -3    1    1    2    0  502 -0.14122573156E+02  0.35867757211E+02  0.28539411122E+02  0.47962913455E+02  0.00000000000E+00 0. -1.
<mgrwt>
<rscale>  1 0.64462222E+03</rscale>
<asrwt>0</asrwt>
<pdfrwt beam="1">  1       21 0.22023755E-01 0.64462222E+03</pdfrwt>
<pdfrwt beam="2">0</pdfrwt>
<totfact> 0.18643761E+03</totfact>
</mgrwt>
</event>
<event>
 6    1  0.1439793E-004  0.6492713E+03  0.7818608E-02  0.9808148E-01
         21   -1    0    0  501  502  0.00000000000E+00  0.00000000000E+00  0.14771774186E+03  0.14771774186E+03  0.00000000000E+00 0.  1.
         13   -1    0    0    0    0 -0.00000000000E+00 -0.00000000000E+00 -0.10000000000E+04  0.10000000000E+04  0.00000000000E+00 0.  1.
    9000005    2    1    2  501    0  0.36408420270E+02 -0.87513282833E+02 -0.82348168722E+03  0.10486540218E+04  0.64231535916E+03 0.  0.
         13    1    3    3    0    0  0.26188392715E+03  0.14717208358E+03 -0.25698438823E+03  0.39532744564E+03  0.00000000000E+00 0.  1.
          3    1    3    3  501    0 -0.22547550688E+03 -0.23468536642E+03 -0.56649729899E+03  0.65332657620E+03  0.00000000000E+00 0.  1.
         -3    1    1    2    0  502 -0.36408420270E+02  0.87513282833E+02 -0.28800570919E+02  0.99063720019E+02  0.00000000000E+00 0. -1.
<mgrwt>
<rscale>  1 0.64927126E+03</rscale>
<asrwt>0</asrwt>
<pdfrwt beam="1">  1       21 0.22725806E-01 0.64927126E+03</pdfrwt>
<pdfrwt beam="2">0</pdfrwt>
<totfact> 0.17539908E+03</totfact>
</mgrwt>
</event>
<event>
 6    1  0.1439793E-004  0.6216060E+03  0.7818608E-02  0.9861567E-01
         21   -1    0    0  501  502  0.00000000000E+00  0.00000000000E+00  0.49883590229E+03  0.49883590229E+03  0.00000000000E+00 0. -1.
         13   -1    0    0    0    0 -0.00000000000E+00 -0.00000000000E+00 -0.10000000000E+04  0.10000000000E+04  0.00000000000E+00 0.  1.
    9000005    2    1    2  501    0  0.38311601489E+02 -0.18113625405E+02 -0.90217705588E+03  0.10955899787E+04  0.62015972066E+03 0.  0.
         13    1    3    3    0    0 -0.20175528511E+03 -0.21647329709E+03 -0.32340660214E+03  0.43835797441E+03  0.00000000000E+00 0.  1.
          1    1    3    3  501    0  0.24006688660E+03  0.19835967169E+03 -0.57877045374E+03  0.65723200433E+03  0.00000000000E+00 0.  1.
         -1    1    1    2    0  502 -0.38311601489E+02  0.18113625405E+02  0.40101295817E+03  0.40324592355E+03  0.00000000000E+00 0. -1.
<mgrwt>
<rscale>  1 0.62160595E+03</rscale>
<asrwt>0</asrwt>
<pdfrwt beam="1">  1       21 0.76743983E-01 0.62160595E+03</pdfrwt>
<pdfrwt beam="2">0</pdfrwt>
<totfact> 0.13656745E+02</totfact>
</mgrwt>
</event>
<event>
 6    1  0.1439793E-004  0.6405878E+03  0.7818608E-02  0.9824602E-01
         21   -1    0    0  501  502  0.00000000000E+00  0.00000000000E+00  0.13360482252E+03  0.13360482252E+03  0.00000000000E+00 0.  1.
         13   -1    0    0    0    0 -0.00000000000E+00 -0.00000000000E+00 -0.10000000000E+04  0.10000000000E+04  0.00000000000E+00 0.  1.
    9000005    2    1    2  501    0 -0.41411237750E+01 -0.34034886366E+02 -0.88660153231E+03  0.10938075968E+04  0.63966964866E+03 0.  0.
         13    1    3    3    0    0 -0.28815775553E+03 -0.14400868874E+03 -0.56840472382E+03  0.65334319050E+03  0.00000000000E+00 0.  1.
          3    1    3    3  501    0  0.28401663176E+03  0.10997380237E+03 -0.31819680848E+03  0.44046440634E+03  0.00000000000E+00 0.  1.
         -1    1    1    2    0  502  0.41411237750E+01  0.34034886366E+02  0.20206354826E+02  0.39797225675E+02  0.00000000000E+00 0. -1.
<mgrwt>
<rscale>  1 0.64058784E+03</rscale>
<asrwt>0</asrwt>
<pdfrwt beam="1">  1       21 0.20554587E-01 0.64058784E+03</pdfrwt>
<pdfrwt beam="2">0</pdfrwt>
<totfact> 0.21302538E+03</totfact>
</mgrwt>
</event>
<event>
 6    1  0.1439793E-004  0.6524592E+03  0.7818608E-02  0.9802176E-01
         21   -1    0    0  501  502  0.00000000000E+00  0.00000000000E+00  0.12852848598E+03  0.12852848598E+03  0.00000000000E+00 0.  1.
         13   -1    0    0    0    0 -0.00000000000E+00 -0.00000000000E+00 -0.10000000000E+04  0.10000000000E+04  0.00000000000E+00 0.  1.
    9000005    2    1    2  501    0 -0.41485803480E+02 -0.35331594657E+02 -0.84601347577E+03  0.10683827864E+04  0.65017965482E+03 0.  0.
         13    1    3    3    0    0 -0.24805227921E+03 -0.20549057960E+03 -0.22720340198E+03  0.39417977801E+03  0.00000000000E+00 0.  1.
          1    1    3    3  501    0  0.20656647573E+03  0.17015898494E+03 -0.61881007379E+03  0.67420300836E+03  0.00000000000E+00 0.  1.
         -3    1    1    2    0  502  0.41485803480E+02  0.35331594657E+02 -0.25458038245E+02  0.60145699619E+02  0.00000000000E+00 0. -1.
<mgrwt>
<rscale>  1 0.65245918E+03</rscale>
<asrwt>0</asrwt>
<pdfrwt beam="1">  1       21 0.19773613E-01 0.65245918E+03</pdfrwt>
<pdfrwt beam="2">0</pdfrwt>
<totfact> 0.22935393E+03</totfact>
</mgrwt>
</event>
<event>
 6    1  0.1439793E-004  0.6553202E+03  0.7818608E-02  0.9796847E-01
         21   -1    0    0  501  502  0.00000000000E+00  0.00000000000E+00  0.45331950936E+03  0.45331950936E+03  0.00000000000E+00 0. -1.
         13   -1    0    0    0    0 -0.00000000000E+00 -0.00000000000E+00 -0.10000000000E+04  0.10000000000E+04  0.00000000000E+00 0.  1.
    9000005    2    1    2  501    0  0.66128201037E+02  0.89666944218E+01 -0.88907053968E+03  0.11044867611E+04  0.65191352212E+03 0.  0.
         13    1    3    3    0    0  0.26790465211E+03 -0.69906032292E+02 -0.11351599480E+03  0.29924177023E+03  0.00000000000E+00 0.  1.
          3    1    3    3  501    0 -0.20177645108E+03  0.78872726713E+02 -0.77555454488E+03  0.80524499086E+03  0.00000000000E+00 0.  1.
         -1    1    1    2    0  502 -0.66128201037E+02 -0.89666944218E+01  0.34239004904E+03  0.34883274827E+03  0.00000000000E+00 0. -1.
<mgrwt>
<rscale>  1 0.65532021E+03</rscale>
<asrwt>0</asrwt>
<pdfrwt beam="1">  1       21 0.69741461E-01 0.65532021E+03</pdfrwt>
<pdfrwt beam="2">0</pdfrwt>
<totfact> 0.16928564E+02</totfact>
</mgrwt>
</event>
<event>
 6    1  0.1439793E-004  0.6522038E+03  0.7818608E-02  0.9802653E-01
         21   -1    0    0  501  502  0.00000000000E+00  0.00000000000E+00  0.88261707799E+03  0.88261707799E+03  0.00000000000E+00 0. -1.
         13   -1    0    0    0    0 -0.00000000000E+00 -0.00000000000E+00 -0.10000000000E+04  0.10000000000E+04  0.00000000000E+00 0.  1.
    9000005    2    1    2  501    0 -0.93337583942E+02  0.37050745877E+02 -0.89006166504E+03  0.11034398823E+04  0.64442621294E+03 0.  0.
         13    1    3    3    0    0 -0.91078093396E+02 -0.29518774307E+03 -0.32837080178E+03  0.45084188605E+03  0.00000000000E+00 0.  1.
          1    1    3    3  501    0 -0.22594905457E+01  0.33223848895E+03 -0.56169086326E+03  0.65259799625E+03  0.00000000000E+00 0.  1.
         -1    1    1    2    0  502  0.93337583942E+02 -0.37050745877E+02  0.77267874304E+03  0.77917719569E+03  0.00000000000E+00 0. -1.
<mgrwt>
<rscale>  1 0.65220381E+03</rscale>
<asrwt>0</asrwt>
<pdfrwt beam="1">  1       21 0.13578724E+00 0.65220381E+03</pdfrwt>
<pdfrwt beam="2">0</pdfrwt>
<totfact> 0.33240041E+01</totfact>
</mgrwt>
</event>
<event>
 6    1  0.1439793E-004  0.6616188E+03  0.7818608E-02  0.9785218E-01
         21   -1    0    0  501  502  0.00000000000E+00  0.00000000000E+00  0.22618293519E+03  0.22618293519E+03  0.00000000000E+00 0.  1.
         13   -1    0    0    0    0 -0.00000000000E+00 -0.00000000000E+00 -0.10000000000E+04  0.10000000000E+04  0.00000000000E+00 0.  1.
    9000005    2    1    2  501    0  0.11721778488E+03 -0.12702424911E+02 -0.85642367632E+03  0.10822203951E+04  0.65102850127E+03 0.  0.
         13    1    3    3    0    0  0.20430541261E+03 -0.21277118663E+03 -0.80598129192E+03  0.85826459930E+03  0.00000000000E+00 0.  1.
          3    1    3    3  501    0 -0.87087627726E+02  0.20006876172E+03 -0.50442384395E+02  0.22395579578E+03  0.00000000000E+00 0.  1.
         -3    1    1    2    0  502 -0.11721778488E+03  0.12702424911E+02  0.82606611507E+02  0.14396254011E+03  0.00000000000E+00 0. -1.
<mgrwt>
<rscale>  1 0.66161883E+03</rscale>
<asrwt>0</asrwt>
<pdfrwt beam="1">  1       21 0.34797374E-01 0.66161883E+03</pdfrwt>
<pdfrwt beam="2">0</pdfrwt>
<totfact> 0.75146915E+02</totfact>
</mgrwt>
</event>
<event>
 6    1  0.1439793E-004  0.6459444E+03  0.7818608E-02  0.9814419E-01
         21   -1    0    0  501  502  0.00000000000E+00  0.00000000000E+00  0.14667477873E+03  0.14667477873E+03  0.00000000000E+00 0.  1.
         13   -1    0    0    0    0 -0.00000000000E+00 -0.00000000000E+00 -0.10000000000E+04  0.10000000000E+04  0.00000000000E+00 0.  1.
    9000005    2    1    2  501    0  0.34814524835E+02  0.12561215501E+02 -0.88656803661E+03  0.10969262105E+04  0.64488323933E+03 0.  0.
         13    1    3    3    0    0 -0.11477567188E+03 -0.28514376427E+03 -0.49639547050E+03  0.58385690395E+03  0.00000000000E+00 0.  1.
          3    1    3    3  501    0  0.14959019671E+03  0.29770497977E+03 -0.39017256611E+03  0.51306930650E+03  0.00000000000E+00 0.  1.
         -1    1    1    2    0  502 -0.34814524835E+02 -0.12561215501E+02  0.33242815339E+02  0.49748568281E+02  0.00000000000E+00 0. -1.
<mgrwt>
<rscale>  1 0.64594445E+03</rscale>
<asrwt>0</asrwt>
<pdfrwt beam="1">  1       21 0.22565350E-01 0.64594445E+03</pdfrwt>
<pdfrwt beam="2">0</pdfrwt>
<totfact> 0.17785497E+03</totfact>
</mgrwt>
</event>
<event>
 6    1  0.1439793E-004  0.6607036E+03  0.7818608E-02  0.9786899E-01
         21   -1    0    0  501  502  0.00000000000E+00  0.00000000000E+00  0.13583276552E+03  0.13583276552E+03  0.00000000000E+00 0.  1.
         13   -1    0    0    0    0 -0.00000000000E+00 -0.00000000000E+00 -0.10000000000E+04  0.10000000000E+04  0.00000000000E+00 0.  1.
    9000005    2    1    2  501    0  0.27440771389E+02 -0.32635905243E+02 -0.87037879342E+03  0.10927435359E+04  0.65932624167E+03 0.  0.
         13    1    3    3    0    0 -0.10412965682E+03 -0.25835432036E+03 -0.12956412103E+03  0.30720807563E+03  0.00000000000E+00 0.  1.
          1    1    3    3  501    0  0.13157042820E+03  0.22571841511E+03 -0.74081467239E+03  0.78553546026E+03  0.00000000000E+00 0.  1.
         -1    1    1    2    0  502 -0.27440771389E+02  0.32635905243E+02  0.62115589414E+01  0.43089229629E+02  0.00000000000E+00 0. -1.
<mgrwt>
<rscale>  1 0.66070356E+03</rscale>
<asrwt>0</asrwt>
<pdfrwt beam="1">  1       21 0.20897348E-01 0.66070356E+03</pdfrwt>
<pdfrwt beam="2">0</pdfrwt>
<totfact> 0.20618240E+03</totfact>
</mgrwt>
</event>
<event>
 6    1  0.1439793E-004  0.6851867E+03  0.7818608E-02  0.9742906E-01
         21   -1    0    0  501  502  0.00000000000E+00  0.00000000000E+00  0.17856605362E+03  0.17856605362E+03  0.00000000000E+00 0.  1.
         13   -1    0    0    0    0 -0.00000000000E+00 -0.00000000000E+00 -0.10000000000E+04  0.10000000000E+04  0.00000000000E+00 0.  1.
    9000005    2    1    2  501    0  0.83845039941E+02  0.10905418521E+03 -0.77243680212E+03  0.10325402813E+04  0.67123618290E+03 0.  0.
         13    1    3    3    0    0 -0.28156967671E+03  0.10359035021E+03 -0.47277284813E+03  0.55993446887E+03  0.00000000000E+00 0.  1.
          1    1    3    3  501    0  0.36541471665E+03  0.54638350030E+01 -0.29966395399E+03  0.47260581244E+03  0.00000000000E+00 0.  1.
         -1    1    1    2    0  502 -0.83845039941E+02 -0.10905418521E+03 -0.48997144256E+02  0.14602577231E+03  0.00000000000E+00 0. -1.
<mgrwt>
<rscale>  1 0.68518670E+03</rscale>
<asrwt>0</asrwt>
<pdfrwt beam="1">  1       21 0.27471700E-01 0.68518670E+03</pdfrwt>
<pdfrwt beam="2">0</pdfrwt>
<totfact> 0.12069277E+03</totfact>
</mgrwt>
</event>
<event>
 6    1  0.1439793E-004  0.6064051E+03  0.7818608E-02  0.9892206E-01
         21   -1    0    0  501  502  0.00000000000E+00  0.00000000000E+00  0.26667524773E+03  0.26667524773E+03  0.00000000000E+00 0. -1.
         13   -1    0    0    0    0 -0.00000000000E+00 -0.00000000000E+00 -0.10000000000E+04  0.10000000000E+04  0.00000000000E+00 0.  1.
    9000005    2    1    2  501    0  0.20195960103E+03  0.66161467240E+02 -0.83428963424E+03  0.10313904680E+04  0.56794549338E+03 0.  0.
         13    1    3    3    0    0  0.37024081701E+03  0.70336710674E+02 -0.33409984718E+03  0.50363501004E+03  0.00000000000E+00 0.  1.
          1    1    3    3  501    0 -0.16828121599E+03 -0.41752434331E+01 -0.50018978705E+03  0.52775545794E+03  0.00000000000E+00 0.  1.
         -3    1    1    2    0  502 -0.20195960103E+03 -0.66161467240E+02  0.10096488197E+03  0.23528477976E+03  0.00000000000E+00 0. -1.
<mgrwt>
<rscale>  1 0.60640507E+03</rscale>
<asrwt>0</asrwt>
<pdfrwt beam="1">  1       21 0.41026960E-01 0.60640507E+03</pdfrwt>
<pdfrwt beam="2">0</pdfrwt>
<totfact> 0.53773955E+02</totfact>
</mgrwt>
</event>
<event>
 6    1  0.1439793E-004  0.6587631E+03  0.7818608E-02  0.9790473E-01
         21   -1    0    0  501  502  0.00000000000E+00  0.00000000000E+00  0.20384147225E+03  0.20384147225E+03  0.00000000000E+00 0.  1.
         13   -1    0    0    0    0 -0.00000000000E+00 -0.00000000000E+00 -0.10000000000E+04  0.10000000000E+04  0.00000000000E+00 0.  1.
    9000005    2    1    2  501    0  0.24253857455E+02 -0.11554024470E+02 -0.88940517646E+03  0.11068018794E+04  0.65821507677E+03 0.  0.
         13    1    3    3    0    0 -0.11063056919E+03  0.29763789585E+03 -0.37133865686E+03  0.48858964169E+03  0.00000000000E+00 0.  1.
          1    1    3    3  501    0  0.13488442664E+03 -0.30919192032E+03 -0.51806651959E+03  0.61821223772E+03  0.00000000000E+00 0.  1.
         -1    1    1    2    0  502 -0.24253857455E+02  0.11554024470E+02  0.93246648706E+02  0.97039592837E+02  0.00000000000E+00 0. -1.
<mgrwt>
<rscale>  1 0.65876311E+03</rscale>
<asrwt>0</asrwt>
<pdfrwt beam="1">  1       21 0.31360226E-01 0.65876311E+03</pdfrwt>
<pdfrwt beam="2">0</pdfrwt>
<totfact> 0.92785018E+02</totfact>
</mgrwt>
</event>
<event>
 6    1  0.1439793E-004  0.6472326E+03  0.7818608E-02  0.9811986E-01
         21   -1    0    0  501  502  0.00000000000E+00  0.00000000000E+00  0.40136989417E+03  0.40136989417E+03  0.00000000000E+00 0. -1.
         13   -1    0    0    0    0 -0.00000000000E+00 -0.00000000000E+00 -0.10000000000E+04  0.10000000000E+04  0.00000000000E+00 0.  1.
    9000005    2    1    2  501    0 -0.10326087161E+03  0.60372666418E+01 -0.88527034345E+03  0.10966374180E+04  0.63891375742E+03 0.  0.
         13    1    3    3    0    0  0.23155009907E+03  0.93266290909E+02 -0.16980756924E+03  0.30190836354E+03  0.00000000000E+00 0.  1.
          3    1    3    3  501    0 -0.33481097068E+03 -0.87229024267E+02 -0.71546277421E+03  0.79472905449E+03  0.00000000000E+00 0.  1.
         -1    1    1    2    0  502  0.10326087161E+03 -0.60372666418E+01  0.28664023762E+03  0.30473247614E+03  0.00000000000E+00 0. -1.
<mgrwt>
<rscale>  1 0.64723261E+03</rscale>
<asrwt>0</asrwt>
<pdfrwt beam="1">  1       21 0.61749213E-01 0.64723261E+03</pdfrwt>
<pdfrwt beam="2">0</pdfrwt>
<totfact> 0.22267297E+02</totfact>
</mgrwt>
</event>
<event>
 6    1  0.1439793E-004  0.6408595E+03  0.7818608E-02  0.9824083E-01
         21   -1    0    0  501  502  0.00000000000E+00  0.00000000000E+00  0.25858479197E+03  0.25858479197E+03  0.00000000000E+00 0. -1.
         13   -1    0    0    0    0 -0.00000000000E+00 -0.00000000000E+00 -0.10000000000E+04  0.10000000000E+04  0.00000000000E+00 0.  1.
    9000005    2    1    2  501    0 -0.23704219973E+02 -0.16716441381E+02 -0.89583567665E+03  0.11014637858E+04  0.64020276662E+03 0.  0.
         13    1    3    3    0    0 -0.10428061500E+03 -0.27843152598E+03 -0.71215540876E+03  0.77172785848E+03  0.00000000000E+00 0.  1.
          3    1    3    3  501    0  0.80576395030E+02  0.26171508460E+03 -0.18368026788E+03  0.32973592730E+03  0.00000000000E+00 0.  1.
         -1    1    1    2    0  502  0.23704219973E+02  0.16716441381E+02  0.15442046861E+03  0.15712100618E+03  0.00000000000E+00 0. -1.
<mgrwt>
<rscale>  1 0.64085951E+03</rscale>
<asrwt>0</asrwt>
<pdfrwt beam="1">  1       21 0.39782275E-01 0.64085951E+03</pdfrwt>
<pdfrwt beam="2">0</pdfrwt>
<totfact> 0.57161547E+02</totfact>
</mgrwt>
</event>
<event>
 6    1  0.1439793E-004  0.6596363E+03  0.7818608E-02  0.9788864E-01
         21   -1    0    0  501  502  0.00000000000E+00  0.00000000000E+00  0.14514837124E+03  0.14514837124E+03  0.00000000000E+00 0.  1.
         13   -1    0    0    0    0 -0.00000000000E+00 -0.00000000000E+00 -0.10000000000E+04  0.10000000000E+04  0.00000000000E+00 0.  1.
    9000005    2    1    2  501    0  0.10105272183E+03 -0.14612568087E+02 -0.74960242864E+03  0.99851081172E+03  0.65168616707E+03 0.  0.
         13    1    3    3    0    0 -0.44970801145E+01  0.21926790071E+03 -0.14364562972E+02  0.21978393181E+03  0.00000000000E+00 0.  1.
          3    1    3    3  501    0  0.10554980194E+03 -0.23388046880E+03 -0.73523786567E+03  0.77872687991E+03  0.00000000000E+00 0.  1.
         -1    1    1    2    0  502 -0.10105272183E+03  0.14612568087E+02 -0.10524920012E+03  0.14663755952E+03  0.00000000000E+00 0. -1.
<mgrwt>
<rscale>  1 0.65963629E+03</rscale>
<asrwt>0</asrwt>
<pdfrwt beam="1">  1       21 0.22330518E-01 0.65963629E+03</pdfrwt>
<pdfrwt beam="2">0</pdfrwt>
<totfact> 0.18138645E+03</totfact>
</mgrwt>
</event>
<event>
 6    1  0.1439793E-004  0.6615839E+03  0.7818608E-02  0.9785282E-01
         21   -1    0    0  501  502  0.00000000000E+00  0.00000000000E+00  0.23611829166E+03  0.23611829166E+03  0.00000000000E+00 0. -1.
         13   -1    0    0    0    0 -0.00000000000E+00 -0.00000000000E+00 -0.10000000000E+04  0.10000000000E+04  0.00000000000E+00 0.  1.
    9000005    2    1    2  501    0  0.91188905571E+02 -0.90160713617E+01 -0.87188783788E+03  0.10944777958E+04  0.65520724787E+03 0.  0.
         13    1    3    3    0    0  0.21402545033E+03  0.39536032056E+02 -0.92637339789E+03  0.95159742725E+03  0.00000000000E+00 0.  1.
          3    1    3    3  501    0 -0.12283654476E+03 -0.48552103418E+02  0.54485560011E+02  0.14288036858E+03  0.00000000000E+00 0.  1.
         -1    1    1    2    0  502 -0.91188905571E+02  0.90160713617E+01  0.10800612955E+03  0.14164049584E+03  0.00000000000E+00 0. -1.
<mgrwt>
<rscale>  1 0.66158389E+03</rscale>
<asrwt>0</asrwt>
<pdfrwt beam="1">  1       21 0.36325890E-01 0.66158389E+03</pdfrwt>
<pdfrwt beam="2">0</pdfrwt>
<totfact> 0.68826512E+02</totfact>
</mgrwt>
</event>
<event>
 6    1  0.1439793E-004  0.6608709E+03  0.7818608E-02  0.9786592E-01
         21   -1    0    0  501  502  0.00000000000E+00  0.00000000000E+00  0.12457166127E+03  0.12457166127E+03  0.00000000000E+00 0.  1.
         13   -1    0    0    0    0 -0.00000000000E+00 -0.00000000000E+00 -0.10000000000E+04  0.10000000000E+04  0.00000000000E+00 0.  1.
    9000005    2    1    2  501    0  0.40400447656E+02 -0.84758546829E+01 -0.84758445388E+03  0.10747789087E+04  0.65958036650E+03 0.  0.
         13    1    3    3    0    0  0.95347167071E+02 -0.32546168331E+03 -0.43107524188E+03  0.54849088756E+03  0.00000000000E+00 0.  1.
          1    1    3    3  501    0 -0.54946719415E+02  0.31698582863E+03 -0.41650921200E+03  0.52628802115E+03  0.00000000000E+00 0.  1.
         -1    1    1    2    0  502 -0.40400447656E+02  0.84758546829E+01 -0.27843884852E+02  0.49792752555E+02  0.00000000000E+00 0. -1.
<mgrwt>
<rscale>  1 0.66087086E+03</rscale>
<asrwt>0</asrwt>
<pdfrwt beam="1">  1       21 0.19164870E-01 0.66087086E+03</pdfrwt>
<pdfrwt beam="2">0</pdfrwt>
<totfact> 0.24341682E+03</totfact>
</mgrwt>
</event>
<event>
 6    1  0.1439793E-004  0.6469443E+03  0.7818608E-02  0.9812530E-01
         21   -1    0    0  501  502  0.00000000000E+00  0.00000000000E+00  0.15651064343E+03  0.15651064343E+03  0.00000000000E+00 0. -1.
         13   -1    0    0    0    0 -0.00000000000E+00 -0.00000000000E+00 -0.10000000000E+04  0.10000000000E+04  0.00000000000E+00 0.  1.
    9000005    2    1    2  501    0 -0.37849170074E+02  0.12572414994E+02 -0.88675563977E+03  0.10976668115E+04  0.64571374395E+03 0.  0.
         13    1    3    3    0    0 -0.20352437299E+03  0.13835507172E+02 -0.87667165049E+01  0.20418238655E+03  0.00000000000E+00 0.  1.
          1    1    3    3  501    0  0.16567520292E+03 -0.12630921783E+01 -0.87798892326E+03  0.89348442495E+03  0.00000000000E+00 0.  1.
         -3    1    1    2    0  502  0.37849170074E+02 -0.12572414994E+02  0.43266283193E+02  0.58843831923E+02  0.00000000000E+00 0. -1.
<mgrwt>
<rscale>  1 0.64694425E+03</rscale>
<asrwt>0</asrwt>
<pdfrwt beam="1">  1       21 0.24078560E-01 0.64694425E+03</pdfrwt>
<pdfrwt beam="2">0</pdfrwt>
<totfact> 0.15674283E+03</totfact>
</mgrwt>
</event>
<event>
 6    1  0.1439793E-004  0.6551682E+03  0.7818608E-02  0.9797129E-01
         21   -1    0    0  501  502  0.00000000000E+00  0.00000000000E+00  0.16722641453E+03  0.16722641453E+03  0.00000000000E+00 0. -1.
         13   -1    0    0    0    0 -0.00000000000E+00 -0.00000000000E+00 -0.10000000000E+04  0.10000000000E+04  0.00000000000E+00 0.  1.
    9000005    2    1    2  501    0  0.20451208868E+02  0.44221413819E+02 -0.88150600194E+03  0.10983160829E+04  0.65335411624E+03 0.  0.
         13    1    3    3    0    0 -0.29691512907E+03  0.13253002563E+02 -0.61378200564E+03  0.68195497387E+03  0.00000000000E+00 0.  1.
          1    1    3    3  501    0  0.31736633793E+03  0.30968411256E+02 -0.26772399631E+03  0.41636110907E+03  0.00000000000E+00 0.  1.
         -3    1    1    2    0  502 -0.20451208868E+02 -0.44221413819E+02  0.48732416478E+02  0.68910331591E+02  0.00000000000E+00 0. -1.
<mgrwt>
<rscale>  1 0.65516821E+03</rscale>
<asrwt>0</asrwt>
<pdfrwt beam="1">  1       21 0.25727140E-01 0.65516821E+03</pdfrwt>
<pdfrwt beam="2">0</pdfrwt>
<totfact> 0.13760950E+03</totfact>
</mgrwt>
</event>
<event>
 6    1  0.1439793E-004  0.6471993E+03  0.7818608E-02  0.9812049E-01
         21   -1    0    0  501  502  0.00000000000E+00  0.00000000000E+00  0.12049402299E+03  0.12049402299E+03  0.00000000000E+00 0.  1.
         13   -1    0    0    0    0 -0.00000000000E+00 -0.00000000000E+00 -0.10000000000E+04  0.10000000000E+04  0.00000000000E+00 0.  1.
    9000005    2    1    2  501    0 -0.10969108802E+02  0.31563065894E+02 -0.87252997964E+03  0.10863588063E+04  0.64633609079E+03 0.  0.
         13    1    3    3    0    0 -0.85582141999E+02 -0.26586401981E+03 -0.65004091490E+03  0.70750347781E+03  0.00000000000E+00 0.  1.
          1    1    3    3  501    0  0.74613033197E+02  0.29742708570E+03 -0.22248906474E+03  0.37885532853E+03  0.00000000000E+00 0.  1.
         -3    1    1    2    0  502  0.10969108802E+02 -0.31563065894E+02 -0.69759973673E+01  0.34135216651E+02  0.00000000000E+00 0. -1.
<mgrwt>
<rscale>  1 0.64719927E+03</rscale>
<asrwt>0</asrwt>
<pdfrwt beam="1">  1       21 0.18537541E-01 0.64719927E+03</pdfrwt>
<pdfrwt beam="2">0</pdfrwt>
<totfact> 0.25949068E+03</totfact>
</mgrwt>
</event>
<event>
 6    1  0.1439793E-004  0.6650876E+03  0.7818608E-02  0.9778873E-01
         21   -1    0    0  501  502  0.00000000000E+00  0.00000000000E+00  0.11780990856E+03  0.11780990856E+03  0.00000000000E+00 0.  1.
         13   -1    0    0    0    0 -0.00000000000E+00 -0.00000000000E+00 -0.10000000000E+04  0.10000000000E+04  0.00000000000E+00 0.  1.
    9000005    2    1    2  501    0  0.16219921085E+02  0.12773731430E+02 -0.86365217041E+03  0.10900626822E+04  0.66476712133E+03 0.  0.
         13    1    3    3    0    0  0.16452398859E+03  0.26561416947E+03 -0.21797035897E+03  0.38095945616E+03  0.00000000000E+00 0.  1.
          3    1    3    3  501    0 -0.14830406751E+03 -0.25284043804E+03 -0.64568181143E+03  0.70910322603E+03  0.00000000000E+00 0.  1.
         -3    1    1    2    0  502 -0.16219921085E+02 -0.12773731430E+02 -0.18537921039E+02  0.27747226368E+02  0.00000000000E+00 0. -1.
<mgrwt>
<rscale>  1 0.66508765E+03</rscale>
<asrwt>0</asrwt>
<pdfrwt beam="1">  1       21 0.18124601E-01 0.66508765E+03</pdfrwt>
<pdfrwt beam="2">0</pdfrwt>
<totfact> 0.27068001E+03</totfact>
</mgrwt>
</event>
<event>
 6    1  0.1439793E-004  0.6849115E+03  0.7818608E-02  0.9743389E-01
         21   -1    0    0  501  502  0.00000000000E+00  0.00000000000E+00  0.20486594170E+03  0.20486594170E+03  0.00000000000E+00 0. -1.
         13   -1    0    0    0    0 -0.00000000000E+00 -0.00000000000E+00 -0.10000000000E+04  0.10000000000E+04  0.00000000000E+00 0.  1.
    9000005    2    1    2  501    0  0.79834973016E+02 -0.18013115159E+03 -0.72071399501E+03  0.99424970180E+03  0.65595956600E+03 0.  0.
         13    1    3    3    0    0  0.35065862583E+03  0.14919146260E+02 -0.35789298417E+03  0.50126982845E+03  0.00000000000E+00 0.  1.
          3    1    3    3  501    0 -0.27082365281E+03 -0.19505029786E+03 -0.36282101084E+03  0.49297987335E+03  0.00000000000E+00 0.  1.
         -1    1    1    2    0  502 -0.79834973016E+02  0.18013115159E+03 -0.74420063286E+02  0.21061623990E+03  0.00000000000E+00 0. -1.
<mgrwt>
<rscale>  1 0.68491153E+03</rscale>
<asrwt>0</asrwt>
<pdfrwt beam="1">  1       21 0.31517836E-01 0.68491153E+03</pdfrwt>
<pdfrwt beam="2">0</pdfrwt>
<totfact> 0.91699806E+02</totfact>
</mgrwt>
</event>
<event>
 6    1  0.1439793E-004  0.6521076E+03  0.7818608E-02  0.9802832E-01
         21   -1    0    0  501  502  0.00000000000E+00  0.00000000000E+00  0.11721552199E+03  0.11721552199E+03  0.00000000000E+00 0.  1.
         13   -1    0    0    0    0 -0.00000000000E+00 -0.00000000000E+00 -0.10000000000E+04  0.10000000000E+04  0.00000000000E+00 0.  1.
    9000005    2    1    2  501    0  0.87625208916E+01 -0.30253594840E+02 -0.85434503764E+03  0.10747789394E+04  0.65134650032E+03 0.  0.
         13    1    3    3    0    0  0.17109156056E+03 -0.26623273313E+03 -0.24077552946E+03  0.39764940070E+03  0.00000000000E+00 0.  1.
          3    1    3    3  501    0 -0.16232903967E+03  0.23597913829E+03 -0.61356950818E+03  0.67712953871E+03  0.00000000000E+00 0.  1.
         -3    1    1    2    0  502 -0.87625208916E+01  0.30253594840E+02 -0.28439440364E+02  0.42436582584E+02  0.00000000000E+00 0. -1.
<mgrwt>
<rscale>  1 0.65210760E+03</rscale>
<asrwt>0</asrwt>
<pdfrwt beam="1">  1       21 0.18033157E-01 0.65210760E+03</pdfrwt>
<pdfrwt beam="2">0</pdfrwt>
<totfact> 0.27340953E+03</totfact>
</mgrwt>
</event>
<event>
 6    1  0.1439793E-004  0.6414139E+03  0.7818608E-02  0.9823025E-01
         21   -1    0    0  501  502  0.00000000000E+00  0.00000000000E+00  0.14356929718E+03  0.14356929718E+03  0.00000000000E+00 0.  1.
         13   -1    0    0    0    0 -0.00000000000E+00 -0.00000000000E+00 -0.10000000000E+04  0.10000000000E+04  0.00000000000E+00 0.  1.
    9000005    2    1    2  501    0 -0.67983485934E+02 -0.85694772542E+01 -0.86241276138E+03  0.10747872114E+04  0.63774335629E+03 0.  0.
         13    1    3    3    0    0 -0.24438109415E+03 -0.17251466823E+03 -0.75306876755E+03  0.81030611413E+03  0.00000000000E+00 0.  1.
          3    1    3    3  501    0  0.17639760822E+03  0.16394519097E+03 -0.10934399383E+03  0.26448109727E+03  0.00000000000E+00 0.  1.
         -3    1    1    2    0  502  0.67983485934E+02  0.85694772542E+01  0.59820585662E+01  0.68782085784E+02  0.00000000000E+00 0. -1.
<mgrwt>
<rscale>  1 0.64141389E+03</rscale>
<asrwt>0</asrwt>
<pdfrwt beam="1">  1       21 0.22087584E-01 0.64141389E+03</pdfrwt>
<pdfrwt beam="2">0</pdfrwt>
<totfact> 0.18542329E+03</totfact>
</mgrwt>
</event>
<event>
 6    1  0.1439793E-004  0.6417353E+03  0.7818608E-02  0.9822412E-01
         21   -1    0    0  501  502  0.00000000000E+00  0.00000000000E+00  0.14262440552E+03  0.14262440552E+03  0.00000000000E+00 0.  1.
         13   -1    0    0    0    0 -0.00000000000E+00 -0.00000000000E+00 -0.10000000000E+04  0.10000000000E+04  0.00000000000E+00 0.  1.
    9000005    2    1    2  501    0 -0.16181399502E+02  0.69173495246E+02 -0.85817102679E+03  0.10715790479E+04  0.63779098021E+03 0.  0.
         13    1    3    3    0    0 -0.29549570147E+03 -0.10131648479E+03 -0.37571367375E+03  0.48861386014E+03  0.00000000000E+00 0.  1.
          1    1    3    3  501    0  0.27931430197E+03  0.17048998004E+03 -0.48245735304E+03  0.58296518771E+03  0.00000000000E+00 0.  1.
         -1    1    1    2    0  502  0.16181399502E+02 -0.69173495246E+02  0.79543231541E+00  0.71045357674E+02  0.00000000000E+00 0. -1.
<mgrwt>
<rscale>  1 0.64173526E+03</rscale>
<asrwt>0</asrwt>
<pdfrwt beam="1">  1       21 0.21942216E-01 0.64173526E+03</pdfrwt>
<pdfrwt beam="2">0</pdfrwt>
<totfact> 0.18780473E+03</totfact>
</mgrwt>
</event>
<event>
 6    1  0.1439793E-004  0.6504991E+03  0.7818608E-02  0.9805843E-01
         21   -1    0    0  501  502  0.00000000000E+00  0.00000000000E+00  0.18089091280E+03  0.18089091280E+03  0.00000000000E+00 0. -1.
         13   -1    0    0    0    0 -0.00000000000E+00 -0.00000000000E+00 -0.10000000000E+04  0.10000000000E+04  0.00000000000E+00 0.  1.
    9000005    2    1    2  501    0  0.19625046978E+03  0.31137231989E+02 -0.59781237581E+03  0.88347536416E+03  0.61940722331E+03 0.  0.
         13    1    3    3    0    0  0.10471071291E+01  0.25195083395E+03 -0.52127920417E+03  0.57897523942E+03  0.00000000000E+00 0.  1.
          1    1    3    3  501    0  0.19520336265E+03 -0.22081360196E+03 -0.76533171645E+02  0.30450012474E+03  0.00000000000E+00 0.  1.
         -3    1    1    2    0  502 -0.19625046978E+03 -0.31137231989E+02 -0.22129671139E+03  0.29741554864E+03  0.00000000000E+00 0. -1.
<mgrwt>
<rscale>  1 0.65049910E+03</rscale>
<asrwt>0</asrwt>
<pdfrwt beam="1">  1       21 0.27829370E-01 0.65049910E+03</pdfrwt>
<pdfrwt beam="2">0</pdfrwt>
<totfact> 0.11786491E+03</totfact>
</mgrwt>
</event>
<event>
 6    1  0.1439793E-004  0.6437861E+03  0.7818608E-02  0.9818509E-01
         21   -1    0    0  501  502  0.00000000000E+00  0.00000000000E+00  0.14663255195E+03  0.14663255195E+03  0.00000000000E+00 0.  1.
         13   -1    0    0    0    0 -0.00000000000E+00 -0.00000000000E+00 -0.10000000000E+04  0.10000000000E+04  0.00000000000E+00 0.  1.
    9000005    2    1    2  501    0  0.71439173655E+02 -0.20566347833E+02 -0.85738922658E+03  0.10721832074E+04  0.63947948698E+03 0.  0.
         13    1    3    3    0    0 -0.47711553641E+02 -0.47935504870E+02  0.92428224703E+02  0.11453026543E+03  0.00000000000E+00 0.  1.
          3    1    3    3  501    0  0.11915072730E+03  0.27369157037E+02 -0.94981745128E+03  0.95765294201E+03  0.00000000000E+00 0.  1.
         -1    1    1    2    0  502 -0.71439173655E+02  0.20566347833E+02  0.40217785299E+01  0.74449344512E+02  0.00000000000E+00 0. -1.
<mgrwt>
<rscale>  1 0.64378610E+03</rscale>
<asrwt>0</asrwt>
<pdfrwt beam="1">  1       21 0.22558854E-01 0.64378610E+03</pdfrwt>
<pdfrwt beam="2">0</pdfrwt>
<totfact> 0.17797218E+03</totfact>
</mgrwt>
</event>
<event>
 6    1  0.1439793E-004  0.6526378E+03  0.7818608E-02  0.9801842E-01
         21   -1    0    0  501  502  0.00000000000E+00  0.00000000000E+00  0.28688513194E+03  0.28688513194E+03  0.00000000000E+00 0. -1.
         13   -1    0    0    0    0 -0.00000000000E+00 -0.00000000000E+00 -0.10000000000E+04  0.10000000000E+04  0.00000000000E+00 0.  1.
    9000005    2    1    2  501    0 -0.16329415121E+03 -0.28672369722E+02 -0.85016427306E+03  0.10717813802E+04  0.63122812923E+03 0.  0.
         13    1    3    3    0    0  0.13286544503E+03 -0.24879205171E+03 -0.33156199237E+03  0.43529767546E+03  0.00000000000E+00 0.  1.
          1    1    3    3  501    0 -0.29615959624E+03  0.22011968199E+03 -0.51860228069E+03  0.63648370473E+03  0.00000000000E+00 0.  1.
         -1    1    1    2    0  502  0.16329415121E+03  0.28672369722E+02  0.13704940500E+03  0.21510375175E+03  0.00000000000E+00 0. -1.
<mgrwt>
<rscale>  1 0.65263775E+03</rscale>
<asrwt>0</asrwt>
<pdfrwt beam="1">  1       21 0.44136173E-01 0.65263775E+03</pdfrwt>
<pdfrwt beam="2">0</pdfrwt>
<totfact> 0.45963138E+02</totfact>
</mgrwt>
</event>
<event>
 6    1  0.1439793E-004  0.6505354E+03  0.7818608E-02  0.9805775E-01
         21   -1    0    0  501  502  0.00000000000E+00  0.00000000000E+00  0.18719380546E+03  0.18719380546E+03  0.00000000000E+00 0.  1.
         13   -1    0    0    0    0 -0.00000000000E+00 -0.00000000000E+00 -0.10000000000E+04  0.10000000000E+04  0.00000000000E+00 0.  1.
    9000005    2    1    2  501    0  0.60094233587E+02 -0.10932483791E+02 -0.88131805504E+03  0.10954075802E+04  0.64766149847E+03 0.  0.
         13    1    3    3    0    0  0.10688343805E+03 -0.12672535515E+03  0.35985160723E+02  0.16964173060E+03  0.00000000000E+00 0.  1.
          1    1    3    3  501    0 -0.46789204465E+02  0.11579287136E+03 -0.91730321576E+03  0.92576584964E+03  0.00000000000E+00 0.  1.
         -3    1    1    2    0  502 -0.60094233587E+02  0.10932483791E+02  0.68511860497E+02  0.91786225225E+02  0.00000000000E+00 0. -1.
<mgrwt>
<rscale>  1 0.65053536E+03</rscale>
<asrwt>0</asrwt>
<pdfrwt beam="1">  1       21 0.28799046E-01 0.65053536E+03</pdfrwt>
<pdfrwt beam="2">0</pdfrwt>
<totfact> 0.11010354E+03</totfact>
</mgrwt>
</event>
<event>
 6    1  0.1439793E-004  0.6552638E+03  0.7818608E-02  0.9796952E-01
         21   -1    0    0  501  502  0.00000000000E+00  0.00000000000E+00  0.11746108786E+04  0.11746108786E+04  0.00000000000E+00 0. -1.
         13   -1    0    0    0    0 -0.00000000000E+00 -0.00000000000E+00 -0.10000000000E+04  0.10000000000E+04  0.00000000000E+00 0.  1.
    9000005    2    1    2  501    0 -0.68832057811E+02  0.32633157059E+02 -0.89115178410E+03  0.11061293260E+04  0.65082087269E+03 0.  0.
         13    1    3    3    0    0  0.24901195604E+03  0.85437820296E+02 -0.16238551195E+03  0.30931477475E+03  0.00000000000E+00 0.  1.
          3    1    3    3  501    0 -0.31784401385E+03 -0.52804663237E+02 -0.72876627215E+03  0.79681455121E+03  0.00000000000E+00 0.  1.
         -3    1    1    2    0  502  0.68832057811E+02 -0.32633157059E+02  0.10657626627E+04  0.10684815527E+04  0.00000000000E+00 0. -1.
<mgrwt>
<rscale>  1 0.65526375E+03</rscale>
<asrwt>0</asrwt>
<pdfrwt beam="1">  1       21 0.18070936E+00 0.65526375E+03</pdfrwt>
<pdfrwt beam="2">0</pdfrwt>
<totfact> 0.14910367E+01</totfact>
</mgrwt>
</event>
<event>
 6    1  0.1439793E-004  0.6536646E+03  0.7818608E-02  0.9799927E-01
         21   -1    0    0  501  502  0.00000000000E+00  0.00000000000E+00  0.11990812517E+03  0.11990812517E+03  0.00000000000E+00 0.  1.
         13   -1    0    0    0    0 -0.00000000000E+00 -0.00000000000E+00 -0.10000000000E+04  0.10000000000E+04  0.00000000000E+00 0.  1.
    9000005    2    1    2  501    0  0.16277843524E+02  0.18075382577E+02 -0.87919837638E+03  0.10955670902E+04  0.65321189243E+03 0.  0.
         13    1    3    3    0    0  0.89658835603E+02  0.23943945523E+03 -0.87497907628E+02  0.27023294277E+03  0.00000000000E+00 0.  1.
          3    1    3    3  501    0 -0.73380992079E+02 -0.22136407265E+03 -0.79170046875E+03  0.82533414741E+03  0.00000000000E+00 0.  1.
         -3    1    1    2    0  502 -0.16277843524E+02 -0.18075382577E+02 -0.89349845087E+00  0.24341034994E+02  0.00000000000E+00 0. -1.
<mgrwt>
<rscale>  1 0.65366464E+03</rscale>
<asrwt>0</asrwt>
<pdfrwt beam="1">  1       21 0.18447403E-01 0.65366464E+03</pdfrwt>
<pdfrwt beam="2">0</pdfrwt>
<totfact> 0.26184894E+03</totfact>
</mgrwt>
</event>
<event>
 6    1  0.1439793E-004  0.6323529E+03  0.7818608E-02  0.9840468E-01
         21   -1    0    0  501  502  0.00000000000E+00  0.00000000000E+00  0.11452753116E+03  0.11452753116E+03  0.00000000000E+00 0.  1.
         13   -1    0    0    0    0 -0.00000000000E+00 -0.00000000000E+00 -0.10000000000E+04  0.10000000000E+04  0.00000000000E+00 0.  1.
    9000005    2    1    2  501    0  0.24052353293E+02 -0.14844680580E+02 -0.88310987823E+03  0.10861644905E+04  0.63172095357E+03 0.  0.
         13    1    3    3    0    0  0.22795966794E+02  0.30833209248E+03 -0.43207109423E+03  0.53129442480E+03  0.00000000000E+00 0.  1.
          1    1    3    3  501    0  0.12563864991E+01 -0.32317677306E+03 -0.45103878400E+03  0.55487006571E+03  0.00000000000E+00 0.  1.
         -1    1    1    2    0  502 -0.24052353293E+02  0.14844680580E+02 -0.23625906095E+01  0.28363040649E+02  0.00000000000E+00 0. -1.
<mgrwt>
<rscale>  1 0.63235294E+03</rscale>
<asrwt>0</asrwt>
<pdfrwt beam="1">  1       21 0.17619620E-01 0.63235294E+03</pdfrwt>
<pdfrwt beam="2">0</pdfrwt>
<totfact> 0.28588743E+03</totfact>
</mgrwt>
</event>
<event>
 6    1  0.1439793E-004  0.6592278E+03  0.7818608E-02  0.9789616E-01
         21   -1    0    0  501  502  0.00000000000E+00  0.00000000000E+00  0.17312542063E+03  0.17312542063E+03  0.00000000000E+00 0.  1.
         13   -1    0    0    0    0 -0.00000000000E+00 -0.00000000000E+00 -0.10000000000E+04  0.10000000000E+04  0.00000000000E+00 0.  1.
    9000005    2    1    2  501    0 -0.54924513980E+02  0.43503072594E+02 -0.86947026114E+03  0.10911277886E+04  0.65549378059E+03 0.  0.
         13    1    3    3    0    0 -0.10096679665E+03 -0.31154596021E+02 -0.95957782532E+03  0.96537790824E+03  0.00000000000E+00 0.  1.
          3    1    3    3  501    0  0.46042282673E+02  0.74657668615E+02  0.90107564178E+02  0.12574988031E+03  0.00000000000E+00 0.  1.
         -3    1    1    2    0  502  0.54924513980E+02 -0.43503072594E+02  0.42595681770E+02  0.81997632078E+02  0.00000000000E+00 0. -1.
<mgrwt>
<rscale>  1 0.65922782E+03</rscale>
<asrwt>0</asrwt>
<pdfrwt beam="1">  1       21 0.26634679E-01 0.65922782E+03</pdfrwt>
<pdfrwt beam="2">0</pdfrwt>
<totfact> 0.12849614E+03</totfact>
</mgrwt>
</event>
<event>
 6    1  0.1439793E-004  0.6457036E+03  0.7818608E-02  0.9814875E-01
         21   -1    0    0  501  502  0.00000000000E+00  0.00000000000E+00  0.12541248337E+03  0.12541248337E+03  0.00000000000E+00 0.  1.
         13   -1    0    0    0    0 -0.00000000000E+00 -0.00000000000E+00 -0.10000000000E+04  0.10000000000E+04  0.00000000000E+00 0.  1.
    9000005    2    1    2  501    0  0.38460645653E+02 -0.31408085114E+02 -0.85636733784E+03  0.10725195350E+04  0.64379146198E+03 0.  0.
         13    1    3    3    0    0  0.53704968038E+02 -0.33239904552E+03 -0.36933306766E+03  0.49978021562E+03  0.00000000000E+00 0.  1.
          3    1    3    3  501    0 -0.15244322385E+02  0.30099096041E+03 -0.48703427018E+03  0.57273931936E+03  0.00000000000E+00 0.  1.
         -1    1    1    2    0  502 -0.38460645653E+02  0.31408085114E+02 -0.18220178785E+02  0.52892948392E+02  0.00000000000E+00 0. -1.
<mgrwt>
<rscale>  1 0.64570360E+03</rscale>
<asrwt>0</asrwt>
<pdfrwt beam="1">  1       21 0.19294228E-01 0.64570360E+03</pdfrwt>
<pdfrwt beam="2">0</pdfrwt>
<totfact> 0.24044217E+03</totfact>
</mgrwt>
</event>
<event>
 6    1  0.1439793E-004  0.6662631E+03  0.7818608E-02  0.9776732E-01
         21   -1    0    0  501  502  0.00000000000E+00  0.00000000000E+00  0.15868679910E+03  0.15868679910E+03  0.00000000000E+00 0.  1.
         13   -1    0    0    0    0 -0.00000000000E+00 -0.00000000000E+00 -0.10000000000E+04  0.10000000000E+04  0.00000000000E+00 0.  1.
    9000005    2    1    2  501    0  0.18728187104E+01 -0.29351110891E+02 -0.88393099278E+03  0.11069058050E+04  0.66561360119E+03 0.  0.
         13    1    3    3    0    0  0.41324038526E+02 -0.53451026176E+01  0.10703742826E+03  0.11486190548E+03  0.00000000000E+00 0.  1.
          1    1    3    3  501    0 -0.39451219816E+02 -0.24006008273E+02 -0.99096842104E+03  0.99204389957E+03  0.00000000000E+00 0.  1.
         -3    1    1    2    0  502 -0.18728187104E+01  0.29351110891E+02  0.42617791877E+02  0.51780994051E+02  0.00000000000E+00 0. -1.
<mgrwt>
<rscale>  1 0.66626306E+03</rscale>
<asrwt>0</asrwt>
<pdfrwt beam="1">  1       21 0.24413353E-01 0.66626306E+03</pdfrwt>
<pdfrwt beam="2">0</pdfrwt>
<totfact> 0.15242256E+03</totfact>
</mgrwt>
</event>
<event>
 6    1  0.1439793E-004  0.7593360E+03  0.7818608E-02  0.9620816E-01
         21   -1    0    0  501  502  0.00000000000E+00  0.00000000000E+00  0.35822182230E+03  0.35822182230E+03  0.00000000000E+00 0.  1.
         13   -1    0    0    0    0 -0.00000000000E+00 -0.00000000000E+00 -0.10000000000E+04  0.10000000000E+04  0.00000000000E+00 0.  1.
    9000005    2    1    2  501    0 -0.56355070552E+02  0.69374053589E+02 -0.84509671391E+03  0.11361248154E+04  0.75405735003E+03 0.  0.
         13    1    3    3    0    0 -0.29290227062E+03  0.81926227612E+02 -0.84624616603E+03  0.89924202550E+03  0.00000000000E+00 0.  1.
          3    1    3    3  501    0  0.23654720007E+03 -0.12552174023E+02  0.11494521239E+01  0.23688278995E+03  0.00000000000E+00 0.  1.
         -3    1    1    2    0  502  0.56355070552E+02 -0.69374053589E+02  0.20331853621E+03  0.22209700686E+03  0.00000000000E+00 0. -1.
<mgrwt>
<rscale>  1 0.75933599E+03</rscale>
<asrwt>0</asrwt>
<pdfrwt beam="1">  1       21 0.55111048E-01 0.75933599E+03</pdfrwt>
<pdfrwt beam="2">0</pdfrwt>
<totfact> 0.28290949E+02</totfact>
</mgrwt>
</event>
<event>
 6    1  0.1439793E-004  0.6446629E+03  0.7818608E-02  0.9816846E-01
         21   -1    0    0  501  502  0.00000000000E+00  0.00000000000E+00  0.11654522021E+03  0.11654522021E+03  0.00000000000E+00 0.  1.
         13   -1    0    0    0    0 -0.00000000000E+00 -0.00000000000E+00 -0.10000000000E+04  0.10000000000E+04  0.00000000000E+00 0.  1.
    9000005    2    1    2  501    0 -0.29325910230E+02 -0.40586869411E+01 -0.87283006709E+03  0.10850910238E+04  0.64398270319E+03 0.  0.
         13    1    3    3    0    0  0.23913979537E+03 -0.15260158074E+03 -0.20453142505E+03  0.34972587552E+03  0.00000000000E+00 0.  1.
          1    1    3    3  501    0 -0.26846570560E+03  0.14854289380E+03 -0.66829864204E+03  0.73536514830E+03  0.00000000000E+00 0.  1.
         -3    1    1    2    0  502  0.29325910230E+02  0.40586869411E+01 -0.10624712698E+02  0.31454196389E+02  0.00000000000E+00 0. -1.
<mgrwt>
<rscale>  1 0.64466286E+03</rscale>
<asrwt>0</asrwt>
<pdfrwt beam="1">  1       21 0.17930033E-01 0.64466286E+03</pdfrwt>
<pdfrwt beam="2">0</pdfrwt>
<totfact> 0.27646920E+03</totfact>
</mgrwt>
</event>
<event>
 6    1  0.1439793E-004  0.7103252E+03  0.7818608E-02  0.9699736E-01
         21   -1    0    0  501  502  0.00000000000E+00  0.00000000000E+00  0.28663888036E+03  0.28663888036E+03  0.00000000000E+00 0. -1.
         13   -1    0    0    0    0 -0.00000000000E+00 -0.00000000000E+00 -0.10000000000E+04  0.10000000000E+04  0.00000000000E+00 0.  1.
    9000005    2    1    2  501    0  0.26427108184E+03  0.98655964835E+02 -0.71030442578E+03  0.10045368643E+04  0.65191236400E+03 0.  0.
         13    1    3    3    0    0 -0.16954908882E+03  0.37827975275E+02 -0.44242258876E+01  0.17377405735E+03  0.00000000000E+00 0.  1.
          1    1    3    3  501    0  0.43382017066E+03  0.60827989560E+02 -0.70588019989E+03  0.83076280694E+03  0.00000000000E+00 0.  1.
         -3    1    1    2    0  502 -0.26427108184E+03 -0.98655964835E+02 -0.30566938608E+01  0.28210201607E+03  0.00000000000E+00 0. -1.
<mgrwt>
<rscale>  1 0.71032523E+03</rscale>
<asrwt>0</asrwt>
<pdfrwt beam="1">  1       21 0.44098288E-01 0.71032523E+03</pdfrwt>
<pdfrwt beam="2">0</pdfrwt>
<totfact> 0.45825224E+02</totfact>
</mgrwt>
</event>
<event>
 6    1  0.1439793E-004  0.6468458E+03  0.7818608E-02  0.9812716E-01
         21   -1    0    0  501  502  0.00000000000E+00  0.00000000000E+00  0.30346745979E+03  0.30346745979E+03  0.00000000000E+00 0. -1.
         13   -1    0    0    0    0 -0.00000000000E+00 -0.00000000000E+00 -0.10000000000E+04  0.10000000000E+04  0.00000000000E+00 0.  1.
    9000005    2    1    2  501    0  0.37109418622E+02 -0.15264464536E+02 -0.89315894674E+03  0.11027884709E+04  0.64560002683E+03 0.  0.
         13    1    3    3    0    0 -0.25087430962E+03  0.13240598020E+03 -0.61013015100E+03  0.67285069961E+03  0.00000000000E+00 0.  1.
          3    1    3    3  501    0  0.28798372824E+03 -0.14767044473E+03 -0.28302879574E+03  0.42993777131E+03  0.00000000000E+00 0.  1.
         -3    1    1    2    0  502 -0.37109418622E+02  0.15264464536E+02  0.19662640653E+03  0.20067898886E+03  0.00000000000E+00 0. -1.
<mgrwt>
<rscale>  1 0.64684581E+03</rscale>
<asrwt>0</asrwt>
<pdfrwt beam="1">  1       21 0.46687300E-01 0.64684581E+03</pdfrwt>
<pdfrwt beam="2">0</pdfrwt>
<totfact> 0.40836724E+02</totfact>
</mgrwt>
</event>
<event>
 6    1  0.1439793E-004  0.6402388E+03  0.7818608E-02  0.9825270E-01
         21   -1    0    0  501  502  0.00000000000E+00  0.00000000000E+00  0.13634716076E+03  0.13634716076E+03  0.00000000000E+00 0.  1.
         13   -1    0    0    0    0 -0.00000000000E+00 -0.00000000000E+00 -0.10000000000E+04  0.10000000000E+04  0.00000000000E+00 0.  1.
    9000005    2    1    2  501    0 -0.42604150373E+02 -0.44615573723E+02 -0.86312064521E+03  0.10746548089E+04  0.63725979556E+03 0.  0.
         13    1    3    3    0    0 -0.24576437339E+03 -0.21287061582E+03 -0.67940537584E+03  0.75319698023E+03  0.00000000000E+00 0.  1.
          1    1    3    3  501    0  0.20316022302E+03  0.16825504210E+03 -0.18371526937E+03  0.32145782866E+03  0.00000000000E+00 0.  1.
         -1    1    1    2    0  502  0.42604150373E+02  0.44615573723E+02 -0.53219402984E+00  0.61692351861E+02  0.00000000000E+00 0. -1.
<mgrwt>
<rscale>  1 0.64023879E+03</rscale>
<asrwt>0</asrwt>
<pdfrwt beam="1">  1       21 0.20976486E-01 0.64023879E+03</pdfrwt>
<pdfrwt beam="2">0</pdfrwt>
<totfact> 0.20486201E+03</totfact>
</mgrwt>
</event>
<event>
 6    1  0.1439793E-004  0.6844274E+03  0.7818608E-02  0.9744240E-01
         21   -1    0    0  501  502  0.00000000000E+00  0.00000000000E+00  0.32822375352E+03  0.32822375352E+03  0.00000000000E+00 0. -1.
         13   -1    0    0    0    0 -0.00000000000E+00 -0.00000000000E+00 -0.10000000000E+04  0.10000000000E+04  0.00000000000E+00 0.  1.
    9000005    2    1    2  501    0  0.15024477578E+03  0.18538262501E+03 -0.80363835577E+03  0.10555924527E+04  0.64148313234E+03 0.  0.
         13    1    3    3    0    0  0.37940314042E+03  0.23982438100E+03 -0.52128426149E+03  0.68789516495E+03  0.00000000000E+00 0.  1.
          1    1    3    3  501    0 -0.22915836464E+03 -0.54441755996E+02 -0.28235409428E+03  0.36769728777E+03  0.00000000000E+00 0.  1.
         -3    1    1    2    0  502 -0.15024477578E+03 -0.18538262501E+03  0.13186210929E+03  0.27263130079E+03  0.00000000000E+00 0. -1.
<mgrwt>
<rscale>  1 0.68442737E+03</rscale>
<asrwt>0</asrwt>
<pdfrwt beam="1">  1       21 0.50495961E-01 0.68442737E+03</pdfrwt>
<pdfrwt beam="2">0</pdfrwt>
<totfact> 0.34420910E+02</totfact>
</mgrwt>
</event>
<event>
 6    1  0.1439793E-004  0.7253119E+03  0.7818608E-02  0.9674898E-01
         21   -1    0    0  501  502  0.00000000000E+00  0.00000000000E+00  0.48302004644E+03  0.48302004644E+03  0.00000000000E+00 0. -1.
         13   -1    0    0    0    0 -0.00000000000E+00 -0.00000000000E+00 -0.10000000000E+04  0.10000000000E+04  0.00000000000E+00 0.  1.
    9000005    2    1    2  501    0  0.24242252169E+03  0.20932784299E+03 -0.78252280766E+03  0.10669673668E+04  0.65076154804E+03 0.  0.
         13    1    3    3    0    0 -0.22266402971E+03  0.10542939015E+03 -0.30860957615E+03  0.39488542253E+03  0.00000000000E+00 0.  1.
          3    1    3    3  501    0  0.46508655141E+03  0.10389845284E+03 -0.47391323151E+03  0.67208194427E+03  0.00000000000E+00 0.  1.
         -1    1    1    2    0  502 -0.24242252169E+03 -0.20932784299E+03  0.26554285410E+03  0.41605267964E+03  0.00000000000E+00 0. -1.
<mgrwt>
<rscale>  1 0.72531194E+03</rscale>
<asrwt>0</asrwt>
<pdfrwt beam="1">  1       21 0.74310774E-01 0.72531194E+03</pdfrwt>
<pdfrwt beam="2">0</pdfrwt>
<totfact> 0.14525372E+02</totfact>
</mgrwt>
</event>
<event>
 6    1  0.1439793E-004  0.6198066E+03  0.7818608E-02  0.9865145E-01
         21   -1    0    0  501  502  0.00000000000E+00  0.00000000000E+00  0.11966708812E+03  0.11966708812E+03  0.00000000000E+00 0.  1.
         13   -1    0    0    0    0 -0.00000000000E+00 -0.00000000000E+00 -0.10000000000E+04  0.10000000000E+04  0.00000000000E+00 0.  1.
    9000005    2    1    2  501    0  0.78833878824E+01  0.61612821339E+02 -0.84582963469E+03  0.10486124352E+04  0.61668629048E+03 0.  0.
         13    1    3    3    0    0 -0.12152781354E+03 -0.25236917077E+03 -0.39147613661E+03  0.48136552988E+03  0.00000000000E+00 0.  1.
          3    1    3    3  501    0  0.12941120143E+03  0.31398199211E+03 -0.45435349808E+03  0.56724690536E+03  0.00000000000E+00 0.  1.
         -1    1    1    2    0  502 -0.78833878824E+01 -0.61612821339E+02 -0.34503277197E+02  0.71054652875E+02  0.00000000000E+00 0. -1.
<mgrwt>
<rscale>  1 0.61980664E+03</rscale>
<asrwt>0</asrwt>
<pdfrwt beam="1">  1       21 0.18410321E-01 0.61980664E+03</pdfrwt>
<pdfrwt beam="2">0</pdfrwt>
<totfact> 0.26316662E+03</totfact>
</mgrwt>
</event>
<event>
 6    1  0.1439793E-004  0.6487444E+03  0.7818608E-02  0.9809138E-01
         21   -1    0    0  501  502  0.00000000000E+00  0.00000000000E+00  0.20124063641E+03  0.20124063641E+03  0.00000000000E+00 0. -1.
         13   -1    0    0    0    0 -0.00000000000E+00 -0.00000000000E+00 -0.10000000000E+04  0.10000000000E+04  0.00000000000E+00 0.  1.
    9000005    2    1    2  501    0 -0.21244446537E+02  0.13241911338E+02 -0.89297590197E+03  0.11037550948E+04  0.64826126910E+03 0.  0.
         13    1    3    3    0    0 -0.87878424550E+02 -0.18871875533E+03 -0.24492550229E+02  0.20961219223E+03  0.00000000000E+00 0.  1.
          1    1    3    3  501    0  0.66633978012E+02  0.20196066667E+03 -0.86848335174E+03  0.89414290254E+03  0.00000000000E+00 0.  1.
         -3    1    1    2    0  502  0.21244446537E+02 -0.13241911338E+02  0.94216538382E+02  0.97485541642E+02  0.00000000000E+00 0. -1.
<mgrwt>
<rscale>  1 0.64874444E+03</rscale>
<asrwt>0</asrwt>
<pdfrwt beam="1">  1       21 0.30960097E-01 0.64874444E+03</pdfrwt>
<pdfrwt beam="2">0</pdfrwt>
<totfact> 0.95274182E+02</totfact>
</mgrwt>
</event>
<event>
 6    1  0.1439793E-004  0.6419841E+03  0.7818608E-02  0.9821938E-01
         21   -1    0    0  501  502  0.00000000000E+00  0.00000000000E+00  0.20538995411E+03  0.20538995411E+03  0.00000000000E+00 0. -1.
         13   -1    0    0    0    0 -0.00000000000E+00 -0.00000000000E+00 -0.10000000000E+04  0.10000000000E+04  0.00000000000E+00 0.  1.
    9000005    2    1    2  501    0  0.29229786841E+02  0.25092799970E+02 -0.89294975014E+03  0.10997740155E+04  0.64082727775E+03 0.  0.
         13    1    3    3    0    0  0.28887872357E+03  0.17129611335E+03 -0.55969352723E+03  0.65272514875E+03  0.00000000000E+00 0.  1.
          3    1    3    3  501    0 -0.25964893673E+03 -0.14620331338E+03 -0.33325622291E+03  0.44704886679E+03  0.00000000000E+00 0.  1.
         -1    1    1    2    0  502 -0.29229786841E+02 -0.25092799970E+02  0.98339704247E+02  0.10561593857E+03  0.00000000000E+00 0. -1.
<mgrwt>
<rscale>  1 0.64198413E+03</rscale>
<asrwt>0</asrwt>
<pdfrwt beam="1">  1       21 0.31598454E-01 0.64198413E+03</pdfrwt>
<pdfrwt beam="2">0</pdfrwt>
<totfact> 0.91483153E+02</totfact>
</mgrwt>
</event>
<event>
 6    1  0.1439793E-004  0.7121073E+03  0.7818608E-02  0.9696748E-01
         21   -1    0    0  501  502  0.00000000000E+00  0.00000000000E+00  0.17432141662E+03  0.17432141662E+03  0.00000000000E+00 0.  1.
         13   -1    0    0    0    0 -0.00000000000E+00 -0.00000000000E+00 -0.10000000000E+04  0.10000000000E+04  0.00000000000E+00 0.  1.
    9000005    2    1    2  501    0 -0.58807328238E+01 -0.12142761522E+03 -0.72799915422E+03  0.10183710411E+04  0.70165344721E+03 0.  0.
         13    1    3    3    0    0  0.13137556571E+03 -0.26364785353E+03 -0.76278155716E+03  0.81768296661E+03  0.00000000000E+00 0.  1.
          1    1    3    3  501    0 -0.13725629853E+03  0.14222023832E+03  0.34782402946E+02  0.20068807445E+03  0.00000000000E+00 0.  1.
         -3    1    1    2    0  502  0.58807328238E+01  0.12142761522E+03 -0.97679429159E+02  0.15595037556E+03  0.00000000000E+00 0. -1.
<mgrwt>
<rscale>  1 0.71210730E+03</rscale>
<asrwt>0</asrwt>
<pdfrwt beam="1">  1       21 0.26818679E-01 0.71210730E+03</pdfrwt>
<pdfrwt beam="2">0</pdfrwt>
<totfact> 0.12640351E+03</totfact>
</mgrwt>
</event>
<event>
 6    1  0.1439793E-004  0.6450490E+03  0.7818608E-02  0.9816114E-01
         21   -1    0    0  501  502  0.00000000000E+00  0.00000000000E+00  0.33237729060E+03  0.33237729060E+03  0.00000000000E+00 0. -1.
         13   -1    0    0    0    0 -0.00000000000E+00 -0.00000000000E+00 -0.10000000000E+04  0.10000000000E+04  0.00000000000E+00 0.  1.
    9000005    2    1    2  501    0 -0.83598767627E+01  0.20225987011E+02 -0.89539885913E+03  0.11035521336E+04  0.64467760669E+03 0.  0.
         13    1    3    3    0    0 -0.30709909084E+03 -0.11704576607E+02 -0.26733123542E+03  0.40732399652E+03  0.00000000000E+00 0.  1.
          3    1    3    3  501    0  0.29873921408E+03  0.31930563619E+02 -0.62806762371E+03  0.69622813709E+03  0.00000000000E+00 0.  1.
         -1    1    1    2    0  502  0.83598767627E+01 -0.20225987011E+02  0.22777614972E+03  0.22882515699E+03  0.00000000000E+00 0. -1.
<mgrwt>
<rscale>  1 0.64504899E+03</rscale>
<asrwt>0</asrwt>
<pdfrwt beam="1">  1       21 0.51134966E-01 0.64504899E+03</pdfrwt>
<pdfrwt beam="2">0</pdfrwt>
<totfact> 0.33627858E+02</totfact>
</mgrwt>
</event>
<event>
 6    1  0.1439793E-004  0.7143782E+03  0.7818608E-02  0.9692955E-01
         21   -1    0    0  501  502  0.00000000000E+00  0.00000000000E+00  0.69752726002E+03  0.69752726002E+03  0.00000000000E+00 0. -1.
         13   -1    0    0    0    0 -0.00000000000E+00 -0.00000000000E+00 -0.10000000000E+04  0.10000000000E+04  0.00000000000E+00 0.  1.
    9000005    2    1    2  501    0  0.23121060740E+03  0.12215505077E+03 -0.83823736092E+03  0.11013528472E+04  0.66479772825E+03 0.  0.
         13    1    3    3    0    0 -0.12954030555E+03  0.28906236233E+03 -0.38202540486E+03  0.49626721636E+03  0.00000000000E+00 0.  1.
          1    1    3    3  501    0  0.36075091295E+03 -0.16690731157E+03 -0.45621195606E+03  0.60508563088E+03  0.00000000000E+00 0.  1.
         -1    1    1    2    0  502 -0.23121060740E+03 -0.12215505077E+03  0.53576462093E+03  0.59617441277E+03  0.00000000000E+00 0. -1.
<mgrwt>
<rscale>  1 0.71437821E+03</rscale>
<asrwt>0</asrwt>
<pdfrwt beam="1">  1       21 0.10731188E+00 0.71437821E+03</pdfrwt>
<pdfrwt beam="2">0</pdfrwt>
<totfact> 0.60302731E+01</totfact>
</mgrwt>
</event>
<event>
 6    1  0.1439793E-004  0.6480735E+03  0.7818608E-02  0.9810401E-01
         21   -1    0    0  501  502  0.00000000000E+00  0.00000000000E+00  0.32959955613E+03  0.32959955613E+03  0.00000000000E+00 0. -1.
         13   -1    0    0    0    0 -0.00000000000E+00 -0.00000000000E+00 -0.10000000000E+04  0.10000000000E+04  0.00000000000E+00 0.  1.
    9000005    2    1    2  501    0 -0.79339265358E+01 -0.27015438453E+02 -0.89402462145E+03  0.11042097740E+04  0.64746152015E+03 0.  0.
         13    1    3    3    0    0 -0.10022323952E+03 -0.21446799955E+03 -0.59729456197E+02  0.24414919313E+03  0.00000000000E+00 0.  1.
          3    1    3    3  501    0  0.92289312984E+02  0.18745256109E+03 -0.83429516525E+03  0.86006058084E+03  0.00000000000E+00 0.  1.
         -3    1    1    2    0  502  0.79339265358E+01  0.27015438453E+02  0.22362417757E+03  0.22538978216E+03  0.00000000000E+00 0. -1.
<mgrwt>
<rscale>  1 0.64807345E+03</rscale>
<asrwt>0</asrwt>
<pdfrwt beam="1">  1       21 0.50707623E-01 0.64807345E+03</pdfrwt>
<pdfrwt beam="2">0</pdfrwt>
<totfact> 0.34229932E+02</totfact>
</mgrwt>
</event>
<event>
 6    1  0.1439793E-004  0.4700157E+03  0.7818608E-02  0.1021916E+00
         21   -1    0    0  501  502  0.00000000000E+00  0.00000000000E+00  0.11488174776E+03  0.11488174776E+03  0.00000000000E+00 0.  1.
         13   -1    0    0    0    0 -0.00000000000E+00 -0.00000000000E+00 -0.10000000000E+04  0.10000000000E+04  0.00000000000E+00 0.  1.
    9000005    2    1    2  501    0  0.60417205200E+02  0.11832201441E+02 -0.92773658457E+03  0.10400047691E+04  0.46596621104E+03 0.  0.
         13    1    3    3    0    0 -0.68231480172E+02 -0.11690520314E+03 -0.51115093048E+02  0.14468971679E+03  0.00000000000E+00 0.  1.
          1    1    3    3  501    0  0.12864868537E+03  0.12873740458E+03 -0.87662149152E+03  0.89531505236E+03  0.00000000000E+00 0.  1.
         -1    1    1    2    0  502 -0.60417205200E+02 -0.11832201441E+02  0.42618332326E+02  0.74876978607E+02  0.00000000000E+00 0. -1.
<mgrwt>
<rscale>  1 0.47001569E+03</rscale>
<asrwt>0</asrwt>
<pdfrwt beam="1">  1       21 0.17674115E-01 0.47001569E+03</pdfrwt>
<pdfrwt beam="2">0</pdfrwt>
<totfact> 0.28593544E+03</totfact>
</mgrwt>
</event>
<event>
 6    1  0.1439793E-004  0.6628538E+03  0.7818608E-02  0.9782954E-01
         21   -1    0    0  501  502  0.00000000000E+00  0.00000000000E+00  0.15656360486E+03  0.15656360486E+03  0.00000000000E+00 0.  1.
         13   -1    0    0    0    0 -0.00000000000E+00 -0.00000000000E+00 -0.10000000000E+04  0.10000000000E+04  0.00000000000E+00 0.  1.
    9000005    2    1    2  501    0 -0.23194717659E+02 -0.71380520981E+01 -0.88663104756E+03  0.11070184264E+04  0.66240941653E+03 0.  0.
         13    1    3    3    0    0  0.20212311225E+03 -0.16755274779E+03 -0.75762334821E+03  0.80182343040E+03  0.00000000000E+00 0.  1.
          1    1    3    3  501    0 -0.22531782991E+03  0.16041469569E+03 -0.12900769935E+03  0.30519499596E+03  0.00000000000E+00 0.  1.
         -1    1    1    2    0  502  0.23194717659E+02  0.71380520981E+01  0.43194652417E+02  0.49545178498E+02  0.00000000000E+00 0. -1.
<mgrwt>
<rscale>  1 0.66285382E+03</rscale>
<asrwt>0</asrwt>
<pdfrwt beam="1">  1       21 0.24086708E-01 0.66285382E+03</pdfrwt>
<pdfrwt beam="2">0</pdfrwt>
<totfact> 0.15651588E+03</totfact>
</mgrwt>
</event>
<event>
 6    1  0.1439793E-004  0.6429064E+03  0.7818608E-02  0.9820182E-01
         21   -1    0    0  501  502  0.00000000000E+00  0.00000000000E+00  0.11541261514E+03  0.11541261514E+03  0.00000000000E+00 0.  1.
         13   -1    0    0    0    0 -0.00000000000E+00 -0.00000000000E+00 -0.10000000000E+04  0.10000000000E+04  0.00000000000E+00 0.  1.
    9000005    2    1    2  501    0 -0.32382832797E+02 -0.33539068577E+01 -0.86378073242E+03  0.10767756725E+04  0.64208161368E+03 0.  0.
         13    1    3    3    0    0 -0.55941402420E+02  0.50307502152E+02  0.92199857704E+02  0.11900041613E+03  0.00000000000E+00 0.  1.
          1    1    3    3  501    0  0.23558569623E+02 -0.53661409010E+02 -0.95598059012E+03  0.95777525637E+03  0.00000000000E+00 0.  1.
         -3    1    1    2    0  502  0.32382832797E+02  0.33539068577E+01 -0.20806652441E+02  0.38636942645E+02  0.00000000000E+00 0. -1.
<mgrwt>
<rscale>  1 0.64290644E+03</rscale>
<asrwt>0</asrwt>
<pdfrwt beam="1">  1       21 0.17755786E-01 0.64290644E+03</pdfrwt>
<pdfrwt beam="2">0</pdfrwt>
<totfact> 0.28165153E+03</totfact>
</mgrwt>
</event>
<event>
 6    1  0.1439793E-004  0.6596341E+03  0.7818608E-02  0.9788868E-01
         21   -1    0    0  501  502  0.00000000000E+00  0.00000000000E+00  0.14052992599E+03  0.14052992599E+03  0.00000000000E+00 0.  1.
         13   -1    0    0    0    0 -0.00000000000E+00 -0.00000000000E+00 -0.10000000000E+04  0.10000000000E+04  0.00000000000E+00 0.  1.
    9000005    2    1    2  501    0  0.57103295066E+02  0.48367346443E+02 -0.82977145978E+03  0.10600178511E+04  0.65537545177E+03 0.  0.
         13    1    3    3    0    0 -0.29748504643E+03 -0.20241453922E+02 -0.35947051353E+03  0.46703974072E+03  0.00000000000E+00 0.  1.
          3    1    3    3  501    0  0.35458834150E+03  0.68608800365E+02 -0.47030094624E+03  0.59297811043E+03  0.00000000000E+00 0.  1.
         -1    1    1    2    0  502 -0.57103295066E+02 -0.48367346443E+02 -0.29698614228E+02  0.80512074849E+02  0.00000000000E+00 0. -1.
<mgrwt>
<rscale>  1 0.65963412E+03</rscale>
<asrwt>0</asrwt>
<pdfrwt beam="1">  1       21 0.21619988E-01 0.65963412E+03</pdfrwt>
<pdfrwt beam="2">0</pdfrwt>
<totfact> 0.19310162E+03</totfact>
</mgrwt>
</event>
<event>
 6    1  0.1439793E-004  0.6384086E+03  0.7818608E-02  0.9828776E-01
         21   -1    0    0  501  502  0.00000000000E+00  0.00000000000E+00  0.44245995058E+03  0.44245995058E+03  0.00000000000E+00 0. -1.
         13   -1    0    0    0    0 -0.00000000000E+00 -0.00000000000E+00 -0.10000000000E+04  0.10000000000E+04  0.00000000000E+00 0.  1.
    9000005    2    1    2  501    0 -0.49516222769E+02 -0.50678223513E+02 -0.89404211301E+03  0.10985794809E+04  0.63446468559E+03 0.  0.
         13    1    3    3    0    0 -0.24414279284E+02  0.17524836911E+02  0.98703463807E+02  0.10317727807E+03  0.00000000000E+00 0.  1.
          1    1    3    3  501    0 -0.25101943485E+02 -0.68203060424E+02 -0.99274557682E+03  0.99540220279E+03  0.00000000000E+00 0.  1.
         -1    1    1    2    0  502  0.49516222769E+02  0.50678223513E+02  0.33650206360E+03  0.34388046973E+03  0.00000000000E+00 0. -1.
<mgrwt>
<rscale>  1 0.63840863E+03</rscale>
<asrwt>0</asrwt>
<pdfrwt beam="1">  1       21 0.68070760E-01 0.63840863E+03</pdfrwt>
<pdfrwt beam="2">0</pdfrwt>
<totfact> 0.17919812E+02</totfact>
</mgrwt>
</event>
<event>
 6    1  0.1439793E-004  0.7674357E+03  0.7818608E-02  0.9608387E-01
         21   -1    0    0  501  502  0.00000000000E+00  0.00000000000E+00  0.27731760507E+03  0.27731760507E+03  0.00000000000E+00 0. -1.
         13   -1    0    0    0    0 -0.00000000000E+00 -0.00000000000E+00 -0.10000000000E+04  0.10000000000E+04  0.00000000000E+00 0.  1.
    9000005    2    1    2  501    0  0.22392229120E+03  0.16600441985E+03 -0.59317900251E+03  0.96995822494E+03  0.71502375430E+03 0.  0.
         13    1    3    3    0    0  0.96801555722E+02 -0.92376222261E+02 -0.66076300705E+03  0.67417479864E+03  0.00000000000E+00 0.  1.
          3    1    3    3  501    0  0.12712073548E+03  0.25838064211E+03  0.67584004542E+02  0.29578342631E+03  0.00000000000E+00 0.  1.
         -3    1    1    2    0  502 -0.22392229120E+03 -0.16600441985E+03 -0.12950339241E+03  0.30735938013E+03  0.00000000000E+00 0. -1.
<mgrwt>
<rscale>  1 0.76743575E+03</rscale>
<asrwt>0</asrwt>
<pdfrwt beam="1">  1       21 0.42664246E-01 0.76743575E+03</pdfrwt>
<pdfrwt beam="2">0</pdfrwt>
<totfact> 0.48917857E+02</totfact>
</mgrwt>
</event>
<event>
 6    1  0.1439793E-004  0.6575589E+03  0.7818608E-02  0.9792698E-01
         21   -1    0    0  501  502  0.00000000000E+00  0.00000000000E+00  0.15306332974E+03  0.15306332974E+03  0.00000000000E+00 0.  1.
         13   -1    0    0    0    0 -0.00000000000E+00 -0.00000000000E+00 -0.10000000000E+04  0.10000000000E+04  0.00000000000E+00 0.  1.
    9000005    2    1    2  501    0 -0.47123212671E+02  0.71424829498E+02 -0.84063362961E+03  0.10672622122E+04  0.65196750458E+03 0.  0.
         13    1    3    3    0    0  0.24560125058E+03 -0.25707120262E+02 -0.10265887481E+03  0.26743162658E+03  0.00000000000E+00 0.  1.
          3    1    3    3  501    0 -0.29272446325E+03  0.97131949760E+02 -0.73797475479E+03  0.79983058566E+03  0.00000000000E+00 0.  1.
         -1    1    1    2    0  502  0.47123212671E+02 -0.71424829498E+02 -0.63030406547E+01  0.85801117492E+02  0.00000000000E+00 0. -1.
<mgrwt>
<rscale>  1 0.65755892E+03</rscale>
<asrwt>0</asrwt>
<pdfrwt beam="1">  1       21 0.23548204E-01 0.65755892E+03</pdfrwt>
<pdfrwt beam="2">0</pdfrwt>
<totfact> 0.16361721E+03</totfact>
</mgrwt>
</event>
<event>
 6    1  0.1439793E-004  0.6612595E+03  0.7818608E-02  0.9785878E-01
         21   -1    0    0  501  502  0.00000000000E+00  0.00000000000E+00  0.13298842983E+03  0.13298842983E+03  0.00000000000E+00 0.  1.
         13   -1    0    0    0    0 -0.00000000000E+00 -0.00000000000E+00 -0.10000000000E+04  0.10000000000E+04  0.00000000000E+00 0.  1.
    9000005    2    1    2  501    0 -0.10088157338E+02 -0.20555337968E+02 -0.88437152662E+03  0.11042541137E+04  0.66086296432E+03 0.  0.
         13    1    3    3    0    0  0.33350429309E+02 -0.24901527547E+03 -0.82756845176E+03  0.86486438296E+03  0.00000000000E+00 0.  1.
          3    1    3    3  501    0 -0.43438586647E+02  0.22845993750E+03 -0.56803074860E+02  0.23938973071E+03  0.00000000000E+00 0.  1.
         -3    1    1    2    0  502  0.10088157338E+02  0.20555337968E+02  0.17359956458E+02  0.28734316169E+02  0.00000000000E+00 0. -1.
<mgrwt>
<rscale>  1 0.66125952E+03</rscale>
<asrwt>0</asrwt>
<pdfrwt beam="1">  1       21 0.20459758E-01 0.66125952E+03</pdfrwt>
<pdfrwt beam="2">0</pdfrwt>
<totfact> 0.21474712E+03</totfact>
</mgrwt>
</event>
<event>
 6    1  0.1439793E-004  0.6413157E+03  0.7818608E-02  0.9823213E-01
         21   -1    0    0  501  502  0.00000000000E+00  0.00000000000E+00  0.28034880620E+03  0.28034880620E+03  0.00000000000E+00 0.  1.
         13   -1    0    0    0    0 -0.00000000000E+00 -0.00000000000E+00 -0.10000000000E+04  0.10000000000E+04  0.00000000000E+00 0.  1.
    9000005    2    1    2  501    0 -0.12863068250E+02  0.35942195486E+02 -0.89491218670E+03  0.11009784754E+04  0.64017847623E+03 0.  0.
         13    1    3    3    0    0  0.25789945304E+03  0.19068508721E+03 -0.36312496357E+03  0.48449217695E+03  0.00000000000E+00 0.  1.
          1    1    3    3  501    0 -0.27076252129E+03 -0.15474289172E+03 -0.53178722313E+03  0.61648629844E+03  0.00000000000E+00 0.  1.
         -1    1    1    2    0  502  0.12863068250E+02 -0.35942195486E+02  0.17526099290E+03  0.17937033081E+03  0.00000000000E+00 0. -1.
<mgrwt>
<rscale>  1 0.64131566E+03</rscale>
<asrwt>0</asrwt>
<pdfrwt beam="1">  1       21 0.43130584E-01 0.64131566E+03</pdfrwt>
<pdfrwt beam="2">0</pdfrwt>
<totfact> 0.48291733E+02</totfact>
</mgrwt>
</event>
<event>
 6    1  0.1439793E-004  0.6418280E+03  0.7818608E-02  0.9822235E-01
         21   -1    0    0  501  502  0.00000000000E+00  0.00000000000E+00  0.13639204465E+03  0.13639204465E+03  0.00000000000E+00 0.  1.
         13   -1    0    0    0    0 -0.00000000000E+00 -0.00000000000E+00 -0.10000000000E+04  0.10000000000E+04  0.00000000000E+00 0.  1.
    9000005    2    1    2  501    0  0.18483249002E+02 -0.18476962676E+02 -0.89128119446E+03  0.10983284557E+04  0.64129571985E+03 0.  0.
         13    1    3    3    0    0  0.15584741373E+03 -0.27932768095E+03 -0.62023300884E+03  0.69785482370E+03  0.00000000000E+00 0.  1.
          1    1    3    3  501    0 -0.13736416473E+03  0.26085071827E+03 -0.27104818562E+03  0.40047363197E+03  0.00000000000E+00 0.  1.
         -1    1    1    2    0  502 -0.18483249002E+02  0.18476962676E+02  0.27673239104E+02  0.38063588978E+02  0.00000000000E+00 0. -1.
<mgrwt>
<rscale>  1 0.64182804E+03</rscale>
<asrwt>0</asrwt>
<pdfrwt beam="1">  1       21 0.20983391E-01 0.64182804E+03</pdfrwt>
<pdfrwt beam="2">0</pdfrwt>
<totfact> 0.20471837E+03</totfact>
</mgrwt>
</event>
<event>
 6    1  0.1439793E-004  0.6710026E+03  0.7818608E-02  0.9768148E-01
         21   -1    0    0  501  502  0.00000000000E+00  0.00000000000E+00  0.19673189122E+03  0.19673189122E+03  0.00000000000E+00 0. -1.
         13   -1    0    0    0    0 -0.00000000000E+00 -0.00000000000E+00 -0.10000000000E+04  0.10000000000E+04  0.00000000000E+00 0.  1.
    9000005    2    1    2  501    0  0.45701079336E+02 -0.90333234891E+02 -0.85189650050E+03  0.10844224862E+04  0.66332179143E+03 0.  0.
         13    1    3    3    0    0  0.15612223279E+02 -0.30028005119E+03 -0.12226973819E+03  0.32459473122E+03  0.00000000000E+00 0.  1.
          1    1    3    3  501    0  0.30088856057E+02  0.20994681630E+03 -0.72962676232E+03  0.75982775497E+03  0.00000000000E+00 0.  1.
         -1    1    1    2    0  502 -0.45701079336E+02  0.90333234891E+02  0.48628391726E+02  0.11230940504E+03  0.00000000000E+00 0. -1.
<mgrwt>
<rscale>  1 0.67100259E+03</rscale>
<asrwt>0</asrwt>
<pdfrwt beam="1">  1       21 0.30266444E-01 0.67100259E+03</pdfrwt>
<pdfrwt beam="2">0</pdfrwt>
<totfact> 0.99567183E+02</totfact>
</mgrwt>
</event>
<event>
 6    1  0.1439793E-004  0.6993039E+03  0.7818608E-02  0.9718423E-01
         21   -1    0    0  501  502  0.00000000000E+00  0.00000000000E+00  0.22312887904E+03  0.22312887904E+03  0.00000000000E+00 0.  1.
         13   -1    0    0    0    0 -0.00000000000E+00 -0.00000000000E+00 -0.10000000000E+04  0.10000000000E+04  0.00000000000E+00 0.  1.
    9000005    2    1    2  501    0 -0.76062228124E+02  0.23328266438E+03 -0.58094572073E+03  0.90913361394E+03  0.65484328927E+03 0.  0.
         13    1    3    3    0    0 -0.17959072434E+02  0.30464248548E+03  0.15563511677E+02  0.30556798775E+03  0.00000000000E+00 0.  1.
          3    1    3    3  501    0 -0.58103155690E+02 -0.71359821091E+02 -0.59650923241E+03  0.60356562619E+03  0.00000000000E+00 0.  1.
         -3    1    1    2    0  502  0.76062228124E+02 -0.23328266438E+03 -0.19592540023E+03  0.31399526510E+03  0.00000000000E+00 0. -1.
<mgrwt>
<rscale>  1 0.69930394E+03</rscale>
<asrwt>0</asrwt>
<pdfrwt beam="1">  1       21 0.34327519E-01 0.69930394E+03</pdfrwt>
<pdfrwt beam="2">0</pdfrwt>
<totfact> 0.77058263E+02</totfact>
</mgrwt>
</event>
<event>
 6    1  0.1439793E-004  0.6458779E+03  0.7818608E-02  0.9814545E-01
         21   -1    0    0  501  502  0.00000000000E+00  0.00000000000E+00  0.12806376946E+03  0.12806376946E+03  0.00000000000E+00 0.  1.
         13   -1    0    0    0    0 -0.00000000000E+00 -0.00000000000E+00 -0.10000000000E+04  0.10000000000E+04  0.00000000000E+00 0.  1.
    9000005    2    1    2  501    0  0.24234220851E+02  0.92773409535E+01 -0.88762418796E+03  0.10977408652E+04  0.64535644535E+03 0.  0.
         13    1    3    3    0    0  0.30894876328E+03  0.32472882145E+02 -0.67038224007E+03  0.73886140392E+03  0.00000000000E+00 0.  1.
          1    1    3    3  501    0 -0.28471454243E+03 -0.23195541191E+02 -0.21724194789E+03  0.35887946127E+03  0.00000000000E+00 0.  1.
         -1    1    1    2    0  502 -0.24234220851E+02 -0.92773409535E+01  0.15687957421E+02  0.30322904272E+02  0.00000000000E+00 0. -1.
<mgrwt>
<rscale>  1 0.64587794E+03</rscale>
<asrwt>0</asrwt>
<pdfrwt beam="1">  1       21 0.19702118E-01 0.64587794E+03</pdfrwt>
<pdfrwt beam="2">0</pdfrwt>
<totfact> 0.23100907E+03</totfact>
</mgrwt>
</event>
<event>
 6    1  0.1439793E-004  0.6467493E+03  0.7818608E-02  0.9812898E-01
         21   -1    0    0  501  502  0.00000000000E+00  0.00000000000E+00  0.19277828369E+03  0.19277828369E+03  0.00000000000E+00 0. -1.
         13   -1    0    0    0    0 -0.00000000000E+00 -0.00000000000E+00 -0.10000000000E+04  0.10000000000E+04  0.00000000000E+00 0.  1.
    9000005    2    1    2  501    0 -0.19525205411E+02  0.17240891812E+02 -0.89329949898E+03  0.11028457164E+04  0.64622457183E+03 0.  0.
         13    1    3    3    0    0  0.11102892355E+03 -0.16859884655E+03 -0.22741972197E+02  0.20315065893E+03  0.00000000000E+00 0.  1.
          3    1    3    3  501    0 -0.13055412896E+03  0.18583973837E+03 -0.87055752678E+03  0.89969505744E+03  0.00000000000E+00 0.  1.
         -1    1    1    2    0  502  0.19525205411E+02 -0.17240891812E+02  0.86077782663E+02  0.89932567321E+02  0.00000000000E+00 0. -1.
<mgrwt>
<rscale>  1 0.64674932E+03</rscale>
<asrwt>0</asrwt>
<pdfrwt beam="1">  1       21 0.29658197E-01 0.64674932E+03</pdfrwt>
<pdfrwt beam="2">0</pdfrwt>
<totfact> 0.10385376E+03</totfact>
</mgrwt>
</event>
<event>
 6    1  0.1439793E-004  0.6525023E+03  0.7818608E-02  0.9802095E-01
         21   -1    0    0  501  502  0.00000000000E+00  0.00000000000E+00  0.21727998483E+03  0.21727998483E+03  0.00000000000E+00 0.  1.
         13   -1    0    0    0    0 -0.00000000000E+00 -0.00000000000E+00 -0.10000000000E+04  0.10000000000E+04  0.00000000000E+00 0.  1.
    9000005    2    1    2  501    0  0.55176816729E+02 -0.27903101163E+02 -0.88393027207E+03  0.10986773699E+04  0.64956614225E+03 0.  0.
         13    1    3    3    0    0 -0.19110049901E+03  0.63261727228E+02 -0.27841374872E+02  0.20321562196E+03  0.00000000000E+00 0.  1.
          1    1    3    3  501    0  0.24627731573E+03 -0.91164828391E+02 -0.85608889720E+03  0.89546174798E+03  0.00000000000E+00 0.  1.
         -1    1    1    2    0  502 -0.55176816729E+02  0.27903101163E+02  0.10121025690E+03  0.11860261489E+03  0.00000000000E+00 0. -1.
<mgrwt>
<rscale>  1 0.65250229E+03</rscale>
<asrwt>0</asrwt>
<pdfrwt beam="1">  1       21 0.33427689E-01 0.65250229E+03</pdfrwt>
<pdfrwt beam="2">0</pdfrwt>
<totfact> 0.81591456E+02</totfact>
</mgrwt>
</event>
<event>
 6    1  0.1439793E-004  0.6753263E+03  0.7818608E-02  0.9760383E-01
         21   -1    0    0  501  502  0.00000000000E+00  0.00000000000E+00  0.26123123270E+03  0.26123123270E+03  0.00000000000E+00 0. -1.
         13   -1    0    0    0    0 -0.00000000000E+00 -0.00000000000E+00 -0.10000000000E+04  0.10000000000E+04  0.00000000000E+00 0.  1.
    9000005    2    1    2  501    0 -0.39514586787E+02  0.62985534586E+01 -0.88294738253E+03  0.11116032025E+04  0.67413984086E+03 0.  0.
         13    1    3    3    0    0  0.24670537003E+03 -0.17113663421E+03 -0.23467816457E+03  0.38108414831E+03  0.00000000000E+00 0.  1.
          3    1    3    3  501    0 -0.28621995681E+03  0.17743518767E+03 -0.64826921797E+03  0.73051905414E+03  0.00000000000E+00 0.  1.
         -3    1    1    2    0  502  0.39514586787E+02 -0.62985534586E+01  0.14417861523E+03  0.14962803024E+03  0.00000000000E+00 0. -1.
<mgrwt>
<rscale>  1 0.67532629E+03</rscale>
<asrwt>0</asrwt>
<pdfrwt beam="1">  1       21 0.40189419E-01 0.67532629E+03</pdfrwt>
<pdfrwt beam="2">0</pdfrwt>
<totfact> 0.55811402E+02</totfact>
</mgrwt>
</event>
<event>
 6    1  0.1439793E-004  0.6963556E+03  0.7818608E-02  0.9723485E-01
         21   -1    0    0  501  502  0.00000000000E+00  0.00000000000E+00  0.28868618967E+03  0.28868618967E+03  0.00000000000E+00 0.  1.
         13   -1    0    0    0    0 -0.00000000000E+00 -0.00000000000E+00 -0.10000000000E+04  0.10000000000E+04  0.00000000000E+00 0.  1.
    9000005    2    1    2  501    0 -0.23695585109E+03  0.86052205567E+02 -0.76123598118E+03  0.10316934260E+04  0.64912098157E+03 0.  0.
         13    1    3    3    0    0  0.12253367470E+03 -0.19582985264E+03 -0.33481206307E+03  0.40677137337E+03  0.00000000000E+00 0.  1.
          1    1    3    3  501    0 -0.35948952579E+03  0.28188205821E+03 -0.42642391811E+03  0.62492205260E+03  0.00000000000E+00 0.  1.
         -1    1    1    2    0  502  0.23695585109E+03 -0.86052205567E+02  0.49922170851E+02  0.25699276369E+03  0.00000000000E+00 0. -1.
<mgrwt>
<rscale>  1 0.69635559E+03</rscale>
<asrwt>0</asrwt>
<pdfrwt beam="1">  1       21 0.44413259E-01 0.69635559E+03</pdfrwt>
<pdfrwt beam="2">0</pdfrwt>
<totfact> 0.45193593E+02</totfact>
</mgrwt>
</event>
<event>
 6    1  0.1439793E-004  0.6104694E+03  0.7818608E-02  0.9883920E-01
         21   -1    0    0  501  502  0.00000000000E+00  0.00000000000E+00  0.10594409445E+03  0.10594409445E+03  0.00000000000E+00 0.  1.
         13   -1    0    0    0    0 -0.00000000000E+00 -0.00000000000E+00 -0.10000000000E+04  0.10000000000E+04  0.00000000000E+00 0.  1.
    9000005    2    1    2  501    0 -0.32413945789E+02 -0.82861065840E+01 -0.87655719630E+03  0.10681879258E+04  0.60955196912E+03 0.  0.
         13    1    3    3    0    0 -0.17527403333E+03 -0.21056273346E+03 -0.73166574194E+03  0.78127614158E+03  0.00000000000E+00 0.  1.
          3    1    3    3  501    0  0.14286008754E+03  0.20227662687E+03 -0.14489145436E+03  0.28691178424E+03  0.00000000000E+00 0.  1.
         -3    1    1    2    0  502  0.32413945789E+02  0.82861065840E+01 -0.17498709249E+02  0.37756168626E+02  0.00000000000E+00 0. -1.
<mgrwt>
<rscale>  1 0.61046943E+03</rscale>
<asrwt>0</asrwt>
<pdfrwt beam="1">  1       21 0.16299091E-01 0.61046943E+03</pdfrwt>
<pdfrwt beam="2">0</pdfrwt>
<totfact> 0.33136171E+03</totfact>
</mgrwt>
</event>
<event>
 6    1  0.1439793E-004  0.6703231E+03  0.7818608E-02  0.9769374E-01
         21   -1    0    0  501  502  0.00000000000E+00  0.00000000000E+00  0.17440606864E+03  0.17440606864E+03  0.00000000000E+00 0.  1.
         13   -1    0    0    0    0 -0.00000000000E+00 -0.00000000000E+00 -0.10000000000E+04  0.10000000000E+04  0.00000000000E+00 0.  1.
    9000005    2    1    2  501    0  0.16186138727E+03  0.24730931886E+02 -0.68757833194E+03  0.96025884507E+03  0.65001719923E+03 0.  0.
         13    1    3    3    0    0  0.21933073014E+03  0.29717580389E+03 -0.51114735026E+03  0.63062749804E+03  0.00000000000E+00 0.  1.
          1    1    3    3  501    0 -0.57469342875E+02 -0.27244487200E+03 -0.17643098168E+03  0.32963134703E+03  0.00000000000E+00 0.  1.
         -3    1    1    2    0  502 -0.16186138727E+03 -0.24730931886E+02 -0.13801559942E+03  0.21414722357E+03  0.00000000000E+00 0. -1.
<mgrwt>
<rscale>  1 0.67032312E+03</rscale>
<asrwt>0</asrwt>
<pdfrwt beam="1">  1       21 0.26831702E-01 0.67032312E+03</pdfrwt>
<pdfrwt beam="2">0</pdfrwt>
<totfact> 0.12656226E+03</totfact>
</mgrwt>
</event>
<event>
 6    1  0.1439793E-004  0.6520510E+03  0.7818608E-02  0.9802938E-01
         21   -1    0    0  501  502  0.00000000000E+00  0.00000000000E+00  0.30025608642E+03  0.30025608642E+03  0.00000000000E+00 0. -1.
         13   -1    0    0    0    0 -0.00000000000E+00 -0.00000000000E+00 -0.10000000000E+04  0.10000000000E+04  0.00000000000E+00 0.  1.
    9000005    2    1    2  501    0 -0.90372687587E+02  0.57444859851E+01 -0.88193324235E+03  0.10968029633E+04  0.64573235525E+03 0.  0.
         13    1    3    3    0    0 -0.23383099386E+03  0.22605564044E+03 -0.24328657624E+03  0.40616061409E+03  0.00000000000E+00 0.  1.
          1    1    3    3  501    0  0.14345830627E+03 -0.22031115446E+03 -0.63864666611E+03  0.69064234923E+03  0.00000000000E+00 0.  1.
         -1    1    1    2    0  502  0.90372687587E+02 -0.57444859851E+01  0.18218932877E+03  0.20345312310E+03  0.00000000000E+00 0. -1.
<mgrwt>
<rscale>  1 0.65205099E+03</rscale>
<asrwt>0</asrwt>
<pdfrwt beam="1">  1       21 0.46193243E-01 0.65205099E+03</pdfrwt>
<pdfrwt beam="2">0</pdfrwt>
<totfact> 0.41748778E+02</totfact>
</mgrwt>
</event>
<event>
 6    1  0.1439793E-004  0.8966348E+03  0.7818608E-02  0.9429798E-01
         21   -1    0    0  501  502  0.00000000000E+00  0.00000000000E+00  0.66496749424E+03  0.66496749424E+03  0.00000000000E+00 0. -1.
         13   -1    0    0    0    0 -0.00000000000E+00 -0.00000000000E+00 -0.10000000000E+04  0.10000000000E+04  0.00000000000E+00 0.  1.
    9000005    2    1    2  501    0 -0.60260363800E+03  0.15913559568E+03 -0.49130071098E+03  0.10224139678E+04  0.64459184811E+03 0.  0.
         13    1    3    3    0    0  0.44577614317E+02  0.22354703960E+03 -0.22293596421E+03  0.31884304406E+03  0.00000000000E+00 0.  1.
          3    1    3    3  501    0 -0.64718125231E+03 -0.64411443916E+02 -0.26836474678E+03  0.70357092377E+03  0.00000000000E+00 0.  1.
         -1    1    1    2    0  502  0.60260363800E+03 -0.15913559568E+03  0.15626820522E+03  0.64255352641E+03  0.00000000000E+00 0. -1.
<mgrwt>
<rscale>  1 0.89663478E+03</rscale>
<asrwt>0</asrwt>
<pdfrwt beam="1">  1       21 0.10230269E+00 0.89663478E+03</pdfrwt>
<pdfrwt beam="2">0</pdfrwt>
<totfact> 0.66440927E+01</totfact>
</mgrwt>
</event>
<event>
 6    1  0.1439793E-004  0.7251633E+03  0.7818608E-02  0.9675142E-01
         21   -1    0    0  501  502  0.00000000000E+00  0.00000000000E+00  0.17975740346E+03  0.17975740346E+03  0.00000000000E+00 0.  1.
         13   -1    0    0    0    0 -0.00000000000E+00 -0.00000000000E+00 -0.10000000000E+04  0.10000000000E+04  0.00000000000E+00 0.  1.
    9000005    2    1    2  501    0 -0.35821491602E+02 -0.11431640513E+03 -0.73656553851E+03  0.10336298230E+04  0.71519955164E+03 0.  0.
         13    1    3    3    0    0  0.20468362189E+03  0.22662642174E+03 -0.35447606582E+03  0.46787626713E+03  0.00000000000E+00 0.  1.
          3    1    3    3  501    0 -0.24050511349E+03 -0.34094282687E+03 -0.38208947269E+03  0.56575355584E+03  0.00000000000E+00 0.  1.
         -1    1    1    2    0  502  0.35821491602E+02  0.11431640513E+03 -0.83677058023E+02  0.14612758049E+03  0.00000000000E+00 0. -1.
<mgrwt>
<rscale>  1 0.72516330E+03</rscale>
<asrwt>0</asrwt>
<pdfrwt beam="1">  1       21 0.27654984E-01 0.72516330E+03</pdfrwt>
<pdfrwt beam="2">0</pdfrwt>
<totfact> 0.11885507E+03</totfact>
</mgrwt>
</event>
<event>
 6    1  0.1439793E-004  0.6247153E+03  0.7818608E-02  0.9855416E-01
         21   -1    0    0  501  502  0.00000000000E+00  0.00000000000E+00  0.88050287643E+03  0.88050287643E+03  0.00000000000E+00 0. -1.
         13   -1    0    0    0    0 -0.00000000000E+00 -0.00000000000E+00 -0.10000000000E+04  0.10000000000E+04  0.00000000000E+00 0.  1.
    9000005    2    1    2  501    0 -0.27620492332E+02  0.31852566287E+02 -0.90180968914E+03  0.10970550940E+04  0.62329101246E+03 0.  0.
         13    1    3    3    0    0 -0.99607388999E+02  0.28004646182E+03 -0.22561537823E+03  0.37316209831E+03  0.00000000000E+00 0.  1.
          3    1    3    3  501    0  0.71986896667E+02 -0.24819389553E+03 -0.67619431091E+03  0.72389299567E+03  0.00000000000E+00 0.  1.
         -1    1    1    2    0  502  0.27620492332E+02 -0.31852566287E+02  0.78231256557E+03  0.78344778245E+03  0.00000000000E+00 0. -1.
<mgrwt>
<rscale>  1 0.62471527E+03</rscale>
<asrwt>0</asrwt>
<pdfrwt beam="1">  1       21 0.13546198E+00 0.62471527E+03</pdfrwt>
<pdfrwt beam="2">0</pdfrwt>
<totfact> 0.33622490E+01</totfact>
</mgrwt>
</event>
<event>
 6    1  0.1439793E-004  0.5606352E+03  0.7818608E-02  0.9990618E-01
         21   -1    0    0  501  502  0.00000000000E+00  0.00000000000E+00  0.13703051293E+03  0.13703051293E+03  0.00000000000E+00 0. -1.
         13   -1    0    0    0    0 -0.00000000000E+00 -0.00000000000E+00 -0.10000000000E+04  0.10000000000E+04  0.00000000000E+00 0.  1.
    9000005    2    1    2  501    0 -0.99894406639E+02 -0.21299189638E+02 -0.86962018704E+03  0.10346743711E+04  0.55125242546E+03 0.  0.
         13    1    3    3    0    0  0.18261342658E+03  0.11998837701E+03 -0.51693726142E+03  0.56122099607E+03  0.00000000000E+00 0.  1.
          1    1    3    3  501    0 -0.28250783322E+03 -0.14128756665E+03 -0.35268292562E+03  0.47345337505E+03  0.00000000000E+00 0.  1.
         -1    1    1    2    0  502  0.99894406639E+02  0.21299189638E+02  0.66506999778E+01  0.10235614182E+03  0.00000000000E+00 0. -1.
<mgrwt>
<rscale>  1 0.56063516E+03</rscale>
<asrwt>0</asrwt>
<pdfrwt beam="1">  1       21 0.21081617E-01 0.56063516E+03</pdfrwt>
<pdfrwt beam="2">0</pdfrwt>
<totfact> 0.20363292E+03</totfact>
</mgrwt>
</event>
<event>
 6    1  0.1439793E-004  0.6504218E+03  0.7818608E-02  0.9805988E-01
         21   -1    0    0  501  502  0.00000000000E+00  0.00000000000E+00  0.13097318735E+03  0.13097318735E+03  0.00000000000E+00 0.  1.
         13   -1    0    0    0    0 -0.00000000000E+00 -0.00000000000E+00 -0.10000000000E+04  0.10000000000E+04  0.00000000000E+00 0.  1.
    9000005    2    1    2  501    0  0.72429366817E+01 -0.46666374604E+02 -0.86680333699E+03  0.10836957668E+04  0.64870507883E+03 0.  0.
         13    1    3    3    0    0 -0.21789497686E+03  0.43506959332E+02 -0.80263865528E+03  0.83282644494E+03  0.00000000000E+00 0.  1.
          3    1    3    3  501    0  0.22513791354E+03 -0.90173333936E+02 -0.64164681711E+02  0.25086932185E+03  0.00000000000E+00 0.  1.
         -3    1    1    2    0  502 -0.72429366817E+01  0.46666374604E+02 -0.22234756644E+01  0.47277420557E+02  0.00000000000E+00 0. -1.
<mgrwt>
<rscale>  1 0.65042178E+03</rscale>
<asrwt>0</asrwt>
<pdfrwt beam="1">  1       21 0.20149721E-01 0.65042178E+03</pdfrwt>
<pdfrwt beam="2">0</pdfrwt>
<totfact> 0.22123363E+03</totfact>
</mgrwt>
</event>
<event>
 6    1  0.1439793E-004  0.6670345E+03  0.7818608E-02  0.9775330E-01
         21   -1    0    0  501  502  0.00000000000E+00  0.00000000000E+00  0.26315777542E+03  0.26315777542E+03  0.00000000000E+00 0. -1.
         13   -1    0    0    0    0 -0.00000000000E+00 -0.00000000000E+00 -0.10000000000E+04  0.10000000000E+04  0.00000000000E+00 0.  1.
    9000005    2    1    2  501    0 -0.19216689896E+02 -0.74562995513E+02 -0.87783440627E+03  0.11025099719E+04  0.66257533300E+03 0.  0.
         13    1    3    3    0    0  0.38051720233E+02  0.92227854896E+02  0.80431346497E+02  0.12815269069E+03  0.00000000000E+00 0.  1.
          1    1    3    3  501    0 -0.57268410130E+02 -0.16679085041E+03 -0.95826575276E+03  0.97435728124E+03  0.00000000000E+00 0.  1.
         -1    1    1    2    0  502  0.19216689896E+02  0.74562995513E+02  0.14099218169E+03  0.16064780350E+03  0.00000000000E+00 0. -1.
<mgrwt>
<rscale>  1 0.66703448E+03</rscale>
<asrwt>0</asrwt>
<pdfrwt beam="1">  1       21 0.40485810E-01 0.66703448E+03</pdfrwt>
<pdfrwt beam="2">0</pdfrwt>
<totfact> 0.55000711E+02</totfact>
</mgrwt>
</event>
<event>
 6    1  0.1439793E-004  0.6650226E+03  0.7818608E-02  0.9778992E-01
         21   -1    0    0  501  502  0.00000000000E+00  0.00000000000E+00  0.46889213237E+03  0.46889213237E+03  0.00000000000E+00 0. -1.
         13   -1    0    0    0    0 -0.00000000000E+00 -0.00000000000E+00 -0.10000000000E+04  0.10000000000E+04  0.00000000000E+00 0.  1.
    9000005    2    1    2  501    0  0.13325574770E+03 -0.36041795537E+01 -0.87559645853E+03  0.10995109287E+04  0.65152516424E+03 0.  0.
         13    1    3    3    0    0  0.36963790483E+03  0.40397143138E+02 -0.72777241535E+03  0.81726176860E+03  0.00000000000E+00 0.  1.
          1    1    3    3  501    0 -0.23638215714E+03 -0.44001322692E+02 -0.14782404317E+03  0.28224916005E+03  0.00000000000E+00 0.  1.
         -1    1    1    2    0  502 -0.13325574770E+03  0.36041795537E+01  0.34448859090E+03  0.36938120372E+03  0.00000000000E+00 0. -1.
<mgrwt>
<rscale>  1 0.66502265E+03</rscale>
<asrwt>0</asrwt>
<pdfrwt beam="1">  1       21 0.72137249E-01 0.66502265E+03</pdfrwt>
<pdfrwt beam="2">0</pdfrwt>
<totfact> 0.15657343E+02</totfact>
</mgrwt>
</event>
<event>
 6    1  0.1439793E-004  0.6299939E+03  0.7818608E-02  0.9845061E-01
         21   -1    0    0  501  502  0.00000000000E+00  0.00000000000E+00  0.14274598355E+03  0.14274598355E+03  0.00000000000E+00 0. -1.
         13   -1    0    0    0    0 -0.00000000000E+00 -0.00000000000E+00 -0.10000000000E+04  0.10000000000E+04  0.00000000000E+00 0.  1.
    9000005    2    1    2  501    0 -0.17771684400E+02  0.38360338203E+02 -0.88920002261E+03  0.10897564032E+04  0.62857377437E+03 0.  0.
         13    1    3    3    0    0  0.94389938183E+02  0.27323903452E+03 -0.72874432630E+03  0.78398808889E+03  0.00000000000E+00 0.  1.
          1    1    3    3  501    0 -0.11216162258E+03 -0.23487869632E+03 -0.16045569632E+03  0.30576831433E+03  0.00000000000E+00 0.  1.
         -1    1    1    2    0  502  0.17771684400E+02 -0.38360338203E+02  0.31946006162E+02  0.52989580326E+02  0.00000000000E+00 0. -1.
<mgrwt>
<rscale>  1 0.62999392E+03</rscale>
<asrwt>0</asrwt>
<pdfrwt beam="1">  1       21 0.21960920E-01 0.62999392E+03</pdfrwt>
<pdfrwt beam="2">0</pdfrwt>
<totfact> 0.18759570E+03</totfact>
</mgrwt>
</event>
<event>
 6    1  0.1439793E-004  0.6496254E+03  0.7818608E-02  0.9807482E-01
         21   -1    0    0  501  502  0.00000000000E+00  0.00000000000E+00  0.12647848427E+03  0.12647848427E+03  0.00000000000E+00 0.  1.
         13   -1    0    0    0    0 -0.00000000000E+00 -0.00000000000E+00 -0.10000000000E+04  0.10000000000E+04  0.00000000000E+00 0.  1.
    9000005    2    1    2  501    0  0.10899850123E+02 -0.52958034479E+02 -0.84341047719E+03  0.10645912094E+04  0.64737149300E+03 0.  0.
         13    1    3    3    0    0  0.32645928784E+03 -0.58501356860E+01 -0.36711896243E+03  0.49131071968E+03  0.00000000000E+00 0.  1.
          3    1    3    3  501    0 -0.31555943771E+03 -0.47107898793E+02 -0.47629151476E+03  0.57328048972E+03  0.00000000000E+00 0.  1.
         -3    1    1    2    0  502 -0.10899850123E+02  0.52958034479E+02 -0.30111038544E+02  0.61887274869E+02  0.00000000000E+00 0. -1.
<mgrwt>
<rscale>  1 0.64962544E+03</rscale>
<asrwt>0</asrwt>
<pdfrwt beam="1">  1       21 0.19458228E-01 0.64962544E+03</pdfrwt>
<pdfrwt beam="2">0</pdfrwt>
<totfact> 0.23654795E+03</totfact>
</mgrwt>
</event>
<event>
 6    1  0.1439793E-004  0.6543268E+03  0.7818608E-02  0.9798694E-01
         21   -1    0    0  501  502  0.00000000000E+00  0.00000000000E+00  0.18031650206E+03  0.18031650206E+03  0.00000000000E+00 0.  1.
         13   -1    0    0    0    0 -0.00000000000E+00 -0.00000000000E+00 -0.10000000000E+04  0.10000000000E+04  0.00000000000E+00 0.  1.
    9000005    2    1    2  501    0 -0.34439846228E+02 -0.12749058915E+02 -0.88783353852E+03  0.11029015840E+04  0.65329539283E+03 0.  0.
         13    1    3    3    0    0 -0.26240472129E+03  0.99506037249E+02 -0.77616547428E+03  0.82534267590E+03  0.00000000000E+00 0.  1.
          3    1    3    3  501    0  0.22796487506E+03 -0.11225509616E+03 -0.11166806425E+03  0.27755890807E+03  0.00000000000E+00 0.  1.
         -1    1    1    2    0  502  0.34439846228E+02  0.12749058915E+02  0.68150040588E+02  0.77414918094E+02  0.00000000000E+00 0. -1.
<mgrwt>
<rscale>  1 0.65432676E+03</rscale>
<asrwt>0</asrwt>
<pdfrwt beam="1">  1       21 0.27741000E-01 0.65432676E+03</pdfrwt>
<pdfrwt beam="2">0</pdfrwt>
<totfact> 0.11858488E+03</totfact>
</mgrwt>
</event>
<event>
 6    1  0.1439793E-004  0.6811760E+03  0.7818608E-02  0.9749976E-01
         21   -1    0    0  501  502  0.00000000000E+00  0.00000000000E+00  0.14894944539E+03  0.14894944539E+03  0.00000000000E+00 0.  1.
         13   -1    0    0    0    0 -0.00000000000E+00 -0.00000000000E+00 -0.10000000000E+04  0.10000000000E+04  0.00000000000E+00 0.  1.
    9000005    2    1    2  501    0 -0.35530563371E+02  0.33673612796E+00 -0.87290637100E+03  0.11072336087E+04  0.68024862901E+03 0.  0.
         13    1    3    3    0    0 -0.10373355535E+03  0.19920789880E+03 -0.86836799351E+03  0.89694337034E+03  0.00000000000E+00 0.  1.
          3    1    3    3  501    0  0.68202991981E+02 -0.19887116267E+03 -0.45383774902E+01  0.21029023831E+03  0.00000000000E+00 0.  1.
         -3    1    1    2    0  502  0.35530563371E+02 -0.33673612796E+00  0.21855816389E+02  0.41715836737E+02  0.00000000000E+00 0. -1.
<mgrwt>
<rscale>  1 0.68117599E+03</rscale>
<asrwt>0</asrwt>
<pdfrwt beam="1">  1       21 0.22915299E-01 0.68117599E+03</pdfrwt>
<pdfrwt beam="2">0</pdfrwt>
<totfact> 0.17234012E+03</totfact>
</mgrwt>
</event>
<event>
 6    1  0.1439793E-004  0.6485317E+03  0.7818608E-02  0.9809538E-01
         21   -1    0    0  501  502  0.00000000000E+00  0.00000000000E+00  0.12157412704E+03  0.12157412704E+03  0.00000000000E+00 0.  1.
         13   -1    0    0    0    0 -0.00000000000E+00 -0.00000000000E+00 -0.10000000000E+04  0.10000000000E+04  0.00000000000E+00 0.  1.
    9000005    2    1    2  501    0  0.29795714206E+02  0.34150786998E+02 -0.84537011199E+03  0.10654782790E+04  0.64694611511E+03 0.  0.
         13    1    3    3    0    0  0.25965113349E+03  0.15631722773E+03 -0.18358644088E+03  0.35434131580E+03  0.00000000000E+00 0.  1.
          3    1    3    3  501    0 -0.22985541929E+03 -0.12216644074E+03 -0.66178367111E+03  0.71113696316E+03  0.00000000000E+00 0.  1.
         -1    1    1    2    0  502 -0.29795714206E+02 -0.34150786998E+02 -0.33055760971E+02  0.56095848072E+02  0.00000000000E+00 0. -1.
<mgrwt>
<rscale>  1 0.64853168E+03</rscale>
<asrwt>0</asrwt>
<pdfrwt beam="1">  1       21 0.18703711E-01 0.64853168E+03</pdfrwt>
<pdfrwt beam="2">0</pdfrwt>
<totfact> 0.25510870E+03</totfact>
</mgrwt>
</event>
<event>
 6    1  0.1439793E-004  0.6510625E+03  0.7818608E-02  0.9804788E-01
         21   -1    0    0  501  502  0.00000000000E+00  0.00000000000E+00  0.55858739338E+03  0.55858739338E+03  0.00000000000E+00 0. -1.
         13   -1    0    0    0    0 -0.00000000000E+00 -0.00000000000E+00 -0.10000000000E+04  0.10000000000E+04  0.00000000000E+00 0.  1.
    9000005    2    1    2  501    0  0.39466279441E+02  0.35736920849E+02 -0.89229685916E+03  0.11045705171E+04  0.64888182878E+03 0.  0.
         13    1    3    3    0    0  0.19258364139E+03 -0.22513539717E+03 -0.65910928222E+03  0.72263369137E+03  0.00000000000E+00 0.  1.
          3    1    3    3  501    0 -0.15311736195E+03  0.26087231802E+03 -0.23318757694E+03  0.38193682577E+03  0.00000000000E+00 0.  1.
         -3    1    1    2    0  502 -0.39466279441E+02 -0.35736920849E+02  0.45088425255E+03  0.45401687625E+03  0.00000000000E+00 0. -1.
<mgrwt>
<rscale>  1 0.65106247E+03</rscale>
<asrwt>0</asrwt>
<pdfrwt beam="1">  1       21 0.85936520E-01 0.65106247E+03</pdfrwt>
<pdfrwt beam="2">0</pdfrwt>
<totfact> 0.10442839E+02</totfact>
</mgrwt>
</event>
<event>
 6    1  0.1439793E-004  0.6515520E+03  0.7818608E-02  0.9803871E-01
         21   -1    0    0  501  502  0.00000000000E+00  0.00000000000E+00  0.14308723547E+03  0.14308723547E+03  0.00000000000E+00 0. -1.
         13   -1    0    0    0    0 -0.00000000000E+00 -0.00000000000E+00 -0.10000000000E+04  0.10000000000E+04  0.00000000000E+00 0.  1.
    9000005    2    1    2  501    0 -0.22489325387E+02  0.18772236950E+02 -0.88733359672E+03  0.11008546217E+04  0.65089309382E+03 0.  0.
         13    1    3    3    0    0 -0.95780819469E-02  0.33026352204E+03 -0.36465788675E+03  0.49198513032E+03  0.00000000000E+00 0.  1.
          3    1    3    3  501    0 -0.22479747305E+02 -0.31149128509E+03 -0.52267570996E+03  0.60886949136E+03  0.00000000000E+00 0.  1.
         -1    1    1    2    0  502  0.22489325387E+02 -0.18772236950E+02  0.30420832188E+02  0.42232613789E+02  0.00000000000E+00 0. -1.
<mgrwt>
<rscale>  1 0.65155198E+03</rscale>
<asrwt>0</asrwt>
<pdfrwt beam="1">  1       21 0.22013420E-01 0.65155198E+03</pdfrwt>
<pdfrwt beam="2">0</pdfrwt>
<totfact> 0.18654905E+03</totfact>
</mgrwt>
</event>
<event>
 6    1  0.1439793E-004  0.6398118E+03  0.7818608E-02  0.9826087E-01
         21   -1    0    0  501  502  0.00000000000E+00  0.00000000000E+00  0.14930403174E+03  0.14930403174E+03  0.00000000000E+00 0.  1.
         13   -1    0    0    0    0 -0.00000000000E+00 -0.00000000000E+00 -0.10000000000E+04  0.10000000000E+04  0.00000000000E+00 0.  1.
    9000005    2    1    2  501    0 -0.20046769553E+02 -0.91861710428E+01 -0.89478984282E+03  0.11000036415E+04  0.63943169277E+03 0.  0.
         13    1    3    3    0    0  0.23731326222E+03 -0.89396682698E+01 -0.78512027675E+03  0.82025078547E+03  0.00000000000E+00 0.  1.
          1    1    3    3  501    0 -0.25736003177E+03 -0.24650277294E+00 -0.10966956606E+03  0.27975285600E+03  0.00000000000E+00 0.  1.
         -1    1    1    2    0  502  0.20046769553E+02  0.91861710428E+01  0.44093874560E+02  0.49300390279E+02  0.00000000000E+00 0. -1.
<mgrwt>
<rscale>  1 0.63981181E+03</rscale>
<asrwt>0</asrwt>
<pdfrwt beam="1">  1       21 0.22969850E-01 0.63981181E+03</pdfrwt>
<pdfrwt beam="2">0</pdfrwt>
<totfact> 0.17187483E+03</totfact>
</mgrwt>
</event>
<event>
 6    1  0.1439793E-004  0.6527920E+03  0.7818608E-02  0.9801554E-01
         21   -1    0    0  501  502  0.00000000000E+00  0.00000000000E+00  0.23638034070E+03  0.23638034070E+03  0.00000000000E+00 0. -1.
         13   -1    0    0    0    0 -0.00000000000E+00 -0.00000000000E+00 -0.10000000000E+04  0.10000000000E+04  0.00000000000E+00 0.  1.
    9000005    2    1    2  501    0  0.78995290231E+02 -0.65514352360E+02 -0.87058562072E+03  0.10881436949E+04  0.64467432986E+03 0.  0.
         13    1    3    3    0    0 -0.23994802290E+03 -0.19098685125E+03 -0.35617696947E+03  0.47001389833E+03  0.00000000000E+00 0.  1.
          3    1    3    3  501    0  0.31894331313E+03  0.12547249889E+03 -0.51440865125E+03  0.61812979660E+03  0.00000000000E+00 0.  1.
         -1    1    1    2    0  502 -0.78995290231E+02  0.65514352360E+02  0.10696596142E+03  0.14823664576E+03  0.00000000000E+00 0. -1.
<mgrwt>
<rscale>  1 0.65279199E+03</rscale>
<asrwt>0</asrwt>
<pdfrwt beam="1">  1       21 0.36366205E-01 0.65279199E+03</pdfrwt>
<pdfrwt beam="2">0</pdfrwt>
<totfact> 0.68714945E+02</totfact>
</mgrwt>
</event>
<event>
 6    1  0.1439793E-004  0.6589927E+03  0.7818608E-02  0.9790050E-01
         21   -1    0    0  501  502  0.00000000000E+00  0.00000000000E+00  0.66028753637E+03  0.66028753637E+03  0.00000000000E+00 0. -1.
         13   -1    0    0    0    0 -0.00000000000E+00 -0.00000000000E+00 -0.10000000000E+04  0.10000000000E+04  0.00000000000E+00 0.  1.
    9000005    2    1    2  501    0 -0.34458226342E+02 -0.11137054637E+03 -0.88459269517E+03  0.11030755169E+04  0.64859894510E+03 0.  0.
         13    1    3    3    0    0 -0.20293648801E+03 -0.54596377850E+02 -0.97798293907E+01  0.21037972265E+03  0.00000000000E+00 0.  1.
          1    1    3    3  501    0  0.16847826167E+03 -0.56774168516E+02 -0.87481286578E+03  0.89269579421E+03  0.00000000000E+00 0.  1.
         -1    1    1    2    0  502  0.34458226342E+02  0.11137054637E+03  0.54488023154E+03  0.55721201951E+03  0.00000000000E+00 0. -1.
<mgrwt>
<rscale>  1 0.65899269E+03</rscale>
<asrwt>0</asrwt>
<pdfrwt beam="1">  1       21 0.10158269E+00 0.65899269E+03</pdfrwt>
<pdfrwt beam="2">0</pdfrwt>
<totfact> 0.69677881E+01</totfact>
</mgrwt>
</event>
<event>
 6    1  0.1439793E-004  0.6529559E+03  0.7818608E-02  0.9801248E-01
         21   -1    0    0  501  502  0.00000000000E+00  0.00000000000E+00  0.19765693474E+03  0.19765693474E+03  0.00000000000E+00 0.  1.
         13   -1    0    0    0    0 -0.00000000000E+00 -0.00000000000E+00 -0.10000000000E+04  0.10000000000E+04  0.00000000000E+00 0.  1.
    9000005    2    1    2  501    0  0.46672188330E+01 -0.86879800921E+02 -0.86976526566E+03  0.10875858857E+04  0.64713333911E+03 0.  0.
         13    1    3    3    0    0  0.27850220767E+03 -0.72890747120E+02 -0.71941608059E+03  0.77487807925E+03  0.00000000000E+00 0.  1.
          1    1    3    3  501    0 -0.27383498883E+03 -0.13989053801E+02 -0.15034918506E+03  0.31270780640E+03  0.00000000000E+00 0.  1.
         -3    1    1    2    0  502 -0.46672188330E+01  0.86879800921E+02  0.67422200392E+02  0.11007104908E+03  0.00000000000E+00 0. -1.
<mgrwt>
<rscale>  1 0.65295593E+03</rscale>
<asrwt>0</asrwt>
<pdfrwt beam="1">  1       21 0.30408758E-01 0.65295593E+03</pdfrwt>
<pdfrwt beam="2">0</pdfrwt>
<totfact> 0.98746364E+02</totfact>
</mgrwt>
</event>
<event>
 6    1  0.1439793E-004  0.6511081E+03  0.7818608E-02  0.9804702E-01
         21   -1    0    0  501  502  0.00000000000E+00  0.00000000000E+00  0.12223582106E+03  0.12223582106E+03  0.00000000000E+00 0.  1.
         13   -1    0    0    0    0 -0.00000000000E+00 -0.00000000000E+00 -0.10000000000E+04  0.10000000000E+04  0.00000000000E+00 0.  1.
    9000005    2    1    2  501    0  0.23848075330E+02  0.37829499490E+02 -0.84521375381E+03  0.10669245934E+04  0.64957062484E+03 0.  0.
         13    1    3    3    0    0  0.33181343560E+03 -0.35169592410E+02 -0.46233936583E+03  0.57017080377E+03  0.00000000000E+00 0.  1.
          1    1    3    3  501    0 -0.30796536027E+03  0.72999091900E+02 -0.38287438798E+03  0.49675378964E+03  0.00000000000E+00 0.  1.
         -3    1    1    2    0  502 -0.23848075330E+02 -0.37829499490E+02 -0.32550425125E+02  0.55311227653E+02  0.00000000000E+00 0. -1.
<mgrwt>
<rscale>  1 0.65110813E+03</rscale>
<asrwt>0</asrwt>
<pdfrwt beam="1">  1       21 0.18805510E-01 0.65110813E+03</pdfrwt>
<pdfrwt beam="2">0</pdfrwt>
<totfact> 0.25246045E+03</totfact>
</mgrwt>
</event>
<event>
 6    1  0.1439793E-004  0.6618791E+03  0.7818608E-02  0.9784741E-01
         21   -1    0    0  501  502  0.00000000000E+00  0.00000000000E+00  0.18623416106E+03  0.18623416106E+03  0.00000000000E+00 0.  1.
         13   -1    0    0    0    0 -0.00000000000E+00 -0.00000000000E+00 -0.10000000000E+04  0.10000000000E+04  0.00000000000E+00 0.  1.
    9000005    2    1    2  501    0 -0.54507465533E+02 -0.35975782936E+02 -0.87471040862E+03  0.10969057707E+04  0.65864910994E+03 0.  0.
         13    1    3    3    0    0 -0.14018188757E+03  0.23407237036E+03 -0.72886371393E+03  0.77825648063E+03  0.00000000000E+00 0.  1.
          1    1    3    3  501    0  0.85674422038E+02 -0.27004815329E+03 -0.14584669469E+03  0.31864929003E+03  0.00000000000E+00 0.  1.
         -1    1    1    2    0  502  0.54507465533E+02  0.35975782936E+02  0.60944569673E+02  0.89328390388E+02  0.00000000000E+00 0. -1.
<mgrwt>
<rscale>  1 0.66187912E+03</rscale>
<asrwt>0</asrwt>
<pdfrwt beam="1">  1       21 0.28651409E-01 0.66187912E+03</pdfrwt>
<pdfrwt beam="2">0</pdfrwt>
<totfact> 0.11116140E+03</totfact>
</mgrwt>
</event>
<event>
 6    1  0.1439793E-004  0.6409181E+03  0.7818608E-02  0.9823972E-01
         21   -1    0    0  501  502  0.00000000000E+00  0.00000000000E+00  0.34897482105E+03  0.34897482105E+03  0.00000000000E+00 0. -1.
         13   -1    0    0    0    0 -0.00000000000E+00 -0.00000000000E+00 -0.10000000000E+04  0.10000000000E+04  0.00000000000E+00 0.  1.
    9000005    2    1    2  501    0  0.27644203163E+02 -0.31805611095E+02 -0.89531643403E+03  0.11010756154E+04  0.63953123056E+03 0.  0.
         13    1    3    3    0    0  0.15106173074E+03 -0.28127744944E+03 -0.67286599934E+03  0.74477198063E+03  0.00000000000E+00 0.  1.
          3    1    3    3  501    0 -0.12341752758E+03  0.24947183834E+03 -0.22245043469E+03  0.35630363475E+03  0.00000000000E+00 0.  1.
         -3    1    1    2    0  502 -0.27644203163E+02  0.31805611095E+02  0.24429125509E+03  0.24789920568E+03  0.00000000000E+00 0. -1.
<mgrwt>
<rscale>  1 0.64091809E+03</rscale>
<asrwt>0</asrwt>
<pdfrwt beam="1">  1       21 0.53688432E-01 0.64091809E+03</pdfrwt>
<pdfrwt beam="2">0</pdfrwt>
<totfact> 0.30282539E+02</totfact>
</mgrwt>
</event>
<event>
 6    1  0.1439793E-004  0.7062062E+03  0.7818608E-02  0.9706677E-01
         21   -1    0    0  501  502  0.00000000000E+00  0.00000000000E+00  0.38306474709E+03  0.38306474709E+03  0.00000000000E+00 0. -1.
         13   -1    0    0    0    0 -0.00000000000E+00 -0.00000000000E+00 -0.10000000000E+04  0.10000000000E+04  0.00000000000E+00 0.  1.
    9000005    2    1    2  501    0  0.22644642182E+02 -0.28143789117E+03 -0.78385926817E+03  0.10550652147E+04  0.64730764592E+03 0.  0.
         13    1    3    3    0    0  0.32054536396E+03 -0.24355974076E+03 -0.39781876516E+03  0.56597742675E+03  0.00000000000E+00 0.  1.
          3    1    3    3  501    0 -0.29790072178E+03 -0.37878150408E+02 -0.38604050301E+03  0.48908778791E+03  0.00000000000E+00 0.  1.
         -3    1    1    2    0  502 -0.22644642182E+02  0.28143789117E+03  0.16692401526E+03  0.32799953243E+03  0.00000000000E+00 0. -1.
<mgrwt>
<rscale>  1 0.70620624E+03</rscale>
<asrwt>0</asrwt>
<pdfrwt beam="1">  1       21 0.58933036E-01 0.70620624E+03</pdfrwt>
<pdfrwt beam="2">0</pdfrwt>
<totfact> 0.24539095E+02</totfact>
</mgrwt>
</event>
<event>
 6    1  0.1439793E-004  0.6707604E+03  0.7818608E-02  0.9768585E-01
         21   -1    0    0  501  502  0.00000000000E+00  0.00000000000E+00  0.16616446926E+03  0.16616446926E+03  0.00000000000E+00 0.  1.
         13   -1    0    0    0    0 -0.00000000000E+00 -0.00000000000E+00 -0.10000000000E+04  0.10000000000E+04  0.00000000000E+00 0.  1.
    9000005    2    1    2  501    0 -0.10929607213E+02  0.11882560039E+03 -0.79611333438E+03  0.10410167816E+04  0.66006099630E+03 0.  0.
         13    1    3    3    0    0  0.30282702025E+03  0.11630163784E+03 -0.24377522506E+03  0.40577904765E+03  0.00000000000E+00 0.  1.
          3    1    3    3  501    0 -0.31375662746E+03  0.25239625499E+01 -0.55233810932E+03  0.63523773398E+03  0.00000000000E+00 0.  1.
         -1    1    1    2    0  502  0.10929607213E+02 -0.11882560039E+03 -0.37722196357E+02  0.12514768763E+03  0.00000000000E+00 0. -1.
<mgrwt>
<rscale>  1 0.67076039E+03</rscale>
<asrwt>0</asrwt>
<pdfrwt beam="1">  1       21 0.25563764E-01 0.67076039E+03</pdfrwt>
<pdfrwt beam="2">0</pdfrwt>
<totfact> 0.13922986E+03</totfact>
</mgrwt>
</event>
<event>
 6    1  0.1439793E-004  0.6512128E+03  0.7818608E-02  0.9804506E-01
         21   -1    0    0  501  502  0.00000000000E+00  0.00000000000E+00  0.13090215054E+03  0.13090215054E+03  0.00000000000E+00 0.  1.
         13   -1    0    0    0    0 -0.00000000000E+00 -0.00000000000E+00 -0.10000000000E+04  0.10000000000E+04  0.00000000000E+00 0.  1.
    9000005    2    1    2  501    0 -0.20890618340E+02  0.53781882428E+01 -0.88869910737E+03  0.11017550726E+04  0.65085543218E+03 0.  0.
         13    1    3    3    0    0  0.10855302155E+03 -0.26669007724E+03 -0.67061893944E+03  0.72981992144E+03  0.00000000000E+00 0.  1.
          3    1    3    3  501    0 -0.12944363989E+03  0.27206826548E+03 -0.21808016793E+03  0.37193515111E+03  0.00000000000E+00 0.  1.
         -3    1    1    2    0  502  0.20890618340E+02 -0.53781882428E+01  0.19601257914E+02  0.29147077988E+02  0.00000000000E+00 0. -1.
<mgrwt>
<rscale>  1 0.65121282E+03</rscale>
<asrwt>0</asrwt>
<pdfrwt beam="1">  1       21 0.20138792E-01 0.65121282E+03</pdfrwt>
<pdfrwt beam="2">0</pdfrwt>
<totfact> 0.22145714E+03</totfact>
</mgrwt>
</event>
<event>
 6    1  0.1439793E-004  0.6184588E+03  0.7818608E-02  0.9867833E-01
         21   -1    0    0  501  502  0.00000000000E+00  0.00000000000E+00  0.29326574191E+03  0.29326574191E+03  0.00000000000E+00 0. -1.
         13   -1    0    0    0    0 -0.00000000000E+00 -0.00000000000E+00 -0.10000000000E+04  0.10000000000E+04  0.00000000000E+00 0.  1.
    9000005    2    1    2  501    0  0.45782917208E+02  0.14925233341E+02 -0.90115818047E+03  0.10929672155E+04  0.61658124344E+03 0.  0.
         13    1    3    3    0    0  0.26928371569E+03 -0.12052882451E+03 -0.23436130394E+03  0.37678394055E+03  0.00000000000E+00 0.  1.
          1    1    3    3  501    0 -0.22350079849E+03  0.13545405786E+03 -0.66679687654E+03  0.71618327492E+03  0.00000000000E+00 0.  1.
         -1    1    1    2    0  502 -0.45782917208E+02 -0.14925233341E+02  0.19442392239E+03  0.20029852644E+03  0.00000000000E+00 0. -1.
<mgrwt>
<rscale>  1 0.61845878E+03</rscale>
<asrwt>0</asrwt>
<pdfrwt beam="1">  1       21 0.45117805E-01 0.61845878E+03</pdfrwt>
<pdfrwt beam="2">0</pdfrwt>
<totfact> 0.44015897E+02</totfact>
</mgrwt>
</event>
<event>
 6    1  0.1439793E-004  0.5474552E+03  0.7818608E-02  0.1002085E+00
         21   -1    0    0  501  502  0.00000000000E+00  0.00000000000E+00  0.16607305257E+03  0.16607305257E+03  0.00000000000E+00 0.  1.
         13   -1    0    0    0    0 -0.00000000000E+00 -0.00000000000E+00 -0.10000000000E+04  0.10000000000E+04  0.00000000000E+00 0.  1.
    9000005    2    1    2  501    0  0.75342856905E+02 -0.11276620405E+03 -0.86801523451E+03  0.10262346666E+04  0.53039078123E+03 0.  0.
         13    1    3    3    0    0  0.57410959957E+02  0.20853111477E+03 -0.25904869309E+03  0.33747217596E+03  0.00000000000E+00 0.  1.
          3    1    3    3  501    0  0.17931896948E+02 -0.32129731882E+03 -0.60896654142E+03  0.68876249069E+03  0.00000000000E+00 0.  1.
         -1    1    1    2    0  502 -0.75342856905E+02  0.11276620405E+03  0.34088287087E+02  0.13983838593E+03  0.00000000000E+00 0. -1.
<mgrwt>
<rscale>  1 0.54745515E+03</rscale>
<asrwt>0</asrwt>
<pdfrwt beam="1">  1       21 0.25549700E-01 0.54745515E+03</pdfrwt>
<pdfrwt beam="2">0</pdfrwt>
<totfact> 0.14036277E+03</totfact>
</mgrwt>
</event>
<event>
 6    1  0.1439793E-004  0.6407432E+03  0.7818608E-02  0.9824306E-01
         21   -1    0    0  501  502  0.00000000000E+00  0.00000000000E+00  0.12015332744E+03  0.12015332744E+03  0.00000000000E+00 0.  1.
         13   -1    0    0    0    0 -0.00000000000E+00 -0.00000000000E+00 -0.10000000000E+04  0.10000000000E+04  0.00000000000E+00 0.  1.
    9000005    2    1    2  501    0 -0.26621960283E+02  0.28493765027E+02 -0.86899238477E+03  0.10796756919E+04  0.63955547961E+03 0.  0.
         13    1    3    3    0    0  0.18106677119E+03 -0.23210026331E+03 -0.51724127299E+03  0.59514220346E+03  0.00000000000E+00 0.  1.
          1    1    3    3  501    0 -0.20768873147E+03  0.26059402834E+03 -0.35175111178E+03  0.48453348845E+03  0.00000000000E+00 0.  1.
         -3    1    1    2    0  502  0.26621960283E+02 -0.28493765027E+02 -0.10854287786E+02  0.40477635530E+02  0.00000000000E+00 0. -1.
<mgrwt>
<rscale>  1 0.64074319E+03</rscale>
<asrwt>0</asrwt>
<pdfrwt beam="1">  1       21 0.18485127E-01 0.64074319E+03</pdfrwt>
<pdfrwt beam="2">0</pdfrwt>
<totfact> 0.26095111E+03</totfact>
</mgrwt>
</event>
<event>
 6    1  0.1439793E-004  0.6493818E+03  0.7818608E-02  0.9807940E-01
         21   -1    0    0  501  502  0.00000000000E+00  0.00000000000E+00  0.13948045044E+03  0.13948045044E+03  0.00000000000E+00 0.  1.
         13   -1    0    0    0    0 -0.00000000000E+00 -0.00000000000E+00 -0.10000000000E+04  0.10000000000E+04  0.00000000000E+00 0.  1.
    9000005    2    1    2  501    0  0.30621219876E+02 -0.38200688277E+02 -0.87386850046E+03  0.10887345523E+04  0.64753364199E+03 0.  0.
         13    1    3    3    0    0 -0.34405072094E+02  0.14096175935E+03  0.43733142922E+02  0.15154706983E+03  0.00000000000E+00 0.  1.
          3    1    3    3  501    0  0.65026291970E+02 -0.17916244763E+03 -0.91760164338E+03  0.93718748243E+03  0.00000000000E+00 0.  1.
         -1    1    1    2    0  502 -0.30621219876E+02  0.38200688277E+02  0.13348950896E+02  0.50745898175E+02  0.00000000000E+00 0. -1.
<mgrwt>
<rscale>  1 0.64938184E+03</rscale>
<asrwt>0</asrwt>
<pdfrwt beam="1">  1       21 0.21458530E-01 0.64938184E+03</pdfrwt>
<pdfrwt beam="2">0</pdfrwt>
<totfact> 0.19600445E+03</totfact>
</mgrwt>
</event>
<event>
 6    1  0.1439793E-004  0.6271472E+03  0.7818608E-02  0.9850632E-01
         21   -1    0    0  501  502  0.00000000000E+00  0.00000000000E+00  0.21089369455E+03  0.21089369455E+03  0.00000000000E+00 0. -1.
         13   -1    0    0    0    0 -0.00000000000E+00 -0.00000000000E+00 -0.10000000000E+04  0.10000000000E+04  0.00000000000E+00 0.  1.
    9000005    2    1    2  501    0  0.27224847277E+02 -0.27956013649E+02 -0.89794495700E+03  0.10952711056E+04  0.62593203937E+03 0.  0.
         13    1    3    3    0    0 -0.13616920123E+03 -0.40365032658E+02  0.36440081948E+02  0.14662628277E+03  0.00000000000E+00 0.  1.
          3    1    3    3  501    0  0.16339404851E+03  0.12409019009E+02 -0.93438503895E+03  0.94864482282E+03  0.00000000000E+00 0.  1.
         -1    1    1    2    0  502 -0.27224847277E+02  0.27956013649E+02  0.10883865155E+03  0.11562258897E+03  0.00000000000E+00 0. -1.
<mgrwt>
<rscale>  1 0.62714723E+03</rscale>
<asrwt>0</asrwt>
<pdfrwt beam="1">  1       21 0.32445183E-01 0.62714723E+03</pdfrwt>
<pdfrwt beam="2">0</pdfrwt>
<totfact> 0.86821454E+02</totfact>
</mgrwt>
</event>
<event>
 6    1  0.1439793E-004  0.6455306E+03  0.7818608E-02  0.9815202E-01
         21   -1    0    0  501  502  0.00000000000E+00  0.00000000000E+00  0.18604754489E+03  0.18604754489E+03  0.00000000000E+00 0. -1.
         13   -1    0    0    0    0 -0.00000000000E+00 -0.00000000000E+00 -0.10000000000E+04  0.10000000000E+04  0.00000000000E+00 0.  1.
    9000005    2    1    2  501    0  0.16291959678E+02 -0.29282624567E+02 -0.89201846008E+03  0.11010934327E+04  0.64466030921E+03 0.  0.
         13    1    3    3    0    0  0.10830768436E+03  0.21583831481E+03 -0.90490210760E+02  0.25788604241E+03  0.00000000000E+00 0.  1.
          1    1    3    3  501    0 -0.92015724677E+02 -0.24512093937E+03 -0.80152824932E+03  0.84320739025E+03  0.00000000000E+00 0.  1.
         -3    1    1    2    0  502 -0.16291959678E+02  0.29282624567E+02  0.78066004973E+02  0.84954112226E+02  0.00000000000E+00 0. -1.
<mgrwt>
<rscale>  1 0.64553065E+03</rscale>
<asrwt>0</asrwt>
<pdfrwt beam="1">  1       21 0.28622698E-01 0.64553065E+03</pdfrwt>
<pdfrwt beam="2">0</pdfrwt>
<totfact> 0.11149255E+03</totfact>
</mgrwt>
</event>
<event>
 6    1  0.1439793E-004  0.6477186E+03  0.7818608E-02  0.9811069E-01
         21   -1    0    0  501  502  0.00000000000E+00  0.00000000000E+00  0.25229237401E+03  0.25229237401E+03  0.00000000000E+00 0. -1.
         13   -1    0    0    0    0 -0.00000000000E+00 -0.00000000000E+00 -0.10000000000E+04  0.10000000000E+04  0.00000000000E+00 0.  1.
    9000005    2    1    2  501    0  0.11088744000E+02 -0.18692503786E+02 -0.89422942267E+03  0.11041674037E+04  0.64735386380E+03 0.  0.
         13    1    3    3    0    0  0.26529287349E+03  0.10166781336E+03 -0.17942912978E+03  0.33602301352E+03  0.00000000000E+00 0.  1.
          1    1    3    3  501    0 -0.25420412949E+03 -0.12036031714E+03 -0.71480029288E+03  0.76814439014E+03  0.00000000000E+00 0.  1.
         -3    1    1    2    0  502 -0.11088744000E+02  0.18692503786E+02  0.14652179668E+03  0.14812497036E+03  0.00000000000E+00 0. -1.
<mgrwt>
<rscale>  1 0.64771861E+03</rscale>
<asrwt>0</asrwt>
<pdfrwt beam="1">  1       21 0.38814210E-01 0.64771861E+03</pdfrwt>
<pdfrwt beam="2">0</pdfrwt>
<totfact> 0.60118805E+02</totfact>
</mgrwt>
</event>
<event>
 6    1  0.1439793E-004  0.6776491E+03  0.7818608E-02  0.9756238E-01
         21   -1    0    0  501  502  0.00000000000E+00  0.00000000000E+00  0.20545313627E+03  0.20545313627E+03  0.00000000000E+00 0.  1.
         13   -1    0    0    0    0 -0.00000000000E+00 -0.00000000000E+00 -0.10000000000E+04  0.10000000000E+04  0.00000000000E+00 0.  1.
    9000005    2    1    2  501    0  0.11065337504E+03  0.12859390713E+03 -0.78284642570E+03  0.10354017834E+04  0.65606993873E+03 0.  0.
         13    1    3    3    0    0  0.45982648069E+02  0.39792575248E+03 -0.45459091584E+03  0.60589785374E+03  0.00000000000E+00 0.  1.
          1    1    3    3  501    0  0.64670726974E+02 -0.26933184535E+03 -0.32825550986E+03  0.42950392967E+03  0.00000000000E+00 0.  1.
         -3    1    1    2    0  502 -0.11065337504E+03 -0.12859390713E+03 -0.11700438026E+02  0.17005135286E+03  0.00000000000E+00 0. -1.
<mgrwt>
<rscale>  1 0.67764912E+03</rscale>
<asrwt>0</asrwt>
<pdfrwt beam="1">  1       21 0.31608174E-01 0.67764912E+03</pdfrwt>
<pdfrwt beam="2">0</pdfrwt>
<totfact> 0.91214124E+02</totfact>
</mgrwt>
</event>
<event>
 6    1  0.1439793E-004  0.6332306E+03  0.7818608E-02  0.9838765E-01
         21   -1    0    0  501  502  0.00000000000E+00  0.00000000000E+00  0.13174532825E+03  0.13174532825E+03  0.00000000000E+00 0.  1.
         13   -1    0    0    0    0 -0.00000000000E+00 -0.00000000000E+00 -0.10000000000E+04  0.10000000000E+04  0.00000000000E+00 0.  1.
    9000005    2    1    2  501    0  0.13404391242E+02  0.53202292179E+02 -0.87094675720E+03  0.10768143814E+04  0.63084926609E+03 0.  0.
         13    1    3    3    0    0  0.31864842941E+03 -0.12133282362E+02 -0.48484875208E+03  0.58031228705E+03  0.00000000000E+00 0.  1.
          3    1    3    3  501    0 -0.30524403817E+03  0.65335574541E+02 -0.38609800511E+03  0.49650209435E+03  0.00000000000E+00 0.  1.
         -1    1    1    2    0  502 -0.13404391242E+02 -0.53202292179E+02  0.26920854488E+01  0.54930946849E+02  0.00000000000E+00 0. -1.
<mgrwt>
<rscale>  1 0.63323057E+03</rscale>
<asrwt>0</asrwt>
<pdfrwt beam="1">  1       21 0.20268511E-01 0.63323057E+03</pdfrwt>
<pdfrwt beam="2">0</pdfrwt>
<totfact> 0.21890368E+03</totfact>
</mgrwt>
</event>
<event>
 6    1  0.1439793E-004  0.6580807E+03  0.7818608E-02  0.9791733E-01
         21   -1    0    0  501  502  0.00000000000E+00  0.00000000000E+00  0.18835020476E+03  0.18835020476E+03  0.00000000000E+00 0.  1.
         13   -1    0    0    0    0 -0.00000000000E+00 -0.00000000000E+00 -0.10000000000E+04  0.10000000000E+04  0.00000000000E+00 0.  1.
    9000005    2    1    2  501    0 -0.63168534085E+02 -0.10507762723E+03 -0.83540006039E+03  0.10634676738E+04  0.64655909312E+03 0.  0.
         13    1    3    3    0    0 -0.15550851970E+03  0.23303512153E+03 -0.52595787858E+03  0.59591942207E+03  0.00000000000E+00 0.  1.
          1    1    3    3  501    0  0.92339985610E+02 -0.33811274876E+03 -0.30944218181E+03  0.46754825173E+03  0.00000000000E+00 0.  1.
         -3    1    1    2    0  502  0.63168534085E+02  0.10507762723E+03  0.23750265143E+02  0.12488253095E+03  0.00000000000E+00 0. -1.
<mgrwt>
<rscale>  1 0.65808072E+03</rscale>
<asrwt>0</asrwt>
<pdfrwt beam="1">  1       21 0.28976954E-01 0.65808072E+03</pdfrwt>
<pdfrwt beam="2">0</pdfrwt>
<totfact> 0.10871057E+03</totfact>
</mgrwt>
</event>
<event>
 6    1  0.1439793E-004  0.5842478E+03  0.7818608E-02  0.9938637E-01
         21   -1    0    0  501  502  0.00000000000E+00  0.00000000000E+00  0.14911732920E+03  0.14911732920E+03  0.00000000000E+00 0.  1.
         13   -1    0    0    0    0 -0.00000000000E+00 -0.00000000000E+00 -0.10000000000E+04  0.10000000000E+04  0.00000000000E+00 0.  1.
    9000005    2    1    2  501    0  0.19120244582E+02 -0.77196631746E+01 -0.91285055491E+03  0.10838088641E+04  0.58388384234E+03 0.  0.
         13    1    3    3    0    0 -0.78290444322E+01  0.26816429821E+03 -0.64401837733E+03  0.69766256536E+03  0.00000000000E+00 0.  1.
          1    1    3    3  501    0  0.26949289014E+02 -0.27588396138E+03 -0.26883217758E+03  0.38614629874E+03  0.00000000000E+00 0.  1.
         -3    1    1    2    0  502 -0.19120244582E+02  0.77196631746E+01  0.61967884110E+02  0.65308465098E+02  0.00000000000E+00 0. -1.
<mgrwt>
<rscale>  1 0.58424782E+03</rscale>
<asrwt>0</asrwt>
<pdfrwt beam="1">  1       21 0.22941127E-01 0.58424782E+03</pdfrwt>
<pdfrwt beam="2">0</pdfrwt>
<totfact> 0.17277109E+03</totfact>
</mgrwt>
</event>
<event>
 6    1  0.1439793E-004  0.6593999E+03  0.7818608E-02  0.9789299E-01
         21   -1    0    0  501  502  0.00000000000E+00  0.00000000000E+00  0.14993192531E+03  0.14993192531E+03  0.00000000000E+00 0. -1.
         13   -1    0    0    0    0 -0.00000000000E+00 -0.00000000000E+00 -0.10000000000E+04  0.10000000000E+04  0.00000000000E+00 0.  1.
    9000005    2    1    2  501    0  0.93364931411E+01  0.82674239177E+02 -0.83727110221E+03  0.10657537664E+04  0.65412995051E+03 0.  0.
         13    1    3    3    0    0 -0.20779969180E+02 -0.27750685386E+03 -0.49559661949E+03  0.56838179977E+03  0.00000000000E+00 0.  1.
          1    1    3    3  501    0  0.30116462321E+02  0.36018109304E+03 -0.34167448272E+03  0.49737196667E+03  0.00000000000E+00 0.  1.
         -1    1    1    2    0  502 -0.93364931411E+01 -0.82674239177E+02 -0.12796972474E+02  0.84178158878E+02  0.00000000000E+00 0. -1.
<mgrwt>
<rscale>  1 0.65939987E+03</rscale>
<asrwt>0</asrwt>
<pdfrwt beam="1">  1       21 0.23066449E-01 0.65939987E+03</pdfrwt>
<pdfrwt beam="2">0</pdfrwt>
<totfact> 0.17032056E+03</totfact>
</mgrwt>
</event>
<event>
 6    1  0.1439793E-004  0.6447944E+03  0.7818608E-02  0.9816596E-01
         21   -1    0    0  501  502  0.00000000000E+00  0.00000000000E+00  0.14469644885E+03  0.14469644885E+03  0.00000000000E+00 0. -1.
         13   -1    0    0    0    0 -0.00000000000E+00 -0.00000000000E+00 -0.10000000000E+04  0.10000000000E+04  0.00000000000E+00 0.  1.
    9000005    2    1    2  501    0 -0.32334769947E+02  0.85353607218E+02 -0.82795563855E+03  0.10494143207E+04  0.63830173238E+03 0.  0.
         13    1    3    3    0    0  0.16921925406E+03  0.30332712394E+03 -0.42415722713E+03  0.54822609697E+03  0.00000000000E+00 0.  1.
          1    1    3    3  501    0 -0.20155402401E+03 -0.21797351673E+03 -0.40379841141E+03  0.50118822377E+03  0.00000000000E+00 0.  1.
         -3    1    1    2    0  502  0.32334769947E+02 -0.85353607218E+02 -0.27347912609E+02  0.95282128108E+02  0.00000000000E+00 0. -1.
<mgrwt>
<rscale>  1 0.64479445E+03</rscale>
<asrwt>0</asrwt>
<pdfrwt beam="1">  1       21 0.22260991E-01 0.64479445E+03</pdfrwt>
<pdfrwt beam="2">0</pdfrwt>
<totfact> 0.18260857E+03</totfact>
</mgrwt>
</event>
<event>
 6    1  0.1439793E-004  0.6877134E+03  0.7818608E-02  0.9738478E-01
         21   -1    0    0  501  502  0.00000000000E+00  0.00000000000E+00  0.24892742861E+03  0.24892742861E+03  0.00000000000E+00 0. -1.
         13   -1    0    0    0    0 -0.00000000000E+00 -0.00000000000E+00 -0.10000000000E+04  0.10000000000E+04  0.00000000000E+00 0.  1.
    9000005    2    1    2  501    0  0.17523702967E+03 -0.11209682045E+02 -0.81105317703E+03  0.10633705732E+04  0.66491807497E+03 0.  0.
         13    1    3    3    0    0 -0.23650639800E+03  0.86214092943E+02 -0.40551103820E+03  0.47729168044E+03  0.00000000000E+00 0.  1.
          1    1    3    3  501    0  0.41174342767E+03 -0.97423774988E+02 -0.40554213882E+03  0.58607889275E+03  0.00000000000E+00 0.  1.
         -3    1    1    2    0  502 -0.17523702967E+03  0.11209682045E+02  0.59980605634E+02  0.18555685542E+03  0.00000000000E+00 0. -1.
<mgrwt>
<rscale>  1 0.68771340E+03</rscale>
<asrwt>0</asrwt>
<pdfrwt beam="1">  1       21 0.38296526E-01 0.68771340E+03</pdfrwt>
<pdfrwt beam="2">0</pdfrwt>
<totfact> 0.61620479E+02</totfact>
</mgrwt>
</event>
<event>
 6    1  0.1439793E-004  0.6738065E+03  0.7818608E-02  0.9763106E-01
         21   -1    0    0  501  502  0.00000000000E+00  0.00000000000E+00  0.17597976213E+03  0.17597976213E+03  0.00000000000E+00 0. -1.
         13   -1    0    0    0    0 -0.00000000000E+00 -0.00000000000E+00 -0.10000000000E+04  0.10000000000E+04  0.00000000000E+00 0.  1.
    9000005    2    1    2  501    0 -0.19375130702E+02 -0.24038060433E+02 -0.88221726347E+03  0.11101001915E+04  0.67309873802E+03 0.  0.
         13    1    3    3    0    0  0.22707537091E+03 -0.20618454710E+03 -0.67137634233E+03  0.73812023721E+03  0.00000000000E+00 0.  1.
          3    1    3    3  501    0 -0.24645050162E+03  0.18214648667E+03 -0.21084092115E+03  0.37197995428E+03  0.00000000000E+00 0.  1.
         -3    1    1    2    0  502  0.19375130702E+02  0.24038060433E+02  0.58197025610E+02  0.65879570649E+02  0.00000000000E+00 0. -1.
<mgrwt>
<rscale>  1 0.67380645E+03</rscale>
<asrwt>0</asrwt>
<pdfrwt beam="1">  1       21 0.27073809E-01 0.67380645E+03</pdfrwt>
<pdfrwt beam="2">0</pdfrwt>
<totfact> 0.12431055E+03</totfact>
</mgrwt>
</event>
<event>
 6    1  0.1439793E-004  0.6522159E+03  0.7818608E-02  0.9802630E-01
         21   -1    0    0  501  502  0.00000000000E+00  0.00000000000E+00  0.34278782931E+03  0.34278782931E+03  0.00000000000E+00 0. -1.
         13   -1    0    0    0    0 -0.00000000000E+00 -0.00000000000E+00 -0.10000000000E+04  0.10000000000E+04  0.00000000000E+00 0.  1.
    9000005    2    1    2  501    0  0.76275539706E+02 -0.27726391560E+02 -0.88591884762E+03  0.11001080922E+04  0.64714673694E+03 0.  0.
         13    1    3    3    0    0 -0.22347063787E+03  0.94033104142E+02 -0.12394523417E+03  0.27229353965E+03  0.00000000000E+00 0.  1.
          3    1    3    3  501    0  0.29974617757E+03 -0.12175949570E+03 -0.76197361345E+03  0.82781455251E+03  0.00000000000E+00 0.  1.
         -3    1    1    2    0  502 -0.76275539706E+02  0.27726391560E+02  0.22870667693E+03  0.24267973714E+03  0.00000000000E+00 0. -1.
<mgrwt>
<rscale>  1 0.65221592E+03</rscale>
<asrwt>0</asrwt>
<pdfrwt beam="1">  1       21 0.52736588E-01 0.65221592E+03</pdfrwt>
<pdfrwt beam="2">0</pdfrwt>
<totfact> 0.31442205E+02</totfact>
</mgrwt>
</event>
<event>
 6    1  0.1439793E-004  0.6369430E+03  0.7818608E-02  0.9831593E-01
         21   -1    0    0  501  502  0.00000000000E+00  0.00000000000E+00  0.13819701773E+03  0.13819701773E+03  0.00000000000E+00 0.  1.
         13   -1    0    0    0    0 -0.00000000000E+00 -0.00000000000E+00 -0.10000000000E+04  0.10000000000E+04  0.00000000000E+00 0.  1.
    9000005    2    1    2  501    0 -0.62764043658E+00 -0.32217789652E+02 -0.89063642480E+03  0.10949564429E+04  0.63612733849E+03 0.  0.
         13    1    3    3    0    0 -0.30448315068E+02  0.29917841008E+03 -0.48017149280E+03  0.56656816310E+03  0.00000000000E+00 0.  1.
          1    1    3    3  501    0  0.29820674632E+02 -0.33139619973E+03 -0.41046493201E+03  0.52838827981E+03  0.00000000000E+00 0.  1.
         -1    1    1    2    0  502  0.62764043658E+00  0.32217789652E+02  0.28833442536E+02  0.43240574823E+02  0.00000000000E+00 0. -1.
<mgrwt>
<rscale>  1 0.63694299E+03</rscale>
<asrwt>0</asrwt>
<pdfrwt beam="1">  1       21 0.21261079E-01 0.63694299E+03</pdfrwt>
<pdfrwt beam="2">0</pdfrwt>
<totfact> 0.19963918E+03</totfact>
</mgrwt>
</event>
<event>
 6    1  0.1439793E-004  0.6535708E+03  0.7818608E-02  0.9800102E-01
         21   -1    0    0  501  502  0.00000000000E+00  0.00000000000E+00  0.13944932793E+03  0.13944932793E+03  0.00000000000E+00 0.  1.
         13   -1    0    0    0    0 -0.00000000000E+00 -0.00000000000E+00 -0.10000000000E+04  0.10000000000E+04  0.00000000000E+00 0.  1.
    9000005    2    1    2  501    0  0.23788629098E+02  0.81903632416E+01 -0.88775796246E+03  0.11023923775E+04  0.65308634432E+03 0.  0.
         13    1    3    3    0    0  0.31251308193E+03  0.62935822073E+02 -0.26792358242E+03  0.41642333039E+03  0.00000000000E+00 0.  1.
          1    1    3    3  501    0 -0.28872445283E+03 -0.54745458831E+02 -0.61983438004E+03  0.68596904711E+03  0.00000000000E+00 0.  1.
         -3    1    1    2    0  502 -0.23788629098E+02 -0.81903632416E+01  0.27207290388E+02  0.37056950423E+02  0.00000000000E+00 0. -1.
<mgrwt>
<rscale>  1 0.65357077E+03</rscale>
<asrwt>0</asrwt>
<pdfrwt beam="1">  1       21 0.21453742E-01 0.65357077E+03</pdfrwt>
<pdfrwt beam="2">0</pdfrwt>
<totfact> 0.19605349E+03</totfact>
</mgrwt>
</event>
<event>
 6    1  0.1439793E-004  0.6130590E+03  0.7818608E-02  0.9878677E-01
         21   -1    0    0  501  502  0.00000000000E+00  0.00000000000E+00  0.18554017445E+03  0.18554017445E+03  0.00000000000E+00 0.  1.
         13   -1    0    0    0    0 -0.00000000000E+00 -0.00000000000E+00 -0.10000000000E+04  0.10000000000E+04  0.00000000000E+00 0.  1.
    9000005    2    1    2  501    0 -0.50246745801E+02 -0.12972526615E+03 -0.84416181613E+03  0.10432883260E+04  0.59706614310E+03 0.  0.
         13    1    3    3    0    0 -0.91492208716E+02 -0.30953366479E+03 -0.78626528047E+03  0.84993823609E+03  0.00000000000E+00 0.  1.
          1    1    3    3  501    0  0.41245462915E+02  0.17980839863E+03 -0.57896535656E+02  0.19335008992E+03  0.00000000000E+00 0.  1.
         -1    1    1    2    0  502  0.50246745801E+02  0.12972526615E+03  0.29701990580E+02  0.14225184845E+03  0.00000000000E+00 0. -1.
<mgrwt>
<rscale>  1 0.61305902E+03</rscale>
<asrwt>0</asrwt>
<pdfrwt beam="1">  1       21 0.28544641E-01 0.61305902E+03</pdfrwt>
<pdfrwt beam="2">0</pdfrwt>
<totfact> 0.11232565E+03</totfact>
</mgrwt>
</event>
<event>
 6    1  0.1439793E-004  0.6754343E+03  0.7818608E-02  0.9760190E-01
         21   -1    0    0  501  502  0.00000000000E+00  0.00000000000E+00  0.20094030046E+03  0.20094030046E+03  0.00000000000E+00 0. -1.
         13   -1    0    0    0    0 -0.00000000000E+00 -0.00000000000E+00 -0.10000000000E+04  0.10000000000E+04  0.00000000000E+00 0.  1.
    9000005    2    1    2  501    0 -0.16932469307E+03 -0.10084188364E+02 -0.77756264453E+03  0.10299588222E+04  0.65378816653E+03 0.  0.
         13    1    3    3    0    0 -0.35765404114E+03  0.18536607274E+03 -0.49411663418E+03  0.63751724858E+03  0.00000000000E+00 0.  1.
          3    1    3    3  501    0  0.18832934807E+03 -0.19545026110E+03 -0.28344601035E+03  0.39244157361E+03  0.00000000000E+00 0.  1.
         -1    1    1    2    0  502  0.16932469307E+03  0.10084188364E+02 -0.21497055012E+02  0.17098147827E+03  0.00000000000E+00 0. -1.
<mgrwt>
<rscale>  1 0.67543431E+03</rscale>
<asrwt>0</asrwt>
<pdfrwt beam="1">  1       21 0.30913891E-01 0.67543431E+03</pdfrwt>
<pdfrwt beam="2">0</pdfrwt>
<totfact> 0.95398266E+02</totfact>
</mgrwt>
</event>
<event>
 6    1  0.1439793E-004  0.6610317E+03  0.7818608E-02  0.9786296E-01
         21   -1    0    0  501  502  0.00000000000E+00  0.00000000000E+00  0.12009362638E+03  0.12009362638E+03  0.00000000000E+00 0.  1.
         13   -1    0    0    0    0 -0.00000000000E+00 -0.00000000000E+00 -0.10000000000E+04  0.10000000000E+04  0.00000000000E+00 0.  1.
    9000005    2    1    2  501    0 -0.14628549107E+02  0.15671312194E+02 -0.87735315681E+03  0.10985041986E+04  0.66068398509E+03 0.  0.
         13    1    3    3    0    0 -0.14398825380E+03  0.30679098868E+03 -0.50903763748E+03  0.61153302800E+03  0.00000000000E+00 0.  1.
          1    1    3    3  501    0  0.12935970469E+03 -0.29111967649E+03 -0.36831551933E+03  0.48697117062E+03  0.00000000000E+00 0.  1.
         -3    1    1    2    0  502  0.14628549107E+02 -0.15671312194E+02 -0.25532168073E+01  0.21589427758E+02  0.00000000000E+00 0. -1.
<mgrwt>
<rscale>  1 0.66103170E+03</rscale>
<asrwt>0</asrwt>
<pdfrwt beam="1">  1       21 0.18475942E-01 0.66103170E+03</pdfrwt>
<pdfrwt beam="2">0</pdfrwt>
<totfact> 0.26101413E+03</totfact>
</mgrwt>
</event>
<event>
 6    1  0.1439793E-004  0.6452424E+03  0.7818608E-02  0.9815748E-01
         21   -1    0    0  501  502  0.00000000000E+00  0.00000000000E+00  0.15866772217E+03  0.15866772217E+03  0.00000000000E+00 0.  1.
         13   -1    0    0    0    0 -0.00000000000E+00 -0.00000000000E+00 -0.10000000000E+04  0.10000000000E+04  0.00000000000E+00 0.  1.
    9000005    2    1    2  501    0  0.23789954501E+02 -0.28489356597E+02 -0.88885845516E+03  0.10983656251E+04  0.64417395772E+03 0.  0.
         13    1    3    3    0    0  0.12064715014E+03  0.20466228347E+03 -0.79470308564E+02  0.25051529904E+03  0.00000000000E+00 0.  1.
          3    1    3    3  501    0 -0.96857195638E+02 -0.23315164007E+03 -0.80938814660E+03  0.84785032610E+03  0.00000000000E+00 0.  1.
         -1    1    1    2    0  502 -0.23789954501E+02  0.28489356597E+02  0.47526177328E+02  0.60302097027E+02  0.00000000000E+00 0. -1.
<mgrwt>
<rscale>  1 0.64524235E+03</rscale>
<asrwt>0</asrwt>
<pdfrwt beam="1">  1       21 0.24410418E-01 0.64524235E+03</pdfrwt>
<pdfrwt beam="2">0</pdfrwt>
<totfact> 0.15261959E+03</totfact>
</mgrwt>
</event>
<event>
 6    1  0.1439793E-004  0.6567604E+03  0.7818608E-02  0.9794176E-01
         21   -1    0    0  501  502  0.00000000000E+00  0.00000000000E+00  0.11595657577E+03  0.11595657577E+03  0.00000000000E+00 0.  1.
         13   -1    0    0    0    0 -0.00000000000E+00 -0.00000000000E+00 -0.10000000000E+04  0.10000000000E+04  0.00000000000E+00 0.  1.
    9000005    2    1    2  501    0 -0.15969358832E+02 -0.17765933877E+02 -0.84547755196E+03  0.10705916628E+04  0.65632580986E+03 0.  0.
         13    1    3    3    0    0 -0.12447598714E+03 -0.31383103343E+03 -0.49464114225E+03  0.59887732343E+03  0.00000000000E+00 0.  1.
          3    1    3    3  501    0  0.10850662831E+03  0.29606509955E+03 -0.35083640971E+03  0.47171433934E+03  0.00000000000E+00 0.  1.
         -3    1    1    2    0  502  0.15969358832E+02  0.17765933877E+02 -0.38565872266E+02  0.45364913002E+02  0.00000000000E+00 0. -1.
<mgrwt>
<rscale>  1 0.65676040E+03</rscale>
<asrwt>0</asrwt>
<pdfrwt beam="1">  1       21 0.17839473E-01 0.65676040E+03</pdfrwt>
<pdfrwt beam="2">0</pdfrwt>
<totfact> 0.27902596E+03</totfact>
</mgrwt>
</event>
<event>
 6    1  0.1439793E-004  0.6709199E+03  0.7818608E-02  0.9768297E-01
         21   -1    0    0  501  502  0.00000000000E+00  0.00000000000E+00  0.13515203542E+03  0.13515203542E+03  0.00000000000E+00 0.  1.
         13   -1    0    0    0    0 -0.00000000000E+00 -0.00000000000E+00 -0.10000000000E+04  0.10000000000E+04  0.00000000000E+00 0.  1.
    9000005    2    1    2  501    0  0.29769084879E+02 -0.11477021467E+02 -0.87413025206E+03  0.11019243166E+04  0.67016086243E+03 0.  0.
         13    1    3    3    0    0 -0.18343381805E+03  0.26084486795E+03 -0.49421245537E+03  0.58816150994E+03  0.00000000000E+00 0.  1.
          3    1    3    3  501    0  0.21320290293E+03 -0.27232188941E+03 -0.37991779669E+03  0.51376280667E+03  0.00000000000E+00 0.  1.
         -3    1    1    2    0  502 -0.29769084879E+02  0.11477021467E+02  0.92822874768E+01  0.33227718806E+02  0.00000000000E+00 0. -1.
<mgrwt>
<rscale>  1 0.67091989E+03</rscale>
<asrwt>0</asrwt>
<pdfrwt beam="1">  1       21 0.20792620E-01 0.67091989E+03</pdfrwt>
<pdfrwt beam="2">0</pdfrwt>
<totfact> 0.20810089E+03</totfact>
</mgrwt>
</event>
<event>
 6    1  0.1439793E-004  0.6666416E+03  0.7818608E-02  0.9776044E-01
         21   -1    0    0  501  502  0.00000000000E+00  0.00000000000E+00  0.46832346950E+03  0.46832346950E+03  0.00000000000E+00 0. -1.
         13   -1    0    0    0    0 -0.00000000000E+00 -0.00000000000E+00 -0.10000000000E+04  0.10000000000E+04  0.00000000000E+00 0.  1.
    9000005    2    1    2  501    0  0.58397278159E+02 -0.41684318686E+02 -0.88488830766E+03  0.11078981873E+04  0.66276938063E+03 0.  0.
         13    1    3    3    0    0 -0.25310849402E+03  0.10972868346E+03 -0.59648372073E+03  0.65718880302E+03  0.00000000000E+00 0.  1.
          1    1    3    3  501    0  0.31150577218E+03 -0.15141300215E+03 -0.28840458692E+03  0.45070938429E+03  0.00000000000E+00 0.  1.
         -3    1    1    2    0  502 -0.58397278159E+02  0.41684318686E+02  0.35321177715E+03  0.36042528219E+03  0.00000000000E+00 0. -1.
<mgrwt>
<rscale>  1 0.66664164E+03</rscale>
<asrwt>0</asrwt>
<pdfrwt beam="1">  1       21 0.72049762E-01 0.66664164E+03</pdfrwt>
<pdfrwt beam="2">0</pdfrwt>
<totfact> 0.15697777E+02</totfact>
</mgrwt>
</event>
<event>
 6    1  0.1439793E-004  0.6676944E+03  0.7818608E-02  0.9774132E-01
         21   -1    0    0  501  502  0.00000000000E+00  0.00000000000E+00  0.46635806296E+03  0.46635806296E+03  0.00000000000E+00 0. -1.
         13   -1    0    0    0    0 -0.00000000000E+00 -0.00000000000E+00 -0.10000000000E+04  0.10000000000E+04  0.00000000000E+00 0.  1.
    9000005    2    1    2  501    0 -0.11814252688E+02 -0.16934638118E+03 -0.86578758248E+03  0.10933453243E+04  0.64575389035E+03 0.  0.
         13    1    3    3    0    0 -0.21458790185E+03 -0.37818182102E+02 -0.25966427064E+02  0.21943663745E+03  0.00000000000E+00 0.  1.
          1    1    3    3  501    0  0.20277364917E+03 -0.13152819908E+03 -0.83982115542E+03  0.87390868690E+03  0.00000000000E+00 0.  1.
         -3    1    1    2    0  502  0.11814252688E+02  0.16934638118E+03  0.33214564544E+03  0.37301273862E+03  0.00000000000E+00 0. -1.
<mgrwt>
<rscale>  1 0.66769444E+03</rscale>
<asrwt>0</asrwt>
<pdfrwt beam="1">  1       21 0.71747392E-01 0.66769444E+03</pdfrwt>
<pdfrwt beam="2">0</pdfrwt>
<totfact> 0.15847260E+02</totfact>
</mgrwt>
</event>
<event>
 6    1  0.1439793E-004  0.6959025E+03  0.7818608E-02  0.9724265E-01
         21   -1    0    0  501  502  0.00000000000E+00  0.00000000000E+00  0.25403805516E+03  0.25403805516E+03  0.00000000000E+00 0.  1.
         13   -1    0    0    0    0 -0.00000000000E+00 -0.00000000000E+00 -0.10000000000E+04  0.10000000000E+04  0.00000000000E+00 0.  1.
    9000005    2    1    2  501    0 -0.14270381850E+03  0.15785174972E+03 -0.77234521333E+03  0.10396141023E+04  0.66256984420E+03 0.  0.
         13    1    3    3    0    0 -0.33275635657E+03  0.30673477139E+03 -0.46629917103E+03  0.64980607086E+03  0.00000000000E+00 0.  1.
          1    1    3    3  501    0  0.19005253807E+03 -0.14888302167E+03 -0.30604604230E+03  0.38980803144E+03  0.00000000000E+00 0.  1.
         -1    1    1    2    0  502  0.14270381850E+03 -0.15785174972E+03  0.26383268493E+02  0.21442395286E+03  0.00000000000E+00 0. -1.
<mgrwt>
<rscale>  1 0.69590255E+03</rscale>
<asrwt>0</asrwt>
<pdfrwt beam="1">  1       21 0.39082777E-01 0.69590255E+03</pdfrwt>
<pdfrwt beam="2">0</pdfrwt>
<totfact> 0.59048748E+02</totfact>
</mgrwt>
</event>
<event>
 6    1  0.1439793E-004  0.6500128E+03  0.7818608E-02  0.9806755E-01
         21   -1    0    0  501  502  0.00000000000E+00  0.00000000000E+00  0.28481539033E+03  0.28481539033E+03  0.00000000000E+00 0. -1.
         13   -1    0    0    0    0 -0.00000000000E+00 -0.00000000000E+00 -0.10000000000E+04  0.10000000000E+04  0.00000000000E+00 0.  1.
    9000005    2    1    2  501    0 -0.70663919458E+02 -0.58076703403E+02 -0.88135933428E+03  0.10951305673E+04  0.64354517349E+03 0.  0.
         13    1    3    3    0    0  0.22544933257E+03  0.75379687949E+02 -0.66150000517E+03  0.70291660654E+03  0.00000000000E+00 0.  1.
          3    1    3    3  501    0 -0.29611325202E+03 -0.13345639135E+03 -0.21985932911E+03  0.39221396076E+03  0.00000000000E+00 0.  1.
         -1    1    1    2    0  502  0.70663919458E+02  0.58076703403E+02  0.16617472461E+03  0.18968482304E+03  0.00000000000E+00 0. -1.
<mgrwt>
<rscale>  1 0.65001283E+03</rscale>
<asrwt>0</asrwt>
<pdfrwt beam="1">  1       21 0.43817751E-01 0.65001283E+03</pdfrwt>
<pdfrwt beam="2">0</pdfrwt>
<totfact> 0.46679448E+02</totfact>
</mgrwt>
</event>
<event>
 6    1  0.1439793E-004  0.6905336E+03  0.7818608E-02  0.9733559E-01
         21   -1    0    0  501  502  0.00000000000E+00  0.00000000000E+00  0.32427935224E+03  0.32427935224E+03  0.00000000000E+00 0. -1.
         13   -1    0    0    0    0 -0.00000000000E+00 -0.00000000000E+00 -0.10000000000E+04  0.10000000000E+04  0.00000000000E+00 0.  1.
    9000005    2    1    2  501    0 -0.21324131420E+03 -0.19227773189E+02 -0.81549857697E+03  0.10685853264E+04  0.65650217477E+03 0.  0.
         13    1    3    3    0    0 -0.23511480203E+03 -0.31433217924E+03 -0.50570775339E+03  0.64017499239E+03  0.00000000000E+00 0.  1.
          3    1    3    3  501    0  0.21873487828E+02  0.29510440605E+03 -0.30979082357E+03  0.42841033404E+03  0.00000000000E+00 0.  1.
         -1    1    1    2    0  502  0.21324131420E+03  0.19227773189E+02  0.13977792921E+03  0.25569402581E+03  0.00000000000E+00 0. -1.
<mgrwt>
<rscale>  1 0.69053361E+03</rscale>
<asrwt>0</asrwt>
<pdfrwt beam="1">  1       21 0.49889130E-01 0.69053361E+03</pdfrwt>
<pdfrwt beam="2">0</pdfrwt>
<totfact> 0.35306745E+02</totfact>
</mgrwt>
</event>
<event>
 6    1  0.1439793E-004  0.6609290E+03  0.7818608E-02  0.9786485E-01
         21   -1    0    0  501  502  0.00000000000E+00  0.00000000000E+00  0.21001027081E+03  0.21001027081E+03  0.00000000000E+00 0.  1.
         13   -1    0    0    0    0 -0.00000000000E+00 -0.00000000000E+00 -0.10000000000E+04  0.10000000000E+04  0.00000000000E+00 0.  1.
    9000005    2    1    2  501    0 -0.90978437563E+01 -0.22934499001E+02 -0.88911554348E+03  0.11078599450E+04  0.66046835358E+03 0.  0.
         13    1    3    3    0    0  0.26844632402E+03  0.16476545920E+03 -0.33115481009E+03  0.45702800097E+03  0.00000000000E+00 0.  1.
          3    1    3    3  501    0 -0.27754416777E+03 -0.18769995820E+03 -0.55796073339E+03  0.65083194403E+03  0.00000000000E+00 0.  1.
         -1    1    1    2    0  502  0.90978437563E+01  0.22934499001E+02  0.99125814285E+02  0.10215032581E+03  0.00000000000E+00 0. -1.
<mgrwt>
<rscale>  1 0.66092905E+03</rscale>
<asrwt>0</asrwt>
<pdfrwt beam="1">  1       21 0.32309272E-01 0.66092905E+03</pdfrwt>
<pdfrwt beam="2">0</pdfrwt>
<totfact> 0.87359021E+02</totfact>
</mgrwt>
</event>
<event>
 6    1  0.1439793E-004  0.6589850E+03  0.7818608E-02  0.9790064E-01
         21   -1    0    0  501  502  0.00000000000E+00  0.00000000000E+00  0.14623818095E+03  0.14623818095E+03  0.00000000000E+00 0.  1.
         13   -1    0    0    0    0 -0.00000000000E+00 -0.00000000000E+00 -0.10000000000E+04  0.10000000000E+04  0.00000000000E+00 0.  1.
    9000005    2    1    2  501    0  0.96122717322E+02  0.10782005865E+02 -0.79675636798E+03  0.10339641862E+04  0.65184768164E+03 0.  0.
         13    1    3    3    0    0  0.21067288682E+03  0.88271478010E+02 -0.31936096664E+01  0.22844062295E+03  0.00000000000E+00 0.  1.
          3    1    3    3  501    0 -0.11455016950E+03 -0.77489472146E+02 -0.79356275832E+03  0.80552356329E+03  0.00000000000E+00 0.  1.
         -1    1    1    2    0  502 -0.96122717322E+02 -0.10782005865E+02 -0.57005451071E+02  0.11227399471E+03  0.00000000000E+00 0. -1.
<mgrwt>
<rscale>  1 0.65898500E+03</rscale>
<asrwt>0</asrwt>
<pdfrwt beam="1">  1       21 0.22498181E-01 0.65898500E+03</pdfrwt>
<pdfrwt beam="2">0</pdfrwt>
<totfact> 0.17877949E+03</totfact>
</mgrwt>
</event>
<event>
 6    1  0.1439793E-004  0.6431034E+03  0.7818608E-02  0.9819807E-01
         21   -1    0    0  501  502  0.00000000000E+00  0.00000000000E+00  0.15247744495E+03  0.15247744495E+03  0.00000000000E+00 0. -1.
         13   -1    0    0    0    0 -0.00000000000E+00 -0.00000000000E+00 -0.10000000000E+04  0.10000000000E+04  0.00000000000E+00 0.  1.
    9000005    2    1    2  501    0 -0.57606272325E+01 -0.22262612144E+02 -0.89361466114E+03  0.11009673394E+04  0.64269208117E+03 0.  0.
         13    1    3    3    0    0  0.15527647744E+03  0.26593178090E+03 -0.50013792978E+03  0.58734014450E+03  0.00000000000E+00 0.  1.
          1    1    3    3  501    0 -0.16103710467E+03 -0.28819439305E+03 -0.39347673136E+03  0.51362719494E+03  0.00000000000E+00 0.  1.
         -1    1    1    2    0  502  0.57606272325E+01  0.22262612144E+02  0.46092106088E+02  0.51510105506E+02  0.00000000000E+00 0. -1.
<mgrwt>
<rscale>  1 0.64310335E+03</rscale>
<asrwt>0</asrwt>
<pdfrwt beam="1">  1       21 0.23458068E-01 0.64310335E+03</pdfrwt>
<pdfrwt beam="2">0</pdfrwt>
<totfact> 0.16495960E+03</totfact>
</mgrwt>
</event>
<event>
 6    1  0.1439793E-004  0.6553375E+03  0.7818608E-02  0.9796815E-01
         21   -1    0    0  501  502  0.00000000000E+00  0.00000000000E+00  0.17162055103E+03  0.17162055103E+03  0.00000000000E+00 0. -1.
         13   -1    0    0    0    0 -0.00000000000E+00 -0.00000000000E+00 -0.10000000000E+04  0.10000000000E+04  0.00000000000E+00 0.  1.
    9000005    2    1    2  501    0 -0.19780323486E+02  0.48416163728E+02 -0.88061497568E+03  0.10977021071E+04  0.65324711586E+03 0.  0.
         13    1    3    3    0    0  0.10197623544E+03  0.18902637399E+03 -0.88596330060E+03  0.91162552216E+03  0.00000000000E+00 0.  1.
          3    1    3    3  501    0 -0.12175655893E+03 -0.14061021026E+03  0.53483249203E+01  0.18607658491E+03  0.00000000000E+00 0.  1.
         -1    1    1    2    0  502  0.19780323486E+02 -0.48416163728E+02  0.52235526707E+02  0.73918443962E+02  0.00000000000E+00 0. -1.
<mgrwt>
<rscale>  1 0.65533746E+03</rscale>
<asrwt>0</asrwt>
<pdfrwt beam="1">  1       21 0.26403161E-01 0.65533746E+03</pdfrwt>
<pdfrwt beam="2">0</pdfrwt>
<totfact> 0.13075650E+03</totfact>
</mgrwt>
</event>
<event>
 6    1  0.1439793E-004  0.7351914E+03  0.7818608E-02  0.9658873E-01
         21   -1    0    0  501  502  0.00000000000E+00  0.00000000000E+00  0.48075486835E+03  0.48075486835E+03  0.00000000000E+00 0. -1.
         13   -1    0    0    0    0 -0.00000000000E+00 -0.00000000000E+00 -0.10000000000E+04  0.10000000000E+04  0.00000000000E+00 0.  1.
    9000005    2    1    2  501    0  0.41511314573E+03 -0.37152282188E+01 -0.71164790980E+03  0.10232053566E+04  0.60677320930E+03 0.  0.
         13    1    3    3    0    0 -0.32619266452E+02 -0.17378888015E+03 -0.43625588624E+03  0.47072899813E+03  0.00000000000E+00 0.  1.
          1    1    3    3  501    0  0.44773241218E+03  0.17007365193E+03 -0.27539202357E+03  0.55247635845E+03  0.00000000000E+00 0.  1.
         -1    1    1    2    0  502 -0.41511314573E+03  0.37152282188E+01  0.19240277815E+03  0.45754951177E+03  0.00000000000E+00 0. -1.
<mgrwt>
<rscale>  1 0.73519144E+03</rscale>
<asrwt>0</asrwt>
<pdfrwt beam="1">  1       21 0.73962285E-01 0.73519144E+03</pdfrwt>
<pdfrwt beam="2">0</pdfrwt>
<totfact> 0.14667617E+02</totfact>
</mgrwt>
</event>
<event>
 6    1  0.1439793E-004  0.6965182E+03  0.7818608E-02  0.9723205E-01
         21   -1    0    0  501  502  0.00000000000E+00  0.00000000000E+00  0.20861163977E+03  0.20861163977E+03  0.00000000000E+00 0.  1.
         13   -1    0    0    0    0 -0.00000000000E+00 -0.00000000000E+00 -0.10000000000E+04  0.10000000000E+04  0.00000000000E+00 0.  1.
    9000005    2    1    2  501    0  0.90927614928E+02 -0.16178380792E+03 -0.73957897929E+03  0.10159304429E+04  0.67133878675E+03 0.  0.
         13    1    3    3    0    0  0.28254937595E+02  0.21285761263E+02 -0.80943440113E+03  0.81020705678E+03  0.00000000000E+00 0.  1.
          3    1    3    3  501    0  0.62672677333E+02 -0.18306956919E+03  0.69855421837E+02  0.20572338614E+03  0.00000000000E+00 0.  1.
         -1    1    1    2    0  502 -0.90927614928E+02  0.16178380792E+03 -0.51809380942E+02  0.19268119684E+03  0.00000000000E+00 0. -1.
<mgrwt>
<rscale>  1 0.69651820E+03</rscale>
<asrwt>0</asrwt>
<pdfrwt beam="1">  1       21 0.32094098E-01 0.69651820E+03</pdfrwt>
<pdfrwt beam="2">0</pdfrwt>
<totfact> 0.88343102E+02</totfact>
</mgrwt>
</event>
<event>
 6    1  0.1439793E-004  0.6127837E+03  0.7818608E-02  0.9879233E-01
         21   -1    0    0  501  502  0.00000000000E+00  0.00000000000E+00  0.10897081312E+03  0.10897081312E+03  0.00000000000E+00 0.  1.
         13   -1    0    0    0    0 -0.00000000000E+00 -0.00000000000E+00 -0.10000000000E+04  0.10000000000E+04  0.00000000000E+00 0.  1.
    9000005    2    1    2  501    0  0.28462640469E+02 -0.37941006524E+02 -0.82733704755E+03  0.10295584055E+04  0.61094539699E+03 0.  0.
         13    1    3    3    0    0  0.26880392715E+03  0.12032682134E+03 -0.25760090530E+03  0.39127013890E+03  0.00000000000E+00 0.  1.
          3    1    3    3  501    0 -0.24034128668E+03 -0.15826782786E+03 -0.56973614226E+03  0.63828826655E+03  0.00000000000E+00 0.  1.
         -3    1    1    2    0  502 -0.28462640469E+02  0.37941006524E+02 -0.63692139331E+02  0.79412407664E+02  0.00000000000E+00 0. -1.
<mgrwt>
<rscale>  1 0.61278375E+03</rscale>
<asrwt>0</asrwt>
<pdfrwt beam="1">  1       21 0.16764740E-01 0.61278375E+03</pdfrwt>
<pdfrwt beam="2">0</pdfrwt>
<totfact> 0.31423545E+03</totfact>
</mgrwt>
</event>
<event>
 6    1  0.1439793E-004  0.7548910E+03  0.7818608E-02  0.9627708E-01
         21   -1    0    0  501  502  0.00000000000E+00  0.00000000000E+00  0.34988089965E+03  0.34988089965E+03  0.00000000000E+00 0. -1.
         13   -1    0    0    0    0 -0.00000000000E+00 -0.00000000000E+00 -0.10000000000E+04  0.10000000000E+04  0.00000000000E+00 0.  1.
    9000005    2    1    2  501    0 -0.37495894468E+03 -0.31173837574E+02 -0.61180610977E+03  0.97168266646E+03  0.65444210593E+03 0.  0.
         13    1    3    3    0    0 -0.90483402480E+02 -0.31341845624E+03 -0.40713590085E+03  0.52170683012E+03  0.00000000000E+00 0.  1.
          1    1    3    3  501    0 -0.28447554219E+03  0.28224461866E+03 -0.20467020891E+03  0.44997583634E+03  0.00000000000E+00 0.  1.
         -3    1    1    2    0  502  0.37495894468E+03  0.31173837574E+02 -0.38312990578E+02  0.37819823319E+03  0.00000000000E+00 0. -1.
<mgrwt>
<rscale>  1 0.75489104E+03</rscale>
<asrwt>0</asrwt>
<pdfrwt beam="1">  1       21 0.53827829E-01 0.75489104E+03</pdfrwt>
<pdfrwt beam="2">0</pdfrwt>
<totfact> 0.29792761E+02</totfact>
</mgrwt>
</event>
<event>
 6    1  0.1439793E-004  0.6537684E+03  0.7818608E-02  0.9799734E-01
         21   -1    0    0  501  502  0.00000000000E+00  0.00000000000E+00  0.65928148598E+03  0.65928148598E+03  0.00000000000E+00 0. -1.
         13   -1    0    0    0    0 -0.00000000000E+00 -0.00000000000E+00 -0.10000000000E+04  0.10000000000E+04  0.00000000000E+00 0.  1.
    9000005    2    1    2  501    0  0.28403491309E+02  0.51956476723E+02 -0.89138961097E+03  0.11054359382E+04  0.65108136288E+03 0.  0.
         13    1    3    3    0    0 -0.50746319157E+02 -0.31247378747E+02  0.95129672390E+02  0.11225525447E+03  0.00000000000E+00 0.  1.
          1    1    3    3  501    0  0.79149810466E+02  0.83203855470E+02 -0.98651928336E+03  0.99318068372E+03  0.00000000000E+00 0.  1.
         -3    1    1    2    0  502 -0.28403491309E+02 -0.51956476723E+02  0.55067109695E+03  0.55384554779E+03  0.00000000000E+00 0. -1.
<mgrwt>
<rscale>  1 0.65376844E+03</rscale>
<asrwt>0</asrwt>
<pdfrwt beam="1">  1       21 0.10142792E+00 0.65376844E+03</pdfrwt>
<pdfrwt beam="2">0</pdfrwt>
<totfact> 0.69995474E+01</totfact>
</mgrwt>
</event>
<event>
 6    1  0.1439793E-004  0.6634529E+03  0.7818608E-02  0.9781858E-01
         21   -1    0    0  501  502  0.00000000000E+00  0.00000000000E+00  0.38777960049E+03  0.38777960049E+03  0.00000000000E+00 0. -1.
         13   -1    0    0    0    0 -0.00000000000E+00 -0.00000000000E+00 -0.10000000000E+04  0.10000000000E+04  0.00000000000E+00 0.  1.
    9000005    2    1    2  501    0 -0.34951404330E+02  0.56313067538E+02 -0.88555974013E+03  0.11065196542E+04  0.66013402398E+03 0.  0.
         13    1    3    3    0    0 -0.34489403701E+03  0.25712963852E+02 -0.39045760476E+03  0.52160348388E+03  0.00000000000E+00 0.  1.
          1    1    3    3  501    0  0.30994263268E+03  0.30600103686E+02 -0.49510213537E+03  0.58491617035E+03  0.00000000000E+00 0.  1.
         -1    1    1    2    0  502  0.34951404330E+02 -0.56313067538E+02  0.27333934062E+03  0.28125994626E+03  0.00000000000E+00 0. -1.
<mgrwt>
<rscale>  1 0.66345286E+03</rscale>
<asrwt>0</asrwt>
<pdfrwt beam="1">  1       21 0.59658398E-01 0.66345286E+03</pdfrwt>
<pdfrwt beam="2">0</pdfrwt>
<totfact> 0.23990014E+02</totfact>
</mgrwt>
</event>
<event>
 6    1  0.1439793E-004  0.6644114E+03  0.7818608E-02  0.9780107E-01
         21   -1    0    0  501  502  0.00000000000E+00  0.00000000000E+00  0.17555806492E+03  0.17555806492E+03  0.00000000000E+00 0.  1.
         13   -1    0    0    0    0 -0.00000000000E+00 -0.00000000000E+00 -0.10000000000E+04  0.10000000000E+04  0.00000000000E+00 0.  1.
    9000005    2    1    2  501    0 -0.68553088401E+02  0.12126384816E+02 -0.86825455873E+03  0.10933016297E+04  0.66075403873E+03 0.  0.
         13    1    3    3    0    0 -0.15168026777E+03 -0.25764713870E+03 -0.17897163637E+03  0.34845343783E+03  0.00000000000E+00 0.  1.
          1    1    3    3  501    0  0.83127179374E+02  0.26977352351E+03 -0.68928292235E+03  0.74484819191E+03  0.00000000000E+00 0.  1.
         -3    1    1    2    0  502  0.68553088401E+02 -0.12126384816E+02  0.43812623650E+02  0.82256435184E+02  0.00000000000E+00 0. -1.
<mgrwt>
<rscale>  1 0.66441137E+03</rscale>
<asrwt>0</asrwt>
<pdfrwt beam="1">  1       21 0.27008932E-01 0.66441137E+03</pdfrwt>
<pdfrwt beam="2">0</pdfrwt>
<totfact> 0.12496653E+03</totfact>
</mgrwt>
</event>
<event>
 6    1  0.1439793E-004  0.6565972E+03  0.7818608E-02  0.9794478E-01
         21   -1    0    0  501  502  0.00000000000E+00  0.00000000000E+00  0.14274330827E+03  0.14274330827E+03  0.00000000000E+00 0.  1.
         13   -1    0    0    0    0 -0.00000000000E+00 -0.00000000000E+00 -0.10000000000E+04  0.10000000000E+04  0.00000000000E+00 0.  1.
    9000005    2    1    2  501    0  0.56109101031E+01  0.89880277960E+02 -0.80428090141E+03  0.10382618217E+04  0.65039210890E+03 0.  0.
         13    1    3    3    0    0  0.25067756757E+03 -0.14398479518E+03 -0.52458723726E+03  0.59896797379E+03  0.00000000000E+00 0.  1.
          3    1    3    3  501    0 -0.24506665747E+03  0.23386507314E+03 -0.27969366415E+03  0.43929384790E+03  0.00000000000E+00 0.  1.
         -1    1    1    2    0  502 -0.56109101031E+01 -0.89880277960E+02 -0.52975790324E+02  0.10448148658E+03  0.00000000000E+00 0. -1.
<mgrwt>
<rscale>  1 0.65659717E+03</rscale>
<asrwt>0</asrwt>
<pdfrwt beam="1">  1       21 0.21960508E-01 0.65659717E+03</pdfrwt>
<pdfrwt beam="2">0</pdfrwt>
<totfact> 0.18737796E+03</totfact>
</mgrwt>
</event>
<event>
 6    1  0.1439793E-004  0.7148507E+03  0.7818608E-02  0.9692167E-01
         21   -1    0    0  501  502  0.00000000000E+00  0.00000000000E+00  0.34278116027E+03  0.34278116027E+03  0.00000000000E+00 0. -1.
         13   -1    0    0    0    0 -0.00000000000E+00 -0.00000000000E+00 -0.10000000000E+04  0.10000000000E+04  0.00000000000E+00 0.  1.
    9000005    2    1    2  501    0  0.54928145208E+02  0.58098308158E+02 -0.86382066152E+03  0.11212482568E+04  0.71036540147E+03 0.  0.
         13    1    3    3    0    0 -0.11522366319E+03  0.33672829836E+03 -0.28195482813E+03  0.45404951776E+03  0.00000000000E+00 0.  1.
          3    1    3    3  501    0  0.17015180839E+03 -0.27862999020E+03 -0.58186583339E+03  0.66719873906E+03  0.00000000000E+00 0.  1.
         -3    1    1    2    0  502 -0.54928145208E+02 -0.58098308158E+02  0.20660182178E+03  0.22153290345E+03  0.00000000000E+00 0. -1.
<mgrwt>
<rscale>  1 0.71485070E+03</rscale>
<asrwt>0</asrwt>
<pdfrwt beam="1">  1       21 0.52735562E-01 0.71485070E+03</pdfrwt>
<pdfrwt beam="2">0</pdfrwt>
<totfact> 0.31257559E+02</totfact>
</mgrwt>
</event>
<event>
 6    1  0.1439793E-004  0.6425606E+03  0.7818608E-02  0.9820840E-01
         21   -1    0    0  501  502  0.00000000000E+00  0.00000000000E+00  0.14857164534E+03  0.14857164534E+03  0.00000000000E+00 0.  1.
         13   -1    0    0    0    0 -0.00000000000E+00 -0.00000000000E+00 -0.10000000000E+04  0.10000000000E+04  0.00000000000E+00 0.  1.
    9000005    2    1    2  501    0  0.89088615488E+01 -0.68900975411E+02 -0.86523712739E+03  0.10777380768E+04  0.63879367824E+03 0.  0.
         13    1    3    3    0    0 -0.20810478184E+03 -0.11349555415E+03 -0.62716886051E+02  0.24519838669E+03  0.00000000000E+00 0.  1.
          3    1    3    3  501    0  0.21701364339E+03  0.44594578743E+02 -0.80252024134E+03  0.83253969012E+03  0.00000000000E+00 0.  1.
         -3    1    1    2    0  502 -0.89088615488E+01  0.68900975411E+02  0.13808772737E+02  0.70833568534E+02  0.00000000000E+00 0. -1.
<mgrwt>
<rscale>  1 0.64256056E+03</rscale>
<asrwt>0</asrwt>
<pdfrwt beam="1">  1       21 0.22857176E-01 0.64256056E+03</pdfrwt>
<pdfrwt beam="2">0</pdfrwt>
<totfact> 0.17350168E+03</totfact>
</mgrwt>
</event>
<event>
 6    1  0.1439793E-004  0.6548818E+03  0.7818608E-02  0.9797662E-01
         21   -1    0    0  501  502  0.00000000000E+00  0.00000000000E+00  0.15534139296E+03  0.15534139296E+03  0.00000000000E+00 0.  1.
         13   -1    0    0    0    0 -0.00000000000E+00 -0.00000000000E+00 -0.10000000000E+04  0.10000000000E+04  0.00000000000E+00 0.  1.
    9000005    2    1    2  501    0 -0.68468114607E+02 -0.95078717882E+02 -0.78973990873E+03  0.10259431366E+04  0.64431541257E+03 0.  0.
         13    1    3    3    0    0 -0.12969030263E+03 -0.32961953956E+03 -0.66470826435E+03  0.75319698097E+03  0.00000000000E+00 0.  1.
          3    1    3    3  501    0  0.61222188026E+02  0.23454082167E+03 -0.12503164439E+03  0.27274615568E+03  0.00000000000E+00 0.  1.
         -3    1    1    2    0  502  0.68468114607E+02  0.95078717882E+02 -0.54918698310E+02  0.12939825631E+03  0.00000000000E+00 0. -1.
<mgrwt>
<rscale>  1 0.65488182E+03</rscale>
<asrwt>0</asrwt>
<pdfrwt beam="1">  1       21 0.23898675E-01 0.65488182E+03</pdfrwt>
<pdfrwt beam="2">0</pdfrwt>
<totfact> 0.15899140E+03</totfact>
</mgrwt>
</event>
<event>
 6    1  0.1439793E-004  0.6487885E+03  0.7818608E-02  0.9809055E-01
         21   -1    0    0  501  502  0.00000000000E+00  0.00000000000E+00  0.12940831331E+03  0.12940831331E+03  0.00000000000E+00 0.  1.
         13   -1    0    0    0    0 -0.00000000000E+00 -0.00000000000E+00 -0.10000000000E+04  0.10000000000E+04  0.00000000000E+00 0.  1.
    9000005    2    1    2  501    0  0.26237406894E+02 -0.13733828860E+02 -0.88430081481E+03  0.10967745920E+04  0.64811230114E+03 0.  0.
         13    1    3    3    0    0 -0.11129336776E+03  0.53633666125E+02 -0.92904869491E+03  0.93722689962E+03  0.00000000000E+00 0.  1.
          3    1    3    3  501    0  0.13753077465E+03 -0.67367494985E+02  0.44747880096E+02  0.15954769234E+03  0.00000000000E+00 0.  1.
         -1    1    1    2    0  502 -0.26237406894E+02  0.13733828860E+02  0.13709128122E+02  0.32633721356E+02  0.00000000000E+00 0. -1.
<mgrwt>
<rscale>  1 0.64878854E+03</rscale>
<asrwt>0</asrwt>
<pdfrwt beam="1">  1       21 0.19908971E-01 0.64878854E+03</pdfrwt>
<pdfrwt beam="2">0</pdfrwt>
<totfact> 0.22640739E+03</totfact>
</mgrwt>
</event>
<event>
 6    1  0.1439793E-004  0.6907367E+03  0.7818608E-02  0.9733206E-01
         21   -1    0    0  501  502  0.00000000000E+00  0.00000000000E+00  0.21296469781E+03  0.21296469781E+03  0.00000000000E+00 0. -1.
         13   -1    0    0    0    0 -0.00000000000E+00 -0.00000000000E+00 -0.10000000000E+04  0.10000000000E+04  0.00000000000E+00 0.  1.
    9000005    2    1    2  501    0 -0.13853632792E+03  0.18101092776E+03 -0.64041879623E+03  0.94194132255E+03  0.65204290537E+03 0.  0.
         13    1    3    3    0    0 -0.12508051331E+03  0.36916461241E+03 -0.64457352159E+03  0.75326135611E+03  0.00000000000E+00 0.  1.
          1    1    3    3  501    0 -0.13455814604E+02 -0.18815368465E+03  0.41547253644E+01  0.18867996645E+03  0.00000000000E+00 0.  1.
         -3    1    1    2    0  502  0.13853632792E+03 -0.18101092776E+03 -0.14661650596E+03  0.27102337526E+03  0.00000000000E+00 0. -1.
<mgrwt>
<rscale>  1 0.69073672E+03</rscale>
<asrwt>0</asrwt>
<pdfrwt beam="1">  1       21 0.32763799E-01 0.69073672E+03</pdfrwt>
<pdfrwt beam="2">0</pdfrwt>
<totfact> 0.84759689E+02</totfact>
</mgrwt>
</event>
<event>
 6    1  0.1439793E-004  0.6702632E+03  0.7818608E-02  0.9769482E-01
         21   -1    0    0  501  502  0.00000000000E+00  0.00000000000E+00  0.12035851375E+03  0.12035851375E+03  0.00000000000E+00 0.  1.
         13   -1    0    0    0    0 -0.00000000000E+00 -0.00000000000E+00 -0.10000000000E+04  0.10000000000E+04  0.00000000000E+00 0.  1.
    9000005    2    1    2  501    0 -0.27268342114E+01 -0.23230096654E+02 -0.85462756076E+03  0.10861127916E+04  0.66985495110E+03 0.  0.
         13    1    3    3    0    0 -0.59900213800E+02 -0.28509402316E+03 -0.73872993440E+03  0.79409606071E+03  0.00000000000E+00 0.  1.
          3    1    3    3  501    0  0.57173379589E+02  0.26186392651E+03 -0.11589762636E+03  0.29201673091E+03  0.00000000000E+00 0.  1.
         -1    1    1    2    0  502  0.27268342114E+01  0.23230096654E+02 -0.25013925490E+02  0.34245722124E+02  0.00000000000E+00 0. -1.
<mgrwt>
<rscale>  1 0.67026318E+03</rscale>
<asrwt>0</asrwt>
<pdfrwt beam="1">  1       21 0.18516694E-01 0.67026318E+03</pdfrwt>
<pdfrwt beam="2">0</pdfrwt>
<totfact> 0.25984050E+03</totfact>
</mgrwt>
</event>
<event>
 6    1  0.1439793E-004  0.6239340E+03  0.7818608E-02  0.9856958E-01
         21   -1    0    0  501  502  0.00000000000E+00  0.00000000000E+00  0.11064342014E+03  0.11064342014E+03  0.00000000000E+00 0.  1.
         13   -1    0    0    0    0 -0.00000000000E+00 -0.00000000000E+00 -0.10000000000E+04  0.10000000000E+04  0.00000000000E+00 0.  1.
    9000005    2    1    2  501    0  0.12758726257E+02 -0.35524831633E+02 -0.86160300304E+03  0.10637919550E+04  0.62279112866E+03 0.  0.
         13    1    3    3    0    0 -0.98028344292E+02 -0.71869120045E+02 -0.92371883670E+03  0.93168192855E+03  0.00000000000E+00 0.  1.
          1    1    3    3  501    0  0.11078707055E+03  0.36344288412E+02  0.62115833663E+02  0.13211002647E+03  0.00000000000E+00 0.  1.
         -1    1    1    2    0  502 -0.12758726257E+02  0.35524831633E+02 -0.27753576821E+02  0.46851465128E+02  0.00000000000E+00 0. -1.
<mgrwt>
<rscale>  1 0.62393396E+03</rscale>
<asrwt>0</asrwt>
<pdfrwt beam="1">  1       21 0.17022064E-01 0.62393396E+03</pdfrwt>
<pdfrwt beam="2">0</pdfrwt>
<totfact> 0.30523323E+03</totfact>
</mgrwt>
</event>
<event>
 6    1  0.1439793E-004  0.6242461E+03  0.7818608E-02  0.9856342E-01
         21   -1    0    0  501  502  0.00000000000E+00  0.00000000000E+00  0.18068539241E+03  0.18068539241E+03  0.00000000000E+00 0.  1.
         13   -1    0    0    0    0 -0.00000000000E+00 -0.00000000000E+00 -0.10000000000E+04  0.10000000000E+04  0.00000000000E+00 0.  1.
    9000005    2    1    2  501    0  0.17319068692E+03  0.11106719341E+02 -0.78639886694E+03  0.10040450255E+04  0.59963727536E+03 0.  0.
         13    1    3    3    0    0  0.16720710173E+03  0.23894552616E+02  0.43186575003E+02  0.17433945272E+03  0.00000000000E+00 0.  1.
          1    1    3    3  501    0  0.59835851836E+01 -0.12787833275E+02 -0.82958544194E+03  0.82970557275E+03  0.00000000000E+00 0.  1.
         -3    1    1    2    0  502 -0.17319068692E+03 -0.11106719341E+02 -0.32915740650E+02  0.17664036694E+03  0.00000000000E+00 0. -1.
<mgrwt>
<rscale>  1 0.62424613E+03</rscale>
<asrwt>0</asrwt>
<pdfrwt beam="1">  1       21 0.27797752E-01 0.62424613E+03</pdfrwt>
<pdfrwt beam="2">0</pdfrwt>
<totfact> 0.11831574E+03</totfact>
</mgrwt>
</event>
<event>
 6    1  0.1439793E-004  0.6435648E+03  0.7818608E-02  0.9818930E-01
         21   -1    0    0  501  502  0.00000000000E+00  0.00000000000E+00  0.13110053521E+03  0.13110053521E+03  0.00000000000E+00 0.  1.
         13   -1    0    0    0    0 -0.00000000000E+00 -0.00000000000E+00 -0.10000000000E+04  0.10000000000E+04  0.00000000000E+00 0.  1.
    9000005    2    1    2  501    0 -0.30798170696E+02  0.47854478300E+02 -0.85899746378E+03  0.10733369824E+04  0.64104372437E+03 0.  0.
         13    1    3    3    0    0  0.32961028045E+02  0.27744827957E+02  0.10163044521E+03  0.11038547115E+03  0.00000000000E+00 0.  1.
          1    1    3    3  501    0 -0.63759198741E+02  0.20109650343E+02 -0.96062790899E+03  0.96295151123E+03  0.00000000000E+00 0.  1.
         -1    1    1    2    0  502  0.30798170696E+02 -0.47854478300E+02 -0.99020010062E+01  0.57763552830E+02  0.00000000000E+00 0. -1.
<mgrwt>
<rscale>  1 0.64356479E+03</rscale>
<asrwt>0</asrwt>
<pdfrwt beam="1">  1       21 0.20169313E-01 0.64356479E+03</pdfrwt>
<pdfrwt beam="2">0</pdfrwt>
<totfact> 0.22088177E+03</totfact>
</mgrwt>
</event>
<event>
 6    1  0.1439793E-004  0.6427612E+03  0.7818608E-02  0.9820458E-01
         21   -1    0    0  501  502  0.00000000000E+00  0.00000000000E+00  0.11637503843E+03  0.11637503843E+03  0.00000000000E+00 0.  1.
         13   -1    0    0    0    0 -0.00000000000E+00 -0.00000000000E+00 -0.10000000000E+04  0.10000000000E+04  0.00000000000E+00 0.  1.
    9000005    2    1    2  501    0  0.30767785185E+02  0.12188307725E+02 -0.86718666530E+03  0.10794233262E+04  0.64190871101E+03 0.  0.
         13    1    3    3    0    0 -0.27336196148E+03  0.14638224923E+03 -0.40338693425E+03  0.50879813639E+03  0.00000000000E+00 0.  1.
          1    1    3    3  501    0  0.30412974666E+03 -0.13419394151E+03 -0.46379973105E+03  0.57062518983E+03  0.00000000000E+00 0.  1.
         -1    1    1    2    0  502 -0.30767785185E+02 -0.12188307725E+02 -0.16438296271E+02  0.36951712202E+02  0.00000000000E+00 0. -1.
<mgrwt>
<rscale>  1 0.64276123E+03</rscale>
<asrwt>0</asrwt>
<pdfrwt beam="1">  1       21 0.17903852E-01 0.64276123E+03</pdfrwt>
<pdfrwt beam="2">0</pdfrwt>
<totfact> 0.27725399E+03</totfact>
</mgrwt>
</event>
<event>
 6    1  0.1439793E-004  0.6809678E+03  0.7818608E-02  0.9750345E-01
         21   -1    0    0  501  502  0.00000000000E+00  0.00000000000E+00  0.23461215629E+03  0.23461215629E+03  0.00000000000E+00 0. -1.
         13   -1    0    0    0    0 -0.00000000000E+00 -0.00000000000E+00 -0.10000000000E+04  0.10000000000E+04  0.00000000000E+00 0.  1.
    9000005    2    1    2  501    0 -0.19965541499E+03 -0.73556145576E+02 -0.76182343461E+03  0.10218082646E+04  0.64687277952E+03 0.  0.
         13    1    3    3    0    0 -0.31334934818E+03 -0.19716809528E+03 -0.76924382197E+03  0.85369732894E+03  0.00000000000E+00 0.  1.
          1    1    3    3  501    0  0.11369393319E+03  0.12361194970E+03  0.74203873596E+01  0.16811093570E+03  0.00000000000E+00 0.  1.
         -3    1    1    2    0  502  0.19965541499E+03  0.73556145576E+02 -0.35644091024E+01  0.21280389164E+03  0.00000000000E+00 0. -1.
<mgrwt>
<rscale>  1 0.68096783E+03</rscale>
<asrwt>0</asrwt>
<pdfrwt beam="1">  1       21 0.36094177E-01 0.68096783E+03</pdfrwt>
<pdfrwt beam="2">0</pdfrwt>
<totfact> 0.69637249E+02</totfact>
</mgrwt>
</event>
<event>
 6    1  0.1439793E-004  0.6539396E+03  0.7818608E-02  0.9799415E-01
         21   -1    0    0  501  502  0.00000000000E+00  0.00000000000E+00  0.12545847622E+03  0.12545847622E+03  0.00000000000E+00 0.  1.
         13   -1    0    0    0    0 -0.00000000000E+00 -0.00000000000E+00 -0.10000000000E+04  0.10000000000E+04  0.00000000000E+00 0.  1.
    9000005    2    1    2  501    0 -0.25287067593E+02  0.36032999194E+02 -0.85716571161E+03  0.10781326728E+04  0.65245627457E+03 0.  0.
         13    1    3    3    0    0 -0.81926972671E+02  0.27646549761E+03 -0.75970596970E+03  0.81258744798E+03  0.00000000000E+00 0.  1.
          3    1    3    3  501    0  0.56639905078E+02 -0.24043249841E+03 -0.97459741905E+02  0.26554522483E+03  0.00000000000E+00 0.  1.
         -1    1    1    2    0  502  0.25287067593E+02 -0.36032999194E+02 -0.17375812175E+02  0.47325803396E+02  0.00000000000E+00 0. -1.
<mgrwt>
<rscale>  1 0.65393960E+03</rscale>
<asrwt>0</asrwt>
<pdfrwt beam="1">  1       21 0.19301303E-01 0.65393960E+03</pdfrwt>
<pdfrwt beam="2">0</pdfrwt>
<totfact> 0.24020016E+03</totfact>
</mgrwt>
</event>
<event>
 6    1  0.1439793E-004  0.7838654E+03  0.7818608E-02  0.9583669E-01
         21   -1    0    0  501  502  0.00000000000E+00  0.00000000000E+00  0.12528388071E+04  0.12528388071E+04  0.00000000000E+00 0. -1.
         13   -1    0    0    0    0 -0.00000000000E+00 -0.00000000000E+00 -0.10000000000E+04  0.10000000000E+04  0.00000000000E+00 0.  1.
    9000005    2    1    2  501    0 -0.39805427053E+03 -0.17676739087E+03 -0.79599860281E+03  0.11171655155E+04  0.65172931548E+03 0.  0.
         13    1    3    3    0    0 -0.11948288407E+03 -0.40358089042E+03 -0.37483702579E+03  0.56361022932E+03  0.00000000000E+00 0.  1.
          1    1    3    3  501    0 -0.27857138646E+03  0.22681349954E+03 -0.42116157702E+03  0.55355528621E+03  0.00000000000E+00 0.  1.
         -1    1    1    2    0  502  0.39805427053E+03  0.17676739087E+03  0.10488374099E+04  0.11356732916E+04  0.00000000000E+00 0. -1.
<mgrwt>
<rscale>  1 0.78386543E+03</rscale>
<asrwt>0</asrwt>
<pdfrwt beam="1">  1       21 0.19274443E+00 0.78386543E+03</pdfrwt>
<pdfrwt beam="2">0</pdfrwt>
<totfact> 0.11951725E+01</totfact>
</mgrwt>
</event>
<event>
 6    1  0.1439793E-004  0.6628296E+03  0.7818608E-02  0.9782999E-01
         21   -1    0    0  501  502  0.00000000000E+00  0.00000000000E+00  0.13413340013E+03  0.13413340013E+03  0.00000000000E+00 0.  1.
         13   -1    0    0    0    0 -0.00000000000E+00 -0.00000000000E+00 -0.10000000000E+04  0.10000000000E+04  0.00000000000E+00 0.  1.
    9000005    2    1    2  501    0 -0.11449062695E+02  0.28252965985E+02 -0.87903230892E+03  0.11009272709E+04  0.66212819345E+03 0.  0.
         13    1    3    3    0    0  0.92376717869E+02  0.65012522358E+02  0.78194730800E+02  0.13738450419E+03  0.00000000000E+00 0.  1.
          3    1    3    3  501    0 -0.10382578056E+03 -0.36759556372E+02 -0.95722703972E+03  0.96354276671E+03  0.00000000000E+00 0.  1.
         -1    1    1    2    0  502  0.11449062695E+02 -0.28252965985E+02  0.13165709054E+02  0.33206129230E+02  0.00000000000E+00 0. -1.
<mgrwt>
<rscale>  1 0.66282958E+03</rscale>
<asrwt>0</asrwt>
<pdfrwt beam="1">  1       21 0.20635907E-01 0.66282958E+03</pdfrwt>
<pdfrwt beam="2">0</pdfrwt>
<totfact> 0.21122234E+03</totfact>
</mgrwt>
</event>
<event>
 6    1  0.1439793E-004  0.6558566E+03  0.7818608E-02  0.9795851E-01
         21   -1    0    0  501  502  0.00000000000E+00  0.00000000000E+00  0.15689627134E+03  0.15689627134E+03  0.00000000000E+00 0.  1.
         13   -1    0    0    0    0 -0.00000000000E+00 -0.00000000000E+00 -0.10000000000E+04  0.10000000000E+04  0.00000000000E+00 0.  1.
    9000005    2    1    2  501    0 -0.86550411034E+01  0.28769071586E+02 -0.88734599811E+03  0.11034177932E+04  0.65516817446E+03 0.  0.
         13    1    3    3    0    0  0.16799363308E+03 -0.26397450521E+03 -0.45522559394E+03  0.55239002664E+03  0.00000000000E+00 0.  1.
          1    1    3    3  501    0 -0.17664867418E+03  0.29274357679E+03 -0.43212040416E+03  0.55102776657E+03  0.00000000000E+00 0.  1.
         -1    1    1    2    0  502  0.86550411034E+01 -0.28769071586E+02  0.44242269444E+02  0.53478478119E+02  0.00000000000E+00 0. -1.
<mgrwt>
<rscale>  1 0.65585662E+03</rscale>
<asrwt>0</asrwt>
<pdfrwt beam="1">  1       21 0.24137887E-01 0.65585662E+03</pdfrwt>
<pdfrwt beam="2">0</pdfrwt>
<totfact> 0.15592202E+03</totfact>
</mgrwt>
</event>
<event>
 6    1  0.1439793E-004  0.6563846E+03  0.7818608E-02  0.9794872E-01
         21   -1    0    0  501  502  0.00000000000E+00  0.00000000000E+00  0.19928849635E+03  0.19928849635E+03  0.00000000000E+00 0.  1.
         13   -1    0    0    0    0 -0.00000000000E+00 -0.00000000000E+00 -0.10000000000E+04  0.10000000000E+04  0.00000000000E+00 0.  1.
    9000005    2    1    2  501    0 -0.41192385632E+02  0.12478050161E+03 -0.83632278761E+03  0.10631446395E+04  0.64309698582E+03 0.  0.
         13    1    3    3    0    0  0.11692556639E+03  0.54869245328E+02  0.65556635865E+02  0.14484438085E+03  0.00000000000E+00 0.  1.
          1    1    3    3  501    0 -0.15811795202E+03  0.69911256284E+02 -0.90187942348E+03  0.91830025863E+03  0.00000000000E+00 0.  1.
         -1    1    1    2    0  502  0.41192385632E+02 -0.12478050161E+03  0.35611283960E+02  0.13614385686E+03  0.00000000000E+00 0. -1.
<mgrwt>
<rscale>  1 0.65638458E+03</rscale>
<asrwt>0</asrwt>
<pdfrwt beam="1">  1       21 0.30659768E-01 0.65638458E+03</pdfrwt>
<pdfrwt beam="2">0</pdfrwt>
<totfact> 0.97109927E+02</totfact>
</mgrwt>
</event>
<event>
 6    1  0.1439793E-004  0.6927475E+03  0.7818608E-02  0.9729716E-01
         21   -1    0    0  501  502  0.00000000000E+00  0.00000000000E+00  0.22921068596E+03  0.22921068596E+03  0.00000000000E+00 0.  1.
         13   -1    0    0    0    0 -0.00000000000E+00 -0.00000000000E+00 -0.10000000000E+04  0.10000000000E+04  0.00000000000E+00 0.  1.
    9000005    2    1    2  501    0 -0.13901872859E+03 -0.19801977657E+03 -0.68020047967E+03  0.97086135709E+03  0.64912328825E+03 0.  0.
         13    1    3    3    0    0 -0.29818186674E+03 -0.25724244154E+03 -0.69663748902E+03  0.80024364445E+03  0.00000000000E+00 0.  1.
          1    1    3    3  501    0  0.15916313815E+03  0.59222664969E+02  0.16437009350E+02  0.17061771264E+03  0.00000000000E+00 0.  1.
         -3    1    1    2    0  502  0.13901872859E+03  0.19801977657E+03 -0.90588834373E+02  0.25834932886E+03  0.00000000000E+00 0. -1.
<mgrwt>
<rscale>  1 0.69274749E+03</rscale>
<asrwt>0</asrwt>
<pdfrwt beam="1">  1       21 0.35263181E-01 0.69274749E+03</pdfrwt>
<pdfrwt beam="2">0</pdfrwt>
<totfact> 0.72976389E+02</totfact>
</mgrwt>
</event>
<event>
 6    1  0.1439793E-004  0.6445771E+03  0.7818608E-02  0.9817008E-01
         21   -1    0    0  501  502  0.00000000000E+00  0.00000000000E+00  0.13351221553E+03  0.13351221553E+03  0.00000000000E+00 0.  1.
         13   -1    0    0    0    0 -0.00000000000E+00 -0.00000000000E+00 -0.10000000000E+04  0.10000000000E+04  0.00000000000E+00 0.  1.
    9000005    2    1    2  501    0  0.58209325599E+00 -0.42836608997E+02 -0.87795173423E+03  0.10891643176E+04  0.64315188664E+03 0.  0.
         13    1    3    3    0    0  0.19847051325E+03 -0.25655516834E+03 -0.62166280335E+03  0.70119593560E+03  0.00000000000E+00 0.  1.
          3    1    3    3  501    0 -0.19788842000E+03  0.21371855934E+03 -0.25628893088E+03  0.38796838204E+03  0.00000000000E+00 0.  1.
         -1    1    1    2    0  502 -0.58209325599E+00  0.42836608997E+02  0.11463949754E+02  0.44347897886E+02  0.00000000000E+00 0. -1.
<mgrwt>
<rscale>  1 0.64457712E+03</rscale>
<asrwt>0</asrwt>
<pdfrwt beam="1">  1       21 0.20540340E-01 0.64457712E+03</pdfrwt>
<pdfrwt beam="2">0</pdfrwt>
<totfact> 0.21327441E+03</totfact>
</mgrwt>
</event>
<event>
 6    1  0.1439793E-004  0.6555475E+03  0.7818608E-02  0.9796425E-01
         21   -1    0    0  501  502  0.00000000000E+00  0.00000000000E+00  0.33672618950E+03  0.33672618950E+03  0.00000000000E+00 0. -1.
         13   -1    0    0    0    0 -0.00000000000E+00 -0.00000000000E+00 -0.10000000000E+04  0.10000000000E+04  0.00000000000E+00 0.  1.
    9000005    2    1    2  501    0 -0.36983435892E+02  0.50805603387E+02 -0.88778442150E+03  0.11035867499E+04  0.65252858292E+03 0.  0.
         13    1    3    3    0    0 -0.48251250294E+02  0.16396718633E+03  0.34458968706E+02  0.17435837196E+03  0.00000000000E+00 0.  1.
          3    1    3    3  501    0  0.11267814403E+02 -0.11316158295E+03 -0.92224339021E+03  0.92922837789E+03  0.00000000000E+00 0.  1.
         -3    1    1    2    0  502  0.36983435892E+02 -0.50805603387E+02  0.22451061101E+03  0.23313943965E+03  0.00000000000E+00 0. -1.
<mgrwt>
<rscale>  1 0.65554751E+03</rscale>
<asrwt>0</asrwt>
<pdfrwt beam="1">  1       21 0.51804028E-01 0.65554751E+03</pdfrwt>
<pdfrwt beam="2">0</pdfrwt>
<totfact> 0.32666139E+02</totfact>
</mgrwt>
</event>
<event>
 6    1  0.1439793E-004  0.6660000E+03  0.7818608E-02  0.9777211E-01
         21   -1    0    0  501  502  0.00000000000E+00  0.00000000000E+00  0.15042150448E+03  0.15042150448E+03  0.00000000000E+00 0.  1.
         13   -1    0    0    0    0 -0.00000000000E+00 -0.00000000000E+00 -0.10000000000E+04  0.10000000000E+04  0.00000000000E+00 0.  1.
    9000005    2    1    2  501    0 -0.86454266950E+02  0.28116256867E+02 -0.81651296700E+03  0.10536837489E+04  0.65976598373E+03 0.  0.
         13    1    3    3    0    0 -0.36280064991E+03  0.10258391769E+03 -0.41613651376E+03  0.56153127235E+03  0.00000000000E+00 0.  1.
          3    1    3    3  501    0  0.27634638296E+03 -0.74467660823E+02 -0.40037645324E+03  0.49215247657E+03  0.00000000000E+00 0.  1.
         -3    1    1    2    0  502  0.86454266950E+02 -0.28116256867E+02 -0.33065528527E+02  0.96737755560E+02  0.00000000000E+00 0. -1.
<mgrwt>
<rscale>  1 0.66600001E+03</rscale>
<asrwt>0</asrwt>
<pdfrwt beam="1">  1       21 0.23141769E-01 0.66600001E+03</pdfrwt>
<pdfrwt beam="2">0</pdfrwt>
<totfact> 0.16919179E+03</totfact>
</mgrwt>
</event>
<event>
 6    1  0.1439793E-004  0.6129236E+03  0.7818608E-02  0.9878951E-01
         21   -1    0    0  501  502  0.00000000000E+00  0.00000000000E+00  0.11418384320E+03  0.11418384320E+03  0.00000000000E+00 0.  1.
         13   -1    0    0    0    0 -0.00000000000E+00 -0.00000000000E+00 -0.10000000000E+04  0.10000000000E+04  0.00000000000E+00 0.  1.
    9000005    2    1    2  501    0  0.21876634048E+02  0.20919549332E+02 -0.89296713744E+03  0.10830815734E+04  0.61217576844E+03 0.  0.
         13    1    3    3    0    0  0.15895894825E+02 -0.17925583430E+03 -0.12794612505E+02  0.18041351311E+03  0.00000000000E+00 0.  1.
          3    1    3    3  501    0  0.59807392237E+01  0.20017538363E+03 -0.88017252494E+03  0.90266806031E+03  0.00000000000E+00 0.  1.
         -3    1    1    2    0  502 -0.21876634048E+02 -0.20919549332E+02  0.71509806404E+01  0.31102269783E+02  0.00000000000E+00 0. -1.
<mgrwt>
<rscale>  1 0.61292364E+03</rscale>
<asrwt>0</asrwt>
<pdfrwt beam="1">  1       21 0.17566745E-01 0.61292364E+03</pdfrwt>
<pdfrwt beam="2">0</pdfrwt>
<totfact> 0.28770435E+03</totfact>
</mgrwt>
</event>
<event>
 6    1  0.1439793E-004  0.6750799E+03  0.7818608E-02  0.9760824E-01
         21   -1    0    0  501  502  0.00000000000E+00  0.00000000000E+00  0.18967066634E+03  0.18967066634E+03  0.00000000000E+00 0.  1.
         13   -1    0    0    0    0 -0.00000000000E+00 -0.00000000000E+00 -0.10000000000E+04  0.10000000000E+04  0.00000000000E+00 0.  1.
    9000005    2    1    2  501    0  0.42816537904E+02 -0.10027056021E+03 -0.83906018255E+03  0.10769191571E+04  0.66621726170E+03 0.  0.
         13    1    3    3    0    0  0.45867186455E+02  0.34486421561E+02  0.10694003576E+03  0.12136425880E+03  0.00000000000E+00 0.  1.
          3    1    3    3  501    0 -0.30506485503E+01 -0.13475698177E+03 -0.94600021831E+03  0.95555489828E+03  0.00000000000E+00 0.  1.
         -1    1    1    2    0  502 -0.42816537904E+02  0.10027056021E+03  0.28730848896E+02  0.11275150926E+03  0.00000000000E+00 0. -1.
<mgrwt>
<rscale>  1 0.67507991E+03</rscale>
<asrwt>0</asrwt>
<pdfrwt beam="1">  1       21 0.29180102E-01 0.67507991E+03</pdfrwt>
<pdfrwt beam="2">0</pdfrwt>
<totfact> 0.10709679E+03</totfact>
</mgrwt>
</event>
<event>
 6    1  0.1439793E-004  0.6445703E+03  0.7818608E-02  0.9817021E-01
         21   -1    0    0  501  502  0.00000000000E+00  0.00000000000E+00  0.60556163207E+03  0.60556163207E+03  0.00000000000E+00 0. -1.
         13   -1    0    0    0    0 -0.00000000000E+00 -0.00000000000E+00 -0.10000000000E+04  0.10000000000E+04  0.00000000000E+00 0.  1.
    9000005    2    1    2  501    0 -0.35407564760E+02 -0.36679207215E+02 -0.89470207296E+03  0.11027069468E+04  0.64255097180E+03 0.  0.
         13    1    3    3    0    0 -0.17783628508E+03  0.22607287675E+03 -0.66891089484E+03  0.72813218246E+03  0.00000000000E+00 0.  1.
          3    1    3    3  501    0  0.14242872032E+03 -0.26275208396E+03 -0.22579117812E+03  0.37457476439E+03  0.00000000000E+00 0.  1.
         -3    1    1    2    0  502  0.35407564760E+02  0.36679207215E+02  0.50026370503E+03  0.50285468522E+03  0.00000000000E+00 0. -1.
<mgrwt>
<rscale>  1 0.64457025E+03</rscale>
<asrwt>0</asrwt>
<pdfrwt beam="1">  1       21 0.93163325E-01 0.64457025E+03</pdfrwt>
<pdfrwt beam="2">0</pdfrwt>
<totfact> 0.86200069E+01</totfact>
</mgrwt>
</event>
<event>
 6    1  0.1439793E-004  0.6436068E+03  0.7818608E-02  0.9818850E-01
         21   -1    0    0  501  502  0.00000000000E+00  0.00000000000E+00  0.49110052159E+03  0.49110052159E+03  0.00000000000E+00 0. -1.
         13   -1    0    0    0    0 -0.00000000000E+00 -0.00000000000E+00 -0.10000000000E+04  0.10000000000E+04  0.00000000000E+00 0.  1.
    9000005    2    1    2  501    0  0.24413229810E+02 -0.11705680153E+02 -0.89592063980E+03  0.11031335022E+04  0.64303709240E+03 0.  0.
         13    1    3    3    0    0  0.21840927682E+03 -0.48443664830E+02 -0.87665650873E+03  0.90475191913E+03  0.00000000000E+00 0.  1.
          1    1    3    3  501    0 -0.19399604701E+03  0.36737984678E+02 -0.19264131068E+02  0.19838158311E+03  0.00000000000E+00 0.  1.
         -1    1    1    2    0  502 -0.24413229810E+02  0.11705680153E+02  0.38702116139E+03  0.38796701935E+03  0.00000000000E+00 0. -1.
<mgrwt>
<rscale>  1 0.64360681E+03</rscale>
<asrwt>0</asrwt>
<pdfrwt beam="1">  1       21 0.75553924E-01 0.64360681E+03</pdfrwt>
<pdfrwt beam="2">0</pdfrwt>
<totfact> 0.14117620E+02</totfact>
</mgrwt>
</event>
<event>
 6    1  0.1439793E-004  0.6436592E+03  0.7818608E-02  0.9818751E-01
         21   -1    0    0  501  502  0.00000000000E+00  0.00000000000E+00  0.14495956485E+03  0.14495956485E+03  0.00000000000E+00 0.  1.
         13   -1    0    0    0    0 -0.00000000000E+00 -0.00000000000E+00 -0.10000000000E+04  0.10000000000E+04  0.00000000000E+00 0.  1.
    9000005    2    1    2  501    0  0.16085661891E+02  0.80521532490E+02 -0.84501539916E+03  0.10622373365E+04  0.63840008504E+03 0.  0.
         13    1    3    3    0    0  0.60497107498E+01  0.16510871146E+03 -0.92842986974E+03  0.94301617622E+03  0.00000000000E+00 0.  1.
          1    1    3    3  501    0  0.10035951141E+02 -0.84587178969E+02  0.83414470579E+02  0.11922116030E+03  0.00000000000E+00 0.  1.
         -3    1    1    2    0  502 -0.16085661891E+02 -0.80521532490E+02 -0.10025035991E+02  0.82722228329E+02  0.00000000000E+00 0. -1.
<mgrwt>
<rscale>  1 0.64365918E+03</rscale>
<asrwt>0</asrwt>
<pdfrwt beam="1">  1       21 0.22301471E-01 0.64365918E+03</pdfrwt>
<pdfrwt beam="2">0</pdfrwt>
<totfact> 0.18197646E+03</totfact>
</mgrwt>
</event>
<event>
 6    1  0.1439793E-004  0.6519370E+03  0.7818608E-02  0.9803151E-01
         21   -1    0    0  501  502  0.00000000000E+00  0.00000000000E+00  0.18911996164E+03  0.18911996164E+03  0.00000000000E+00 0.  1.
         13   -1    0    0    0    0 -0.00000000000E+00 -0.00000000000E+00 -0.10000000000E+04  0.10000000000E+04  0.00000000000E+00 0.  1.
    9000005    2    1    2  501    0 -0.34938970125E+02  0.68298563923E+02 -0.87358793217E+03  0.10900356268E+04  0.64740741960E+03 0.  0.
         13    1    3    3    0    0 -0.12337531222E+03  0.14190092845E+03 -0.93902822233E+03  0.95766974657E+03  0.00000000000E+00 0.  1.
          1    1    3    3  501    0  0.88436342099E+02 -0.73602364530E+02  0.65440290160E+02  0.13236588021E+03  0.00000000000E+00 0.  1.
         -1    1    1    2    0  502  0.34938970125E+02 -0.68298563923E+02  0.62707893807E+02  0.99084334852E+02  0.00000000000E+00 0. -1.
<mgrwt>
<rscale>  1 0.65193695E+03</rscale>
<asrwt>0</asrwt>
<pdfrwt beam="1">  1       21 0.29095378E-01 0.65193695E+03</pdfrwt>
<pdfrwt beam="2">0</pdfrwt>
<totfact> 0.10786984E+03</totfact>
</mgrwt>
</event>
<event>
 6    1  0.1439793E-004  0.6699886E+03  0.7818608E-02  0.9769978E-01
         21   -1    0    0  501  502  0.00000000000E+00  0.00000000000E+00  0.17332726638E+03  0.17332726638E+03  0.00000000000E+00 0.  1.
         13   -1    0    0    0    0 -0.00000000000E+00 -0.00000000000E+00 -0.10000000000E+04  0.10000000000E+04  0.00000000000E+00 0.  1.
    9000005    2    1    2  501    0 -0.11809755059E+03  0.11178534531E+03 -0.67029763101E+03  0.94772547650E+03  0.64995512906E+03 0.  0.
         13    1    3    3    0    0  0.13872720524E+03  0.27180355438E+03 -0.13687209528E+03  0.33444936853E+03  0.00000000000E+00 0.  1.
          1    1    3    3  501    0 -0.25682475582E+03 -0.16001820907E+03 -0.53342553573E+03  0.61327610797E+03  0.00000000000E+00 0.  1.
         -3    1    1    2    0  502  0.11809755059E+03 -0.11178534531E+03 -0.15637510261E+03  0.22560178988E+03  0.00000000000E+00 0. -1.
<mgrwt>
<rscale>  1 0.66998856E+03</rscale>
<asrwt>0</asrwt>
<pdfrwt beam="1">  1       21 0.26665733E-01 0.66998856E+03</pdfrwt>
<pdfrwt beam="2">0</pdfrwt>
<totfact> 0.12812548E+03</totfact>
</mgrwt>
</event>
<event>
 6    1  0.1439793E-004  0.6753567E+03  0.7818608E-02  0.9760329E-01
         21   -1    0    0  501  502  0.00000000000E+00  0.00000000000E+00  0.63457325594E+03  0.63457325594E+03  0.00000000000E+00 0. -1.
         13   -1    0    0    0    0 -0.00000000000E+00 -0.00000000000E+00 -0.10000000000E+04  0.10000000000E+04  0.00000000000E+00 0.  1.
    9000005    2    1    2  501    0  0.51485453847E+02  0.60361015357E+02 -0.88260249130E+03  0.11113477236E+04  0.67068055065E+03 0.  0.
         13    1    3    3    0    0  0.18256694215E+03  0.30642001858E+03 -0.30233476175E+03  0.46757911022E+03  0.00000000000E+00 0.  1.
          1    1    3    3  501    0 -0.13108148831E+03 -0.24605900322E+03 -0.58026772955E+03  0.64376861340E+03  0.00000000000E+00 0.  1.
         -3    1    1    2    0  502 -0.51485453847E+02 -0.60361015357E+02  0.51717574724E+03  0.52322553232E+03  0.00000000000E+00 0. -1.
<mgrwt>
<rscale>  1 0.67535665E+03</rscale>
<asrwt>0</asrwt>
<pdfrwt beam="1">  1       21 0.97626652E-01 0.67535665E+03</pdfrwt>
<pdfrwt beam="2">0</pdfrwt>
<totfact> 0.76623180E+01</totfact>
</mgrwt>
</event>
<event>
 6    1  0.1439793E-004  0.6377654E+03  0.7818608E-02  0.9830011E-01
         21   -1    0    0  501  502  0.00000000000E+00  0.00000000000E+00  0.26540528597E+03  0.26540528597E+03  0.00000000000E+00 0. -1.
         13   -1    0    0    0    0 -0.00000000000E+00 -0.00000000000E+00 -0.10000000000E+04  0.10000000000E+04  0.00000000000E+00 0.  1.
    9000005    2    1    2  501    0  0.22909543758E+01 -0.31330072166E+02 -0.89665192974E+03  0.11003314750E+04  0.63699124794E+03 0.  0.
         13    1    3    3    0    0 -0.15337796934E+03  0.34313117003E+02  0.28627434299E+02  0.15975519232E+03  0.00000000000E+00 0.  1.
          1    1    3    3  501    0  0.15566892372E+03 -0.65643189169E+02 -0.92527936404E+03  0.94057628272E+03  0.00000000000E+00 0.  1.
         -1    1    1    2    0  502 -0.22909543758E+01  0.31330072166E+02  0.16205721571E+03  0.16507381094E+03  0.00000000000E+00 0. -1.
<mgrwt>
<rscale>  1 0.63776537E+03</rscale>
<asrwt>0</asrwt>
<pdfrwt beam="1">  1       21 0.40831581E-01 0.63776537E+03</pdfrwt>
<pdfrwt beam="2">0</pdfrwt>
<totfact> 0.54164913E+02</totfact>
</mgrwt>
</event>
<event>
 6    1  0.1439793E-004  0.6958321E+03  0.7818608E-02  0.9724387E-01
         21   -1    0    0  501  502  0.00000000000E+00  0.00000000000E+00  0.21157975327E+03  0.21157975327E+03  0.00000000000E+00 0. -1.
         13   -1    0    0    0    0 -0.00000000000E+00 -0.00000000000E+00 -0.10000000000E+04  0.10000000000E+04  0.00000000000E+00 0.  1.
    9000005    2    1    2  501    0 -0.19977449607E+03 -0.79406671955E+02 -0.67085732761E+03  0.96655667520E+03  0.66179073999E+03 0.  0.
         13    1    3    3    0    0  0.79872000445E+01 -0.34440557967E+03 -0.43756846934E+03  0.55690678217E+03  0.00000000000E+00 0.  1.
          3    1    3    3  501    0 -0.20776169612E+03  0.26499890772E+03 -0.23328885828E+03  0.40964989303E+03  0.00000000000E+00 0.  1.
         -3    1    1    2    0  502  0.19977449607E+03  0.79406671955E+02 -0.11756291912E+03  0.24502307807E+03  0.00000000000E+00 0. -1.
<mgrwt>
<rscale>  1 0.69583206E+03</rscale>
<asrwt>0</asrwt>
<pdfrwt beam="1">  1       21 0.32550730E-01 0.69583206E+03</pdfrwt>
<pdfrwt beam="2">0</pdfrwt>
<totfact> 0.85858659E+02</totfact>
</mgrwt>
</event>
<event>
 6    1  0.1439793E-004  0.6523909E+03  0.7818608E-02  0.9802303E-01
         21   -1    0    0  501  502  0.00000000000E+00  0.00000000000E+00  0.14790555209E+03  0.14790555209E+03  0.00000000000E+00 0.  1.
         13   -1    0    0    0    0 -0.00000000000E+00 -0.00000000000E+00 -0.10000000000E+04  0.10000000000E+04  0.00000000000E+00 0.  1.
    9000005    2    1    2  501    0  0.29918613955E+02 -0.22853291706E+02 -0.88392340226E+03  0.10986056663E+04  0.65130364084E+03 0.  0.
         13    1    3    3    0    0  0.11076398674E+03 -0.30856099984E+03 -0.61999513257E+03  0.70133623591E+03  0.00000000000E+00 0.  1.
          3    1    3    3  501    0 -0.80845372783E+02  0.28570770814E+03 -0.26392826969E+03  0.39726943040E+03  0.00000000000E+00 0.  1.
         -1    1    1    2    0  502 -0.29918613955E+02  0.22853291706E+02  0.31828954347E+02  0.49299885777E+02  0.00000000000E+00 0. -1.
<mgrwt>
<rscale>  1 0.65239086E+03</rscale>
<asrwt>0</asrwt>
<pdfrwt beam="1">  1       21 0.22754700E-01 0.65239086E+03</pdfrwt>
<pdfrwt beam="2">0</pdfrwt>
<totfact> 0.17494153E+03</totfact>
</mgrwt>
</event>
<event>
 6    1  0.1439793E-004  0.6710433E+03  0.7818608E-02  0.9768075E-01
         21   -1    0    0  501  502  0.00000000000E+00  0.00000000000E+00  0.20851422914E+03  0.20851422914E+03  0.00000000000E+00 0. -1.
         13   -1    0    0    0    0 -0.00000000000E+00 -0.00000000000E+00 -0.10000000000E+04  0.10000000000E+04  0.00000000000E+00 0.  1.
    9000005    2    1    2  501    0  0.80409192440E+00  0.20053194299E+02 -0.88625593080E+03  0.11116423530E+04  0.67074314684E+03 0.  0.
         13    1    3    3    0    0  0.24061399839E+03  0.24401898593E+03 -0.46688512570E+03  0.57915635395E+03  0.00000000000E+00 0.  1.
          1    1    3    3  501    0 -0.23980990647E+03 -0.22396579163E+03 -0.41937080509E+03  0.53248599909E+03  0.00000000000E+00 0.  1.
         -3    1    1    2    0  502 -0.80409192440E+00 -0.20053194299E+02  0.94770159936E+02  0.96871876103E+02  0.00000000000E+00 0. -1.
<mgrwt>
<rscale>  1 0.67104333E+03</rscale>
<asrwt>0</asrwt>
<pdfrwt beam="1">  1       21 0.32079111E-01 0.67104333E+03</pdfrwt>
<pdfrwt beam="2">0</pdfrwt>
<totfact> 0.88570526E+02</totfact>
</mgrwt>
</event>
<event>
 6    1  0.1439793E-004  0.6443697E+03  0.7818608E-02  0.9817402E-01
         21   -1    0    0  501  502  0.00000000000E+00  0.00000000000E+00  0.18660060643E+03  0.18660060643E+03  0.00000000000E+00 0.  1.
         13   -1    0    0    0    0 -0.00000000000E+00 -0.00000000000E+00 -0.10000000000E+04  0.10000000000E+04  0.00000000000E+00 0.  1.
    9000005    2    1    2  501    0  0.12755334465E+02 -0.38716135624E+02 -0.89062082661E+03  0.10992805776E+04  0.64307907271E+03 0.  0.
         13    1    3    3    0    0 -0.22283127423E+03 -0.16821734565E+03 -0.74046907617E+03  0.79135662309E+03  0.00000000000E+00 0.  1.
          3    1    3    3  501    0  0.23558660869E+03  0.12950121003E+03 -0.15015175044E+03  0.30792395450E+03  0.00000000000E+00 0.  1.
         -3    1    1    2    0  502 -0.12755334465E+02  0.38716135624E+02  0.77221433042E+02  0.87320028837E+02  0.00000000000E+00 0. -1.
<mgrwt>
<rscale>  1 0.64436972E+03</rscale>
<asrwt>0</asrwt>
<pdfrwt beam="1">  1       21 0.28707785E-01 0.64436972E+03</pdfrwt>
<pdfrwt beam="2">0</pdfrwt>
<totfact> 0.11084332E+03</totfact>
</mgrwt>
</event>
<event>
 6    1  0.1439793E-004  0.6858753E+03  0.7818608E-02  0.9741697E-01
         21   -1    0    0  501  502  0.00000000000E+00  0.00000000000E+00  0.22708393145E+03  0.22708393145E+03  0.00000000000E+00 0.  1.
         13   -1    0    0    0    0 -0.00000000000E+00 -0.00000000000E+00 -0.10000000000E+04  0.10000000000E+04  0.00000000000E+00 0.  1.
    9000005    2    1    2  501    0 -0.10658098472E+03 -0.17201192806E+02 -0.85162654355E+03  0.10934773215E+04  0.67732525105E+03 0.  0.
         13    1    3    3    0    0 -0.23530205127E+03 -0.29639121424E+03 -0.46825742467E+03  0.60206297259E+03  0.00000000000E+00 0.  1.
          3    1    3    3  501    0  0.12872106655E+03  0.27919002143E+03 -0.38336911888E+03  0.49141434895E+03  0.00000000000E+00 0.  1.
         -1    1    1    2    0  502  0.10658098472E+03  0.17201192806E+02  0.78710474997E+02  0.13360660991E+03  0.00000000000E+00 0. -1.
<mgrwt>
<rscale>  1 0.68587527E+03</rscale>
<asrwt>0</asrwt>
<pdfrwt beam="1">  1       21 0.34935988E-01 0.68587527E+03</pdfrwt>
<pdfrwt beam="2">0</pdfrwt>
<totfact> 0.74414024E+02</totfact>
</mgrwt>
</event>
<event>
 6    1  0.1439793E-004  0.6548396E+03  0.7818608E-02  0.9797740E-01
         21   -1    0    0  501  502  0.00000000000E+00  0.00000000000E+00  0.11985800350E+03  0.11985800350E+03  0.00000000000E+00 0.  1.
         13   -1    0    0    0    0 -0.00000000000E+00 -0.00000000000E+00 -0.10000000000E+04  0.10000000000E+04  0.00000000000E+00 0.  1.
    9000005    2    1    2  501    0 -0.22571033113E+02  0.18080200769E+02 -0.87064113292E+03  0.10894177078E+04  0.65420074477E+03 0.  0.
         13    1    3    3    0    0  0.28945676864E+03 -0.87346643353E+02 -0.56138281963E+03  0.63762475422E+03  0.00000000000E+00 0.  1.
          3    1    3    3  501    0 -0.31202780176E+03  0.10542684412E+03 -0.30925831329E+03  0.45179295354E+03  0.00000000000E+00 0.  1.
         -3    1    1    2    0  502  0.22571033113E+02 -0.18080200769E+02 -0.95008635845E+01  0.30440295736E+02  0.00000000000E+00 0. -1.
<mgrwt>
<rscale>  1 0.65483964E+03</rscale>
<asrwt>0</asrwt>
<pdfrwt beam="1">  1       21 0.18439692E-01 0.65483964E+03</pdfrwt>
<pdfrwt beam="2">0</pdfrwt>
<totfact> 0.26204664E+03</totfact>
</mgrwt>
</event>
<event>
 6    1  0.1439793E-004  0.6625011E+03  0.7818608E-02  0.9783600E-01
         21   -1    0    0  501  502  0.00000000000E+00  0.00000000000E+00  0.60428244075E+03  0.60428244075E+03  0.00000000000E+00 0. -1.
         13   -1    0    0    0    0 -0.00000000000E+00 -0.00000000000E+00 -0.10000000000E+04  0.10000000000E+04  0.00000000000E+00 0.  1.
    9000005    2    1    2  501    0  0.84776276845E+02  0.66847539164E+02 -0.88372213432E+03  0.11044784033E+04  0.65364525696E+03 0.  0.
         13    1    3    3    0    0  0.36739297190E+03  0.29329716015E+01 -0.42372365559E+03  0.56082790090E+03  0.00000000000E+00 0.  1.
          1    1    3    3  501    0 -0.28261669505E+03  0.63914567563E+02 -0.45999847873E+03  0.54365050235E+03  0.00000000000E+00 0.  1.
         -3    1    1    2    0  502 -0.84776276845E+02 -0.66847539164E+02  0.48800457507E+03  0.49980403749E+03  0.00000000000E+00 0. -1.
<mgrwt>
<rscale>  1 0.66250112E+03</rscale>
<asrwt>0</asrwt>
<pdfrwt beam="1">  1       21 0.92966527E-01 0.66250112E+03</pdfrwt>
<pdfrwt beam="2">0</pdfrwt>
<totfact> 0.86419130E+01</totfact>
</mgrwt>
</event>
<event>
 6    1  0.1439793E-004  0.9644352E+03  0.7818608E-02  0.9348435E-01
         21   -1    0    0  501  502  0.00000000000E+00  0.00000000000E+00  0.83077124240E+03  0.83077124240E+03  0.00000000000E+00 0. -1.
         13   -1    0    0    0    0 -0.00000000000E+00 -0.00000000000E+00 -0.10000000000E+04  0.10000000000E+04  0.00000000000E+00 0.  1.
    9000005    2    1    2  501    0 -0.59284544016E+03 -0.37019761964E+03 -0.46639012784E+03  0.10712866320E+04  0.66454744226E+03 0.  0.
         13    1    3    3    0    0 -0.40307044176E+03  0.11171945043E+03 -0.33776516512E+03  0.53761726479E+03  0.00000000000E+00 0.  1.
          3    1    3    3  501    0 -0.18977499840E+03 -0.48191707008E+03 -0.12862496271E+03  0.53366936719E+03  0.00000000000E+00 0.  1.
         -1    1    1    2    0  502  0.59284544016E+03  0.37019761964E+03  0.29716137024E+03  0.75948461042E+03  0.00000000000E+00 0. -1.
<mgrwt>
<rscale>  1 0.96443522E+03</rscale>
<asrwt>0</asrwt>
<pdfrwt beam="1">  1       21 0.12781096E+00 0.96443522E+03</pdfrwt>
<pdfrwt beam="2">0</pdfrwt>
<totfact> 0.37306300E+01</totfact>
</mgrwt>
</event>
<event>
 6    1  0.1439793E-004  0.6507435E+03  0.7818608E-02  0.9805385E-01
         21   -1    0    0  501  502  0.00000000000E+00  0.00000000000E+00  0.11520346025E+03  0.11520346025E+03  0.00000000000E+00 0.  1.
         13   -1    0    0    0    0 -0.00000000000E+00 -0.00000000000E+00 -0.10000000000E+04  0.10000000000E+04  0.00000000000E+00 0.  1.
    9000005    2    1    2  501    0  0.18353894827E+02 -0.16903834280E+02 -0.86909408517E+03  0.10857217346E+04  0.65026498521E+03 0.  0.
         13    1    3    3    0    0 -0.14095857901E+03  0.25032125067E+03 -0.63310153413E+03  0.69523204907E+03  0.00000000000E+00 0.  1.
          1    1    3    3  501    0  0.15931247383E+03 -0.26722508495E+03 -0.23599255104E+03  0.39048968551E+03  0.00000000000E+00 0.  1.
         -3    1    1    2    0  502 -0.18353894827E+02  0.16903834280E+02 -0.15702454577E+02  0.29481725669E+02  0.00000000000E+00 0. -1.
<mgrwt>
<rscale>  1 0.65074354E+03</rscale>
<asrwt>0</asrwt>
<pdfrwt beam="1">  1       21 0.17723609E-01 0.65074354E+03</pdfrwt>
<pdfrwt beam="2">0</pdfrwt>
<totfact> 0.28254906E+03</totfact>
</mgrwt>
</event>
<event>
 6    1  0.1439793E-004  0.6615988E+03  0.7818608E-02  0.9785255E-01
         21   -1    0    0  501  502  0.00000000000E+00  0.00000000000E+00  0.15014079387E+03  0.15014079387E+03  0.00000000000E+00 0. -1.
         13   -1    0    0    0    0 -0.00000000000E+00 -0.00000000000E+00 -0.10000000000E+04  0.10000000000E+04  0.00000000000E+00 0.  1.
    9000005    2    1    2  501    0 -0.25070014561E+02 -0.17331414235E+02 -0.88413927692E+03  0.11042713399E+04  0.66089639709E+03 0.  0.
         13    1    3    3    0    0  0.20677801499E+03 -0.16559728180E+03 -0.11763021410E+03  0.28985595473E+03  0.00000000000E+00 0.  1.
          3    1    3    3  501    0 -0.23184802955E+03  0.14826586756E+03 -0.76650906282E+03  0.81441538522E+03  0.00000000000E+00 0.  1.
         -3    1    1    2    0  502  0.25070014561E+02  0.17331414235E+02  0.34280070787E+02  0.45869453917E+02  0.00000000000E+00 0. -1.
<mgrwt>
<rscale>  1 0.66159877E+03</rscale>
<asrwt>0</asrwt>
<pdfrwt beam="1">  1       21 0.23098583E-01 0.66159877E+03</pdfrwt>
<pdfrwt beam="2">0</pdfrwt>
<totfact> 0.16984257E+03</totfact>
</mgrwt>
</event>
<event>
 6    1  0.1439793E-004  0.6524629E+03  0.7818608E-02  0.9802169E-01
         21   -1    0    0  501  502  0.00000000000E+00  0.00000000000E+00  0.13501578107E+03  0.13501578107E+03  0.00000000000E+00 0.  1.
         13   -1    0    0    0    0 -0.00000000000E+00 -0.00000000000E+00 -0.10000000000E+04  0.10000000000E+04  0.00000000000E+00 0.  1.
    9000005    2    1    2  501    0 -0.21339991540E+02 -0.76888923729E+02 -0.79837914471E+03  0.10310757130E+04  0.64756510521E+03 0.  0.
         13    1    3    3    0    0  0.29625576846E+03  0.37510051190E+02 -0.26174346633E+03  0.39709460643E+03  0.00000000000E+00 0.  1.
          3    1    3    3  501    0 -0.31759576000E+03 -0.11439897492E+03 -0.53663567838E+03  0.63398110661E+03  0.00000000000E+00 0.  1.
         -3    1    1    2    0  502  0.21339991540E+02  0.76888923729E+02 -0.66605074216E+02  0.10394006803E+03  0.00000000000E+00 0. -1.
<mgrwt>
<rscale>  1 0.65246292E+03</rscale>
<asrwt>0</asrwt>
<pdfrwt beam="1">  1       21 0.20771658E-01 0.65246292E+03</pdfrwt>
<pdfrwt beam="2">0</pdfrwt>
<totfact> 0.20866203E+03</totfact>
</mgrwt>
</event>
<event>
 6    1  0.1439793E-004  0.6328594E+03  0.7818608E-02  0.9839485E-01
         21   -1    0    0  501  502  0.00000000000E+00  0.00000000000E+00  0.10743166379E+03  0.10743166379E+03  0.00000000000E+00 0.  1.
         13   -1    0    0    0    0 -0.00000000000E+00 -0.00000000000E+00 -0.10000000000E+04  0.10000000000E+04  0.00000000000E+00 0.  1.
    9000005    2    1    2  501    0 -0.28277272919E+01  0.21376212513E+02 -0.87339450093E+03  0.10785772973E+04  0.63249197118E+03 0.  0.
         13    1    3    3    0    0  0.20995310393E+03  0.21718003227E+03 -0.63733268129E+03  0.70529456180E+03  0.00000000000E+00 0.  1.
          1    1    3    3  501    0 -0.21278083122E+03 -0.19580381976E+03 -0.23606181964E+03  0.37328273555E+03  0.00000000000E+00 0.  1.
         -1    1    1    2    0  502  0.28277272919E+01 -0.21376212513E+02 -0.19173835283E+02  0.28854366437E+02  0.00000000000E+00 0. -1.
<mgrwt>
<rscale>  1 0.63285941E+03</rscale>
<asrwt>0</asrwt>
<pdfrwt beam="1">  1       21 0.16527948E-01 0.63285941E+03</pdfrwt>
<pdfrwt beam="2">0</pdfrwt>
<totfact> 0.32257179E+03</totfact>
</mgrwt>
</event>
<event>
 6    1  0.1439793E-004  0.6563799E+03  0.7818608E-02  0.9794881E-01
         21   -1    0    0  501  502  0.00000000000E+00  0.00000000000E+00  0.18550076560E+03  0.18550076560E+03  0.00000000000E+00 0.  1.
         13   -1    0    0    0    0 -0.00000000000E+00 -0.00000000000E+00 -0.10000000000E+04  0.10000000000E+04  0.00000000000E+00 0.  1.
    9000005    2    1    2  501    0  0.46273294417E+02  0.46969434342E+02 -0.87647707895E+03  0.10950098890E+04  0.65305990649E+03 0.  0.
         13    1    3    3    0    0 -0.20659227656E+03  0.79520200123E+01 -0.27802875335E+02  0.20860633556E+03  0.00000000000E+00 0.  1.
          3    1    3    3  501    0  0.25286557098E+03  0.39017414329E+02 -0.84867420362E+03  0.88640355341E+03  0.00000000000E+00 0.  1.
         -3    1    1    2    0  502 -0.46273294417E+02 -0.46969434342E+02  0.61977844557E+02  0.90490876636E+02  0.00000000000E+00 0. -1.
<mgrwt>
<rscale>  1 0.65637991E+03</rscale>
<asrwt>0</asrwt>
<pdfrwt beam="1">  1       21 0.28538579E-01 0.65637991E+03</pdfrwt>
<pdfrwt beam="2">0</pdfrwt>
<totfact> 0.11207488E+03</totfact>
</mgrwt>
</event>
<event>
 6    1  0.1439793E-004  0.6513223E+03  0.7818608E-02  0.9804301E-01
         21   -1    0    0  501  502  0.00000000000E+00  0.00000000000E+00  0.17300229129E+03  0.17300229129E+03  0.00000000000E+00 0.  1.
         13   -1    0    0    0    0 -0.00000000000E+00 -0.00000000000E+00 -0.10000000000E+04  0.10000000000E+04  0.00000000000E+00 0.  1.
    9000005    2    1    2  501    0 -0.38158297732E+02 -0.80631647108E+02 -0.85919590082E+03  0.10781643148E+04  0.64518460586E+03 0.  0.
         13    1    3    3    0    0 -0.10069507929E+03 -0.38971262022E+02  0.80994779484E+02  0.13497559987E+03  0.00000000000E+00 0.  1.
          1    1    3    3  501    0  0.62536781563E+02 -0.41660385086E+02 -0.94019068030E+03  0.94318871498E+03  0.00000000000E+00 0.  1.
         -3    1    1    2    0  502  0.38158297732E+02  0.80631647108E+02  0.32198192111E+02  0.94837976446E+02  0.00000000000E+00 0. -1.
<mgrwt>
<rscale>  1 0.65132227E+03</rscale>
<asrwt>0</asrwt>
<pdfrwt beam="1">  1       21 0.26615736E-01 0.65132227E+03</pdfrwt>
<pdfrwt beam="2">0</pdfrwt>
<totfact> 0.12873302E+03</totfact>
</mgrwt>
</event>
<event>
 6    1  0.1439793E-004  0.6715142E+03  0.7818608E-02  0.9767226E-01
         21   -1    0    0  501  502  0.00000000000E+00  0.00000000000E+00  0.30574036866E+03  0.30574036866E+03  0.00000000000E+00 0. -1.
         13   -1    0    0    0    0 -0.00000000000E+00 -0.00000000000E+00 -0.10000000000E+04  0.10000000000E+04  0.00000000000E+00 0.  1.
    9000005    2    1    2  501    0 -0.18076871069E+03  0.99279733007E+02 -0.82332436742E+03  0.10624473391E+04  0.63905988932E+03 0.  0.
         13    1    3    3    0    0 -0.17943433709E+03 -0.19634438710E+02  0.44989648896E+02  0.18602758134E+03  0.00000000000E+00 0.  1.
          1    1    3    3  501    0 -0.13343736009E+01  0.11891417172E+03 -0.86831401632E+03  0.87641975772E+03  0.00000000000E+00 0.  1.
         -1    1    1    2    0  502  0.18076871069E+03 -0.99279733007E+02  0.12906473608E+03  0.24329302960E+03  0.00000000000E+00 0. -1.
<mgrwt>
<rscale>  1 0.67151421E+03</rscale>
<asrwt>0</asrwt>
<pdfrwt beam="1">  1       21 0.47036978E-01 0.67151421E+03</pdfrwt>
<pdfrwt beam="2">0</pdfrwt>
<totfact> 0.40105420E+02</totfact>
</mgrwt>
</event>
<event>
 6    1  0.1439793E-004  0.6522149E+03  0.7818608E-02  0.9802632E-01
         21   -1    0    0  501  502  0.00000000000E+00  0.00000000000E+00  0.14006364902E+03  0.14006364902E+03  0.00000000000E+00 0.  1.
         13   -1    0    0    0    0 -0.00000000000E+00 -0.00000000000E+00 -0.10000000000E+04  0.10000000000E+04  0.00000000000E+00 0.  1.
    9000005    2    1    2  501    0  0.67549415368E+02 -0.53575737375E+02 -0.81170619332E+03  0.10412738152E+04  0.64649124577E+03 0.  0.
         13    1    3    3    0    0 -0.26237919826E+03  0.66213878803E+02 -0.20175349009E+03  0.33753754189E+03  0.00000000000E+00 0.  1.
          1    1    3    3  501    0  0.32992861363E+03 -0.11978961618E+03 -0.60995270323E+03  0.70373627334E+03  0.00000000000E+00 0.  1.
         -1    1    1    2    0  502 -0.67549415368E+02  0.53575737375E+02 -0.48230157656E+02  0.98789833785E+02  0.00000000000E+00 0. -1.
<mgrwt>
<rscale>  1 0.65221485E+03</rscale>
<asrwt>0</asrwt>
<pdfrwt beam="1">  1       21 0.21548253E-01 0.65221485E+03</pdfrwt>
<pdfrwt beam="2">0</pdfrwt>
<totfact> 0.19440776E+03</totfact>
</mgrwt>
</event>
<event>
 6    1  0.1439793E-004  0.6506022E+03  0.7818608E-02  0.9805650E-01
         21   -1    0    0  501  502  0.00000000000E+00  0.00000000000E+00  0.17239478200E+03  0.17239478200E+03  0.00000000000E+00 0.  1.
         13   -1    0    0    0    0 -0.00000000000E+00 -0.00000000000E+00 -0.10000000000E+04  0.10000000000E+04  0.00000000000E+00 0.  1.
    9000005    2    1    2  501    0  0.59784667932E+02 -0.43787832088E+02 -0.87050575443E+03  0.10867674687E+04  0.64636806987E+03 0.  0.
         13    1    3    3    0    0 -0.89142360988E+02 -0.21487809232E+03 -0.53295654630E+02  0.23866164728E+03  0.00000000000E+00 0.  1.
          3    1    3    3  501    0  0.14892702892E+03  0.17109026023E+03 -0.81721009980E+03  0.84810582141E+03  0.00000000000E+00 0.  1.
         -1    1    1    2    0  502 -0.59784667932E+02  0.43787832088E+02  0.42900536429E+02  0.85627313310E+02  0.00000000000E+00 0. -1.
<mgrwt>
<rscale>  1 0.65060223E+03</rscale>
<asrwt>0</asrwt>
<pdfrwt beam="1">  1       21 0.26522273E-01 0.65060223E+03</pdfrwt>
<pdfrwt beam="2">0</pdfrwt>
<totfact> 0.12963476E+03</totfact>
</mgrwt>
</event>
<event>
 6    1  0.1439793E-004  0.6893632E+03  0.7818608E-02  0.9735597E-01
         21   -1    0    0  501  502  0.00000000000E+00  0.00000000000E+00  0.15432342697E+03  0.15432342697E+03  0.00000000000E+00 0.  1.
         13   -1    0    0    0    0 -0.00000000000E+00 -0.00000000000E+00 -0.10000000000E+04  0.10000000000E+04  0.00000000000E+00 0.  1.
    9000005    2    1    2  501    0  0.35146931571E+02 -0.43369074521E+02 -0.85439738041E+03  0.10978235517E+04  0.68709932587E+03 0.  0.
         13    1    3    3    0    0  0.28565305851E+03 -0.23755384259E+03 -0.48867483105E+03  0.61386691430E+03  0.00000000000E+00 0.  1.
          1    1    3    3  501    0 -0.25050612694E+03  0.19418476807E+03 -0.36572254936E+03  0.48395663741E+03  0.00000000000E+00 0.  1.
         -1    1    1    2    0  502 -0.35146931571E+02  0.43369074521E+02  0.87208073754E+01  0.56499875265E+02  0.00000000000E+00 0. -1.
<mgrwt>
<rscale>  1 0.68936323E+03</rscale>
<asrwt>0</asrwt>
<pdfrwt beam="1">  1       21 0.23742065E-01 0.68936323E+03</pdfrwt>
<pdfrwt beam="2">0</pdfrwt>
<totfact> 0.16078008E+03</totfact>
</mgrwt>
</event>
<event>
 6    1  0.1439793E-004  0.6454413E+03  0.7818608E-02  0.9815371E-01
         21   -1    0    0  501  502  0.00000000000E+00  0.00000000000E+00  0.12637285663E+03  0.12637285663E+03  0.00000000000E+00 0.  1.
         13   -1    0    0    0    0 -0.00000000000E+00 -0.00000000000E+00 -0.10000000000E+04  0.10000000000E+04  0.00000000000E+00 0.  1.
    9000005    2    1    2  501    0  0.21204626251E+02 -0.14210245119E+02 -0.88745113090E+03  0.10973440800E+04  0.64493639450E+03 0.  0.
         13    1    3    3    0    0 -0.13423578955E+03  0.24185522974E+02 -0.92325620987E+03  0.93327713772E+03  0.00000000000E+00 0.  1.
          3    1    3    3  501    0  0.15544041580E+03 -0.38395768094E+02  0.35805078974E+02  0.16406694229E+03  0.00000000000E+00 0.  1.
         -1    1    1    2    0  502 -0.21204626251E+02  0.14210245119E+02  0.13823987532E+02  0.29028776620E+02  0.00000000000E+00 0. -1.
<mgrwt>
<rscale>  1 0.64544134E+03</rscale>
<asrwt>0</asrwt>
<pdfrwt beam="1">  1       21 0.19441977E-01 0.64544134E+03</pdfrwt>
<pdfrwt beam="2">0</pdfrwt>
<totfact> 0.23696366E+03</totfact>
</mgrwt>
</event>
<event>
 6    1  0.1439793E-004  0.6711620E+03  0.7818608E-02  0.9767861E-01
         21   -1    0    0  501  502  0.00000000000E+00  0.00000000000E+00  0.46215256474E+03  0.46215256474E+03  0.00000000000E+00 0. -1.
         13   -1    0    0    0    0 -0.00000000000E+00 -0.00000000000E+00 -0.10000000000E+04  0.10000000000E+04  0.00000000000E+00 0.  1.
    9000005    2    1    2  501    0 -0.12249798647E+02 -0.15806724718E+03 -0.86722643323E+03  0.10966038860E+04  0.65216798771E+03 0.  0.
         13    1    3    3    0    0 -0.16925954935E+02 -0.39912025324E+03 -0.69028482491E+03  0.79754410787E+03  0.00000000000E+00 0.  1.
          3    1    3    3  501    0  0.46761562879E+01  0.24105300606E+03 -0.17694160832E+03  0.29905977817E+03  0.00000000000E+00 0.  1.
         -1    1    1    2    0  502  0.12249798647E+02  0.15806724718E+03  0.32937899797E+03  0.36554867870E+03  0.00000000000E+00 0. -1.
<mgrwt>
<rscale>  1 0.67116197E+03</rscale>
<asrwt>0</asrwt>
<pdfrwt beam="1">  1       21 0.71100393E-01 0.67116197E+03</pdfrwt>
<pdfrwt beam="2">0</pdfrwt>
<totfact> 0.16171449E+02</totfact>
</mgrwt>
</event>
<event>
 6    1  0.1439793E-004  0.9125482E+03  0.7818608E-02  0.9410030E-01
         21   -1    0    0  501  502  0.00000000000E+00  0.00000000000E+00  0.72276661702E+03  0.72276661702E+03  0.00000000000E+00 0. -1.
         13   -1    0    0    0    0 -0.00000000000E+00 -0.00000000000E+00 -0.10000000000E+04  0.10000000000E+04  0.00000000000E+00 0.  1.
    9000005    2    1    2  501    0  0.33593335968E+03 -0.51706950584E+03 -0.53120376970E+03  0.10558985241E+04  0.67270510050E+03 0.  0.
         13    1    3    3    0    0 -0.49467074781E+02 -0.43595937781E+03 -0.61689704713E+02  0.44307244357E+03  0.00000000000E+00 0.  1.
          3    1    3    3  501    0  0.38540043446E+03 -0.81110128032E+02 -0.46951406499E+03  0.61282608053E+03  0.00000000000E+00 0.  1.
         -3    1    1    2    0  502 -0.33593335968E+03  0.51706950584E+03  0.25397038672E+03  0.66686809292E+03  0.00000000000E+00 0. -1.
<mgrwt>
<rscale>  1 0.91254822E+03</rscale>
<asrwt>0</asrwt>
<pdfrwt beam="1">  1       21 0.11119486E+00 0.91254822E+03</pdfrwt>
<pdfrwt beam="2">0</pdfrwt>
<totfact> 0.53792140E+01</totfact>
</mgrwt>
</event>
<event>
 6    1  0.1439793E-004  0.6211763E+03  0.7818608E-02  0.9862420E-01
         21   -1    0    0  501  502  0.00000000000E+00  0.00000000000E+00  0.14637678230E+03  0.14637678230E+03  0.00000000000E+00 0.  1.
         13   -1    0    0    0    0 -0.00000000000E+00 -0.00000000000E+00 -0.10000000000E+04  0.10000000000E+04  0.00000000000E+00 0.  1.
    9000005    2    1    2  501    0 -0.35541941070E+02  0.17644322556E+02 -0.89474416018E+03  0.10892323722E+04  0.61990765186E+03 0.  0.
         13    1    3    3    0    0  0.37312928353E+02  0.29011935529E+03 -0.24736573438E+03  0.38308132489E+03  0.00000000000E+00 0.  1.
          3    1    3    3  501    0 -0.72854869423E+02 -0.27247503273E+03 -0.64737842579E+03  0.70615104733E+03  0.00000000000E+00 0.  1.
         -3    1    1    2    0  502  0.35541941070E+02 -0.17644322556E+02  0.41120942480E+02  0.57144410085E+02  0.00000000000E+00 0. -1.
<mgrwt>
<rscale>  1 0.62117634E+03</rscale>
<asrwt>0</asrwt>
<pdfrwt beam="1">  1       21 0.22519504E-01 0.62117634E+03</pdfrwt>
<pdfrwt beam="2">0</pdfrwt>
<totfact> 0.17876668E+03</totfact>
</mgrwt>
</event>
<event>
 6    1  0.1439793E-004  0.6499104E+03  0.7818608E-02  0.9806947E-01
         21   -1    0    0  501  502  0.00000000000E+00  0.00000000000E+00  0.13103150953E+03  0.13103150953E+03  0.00000000000E+00 0.  1.
         13   -1    0    0    0    0 -0.00000000000E+00 -0.00000000000E+00 -0.10000000000E+04  0.10000000000E+04  0.00000000000E+00 0.  1.
    9000005    2    1    2  501    0  0.26843547986E+02 -0.63635646055E+02 -0.82023506880E+03  0.10465033018E+04  0.64623023840E+03 0.  0.
         13    1    3    3    0    0  0.23560463518E+03 -0.21877723753E+03 -0.67725450544E+03  0.74969773170E+03  0.00000000000E+00 0.  1.
          3    1    3    3  501    0 -0.20876108719E+03  0.15514159147E+03 -0.14298056336E+03  0.29680557008E+03  0.00000000000E+00 0.  1.
         -3    1    1    2    0  502 -0.26843547986E+02  0.63635646055E+02 -0.48733421674E+02  0.84528207750E+02  0.00000000000E+00 0. -1.
<mgrwt>
<rscale>  1 0.64991045E+03</rscale>
<asrwt>0</asrwt>
<pdfrwt beam="1">  1       21 0.20158693E-01 0.64991045E+03</pdfrwt>
<pdfrwt beam="2">0</pdfrwt>
<totfact> 0.22104918E+03</totfact>
</mgrwt>
</event>
<event>
 6    1  0.1439793E-004  0.6370619E+03  0.7818608E-02  0.9831364E-01
         21   -1    0    0  501  502  0.00000000000E+00  0.00000000000E+00  0.16519425597E+03  0.16519425597E+03  0.00000000000E+00 0. -1.
         13   -1    0    0    0    0 -0.00000000000E+00 -0.00000000000E+00 -0.10000000000E+04  0.10000000000E+04  0.00000000000E+00 0.  1.
    9000005    2    1    2  501    0  0.27140258861E+02 -0.23653354574E+02 -0.89288915031E+03  0.10968586363E+04  0.63604383370E+03 0.  0.
         13    1    3    3    0    0 -0.46489418433E+02  0.16234409491E+03 -0.88037725111E+03  0.89642678198E+03  0.00000000000E+00 0.  1.
          3    1    3    3  501    0  0.73629677294E+02 -0.18599744949E+03 -0.12511899205E+02  0.20043185430E+03  0.00000000000E+00 0.  1.
         -3    1    1    2    0  502 -0.27140258861E+02  0.23653354574E+02  0.58083406283E+02  0.68335619695E+02  0.00000000000E+00 0. -1.
<mgrwt>
<rscale>  1 0.63706188E+03</rscale>
<asrwt>0</asrwt>
<pdfrwt beam="1">  1       21 0.25414500E-01 0.63706188E+03</pdfrwt>
<pdfrwt beam="2">0</pdfrwt>
<totfact> 0.14109216E+03</totfact>
</mgrwt>
</event>
<event>
 6    1  0.1439793E-004  0.6503702E+03  0.7818608E-02  0.9806085E-01
         21   -1    0    0  501  502  0.00000000000E+00  0.00000000000E+00  0.14186024303E+03  0.14186024303E+03  0.00000000000E+00 0.  1.
         13   -1    0    0    0    0 -0.00000000000E+00 -0.00000000000E+00 -0.10000000000E+04  0.10000000000E+04  0.00000000000E+00 0.  1.
    9000005    2    1    2  501    0  0.40880399726E+01  0.33779642736E+02 -0.88516516959E+03  0.10984074035E+04  0.64947953802E+03 0.  0.
         13    1    3    3    0    0 -0.21241570149E+03  0.89430533802E+02 -0.52661716098E+02  0.23641384680E+03  0.00000000000E+00 0.  1.
          1    1    3    3  501    0  0.21650374146E+03 -0.55650891066E+02 -0.83250345350E+03  0.86199355672E+03  0.00000000000E+00 0.  1.
         -3    1    1    2    0  502 -0.40880399726E+01 -0.33779642736E+02  0.27025412626E+02  0.43452839514E+02  0.00000000000E+00 0. -1.
<mgrwt>
<rscale>  1 0.65037024E+03</rscale>
<asrwt>0</asrwt>
<pdfrwt beam="1">  1       21 0.21824652E-01 0.65037024E+03</pdfrwt>
<pdfrwt beam="2">0</pdfrwt>
<totfact> 0.18969305E+03</totfact>
</mgrwt>
</event>
<event>
 6    1  0.1439793E-004  0.6413395E+03  0.7818608E-02  0.9823167E-01
         21   -1    0    0  501  502  0.00000000000E+00  0.00000000000E+00  0.12008570908E+03  0.12008570908E+03  0.00000000000E+00 0.  1.
         13   -1    0    0    0    0 -0.00000000000E+00 -0.00000000000E+00 -0.10000000000E+04  0.10000000000E+04  0.00000000000E+00 0.  1.
    9000005    2    1    2  501    0 -0.51404806887E+02  0.52725081778E+01 -0.81058362034E+03  0.10336160878E+04  0.63925437658E+03 0.  0.
         13    1    3    3    0    0 -0.22273752461E+03 -0.20050889212E+03 -0.18263131558E+03  0.35095586349E+03  0.00000000000E+00 0.  1.
          1    1    3    3  501    0  0.17133271772E+03  0.20578140029E+03 -0.62795230476E+03  0.68266022436E+03  0.00000000000E+00 0.  1.
         -3    1    1    2    0  502  0.51404806887E+02 -0.52725081778E+01 -0.69330670579E+02  0.86469621235E+02  0.00000000000E+00 0. -1.
<mgrwt>
<rscale>  1 0.64133954E+03</rscale>
<asrwt>0</asrwt>
<pdfrwt beam="1">  1       21 0.18474724E-01 0.64133954E+03</pdfrwt>
<pdfrwt beam="2">0</pdfrwt>
<totfact> 0.26122509E+03</totfact>
</mgrwt>
</event>
<event>
 6    1  0.1439793E-004  0.6727919E+03  0.7818608E-02  0.9764927E-01
         21   -1    0    0  501  502  0.00000000000E+00  0.00000000000E+00  0.16255352755E+03  0.16255352755E+03  0.00000000000E+00 0.  1.
         13   -1    0    0    0    0 -0.00000000000E+00 -0.00000000000E+00 -0.10000000000E+04  0.10000000000E+04  0.00000000000E+00 0.  1.
    9000005    2    1    2  501    0 -0.96738593087E+02 -0.90296856402E+02 -0.72280056556E+03  0.98746623036E+03  0.65964916498E+03 0.  0.
         13    1    3    3    0    0  0.10937732678E+03 -0.29544790086E+03 -0.58767765437E+03  0.66679673603E+03  0.00000000000E+00 0.  1.
          3    1    3    3  501    0 -0.20611591986E+03  0.20515104446E+03 -0.13512291119E+03  0.32066949433E+03  0.00000000000E+00 0.  1.
         -3    1    1    2    0  502  0.96738593087E+02  0.90296856402E+02 -0.11464590690E+03  0.17508729719E+03  0.00000000000E+00 0. -1.
<mgrwt>
<rscale>  1 0.67279187E+03</rscale>
<asrwt>0</asrwt>
<pdfrwt beam="1">  1       21 0.25008234E-01 0.67279187E+03</pdfrwt>
<pdfrwt beam="2">0</pdfrwt>
<totfact> 0.14535345E+03</totfact>
</mgrwt>
</event>
<event>
 6    1  0.1439793E-004  0.7119545E+03  0.7818608E-02  0.9697004E-01
         21   -1    0    0  501  502  0.00000000000E+00  0.00000000000E+00  0.25647824646E+03  0.25647824646E+03  0.00000000000E+00 0. -1.
         13   -1    0    0    0    0 -0.00000000000E+00 -0.00000000000E+00 -0.10000000000E+04  0.10000000000E+04  0.00000000000E+00 0.  1.
    9000005    2    1    2  501    0  0.28552318971E+03  0.23187653262E+02 -0.62168019600E+03  0.94518011883E+03  0.65178066234E+03 0.  0.
         13    1    3    3    0    0  0.41633688792E+03 -0.17414299767E+03 -0.28555286962E+03  0.53404365854E+03  0.00000000000E+00 0.  1.
          3    1    3    3  501    0 -0.13081369821E+03  0.19733065093E+03 -0.33612732639E+03  0.41113646029E+03  0.00000000000E+00 0.  1.
         -3    1    1    2    0  502 -0.28552318971E+03 -0.23187653262E+02 -0.12184155753E+03  0.31129812763E+03  0.00000000000E+00 0. -1.
<mgrwt>
<rscale>  1 0.71195449E+03</rscale>
<asrwt>0</asrwt>
<pdfrwt beam="1">  1       21 0.39458191E-01 0.71195449E+03</pdfrwt>
<pdfrwt beam="2">0</pdfrwt>
<totfact> 0.57821643E+02</totfact>
</mgrwt>
</event>
<event>
 6    1  0.1439793E-004  0.7272388E+03  0.7818608E-02  0.9671752E-01
         21   -1    0    0  501  502  0.00000000000E+00  0.00000000000E+00  0.48544448490E+03  0.48544448490E+03  0.00000000000E+00 0. -1.
         13   -1    0    0    0    0 -0.00000000000E+00 -0.00000000000E+00 -0.10000000000E+04  0.10000000000E+04  0.00000000000E+00 0.  1.
    9000005    2    1    2  501    0 -0.20389040032E+03  0.25116197369E+03 -0.78039979635E+03  0.10667240361E+04  0.65132380171E+03 0.  0.
         13    1    3    3    0    0  0.15960417282E+03 -0.39172083304E+02 -0.49353375060E+03  0.52017641918E+03  0.00000000000E+00 0.  1.
          1    1    3    3  501    0 -0.36349457314E+03  0.29033405700E+03 -0.28686604575E+03  0.54654761692E+03  0.00000000000E+00 0.  1.
         -3    1    1    2    0  502  0.20389040032E+03 -0.25116197369E+03  0.26584428126E+03  0.41872044881E+03  0.00000000000E+00 0. -1.
<mgrwt>
<rscale>  1 0.72723884E+03</rscale>
<asrwt>0</asrwt>
<pdfrwt beam="1">  1       21 0.74683765E-01 0.72723884E+03</pdfrwt>
<pdfrwt beam="2">0</pdfrwt>
<totfact> 0.14355808E+02</totfact>
</mgrwt>
</event>
<event>
 6    1  0.1439793E-004  0.6526350E+03  0.7818608E-02  0.9801847E-01
         21   -1    0    0  501  502  0.00000000000E+00  0.00000000000E+00  0.11762942160E+03  0.11762942160E+03  0.00000000000E+00 0.  1.
         13   -1    0    0    0    0 -0.00000000000E+00 -0.00000000000E+00 -0.10000000000E+04  0.10000000000E+04  0.00000000000E+00 0.  1.
    9000005    2    1    2  501    0  0.10912818765E+02  0.24347847944E+02 -0.87158733150E+03  0.10888512054E+04  0.65208938328E+03 0.  0.
         13    1    3    3    0    0 -0.60510119820E+02  0.13449835634E+03 -0.93252657420E+03  0.94411709764E+03  0.00000000000E+00 0.  1.
          1    1    3    3  501    0  0.71422938585E+02 -0.11015050839E+03  0.60939242697E+02  0.14473410778E+03  0.00000000000E+00 0.  1.
         -1    1    1    2    0  502 -0.10912818765E+02 -0.24347847944E+02 -0.10783246896E+02  0.28778216181E+02  0.00000000000E+00 0. -1.
<mgrwt>
<rscale>  1 0.65263502E+03</rscale>
<asrwt>0</asrwt>
<pdfrwt beam="1">  1       21 0.18096834E-01 0.65263502E+03</pdfrwt>
<pdfrwt beam="2">0</pdfrwt>
<totfact> 0.27158142E+03</totfact>
</mgrwt>
</event>
<event>
 6    1  0.1439793E-004  0.6436513E+03  0.7818608E-02  0.9818765E-01
         21   -1    0    0  501  502  0.00000000000E+00  0.00000000000E+00  0.28375985557E+03  0.28375985557E+03  0.00000000000E+00 0. -1.
         13   -1    0    0    0    0 -0.00000000000E+00 -0.00000000000E+00 -0.10000000000E+04  0.10000000000E+04  0.00000000000E+00 0.  1.
    9000005    2    1    2  501    0  0.55742213010E+02  0.54762468278E+02 -0.88702497386E+03  0.10959472356E+04  0.63889037934E+03 0.  0.
         13    1    3    3    0    0  0.25949947588E+03 -0.19260606096E+03 -0.44372891220E+03  0.54893753763E+03  0.00000000000E+00 0.  1.
          1    1    3    3  501    0 -0.20375726287E+03  0.24736852923E+03 -0.44329606166E+03  0.54700969801E+03  0.00000000000E+00 0.  1.
         -3    1    1    2    0  502 -0.55742213010E+02 -0.54762468278E+02  0.17078482943E+03  0.18781261993E+03  0.00000000000E+00 0. -1.
<mgrwt>
<rscale>  1 0.64365133E+03</rscale>
<asrwt>0</asrwt>
<pdfrwt beam="1">  1       21 0.43655361E-01 0.64365133E+03</pdfrwt>
<pdfrwt beam="2">0</pdfrwt>
<totfact> 0.47071304E+02</totfact>
</mgrwt>
</event>
<event>
 6    1  0.1439793E-004  0.6536906E+03  0.7818608E-02  0.9799879E-01
         21   -1    0    0  501  502  0.00000000000E+00  0.00000000000E+00  0.15233549058E+03  0.15233549058E+03  0.00000000000E+00 0.  1.
         13   -1    0    0    0    0 -0.00000000000E+00 -0.00000000000E+00 -0.10000000000E+04  0.10000000000E+04  0.00000000000E+00 0.  1.
    9000005    2    1    2  501    0  0.45606693675E+02 -0.69425231354E+02 -0.84616699747E+03  0.10692567581E+04  0.64839154357E+03 0.  0.
         13    1    3    3    0    0  0.82776612126E+02 -0.15210256988E+03 -0.92988017970E+03  0.94586696098E+03  0.00000000000E+00 0.  1.
          3    1    3    3  501    0 -0.37169918451E+02  0.82677338525E+02  0.83713182224E+02  0.12338979707E+03  0.00000000000E+00 0.  1.
         -3    1    1    2    0  502 -0.45606693675E+02  0.69425231354E+02 -0.14975119443E+01  0.83078732528E+02  0.00000000000E+00 0. -1.
<mgrwt>
<rscale>  1 0.65369062E+03</rscale>
<asrwt>0</asrwt>
<pdfrwt beam="1">  1       21 0.23436229E-01 0.65369062E+03</pdfrwt>
<pdfrwt beam="2">0</pdfrwt>
<totfact> 0.16517430E+03</totfact>
</mgrwt>
</event>
<event>
 6    1  0.1439793E-004  0.6589497E+03  0.7818608E-02  0.9790129E-01
         21   -1    0    0  501  502  0.00000000000E+00  0.00000000000E+00  0.12623166401E+03  0.12623166401E+03  0.00000000000E+00 0.  1.
         13   -1    0    0    0    0 -0.00000000000E+00 -0.00000000000E+00 -0.10000000000E+04  0.10000000000E+04  0.00000000000E+00 0.  1.
    9000005    2    1    2  501    0  0.19185965403E+02 -0.33547453729E+02 -0.86356850482E+03  0.10862620571E+04  0.65781544620E+03 0.  0.
         13    1    3    3    0    0 -0.15564154748E+03  0.19423809680E+03 -0.96055825812E+02  0.26679477360E+03  0.00000000000E+00 0.  1.
          3    1    3    3  501    0  0.17482751288E+03 -0.22778555053E+03 -0.76751267901E+03  0.81946728350E+03  0.00000000000E+00 0.  1.
         -1    1    1    2    0  502 -0.19185965403E+02  0.33547453729E+02 -0.10199831177E+02  0.39969606906E+02  0.00000000000E+00 0. -1.
<mgrwt>
<rscale>  1 0.65894969E+03</rscale>
<asrwt>0</asrwt>
<pdfrwt beam="1">  1       21 0.19420255E-01 0.65894969E+03</pdfrwt>
<pdfrwt beam="2">0</pdfrwt>
<totfact> 0.23735075E+03</totfact>
</mgrwt>
</event>
<event>
 6    1  0.1439793E-004  0.6563393E+03  0.7818608E-02  0.9794956E-01
         21   -1    0    0  501  502  0.00000000000E+00  0.00000000000E+00  0.17019766753E+03  0.17019766753E+03  0.00000000000E+00 0.  1.
         13   -1    0    0    0    0 -0.00000000000E+00 -0.00000000000E+00 -0.10000000000E+04  0.10000000000E+04  0.00000000000E+00 0.  1.
    9000005    2    1    2  501    0 -0.37662058971E+02  0.11472350196E+02 -0.88535730569E+03  0.11021065480E+04  0.65515741541E+03 0.  0.
         13    1    3    3    0    0  0.83966876009E+02 -0.27996855748E+03 -0.22074613500E+03  0.36628088342E+03  0.00000000000E+00 0.  1.
          1    1    3    3  501    0 -0.12162893498E+03  0.29144090767E+03 -0.66461117069E+03  0.73582566461E+03  0.00000000000E+00 0.  1.
         -1    1    1    2    0  502  0.37662058971E+02 -0.11472350196E+02  0.55554973219E+02  0.68091119497E+02  0.00000000000E+00 0. -1.
<mgrwt>
<rscale>  1 0.65633931E+03</rscale>
<asrwt>0</asrwt>
<pdfrwt beam="1">  1       21 0.26184256E-01 0.65633931E+03</pdfrwt>
<pdfrwt beam="2">0</pdfrwt>
<totfact> 0.13291260E+03</totfact>
</mgrwt>
</event>
<event>
 6    1  0.1439793E-004  0.6638071E+03  0.7818608E-02  0.9781211E-01
         21   -1    0    0  501  502  0.00000000000E+00  0.00000000000E+00  0.16693158772E+03  0.16693158772E+03  0.00000000000E+00 0.  1.
         13   -1    0    0    0    0 -0.00000000000E+00 -0.00000000000E+00 -0.10000000000E+04  0.10000000000E+04  0.00000000000E+00 0.  1.
    9000005    2    1    2  501    0 -0.11020749547E+03  0.68443365514E+02 -0.78628920854E+03  0.10290240816E+04  0.65100664722E+03 0.  0.
         13    1    3    3    0    0 -0.77792280359E+02  0.34382667334E+03 -0.27390112772E+03  0.44641936333E+03  0.00000000000E+00 0.  1.
          1    1    3    3  501    0 -0.32415215106E+02 -0.27538330783E+03 -0.51238808082E+03  0.58260471828E+03  0.00000000000E+00 0.  1.
         -1    1    1    2    0  502  0.11020749547E+03 -0.68443365514E+02 -0.46779203741E+02  0.13790750611E+03  0.00000000000E+00 0. -1.
<mgrwt>
<rscale>  1 0.66380708E+03</rscale>
<asrwt>0</asrwt>
<pdfrwt beam="1">  1       21 0.25681782E-01 0.66380708E+03</pdfrwt>
<pdfrwt beam="2">0</pdfrwt>
<totfact> 0.13802467E+03</totfact>
</mgrwt>
</event>
<event>
 6    1  0.1439793E-004  0.7326346E+03  0.7818608E-02  0.9662995E-01
         21   -1    0    0  501  502  0.00000000000E+00  0.00000000000E+00  0.25330499467E+03  0.25330499467E+03  0.00000000000E+00 0.  1.
         13   -1    0    0    0    0 -0.00000000000E+00 -0.00000000000E+00 -0.10000000000E+04  0.10000000000E+04  0.00000000000E+00 0.  1.
    9000005    2    1    2  501    0  0.15470404206E+03 -0.22707863903E+02 -0.80310914492E+03  0.10870776117E+04  0.71575446030E+03 0.  0.
         13    1    3    3    0    0  0.31522398071E+03  0.23869885022E+03 -0.29412589565E+03  0.49280152354E+03  0.00000000000E+00 0.  1.
          3    1    3    3  501    0 -0.16051993865E+03 -0.26140671412E+03 -0.50898324927E+03  0.59427608814E+03  0.00000000000E+00 0.  1.
         -1    1    1    2    0  502 -0.15470404206E+03  0.22707863903E+02  0.56414139585E+02  0.16622738299E+03  0.00000000000E+00 0. -1.
<mgrwt>
<rscale>  1 0.73263459E+03</rscale>
<asrwt>0</asrwt>
<pdfrwt beam="1">  1       21 0.38969998E-01 0.73263459E+03</pdfrwt>
<pdfrwt beam="2">0</pdfrwt>
<totfact> 0.59246067E+02</totfact>
</mgrwt>
</event>
<event>
 6    1  0.1439793E-004  0.6348195E+03  0.7818608E-02  0.9835689E-01
         21   -1    0    0  501  502  0.00000000000E+00  0.00000000000E+00  0.16889305567E+03  0.16889305567E+03  0.00000000000E+00 0.  1.
         13   -1    0    0    0    0 -0.00000000000E+00 -0.00000000000E+00 -0.10000000000E+04  0.10000000000E+04  0.00000000000E+00 0.  1.
    9000005    2    1    2  501    0  0.39362293760E+02  0.12571729031E+02 -0.89228633312E+03  0.10950665282E+04  0.63347325313E+03 0.  0.
         13    1    3    3    0    0  0.25484449262E+03  0.21445672356E+03 -0.55025005036E+03  0.64320488153E+03  0.00000000000E+00 0.  1.
          1    1    3    3  501    0 -0.21548219886E+03 -0.20188499453E+03 -0.34203628276E+03  0.45186164671E+03  0.00000000000E+00 0.  1.
         -1    1    1    2    0  502 -0.39362293760E+02 -0.12571729031E+02  0.61179388795E+02  0.73826527442E+02  0.00000000000E+00 0. -1.
<mgrwt>
<rscale>  1 0.63481950E+03</rscale>
<asrwt>0</asrwt>
<pdfrwt beam="1">  1       21 0.25983546E-01 0.63481950E+03</pdfrwt>
<pdfrwt beam="2">0</pdfrwt>
<totfact> 0.13510105E+03</totfact>
</mgrwt>
</event>
<event>
 6    1  0.1439793E-004  0.6695425E+03  0.7818608E-02  0.9770785E-01
         21   -1    0    0  501  502  0.00000000000E+00  0.00000000000E+00  0.14662692575E+03  0.14662692575E+03  0.00000000000E+00 0.  1.
         13   -1    0    0    0    0 -0.00000000000E+00 -0.00000000000E+00 -0.10000000000E+04  0.10000000000E+04  0.00000000000E+00 0.  1.
    9000005    2    1    2  501    0  0.58667700289E+02  0.75036567893E+02 -0.76603706253E+03  0.10173985832E+04  0.66273275936E+03 0.  0.
         13    1    3    3    0    0 -0.28004286476E+03 -0.36108019512E+02 -0.19122293864E+03  0.34101907196E+03  0.00000000000E+00 0.  1.
          1    1    3    3  501    0  0.33871056505E+03  0.11114458741E+03 -0.57481412389E+03  0.67637951123E+03  0.00000000000E+00 0.  1.
         -1    1    1    2    0  502 -0.58667700289E+02 -0.75036567893E+02 -0.87336011719E+02  0.12922834256E+03  0.00000000000E+00 0. -1.
<mgrwt>
<rscale>  1 0.66954245E+03</rscale>
<asrwt>0</asrwt>
<pdfrwt beam="1">  1       21 0.22557988E-01 0.66954245E+03</pdfrwt>
<pdfrwt beam="2">0</pdfrwt>
<totfact> 0.17777623E+03</totfact>
</mgrwt>
</event>
<event>
 6    1  0.1439793E-004  0.6731691E+03  0.7818608E-02  0.9764250E-01
         21   -1    0    0  501  502  0.00000000000E+00  0.00000000000E+00  0.22160057210E+03  0.22160057210E+03  0.00000000000E+00 0.  1.
         13   -1    0    0    0    0 -0.00000000000E+00 -0.00000000000E+00 -0.10000000000E+04  0.10000000000E+04  0.00000000000E+00 0.  1.
    9000005    2    1    2  501    0  0.83845297592E+02 -0.22735002519E+02 -0.86690782913E+03  0.10975818181E+04  0.66754007284E+03 0.  0.
         13    1    3    3    0    0  0.37444015397E+03 -0.55549472899E+02 -0.53257103912E+03  0.65339351432E+03  0.00000000000E+00 0.  1.
          1    1    3    3  501    0 -0.29059485638E+03  0.32814470381E+02 -0.33433679001E+03  0.44418830373E+03  0.00000000000E+00 0.  1.
         -3    1    1    2    0  502 -0.83845297592E+02  0.22735002519E+02  0.88508401229E+02  0.12401875405E+03  0.00000000000E+00 0. -1.
<mgrwt>
<rscale>  1 0.67316912E+03</rscale>
<asrwt>0</asrwt>
<pdfrwt beam="1">  1       21 0.34092395E-01 0.67316912E+03</pdfrwt>
<pdfrwt beam="2">0</pdfrwt>
<totfact> 0.78281734E+02</totfact>
</mgrwt>
</event>
<event>
 6    1  0.1439793E-004  0.6547635E+03  0.7818608E-02  0.9797882E-01
         21   -1    0    0  501  502  0.00000000000E+00  0.00000000000E+00  0.43180468443E+03  0.43180468443E+03  0.00000000000E+00 0. -1.
         13   -1    0    0    0    0 -0.00000000000E+00 -0.00000000000E+00 -0.10000000000E+04  0.10000000000E+04  0.00000000000E+00 0.  1.
    9000005    2    1    2  501    0 -0.43881844577E+02  0.13294578700E+02 -0.89102734283E+03  0.11057327906E+04  0.65315611954E+03 0.  0.
         13    1    3    3    0    0  0.77874548057E+02  0.24198819835E+03 -0.99683183728E+02  0.27305580106E+03  0.00000000000E+00 0.  1.
          1    1    3    3  501    0 -0.12175639263E+03 -0.22869361965E+03 -0.79134415910E+03  0.83267698957E+03  0.00000000000E+00 0.  1.
         -3    1    1    2    0  502  0.43881844577E+02 -0.13294578700E+02  0.32283202726E+03  0.32607189380E+03  0.00000000000E+00 0. -1.
<mgrwt>
<rscale>  1 0.65476353E+03</rscale>
<asrwt>0</asrwt>
<pdfrwt beam="1">  1       21 0.66431488E-01 0.65476353E+03</pdfrwt>
<pdfrwt beam="2">0</pdfrwt>
<totfact> 0.18895630E+02</totfact>
</mgrwt>
</event>
<event>
 6    1  0.1439793E-004  0.6551168E+03  0.7818608E-02  0.9797225E-01
         21   -1    0    0  501  502  0.00000000000E+00  0.00000000000E+00  0.16283920577E+03  0.16283920577E+03  0.00000000000E+00 0.  1.
         13   -1    0    0    0    0 -0.00000000000E+00 -0.00000000000E+00 -0.10000000000E+04  0.10000000000E+04  0.00000000000E+00 0.  1.
    9000005    2    1    2  501    0 -0.42409009479E+01 -0.53067596760E+02 -0.87819054898E+03  0.10956261427E+04  0.65295011239E+03 0.  0.
         13    1    3    3    0    0 -0.18697920997E+03  0.24046662994E+03 -0.34604589011E+03  0.46101321362E+03  0.00000000000E+00 0.  1.
          1    1    3    3  501    0  0.18273830902E+03 -0.29353422670E+03 -0.53214465888E+03  0.63461292912E+03  0.00000000000E+00 0.  1.
         -3    1    1    2    0  502  0.42409009479E+01  0.53067596760E+02  0.41029754749E+02  0.67213063027E+02  0.00000000000E+00 0. -1.
<mgrwt>
<rscale>  1 0.65511679E+03</rscale>
<asrwt>0</asrwt>
<pdfrwt beam="1">  1       21 0.25052185E-01 0.65511679E+03</pdfrwt>
<pdfrwt beam="2">0</pdfrwt>
<totfact> 0.14498464E+03</totfact>
</mgrwt>
</event>
<event>
 6    1  0.1439793E-004  0.6608721E+03  0.7818608E-02  0.9786590E-01
         21   -1    0    0  501  502  0.00000000000E+00  0.00000000000E+00  0.15720954908E+03  0.15720954908E+03  0.00000000000E+00 0.  1.
         13   -1    0    0    0    0 -0.00000000000E+00 -0.00000000000E+00 -0.10000000000E+04  0.10000000000E+04  0.00000000000E+00 0.  1.
    9000005    2    1    2  501    0 -0.63615269246E+02  0.65948114977E+02 -0.83552032860E+03  0.10652915909E+04  0.65448903572E+03 0.  0.
         13    1    3    3    0    0 -0.83195568176E+02  0.66588218912E+02 -0.94655876259E+03  0.95253818007E+03  0.00000000000E+00 0.  1.
          3    1    3    3  501    0  0.19580298930E+02 -0.64010393510E+00  0.11103843399E+03  0.11275341087E+03  0.00000000000E+00 0.  1.
         -1    1    1    2    0  502  0.63615269246E+02 -0.65948114977E+02 -0.72701223163E+01  0.91917958141E+02  0.00000000000E+00 0. -1.
<mgrwt>
<rscale>  1 0.66087212E+03</rscale>
<asrwt>0</asrwt>
<pdfrwt beam="1">  1       21 0.24186084E-01 0.66087212E+03</pdfrwt>
<pdfrwt beam="2">0</pdfrwt>
<totfact> 0.15527697E+03</totfact>
</mgrwt>
</event>
<event>
 6    1  0.1439793E-004  0.6524845E+03  0.7818608E-02  0.9802128E-01
         21   -1    0    0  501  502  0.00000000000E+00  0.00000000000E+00  0.19157586251E+03  0.19157586251E+03  0.00000000000E+00 0.  1.
         13   -1    0    0    0    0 -0.00000000000E+00 -0.00000000000E+00 -0.10000000000E+04  0.10000000000E+04  0.00000000000E+00 0.  1.
    9000005    2    1    2  501    0 -0.57928077781E+02  0.27409045331E+02 -0.87999719915E+03  0.10955049454E+04  0.64932972894E+03 0.  0.
         13    1    3    3    0    0 -0.28004326743E+03  0.19050724768E+03 -0.66392813377E+03  0.74533067149E+03  0.00000000000E+00 0.  1.
          3    1    3    3  501    0  0.22211518965E+03 -0.16309820235E+03 -0.21606906538E+03  0.35017427390E+03  0.00000000000E+00 0.  1.
         -1    1    1    2    0  502  0.57928077781E+02 -0.27409045331E+02  0.71573061663E+02  0.96070917124E+02  0.00000000000E+00 0. -1.
<mgrwt>
<rscale>  1 0.65248449E+03</rscale>
<asrwt>0</asrwt>
<pdfrwt beam="1">  1       21 0.29473209E-01 0.65248449E+03</pdfrwt>
<pdfrwt beam="2">0</pdfrwt>
<totfact> 0.10512311E+03</totfact>
</mgrwt>
</event>
<event>
 6    1  0.1439793E-004  0.6606342E+03  0.7818608E-02  0.9787027E-01
         21   -1    0    0  501  502  0.00000000000E+00  0.00000000000E+00  0.74009503485E+03  0.74009503485E+03  0.00000000000E+00 0. -1.
         13   -1    0    0    0    0 -0.00000000000E+00 -0.00000000000E+00 -0.10000000000E+04  0.10000000000E+04  0.00000000000E+00 0.  1.
    9000005    2    1    2  501    0 -0.58048547611E+02 -0.33653102294E+00 -0.88940927950E+03  0.11079198780E+04  0.65807890295E+03 0.  0.
         13    1    3    3    0    0 -0.14702363112E+03  0.11114568280E+03 -0.93899432139E+03  0.95691151446E+03  0.00000000000E+00 0.  1.
          1    1    3    3  501    0  0.88975083512E+02 -0.11148221382E+03  0.49585041886E+02  0.15100836355E+03  0.00000000000E+00 0.  1.
         -1    1    1    2    0  502  0.58048547611E+02  0.33653102294E+00  0.62950431435E+03  0.63217515684E+03  0.00000000000E+00 0. -1.
<mgrwt>
<rscale>  1 0.66063423E+03</rscale>
<asrwt>0</asrwt>
<pdfrwt beam="1">  1       21 0.11386077E+00 0.66063423E+03</pdfrwt>
<pdfrwt beam="2">0</pdfrwt>
<totfact> 0.52391441E+01</totfact>
</mgrwt>
</event>
<event>
 6    1  0.1439793E-004  0.6654893E+03  0.7818608E-02  0.9778141E-01
         21   -1    0    0  501  502  0.00000000000E+00  0.00000000000E+00  0.28915844573E+03  0.28915844573E+03  0.00000000000E+00 0. -1.
         13   -1    0    0    0    0 -0.00000000000E+00 -0.00000000000E+00 -0.10000000000E+04  0.10000000000E+04  0.00000000000E+00 0.  1.
    9000005    2    1    2  501    0 -0.15459604832E+03  0.12227172911E+02 -0.85087268242E+03  0.10802130970E+04  0.64716811670E+03 0.  0.
         13    1    3    3    0    0  0.17989999773E+03  0.18519316389E+03 -0.19360160068E+03  0.32271054665E+03  0.00000000000E+00 0.  1.
          1    1    3    3  501    0 -0.33449604605E+03 -0.17296599098E+03 -0.65727108174E+03  0.75750255033E+03  0.00000000000E+00 0.  1.
         -3    1    1    2    0  502  0.15459604832E+03 -0.12227172911E+02  0.14003112815E+03  0.20894534875E+03  0.00000000000E+00 0. -1.
<mgrwt>
<rscale>  1 0.66548930E+03</rscale>
<asrwt>0</asrwt>
<pdfrwt beam="1">  1       21 0.44485913E-01 0.66548930E+03</pdfrwt>
<pdfrwt beam="2">0</pdfrwt>
<totfact> 0.45154917E+02</totfact>
</mgrwt>
</event>
<event>
 6    1  0.1439793E-004  0.6648396E+03  0.7818608E-02  0.9779325E-01
         21   -1    0    0  501  502  0.00000000000E+00  0.00000000000E+00  0.26125308074E+03  0.26125308074E+03  0.00000000000E+00 0. -1.
         13   -1    0    0    0    0 -0.00000000000E+00 -0.00000000000E+00 -0.10000000000E+04  0.10000000000E+04  0.00000000000E+00 0.  1.
    9000005    2    1    2  501    0 -0.22577708162E+01 -0.12297568991E+03 -0.86101585908E+03  0.10878235230E+04  0.65336329088E+03 0.  0.
         13    1    3    3    0    0 -0.23541672760E+02  0.26811171126E+03 -0.41042500979E+03  0.49080218901E+03  0.00000000000E+00 0.  1.
          1    1    3    3  501    0  0.21283901943E+02 -0.39108740117E+03 -0.45059084929E+03  0.59702133404E+03  0.00000000000E+00 0.  1.
         -1    1    1    2    0  502  0.22577708162E+01  0.12297568991E+03  0.12226893982E+03  0.17342955770E+03  0.00000000000E+00 0. -1.
<mgrwt>
<rscale>  1 0.66483961E+03</rscale>
<asrwt>0</asrwt>
<pdfrwt beam="1">  1       21 0.40192781E-01 0.66483961E+03</pdfrwt>
<pdfrwt beam="2">0</pdfrwt>
<totfact> 0.55847850E+02</totfact>
</mgrwt>
</event>
<event>
 6    1  0.1439793E-004  0.6607349E+03  0.7818608E-02  0.9786842E-01
         21   -1    0    0  501  502  0.00000000000E+00  0.00000000000E+00  0.12813414226E+03  0.12813414226E+03  0.00000000000E+00 0.  1.
         13   -1    0    0    0    0 -0.00000000000E+00 -0.00000000000E+00 -0.10000000000E+04  0.10000000000E+04  0.00000000000E+00 0.  1.
    9000005    2    1    2  501    0  0.26694905928E+02  0.85037209294E+01 -0.87859777275E+03  0.10993200840E+04  0.66014064378E+03 0.  0.
         13    1    3    3    0    0  0.23370491557E+03  0.55053129757E+02 -0.85235180647E+03  0.88552382049E+03  0.00000000000E+00 0.  1.
          1    1    3    3  501    0 -0.20701000965E+03 -0.46549408827E+02 -0.26245966287E+02  0.21379626354E+03  0.00000000000E+00 0.  1.
         -3    1    1    2    0  502 -0.26694905928E+02 -0.85037209294E+01  0.67319150108E+01  0.28814058233E+02  0.00000000000E+00 0. -1.
<mgrwt>
<rscale>  1 0.66073489E+03</rscale>
<asrwt>0</asrwt>
<pdfrwt beam="1">  1       21 0.19712944E-01 0.66073489E+03</pdfrwt>
<pdfrwt beam="2">0</pdfrwt>
<totfact> 0.23063530E+03</totfact>
</mgrwt>
</event>
<event>
 6    1  0.1439793E-004  0.6465052E+03  0.7818608E-02  0.9813359E-01
         21   -1    0    0  501  502  0.00000000000E+00  0.00000000000E+00  0.15827221053E+03  0.15827221053E+03  0.00000000000E+00 0. -1.
         13   -1    0    0    0    0 -0.00000000000E+00 -0.00000000000E+00 -0.10000000000E+04  0.10000000000E+04  0.00000000000E+00 0.  1.
    9000005    2    1    2  501    0 -0.12110724389E+02 -0.59521974502E+02 -0.87584052332E+03  0.10886071999E+04  0.64364546011E+03 0.  0.
         13    1    3    3    0    0 -0.99864963863E+02  0.27774832573E+03 -0.45281876840E+03  0.54052010182E+03  0.00000000000E+00 0.  1.
          1    1    3    3  501    0  0.87754239474E+02 -0.33727030023E+03 -0.42302175491E+03  0.54808709809E+03  0.00000000000E+00 0.  1.
         -3    1    1    2    0  502  0.12110724389E+02  0.59521974502E+02  0.34112733845E+02  0.69665010617E+02  0.00000000000E+00 0. -1.
<mgrwt>
<rscale>  1 0.64650523E+03</rscale>
<asrwt>0</asrwt>
<pdfrwt beam="1">  1       21 0.24349570E-01 0.64650523E+03</pdfrwt>
<pdfrwt beam="2">0</pdfrwt>
<totfact> 0.15335619E+03</totfact>
</mgrwt>
</event>
<event>
 6    1  0.1439793E-004  0.5890332E+03  0.7818608E-02  0.9928424E-01
         21   -1    0    0  501  502  0.00000000000E+00  0.00000000000E+00  0.17242302870E+03  0.17242302870E+03  0.00000000000E+00 0.  1.
         13   -1    0    0    0    0 -0.00000000000E+00 -0.00000000000E+00 -0.10000000000E+04  0.10000000000E+04  0.00000000000E+00 0.  1.
    9000005    2    1    2  501    0  0.19087885763E+02 -0.90107721705E+01 -0.91184523787E+03  0.10855513869E+04  0.58865485164E+03 0.  0.
         13    1    3    3    0    0  0.63446409692E+02  0.28432356808E+03 -0.41943653293E+03  0.51067831697E+03  0.00000000000E+00 0.  1.
          1    1    3    3  501    0 -0.44358523929E+02 -0.29333434025E+03 -0.49240870495E+03  0.57487306992E+03  0.00000000000E+00 0.  1.
         -1    1    1    2    0  502 -0.19087885763E+02  0.90107721705E+01  0.84268266578E+02  0.86871641806E+02  0.00000000000E+00 0. -1.
<mgrwt>
<rscale>  1 0.58903317E+03</rscale>
<asrwt>0</asrwt>
<pdfrwt beam="1">  1       21 0.26526619E-01 0.58903317E+03</pdfrwt>
<pdfrwt beam="2">0</pdfrwt>
<totfact> 0.13005822E+03</totfact>
</mgrwt>
</event>
<event>
 6    1  0.1439793E-004  0.6347697E+03  0.7818608E-02  0.9835785E-01
         21   -1    0    0  501  502  0.00000000000E+00  0.00000000000E+00  0.20344086585E+03  0.20344086585E+03  0.00000000000E+00 0.  1.
         13   -1    0    0    0    0 -0.00000000000E+00 -0.00000000000E+00 -0.10000000000E+04  0.10000000000E+04  0.00000000000E+00 0.  1.
    9000005    2    1    2  501    0  0.27158112090E+02 -0.12631464790E+01 -0.89728259417E+03  0.10991126626E+04  0.63418722215E+03 0.  0.
         13    1    3    3    0    0 -0.73885919193E+02 -0.27389759377E+03 -0.67793331569E+03  0.73489632021E+03  0.00000000000E+00 0.  1.
          1    1    3    3  501    0  0.10104403128E+03  0.27263444730E+03 -0.21934927848E+03  0.36421634241E+03  0.00000000000E+00 0.  1.
         -3    1    1    2    0  502 -0.27158112090E+02  0.12631464790E+01  0.10072346002E+03  0.10432820324E+03  0.00000000000E+00 0. -1.
<mgrwt>
<rscale>  1 0.63476972E+03</rscale>
<asrwt>0</asrwt>
<pdfrwt beam="1">  1       21 0.31298594E-01 0.63476972E+03</pdfrwt>
<pdfrwt beam="2">0</pdfrwt>
<totfact> 0.93300406E+02</totfact>
</mgrwt>
</event>
<event>
 6    1  0.1439793E-004  0.6479622E+03  0.7818608E-02  0.9810611E-01
         21   -1    0    0  501  502  0.00000000000E+00  0.00000000000E+00  0.14332319230E+03  0.14332319230E+03  0.00000000000E+00 0.  1.
         13   -1    0    0    0    0 -0.00000000000E+00 -0.00000000000E+00 -0.10000000000E+04  0.10000000000E+04  0.00000000000E+00 0.  1.
    9000005    2    1    2  501    0 -0.48608665879E+01 -0.21663710538E+02 -0.89145339021E+03  0.11020635865E+04  0.64758169943E+03 0.  0.
         13    1    3    3    0    0  0.29713244480E+03  0.11191993749E+03 -0.42226584765E+03  0.52832017589E+03  0.00000000000E+00 0.  1.
          3    1    3    3  501    0 -0.30199331139E+03 -0.13358364803E+03 -0.46918754256E+03  0.57374341063E+03  0.00000000000E+00 0.  1.
         -1    1    1    2    0  502  0.48608665879E+01  0.21663710538E+02  0.34776582509E+02  0.41259605782E+02  0.00000000000E+00 0. -1.
<mgrwt>
<rscale>  1 0.64796219E+03</rscale>
<asrwt>0</asrwt>
<pdfrwt beam="1">  1       21 0.22049721E-01 0.64796219E+03</pdfrwt>
<pdfrwt beam="2">0</pdfrwt>
<totfact> 0.18598497E+03</totfact>
</mgrwt>
</event>
<event>
 6    1  0.1439793E-004  0.6649021E+03  0.7818608E-02  0.9779211E-01
         21   -1    0    0  501  502  0.00000000000E+00  0.00000000000E+00  0.31472760016E+03  0.31472760016E+03  0.00000000000E+00 0. -1.
         13   -1    0    0    0    0 -0.00000000000E+00 -0.00000000000E+00 -0.10000000000E+04  0.10000000000E+04  0.00000000000E+00 0.  1.
    9000005    2    1    2  501    0 -0.16071280611E+02  0.14697399235E+03 -0.85921636395E+03  0.10864379965E+04  0.64825544322E+03 0.  0.
         13    1    3    3    0    0 -0.10419906842E+03 -0.15309723672E+03 -0.14585634840E+02  0.18576584857E+03  0.00000000000E+00 0.  1.
          1    1    3    3  501    0  0.88127787813E+02  0.30007122907E+03 -0.84463072911E+03  0.90067214793E+03  0.00000000000E+00 0.  1.
         -3    1    1    2    0  502  0.16071280611E+02 -0.14697399235E+03  0.17394396411E+03  0.22828960366E+03  0.00000000000E+00 0. -1.
<mgrwt>
<rscale>  1 0.66490207E+03</rscale>
<asrwt>0</asrwt>
<pdfrwt beam="1">  1       21 0.48419629E-01 0.66490207E+03</pdfrwt>
<pdfrwt beam="2">0</pdfrwt>
<totfact> 0.37727505E+02</totfact>
</mgrwt>
</event>
<event>
 6    1  0.1439793E-004  0.6350020E+03  0.7818608E-02  0.9835336E-01
         21   -1    0    0  501  502  0.00000000000E+00  0.00000000000E+00  0.23085302091E+03  0.23085302091E+03  0.00000000000E+00 0. -1.
         13   -1    0    0    0    0 -0.00000000000E+00 -0.00000000000E+00 -0.10000000000E+04  0.10000000000E+04  0.00000000000E+00 0.  1.
    9000005    2    1    2  501    0  0.36817893081E+01  0.36640483520E+02 -0.89631686227E+03  0.10984586865E+04  0.63393334639E+03 0.  0.
         13    1    3    3    0    0 -0.16661250483E+03 -0.25019277862E+03 -0.45298256793E+03  0.54364451629E+03  0.00000000000E+00 0.  1.
          1    1    3    3  501    0  0.17029429414E+03  0.28683326214E+03 -0.44333429434E+03  0.55481417017E+03  0.00000000000E+00 0.  1.
         -1    1    1    2    0  502 -0.36817893081E+01 -0.36640483520E+02  0.12716988319E+03  0.13239433445E+03  0.00000000000E+00 0. -1.
<mgrwt>
<rscale>  1 0.63500202E+03</rscale>
<asrwt>0</asrwt>
<pdfrwt beam="1">  1       21 0.35515848E-01 0.63500202E+03</pdfrwt>
<pdfrwt beam="2">0</pdfrwt>
<totfact> 0.72218226E+02</totfact>
</mgrwt>
</event>
<event>
 6    1  0.1439793E-004  0.6730261E+03  0.7818608E-02  0.9764507E-01
         21   -1    0    0  501  502  0.00000000000E+00  0.00000000000E+00  0.20203960505E+03  0.20203960505E+03  0.00000000000E+00 0. -1.
         13   -1    0    0    0    0 -0.00000000000E+00 -0.00000000000E+00 -0.10000000000E+04  0.10000000000E+04  0.00000000000E+00 0.  1.
    9000005    2    1    2  501    0 -0.33089499099E+02  0.41103396399E+02 -0.87793524621E+03  0.11062253004E+04  0.67095433117E+03 0.  0.
         13    1    3    3    0    0 -0.22918480809E+03  0.13904943837E+03 -0.84258139741E+03  0.88419671670E+03  0.00000000000E+00 0.  1.
          1    1    3    3  501    0  0.19609530899E+03 -0.97946041974E+02 -0.35353848802E+02  0.22202858368E+03  0.00000000000E+00 0.  1.
         -3    1    1    2    0  502  0.33089499099E+02 -0.41103396399E+02  0.79974851261E+02  0.95814304675E+02  0.00000000000E+00 0. -1.
<mgrwt>
<rscale>  1 0.67302609E+03</rscale>
<asrwt>0</asrwt>
<pdfrwt beam="1">  1       21 0.31083015E-01 0.67302609E+03</pdfrwt>
<pdfrwt beam="2">0</pdfrwt>
<totfact> 0.94371555E+02</totfact>
</mgrwt>
</event>
<event>
 6    1  0.1439793E-004  0.6447514E+03  0.7818608E-02  0.9816678E-01
         21   -1    0    0  501  502  0.00000000000E+00  0.00000000000E+00  0.11643200347E+03  0.11643200347E+03  0.00000000000E+00 0.  1.
         13   -1    0    0    0    0 -0.00000000000E+00 -0.00000000000E+00 -0.10000000000E+04  0.10000000000E+04  0.00000000000E+00 0.  1.
    9000005    2    1    2  501    0  0.24912177684E+02  0.14556634777E+02 -0.87389509883E+03  0.10860004875E+04  0.64410550604E+03 0.  0.
         13    1    3    3    0    0 -0.35385416501E+02  0.20879539635E+03 -0.25189004070E+02  0.21326540077E+03  0.00000000000E+00 0.  1.
          3    1    3    3  501    0  0.60297594184E+02 -0.19423876157E+03 -0.84870609476E+03  0.87273508675E+03  0.00000000000E+00 0.  1.
         -3    1    1    2    0  502 -0.24912177684E+02 -0.14556634777E+02 -0.96728977050E+01  0.30431515950E+02  0.00000000000E+00 0. -1.
<mgrwt>
<rscale>  1 0.64475144E+03</rscale>
<asrwt>0</asrwt>
<pdfrwt beam="1">  1       21 0.17912615E-01 0.64475144E+03</pdfrwt>
<pdfrwt beam="2">0</pdfrwt>
<totfact> 0.27697845E+03</totfact>
</mgrwt>
</event>
<event>
 6    1  0.1439793E-004  0.6744266E+03  0.7818608E-02  0.9761994E-01
         21   -1    0    0  501  502  0.00000000000E+00  0.00000000000E+00  0.17165072670E+03  0.17165072670E+03  0.00000000000E+00 0.  1.
         13   -1    0    0    0    0 -0.00000000000E+00 -0.00000000000E+00 -0.10000000000E+04  0.10000000000E+04  0.00000000000E+00 0.  1.
    9000005    2    1    2  501    0 -0.14537444069E+03  0.20196106907E+02 -0.73586085696E+03  0.99816955223E+03  0.65826259461E+03 0.  0.
         13    1    3    3    0    0 -0.25127219250E+02  0.45948412214E+02 -0.83719013318E+03  0.83882653321E+03  0.00000000000E+00 0.  1.
          3    1    3    3  501    0 -0.12024722144E+03 -0.25752305307E+02  0.10132927622E+03  0.15934301902E+03  0.00000000000E+00 0.  1.
         -1    1    1    2    0  502  0.14537444069E+03 -0.20196106907E+02 -0.92488416337E+02  0.17348117447E+03  0.00000000000E+00 0. -1.
<mgrwt>
<rscale>  1 0.67442661E+03</rscale>
<asrwt>0</asrwt>
<pdfrwt beam="1">  1       21 0.26407803E-01 0.67442661E+03</pdfrwt>
<pdfrwt beam="2">0</pdfrwt>
<totfact> 0.13057623E+03</totfact>
</mgrwt>
</event>
<event>
 6    1  0.1439793E-004  0.6383459E+03  0.7818608E-02  0.9828896E-01
         21   -1    0    0  501  502  0.00000000000E+00  0.00000000000E+00  0.12825872836E+03  0.12825872836E+03  0.00000000000E+00 0.  1.
         13   -1    0    0    0    0 -0.00000000000E+00 -0.00000000000E+00 -0.10000000000E+04  0.10000000000E+04  0.00000000000E+00 0.  1.
    9000005    2    1    2  501    0  0.11054823677E+02  0.22057031856E+02 -0.89162129515E+03  0.10965737617E+04  0.63786891992E+03 0.  0.
         13    1    3    3    0    0  0.31527844778E+03  0.80554810999E+02 -0.51097884928E+03  0.60579613867E+03  0.00000000000E+00 0.  1.
          1    1    3    3  501    0 -0.30422362411E+03 -0.58497779144E+02 -0.38064244587E+03  0.49077762299E+03  0.00000000000E+00 0.  1.
         -3    1    1    2    0  502 -0.11054823677E+02 -0.22057031856E+02  0.19880023511E+02  0.31684966713E+02  0.00000000000E+00 0. -1.
<mgrwt>
<rscale>  1 0.63834589E+03</rscale>
<asrwt>0</asrwt>
<pdfrwt beam="1">  1       21 0.19732111E-01 0.63834589E+03</pdfrwt>
<pdfrwt beam="2">0</pdfrwt>
<totfact> 0.23040466E+03</totfact>
</mgrwt>
</event>
<event>
 6    1  0.1439793E-004  0.6607816E+03  0.7818608E-02  0.9786756E-01
         21   -1    0    0  501  502  0.00000000000E+00  0.00000000000E+00  0.20376051650E+03  0.20376051650E+03  0.00000000000E+00 0. -1.
         13   -1    0    0    0    0 -0.00000000000E+00 -0.00000000000E+00 -0.10000000000E+04  0.10000000000E+04  0.00000000000E+00 0.  1.
    9000005    2    1    2  501    0 -0.17850756565E+03  0.18146177240E+02 -0.78196172251E+03  0.10237658244E+04  0.63595447393E+03 0.  0.
         13    1    3    3    0    0 -0.35430175206E+03  0.17858226469E+03 -0.61928454380E+03  0.73548263267E+03  0.00000000000E+00 0.  1.
          3    1    3    3  501    0  0.17579418642E+03 -0.16043608745E+03 -0.16267717871E+03  0.28828319168E+03  0.00000000000E+00 0.  1.
         -1    1    1    2    0  502  0.17850756565E+03 -0.18146177240E+02 -0.14277760995E+02  0.17999469214E+03  0.00000000000E+00 0. -1.
<mgrwt>
<rscale>  1 0.66078160E+03</rscale>
<asrwt>0</asrwt>
<pdfrwt beam="1">  1       21 0.31347771E-01 0.66078160E+03</pdfrwt>
<pdfrwt beam="2">0</pdfrwt>
<totfact> 0.92847104E+02</totfact>
</mgrwt>
</event>
<event>
 6    1  0.1439793E-004  0.6509300E+03  0.7818608E-02  0.9805036E-01
         21   -1    0    0  501  502  0.00000000000E+00  0.00000000000E+00  0.11609166107E+03  0.11609166107E+03  0.00000000000E+00 0.  1.
         13   -1    0    0    0    0 -0.00000000000E+00 -0.00000000000E+00 -0.10000000000E+04  0.10000000000E+04  0.00000000000E+00 0.  1.
    9000005    2    1    2  501    0 -0.16170391945E+02  0.17132895899E+02 -0.87573328214E+03  0.10911547557E+04  0.65050357544E+03 0.  0.
         13    1    3    3    0    0  0.27206207626E+03 -0.14905598718E+03 -0.50814677047E+03  0.59535586080E+03  0.00000000000E+00 0.  1.
          1    1    3    3  501    0 -0.28823246820E+03  0.16618888308E+03 -0.36758651167E+03  0.49579889486E+03  0.00000000000E+00 0.  1.
         -1    1    1    2    0  502  0.16170391945E+02 -0.17132895899E+02 -0.81750567948E+01  0.24936905404E+02  0.00000000000E+00 0. -1.
<mgrwt>
<rscale>  1 0.65093004E+03</rscale>
<asrwt>0</asrwt>
<pdfrwt beam="1">  1       21 0.17860255E-01 0.65093004E+03</pdfrwt>
<pdfrwt beam="2">0</pdfrwt>
<totfact> 0.27846352E+03</totfact>
</mgrwt>
</event>
<event>
 6    1  0.1439793E-004  0.6457406E+03  0.7818608E-02  0.9814805E-01
         21   -1    0    0  501  502  0.00000000000E+00  0.00000000000E+00  0.24410381937E+03  0.24410381937E+03  0.00000000000E+00 0.  1.
         13   -1    0    0    0    0 -0.00000000000E+00 -0.00000000000E+00 -0.10000000000E+04  0.10000000000E+04  0.00000000000E+00 0.  1.
    9000005    2    1    2  501    0  0.12896177708E+02 -0.28917361525E+02 -0.89377293105E+03  0.11026381928E+04  0.64496388017E+03 0.  0.
         13    1    3    3    0    0  0.23762324006E+03  0.72445359373E+02 -0.80198000078E+03  0.83957433022E+03  0.00000000000E+00 0.  1.
          1    1    3    3  501    0 -0.22472706236E+03 -0.10136272090E+03 -0.91792930274E+02  0.26306386257E+03  0.00000000000E+00 0.  1.
         -3    1    1    2    0  502 -0.12896177708E+02  0.28917361525E+02  0.13787675042E+03  0.14146562658E+03  0.00000000000E+00 0. -1.
<mgrwt>
<rscale>  1 0.64574061E+03</rscale>
<asrwt>0</asrwt>
<pdfrwt beam="1">  1       21 0.37554433E-01 0.64574061E+03</pdfrwt>
<pdfrwt beam="2">0</pdfrwt>
<totfact> 0.64360203E+02</totfact>
</mgrwt>
</event>
<event>
 6    1  0.1439793E-004  0.6817095E+03  0.7818608E-02  0.9749033E-01
         21   -1    0    0  501  502  0.00000000000E+00  0.00000000000E+00  0.65169424216E+03  0.65169424216E+03  0.00000000000E+00 0. -1.
         13   -1    0    0    0    0 -0.00000000000E+00 -0.00000000000E+00 -0.10000000000E+04  0.10000000000E+04  0.00000000000E+00 0.  1.
    9000005    2    1    2  501    0 -0.11824462376E+03  0.56598270928E+02 -0.87483984391E+03  0.11090863735E+04  0.66898630489E+03 0.  0.
         13    1    3    3    0    0 -0.85948786251E+02  0.31518426316E+03 -0.19370410575E+03  0.37980204605E+03  0.00000000000E+00 0.  1.
          3    1    3    3  501    0 -0.32295837511E+02 -0.25858599223E+03 -0.68113573816E+03  0.72928432747E+03  0.00000000000E+00 0.  1.
         -1    1    1    2    0  502  0.11824462376E+03 -0.56598270928E+02  0.52653408607E+03  0.54260786864E+03  0.00000000000E+00 0. -1.
<mgrwt>
<rscale>  1 0.68170949E+03</rscale>
<asrwt>0</asrwt>
<pdfrwt beam="1">  1       21 0.10026065E+00 0.68170949E+03</pdfrwt>
<pdfrwt beam="2">0</pdfrwt>
<totfact> 0.71727423E+01</totfact>
</mgrwt>
</event>
<event>
 6    1  0.1439793E-004  0.6466504E+03  0.7818608E-02  0.9813085E-01
         21   -1    0    0  501  502  0.00000000000E+00  0.00000000000E+00  0.14239591839E+03  0.14239591839E+03  0.00000000000E+00 0.  1.
         13   -1    0    0    0    0 -0.00000000000E+00 -0.00000000000E+00 -0.10000000000E+04  0.10000000000E+04  0.00000000000E+00 0.  1.
    9000005    2    1    2  501    0 -0.39617428560E+02 -0.29124423423E+01 -0.88358234158E+03  0.10949312688E+04  0.64542908685E+03 0.  0.
         13    1    3    3    0    0 -0.17078735359E+03  0.24367756876E+03 -0.20565171911E+03  0.36171771762E+03  0.00000000000E+00 0.  1.
          1    1    3    3  501    0  0.13116992503E+03 -0.24659001110E+03 -0.67793062247E+03  0.73321355122E+03  0.00000000000E+00 0.  1.
         -1    1    1    2    0  502  0.39617428560E+02  0.29124423423E+01  0.25978259969E+02  0.47464649552E+02  0.00000000000E+00 0. -1.
<mgrwt>
<rscale>  1 0.64665039E+03</rscale>
<asrwt>0</asrwt>
<pdfrwt beam="1">  1       21 0.21907064E-01 0.64665039E+03</pdfrwt>
<pdfrwt beam="2">0</pdfrwt>
<totfact> 0.18834651E+03</totfact>
</mgrwt>
</event>
<event>
 6    1  0.1439793E-004  0.6556623E+03  0.7818608E-02  0.9796212E-01
         21   -1    0    0  501  502  0.00000000000E+00  0.00000000000E+00  0.14114856329E+03  0.14114856329E+03  0.00000000000E+00 0.  1.
         13   -1    0    0    0    0 -0.00000000000E+00 -0.00000000000E+00 -0.10000000000E+04  0.10000000000E+04  0.00000000000E+00 0.  1.
    9000005    2    1    2  501    0 -0.92854073489E+02  0.57231222756E+01 -0.78186143176E+03  0.10203922220E+04  0.64902877843E+03 0.  0.
         13    1    3    3    0    0 -0.15103077026E+03  0.10505618419E+03  0.41850135499E+02  0.18867572510E+03  0.00000000000E+00 0.  1.
          1    1    3    3  501    0  0.58176696774E+02 -0.99333061910E+02 -0.82371156726E+03  0.83171649693E+03  0.00000000000E+00 0.  1.
         -3    1    1    2    0  502  0.92854073489E+02 -0.57231222756E+01 -0.76990004950E+02  0.12075634126E+03  0.00000000000E+00 0. -1.
<mgrwt>
<rscale>  1 0.65566225E+03</rscale>
<asrwt>0</asrwt>
<pdfrwt beam="1">  1       21 0.21715163E-01 0.65566225E+03</pdfrwt>
<pdfrwt beam="2">0</pdfrwt>
<totfact> 0.19150211E+03</totfact>
</mgrwt>
</event>
<event>
 6    1  0.1439793E-004  0.6514880E+03  0.7818608E-02  0.9803991E-01
         21   -1    0    0  501  502  0.00000000000E+00  0.00000000000E+00  0.35208095107E+03  0.35208095107E+03  0.00000000000E+00 0. -1.
         13   -1    0    0    0    0 -0.00000000000E+00 -0.00000000000E+00 -0.10000000000E+04  0.10000000000E+04  0.00000000000E+00 0.  1.
    9000005    2    1    2  501    0 -0.20826548264E+01 -0.41410650485E+02 -0.89195632700E+03  0.11045463625E+04  0.65016720796E+03 0.  0.
         13    1    3    3    0    0  0.32173379045E+03  0.12778097117E+02 -0.47489306968E+03  0.57375895576E+03  0.00000000000E+00 0.  1.
          3    1    3    3  501    0 -0.32381644528E+03 -0.54188747602E+02 -0.41706325732E+03  0.53078740679E+03  0.00000000000E+00 0.  1.
         -1    1    1    2    0  502  0.20826548264E+01  0.41410650485E+02  0.24403727807E+03  0.24753458852E+03  0.00000000000E+00 0. -1.
<mgrwt>
<rscale>  1 0.65148797E+03</rscale>
<asrwt>0</asrwt>
<pdfrwt beam="1">  1       21 0.54166299E-01 0.65148797E+03</pdfrwt>
<pdfrwt beam="2">0</pdfrwt>
<totfact> 0.29674348E+02</totfact>
</mgrwt>
</event>
<event>
 6    1  0.1439793E-004  0.6705114E+03  0.7818608E-02  0.9769034E-01
         21   -1    0    0  501  502  0.00000000000E+00  0.00000000000E+00  0.21335188112E+03  0.21335188112E+03  0.00000000000E+00 0.  1.
         13   -1    0    0    0    0 -0.00000000000E+00 -0.00000000000E+00 -0.10000000000E+04  0.10000000000E+04  0.00000000000E+00 0.  1.
    9000005    2    1    2  501    0 -0.22399364785E+02 -0.22893058580E+02 -0.88476900351E+03  0.11101359343E+04  0.66974605591E+03 0.  0.
         13    1    3    3    0    0  0.90368766382E+02  0.15636869531E+03 -0.87995721868E+03  0.89829972143E+03  0.00000000000E+00 0.  1.
          3    1    3    3  501    0 -0.11276813117E+03 -0.17926175389E+03 -0.48117848298E+01  0.21183621288E+03  0.00000000000E+00 0.  1.
         -3    1    1    2    0  502  0.22399364785E+02  0.22893058580E+02  0.98120884634E+02  0.10321594681E+03  0.00000000000E+00 0. -1.
<mgrwt>
<rscale>  1 0.67051145E+03</rscale>
<asrwt>0</asrwt>
<pdfrwt beam="1">  1       21 0.32823365E-01 0.67051145E+03</pdfrwt>
<pdfrwt beam="2">0</pdfrwt>
<totfact> 0.84560405E+02</totfact>
</mgrwt>
</event>
<event>
 6    1  0.1439793E-004  0.6476236E+03  0.7818608E-02  0.9811249E-01
         21   -1    0    0  501  502  0.00000000000E+00  0.00000000000E+00  0.15996399740E+03  0.15996399740E+03  0.00000000000E+00 0. -1.
         13   -1    0    0    0    0 -0.00000000000E+00 -0.00000000000E+00 -0.10000000000E+04  0.10000000000E+04  0.00000000000E+00 0.  1.
    9000005    2    1    2  501    0 -0.12325291283E+02 -0.35148319993E+02 -0.88810247302E+03  0.10991552580E+04  0.64655159229E+03 0.  0.
         13    1    3    3    0    0 -0.31375581716E+03 -0.59891667572E+02 -0.30182682421E+03  0.43946462481E+03  0.00000000000E+00 0.  1.
          3    1    3    3  501    0  0.30143052588E+03  0.24743347579E+02 -0.58627564881E+03  0.65969063323E+03  0.00000000000E+00 0.  1.
         -1    1    1    2    0  502  0.12325291283E+02  0.35148319993E+02  0.48066470419E+02  0.60808739356E+02  0.00000000000E+00 0. -1.
<mgrwt>
<rscale>  1 0.64762356E+03</rscale>
<asrwt>0</asrwt>
<pdfrwt beam="1">  1       21 0.24609845E-01 0.64762356E+03</pdfrwt>
<pdfrwt beam="2">0</pdfrwt>
<totfact> 0.15019154E+03</totfact>
</mgrwt>
</event>
<event>
 6    1  0.1439793E-004  0.7044112E+03  0.7818608E-02  0.9709718E-01
         21   -1    0    0  501  502  0.00000000000E+00  0.00000000000E+00  0.32958622231E+03  0.32958622231E+03  0.00000000000E+00 0. -1.
         13   -1    0    0    0    0 -0.00000000000E+00 -0.00000000000E+00 -0.10000000000E+04  0.10000000000E+04  0.00000000000E+00 0.  1.
    9000005    2    1    2  501    0  0.14101183527E+03 -0.21064424998E+03 -0.78212556298E+03  0.10525756436E+04  0.65722123485E+03 0.  0.
         13    1    3    3    0    0  0.29728972765E+03  0.11112533688E+03 -0.51961192720E+03  0.60887320318E+03  0.00000000000E+00 0.  1.
          1    1    3    3  501    0 -0.15627789239E+03 -0.32176958686E+03 -0.26251363577E+03  0.44370244043E+03  0.00000000000E+00 0.  1.
         -3    1    1    2    0  502 -0.14101183527E+03  0.21064424998E+03  0.11171178528E+03  0.27701057869E+03  0.00000000000E+00 0. -1.
<mgrwt>
<rscale>  1 0.70441116E+03</rscale>
<asrwt>0</asrwt>
<pdfrwt beam="1">  1       21 0.50705571E-01 0.70441116E+03</pdfrwt>
<pdfrwt beam="2">0</pdfrwt>
<totfact> 0.34053901E+02</totfact>
</mgrwt>
</event>
<event>
 6    1  0.1439793E-004  0.8254191E+03  0.7818608E-02  0.9523936E-01
         21   -1    0    0  501  502  0.00000000000E+00  0.00000000000E+00  0.46528553485E+03  0.46528553485E+03  0.00000000000E+00 0. -1.
         13   -1    0    0    0    0 -0.00000000000E+00 -0.00000000000E+00 -0.10000000000E+04  0.10000000000E+04  0.00000000000E+00 0.  1.
    9000005    2    1    2  501    0  0.41609730086E+03 -0.30567976901E+03 -0.45602030771E+03  0.94301179879E+03  0.64400283124E+03 0.  0.
         13    1    3    3    0    0  0.37415837614E+03 -0.15669633795E+03  0.54734426984E+02  0.40932149987E+03  0.00000000000E+00 0.  1.
          3    1    3    3  501    0  0.41938924716E+02 -0.14898343107E+03 -0.51075473470E+03  0.53369029891E+03  0.00000000000E+00 0.  1.
         -1    1    1    2    0  502 -0.41609730086E+03  0.30567976901E+03 -0.78694157439E+02  0.52227373606E+03  0.00000000000E+00 0. -1.
<mgrwt>
<rscale>  1 0.82541912E+03</rscale>
<asrwt>0</asrwt>
<pdfrwt beam="1">  1       21 0.71582388E-01 0.82541912E+03</pdfrwt>
<pdfrwt beam="2">0</pdfrwt>
<totfact> 0.15668111E+02</totfact>
</mgrwt>
</event>
<event>
 6    1  0.1439793E-004  0.6484694E+03  0.7818608E-02  0.9809655E-01
         21   -1    0    0  501  502  0.00000000000E+00  0.00000000000E+00  0.12482980877E+03  0.12482980877E+03  0.00000000000E+00 0.  1.
         13   -1    0    0    0    0 -0.00000000000E+00 -0.00000000000E+00 -0.10000000000E+04  0.10000000000E+04  0.00000000000E+00 0.  1.
    9000005    2    1    2  501    0  0.41910728065E+02  0.26280961042E+02 -0.85060042946E+03  0.10695951165E+04  0.64657978976E+03 0.  0.
         13    1    3    3    0    0  0.68492725314E+02  0.32991108590E+03 -0.36940422398E+03  0.49999205865E+03  0.00000000000E+00 0.  1.
          3    1    3    3  501    0 -0.26581997249E+02 -0.30363012486E+03 -0.48119620548E+03  0.56960305781E+03  0.00000000000E+00 0.  1.
         -3    1    1    2    0  502 -0.41910728065E+02 -0.26280961042E+02 -0.24569761772E+02  0.55234692302E+02  0.00000000000E+00 0. -1.
<mgrwt>
<rscale>  1 0.64846945E+03</rscale>
<asrwt>0</asrwt>
<pdfrwt beam="1">  1       21 0.19204585E-01 0.64846945E+03</pdfrwt>
<pdfrwt beam="2">0</pdfrwt>
<totfact> 0.24256608E+03</totfact>
</mgrwt>
</event>
<event>
 6    1  0.1439793E-004  0.6378826E+03  0.7818608E-02  0.9829786E-01
         21   -1    0    0  501  502  0.00000000000E+00  0.00000000000E+00  0.12532652299E+03  0.12532652299E+03  0.00000000000E+00 0.  1.
         13   -1    0    0    0    0 -0.00000000000E+00 -0.00000000000E+00 -0.10000000000E+04  0.10000000000E+04  0.00000000000E+00 0.  1.
    9000005    2    1    2  501    0  0.17954456556E+02 -0.12870551674E+02 -0.89244518144E+03  0.10969743257E+04  0.63750000459E+03 0.  0.
         13    1    3    3    0    0  0.11748628361E+03 -0.30551796029E+03 -0.49580225110E+03  0.59410783793E+03  0.00000000000E+00 0.  1.
          1    1    3    3  501    0 -0.99531827059E+02  0.29264740862E+03 -0.39664293034E+03  0.50286648780E+03  0.00000000000E+00 0.  1.
         -1    1    1    2    0  502 -0.17954456556E+02  0.12870551674E+02  0.17771704431E+02  0.28352197252E+02  0.00000000000E+00 0. -1.
<mgrwt>
<rscale>  1 0.63788265E+03</rscale>
<asrwt>0</asrwt>
<pdfrwt beam="1">  1       21 0.19281003E-01 0.63788265E+03</pdfrwt>
<pdfrwt beam="2">0</pdfrwt>
<totfact> 0.24082819E+03</totfact>
</mgrwt>
</event>
<event>
 6    1  0.1439793E-004  0.6648262E+03  0.7818608E-02  0.9779350E-01
         21   -1    0    0  501  502  0.00000000000E+00  0.00000000000E+00  0.15183242202E+03  0.15183242202E+03  0.00000000000E+00 0. -1.
         13   -1    0    0    0    0 -0.00000000000E+00 -0.00000000000E+00 -0.10000000000E+04  0.10000000000E+04  0.00000000000E+00 0.  1.
    9000005    2    1    2  501    0 -0.14489593326E+02  0.17061103999E+02 -0.88610746505E+03  0.11077817170E+04  0.66444929322E+03 0.  0.
         13    1    3    3    0    0 -0.18849798429E+03  0.28061064617E+03 -0.35747616446E+03  0.49199901726E+03  0.00000000000E+00 0.  1.
          1    1    3    3  501    0  0.17400839097E+03 -0.26354954217E+03 -0.52863130059E+03  0.61578269971E+03  0.00000000000E+00 0.  1.
         -3    1    1    2    0  502  0.14489593326E+02 -0.17061103999E+02  0.37939887074E+02  0.44050705052E+02  0.00000000000E+00 0. -1.
<mgrwt>
<rscale>  1 0.66482621E+03</rscale>
<asrwt>0</asrwt>
<pdfrwt beam="1">  1       21 0.23358833E-01 0.66482621E+03</pdfrwt>
<pdfrwt beam="2">0</pdfrwt>
<totfact> 0.16615377E+03</totfact>
</mgrwt>
</event>
<event>
 6    1  0.1439793E-004  0.7387875E+03  0.7818608E-02  0.9653107E-01
         21   -1    0    0  501  502  0.00000000000E+00  0.00000000000E+00  0.22276499950E+03  0.22276499950E+03  0.00000000000E+00 0.  1.
         13   -1    0    0    0    0 -0.00000000000E+00 -0.00000000000E+00 -0.10000000000E+04  0.10000000000E+04  0.00000000000E+00 0.  1.
    9000005    2    1    2  501    0  0.54515904302E+02  0.96484829264E+02 -0.82023074372E+03  0.11038955752E+04  0.73042840982E+03 0.  0.
         13    1    3    3    0    0 -0.25918486039E+03 -0.11945478741E+03 -0.59887858494E+03  0.66340168645E+03  0.00000000000E+00 0.  1.
          3    1    3    3  501    0  0.31370076469E+03  0.21593961667E+03 -0.22135215879E+03  0.44049388874E+03  0.00000000000E+00 0.  1.
         -1    1    1    2    0  502 -0.54515904302E+02 -0.96484829264E+02  0.42995743222E+02  0.11886942431E+03  0.00000000000E+00 0. -1.
<mgrwt>
<rscale>  1 0.73878750E+03</rscale>
<asrwt>0</asrwt>
<pdfrwt beam="1">  1       21 0.34271537E-01 0.73878750E+03</pdfrwt>
<pdfrwt beam="2">0</pdfrwt>
<totfact> 0.77118854E+02</totfact>
</mgrwt>
</event>
<event>
 6    1  0.1439793E-004  0.6571433E+03  0.7818608E-02  0.9793467E-01
         21   -1    0    0  501  502  0.00000000000E+00  0.00000000000E+00  0.52605274918E+03  0.52605274918E+03  0.00000000000E+00 0. -1.
         13   -1    0    0    0    0 -0.00000000000E+00 -0.00000000000E+00 -0.10000000000E+04  0.10000000000E+04  0.00000000000E+00 0.  1.
    9000005    2    1    2  501    0  0.13338269318E+03 -0.18213271908E+02 -0.87998724125E+03  0.10982781123E+04  0.64320649961E+03 0.  0.
         13    1    3    3    0    0  0.29070998622E+03 -0.23788245960E+03 -0.40923196433E+03  0.55549181929E+03  0.00000000000E+00 0.  1.
          1    1    3    3  501    0 -0.15732729304E+03  0.21966918769E+03 -0.47075527692E+03  0.54278629303E+03  0.00000000000E+00 0.  1.
         -3    1    1    2    0  502 -0.13338269318E+03  0.18213271908E+02  0.40603999042E+03  0.42777463685E+03  0.00000000000E+00 0. -1.
<mgrwt>
<rscale>  1 0.65714326E+03</rscale>
<asrwt>0</asrwt>
<pdfrwt beam="1">  1       21 0.80931190E-01 0.65714326E+03</pdfrwt>
<pdfrwt beam="2">0</pdfrwt>
<totfact> 0.12015667E+02</totfact>
</mgrwt>
</event>
<event>
 6    1  0.1439793E-004  0.6401716E+03  0.7818608E-02  0.9825398E-01
         21   -1    0    0  501  502  0.00000000000E+00  0.00000000000E+00  0.16433540536E+03  0.16433540536E+03  0.00000000000E+00 0. -1.
         13   -1    0    0    0    0 -0.00000000000E+00 -0.00000000000E+00 -0.10000000000E+04  0.10000000000E+04  0.00000000000E+00 0.  1.
    9000005    2    1    2  501    0 -0.99064623668E+02 -0.68014161245E+02 -0.82421824896E+03  0.10436260659E+04  0.62879242824E+03 0.  0.
         13    1    3    3    0    0 -0.24841766510E+02 -0.28275858771E+03 -0.12819042162E+03  0.31145194891E+03  0.00000000000E+00 0.  1.
          1    1    3    3  501    0 -0.74222857158E+02  0.21474442646E+03 -0.69602782734E+03  0.73217411703E+03  0.00000000000E+00 0.  1.
         -3    1    1    2    0  502  0.99064623668E+02  0.68014161245E+02 -0.11446345682E+02  0.12070933941E+03  0.00000000000E+00 0. -1.
<mgrwt>
<rscale>  1 0.64017157E+03</rscale>
<asrwt>0</asrwt>
<pdfrwt beam="1">  1       21 0.25282369E-01 0.64017157E+03</pdfrwt>
<pdfrwt beam="2">0</pdfrwt>
<totfact> 0.14251896E+03</totfact>
</mgrwt>
</event>
<event>
 6    1  0.1439793E-004  0.6556884E+03  0.7818608E-02  0.9796163E-01
         21   -1    0    0  501  502  0.00000000000E+00  0.00000000000E+00  0.18758100861E+03  0.18758100861E+03  0.00000000000E+00 0.  1.
         13   -1    0    0    0    0 -0.00000000000E+00 -0.00000000000E+00 -0.10000000000E+04  0.10000000000E+04  0.00000000000E+00 0.  1.
    9000005    2    1    2  501    0 -0.78630520582E+02  0.17574570176E+02 -0.86937123776E+03  0.10889139794E+04  0.65071935675E+03 0.  0.
         13    1    3    3    0    0 -0.15564675306E+03 -0.29218624391E+03 -0.37251019100E+03  0.49835986523E+03  0.00000000000E+00 0.  1.
          1    1    3    3  501    0  0.77016232479E+02  0.30976081408E+03 -0.49686104675E+03  0.59055411419E+03  0.00000000000E+00 0.  1.
         -3    1    1    2    0  502  0.78630520582E+02 -0.17574570176E+02  0.56952246367E+02  0.98667029195E+02  0.00000000000E+00 0. -1.
<mgrwt>
<rscale>  1 0.65568842E+03</rscale>
<asrwt>0</asrwt>
<pdfrwt beam="1">  1       21 0.28858616E-01 0.65568842E+03</pdfrwt>
<pdfrwt beam="2">0</pdfrwt>
<totfact> 0.10961700E+03</totfact>
</mgrwt>
</event>
<event>
 6    1  0.1439793E-004  0.6548392E+03  0.7818608E-02  0.9797741E-01
         21   -1    0    0  501  502  0.00000000000E+00  0.00000000000E+00  0.26370886776E+03  0.26370886776E+03  0.00000000000E+00 0.  1.
         13   -1    0    0    0    0 -0.00000000000E+00 -0.00000000000E+00 -0.10000000000E+04  0.10000000000E+04  0.00000000000E+00 0.  1.
    9000005    2    1    2  501    0 -0.14590084702E+01  0.47591110791E+02 -0.88877537038E+03  0.11039638039E+04  0.65310594769E+03 0.  0.
         13    1    3    3    0    0  0.24460096723E+03 -0.87131092249E+02 -0.12084748848E+03  0.28640107521E+03  0.00000000000E+00 0.  1.
          1    1    3    3  501    0 -0.24605997570E+03  0.13472220304E+03 -0.76792788189E+03  0.81756272874E+03  0.00000000000E+00 0.  1.
         -3    1    1    2    0  502  0.14590084702E+01 -0.47591110791E+02  0.15248423814E+03  0.15974506381E+03  0.00000000000E+00 0. -1.
<mgrwt>
<rscale>  1 0.65483923E+03</rscale>
<asrwt>0</asrwt>
<pdfrwt beam="1">  1       21 0.40570594E-01 0.65483923E+03</pdfrwt>
<pdfrwt beam="2">0</pdfrwt>
<totfact> 0.54815499E+02</totfact>
</mgrwt>
</event>
<event>
 6    1  0.1439793E-004  0.5444279E+03  0.7818608E-02  0.1002792E+00
         21   -1    0    0  501  502  0.00000000000E+00  0.00000000000E+00  0.93496954490E+02  0.93496954490E+02  0.00000000000E+00 0.  1.
         13   -1    0    0    0    0 -0.00000000000E+00 -0.00000000000E+00 -0.10000000000E+04  0.10000000000E+04  0.00000000000E+00 0.  1.
    9000005    2    1    2  501    0  0.29009733785E+02 -0.21118537992E+02 -0.90672218840E+03  0.10576137366E+04  0.54324408110E+03 0.  0.
         13    1    3    3    0    0  0.15475527458E+03  0.34257249127E+02 -0.19362759884E+02  0.15967990042E+03  0.00000000000E+00 0.  1.
          3    1    3    3  501    0 -0.12574554079E+03 -0.55375787119E+02 -0.88735942851E+03  0.89793383620E+03  0.00000000000E+00 0.  1.
         -3    1    1    2    0  502 -0.29009733785E+02  0.21118537992E+02  0.21914288681E+00  0.35883217871E+02  0.00000000000E+00 0. -1.
<mgrwt>
<rscale>  1 0.54442785E+03</rscale>
<asrwt>0</asrwt>
<pdfrwt beam="1">  1       21 0.14384146E-01 0.54442785E+03</pdfrwt>
<pdfrwt beam="2">0</pdfrwt>
<totfact> 0.41919797E+03</totfact>
</mgrwt>
</event>
<event>
 6    1  0.1439793E-004  0.6948038E+03  0.7818608E-02  0.9726160E-01
         21   -1    0    0  501  502  0.00000000000E+00  0.00000000000E+00  0.13273988073E+04  0.13273988073E+04  0.00000000000E+00 0. -1.
         13   -1    0    0    0    0 -0.00000000000E+00 -0.00000000000E+00 -0.10000000000E+04  0.10000000000E+04  0.00000000000E+00 0.  1.
    9000005    2    1    2  501    0  0.14658810035E+02 -0.24588803240E+02 -0.87912166200E+03  0.11205387770E+04  0.69421377410E+03 0.  0.
         13    1    3    3    0    0 -0.19123311794E+03 -0.50548510587E+02  0.19039351195E+02  0.19871525914E+03  0.00000000000E+00 0.  1.
          1    1    3    3  501    0  0.20589192798E+03  0.25959707347E+02 -0.89816101320E+03  0.92182351784E+03  0.00000000000E+00 0.  1.
         -3    1    1    2    0  502 -0.14658810035E+02  0.24588803240E+02  0.12065204693E+04  0.12068600304E+04  0.00000000000E+00 0. -1.
<mgrwt>
<rscale>  1 0.69480375E+03</rscale>
<asrwt>0</asrwt>
<pdfrwt beam="1">  1       21 0.20421520E+00 0.69480375E+03</pdfrwt>
<pdfrwt beam="2">0</pdfrwt>
<totfact> 0.10165064E+01</totfact>
</mgrwt>
</event>
<event>
 6    1  0.1439793E-004  0.6502809E+03  0.7818608E-02  0.9806252E-01
         21   -1    0    0  501  502  0.00000000000E+00  0.00000000000E+00  0.46825313991E+03  0.46825313991E+03  0.00000000000E+00 0. -1.
         13   -1    0    0    0    0 -0.00000000000E+00 -0.00000000000E+00 -0.10000000000E+04  0.10000000000E+04  0.00000000000E+00 0.  1.
    9000005    2    1    2  501    0  0.47094761839E+02 -0.12975350979E+02 -0.89246302891E+03  0.11042443065E+04  0.64844348576E+03 0.  0.
         13    1    3    3    0    0 -0.28281144362E+03 -0.18237784969E+02 -0.59905636268E+03  0.66270917838E+03  0.00000000000E+00 0.  1.
          1    1    3    3  501    0  0.32990620546E+03  0.52624339902E+01 -0.29340666623E+03  0.44153512816E+03  0.00000000000E+00 0.  1.
         -1    1    1    2    0  502 -0.47094761839E+02  0.12975350979E+02  0.36071616882E+03  0.36400883338E+03  0.00000000000E+00 0. -1.
<mgrwt>
<rscale>  1 0.65028089E+03</rscale>
<asrwt>0</asrwt>
<pdfrwt beam="1">  1       21 0.72038943E-01 0.65028089E+03</pdfrwt>
<pdfrwt beam="2">0</pdfrwt>
<totfact> 0.15734138E+02</totfact>
</mgrwt>
</event>
<event>
 6    1  0.1439793E-004  0.6780898E+03  0.7818608E-02  0.9755453E-01
         21   -1    0    0  501  502  0.00000000000E+00  0.00000000000E+00  0.34620795321E+03  0.34620795321E+03  0.00000000000E+00 0.  1.
         13   -1    0    0    0    0 -0.00000000000E+00 -0.00000000000E+00 -0.10000000000E+04  0.10000000000E+04  0.00000000000E+00 0.  1.
    9000005    2    1    2  501    0 -0.86149969830E+02 -0.13476477609E+03 -0.85367036974E+03  0.10902104802E+04  0.65895555911E+03 0.  0.
         13    1    3    3    0    0 -0.26449946865E+03 -0.94240614645E+02 -0.86254773636E+03  0.90709969676E+03  0.00000000000E+00 0.  1.
          3    1    3    3  501    0  0.17834949882E+03 -0.40524161444E+02  0.88773666124E+01  0.18311078349E+03  0.00000000000E+00 0.  1.
         -1    1    1    2    0  502  0.86149969830E+02  0.13476477609E+03  0.19987832295E+03  0.25599747296E+03  0.00000000000E+00 0. -1.
<mgrwt>
<rscale>  1 0.67808981E+03</rscale>
<asrwt>0</asrwt>
<pdfrwt beam="1">  1       21 0.53262761E-01 0.67808981E+03</pdfrwt>
<pdfrwt beam="2">0</pdfrwt>
<totfact> 0.30696386E+02</totfact>
</mgrwt>
</event>
<event>
 6    1  0.1439793E-004  0.6461677E+03  0.7818608E-02  0.9813997E-01
         21   -1    0    0  501  502  0.00000000000E+00  0.00000000000E+00  0.15027002815E+03  0.15027002815E+03  0.00000000000E+00 0. -1.
         13   -1    0    0    0    0 -0.00000000000E+00 -0.00000000000E+00 -0.10000000000E+04  0.10000000000E+04  0.00000000000E+00 0.  1.
    9000005    2    1    2  501    0 -0.75728414670E+02  0.18696327129E+02 -0.85544022053E+03  0.10720590802E+04  0.64144240205E+03 0.  0.
         13    1    3    3    0    0 -0.17539556640E+03 -0.26921203262E+03 -0.30549027934E+03  0.44335429849E+03  0.00000000000E+00 0.  1.
          3    1    3    3  501    0  0.99667151727E+02  0.28790835975E+03 -0.54994994119E+03  0.62870478173E+03  0.00000000000E+00 0.  1.
         -1    1    1    2    0  502  0.75728414670E+02 -0.18696327129E+02  0.57102486788E+01  0.78210947933E+02  0.00000000000E+00 0. -1.
<mgrwt>
<rscale>  1 0.64616770E+03</rscale>
<asrwt>0</asrwt>
<pdfrwt beam="1">  1       21 0.23118465E-01 0.64616770E+03</pdfrwt>
<pdfrwt beam="2">0</pdfrwt>
<totfact> 0.16968224E+03</totfact>
</mgrwt>
</event>
<event>
 6    1  0.1439793E-004  0.6518117E+03  0.7818608E-02  0.9803386E-01
         21   -1    0    0  501  502  0.00000000000E+00  0.00000000000E+00  0.12601687794E+03  0.12601687794E+03  0.00000000000E+00 0.  1.
         13   -1    0    0    0    0 -0.00000000000E+00 -0.00000000000E+00 -0.10000000000E+04  0.10000000000E+04  0.00000000000E+00 0.  1.
    9000005    2    1    2  501    0  0.35504095465E+02  0.37239794024E+02 -0.84425059910E+03  0.10665915805E+04  0.64977779470E+03 0.  0.
         13    1    3    3    0    0 -0.74166915873E+02 -0.15680755473E+02  0.93838042858E+02  0.12063248232E+03  0.00000000000E+00 0.  1.
          3    1    3    3  501    0  0.10967101134E+03  0.52920549497E+02 -0.93808864196E+03  0.94595909819E+03  0.00000000000E+00 0.  1.
         -1    1    1    2    0  502 -0.35504095465E+02 -0.37239794024E+02 -0.29732522958E+02  0.59425297434E+02  0.00000000000E+00 0. -1.
<mgrwt>
<rscale>  1 0.65181173E+03</rscale>
<asrwt>0</asrwt>
<pdfrwt beam="1">  1       21 0.19387211E-01 0.65181173E+03</pdfrwt>
<pdfrwt beam="2">0</pdfrwt>
<totfact> 0.23818825E+03</totfact>
</mgrwt>
</event>
<event>
 6    1  0.1439793E-004  0.6436824E+03  0.7818608E-02  0.9818706E-01
         21   -1    0    0  501  502  0.00000000000E+00  0.00000000000E+00  0.20490853024E+03  0.20490853024E+03  0.00000000000E+00 0.  1.
         13   -1    0    0    0    0 -0.00000000000E+00 -0.00000000000E+00 -0.10000000000E+04  0.10000000000E+04  0.00000000000E+00 0.  1.
    9000005    2    1    2  501    0 -0.34065387094E+02  0.18867706161E+02 -0.89227179001E+03  0.11002163358E+04  0.64250338315E+03 0.  0.
         13    1    3    3    0    0 -0.20924558349E+03  0.22360252530E+03 -0.22326257233E+03  0.37898282248E+03  0.00000000000E+00 0.  1.
          3    1    3    3  501    0  0.17518019640E+03 -0.20473481914E+03 -0.66900921769E+03  0.72123351331E+03  0.00000000000E+00 0.  1.
         -1    1    1    2    0  502  0.34065387094E+02 -0.18867706161E+02  0.97180320258E+02  0.10469219445E+03  0.00000000000E+00 0. -1.
<mgrwt>
<rscale>  1 0.64368240E+03</rscale>
<asrwt>0</asrwt>
<pdfrwt beam="1">  1       21 0.31524388E-01 0.64368240E+03</pdfrwt>
<pdfrwt beam="2">0</pdfrwt>
<totfact> 0.91905987E+02</totfact>
</mgrwt>
</event>
<event>
 6    1  0.1439793E-004  0.6961616E+03  0.7818608E-02  0.9723819E-01
         21   -1    0    0  501  502  0.00000000000E+00  0.00000000000E+00  0.22645191054E+03  0.22645191054E+03  0.00000000000E+00 0.  1.
         13   -1    0    0    0    0 -0.00000000000E+00 -0.00000000000E+00 -0.10000000000E+04  0.10000000000E+04  0.00000000000E+00 0.  1.
    9000005    2    1    2  501    0  0.54064566480E+02  0.14204880401E+02 -0.87044191256E+03  0.11145896339E+04  0.69391366387E+03 0.  0.
         13    1    3    3    0    0  0.17902826595E+03 -0.30357721245E+03 -0.48689140895E+03  0.60106030316E+03  0.00000000000E+00 0.  1.
          3    1    3    3  501    0 -0.12496369947E+03  0.31778209285E+03 -0.38355050361E+03  0.51352933075E+03  0.00000000000E+00 0.  1.
         -3    1    1    2    0  502 -0.54064566480E+02 -0.14204880401E+02  0.96893823107E+02  0.11186227663E+03  0.00000000000E+00 0. -1.
<mgrwt>
<rscale>  1 0.69616157E+03</rscale>
<asrwt>0</asrwt>
<pdfrwt beam="1">  1       21 0.34838754E-01 0.69616157E+03</pdfrwt>
<pdfrwt beam="2">0</pdfrwt>
<totfact> 0.74786036E+02</totfact>
</mgrwt>
</event>
<event>
 6    1  0.1439793E-004  0.6508305E+03  0.7818608E-02  0.9805222E-01
         21   -1    0    0  501  502  0.00000000000E+00  0.00000000000E+00  0.29308484875E+03  0.29308484875E+03  0.00000000000E+00 0.  1.
         13   -1    0    0    0    0 -0.00000000000E+00 -0.00000000000E+00 -0.10000000000E+04  0.10000000000E+04  0.00000000000E+00 0.  1.
    9000005    2    1    2  501    0  0.85357999509E+02  0.27450560103E+02 -0.88214446071E+03  0.10962477785E+04  0.64462455817E+03 0.  0.
         13    1    3    3    0    0 -0.62149152772E+02 -0.10765811222E+03  0.56484943034E+02  0.13654059875E+03  0.00000000000E+00 0.  1.
          3    1    3    3  501    0  0.14750715228E+03  0.13510867232E+03 -0.93862940374E+03  0.95970717976E+03  0.00000000000E+00 0.  1.
         -1    1    1    2    0  502 -0.85357999509E+02 -0.27450560103E+02  0.17522930946E+03  0.19683707024E+03  0.00000000000E+00 0. -1.
<mgrwt>
<rscale>  1 0.65083050E+03</rscale>
<asrwt>0</asrwt>
<pdfrwt beam="1">  1       21 0.45089975E-01 0.65083050E+03</pdfrwt>
<pdfrwt beam="2">0</pdfrwt>
<totfact> 0.43944021E+02</totfact>
</mgrwt>
</event>
<event>
 6    1  0.1439793E-004  0.6432409E+03  0.7818608E-02  0.9819545E-01
         21   -1    0    0  501  502  0.00000000000E+00  0.00000000000E+00  0.14867727990E+03  0.14867727990E+03  0.00000000000E+00 0.  1.
         13   -1    0    0    0    0 -0.00000000000E+00 -0.00000000000E+00 -0.10000000000E+04  0.10000000000E+04  0.00000000000E+00 0.  1.
    9000005    2    1    2  501    0 -0.68883512185E+02 -0.30118229219E+02 -0.85895714559E+03  0.10731105515E+04  0.63883239733E+03 0.  0.
         13    1    3    3    0    0 -0.14407849846E+02  0.76227164338E+02 -0.93057629039E+03  0.93380426159E+03  0.00000000000E+00 0.  1.
          3    1    3    3  501    0 -0.54475662339E+02 -0.10634539356E+03  0.71619144802E+02  0.13930628995E+03  0.00000000000E+00 0.  1.
         -1    1    1    2    0  502  0.68883512185E+02  0.30118229219E+02  0.76344254940E+01  0.75566728359E+02  0.00000000000E+00 0. -1.
<mgrwt>
<rscale>  1 0.64324092E+03</rscale>
<asrwt>0</asrwt>
<pdfrwt beam="1">  1       21 0.22873427E-01 0.64324092E+03</pdfrwt>
<pdfrwt beam="2">0</pdfrwt>
<totfact> 0.17325676E+03</totfact>
</mgrwt>
</event>
<event>
 6    1  0.1439793E-004  0.6634635E+03  0.7818608E-02  0.9781839E-01
         21   -1    0    0  501  502  0.00000000000E+00  0.00000000000E+00  0.14986491828E+03  0.14986491828E+03  0.00000000000E+00 0.  1.
         13   -1    0    0    0    0 -0.00000000000E+00 -0.00000000000E+00 -0.10000000000E+04  0.10000000000E+04  0.00000000000E+00 0.  1.
    9000005    2    1    2  501    0  0.23627827328E+02 -0.10097198997E+03 -0.78318084096E+03  0.10264287512E+04  0.65530919014E+03 0.  0.
         13    1    3    3    0    0  0.15027153170E+03  0.17421613434E+03 -0.66080835646E+03  0.69971456943E+03  0.00000000000E+00 0.  1.
          3    1    3    3  501    0 -0.12664370437E+03 -0.27518812431E+03 -0.12237248450E+03  0.32671418179E+03  0.00000000000E+00 0.  1.
         -3    1    1    2    0  502 -0.23627827328E+02  0.10097198997E+03 -0.66954240760E+02  0.12343616706E+03  0.00000000000E+00 0. -1.
<mgrwt>
<rscale>  1 0.66346345E+03</rscale>
<asrwt>0</asrwt>
<pdfrwt beam="1">  1       21 0.23056141E-01 0.66346345E+03</pdfrwt>
<pdfrwt beam="2">0</pdfrwt>
<totfact> 0.17043642E+03</totfact>
</mgrwt>
</event>
<event>
 6    1  0.1439793E-004  0.6377402E+03  0.7818608E-02  0.9830060E-01
         21   -1    0    0  501  502  0.00000000000E+00  0.00000000000E+00  0.26402788645E+03  0.26402788645E+03  0.00000000000E+00 0. -1.
         13   -1    0    0    0    0 -0.00000000000E+00 -0.00000000000E+00 -0.10000000000E+04  0.10000000000E+04  0.00000000000E+00 0.  1.
    9000005    2    1    2  501    0  0.68594593560E+02  0.10251168397E+03 -0.87205318303E+03  0.10803653669E+04  0.62569857627E+03 0.  0.
         13    1    3    3    0    0  0.28309040200E+03  0.18990799592E+03 -0.73757130670E+03  0.81253717151E+03  0.00000000000E+00 0.  1.
          3    1    3    3  501    0 -0.21449580845E+03 -0.87396311953E+02 -0.13448187634E+03  0.26782819539E+03  0.00000000000E+00 0.  1.
         -3    1    1    2    0  502 -0.68594593560E+02 -0.10251168397E+03  0.13608106948E+03  0.18366251955E+03  0.00000000000E+00 0. -1.
<mgrwt>
<rscale>  1 0.63774021E+03</rscale>
<asrwt>0</asrwt>
<pdfrwt beam="1">  1       21 0.40619674E-01 0.63774021E+03</pdfrwt>
<pdfrwt beam="2">0</pdfrwt>
<totfact> 0.54754722E+02</totfact>
</mgrwt>
</event>
<event>
 6    1  0.1439793E-004  0.6638684E+03  0.7818608E-02  0.9781099E-01
         21   -1    0    0  501  502  0.00000000000E+00  0.00000000000E+00  0.16647785299E+03  0.16647785299E+03  0.00000000000E+00 0. -1.
         13   -1    0    0    0    0 -0.00000000000E+00 -0.00000000000E+00 -0.10000000000E+04  0.10000000000E+04  0.00000000000E+00 0.  1.
    9000005    2    1    2  501    0  0.33339535870E+02  0.14832863916E+03 -0.68642260359E+03  0.95493309290E+03  0.64622620757E+03 0.  0.
         13    1    3    3    0    0  0.16387372426E+03  0.36589208391E+03 -0.49564464641E+03  0.63749135687E+03  0.00000000000E+00 0.  1.
          1    1    3    3  501    0 -0.13053418839E+03 -0.21756344475E+03 -0.19077795717E+03  0.31744173603E+03  0.00000000000E+00 0.  1.
         -1    1    1    2    0  502 -0.33339535870E+02 -0.14832863916E+03 -0.14709954342E+03  0.21154476009E+03  0.00000000000E+00 0. -1.
<mgrwt>
<rscale>  1 0.66386838E+03</rscale>
<asrwt>0</asrwt>
<pdfrwt beam="1">  1       21 0.25611977E-01 0.66386838E+03</pdfrwt>
<pdfrwt beam="2">0</pdfrwt>
<totfact> 0.13876488E+03</totfact>
</mgrwt>
</event>
<event>
 6    1  0.1439793E-004  0.6360740E+03  0.7818608E-02  0.9833267E-01
         21   -1    0    0  501  502  0.00000000000E+00  0.00000000000E+00  0.13030909010E+03  0.13030909010E+03  0.00000000000E+00 0.  1.
         13   -1    0    0    0    0 -0.00000000000E+00 -0.00000000000E+00 -0.10000000000E+04  0.10000000000E+04  0.00000000000E+00 0.  1.
    9000005    2    1    2  501    0  0.58740214407E+02 -0.31770880855E+02 -0.84809884636E+03  0.10601234871E+04  0.63255857679E+03 0.  0.
         13    1    3    3    0    0  0.21140893147E+03 -0.26902294025E+03 -0.36217012369E+03  0.49823114834E+03  0.00000000000E+00 0.  1.
          1    1    3    3  501    0 -0.15266871706E+03  0.23725205939E+03 -0.48592872266E+03  0.56189233877E+03  0.00000000000E+00 0.  1.
         -3    1    1    2    0  502 -0.58740214407E+02  0.31770880855E+02 -0.21592063545E+02  0.70185602989E+02  0.00000000000E+00 0. -1.
<mgrwt>
<rscale>  1 0.63607402E+03</rscale>
<asrwt>0</asrwt>
<pdfrwt beam="1">  1       21 0.20047552E-01 0.63607402E+03</pdfrwt>
<pdfrwt beam="2">0</pdfrwt>
<totfact> 0.22352921E+03</totfact>
</mgrwt>
</event>
<event>
 6    1  0.1439793E-004  0.6694125E+03  0.7818608E-02  0.9771020E-01
         21   -1    0    0  501  502  0.00000000000E+00  0.00000000000E+00  0.17385372026E+03  0.17385372026E+03  0.00000000000E+00 0.  1.
         13   -1    0    0    0    0 -0.00000000000E+00 -0.00000000000E+00 -0.10000000000E+04  0.10000000000E+04  0.00000000000E+00 0.  1.
    9000005    2    1    2  501    0  0.55186041542E+02  0.52292802035E+02 -0.86067362888E+03  0.10903541744E+04  0.66508126854E+03 0.  0.
         13    1    3    3    0    0  0.34723816034E+03 -0.25929767720E+02 -0.33078620500E+03  0.48027721814E+03  0.00000000000E+00 0.  1.
          1    1    3    3  501    0 -0.29205211880E+03  0.78222569755E+02 -0.52988742389E+03  0.61007695622E+03  0.00000000000E+00 0.  1.
         -1    1    1    2    0  502 -0.55186041542E+02 -0.52292802035E+02  0.34527349142E+02  0.83499545894E+02  0.00000000000E+00 0. -1.
<mgrwt>
<rscale>  1 0.66941253E+03</rscale>
<asrwt>0</asrwt>
<pdfrwt beam="1">  1       21 0.26746725E-01 0.66941253E+03</pdfrwt>
<pdfrwt beam="2">0</pdfrwt>
<totfact> 0.12736428E+03</totfact>
</mgrwt>
</event>
<event>
 6    1  0.1439793E-004  0.6577050E+03  0.7818608E-02  0.9792428E-01
         21   -1    0    0  501  502  0.00000000000E+00  0.00000000000E+00  0.18265107525E+03  0.18265107525E+03  0.00000000000E+00 0. -1.
         13   -1    0    0    0    0 -0.00000000000E+00 -0.00000000000E+00 -0.10000000000E+04  0.10000000000E+04  0.00000000000E+00 0.  1.
    9000005    2    1    2  501    0  0.28356693047E+02 -0.45178955448E+02 -0.88111414072E+03  0.10995171903E+04  0.65553846782E+03 0.  0.
         13    1    3    3    0    0  0.27786975456E+03  0.48407827687E+02 -0.75248674163E+03  0.80361135794E+03  0.00000000000E+00 0.  1.
          3    1    3    3  501    0 -0.24951306151E+03 -0.93586783135E+02 -0.12862739909E+03  0.29590583238E+03  0.00000000000E+00 0.  1.
         -1    1    1    2    0  502 -0.28356693047E+02  0.45178955448E+02  0.63765215970E+02  0.83133884931E+02  0.00000000000E+00 0. -1.
<mgrwt>
<rscale>  1 0.65770504E+03</rscale>
<asrwt>0</asrwt>
<pdfrwt beam="1">  1       21 0.28100165E-01 0.65770504E+03</pdfrwt>
<pdfrwt beam="2">0</pdfrwt>
<totfact> 0.11557100E+03</totfact>
</mgrwt>
</event>
<event>
 6    1  0.1439793E-004  0.6577252E+03  0.7818608E-02  0.9792390E-01
         21   -1    0    0  501  502  0.00000000000E+00  0.00000000000E+00  0.21677638769E+03  0.21677638769E+03  0.00000000000E+00 0. -1.
         13   -1    0    0    0    0 -0.00000000000E+00 -0.00000000000E+00 -0.10000000000E+04  0.10000000000E+04  0.00000000000E+00 0.  1.
    9000005    2    1    2  501    0  0.19247129781E+02  0.62576751728E+01 -0.89080365423E+03  0.11073091509E+04  0.65741371664E+03 0.  0.
         13    1    3    3    0    0  0.68418527217E+02 -0.31951737762E+03 -0.40620931857E+03  0.52132375734E+03  0.00000000000E+00 0.  1.
          1    1    3    3  501    0 -0.49171397436E+02  0.32577505279E+03 -0.48459433566E+03  0.58598539359E+03  0.00000000000E+00 0.  1.
         -1    1    1    2    0  502 -0.19247129781E+02 -0.62576751728E+01  0.10758004192E+03  0.10946723676E+03  0.00000000000E+00 0. -1.
<mgrwt>
<rscale>  1 0.65772517E+03</rscale>
<asrwt>0</asrwt>
<pdfrwt beam="1">  1       21 0.33350213E-01 0.65772517E+03</pdfrwt>
<pdfrwt beam="2">0</pdfrwt>
<totfact> 0.81946716E+02</totfact>
</mgrwt>
</event>
<event>
 6    1  0.1439793E-004  0.6729596E+03  0.7818608E-02  0.9764626E-01
         21   -1    0    0  501  502  0.00000000000E+00  0.00000000000E+00  0.13515560933E+03  0.13515560933E+03  0.00000000000E+00 0.  1.
         13   -1    0    0    0    0 -0.00000000000E+00 -0.00000000000E+00 -0.10000000000E+04  0.10000000000E+04  0.00000000000E+00 0.  1.
    9000005    2    1    2  501    0  0.13681971531E+02  0.22410018426E+02 -0.87763726989E+03  0.11059483666E+04  0.67244717766E+03 0.  0.
         13    1    3    3    0    0  0.33424279489E+03 -0.11117861941E+02 -0.56719501887E+03  0.65844668898E+03  0.00000000000E+00 0.  1.
          3    1    3    3  501    0 -0.32056082336E+03  0.33527880367E+02 -0.31044225102E+03  0.44750167759E+03  0.00000000000E+00 0.  1.
         -1    1    1    2    0  502 -0.13681971531E+02 -0.22410018426E+02  0.12792879220E+02  0.29207242759E+02  0.00000000000E+00 0. -1.
<mgrwt>
<rscale>  1 0.67295959E+03</rscale>
<asrwt>0</asrwt>
<pdfrwt beam="1">  1       21 0.20793170E-01 0.67295959E+03</pdfrwt>
<pdfrwt beam="2">0</pdfrwt>
<totfact> 0.20807327E+03</totfact>
</mgrwt>
</event>
<event>
 6    1  0.1439793E-004  0.6474675E+03  0.7818608E-02  0.9811543E-01
         21   -1    0    0  501  502  0.00000000000E+00  0.00000000000E+00  0.15292069100E+03  0.15292069100E+03  0.00000000000E+00 0. -1.
         13   -1    0    0    0    0 -0.00000000000E+00 -0.00000000000E+00 -0.10000000000E+04  0.10000000000E+04  0.00000000000E+00 0.  1.
    9000005    2    1    2  501    0  0.11116501549E+02 -0.40288959898E+02 -0.88495210573E+03  0.10965192227E+04  0.64611717157E+03 0.  0.
         13    1    3    3    0    0  0.19520612406E+03  0.22101055968E+03 -0.59898288450E+03  0.66763133112E+03  0.00000000000E+00 0.  1.
          1    1    3    3  501    0 -0.18408962251E+03 -0.26129951958E+03 -0.28596922122E+03  0.42888789157E+03  0.00000000000E+00 0.  1.
         -1    1    1    2    0  502 -0.11116501549E+02  0.40288959898E+02  0.37872796723E+02  0.56401468314E+02  0.00000000000E+00 0. -1.
<mgrwt>
<rscale>  1 0.64746751E+03</rscale>
<asrwt>0</asrwt>
<pdfrwt beam="1">  1       21 0.23526259E-01 0.64746751E+03</pdfrwt>
<pdfrwt beam="2">0</pdfrwt>
<totfact> 0.16399475E+03</totfact>
</mgrwt>
</event>
<event>
 6    1  0.1439793E-004  0.6864748E+03  0.7818608E-02  0.9740646E-01
         21   -1    0    0  501  502  0.00000000000E+00  0.00000000000E+00  0.19684520347E+03  0.19684520347E+03  0.00000000000E+00 0.  1.
         13   -1    0    0    0    0 -0.00000000000E+00 -0.00000000000E+00 -0.10000000000E+04  0.10000000000E+04  0.00000000000E+00 0.  1.
    9000005    2    1    2  501    0  0.10894573611E+03 -0.16759759814E+03 -0.64499167852E+03  0.94194581113E+03  0.65672636419E+03 0.  0.
         13    1    3    3    0    0  0.80345604322E+02 -0.43008355583E+02  0.12873697417E+03  0.15772870158E+03  0.00000000000E+00 0.  1.
          1    1    3    3  501    0  0.28600131789E+02 -0.12458924255E+03 -0.77372865270E+03  0.78421710954E+03  0.00000000000E+00 0.  1.
         -3    1    1    2    0  502 -0.10894573611E+03  0.16759759814E+03 -0.15816311801E+03  0.25489939234E+03  0.00000000000E+00 0. -1.
<mgrwt>
<rscale>  1 0.68647480E+03</rscale>
<asrwt>0</asrwt>
<pdfrwt beam="1">  1       21 0.30283877E-01 0.68647480E+03</pdfrwt>
<pdfrwt beam="2">0</pdfrwt>
<totfact> 0.99358543E+02</totfact>
</mgrwt>
</event>
<event>
 6    1  0.1439793E-004  0.8895568E+03  0.7818608E-02  0.9438731E-01
         21   -1    0    0  501  502  0.00000000000E+00  0.00000000000E+00  0.55724725037E+03  0.55724725037E+03  0.00000000000E+00 0. -1.
         13   -1    0    0    0    0 -0.00000000000E+00 -0.00000000000E+00 -0.10000000000E+04  0.10000000000E+04  0.00000000000E+00 0.  1.
    9000005    2    1    2  501    0 -0.54204245739E+03 -0.26515844792E+03 -0.26325848273E+03  0.92769405963E+03  0.65359942735E+03 0.  0.
         13    1    3    3    0    0  0.10084480278E+03  0.20949193485E+01  0.10031320629E+03  0.14225611513E+03  0.00000000000E+00 0.  1.
          3    1    3    3  501    0 -0.64288726017E+03 -0.26725336727E+03 -0.36357168902E+03  0.78543794451E+03  0.00000000000E+00 0.  1.
         -1    1    1    2    0  502  0.54204245739E+03  0.26515844792E+03 -0.17949426689E+03  0.62955319074E+03  0.00000000000E+00 0. -1.
<mgrwt>
<rscale>  1 0.88955677E+03</rscale>
<asrwt>0</asrwt>
<pdfrwt beam="1">  1       21 0.85730344E-01 0.88955677E+03</pdfrwt>
<pdfrwt beam="2">0</pdfrwt>
<totfact> 0.10218986E+02</totfact>
</mgrwt>
</event>
<event>
 6    1  0.1439793E-004  0.7167790E+03  0.7818608E-02  0.9688960E-01
         21   -1    0    0  501  502  0.00000000000E+00  0.00000000000E+00  0.17724371629E+03  0.17724371629E+03  0.00000000000E+00 0.  1.
         13   -1    0    0    0    0 -0.00000000000E+00 -0.00000000000E+00 -0.10000000000E+04  0.10000000000E+04  0.00000000000E+00 0.  1.
    9000005    2    1    2  501    0 -0.26017811037E+02  0.68800562814E+01 -0.86732640467E+03  0.11251787823E+04  0.71627364765E+03 0.  0.
         13    1    3    3    0    0 -0.17137308924E+03  0.25345257851E+03 -0.76037881861E+03  0.81962362891E+03  0.00000000000E+00 0.  1.
          1    1    3    3  501    0  0.14535527821E+03 -0.24657252223E+03 -0.10694758605E+03  0.30555515343E+03  0.00000000000E+00 0.  1.
         -3    1    1    2    0  502  0.26017811037E+02 -0.68800562814E+01  0.44570120954E+02  0.52064933952E+02  0.00000000000E+00 0. -1.
<mgrwt>
<rscale>  1 0.71677905E+03</rscale>
<asrwt>0</asrwt>
<pdfrwt beam="1">  1       21 0.27268263E-01 0.71677905E+03</pdfrwt>
<pdfrwt beam="2">0</pdfrwt>
<totfact> 0.12227945E+03</totfact>
</mgrwt>
</event>
<event>
 6    1  0.1439793E-004  0.6621143E+03  0.7818608E-02  0.9784309E-01
         21   -1    0    0  501  502  0.00000000000E+00  0.00000000000E+00  0.32065091588E+03  0.32065091588E+03  0.00000000000E+00 0. -1.
         13   -1    0    0    0    0 -0.00000000000E+00 -0.00000000000E+00 -0.10000000000E+04  0.10000000000E+04  0.00000000000E+00 0.  1.
    9000005    2    1    2  501    0  0.68020935725E+02 -0.10301434514E+02 -0.88415850358E+03  0.11045956786E+04  0.65853047499E+03 0.  0.
         13    1    3    3    0    0  0.34030968443E+03 -0.92545295550E+02 -0.33636171810E+03  0.48735461262E+03  0.00000000000E+00 0.  1.
          1    1    3    3  501    0 -0.27228874871E+03  0.82243861036E+02 -0.54779678549E+03  0.61724106599E+03  0.00000000000E+00 0.  1.
         -3    1    1    2    0  502 -0.68020935725E+02  0.10301434514E+02  0.20480941946E+03  0.21605523727E+03  0.00000000000E+00 0. -1.
<mgrwt>
<rscale>  1 0.66211431E+03</rscale>
<asrwt>0</asrwt>
<pdfrwt beam="1">  1       21 0.49330909E-01 0.66211431E+03</pdfrwt>
<pdfrwt beam="2">0</pdfrwt>
<totfact> 0.36262772E+02</totfact>
</mgrwt>
</event>
<event>
 6    1  0.1439793E-004  0.6579542E+03  0.7818608E-02  0.9791967E-01
         21   -1    0    0  501  502  0.00000000000E+00  0.00000000000E+00  0.13074667507E+03  0.13074667507E+03  0.00000000000E+00 0.  1.
         13   -1    0    0    0    0 -0.00000000000E+00 -0.00000000000E+00 -0.10000000000E+04  0.10000000000E+04  0.00000000000E+00 0.  1.
    9000005    2    1    2  501    0 -0.42240047646E+02  0.11787867726E+02 -0.86484149357E+03  0.10866712884E+04  0.65649105453E+03 0.  0.
         13    1    3    3    0    0 -0.20246812055E+03  0.22035667634E+03 -0.73453173536E+03  0.79315022215E+03  0.00000000000E+00 0.  1.
          3    1    3    3  501    0  0.16022807290E+03 -0.20856880861E+03 -0.13030975821E+03  0.29352106629E+03  0.00000000000E+00 0.  1.
         -1    1    1    2    0  502  0.42240047646E+02 -0.11787867726E+02 -0.44118313635E+01  0.44075386631E+02  0.00000000000E+00 0. -1.
<mgrwt>
<rscale>  1 0.65795416E+03</rscale>
<asrwt>0</asrwt>
<pdfrwt beam="1">  1       21 0.20114873E-01 0.65795416E+03</pdfrwt>
<pdfrwt beam="2">0</pdfrwt>
<totfact> 0.22190398E+03</totfact>
</mgrwt>
</event>
<event>
 6    1  0.1439793E-004  0.6514174E+03  0.7818608E-02  0.9804123E-01
         21   -1    0    0  501  502  0.00000000000E+00  0.00000000000E+00  0.21565094957E+03  0.21565094957E+03  0.00000000000E+00 0.  1.
         13   -1    0    0    0    0 -0.00000000000E+00 -0.00000000000E+00 -0.10000000000E+04  0.10000000000E+04  0.00000000000E+00 0.  1.
    9000005    2    1    2  501    0  0.35184637448E+02  0.43024591623E+02 -0.88605786887E+03  0.10997468601E+04  0.64904201344E+03 0.  0.
         13    1    3    3    0    0 -0.23996916069E+03  0.14900181304E+03 -0.18090714221E+03  0.33543126342E+03  0.00000000000E+00 0.  1.
          3    1    3    3  501    0  0.27515379814E+03 -0.10597722142E+03 -0.70515072666E+03  0.76431559673E+03  0.00000000000E+00 0.  1.
         -1    1    1    2    0  502 -0.35184637448E+02 -0.43024591623E+02  0.10170881845E+03  0.11590408943E+03  0.00000000000E+00 0. -1.
<mgrwt>
<rscale>  1 0.65141738E+03</rscale>
<asrwt>0</asrwt>
<pdfrwt beam="1">  1       21 0.33177068E-01 0.65141738E+03</pdfrwt>
<pdfrwt beam="2">0</pdfrwt>
<totfact> 0.82851736E+02</totfact>
</mgrwt>
</event>
<event>
 6    1  0.1439793E-004  0.6399513E+03  0.7818608E-02  0.9825820E-01
         21   -1    0    0  501  502  0.00000000000E+00  0.00000000000E+00  0.14908387661E+03  0.14908387661E+03  0.00000000000E+00 0.  1.
         13   -1    0    0    0    0 -0.00000000000E+00 -0.00000000000E+00 -0.10000000000E+04  0.10000000000E+04  0.00000000000E+00 0.  1.
    9000005    2    1    2  501    0  0.17565427042E+02 -0.28466787558E+02 -0.89091895724E+03  0.10969386090E+04  0.63907653789E+03 0.  0.
         13    1    3    3    0    0  0.16315987640E+03 -0.26327212437E+03 -0.24669015658E+03  0.39596640021E+03  0.00000000000E+00 0.  1.
          3    1    3    3  501    0 -0.14559444935E+03  0.23480533681E+03 -0.64422880065E+03  0.70097220877E+03  0.00000000000E+00 0.  1.
         -1    1    1    2    0  502 -0.17565427042E+02  0.28466787558E+02  0.40002833851E+02  0.52145267639E+02  0.00000000000E+00 0. -1.
<mgrwt>
<rscale>  1 0.63995134E+03</rscale>
<asrwt>0</asrwt>
<pdfrwt beam="1">  1       21 0.22935980E-01 0.63995134E+03</pdfrwt>
<pdfrwt beam="2">0</pdfrwt>
<totfact> 0.17236710E+03</totfact>
</mgrwt>
</event>
<event>
 6    1  0.1439793E-004  0.6487238E+03  0.7818608E-02  0.9809177E-01
         21   -1    0    0  501  502  0.00000000000E+00  0.00000000000E+00  0.14818072201E+03  0.14818072201E+03  0.00000000000E+00 0.  1.
         13   -1    0    0    0    0 -0.00000000000E+00 -0.00000000000E+00 -0.10000000000E+04  0.10000000000E+04  0.00000000000E+00 0.  1.
    9000005    2    1    2  501    0 -0.54896825661E+02 -0.10588574822E+03 -0.74728178163E+03  0.98958204205E+03  0.63766535396E+03 0.  0.
         13    1    3    3    0    0  0.15218366687E+03  0.49570051446E+01 -0.73903507351E+03  0.75455767192E+03  0.00000000000E+00 0.  1.
          3    1    3    3  501    0 -0.20708049253E+03 -0.11084275336E+03 -0.82467081181E+01  0.23502437013E+03  0.00000000000E+00 0.  1.
         -3    1    1    2    0  502  0.54896825661E+02  0.10588574822E+03 -0.10453749635E+03  0.15859867997E+03  0.00000000000E+00 0. -1.
<mgrwt>
<rscale>  1 0.64872379E+03</rscale>
<asrwt>0</asrwt>
<pdfrwt beam="1">  1       21 0.22797034E-01 0.64872379E+03</pdfrwt>
<pdfrwt beam="2">0</pdfrwt>
<totfact> 0.17434106E+03</totfact>
</mgrwt>
</event>
<event>
 6    1  0.1439793E-004  0.6441238E+03  0.7818608E-02  0.9817868E-01
         21   -1    0    0  501  502  0.00000000000E+00  0.00000000000E+00  0.21936245380E+03  0.21936245380E+03  0.00000000000E+00 0.  1.
         13   -1    0    0    0    0 -0.00000000000E+00 -0.00000000000E+00 -0.10000000000E+04  0.10000000000E+04  0.00000000000E+00 0.  1.
    9000005    2    1    2  501    0  0.19451648904E+02 -0.42360075116E+02 -0.89106717455E+03  0.10994981746E+04  0.64243504246E+03 0.  0.
         13    1    3    3    0    0 -0.27834712785E+03 -0.14145728856E+03 -0.31524444445E+03  0.44369623373E+03  0.00000000000E+00 0.  1.
          1    1    3    3  501    0  0.29779877676E+03  0.99097213443E+02 -0.57582273011E+03  0.65580194088E+03  0.00000000000E+00 0.  1.
         -3    1    1    2    0  502 -0.19451648904E+02  0.42360075116E+02  0.11042962835E+03  0.11986427920E+03  0.00000000000E+00 0. -1.
<mgrwt>
<rscale>  1 0.64412384E+03</rscale>
<asrwt>0</asrwt>
<pdfrwt beam="1">  1       21 0.33748069E-01 0.64412384E+03</pdfrwt>
<pdfrwt beam="2">0</pdfrwt>
<totfact> 0.80074750E+02</totfact>
</mgrwt>
</event>
<event>
 6    1  0.1439793E-004  0.6005388E+03  0.7818608E-02  0.9904289E-01
         21   -1    0    0  501  502  0.00000000000E+00  0.00000000000E+00  0.10628817191E+03  0.10628817191E+03  0.00000000000E+00 0.  1.
         13   -1    0    0    0    0 -0.00000000000E+00 -0.00000000000E+00 -0.10000000000E+04  0.10000000000E+04  0.00000000000E+00 0.  1.
    9000005    2    1    2  501    0 -0.33064626031E+02  0.13082770352E+02 -0.88526692237E+03  0.10697403292E+04  0.59948512883E+03 0.  0.
         13    1    3    3    0    0 -0.28468119575E+03 -0.45538991896E+02 -0.68388710880E+03  0.74217165170E+03  0.00000000000E+00 0.  1.
          3    1    3    3  501    0  0.25161656972E+03  0.58621762248E+02 -0.20137981357E+03  0.32756867750E+03  0.00000000000E+00 0.  1.
         -1    1    1    2    0  502  0.33064626031E+02 -0.13082770352E+02 -0.84449057172E+01  0.36547842717E+02  0.00000000000E+00 0. -1.
<mgrwt>
<rscale>  1 0.60053880E+03</rscale>
<asrwt>0</asrwt>
<pdfrwt beam="1">  1       21 0.16352026E-01 0.60053880E+03</pdfrwt>
<pdfrwt beam="2">0</pdfrwt>
<totfact> 0.32944657E+03</totfact>
</mgrwt>
</event>
<event>
 6    1  0.1439793E-004  0.6751054E+03  0.7818608E-02  0.9760779E-01
         21   -1    0    0  501  502  0.00000000000E+00  0.00000000000E+00  0.22915265301E+03  0.22915265301E+03  0.00000000000E+00 0.  1.
         13   -1    0    0    0    0 -0.00000000000E+00 -0.00000000000E+00 -0.10000000000E+04  0.10000000000E+04  0.00000000000E+00 0.  1.
    9000005    2    1    2  501    0 -0.11571391588E+03  0.13532496676E+03 -0.80208262049E+03  0.10483815290E+04  0.65120253636E+03 0.  0.
         13    1    3    3    0    0  0.22233279027E+03  0.18235141064E+03 -0.56138248351E+03  0.63074099232E+03  0.00000000000E+00 0.  1.
          1    1    3    3  501    0 -0.33804670615E+03 -0.47026443884E+02 -0.24070013698E+03  0.41764053671E+03  0.00000000000E+00 0.  1.
         -3    1    1    2    0  502  0.11571391588E+03 -0.13532496676E+03  0.31235273507E+02  0.18077112398E+03  0.00000000000E+00 0. -1.
<mgrwt>
<rscale>  1 0.67510540E+03</rscale>
<asrwt>0</asrwt>
<pdfrwt beam="1">  1       21 0.35254253E-01 0.67510540E+03</pdfrwt>
<pdfrwt beam="2">0</pdfrwt>
<totfact> 0.73103653E+02</totfact>
</mgrwt>
</event>
<event>
 6    1  0.1439793E-004  0.6482536E+03  0.7818608E-02  0.9810062E-01
         21   -1    0    0  501  502  0.00000000000E+00  0.00000000000E+00  0.18665367727E+03  0.18665367727E+03  0.00000000000E+00 0. -1.
         13   -1    0    0    0    0 -0.00000000000E+00 -0.00000000000E+00 -0.10000000000E+04  0.10000000000E+04  0.00000000000E+00 0.  1.
    9000005    2    1    2  501    0  0.54237031226E+01  0.29391937217E+02 -0.89190573562E+03  0.11026008136E+04  0.64756421341E+03 0.  0.
         13    1    3    3    0    0  0.22024166003E+03 -0.18865817618E+03 -0.65237469812E+03  0.71392649692E+03  0.00000000000E+00 0.  1.
          1    1    3    3  501    0 -0.21481795691E+03  0.21805011339E+03 -0.23953103750E+03  0.38867431673E+03  0.00000000000E+00 0.  1.
         -1    1    1    2    0  502 -0.54237031226E+01 -0.29391937217E+02  0.78559412895E+02  0.84052863623E+02  0.00000000000E+00 0. -1.
<mgrwt>
<rscale>  1 0.64825359E+03</rscale>
<asrwt>0</asrwt>
<pdfrwt beam="1">  1       21 0.28715950E-01 0.64825359E+03</pdfrwt>
<pdfrwt beam="2">0</pdfrwt>
<totfact> 0.11075447E+03</totfact>
</mgrwt>
</event>
<event>
 6    1  0.1439793E-004  0.6595066E+03  0.7818608E-02  0.9789102E-01
         21   -1    0    0  501  502  0.00000000000E+00  0.00000000000E+00  0.14928629811E+03  0.14928629811E+03  0.00000000000E+00 0. -1.
         13   -1    0    0    0    0 -0.00000000000E+00 -0.00000000000E+00 -0.10000000000E+04  0.10000000000E+04  0.00000000000E+00 0.  1.
    9000005    2    1    2  501    0  0.19498638447E+02  0.59508331531E+02 -0.86231021034E+03  0.10856002130E+04  0.65652683516E+03 0.  0.
         13    1    3    3    0    0 -0.21638257854E+03 -0.20048098611E+03 -0.28647145061E+03  0.41119330989E+03  0.00000000000E+00 0.  1.
          1    1    3    3  501    0  0.23588121698E+03  0.25998931764E+03 -0.57583875973E+03  0.67440690315E+03  0.00000000000E+00 0.  1.
         -1    1    1    2    0  502 -0.19498638447E+02 -0.59508331531E+02  0.11596508455E+02  0.63686085068E+02  0.00000000000E+00 0. -1.
<mgrwt>
<rscale>  1 0.65950658E+03</rscale>
<asrwt>0</asrwt>
<pdfrwt beam="1">  1       21 0.22967122E-01 0.65950658E+03</pdfrwt>
<pdfrwt beam="2">0</pdfrwt>
<totfact> 0.17175484E+03</totfact>
</mgrwt>
</event>
<event>
 6    1  0.1439793E-004  0.6458718E+03  0.7818608E-02  0.9814557E-01
         21   -1    0    0  501  502  0.00000000000E+00  0.00000000000E+00  0.18746548021E+03  0.18746548021E+03  0.00000000000E+00 0.  1.
         13   -1    0    0    0    0 -0.00000000000E+00 -0.00000000000E+00 -0.10000000000E+04  0.10000000000E+04  0.00000000000E+00 0.  1.
    9000005    2    1    2  501    0  0.52896471527E+02  0.97234582542E+01 -0.88599568450E+03  0.10964208480E+04  0.64362857343E+03 0.  0.
         13    1    3    3    0    0 -0.13055251751E+03  0.19892742678E+03 -0.77457549659E+03  0.81029826661E+03  0.00000000000E+00 0.  1.
          1    1    3    3  501    0  0.18344898904E+03 -0.18920396853E+03 -0.11142018792E+03  0.28612258135E+03  0.00000000000E+00 0.  1.
         -1    1    1    2    0  502 -0.52896471527E+02 -0.97234582542E+01  0.73461164710E+02  0.91044632247E+02  0.00000000000E+00 0. -1.
<mgrwt>
<rscale>  1 0.64587175E+03</rscale>
<asrwt>0</asrwt>
<pdfrwt beam="1">  1       21 0.28840842E-01 0.64587175E+03</pdfrwt>
<pdfrwt beam="2">0</pdfrwt>
<totfact> 0.10981690E+03</totfact>
</mgrwt>
</event>
<event>
 6    1  0.1439793E-004  0.6925990E+03  0.7818608E-02  0.9729973E-01
         21   -1    0    0  501  502  0.00000000000E+00  0.00000000000E+00  0.21091283520E+03  0.21091283520E+03  0.00000000000E+00 0.  1.
         13   -1    0    0    0    0 -0.00000000000E+00 -0.00000000000E+00 -0.10000000000E+04  0.10000000000E+04  0.00000000000E+00 0.  1.
    9000005    2    1    2  501    0 -0.47072396689E+02  0.21974167196E+03 -0.62164979562E+03  0.93066743287E+03  0.65512684977E+03 0.  0.
         13    1    3    3    0    0  0.28231535646E+03  0.14137132784E+03 -0.14865606305E+03  0.34897913678E+03  0.00000000000E+00 0.  1.
          3    1    3    3  501    0 -0.32938775315E+03  0.78370344118E+02 -0.47299373257E+03  0.58168829609E+03  0.00000000000E+00 0.  1.
         -3    1    1    2    0  502  0.47072396689E+02 -0.21974167196E+03 -0.16743736918E+03  0.28024540233E+03  0.00000000000E+00 0. -1.
<mgrwt>
<rscale>  1 0.69259902E+03</rscale>
<asrwt>0</asrwt>
<pdfrwt beam="1">  1       21 0.32448128E-01 0.69259902E+03</pdfrwt>
<pdfrwt beam="2">0</pdfrwt>
<totfact> 0.86426684E+02</totfact>
</mgrwt>
</event>
<event>
 6    1  0.1439793E-004  0.6607054E+03  0.7818608E-02  0.9786896E-01
         21   -1    0    0  501  502  0.00000000000E+00  0.00000000000E+00  0.15483160264E+03  0.15483160264E+03  0.00000000000E+00 0.  1.
         13   -1    0    0    0    0 -0.00000000000E+00 -0.00000000000E+00 -0.10000000000E+04  0.10000000000E+04  0.00000000000E+00 0.  1.
    9000005    2    1    2  501    0  0.56912103580E+01  0.11300487890E+03 -0.78711949949E+03  0.10276617671E+04  0.65094478147E+03 0.  0.
         13    1    3    3    0    0  0.30914328375E+03 -0.36309820371E+02 -0.47208362512E+03  0.56546522621E+03  0.00000000000E+00 0.  1.
          3    1    3    3  501    0 -0.30345207339E+03  0.14931469927E+03 -0.31503587437E+03  0.46219654088E+03  0.00000000000E+00 0.  1.
         -1    1    1    2    0  502 -0.56912103580E+01 -0.11300487890E+03 -0.58048897873E+02  0.12716983555E+03  0.00000000000E+00 0. -1.
<mgrwt>
<rscale>  1 0.66070538E+03</rscale>
<asrwt>0</asrwt>
<pdfrwt beam="1">  1       21 0.23820246E-01 0.66070538E+03</pdfrwt>
<pdfrwt beam="2">0</pdfrwt>
<totfact> 0.15996902E+03</totfact>
</mgrwt>
</event>
<event>
 6    1  0.1439793E-004  0.6457363E+03  0.7818608E-02  0.9814813E-01
         21   -1    0    0  501  502  0.00000000000E+00  0.00000000000E+00  0.18607683908E+03  0.18607683908E+03  0.00000000000E+00 0. -1.
         13   -1    0    0    0    0 -0.00000000000E+00 -0.00000000000E+00 -0.10000000000E+04  0.10000000000E+04  0.00000000000E+00 0.  1.
    9000005    2    1    2  501    0  0.35021893864E+02 -0.73633513404E+01 -0.89141212371E+03  0.11007229209E+04  0.64474384241E+03 0.  0.
         13    1    3    3    0    0  0.33334359399E+03  0.60063129507E+02 -0.50153563862E+03  0.60519709846E+03  0.00000000000E+00 0.  1.
          3    1    3    3  501    0 -0.29832170013E+03 -0.67426480848E+02 -0.38987648509E+03  0.49552582245E+03  0.00000000000E+00 0.  1.
         -3    1    1    2    0  502 -0.35021893864E+02  0.73633513404E+01  0.77488962785E+02  0.85353918166E+02  0.00000000000E+00 0. -1.
<mgrwt>
<rscale>  1 0.64573630E+03</rscale>
<asrwt>0</asrwt>
<pdfrwt beam="1">  1       21 0.28627205E-01 0.64573630E+03</pdfrwt>
<pdfrwt beam="2">0</pdfrwt>
<totfact> 0.11145622E+03</totfact>
</mgrwt>
</event>
<event>
 6    1  0.1439793E-004  0.6717244E+03  0.7818608E-02  0.9766848E-01
         21   -1    0    0  501  502  0.00000000000E+00  0.00000000000E+00  0.19819647938E+03  0.19819647938E+03  0.00000000000E+00 0.  1.
         13   -1    0    0    0    0 -0.00000000000E+00 -0.00000000000E+00 -0.10000000000E+04  0.10000000000E+04  0.00000000000E+00 0.  1.
    9000005    2    1    2  501    0  0.17578789803E+03  0.50126900804E+02 -0.75285307357E+03  0.10089605485E+04  0.64637415380E+03 0.  0.
         13    1    3    3    0    0 -0.18583174078E+03 -0.10682934001E+03 -0.79343284151E+02  0.22856355901E+03  0.00000000000E+00 0.  1.
          3    1    3    3  501    0  0.36161963882E+03  0.15695624081E+03 -0.67350978942E+03  0.78039698946E+03  0.00000000000E+00 0.  1.
         -3    1    1    2    0  502 -0.17578789803E+03 -0.50126900804E+02 -0.48950447050E+02  0.18923593090E+03  0.00000000000E+00 0. -1.
<mgrwt>
<rscale>  1 0.67172438E+03</rscale>
<asrwt>0</asrwt>
<pdfrwt beam="1">  1       21 0.30491765E-01 0.67172438E+03</pdfrwt>
<pdfrwt beam="2">0</pdfrwt>
<totfact> 0.98092288E+02</totfact>
</mgrwt>
</event>
<event>
 6    1  0.1439793E-004  0.6218192E+03  0.7818608E-02  0.9861144E-01
         21   -1    0    0  501  502  0.00000000000E+00  0.00000000000E+00  0.11579133296E+03  0.11579133296E+03  0.00000000000E+00 0.  1.
         13   -1    0    0    0    0 -0.00000000000E+00 -0.00000000000E+00 -0.10000000000E+04  0.10000000000E+04  0.00000000000E+00 0.  1.
    9000005    2    1    2  501    0 -0.54649043001E+02 -0.19172481953E+01 -0.84196489901E+03  0.10466919142E+04  0.61941010507E+03 0.  0.
         13    1    3    3    0    0 -0.22100630350E+03  0.10037801517E+03 -0.73231202886E+02  0.25353962450E+03  0.00000000000E+00 0.  1.
          3    1    3    3  501    0  0.16635726050E+03 -0.10229526337E+03 -0.76873369612E+03  0.79315228965E+03  0.00000000000E+00 0.  1.
         -3    1    1    2    0  502  0.54649043001E+02  0.19172481953E+01 -0.42243768028E+02  0.69099418802E+02  0.00000000000E+00 0. -1.
<mgrwt>
<rscale>  1 0.62181916E+03</rscale>
<asrwt>0</asrwt>
<pdfrwt beam="1">  1       21 0.17814051E-01 0.62181916E+03</pdfrwt>
<pdfrwt beam="2">0</pdfrwt>
<totfact> 0.28010660E+03</totfact>
</mgrwt>
</event>
<event>
 6    1  0.1439793E-004  0.6464733E+03  0.7818608E-02  0.9813419E-01
         21   -1    0    0  501  502  0.00000000000E+00  0.00000000000E+00  0.24308746386E+03  0.24308746386E+03  0.00000000000E+00 0. -1.
         13   -1    0    0    0    0 -0.00000000000E+00 -0.00000000000E+00 -0.10000000000E+04  0.10000000000E+04  0.00000000000E+00 0.  1.
    9000005    2    1    2  501    0 -0.16086710389E+02  0.59544432165E+02 -0.88789446070E+03  0.10983097507E+04  0.64352421368E+03 0.  0.
         13    1    3    3    0    0 -0.32369197125E+03  0.48700052863E+02 -0.35476073649E+03  0.48270422367E+03  0.00000000000E+00 0.  1.
          3    1    3    3  501    0  0.30760526086E+03  0.10844379302E+02 -0.53313372421E+03  0.61560552707E+03  0.00000000000E+00 0.  1.
         -3    1    1    2    0  502  0.16086710389E+02 -0.59544432165E+02  0.13098192456E+03  0.14477771312E+03  0.00000000000E+00 0. -1.
<mgrwt>
<rscale>  1 0.64647331E+03</rscale>
<asrwt>0</asrwt>
<pdfrwt beam="1">  1       21 0.37398070E-01 0.64647331E+03</pdfrwt>
<pdfrwt beam="2">0</pdfrwt>
<totfact> 0.64911133E+02</totfact>
</mgrwt>
</event>
<event>
 6    1  0.1439793E-004  0.6218525E+03  0.7818608E-02  0.9861078E-01
         21   -1    0    0  501  502  0.00000000000E+00  0.00000000000E+00  0.16882799863E+03  0.16882799863E+03  0.00000000000E+00 0.  1.
         13   -1    0    0    0    0 -0.00000000000E+00 -0.00000000000E+00 -0.10000000000E+04  0.10000000000E+04  0.00000000000E+00 0.  1.
    9000005    2    1    2  501    0  0.18407653301E+02 -0.27750154586E+02 -0.89908774140E+03  0.10931876620E+04  0.62096021197E+03 0.  0.
         13    1    3    3    0    0 -0.18423854825E+03  0.80896485712E+02 -0.41685071361E+02  0.20548900028E+03  0.00000000000E+00 0.  1.
          3    1    3    3  501    0  0.20264620155E+03 -0.10864664030E+03 -0.85740267004E+03  0.88769866173E+03  0.00000000000E+00 0.  1.
         -3    1    1    2    0  502 -0.18407653301E+02  0.27750154586E+02  0.67915740032E+02  0.75640336618E+02  0.00000000000E+00 0. -1.
<mgrwt>
<rscale>  1 0.62185247E+03</rscale>
<asrwt>0</asrwt>
<pdfrwt beam="1">  1       21 0.25973538E-01 0.62185247E+03</pdfrwt>
<pdfrwt beam="2">0</pdfrwt>
<totfact> 0.13530194E+03</totfact>
</mgrwt>
</event>
<event>
 6    1  0.1439793E-004  0.6443097E+03  0.7818608E-02  0.9817516E-01
         21   -1    0    0  501  502  0.00000000000E+00  0.00000000000E+00  0.29771317062E+03  0.29771317062E+03  0.00000000000E+00 0. -1.
         13   -1    0    0    0    0 -0.00000000000E+00 -0.00000000000E+00 -0.10000000000E+04  0.10000000000E+04  0.00000000000E+00 0.  1.
    9000005    2    1    2  501    0 -0.36521651000E+02  0.39905160289E+02 -0.89204248334E+03  0.11003975326E+04  0.64203480031E+03 0.  0.
         13    1    3    3    0    0  0.26751166705E+03 -0.22555593916E+01 -0.67037098998E+03  0.72177894383E+03  0.00000000000E+00 0.  1.
          1    1    3    3  501    0 -0.30403331805E+03  0.42160719681E+02 -0.22167149336E+03  0.37861858874E+03  0.00000000000E+00 0.  1.
         -3    1    1    2    0  502  0.36521651000E+02 -0.39905160289E+02  0.18975565396E+03  0.19731563805E+03  0.00000000000E+00 0. -1.
<mgrwt>
<rscale>  1 0.64430966E+03</rscale>
<asrwt>0</asrwt>
<pdfrwt beam="1">  1       21 0.45802025E-01 0.64430966E+03</pdfrwt>
<pdfrwt beam="2">0</pdfrwt>
<totfact> 0.42537208E+02</totfact>
</mgrwt>
</event>
<event>
 6    1  0.1439793E-004  0.6806951E+03  0.7818608E-02  0.9750828E-01
         21   -1    0    0  501  502  0.00000000000E+00  0.00000000000E+00  0.23056714736E+03  0.23056714736E+03  0.00000000000E+00 0. -1.
         13   -1    0    0    0    0 -0.00000000000E+00 -0.00000000000E+00 -0.10000000000E+04  0.10000000000E+04  0.00000000000E+00 0.  1.
    9000005    2    1    2  501    0  0.77863734247E+02 -0.36874603023E+02 -0.86577438676E+03  0.11013224621E+04  0.67522098560E+03 0.  0.
         13    1    3    3    0    0 -0.22603695574E+03  0.19390169743E+03 -0.34604780264E+03  0.45655191965E+03  0.00000000000E+00 0.  1.
          3    1    3    3  501    0  0.30390068999E+03 -0.23077630045E+03 -0.51972658413E+03  0.64477054250E+03  0.00000000000E+00 0.  1.
         -1    1    1    2    0  502 -0.77863734247E+02  0.36874603023E+02  0.96341534122E+02  0.12924468521E+03  0.00000000000E+00 0. -1.
<mgrwt>
<rscale>  1 0.68069514E+03</rscale>
<asrwt>0</asrwt>
<pdfrwt beam="1">  1       21 0.35471868E-01 0.68069514E+03</pdfrwt>
<pdfrwt beam="2">0</pdfrwt>
<totfact> 0.72161857E+02</totfact>
</mgrwt>
</event>
<event>
 6    1  0.1439793E-004  0.6515044E+03  0.7818608E-02  0.9803960E-01
         21   -1    0    0  501  502  0.00000000000E+00  0.00000000000E+00  0.24259859177E+03  0.24259859177E+03  0.00000000000E+00 0. -1.
         13   -1    0    0    0    0 -0.00000000000E+00 -0.00000000000E+00 -0.10000000000E+04  0.10000000000E+04  0.00000000000E+00 0.  1.
    9000005    2    1    2  501    0  0.23796995943E+02  0.69965547735E+02 -0.88272084014E+03  0.10971117027E+04  0.64729941422E+03 0.  0.
         13    1    3    3    0    0 -0.32068127460E+02  0.23459261635E+03 -0.44332789433E+02  0.24088888863E+03  0.00000000000E+00 0.  1.
          1    1    3    3  501    0  0.55865123403E+02 -0.16462706862E+03 -0.83838805070E+03  0.85622281405E+03  0.00000000000E+00 0.  1.
         -1    1    1    2    0  502 -0.23796995943E+02 -0.69965547735E+02  0.12531943190E+03  0.14548688909E+03  0.00000000000E+00 0. -1.
<mgrwt>
<rscale>  1 0.65150442E+03</rscale>
<asrwt>0</asrwt>
<pdfrwt beam="1">  1       21 0.37322859E-01 0.65150442E+03</pdfrwt>
<pdfrwt beam="2">0</pdfrwt>
<totfact> 0.65155212E+02</totfact>
</mgrwt>
</event>
<event>
 6    1  0.1439793E-004  0.6519461E+03  0.7818608E-02  0.9803134E-01
         21   -1    0    0  501  502  0.00000000000E+00  0.00000000000E+00  0.14413449458E+03  0.14413449458E+03  0.00000000000E+00 0.  1.
         13   -1    0    0    0    0 -0.00000000000E+00 -0.00000000000E+00 -0.10000000000E+04  0.10000000000E+04  0.00000000000E+00 0.  1.
    9000005    2    1    2  501    0 -0.22062083630E+02 -0.53452046552E+02 -0.86748137053E+03  0.10851532676E+04  0.64937649259E+03 0.  0.
         13    1    3    3    0    0  0.11257129075E+03  0.31734526247E+02 -0.91220694924E+03  0.91967434122E+03  0.00000000000E+00 0.  1.
          3    1    3    3  501    0 -0.13463337438E+03 -0.85186572798E+02  0.44725578710E+02  0.16547892637E+03  0.00000000000E+00 0.  1.
         -1    1    1    2    0  502  0.22062083630E+02  0.53452046552E+02  0.11615865106E+02  0.58981226986E+02  0.00000000000E+00 0. -1.
<mgrwt>
<rscale>  1 0.65194608E+03</rscale>
<asrwt>0</asrwt>
<pdfrwt beam="1">  1       21 0.22174537E-01 0.65194608E+03</pdfrwt>
<pdfrwt beam="2">0</pdfrwt>
<totfact> 0.18393047E+03</totfact>
</mgrwt>
</event>
<event>
 6    1  0.1439793E-004  0.6485298E+03  0.7818608E-02  0.9809542E-01
         21   -1    0    0  501  502  0.00000000000E+00  0.00000000000E+00  0.13989822663E+03  0.13989822663E+03  0.00000000000E+00 0.  1.
         13   -1    0    0    0    0 -0.00000000000E+00 -0.00000000000E+00 -0.10000000000E+04  0.10000000000E+04  0.00000000000E+00 0.  1.
    9000005    2    1    2  501    0  0.30224144538E+02  0.18254908373E+01 -0.88740544473E+03  0.10991266458E+04  0.64782260607E+03 0.  0.
         13    1    3    3    0    0 -0.90231178860E+02  0.43885642660E+02  0.76900248732E+02  0.12641702229E+03  0.00000000000E+00 0.  1.
          1    1    3    3  501    0  0.12045532340E+03 -0.42060151822E+02 -0.96430569346E+03  0.97270962355E+03  0.00000000000E+00 0.  1.
         -3    1    1    2    0  502 -0.30224144538E+02 -0.18254908373E+01  0.27303671367E+02  0.40771580788E+02  0.00000000000E+00 0. -1.
<mgrwt>
<rscale>  1 0.64852985E+03</rscale>
<asrwt>0</asrwt>
<pdfrwt beam="1">  1       21 0.21522803E-01 0.64852985E+03</pdfrwt>
<pdfrwt beam="2">0</pdfrwt>
<totfact> 0.19488312E+03</totfact>
</mgrwt>
</event>
<event>
 6    1  0.1439793E-004  0.6515432E+03  0.7818608E-02  0.9803888E-01
         21   -1    0    0  501  502  0.00000000000E+00  0.00000000000E+00  0.22287228331E+03  0.22287228331E+03  0.00000000000E+00 0. -1.
         13   -1    0    0    0    0 -0.00000000000E+00 -0.00000000000E+00 -0.10000000000E+04  0.10000000000E+04  0.00000000000E+00 0.  1.
    9000005    2    1    2  501    0  0.39363187660E+02 -0.24107709350E+02 -0.88880262101E+03  0.11020338521E+04  0.64990604701E+03 0.  0.
         13    1    3    3    0    0  0.69351117335E+02 -0.23884613456E+03 -0.74897838183E+02  0.25974360365E+03  0.00000000000E+00 0.  1.
          1    1    3    3  501    0 -0.29987929675E+02  0.21473842521E+03 -0.81390478283E+03  0.84229024849E+03  0.00000000000E+00 0.  1.
         -1    1    1    2    0  502 -0.39363187660E+02  0.24107709350E+02  0.11167490433E+03  0.12083843118E+03  0.00000000000E+00 0. -1.
<mgrwt>
<rscale>  1 0.65154318E+03</rscale>
<asrwt>0</asrwt>
<pdfrwt beam="1">  1       21 0.34288043E-01 0.65154318E+03</pdfrwt>
<pdfrwt beam="2">0</pdfrwt>
<totfact> 0.77492647E+02</totfact>
</mgrwt>
</event>
<event>
 6    1  0.1439793E-004  0.6539486E+03  0.7818608E-02  0.9799398E-01
         21   -1    0    0  501  502  0.00000000000E+00  0.00000000000E+00  0.16178044435E+03  0.16178044435E+03  0.00000000000E+00 0.  1.
         13   -1    0    0    0    0 -0.00000000000E+00 -0.00000000000E+00 -0.10000000000E+04  0.10000000000E+04  0.00000000000E+00 0.  1.
    9000005    2    1    2  501    0  0.14773324886E+03 -0.15736944051E+02 -0.71299774696E+03  0.96747844847E+03  0.63684848815E+03 0.  0.
         13    1    3    3    0    0  0.80157155523E+01  0.13219077520E+03  0.75981979348E+02  0.15268239561E+03  0.00000000000E+00 0.  1.
          1    1    3    3  501    0  0.13971753331E+03 -0.14792771925E+03 -0.78897972630E+03  0.81479605286E+03  0.00000000000E+00 0.  1.
         -3    1    1    2    0  502 -0.14773324886E+03  0.15736944051E+02 -0.12522180870E+03  0.19430199588E+03  0.00000000000E+00 0. -1.
<mgrwt>
<rscale>  1 0.65394859E+03</rscale>
<asrwt>0</asrwt>
<pdfrwt beam="1">  1       21 0.24889298E-01 0.65394859E+03</pdfrwt>
<pdfrwt beam="2">0</pdfrwt>
<totfact> 0.14685931E+03</totfact>
</mgrwt>
</event>
<event>
 6    1  0.1439793E-004  0.6872731E+03  0.7818608E-02  0.9739248E-01
         21   -1    0    0  501  502  0.00000000000E+00  0.00000000000E+00  0.44635269913E+03  0.44635269913E+03  0.00000000000E+00 0. -1.
         13   -1    0    0    0    0 -0.00000000000E+00 -0.00000000000E+00 -0.10000000000E+04  0.10000000000E+04  0.00000000000E+00 0.  1.
    9000005    2    1    2  501    0  0.52533077359E+02 -0.71818213133E+02 -0.87515291316E+03  0.11127609746E+04  0.68148865375E+03 0.  0.
         13    1    3    3    0    0 -0.21521557473E+03 -0.19575681373E+03 -0.14460361724E+03  0.32488256316E+03  0.00000000000E+00 0.  1.
          3    1    3    3  501    0  0.26774865209E+03  0.12393860059E+03 -0.73054929592E+03  0.78787841142E+03  0.00000000000E+00 0.  1.
         -3    1    1    2    0  502 -0.52533077359E+02  0.71818213133E+02  0.32150561229E+03  0.33359172455E+03  0.00000000000E+00 0. -1.
<mgrwt>
<rscale>  1 0.68727314E+03</rscale>
<asrwt>0</asrwt>
<pdfrwt beam="1">  1       21 0.68669644E-01 0.68727314E+03</pdfrwt>
<pdfrwt beam="2">0</pdfrwt>
<totfact> 0.17469120E+02</totfact>
</mgrwt>
</event>
<event>
 6    1  0.1439793E-004  0.6535569E+03  0.7818608E-02  0.9800128E-01
         21   -1    0    0  501  502  0.00000000000E+00  0.00000000000E+00  0.17407037002E+03  0.17407037002E+03  0.00000000000E+00 0. -1.
         13   -1    0    0    0    0 -0.00000000000E+00 -0.00000000000E+00 -0.10000000000E+04  0.10000000000E+04  0.00000000000E+00 0.  1.
    9000005    2    1    2  501    0  0.20954037926E+02 -0.45496877337E+02 -0.88272958167E+03  0.10983387910E+04  0.65163452014E+03 0.  0.
         13    1    3    3    0    0 -0.28387422107E+03  0.68506114787E+02 -0.24031935269E+03  0.37819446377E+03  0.00000000000E+00 0.  1.
          3    1    3    3  501    0  0.30482825899E+03 -0.11400299212E+03 -0.64241022898E+03  0.72014432720E+03  0.00000000000E+00 0.  1.
         -1    1    1    2    0  502 -0.20954037926E+02  0.45496877337E+02  0.56799951692E+02  0.75731579048E+02  0.00000000000E+00 0. -1.
<mgrwt>
<rscale>  1 0.65355687E+03</rscale>
<asrwt>0</asrwt>
<pdfrwt beam="1">  1       21 0.26780056E-01 0.65355687E+03</pdfrwt>
<pdfrwt beam="2">0</pdfrwt>
<totfact> 0.12716254E+03</totfact>
</mgrwt>
</event>
<event>
 6    1  0.1439793E-004  0.6725310E+03  0.7818608E-02  0.9765396E-01
         21   -1    0    0  501  502  0.00000000000E+00  0.00000000000E+00  0.28707415839E+03  0.28707415839E+03  0.00000000000E+00 0.  1.
         13   -1    0    0    0    0 -0.00000000000E+00 -0.00000000000E+00 -0.10000000000E+04  0.10000000000E+04  0.00000000000E+00 0.  1.
    9000005    2    1    2  501    0  0.10999259039E+03 -0.43512121609E+02 -0.86419476412E+03  0.10950482185E+04  0.66204707980E+03 0.  0.
         13    1    3    3    0    0 -0.20740001696E+03 -0.21983791825E+03 -0.47309303589E+03  0.56139157274E+03  0.00000000000E+00 0.  1.
          1    1    3    3  501    0  0.31739260735E+03  0.17632579664E+03 -0.39110172823E+03  0.53365664578E+03  0.00000000000E+00 0.  1.
         -3    1    1    2    0  502 -0.10999259039E+03  0.43512121609E+02  0.15126892251E+03  0.19202593988E+03  0.00000000000E+00 0. -1.
<mgrwt>
<rscale>  1 0.67253105E+03</rscale>
<asrwt>0</asrwt>
<pdfrwt beam="1">  1       21 0.44165254E-01 0.67253105E+03</pdfrwt>
<pdfrwt beam="2">0</pdfrwt>
<totfact> 0.45821225E+02</totfact>
</mgrwt>
</event>
<event>
 6    1  0.1439793E-004  0.7042425E+03  0.7818608E-02  0.9710004E-01
         21   -1    0    0  501  502  0.00000000000E+00  0.00000000000E+00  0.54322110850E+03  0.54322110850E+03  0.00000000000E+00 0. -1.
         13   -1    0    0    0    0 -0.00000000000E+00 -0.00000000000E+00 -0.10000000000E+04  0.10000000000E+04  0.00000000000E+00 0.  1.
    9000005    2    1    2  501    0  0.76371110997E+02  0.19275052858E+03 -0.84688625156E+03  0.11014416780E+04  0.67303204532E+03 0.  0.
         13    1    3    3    0    0 -0.22702171632E+03  0.56705389533E+01 -0.55923276644E+02  0.23387694962E+03  0.00000000000E+00 0.  1.
          3    1    3    3  501    0  0.30339282732E+03  0.18707998963E+03 -0.79096297492E+03  0.86756472835E+03  0.00000000000E+00 0.  1.
         -3    1    1    2    0  502 -0.76371110997E+02 -0.19275052858E+03  0.39010736006E+03  0.44177943052E+03  0.00000000000E+00 0. -1.
<mgrwt>
<rscale>  1 0.70424246E+03</rscale>
<asrwt>0</asrwt>
<pdfrwt beam="1">  1       21 0.83572476E-01 0.70424246E+03</pdfrwt>
<pdfrwt beam="2">0</pdfrwt>
<totfact> 0.11077127E+02</totfact>
</mgrwt>
</event>
<event>
 6    1  0.1439793E-004  0.6581842E+03  0.7818608E-02  0.9791542E-01
         21   -1    0    0  501  502  0.00000000000E+00  0.00000000000E+00  0.52453112396E+03  0.52453112396E+03  0.00000000000E+00 0. -1.
         13   -1    0    0    0    0 -0.00000000000E+00 -0.00000000000E+00 -0.10000000000E+04  0.10000000000E+04  0.00000000000E+00 0.  1.
    9000005    2    1    2  501    0  0.23042188497E+02 -0.14180131217E+03 -0.87789758999E+03  0.10972286264E+04  0.64231450672E+03 0.  0.
         13    1    3    3    0    0  0.10663724562E+03  0.87886510979E+02  0.42780293610E+02  0.14465716190E+03  0.00000000000E+00 0.  1.
          1    1    3    3  501    0 -0.83595057126E+02 -0.22968782315E+03 -0.92067788360E+03  0.95257146453E+03  0.00000000000E+00 0.  1.
         -3    1    1    2    0  502 -0.23042188497E+02  0.14180131217E+03  0.40242871395E+03  0.42730249753E+03  0.00000000000E+00 0. -1.
<mgrwt>
<rscale>  1 0.65818423E+03</rscale>
<asrwt>0</asrwt>
<pdfrwt beam="1">  1       21 0.80697094E-01 0.65818423E+03</pdfrwt>
<pdfrwt beam="2">0</pdfrwt>
<totfact> 0.12095602E+02</totfact>
</mgrwt>
</event>
<event>
 6    1  0.1439793E-004  0.5467714E+03  0.7818608E-02  0.1002244E+00
         21   -1    0    0  501  502  0.00000000000E+00  0.00000000000E+00  0.12958249690E+03  0.12958249690E+03  0.00000000000E+00 0.  1.
         13   -1    0    0    0    0 -0.00000000000E+00 -0.00000000000E+00 -0.10000000000E+04  0.10000000000E+04  0.00000000000E+00 0.  1.
    9000005    2    1    2  501    0 -0.34517018425E+02  0.35244866616E+02 -0.91313977351E+03  0.10643228802E+04  0.54454138701E+03 0.  0.
         13    1    3    3    0    0 -0.96155910538E+02 -0.13112958887E+03 -0.86545909438E+03  0.88060227814E+03  0.00000000000E+00 0.  1.
          3    1    3    3  501    0  0.61638892113E+02  0.16637445548E+03 -0.47680679121E+02  0.18372060206E+03  0.00000000000E+00 0.  1.
         -1    1    1    2    0  502  0.34517018425E+02 -0.35244866616E+02  0.42722270401E+02  0.65259616701E+02  0.00000000000E+00 0. -1.
<mgrwt>
<rscale>  1 0.54677138E+03</rscale>
<asrwt>0</asrwt>
<pdfrwt beam="1">  1       21 0.19935768E-01 0.54677138E+03</pdfrwt>
<pdfrwt beam="2">0</pdfrwt>
<totfact> 0.22679535E+03</totfact>
</mgrwt>
</event>
<event>
 6    1  0.1439793E-004  0.6547667E+03  0.7818608E-02  0.9797876E-01
         21   -1    0    0  501  502  0.00000000000E+00  0.00000000000E+00  0.14806789092E+03  0.14806789092E+03  0.00000000000E+00 0.  1.
         13   -1    0    0    0    0 -0.00000000000E+00 -0.00000000000E+00 -0.10000000000E+04  0.10000000000E+04  0.00000000000E+00 0.  1.
    9000005    2    1    2  501    0 -0.32690697635E+02 -0.30004286805E+02 -0.87901887194E+03  0.10960810497E+04  0.65326147241E+03 0.  0.
         13    1    3    3    0    0  0.19045413030E+03 -0.35815233468E+02 -0.84901718646E+03  0.87085342602E+03  0.00000000000E+00 0.  1.
          1    1    3    3  501    0 -0.22314482794E+03  0.58109466624E+01 -0.30001685474E+02  0.22522762368E+03  0.00000000000E+00 0.  1.
         -3    1    1    2    0  502  0.32690697635E+02  0.30004286805E+02  0.27086762860E+02  0.51986841227E+02  0.00000000000E+00 0. -1.
<mgrwt>
<rscale>  1 0.65476674E+03</rscale>
<asrwt>0</asrwt>
<pdfrwt beam="1">  1       21 0.22779675E-01 0.65476674E+03</pdfrwt>
<pdfrwt beam="2">0</pdfrwt>
<totfact> 0.17455001E+03</totfact>
</mgrwt>
</event>
<event>
 6    1  0.1439793E-004  0.6502339E+03  0.7818608E-02  0.9806340E-01
         21   -1    0    0  501  502  0.00000000000E+00  0.00000000000E+00  0.13384245717E+03  0.13384245717E+03  0.00000000000E+00 0.  1.
         13   -1    0    0    0    0 -0.00000000000E+00 -0.00000000000E+00 -0.10000000000E+04  0.10000000000E+04  0.00000000000E+00 0.  1.
    9000005    2    1    2  501    0 -0.19007370303E+02  0.53292024138E+02 -0.85818808189E+03  0.10767037464E+04  0.64776759227E+03 0.  0.
         13    1    3    3    0    0 -0.23064819663E+03  0.20350892422E+02 -0.45123714880E+02  0.23590018880E+03  0.00000000000E+00 0.  1.
          3    1    3    3  501    0  0.21164082633E+03  0.32941131715E+02 -0.81306436701E+03  0.84080355758E+03  0.00000000000E+00 0.  1.
         -3    1    1    2    0  502  0.19007370303E+02 -0.53292024138E+02 -0.79694609407E+01  0.57138710785E+02  0.00000000000E+00 0. -1.
<mgrwt>
<rscale>  1 0.65023394E+03</rscale>
<asrwt>0</asrwt>
<pdfrwt beam="1">  1       21 0.20591147E-01 0.65023394E+03</pdfrwt>
<pdfrwt beam="2">0</pdfrwt>
<totfact> 0.21221470E+03</totfact>
</mgrwt>
</event>
<event>
 6    1  0.1439793E-004  0.7012769E+03  0.7818608E-02  0.9715051E-01
         21   -1    0    0  501  502  0.00000000000E+00  0.00000000000E+00  0.11263872008E+04  0.11263872008E+04  0.00000000000E+00 0. -1.
         13   -1    0    0    0    0 -0.00000000000E+00 -0.00000000000E+00 -0.10000000000E+04  0.10000000000E+04  0.00000000000E+00 0.  1.
    9000005    2    1    2  501    0  0.20666135974E+03 -0.10105109618E+03 -0.86220089266E+03  0.11113863830E+04  0.66247194003E+03 0.  0.
         13    1    3    3    0    0  0.41727653290E+03  0.15191057829E+02 -0.71892967541E+03  0.83139061297E+03  0.00000000000E+00 0.  1.
          1    1    3    3  501    0 -0.21061517316E+03 -0.11624215401E+03 -0.14327121725E+03  0.27999577001E+03  0.00000000000E+00 0.  1.
         -1    1    1    2    0  502 -0.20666135974E+03  0.10105109618E+03  0.98858809344E+03  0.10150008178E+04  0.00000000000E+00 0. -1.
<mgrwt>
<rscale>  1 0.70127692E+03</rscale>
<asrwt>0</asrwt>
<pdfrwt beam="1">  1       21 0.17329033E+00 0.70127692E+03</pdfrwt>
<pdfrwt beam="2">0</pdfrwt>
<totfact> 0.16707118E+01</totfact>
</mgrwt>
</event>
<event>
 6    1  0.1439793E-004  0.6441579E+03  0.7818608E-02  0.9817804E-01
         21   -1    0    0  501  502  0.00000000000E+00  0.00000000000E+00  0.16525358644E+03  0.16525358644E+03  0.00000000000E+00 0.  1.
         13   -1    0    0    0    0 -0.00000000000E+00 -0.00000000000E+00 -0.10000000000E+04  0.10000000000E+04  0.00000000000E+00 0.  1.
    9000005    2    1    2  501    0  0.23972418061E+02 -0.42980945823E+02 -0.88520241228E+03  0.10947706357E+04  0.64227517129E+03 0.  0.
         13    1    3    3    0    0  0.17864465473E+03 -0.27036149466E+03 -0.27329962460E+03  0.42391265051E+03  0.00000000000E+00 0.  1.
          3    1    3    3  501    0 -0.15467223667E+03  0.22738054884E+03 -0.61190278768E+03  0.67085798523E+03  0.00000000000E+00 0.  1.
         -3    1    1    2    0  502 -0.23972418061E+02  0.42980945823E+02  0.50455998713E+02  0.70482950688E+02  0.00000000000E+00 0. -1.
<mgrwt>
<rscale>  1 0.64415793E+03</rscale>
<asrwt>0</asrwt>
<pdfrwt beam="1">  1       21 0.25423628E-01 0.64415793E+03</pdfrwt>
<pdfrwt beam="2">0</pdfrwt>
<totfact> 0.14093891E+03</totfact>
</mgrwt>
</event>
<event>
 6    1  0.1439793E-004  0.6829319E+03  0.7818608E-02  0.9746874E-01
         21   -1    0    0  501  502  0.00000000000E+00  0.00000000000E+00  0.21252595490E+03  0.21252595490E+03  0.00000000000E+00 0.  1.
         13   -1    0    0    0    0 -0.00000000000E+00 -0.00000000000E+00 -0.10000000000E+04  0.10000000000E+04  0.00000000000E+00 0.  1.
    9000005    2    1    2  501    0  0.98397287651E+02 -0.17473151022E+03 -0.73895840196E+03  0.10062084944E+04  0.65282684343E+03 0.  0.
         13    1    3    3    0    0  0.45148656599E+02 -0.41793391694E+03 -0.55707996614E+03  0.69788627211E+03  0.00000000000E+00 0.  1.
          1    1    3    3  501    0  0.53248631051E+02  0.24320240672E+03 -0.18187843581E+03  0.30832222229E+03  0.00000000000E+00 0.  1.
         -3    1    1    2    0  502 -0.98397287651E+02  0.17473151022E+03 -0.48515643140E+02  0.20631746051E+03  0.00000000000E+00 0. -1.
<mgrwt>
<rscale>  1 0.68293193E+03</rscale>
<asrwt>0</asrwt>
<pdfrwt beam="1">  1       21 0.32696300E-01 0.68293193E+03</pdfrwt>
<pdfrwt beam="2">0</pdfrwt>
<totfact> 0.85157386E+02</totfact>
</mgrwt>
</event>
<event>
 6    1  0.1439793E-004  0.6726935E+03  0.7818608E-02  0.9765104E-01
         21   -1    0    0  501  502  0.00000000000E+00  0.00000000000E+00  0.19137473156E+03  0.19137473156E+03  0.00000000000E+00 0.  1.
         13   -1    0    0    0    0 -0.00000000000E+00 -0.00000000000E+00 -0.10000000000E+04  0.10000000000E+04  0.00000000000E+00 0.  1.
    9000005    2    1    2  501    0 -0.16889266411E+03 -0.10327924394E+03 -0.67197259690E+03  0.95082268552E+03  0.64290378292E+03 0.  0.
         13    1    3    3    0    0 -0.16720157892E+03  0.50280087102E+02 -0.75590979670E+03  0.77581188177E+03  0.00000000000E+00 0.  1.
          1    1    3    3  501    0 -0.16910851840E+01 -0.15355933104E+03  0.83937199797E+02  0.17501080375E+03  0.00000000000E+00 0.  1.
         -1    1    1    2    0  502  0.16889266411E+03  0.10327924394E+03 -0.13665267154E+03  0.24055204604E+03  0.00000000000E+00 0. -1.
<mgrwt>
<rscale>  1 0.67269355E+03</rscale>
<asrwt>0</asrwt>
<pdfrwt beam="1">  1       21 0.29442266E-01 0.67269355E+03</pdfrwt>
<pdfrwt beam="2">0</pdfrwt>
<totfact> 0.10521483E+03</totfact>
</mgrwt>
</event>
<event>
 6    1  0.1439793E-004  0.6258162E+03  0.7818608E-02  0.9853247E-01
         21   -1    0    0  501  502  0.00000000000E+00  0.00000000000E+00  0.14557965936E+03  0.14557965936E+03  0.00000000000E+00 0.  1.
         13   -1    0    0    0    0 -0.00000000000E+00 -0.00000000000E+00 -0.10000000000E+04  0.10000000000E+04  0.00000000000E+00 0.  1.
    9000005    2    1    2  501    0 -0.46770624690E+02  0.45803583754E+02 -0.87606418880E+03  0.10766310134E+04  0.62238285361E+03 0.  0.
         13    1    3    3    0    0 -0.34514464212E+02  0.61387939025E+02  0.87804609696E+02  0.11255832613E+03  0.00000000000E+00 0.  1.
          3    1    3    3  501    0 -0.12256160478E+02 -0.15584355270E+02 -0.96386879850E+03  0.96407268726E+03  0.00000000000E+00 0.  1.
         -1    1    1    2    0  502  0.46770624690E+02 -0.45803583754E+02  0.21643848161E+02  0.68948645976E+02  0.00000000000E+00 0. -1.
<mgrwt>
<rscale>  1 0.62581617E+03</rscale>
<asrwt>0</asrwt>
<pdfrwt beam="1">  1       21 0.22396870E-01 0.62581617E+03</pdfrwt>
<pdfrwt beam="2">0</pdfrwt>
<totfact> 0.18062807E+03</totfact>
</mgrwt>
</event>
<event>
 6    1  0.1439793E-004  0.7006840E+03  0.7818608E-02  0.9716063E-01
         21   -1    0    0  501  502  0.00000000000E+00  0.00000000000E+00  0.31146859852E+03  0.31146859852E+03  0.00000000000E+00 0. -1.
         13   -1    0    0    0    0 -0.00000000000E+00 -0.00000000000E+00 -0.10000000000E+04  0.10000000000E+04  0.00000000000E+00 0.  1.
    9000005    2    1    2  501    0 -0.24860811972E+03  0.27203451348E+03 -0.62211596376E+03  0.93700927618E+03  0.59594407251E+03 0.  0.
         13    1    3    3    0    0 -0.32852298682E+03 -0.17199997790E+02 -0.11638079390E+03  0.34895226319E+03  0.00000000000E+00 0.  1.
          1    1    3    3  501    0  0.79914867102E+02  0.28923451127E+03 -0.50573516987E+03  0.58805701300E+03  0.00000000000E+00 0.  1.
         -3    1    1    2    0  502  0.24860811972E+03 -0.27203451348E+03 -0.66415437719E+02  0.37445932233E+03  0.00000000000E+00 0. -1.
<mgrwt>
<rscale>  1 0.70068403E+03</rscale>
<asrwt>0</asrwt>
<pdfrwt beam="1">  1       21 0.47918245E-01 0.70068403E+03</pdfrwt>
<pdfrwt beam="2">0</pdfrwt>
<totfact> 0.38452498E+02</totfact>
</mgrwt>
</event>
<event>
 6    1  0.1439793E-004  0.6724899E+03  0.7818608E-02  0.9765470E-01
         21   -1    0    0  501  502  0.00000000000E+00  0.00000000000E+00  0.18422488158E+03  0.18422488158E+03  0.00000000000E+00 0. -1.
         13   -1    0    0    0    0 -0.00000000000E+00 -0.00000000000E+00 -0.10000000000E+04  0.10000000000E+04  0.00000000000E+00 0.  1.
    9000005    2    1    2  501    0 -0.31433671176E+02  0.62838298084E+01 -0.88289647864E+03  0.11098418244E+04  0.67172548036E+03 0.  0.
         13    1    3    3    0    0  0.31245975975E+03  0.75128359650E+02 -0.40287702939E+03  0.51534966061E+03  0.00000000000E+00 0.  1.
          3    1    3    3  501    0 -0.34389343093E+03 -0.68844529842E+02 -0.48001944925E+03  0.59449216377E+03  0.00000000000E+00 0.  1.
         -3    1    1    2    0  502  0.31433671176E+02 -0.62838298084E+01  0.67121360216E+02  0.74383057196E+02  0.00000000000E+00 0. -1.
<mgrwt>
<rscale>  1 0.67248991E+03</rscale>
<asrwt>0</asrwt>
<pdfrwt beam="1">  1       21 0.28342289E-01 0.67248991E+03</pdfrwt>
<pdfrwt beam="2">0</pdfrwt>
<totfact> 0.11351829E+03</totfact>
</mgrwt>
</event>
<event>
 6    1  0.1439793E-004  0.6571790E+03  0.7818608E-02  0.9793401E-01
         21   -1    0    0  501  502  0.00000000000E+00  0.00000000000E+00  0.15209027432E+03  0.15209027432E+03  0.00000000000E+00 0.  1.
         13   -1    0    0    0    0 -0.00000000000E+00 -0.00000000000E+00 -0.10000000000E+04  0.10000000000E+04  0.00000000000E+00 0.  1.
    9000005    2    1    2  501    0 -0.47334203168E+02 -0.36462768203E+02 -0.86829915251E+03  0.10889571691E+04  0.65445720832E+03 0.  0.
         13    1    3    3    0    0  0.89766579313E+02 -0.23106003986E+03 -0.80548568870E+03  0.84276567056E+03  0.00000000000E+00 0.  1.
          1    1    3    3  501    0 -0.13710078248E+03  0.19459727166E+03 -0.62813463813E+02  0.24619149849E+03  0.00000000000E+00 0.  1.
         -3    1    1    2    0  502  0.47334203168E+02  0.36462768203E+02  0.20389426834E+02  0.63133105271E+02  0.00000000000E+00 0. -1.
<mgrwt>
<rscale>  1 0.65717905E+03</rscale>
<asrwt>0</asrwt>
<pdfrwt beam="1">  1       21 0.23398503E-01 0.65717905E+03</pdfrwt>
<pdfrwt beam="2">0</pdfrwt>
<totfact> 0.16566566E+03</totfact>
</mgrwt>
</event>
<event>
 6    1  0.1439793E-004  0.5858669E+03  0.7818608E-02  0.9935170E-01
         21   -1    0    0  501  502  0.00000000000E+00  0.00000000000E+00  0.14951840203E+03  0.14951840203E+03  0.00000000000E+00 0.  1.
         13   -1    0    0    0    0 -0.00000000000E+00 -0.00000000000E+00 -0.10000000000E+04  0.10000000000E+04  0.00000000000E+00 0.  1.
    9000005    2    1    2  501    0  0.96184132270E+00 -0.21573952658E+02 -0.91219768713E+03  0.10841331114E+04  0.58546872010E+03 0.  0.
         13    1    3    3    0    0 -0.24612991371E+03 -0.14734881383E+03 -0.31701987099E+03  0.42754322116E+03  0.00000000000E+00 0.  1.
          3    1    3    3  501    0  0.24709175503E+03  0.12577486118E+03 -0.59517781614E+03  0.65658989022E+03  0.00000000000E+00 0.  1.
         -3    1    1    2    0  502 -0.96184132270E+00  0.21573952658E+02  0.61716089160E+02  0.65385290649E+02  0.00000000000E+00 0. -1.
<mgrwt>
<rscale>  1 0.58586686E+03</rscale>
<asrwt>0</asrwt>
<pdfrwt beam="1">  1       21 0.23002830E-01 0.58586686E+03</pdfrwt>
<pdfrwt beam="2">0</pdfrwt>
<totfact> 0.17185896E+03</totfact>
</mgrwt>
</event>
<event>
 6    1  0.1439793E-004  0.6439860E+03  0.7818608E-02  0.9818130E-01
         21   -1    0    0  501  502  0.00000000000E+00  0.00000000000E+00  0.14182405471E+03  0.14182405471E+03  0.00000000000E+00 0.  1.
         13   -1    0    0    0    0 -0.00000000000E+00 -0.00000000000E+00 -0.10000000000E+04  0.10000000000E+04  0.00000000000E+00 0.  1.
    9000005    2    1    2  501    0 -0.70754086647E+02 -0.28731037845E+02 -0.84795974991E+03  0.10647787177E+04  0.63944223103E+03 0.  0.
         13    1    3    3    0    0  0.87093184040E+02 -0.79327569677E+02  0.66593978923E+02  0.13532495722E+03  0.00000000000E+00 0.  1.
          3    1    3    3  501    0 -0.15784727069E+03  0.50596531832E+02 -0.91455372883E+03  0.92945376045E+03  0.00000000000E+00 0.  1.
         -3    1    1    2    0  502  0.70754086647E+02  0.28731037845E+02 -0.10216195380E+02  0.77045337049E+02  0.00000000000E+00 0. -1.
<mgrwt>
<rscale>  1 0.64398601E+03</rscale>
<asrwt>0</asrwt>
<pdfrwt beam="1">  1       21 0.21819085E-01 0.64398601E+03</pdfrwt>
<pdfrwt beam="2">0</pdfrwt>
<totfact> 0.18984043E+03</totfact>
</mgrwt>
</event>
<event>
 6    1  0.1439793E-004  0.6445749E+03  0.7818608E-02  0.9817013E-01
         21   -1    0    0  501  502  0.00000000000E+00  0.00000000000E+00  0.12462561466E+03  0.12462561466E+03  0.00000000000E+00 0.  1.
         13   -1    0    0    0    0 -0.00000000000E+00 -0.00000000000E+00 -0.10000000000E+04  0.10000000000E+04  0.00000000000E+00 0.  1.
    9000005    2    1    2  501    0 -0.22918763200E+02 -0.77348585167E+00 -0.88889608129E+03  0.10980041149E+04  0.64416684566E+03 0.  0.
         13    1    3    3    0    0  0.15474376328E+03 -0.95519126430E+02 -0.87770545304E+03  0.89634613743E+03  0.00000000000E+00 0.  1.
          3    1    3    3  501    0 -0.17766252648E+03  0.94745640578E+02 -0.11190628250E+02  0.20165797749E+03  0.00000000000E+00 0.  1.
         -3    1    1    2    0  502  0.22918763200E+02  0.77348585167E+00  0.13521695953E+02  0.26621499740E+02  0.00000000000E+00 0. -1.
<mgrwt>
<rscale>  1 0.64457489E+03</rscale>
<asrwt>0</asrwt>
<pdfrwt beam="1">  1       21 0.19173171E-01 0.64457489E+03</pdfrwt>
<pdfrwt beam="2">0</pdfrwt>
<totfact> 0.24336085E+03</totfact>
</mgrwt>
</event>
<event>
 6    1  0.1439793E-004  0.6635502E+03  0.7818608E-02  0.9781680E-01
         21   -1    0    0  501  502  0.00000000000E+00  0.00000000000E+00  0.22237693213E+03  0.22237693213E+03  0.00000000000E+00 0.  1.
         13   -1    0    0    0    0 -0.00000000000E+00 -0.00000000000E+00 -0.10000000000E+04  0.10000000000E+04  0.00000000000E+00 0.  1.
    9000005    2    1    2  501    0  0.36183787668E+02  0.33943783221E+02 -0.88380602706E+03  0.11051751074E+04  0.66169288763E+03 0.  0.
         13    1    3    3    0    0 -0.27428820678E+03 -0.12422535634E+03 -0.29841227467E+03  0.42392905681E+03  0.00000000000E+00 0.  1.
          3    1    3    3  501    0  0.31047199444E+03  0.15816913956E+03 -0.58539375239E+03  0.68124605054E+03  0.00000000000E+00 0.  1.
         -3    1    1    2    0  502 -0.36183787668E+02 -0.33943783221E+02  0.10618295919E+03  0.11720182478E+03  0.00000000000E+00 0. -1.
<mgrwt>
<rscale>  1 0.66355024E+03</rscale>
<asrwt>0</asrwt>
<pdfrwt beam="1">  1       21 0.34211835E-01 0.66355024E+03</pdfrwt>
<pdfrwt beam="2">0</pdfrwt>
<totfact> 0.77778483E+02</totfact>
</mgrwt>
</event>
<event>
 6    1  0.1439793E-004  0.6541656E+03  0.7818608E-02  0.9798994E-01
         21   -1    0    0  501  502  0.00000000000E+00  0.00000000000E+00  0.12481482013E+03  0.12481482013E+03  0.00000000000E+00 0.  1.
         13   -1    0    0    0    0 -0.00000000000E+00 -0.00000000000E+00 -0.10000000000E+04  0.10000000000E+04  0.00000000000E+00 0.  1.
    9000005    2    1    2  501    0  0.37098117566E+02  0.24595492636E+02 -0.85334367285E+03  0.10752339769E+04  0.65264957867E+03 0.  0.
         13    1    3    3    0    0 -0.22834155658E+03 -0.12834033073E+03 -0.66718478618E+03  0.71676121956E+03  0.00000000000E+00 0.  1.
          1    1    3    3  501    0  0.26543967414E+03  0.15293582337E+03 -0.18615888667E+03  0.35847275735E+03  0.00000000000E+00 0.  1.
         -3    1    1    2    0  502 -0.37098117566E+02 -0.24595492636E+02 -0.21841507018E+02  0.49580843214E+02  0.00000000000E+00 0. -1.
<mgrwt>
<rscale>  1 0.65416564E+03</rscale>
<asrwt>0</asrwt>
<pdfrwt beam="1">  1       21 0.19202279E-01 0.65416564E+03</pdfrwt>
<pdfrwt beam="2">0</pdfrwt>
<totfact> 0.24257084E+03</totfact>
</mgrwt>
</event>
<event>
 6    1  0.1439793E-004  0.7207969E+03  0.7818608E-02  0.9682313E-01
         21   -1    0    0  501  502  0.00000000000E+00  0.00000000000E+00  0.14418128213E+03  0.14418128213E+03  0.00000000000E+00 0.  1.
         13   -1    0    0    0    0 -0.00000000000E+00 -0.00000000000E+00 -0.10000000000E+04  0.10000000000E+04  0.00000000000E+00 0.  1.
    9000005    2    1    2  501    0 -0.15462565133E+02 -0.35169869694E+02 -0.81818253392E+03  0.10903993800E+04  0.71977228234E+03 0.  0.
         13    1    3    3    0    0  0.22070411552E+03  0.93083411504E+02 -0.78365624721E+03  0.81944611897E+03  0.00000000000E+00 0.  1.
          3    1    3    3  501    0 -0.23616668065E+03 -0.12825328120E+03 -0.34526286716E+02  0.27095326103E+03  0.00000000000E+00 0.  1.
         -1    1    1    2    0  502  0.15462565133E+02  0.35169869694E+02 -0.37636183946E+02  0.53781902131E+02  0.00000000000E+00 0. -1.
<mgrwt>
<rscale>  1 0.72079688E+03</rscale>
<asrwt>0</asrwt>
<pdfrwt beam="1">  1       21 0.22181735E-01 0.72079688E+03</pdfrwt>
<pdfrwt beam="2">0</pdfrwt>
<totfact> 0.18327333E+03</totfact>
</mgrwt>
</event>
<event>
 6    1  0.1439793E-004  0.6508754E+03  0.7818608E-02  0.9805138E-01
         21   -1    0    0  501  502  0.00000000000E+00  0.00000000000E+00  0.38682653495E+03  0.38682653495E+03  0.00000000000E+00 0. -1.
         13   -1    0    0    0    0 -0.00000000000E+00 -0.00000000000E+00 -0.10000000000E+04  0.10000000000E+04  0.00000000000E+00 0.  1.
    9000005    2    1    2  501    0  0.22522316488E+02 -0.20373443952E+02 -0.89318220174E+03  0.11051756436E+04  0.65016646007E+03 0.  0.
         13    1    3    3    0    0  0.70056250017E+01 -0.25783398783E+03 -0.99280948449E+02  0.27637682751E+03  0.00000000000E+00 0.  1.
          3    1    3    3  501    0  0.15516691486E+02  0.23746054388E+03 -0.79390125329E+03  0.82879881612E+03  0.00000000000E+00 0.  1.
         -3    1    1    2    0  502 -0.22522316488E+02  0.20373443952E+02  0.28000873669E+03  0.28165089132E+03  0.00000000000E+00 0. -1.
<mgrwt>
<rscale>  1 0.65087538E+03</rscale>
<asrwt>0</asrwt>
<pdfrwt beam="1">  1       21 0.59511773E-01 0.65087538E+03</pdfrwt>
<pdfrwt beam="2">0</pdfrwt>
<totfact> 0.24153068E+02</totfact>
</mgrwt>
</event>
<event>
 6    1  0.1439793E-004  0.6716518E+03  0.7818608E-02  0.9766978E-01
         21   -1    0    0  501  502  0.00000000000E+00  0.00000000000E+00  0.17483869068E+03  0.17483869068E+03  0.00000000000E+00 0.  1.
         13   -1    0    0    0    0 -0.00000000000E+00 -0.00000000000E+00 -0.10000000000E+04  0.10000000000E+04  0.00000000000E+00 0.  1.
    9000005    2    1    2  501    0 -0.73496746198E+02  0.94195089485E+02 -0.81328467676E+03  0.10547739540E+04  0.66093996859E+03 0.  0.
         13    1    3    3    0    0 -0.27102218431E+03 -0.90491635397E+02 -0.11869813039E+03  0.30940427700E+03  0.00000000000E+00 0.  1.
          3    1    3    3  501    0  0.19752543812E+03  0.18468672488E+03 -0.69458654637E+03  0.74536967704E+03  0.00000000000E+00 0.  1.
         -1    1    1    2    0  502  0.73496746198E+02 -0.94195089485E+02 -0.11876632555E+02  0.12006473664E+03  0.00000000000E+00 0. -1.
<mgrwt>
<rscale>  1 0.67165179E+03</rscale>
<asrwt>0</asrwt>
<pdfrwt beam="1">  1       21 0.26898259E-01 0.67165179E+03</pdfrwt>
<pdfrwt beam="2">0</pdfrwt>
<totfact> 0.12593490E+03</totfact>
</mgrwt>
</event>
<event>
 6    1  0.1439793E-004  0.6612559E+03  0.7818608E-02  0.9785885E-01
         21   -1    0    0  501  502  0.00000000000E+00  0.00000000000E+00  0.14935737554E+03  0.14935737554E+03  0.00000000000E+00 0.  1.
         13   -1    0    0    0    0 -0.00000000000E+00 -0.00000000000E+00 -0.10000000000E+04  0.10000000000E+04  0.00000000000E+00 0.  1.
    9000005    2    1    2  501    0 -0.85820307417E+02  0.33777296620E+02 -0.81726316579E+03  0.10512746595E+04  0.65479255993E+03 0.  0.
         13    1    3    3    0    0 -0.14485639666E+03 -0.39728855335E+02 -0.90805068234E+03  0.92039002564E+03  0.00000000000E+00 0.  1.
          1    1    3    3  501    0  0.59036089241E+02  0.73506151955E+02  0.90787516553E+02  0.13088463382E+03  0.00000000000E+00 0.  1.
         -1    1    1    2    0  502  0.85820307417E+02 -0.33777296620E+02 -0.33379458674E+02  0.98082716079E+02  0.00000000000E+00 0. -1.
<mgrwt>
<rscale>  1 0.66125587E+03</rscale>
<asrwt>0</asrwt>
<pdfrwt beam="1">  1       21 0.22978057E-01 0.66125587E+03</pdfrwt>
<pdfrwt beam="2">0</pdfrwt>
<totfact> 0.17158203E+03</totfact>
</mgrwt>
</event>
<event>
 6    1  0.1439793E-004  0.6527405E+03  0.7818608E-02  0.9801650E-01
         21   -1    0    0  501  502  0.00000000000E+00  0.00000000000E+00  0.12686765648E+03  0.12686765648E+03  0.00000000000E+00 0.  1.
         13   -1    0    0    0    0 -0.00000000000E+00 -0.00000000000E+00 -0.10000000000E+04  0.10000000000E+04  0.00000000000E+00 0.  1.
    9000005    2    1    2  501    0 -0.41443409045E+02 -0.39980267305E+02 -0.82369595697E+03  0.10509734259E+04  0.65019545862E+03 0.  0.
         13    1    3    3    0    0  0.27051494709E+02  0.18431479915E+03 -0.79284017366E+03  0.81443186917E+03  0.00000000000E+00 0.  1.
          1    1    3    3  501    0 -0.68494903755E+02 -0.22429506646E+03 -0.30855783309E+02  0.23654155669E+03  0.00000000000E+00 0.  1.
         -1    1    1    2    0  502  0.41443409045E+02  0.39980267305E+02 -0.49436386544E+02  0.75894230621E+02  0.00000000000E+00 0. -1.
<mgrwt>
<rscale>  1 0.65274046E+03</rscale>
<asrwt>0</asrwt>
<pdfrwt beam="1">  1       21 0.19518100E-01 0.65274046E+03</pdfrwt>
<pdfrwt beam="2">0</pdfrwt>
<totfact> 0.23513418E+03</totfact>
</mgrwt>
</event>
<event>
 6    1  0.1439793E-004  0.6861269E+03  0.7818608E-02  0.9741256E-01
         21   -1    0    0  501  502  0.00000000000E+00  0.00000000000E+00  0.93165885308E+03  0.93165885308E+03  0.00000000000E+00 0. -1.
         13   -1    0    0    0    0 -0.00000000000E+00 -0.00000000000E+00 -0.10000000000E+04  0.10000000000E+04  0.00000000000E+00 0.  1.
    9000005    2    1    2  501    0  0.20030188552E+03  0.76298472305E+02 -0.86647947624E+03  0.11052406206E+04  0.65178818991E+03 0.  0.
         13    1    3    3    0    0  0.43260980269E+03  0.82426871421E+02 -0.66538520385E+03  0.79792411920E+03  0.00000000000E+00 0.  1.
          3    1    3    3  501    0 -0.23230791716E+03 -0.61283991157E+01 -0.20109427239E+03  0.30731650141E+03  0.00000000000E+00 0.  1.
         -1    1    1    2    0  502 -0.20030188552E+03 -0.76298472305E+02  0.79813832932E+03  0.82641823247E+03  0.00000000000E+00 0. -1.
<mgrwt>
<rscale>  1 0.68612692E+03</rscale>
<asrwt>0</asrwt>
<pdfrwt beam="1">  1       21 0.14333213E+00 0.68612692E+03</pdfrwt>
<pdfrwt beam="2">0</pdfrwt>
<totfact> 0.28563340E+01</totfact>
</mgrwt>
</event>
<event>
 6    1  0.1439793E-004  0.6728963E+03  0.7818608E-02  0.9764740E-01
         21   -1    0    0  501  502  0.00000000000E+00  0.00000000000E+00  0.25117585593E+03  0.25117585593E+03  0.00000000000E+00 0. -1.
         13   -1    0    0    0    0 -0.00000000000E+00 -0.00000000000E+00 -0.10000000000E+04  0.10000000000E+04  0.00000000000E+00 0.  1.
    9000005    2    1    2  501    0 -0.97114865855E+02  0.12694689031E+03 -0.83275934497E+03  0.10706435096E+04  0.65363796388E+03 0.  0.
         13    1    3    3    0    0 -0.39280154901E+02  0.37765417129E+03 -0.31840769909E+03  0.49552907736E+03  0.00000000000E+00 0.  1.
          3    1    3    3  501    0 -0.57834710954E+02 -0.25070728098E+03 -0.51435164588E+03  0.57511443222E+03  0.00000000000E+00 0.  1.
         -3    1    1    2    0  502  0.97114865855E+02 -0.12694689031E+03  0.83935200899E+02  0.18053234635E+03  0.00000000000E+00 0. -1.
<mgrwt>
<rscale>  1 0.67289628E+03</rscale>
<asrwt>0</asrwt>
<pdfrwt beam="1">  1       21 0.38642438E-01 0.67289628E+03</pdfrwt>
<pdfrwt beam="2">0</pdfrwt>
<totfact> 0.60553823E+02</totfact>
</mgrwt>
</event>
<event>
 6    1  0.1439793E-004  0.5634314E+03  0.7818608E-02  0.9984320E-01
         21   -1    0    0  501  502  0.00000000000E+00  0.00000000000E+00  0.18379585165E+03  0.18379585165E+03  0.00000000000E+00 0. -1.
         13   -1    0    0    0    0 -0.00000000000E+00 -0.00000000000E+00 -0.10000000000E+04  0.10000000000E+04  0.00000000000E+00 0.  1.
    9000005    2    1    2  501    0  0.34216809883E+02 -0.42986843396E+02 -0.91278853184E+03  0.10726778877E+04  0.56074618864E+03 0.  0.
         13    1    3    3    0    0  0.28625649574E+03  0.52305294639E+02 -0.52883008831E+03  0.60360573846E+03  0.00000000000E+00 0.  1.
          3    1    3    3  501    0 -0.25203968585E+03 -0.95292138035E+02 -0.38395844353E+03  0.46907214922E+03  0.00000000000E+00 0.  1.
         -1    1    1    2    0  502 -0.34216809883E+02  0.42986843396E+02  0.96584383486E+02  0.11111796397E+03  0.00000000000E+00 0. -1.
<mgrwt>
<rscale>  1 0.56343140E+03</rscale>
<asrwt>0</asrwt>
<pdfrwt beam="1">  1       21 0.28276284E-01 0.56343140E+03</pdfrwt>
<pdfrwt beam="2">0</pdfrwt>
<totfact> 0.11482670E+03</totfact>
</mgrwt>
</event>
<event>
 6    1  0.1439793E-004  0.6496790E+03  0.7818608E-02  0.9807382E-01
         21   -1    0    0  501  502  0.00000000000E+00  0.00000000000E+00  0.14559822043E+03  0.14559822043E+03  0.00000000000E+00 0.  1.
         13   -1    0    0    0    0 -0.00000000000E+00 -0.00000000000E+00 -0.10000000000E+04  0.10000000000E+04  0.00000000000E+00 0.  1.
    9000005    2    1    2  501    0  0.24097119048E+02  0.42484881212E+02 -0.87728907376E+03  0.10916587681E+04  0.64784034362E+03 0.  0.
         13    1    3    3    0    0 -0.20029989019E+03 -0.16417374249E+03 -0.68181163518E+03  0.72934228563E+03  0.00000000000E+00 0.  1.
          3    1    3    3  501    0  0.22439700924E+03  0.20665862370E+03 -0.19547743858E+03  0.36231648251E+03  0.00000000000E+00 0.  1.
         -1    1    1    2    0  502 -0.24097119048E+02 -0.42484881212E+02  0.22887294191E+02  0.53939452290E+02  0.00000000000E+00 0. -1.
<mgrwt>
<rscale>  1 0.64967896E+03</rscale>
<asrwt>0</asrwt>
<pdfrwt beam="1">  1       21 0.22399726E-01 0.64967896E+03</pdfrwt>
<pdfrwt beam="2">0</pdfrwt>
<totfact> 0.18038295E+03</totfact>
</mgrwt>
</event>
<event>
 6    1  0.1439793E-004  0.6587655E+03  0.7818608E-02  0.9790469E-01
         21   -1    0    0  501  502  0.00000000000E+00  0.00000000000E+00  0.12830937555E+03  0.12830937555E+03  0.00000000000E+00 0. -1.
         13   -1    0    0    0    0 -0.00000000000E+00 -0.00000000000E+00 -0.10000000000E+04  0.10000000000E+04  0.00000000000E+00 0.  1.
    9000005    2    1    2  501    0  0.37272621357E+02 -0.32525731479E+02 -0.84699076866E+03  0.10730169313E+04  0.65690547358E+03 0.  0.
         13    1    3    3    0    0 -0.30386173006E+03 -0.68527471088E+02 -0.46408130603E+03  0.55892702914E+03  0.00000000000E+00 0.  1.
          3    1    3    3  501    0  0.34113435142E+03  0.36001739610E+02 -0.38290946263E+03  0.51408990220E+03  0.00000000000E+00 0.  1.
         -1    1    1    2    0  502 -0.37272621357E+02  0.32525731479E+02 -0.24699855791E+02  0.55292444214E+02  0.00000000000E+00 0. -1.
<mgrwt>
<rscale>  1 0.65876549E+03</rscale>
<asrwt>0</asrwt>
<pdfrwt beam="1">  1       21 0.19739903E-01 0.65876549E+03</pdfrwt>
<pdfrwt beam="2">0</pdfrwt>
<totfact> 0.23004943E+03</totfact>
</mgrwt>
</event>
<event>
 6    1  0.1439793E-004  0.6523226E+03  0.7818608E-02  0.9802431E-01
         21   -1    0    0  501  502  0.00000000000E+00  0.00000000000E+00  0.29849852979E+03  0.29849852979E+03  0.00000000000E+00 0. -1.
         13   -1    0    0    0    0 -0.00000000000E+00 -0.00000000000E+00 -0.10000000000E+04  0.10000000000E+04  0.00000000000E+00 0.  1.
    9000005    2    1    2  501    0 -0.34123385755E+01 -0.74380938503E+02 -0.88559875548E+03  0.10999135895E+04  0.64805908725E+03 0.  0.
         13    1    3    3    0    0  0.14547177108E+03 -0.31854852532E+03 -0.60633474707E+03  0.70019784680E+03  0.00000000000E+00 0.  1.
          3    1    3    3  501    0 -0.14888410966E+03  0.24416758681E+03 -0.27926400842E+03  0.39971574269E+03  0.00000000000E+00 0.  1.
         -1    1    1    2    0  502  0.34123385755E+01  0.74380938503E+02  0.18409728527E+03  0.19858494030E+03  0.00000000000E+00 0. -1.
<mgrwt>
<rscale>  1 0.65232258E+03</rscale>
<asrwt>0</asrwt>
<pdfrwt beam="1">  1       21 0.45922849E-01 0.65232258E+03</pdfrwt>
<pdfrwt beam="2">0</pdfrwt>
<totfact> 0.42270165E+02</totfact>
</mgrwt>
</event>
<event>
 6    1  0.1439793E-004  0.6452717E+03  0.7818608E-02  0.9815692E-01
         21   -1    0    0  501  502  0.00000000000E+00  0.00000000000E+00  0.33633580009E+03  0.33633580009E+03  0.00000000000E+00 0.  1.
         13   -1    0    0    0    0 -0.00000000000E+00 -0.00000000000E+00 -0.10000000000E+04  0.10000000000E+04  0.00000000000E+00 0.  1.
    9000005    2    1    2  501    0  0.28926106114E+02 -0.16108115229E+01 -0.89490807919E+03  0.11032842049E+04  0.64462101439E+03 0.  0.
         13    1    3    3    0    0  0.12602251859E+03  0.23533574719E+03 -0.13053635352E+03  0.29716044266E+03  0.00000000000E+00 0.  1.
          3    1    3    3  501    0 -0.97096412471E+02 -0.23694655871E+03 -0.76437172567E+03  0.80612376221E+03  0.00000000000E+00 0.  1.
         -3    1    1    2    0  502 -0.28926106114E+02  0.16108115229E+01  0.23124387928E+03  0.23305159522E+03  0.00000000000E+00 0. -1.
<mgrwt>
<rscale>  1 0.64527170E+03</rscale>
<asrwt>0</asrwt>
<pdfrwt beam="1">  1       21 0.51743968E-01 0.64527170E+03</pdfrwt>
<pdfrwt beam="2">0</pdfrwt>
<totfact> 0.32780873E+02</totfact>
</mgrwt>
</event>
<event>
 6    1  0.1439793E-004  0.6654107E+03  0.7818608E-02  0.9778284E-01
         21   -1    0    0  501  502  0.00000000000E+00  0.00000000000E+00  0.21056182833E+03  0.21056182833E+03  0.00000000000E+00 0. -1.
         13   -1    0    0    0    0 -0.00000000000E+00 -0.00000000000E+00 -0.10000000000E+04  0.10000000000E+04  0.00000000000E+00 0.  1.
    9000005    2    1    2  501    0 -0.41680139368E+02  0.24191161799E+03 -0.63963549578E+03  0.92298695696E+03  0.61847626496E+03 0.  0.
         13    1    3    3    0    0 -0.24283181532E+03  0.19427058785E+03 -0.64515851330E+03  0.71619680194E+03  0.00000000000E+00 0.  1.
          1    1    3    3  501    0  0.20115167595E+03  0.47641030140E+02  0.55230175190E+01  0.20679015502E+03  0.00000000000E+00 0.  1.
         -1    1    1    2    0  502  0.41680139368E+02 -0.24191161799E+03 -0.14980267589E+03  0.28757487137E+03  0.00000000000E+00 0. -1.
<mgrwt>
<rscale>  1 0.66541067E+03</rscale>
<asrwt>0</asrwt>
<pdfrwt beam="1">  1       21 0.32394127E-01 0.66541067E+03</pdfrwt>
<pdfrwt beam="2">0</pdfrwt>
<totfact> 0.86871477E+02</totfact>
</mgrwt>
</event>
<event>
 6    1  0.1439793E-004  0.6500668E+03  0.7818608E-02  0.9806654E-01
         21   -1    0    0  501  502  0.00000000000E+00  0.00000000000E+00  0.16937555609E+03  0.16937555609E+03  0.00000000000E+00 0.  1.
         13   -1    0    0    0    0 -0.00000000000E+00 -0.00000000000E+00 -0.10000000000E+04  0.10000000000E+04  0.00000000000E+00 0.  1.
    9000005    2    1    2  501    0  0.21979940367E+02 -0.64905158780E+00 -0.89224901304E+03  0.11039452377E+04  0.64969473408E+03 0.  0.
         13    1    3    3    0    0  0.12833138413E+03 -0.27224296016E+03 -0.22515072683E+03  0.37586968925E+03  0.00000000000E+00 0.  1.
          3    1    3    3  501    0 -0.10635144376E+03  0.27159390857E+03 -0.66709828621E+03  0.72807554843E+03  0.00000000000E+00 0.  1.
         -3    1    1    2    0  502 -0.21979940367E+02  0.64905158780E+00  0.61624569123E+02  0.65430318401E+02  0.00000000000E+00 0. -1.
<mgrwt>
<rscale>  1 0.65006676E+03</rscale>
<asrwt>0</asrwt>
<pdfrwt beam="1">  1       21 0.26057777E-01 0.65006676E+03</pdfrwt>
<pdfrwt beam="2">0</pdfrwt>
<totfact> 0.13423195E+03</totfact>
</mgrwt>
</event>
<event>
 6    1  0.1439793E-004  0.6569850E+03  0.7818608E-02  0.9793760E-01
         21   -1    0    0  501  502  0.00000000000E+00  0.00000000000E+00  0.34223385120E+03  0.34223385120E+03  0.00000000000E+00 0. -1.
         13   -1    0    0    0    0 -0.00000000000E+00 -0.00000000000E+00 -0.10000000000E+04  0.10000000000E+04  0.00000000000E+00 0.  1.
    9000005    2    1    2  501    0 -0.21359944340E+02  0.96492174295E+02 -0.88047950290E+03  0.10985778949E+04  0.64950923729E+03 0.  0.
         13    1    3    3    0    0 -0.15440436425E+03  0.34196608008E+03 -0.45633414411E+03  0.59078114282E+03  0.00000000000E+00 0.  1.
          3    1    3    3  501    0  0.13304441991E+03 -0.24547390579E+03 -0.42414535879E+03  0.50779675213E+03  0.00000000000E+00 0.  1.
         -1    1    1    2    0  502  0.21359944340E+02 -0.96492174295E+02  0.22271335410E+03  0.24365595625E+03  0.00000000000E+00 0. -1.
<mgrwt>
<rscale>  1 0.65698496E+03</rscale>
<asrwt>0</asrwt>
<pdfrwt beam="1">  1       21 0.52651360E-01 0.65698496E+03</pdfrwt>
<pdfrwt beam="2">0</pdfrwt>
<totfact> 0.31537499E+02</totfact>
</mgrwt>
</event>
<event>
 6    1  0.1439793E-004  0.6503816E+03  0.7818608E-02  0.9806063E-01
         21   -1    0    0  501  502  0.00000000000E+00  0.00000000000E+00  0.14377983034E+03  0.14377983034E+03  0.00000000000E+00 0.  1.
         13   -1    0    0    0    0 -0.00000000000E+00 -0.00000000000E+00 -0.10000000000E+04  0.10000000000E+04  0.00000000000E+00 0.  1.
    9000005    2    1    2  501    0 -0.68557864186E+02 -0.11418187755E+02 -0.85501681854E+03  0.10742672142E+04  0.64665735260E+03 0.  0.
         13    1    3    3    0    0  0.24593840103E+03  0.15329103563E+03 -0.45476918040E+03  0.53925768066E+03  0.00000000000E+00 0.  1.
          3    1    3    3  501    0 -0.31449626522E+03 -0.16470922338E+03 -0.40024763814E+03  0.53500953350E+03  0.00000000000E+00 0.  1.
         -1    1    1    2    0  502  0.68557864186E+02  0.11418187755E+02 -0.12033511184E+01  0.69512616174E+02  0.00000000000E+00 0. -1.
<mgrwt>
<rscale>  1 0.65038165E+03</rscale>
<asrwt>0</asrwt>
<pdfrwt beam="1">  1       21 0.22119973E-01 0.65038165E+03</pdfrwt>
<pdfrwt beam="2">0</pdfrwt>
<totfact> 0.18482309E+03</totfact>
</mgrwt>
</event>
<event>
 6    1  0.1439793E-004  0.6377361E+03  0.7818608E-02  0.9830068E-01
         21   -1    0    0  501  502  0.00000000000E+00  0.00000000000E+00  0.13550116000E+03  0.13550116000E+03  0.00000000000E+00 0.  1.
         13   -1    0    0    0    0 -0.00000000000E+00 -0.00000000000E+00 -0.10000000000E+04  0.10000000000E+04  0.00000000000E+00 0.  1.
    9000005    2    1    2  501    0 -0.30227499605E+02  0.28327516129E+02 -0.88374496571E+03  0.10898222452E+04  0.63638919837E+03 0.  0.
         13    1    3    3    0    0 -0.16173378365E+03  0.26106079879E+03 -0.70295549249E+03  0.76710949796E+03  0.00000000000E+00 0.  1.
          3    1    3    3  501    0  0.13150628404E+03 -0.23273328266E+03 -0.18078947322E+03  0.32271274724E+03  0.00000000000E+00 0.  1.
         -1    1    1    2    0  502  0.30227499605E+02 -0.28327516129E+02  0.19246125709E+02  0.45678914799E+02  0.00000000000E+00 0. -1.
<mgrwt>
<rscale>  1 0.63773612E+03</rscale>
<asrwt>0</asrwt>
<pdfrwt beam="1">  1       21 0.20846332E-01 0.63773612E+03</pdfrwt>
<pdfrwt beam="2">0</pdfrwt>
<totfact> 0.20735345E+03</totfact>
</mgrwt>
</event>
<event>
 6    1  0.1439793E-004  0.6552877E+03  0.7818608E-02  0.9796907E-01
         21   -1    0    0  501  502  0.00000000000E+00  0.00000000000E+00  0.17768797070E+03  0.17768797070E+03  0.00000000000E+00 0.  1.
         13   -1    0    0    0    0 -0.00000000000E+00 -0.00000000000E+00 -0.10000000000E+04  0.10000000000E+04  0.00000000000E+00 0.  1.
    9000005    2    1    2  501    0 -0.73464025030E+02  0.27091540548E+01 -0.87065862915E+03  0.10897010614E+04  0.65115102107E+03 0.  0.
         13    1    3    3    0    0 -0.20058732257E+03 -0.73752061986E+02 -0.74583032498E+01  0.21384636286E+03  0.00000000000E+00 0.  1.
          3    1    3    3  501    0  0.12712329754E+03  0.76461216041E+02 -0.86320032590E+03  0.87585469855E+03  0.00000000000E+00 0.  1.
         -1    1    1    2    0  502  0.73464025030E+02 -0.27091540548E+01  0.48346599842E+02  0.87986909286E+02  0.00000000000E+00 0. -1.
<mgrwt>
<rscale>  1 0.65528769E+03</rscale>
<asrwt>0</asrwt>
<pdfrwt beam="1">  1       21 0.27336610E-01 0.65528769E+03</pdfrwt>
<pdfrwt beam="2">0</pdfrwt>
<totfact> 0.12208180E+03</totfact>
</mgrwt>
</event>
<event>
 6    1  0.1439793E-004  0.6519411E+03  0.7818608E-02  0.9803144E-01
         21   -1    0    0  501  502  0.00000000000E+00  0.00000000000E+00  0.30935942197E+03  0.30935942197E+03  0.00000000000E+00 0. -1.
         13   -1    0    0    0    0 -0.00000000000E+00 -0.00000000000E+00 -0.10000000000E+04  0.10000000000E+04  0.00000000000E+00 0.  1.
    9000005    2    1    2  501    0 -0.81899843078E+02 -0.31400938431E+01 -0.88454844835E+03  0.10988417109E+04  0.64676866323E+03 0.  0.
         13    1    3    3    0    0 -0.18778203987E+02  0.25377622075E+03 -0.76925855532E+03  0.81025534006E+03  0.00000000000E+00 0.  1.
          1    1    3    3  501    0 -0.63121639091E+02 -0.25691631459E+03 -0.11528989303E+03  0.28858637088E+03  0.00000000000E+00 0.  1.
         -3    1    1    2    0  502  0.81899843078E+02  0.31400938431E+01  0.19390787032E+03  0.21051771103E+03  0.00000000000E+00 0. -1.
<mgrwt>
<rscale>  1 0.65194106E+03</rscale>
<asrwt>0</asrwt>
<pdfrwt beam="1">  1       21 0.47593756E-01 0.65194106E+03</pdfrwt>
<pdfrwt beam="2">0</pdfrwt>
<totfact> 0.39183194E+02</totfact>
</mgrwt>
</event>
<event>
 6    1  0.1439793E-004  0.6445398E+03  0.7818608E-02  0.9817079E-01
         21   -1    0    0  501  502  0.00000000000E+00  0.00000000000E+00  0.13357648926E+03  0.13357648926E+03  0.00000000000E+00 0.  1.
         13   -1    0    0    0    0 -0.00000000000E+00 -0.00000000000E+00 -0.10000000000E+04  0.10000000000E+04  0.00000000000E+00 0.  1.
    9000005    2    1    2  501    0 -0.12763690924E+01 -0.66489317815E+02 -0.84689617213E+03  0.10642672153E+04  0.64109993037E+03 0.  0.
         13    1    3    3    0    0 -0.27533610051E+03 -0.28509115696E+01 -0.15187472343E+03  0.31445830814E+03  0.00000000000E+00 0.  1.
          3    1    3    3  501    0  0.27405973141E+03 -0.63638406245E+02 -0.69502144870E+03  0.74980890718E+03  0.00000000000E+00 0.  1.
         -3    1    1    2    0  502  0.12763690924E+01  0.66489317815E+02 -0.19527338612E+02  0.69309273945E+02  0.00000000000E+00 0. -1.
<mgrwt>
<rscale>  1 0.64453982E+03</rscale>
<asrwt>0</asrwt>
<pdfrwt beam="1">  1       21 0.20550229E-01 0.64453982E+03</pdfrwt>
<pdfrwt beam="2">0</pdfrwt>
<totfact> 0.21307753E+03</totfact>
</mgrwt>
</event>
<event>
 6    1  0.1439793E-004  0.6543203E+03  0.7818608E-02  0.9798706E-01
         21   -1    0    0  501  502  0.00000000000E+00  0.00000000000E+00  0.16873598927E+03  0.16873598927E+03  0.00000000000E+00 0. -1.
         13   -1    0    0    0    0 -0.00000000000E+00 -0.00000000000E+00 -0.10000000000E+04  0.10000000000E+04  0.00000000000E+00 0.  1.
    9000005    2    1    2  501    0 -0.29246097849E+02 -0.33204843902E+02 -0.88405198649E+03  0.10998559030E+04  0.65282248481E+03 0.  0.
         13    1    3    3    0    0  0.30071643291E+03  0.68453337226E+02 -0.39280403530E+03  0.49941089550E+03  0.00000000000E+00 0.  1.
          1    1    3    3  501    0 -0.32996253075E+03 -0.10165818113E+03 -0.49124795120E+03  0.60044500751E+03  0.00000000000E+00 0.  1.
         -3    1    1    2    0  502  0.29246097849E+02  0.33204843902E+02  0.52787975762E+02  0.68880086259E+02  0.00000000000E+00 0. -1.
<mgrwt>
<rscale>  1 0.65432033E+03</rscale>
<asrwt>0</asrwt>
<pdfrwt beam="1">  1       21 0.25959382E-01 0.65432033E+03</pdfrwt>
<pdfrwt beam="2">0</pdfrwt>
<totfact> 0.13520415E+03</totfact>
</mgrwt>
</event>
<event>
 6    1  0.1439793E-004  0.5051745E+03  0.7818608E-02  0.1012437E+00
         21   -1    0    0  501  502  0.00000000000E+00  0.00000000000E+00  0.12408467327E+03  0.12408467327E+03  0.00000000000E+00 0. -1.
         13   -1    0    0    0    0 -0.00000000000E+00 -0.00000000000E+00 -0.10000000000E+04  0.10000000000E+04  0.00000000000E+00 0.  1.
    9000005    2    1    2  501    0 -0.23333975699E+01 -0.49032359109E+02 -0.92544678099E+03  0.10543495892E+04  0.50278394453E+03 0.  0.
         13    1    3    3    0    0  0.17984341753E+03 -0.18042186175E+03 -0.32284676297E+03  0.41124899439E+03  0.00000000000E+00 0.  1.
          1    1    3    3  501    0 -0.18217681510E+03  0.13138950264E+03 -0.60260001803E+03  0.64310059485E+03  0.00000000000E+00 0.  1.
         -1    1    1    2    0  502  0.23333975699E+01  0.49032359109E+02  0.49531454259E+02  0.69735084032E+02  0.00000000000E+00 0. -1.
<mgrwt>
<rscale>  1 0.50517454E+03</rscale>
<asrwt>0</asrwt>
<pdfrwt beam="1">  1       21 0.19089949E-01 0.50517454E+03</pdfrwt>
<pdfrwt beam="2">0</pdfrwt>
<totfact> 0.24679040E+03</totfact>
</mgrwt>
</event>
<event>
 6    1  0.1439793E-004  0.6645405E+03  0.7818608E-02  0.9779871E-01
         21   -1    0    0  501  502  0.00000000000E+00  0.00000000000E+00  0.33957610076E+03  0.33957610076E+03  0.00000000000E+00 0. -1.
         13   -1    0    0    0    0 -0.00000000000E+00 -0.00000000000E+00 -0.10000000000E+04  0.10000000000E+04  0.00000000000E+00 0.  1.
    9000005    2    1    2  501    0 -0.14530092317E+03  0.13512283876E+02 -0.86343648743E+03  0.10895579993E+04  0.64832023411E+03 0.  0.
         13    1    3    3    0    0  0.14118046804E+03  0.25392128806E+03 -0.38175953803E+03  0.47973773040E+03  0.00000000000E+00 0.  1.
          1    1    3    3  501    0 -0.28648139121E+03 -0.24040900418E+03 -0.48167694939E+03  0.60982026891E+03  0.00000000000E+00 0.  1.
         -3    1    1    2    0  502  0.14530092317E+03 -0.13512283876E+02  0.20301258819E+03  0.25001810145E+03  0.00000000000E+00 0. -1.
<mgrwt>
<rscale>  1 0.66454049E+03</rscale>
<asrwt>0</asrwt>
<pdfrwt beam="1">  1       21 0.52242476E-01 0.66454049E+03</pdfrwt>
<pdfrwt beam="2">0</pdfrwt>
<totfact> 0.32049580E+02</totfact>
</mgrwt>
</event>
<event>
 6    1  0.1439793E-004  0.6726809E+03  0.7818608E-02  0.9765127E-01
         21   -1    0    0  501  502  0.00000000000E+00  0.00000000000E+00  0.25354182241E+03  0.25354182241E+03  0.00000000000E+00 0.  1.
         13   -1    0    0    0    0 -0.00000000000E+00 -0.00000000000E+00 -0.10000000000E+04  0.10000000000E+04  0.00000000000E+00 0.  1.
    9000005    2    1    2  501    0 -0.12131247533E+03  0.14317649037E+03 -0.81229600395E+03  0.10546678838E+04  0.64597470777E+03 0.  0.
         13    1    3    3    0    0 -0.15260705045E+03  0.38897177973E+03 -0.58149286390E+03  0.71604602369E+03  0.00000000000E+00 0.  1.
          1    1    3    3  501    0  0.31294575119E+02 -0.24579528936E+03 -0.23080314005E+03  0.33862186014E+03  0.00000000000E+00 0.  1.
         -1    1    1    2    0  502  0.12131247533E+03 -0.14317649037E+03  0.65837826358E+02  0.19887393858E+03  0.00000000000E+00 0. -1.
<mgrwt>
<rscale>  1 0.67268087E+03</rscale>
<asrwt>0</asrwt>
<pdfrwt beam="1">  1       21 0.39006433E-01 0.67268087E+03</pdfrwt>
<pdfrwt beam="2">0</pdfrwt>
<totfact> 0.59392279E+02</totfact>
</mgrwt>
</event>
<event>
 6    1  0.1439793E-004  0.6391916E+03  0.7818608E-02  0.9827274E-01
         21   -1    0    0  501  502  0.00000000000E+00  0.00000000000E+00  0.14795276220E+03  0.14795276220E+03  0.00000000000E+00 0.  1.
         13   -1    0    0    0    0 -0.00000000000E+00 -0.00000000000E+00 -0.10000000000E+04  0.10000000000E+04  0.00000000000E+00 0.  1.
    9000005    2    1    2  501    0 -0.43461843667E+02  0.65114273401E+02 -0.85745043555E+03  0.10694798688E+04  0.63437933434E+03 0.  0.
         13    1    3    3    0    0  0.60641156795E+02  0.10454270644E+03 -0.92920932411E+03  0.93703601605E+03  0.00000000000E+00 0.  1.
          1    1    3    3  501    0 -0.10410300046E+03 -0.39428433043E+02  0.71758888557E+02  0.13244385272E+03  0.00000000000E+00 0.  1.
         -3    1    1    2    0  502  0.43461843667E+02 -0.65114273401E+02  0.54031977488E+01  0.78472893418E+02  0.00000000000E+00 0. -1.
<mgrwt>
<rscale>  1 0.63919163E+03</rscale>
<asrwt>0</asrwt>
<pdfrwt beam="1">  1       21 0.22761963E-01 0.63919163E+03</pdfrwt>
<pdfrwt beam="2">0</pdfrwt>
<totfact> 0.17494147E+03</totfact>
</mgrwt>
</event>
<event>
 6    1  0.1439793E-004  0.6581100E+03  0.7818608E-02  0.9791679E-01
         21   -1    0    0  501  502  0.00000000000E+00  0.00000000000E+00  0.17279580877E+03  0.17279580877E+03  0.00000000000E+00 0. -1.
         13   -1    0    0    0    0 -0.00000000000E+00 -0.00000000000E+00 -0.10000000000E+04  0.10000000000E+04  0.00000000000E+00 0.  1.
    9000005    2    1    2  501    0 -0.20602465817E+02 -0.34530476934E+02 -0.88470010533E+03  0.11026345975E+04  0.65688047900E+03 0.  0.
         13    1    3    3    0    0 -0.32383942243E+02  0.11553312871E+03 -0.93596080898E+03  0.94362029413E+03  0.00000000000E+00 0.  1.
          3    1    3    3  501    0  0.11781476426E+02 -0.15006360564E+03  0.51260703645E+02  0.15901430333E+03  0.00000000000E+00 0.  1.
         -3    1    1    2    0  502  0.20602465817E+02  0.34530476934E+02  0.57495914100E+02  0.70161211316E+02  0.00000000000E+00 0. -1.
<mgrwt>
<rscale>  1 0.65811001E+03</rscale>
<asrwt>0</asrwt>
<pdfrwt beam="1">  1       21 0.26583970E-01 0.65811001E+03</pdfrwt>
<pdfrwt beam="2">0</pdfrwt>
<totfact> 0.12898830E+03</totfact>
</mgrwt>
</event>
<event>
 6    1  0.1439793E-004  0.7147928E+03  0.7818608E-02  0.9692264E-01
         21   -1    0    0  501  502  0.00000000000E+00  0.00000000000E+00  0.27525559927E+03  0.27525559927E+03  0.00000000000E+00 0. -1.
         13   -1    0    0    0    0 -0.00000000000E+00 -0.00000000000E+00 -0.10000000000E+04  0.10000000000E+04  0.00000000000E+00 0.  1.
    9000005    2    1    2  501    0  0.28762399281E+03 -0.13773836738E+03 -0.59850388723E+03  0.93227442437E+03  0.63971030961E+03 0.  0.
         13    1    3    3    0    0  0.91581288269E+02  0.18262649422E+03  0.23519996547E+02  0.20565203376E+03  0.00000000000E+00 0.  1.
          3    1    3    3  501    0  0.19604270454E+03 -0.32036486160E+03 -0.62202388378E+03  0.72662239061E+03  0.00000000000E+00 0.  1.
         -3    1    1    2    0  502 -0.28762399281E+03  0.13773836738E+03 -0.12624051350E+03  0.34298117490E+03  0.00000000000E+00 0. -1.
<mgrwt>
<rscale>  1 0.71479277E+03</rscale>
<asrwt>0</asrwt>
<pdfrwt beam="1">  1       21 0.42347014E-01 0.71479277E+03</pdfrwt>
<pdfrwt beam="2">0</pdfrwt>
<totfact> 0.49884021E+02</totfact>
</mgrwt>
</event>
<event>
 6    1  0.1439793E-004  0.6463116E+03  0.7818608E-02  0.9813725E-01
         21   -1    0    0  501  502  0.00000000000E+00  0.00000000000E+00  0.13316939309E+03  0.13316939309E+03  0.00000000000E+00 0. -1.
         13   -1    0    0    0    0 -0.00000000000E+00 -0.00000000000E+00 -0.10000000000E+04  0.10000000000E+04  0.00000000000E+00 0.  1.
    9000005    2    1    2  501    0  0.17591129216E+02 -0.37150076281E+02 -0.87832100677E+03  0.10904891250E+04  0.64500322855E+03 0.  0.
         13    1    3    3    0    0 -0.84806210603E+02 -0.21675096163E+03 -0.51722481813E+02  0.23842878989E+03  0.00000000000E+00 0.  1.
          3    1    3    3  501    0  0.10239733982E+03  0.17960088535E+03 -0.82659852495E+03  0.85206033512E+03  0.00000000000E+00 0.  1.
         -3    1    1    2    0  502 -0.17591129216E+02  0.37150076281E+02  0.11490399860E+02  0.42680268084E+02  0.00000000000E+00 0. -1.
<mgrwt>
<rscale>  1 0.64631164E+03</rscale>
<asrwt>0</asrwt>
<pdfrwt beam="1">  1       21 0.20487598E-01 0.64631164E+03</pdfrwt>
<pdfrwt beam="2">0</pdfrwt>
<totfact> 0.21431568E+03</totfact>
</mgrwt>
</event>
<event>
 6    1  0.1439793E-004  0.5417282E+03  0.7818608E-02  0.1003427E+00
         21   -1    0    0  501  502  0.00000000000E+00  0.00000000000E+00  0.10425394241E+03  0.10425394241E+03  0.00000000000E+00 0.  1.
         13   -1    0    0    0    0 -0.00000000000E+00 -0.00000000000E+00 -0.10000000000E+04  0.10000000000E+04  0.00000000000E+00 0.  1.
    9000005    2    1    2  501    0 -0.12852788200E+02 -0.20663044309E+02 -0.92142601958E+03  0.10688757569E+04  0.54118140998E+03 0.  0.
         13    1    3    3    0    0 -0.38055024930E+02 -0.24166876495E+03 -0.74748835288E+03  0.78650544471E+03  0.00000000000E+00 0.  1.
          1    1    3    3  501    0  0.25202236730E+02  0.22100572064E+03 -0.17393766670E+03  0.28237031216E+03  0.00000000000E+00 0.  1.
         -1    1    1    2    0  502  0.12852788200E+02  0.20663044309E+02  0.25679961984E+02  0.35378185540E+02  0.00000000000E+00 0. -1.
<mgrwt>
<rscale>  1 0.54172823E+03</rscale>
<asrwt>0</asrwt>
<pdfrwt beam="1">  1       21 0.16039068E-01 0.54172823E+03</pdfrwt>
<pdfrwt beam="2">0</pdfrwt>
<totfact> 0.34220918E+03</totfact>
</mgrwt>
</event>
<event>
 6    1  0.1439793E-004  0.6516968E+03  0.7818608E-02  0.9803600E-01
         21   -1    0    0  501  502  0.00000000000E+00  0.00000000000E+00  0.13089401591E+03  0.13089401591E+03  0.00000000000E+00 0.  1.
         13   -1    0    0    0    0 -0.00000000000E+00 -0.00000000000E+00 -0.10000000000E+04  0.10000000000E+04  0.00000000000E+00 0.  1.
    9000005    2    1    2  501    0  0.32288746839E+02 -0.33828296758E+02 -0.86628128640E+03  0.10840443014E+04  0.65001681775E+03 0.  0.
         13    1    3    3    0    0 -0.10613600788E+03  0.26611344045E+03 -0.58005026436E+03  0.64694630731E+03  0.00000000000E+00 0.  1.
          1    1    3    3  501    0  0.13842475472E+03 -0.29994173721E+03 -0.28623102204E+03  0.43709799407E+03  0.00000000000E+00 0.  1.
         -3    1    1    2    0  502 -0.32288746839E+02  0.33828296758E+02 -0.28246976864E+01  0.46849714524E+02  0.00000000000E+00 0. -1.
<mgrwt>
<rscale>  1 0.65169685E+03</rscale>
<asrwt>0</asrwt>
<pdfrwt beam="1">  1       21 0.20137540E-01 0.65169685E+03</pdfrwt>
<pdfrwt beam="2">0</pdfrwt>
<totfact> 0.22147931E+03</totfact>
</mgrwt>
</event>
<event>
 6    1  0.1439793E-004  0.6556398E+03  0.7818608E-02  0.9796254E-01
         21   -1    0    0  501  502  0.00000000000E+00  0.00000000000E+00  0.14824125891E+03  0.14824125891E+03  0.00000000000E+00 0.  1.
         13   -1    0    0    0    0 -0.00000000000E+00 -0.00000000000E+00 -0.10000000000E+04  0.10000000000E+04  0.00000000000E+00 0.  1.
    9000005    2    1    2  501    0  0.74571818559E+02 -0.49827530441E+02 -0.82668208511E+03  0.10551145840E+04  0.64947654040E+03 0.  0.
         13    1    3    3    0    0 -0.26450139903E+03  0.93070384644E+02 -0.43649059587E+03  0.51879391561E+03  0.00000000000E+00 0.  1.
          3    1    3    3  501    0  0.33907321759E+03 -0.14289791508E+03 -0.39019148923E+03  0.53632066835E+03  0.00000000000E+00 0.  1.
         -1    1    1    2    0  502 -0.74571818559E+02  0.49827530441E+02 -0.25076655982E+02  0.93126674956E+02  0.00000000000E+00 0. -1.
<mgrwt>
<rscale>  1 0.65563978E+03</rscale>
<asrwt>0</asrwt>
<pdfrwt beam="1">  1       21 0.22806347E-01 0.65563978E+03</pdfrwt>
<pdfrwt beam="2">0</pdfrwt>
<totfact> 0.17414670E+03</totfact>
</mgrwt>
</event>
<event>
 6    1  0.1439793E-004  0.6492258E+03  0.7818608E-02  0.9808233E-01
         21   -1    0    0  501  502  0.00000000000E+00  0.00000000000E+00  0.14794133118E+03  0.14794133118E+03  0.00000000000E+00 0.  1.
         13   -1    0    0    0    0 -0.00000000000E+00 -0.00000000000E+00 -0.10000000000E+04  0.10000000000E+04  0.00000000000E+00 0.  1.
    9000005    2    1    2  501    0  0.25770592765E+02  0.24575003730E+02 -0.88622946076E+03  0.10985885472E+04  0.64824847455E+03 0.  0.
         13    1    3    3    0    0 -0.21099751861E+03 -0.22253034041E+03 -0.43656157326E+03  0.53350324508E+03  0.00000000000E+00 0.  1.
          1    1    3    3  501    0  0.23676811138E+03  0.24710534414E+03 -0.44966788750E+03  0.56508530216E+03  0.00000000000E+00 0.  1.
         -1    1    1    2    0  502 -0.25770592765E+02 -0.24575003730E+02  0.34170791943E+02  0.49352783931E+02  0.00000000000E+00 0. -1.
<mgrwt>
<rscale>  1 0.64922580E+03</rscale>
<asrwt>0</asrwt>
<pdfrwt beam="1">  1       21 0.22760204E-01 0.64922580E+03</pdfrwt>
<pdfrwt beam="2">0</pdfrwt>
<totfact> 0.17488516E+03</totfact>
</mgrwt>
</event>
<event>
 6    1  0.1439793E-004  0.6472160E+03  0.7818608E-02  0.9812017E-01
         21   -1    0    0  501  502  0.00000000000E+00  0.00000000000E+00  0.47420059011E+03  0.47420059011E+03  0.00000000000E+00 0. -1.
         13   -1    0    0    0    0 -0.00000000000E+00 -0.00000000000E+00 -0.10000000000E+04  0.10000000000E+04  0.00000000000E+00 0.  1.
    9000005    2    1    2  501    0 -0.38456773649E+02 -0.80733608654E+01 -0.89412321004E+03  0.11037865996E+04  0.64602201212E+03 0.  0.
         13    1    3    3    0    0 -0.10735776869E+03  0.89928031379E+02 -0.95789066922E+03  0.96807400311E+03  0.00000000000E+00 0.  1.
          3    1    3    3  501    0  0.68900995039E+02 -0.98001392245E+02  0.63767459175E+02  0.13571259650E+03  0.00000000000E+00 0.  1.
         -3    1    1    2    0  502  0.38456773649E+02  0.80733608654E+01  0.36832380015E+03  0.37041399050E+03  0.00000000000E+00 0. -1.
<mgrwt>
<rscale>  1 0.64721599E+03</rscale>
<asrwt>0</asrwt>
<pdfrwt beam="1">  1       21 0.72953935E-01 0.64721599E+03</pdfrwt>
<pdfrwt beam="2">0</pdfrwt>
<totfact> 0.15292498E+02</totfact>
</mgrwt>
</event>
<event>
 6    1  0.1439793E-004  0.6430529E+03  0.7818608E-02  0.9819903E-01
         21   -1    0    0  501  502  0.00000000000E+00  0.00000000000E+00  0.18007020432E+03  0.18007020432E+03  0.00000000000E+00 0.  1.
         13   -1    0    0    0    0 -0.00000000000E+00 -0.00000000000E+00 -0.10000000000E+04  0.10000000000E+04  0.00000000000E+00 0.  1.
    9000005    2    1    2  501    0 -0.49126404521E+01 -0.39056020542E+02 -0.89100607015E+03  0.10988215516E+04  0.64184692757E+03 0.  0.
         13    1    3    3    0    0  0.19571546555E+03  0.15164354145E+03 -0.11132798852E+03  0.27146680855E+03  0.00000000000E+00 0.  1.
          1    1    3    3  501    0 -0.20062810600E+03 -0.19069956199E+03 -0.77967808163E+03  0.82735474304E+03  0.00000000000E+00 0.  1.
         -3    1    1    2    0  502  0.49126404521E+01  0.39056020542E+02  0.71076274465E+02  0.81248652719E+02  0.00000000000E+00 0. -1.
<mgrwt>
<rscale>  1 0.64305286E+03</rscale>
<asrwt>0</asrwt>
<pdfrwt beam="1">  1       21 0.27703108E-01 0.64305286E+03</pdfrwt>
<pdfrwt beam="2">0</pdfrwt>
<totfact> 0.11898508E+03</totfact>
</mgrwt>
</event>
<event>
 6    1  0.1439793E-004  0.6513332E+03  0.7818608E-02  0.9804281E-01
         21   -1    0    0  501  502  0.00000000000E+00  0.00000000000E+00  0.12759871064E+03  0.12759871064E+03  0.00000000000E+00 0.  1.
         13   -1    0    0    0    0 -0.00000000000E+00 -0.00000000000E+00 -0.10000000000E+04  0.10000000000E+04  0.00000000000E+00 0.  1.
    9000005    2    1    2  501    0 -0.23533647392E+02  0.19556975468E+01 -0.88653198252E+03  0.11000790122E+04  0.65090492376E+03 0.  0.
         13    1    3    3    0    0  0.53192722767E+02  0.21434459704E+03 -0.40629739076E+02  0.22455255004E+03  0.00000000000E+00 0.  1.
          3    1    3    3  501    0 -0.76726370159E+02 -0.21238889949E+03 -0.84590224344E+03  0.87552646217E+03  0.00000000000E+00 0.  1.
         -1    1    1    2    0  502  0.23533647392E+02 -0.19556975468E+01  0.14130693157E+02  0.27519698428E+02  0.00000000000E+00 0. -1.
<mgrwt>
<rscale>  1 0.65133315E+03</rscale>
<asrwt>0</asrwt>
<pdfrwt beam="1">  1       21 0.19630570E-01 0.65133315E+03</pdfrwt>
<pdfrwt beam="2">0</pdfrwt>
<totfact> 0.23257505E+03</totfact>
</mgrwt>
</event>
<event>
 6    1  0.1439793E-004  0.7379019E+03  0.7818608E-02  0.9654524E-01
         21   -1    0    0  501  502  0.00000000000E+00  0.00000000000E+00  0.60275553028E+03  0.60275553028E+03  0.00000000000E+00 0. -1.
         13   -1    0    0    0    0 -0.00000000000E+00 -0.00000000000E+00 -0.10000000000E+04  0.10000000000E+04  0.00000000000E+00 0.  1.
    9000005    2    1    2  501    0  0.10654701988E+03 -0.33460618093E+03 -0.78653221058E+03  0.10784860300E+04  0.64898816231E+03 0.  0.
         13    1    3    3    0    0  0.13268558516E+03 -0.95006268865E+02 -0.81916792644E+03  0.83526507609E+03  0.00000000000E+00 0.  1.
          3    1    3    3  501    0 -0.26138565276E+02 -0.23959991207E+03  0.32635715863E+02  0.24322095388E+03  0.00000000000E+00 0.  1.
         -3    1    1    2    0  502 -0.10654701988E+03  0.33460618093E+03  0.38928774085E+03  0.52426950030E+03  0.00000000000E+00 0. -1.
<mgrwt>
<rscale>  1 0.73790189E+03</rscale>
<asrwt>0</asrwt>
<pdfrwt beam="1">  1       21 0.92731617E-01 0.73790189E+03</pdfrwt>
<pdfrwt beam="2">0</pdfrwt>
<totfact> 0.86081644E+01</totfact>
</mgrwt>
</event>
<event>
 6    1  0.1439793E-004  0.5914563E+03  0.7818608E-02  0.9923292E-01
         21   -1    0    0  501  502  0.00000000000E+00  0.00000000000E+00  0.22731222967E+03  0.22731222967E+03  0.00000000000E+00 0. -1.
         13   -1    0    0    0    0 -0.00000000000E+00 -0.00000000000E+00 -0.10000000000E+04  0.10000000000E+04  0.00000000000E+00 0.  1.
    9000005    2    1    2  501    0 -0.29134671170E+02 -0.93189738924E+01 -0.91072387978E+03  0.10859275068E+04  0.59066478865E+03 0.  0.
         13    1    3    3    0    0 -0.29803395767E+03 -0.71249187252E+01 -0.32267599931E+03  0.43931174003E+03  0.00000000000E+00 0.  1.
          3    1    3    3  501    0  0.26889928650E+03 -0.21940551672E+01 -0.58804788047E+03  0.64661576681E+03  0.00000000000E+00 0.  1.
         -3    1    1    2    0  502  0.29134671170E+02  0.93189738924E+01  0.13803610945E+03  0.14138472283E+03  0.00000000000E+00 0. -1.
<mgrwt>
<rscale>  1 0.59145631E+03</rscale>
<asrwt>0</asrwt>
<pdfrwt beam="1">  1       21 0.34971111E-01 0.59145631E+03</pdfrwt>
<pdfrwt beam="2">0</pdfrwt>
<totfact> 0.74780599E+02</totfact>
</mgrwt>
</event>
<event>
 6    1  0.1439793E-004  0.6507880E+03  0.7818608E-02  0.9805302E-01
         21   -1    0    0  501  502  0.00000000000E+00  0.00000000000E+00  0.32918451904E+03  0.32918451904E+03  0.00000000000E+00 0. -1.
         13   -1    0    0    0    0 -0.00000000000E+00 -0.00000000000E+00 -0.10000000000E+04  0.10000000000E+04  0.00000000000E+00 0.  1.
    9000005    2    1    2  501    0  0.72179187544E+01  0.25720784000E+02 -0.89323476502E+03  0.11051666738E+04  0.65023947457E+03 0.  0.
         13    1    3    3    0    0  0.47689927708E+02 -0.26103949552E+03 -0.72085112466E+03  0.76814210361E+03  0.00000000000E+00 0.  1.
          1    1    3    3  501    0 -0.40472008954E+02  0.28676027952E+03 -0.17238364036E+03  0.33702457015E+03  0.00000000000E+00 0.  1.
         -3    1    1    2    0  502 -0.72179187544E+01 -0.25720784000E+02  0.22241928406E+03  0.22401784527E+03  0.00000000000E+00 0. -1.
<mgrwt>
<rscale>  1 0.65078801E+03</rscale>
<asrwt>0</asrwt>
<pdfrwt beam="1">  1       21 0.50643771E-01 0.65078801E+03</pdfrwt>
<pdfrwt beam="2">0</pdfrwt>
<totfact> 0.34313714E+02</totfact>
</mgrwt>
</event>
<event>
 6    1  0.1439793E-004  0.6557322E+03  0.7818608E-02  0.9796082E-01
         21   -1    0    0  501  502  0.00000000000E+00  0.00000000000E+00  0.11887900431E+03  0.11887900431E+03  0.00000000000E+00 0.  1.
         13   -1    0    0    0    0 -0.00000000000E+00 -0.00000000000E+00 -0.10000000000E+04  0.10000000000E+04  0.00000000000E+00 0.  1.
    9000005    2    1    2  501    0  0.20406748318E+02 -0.26718705821E+02 -0.84404251726E+03  0.10688276489E+04  0.65486979428E+03 0.  0.
         13    1    3    3    0    0  0.20594007287E+02 -0.33537140682E+03 -0.53705185622E+03  0.63350042613E+03  0.00000000000E+00 0.  1.
          1    1    3    3  501    0 -0.18725896953E+00  0.30865270100E+03 -0.30699066104E+03  0.43532722275E+03  0.00000000000E+00 0.  1.
         -1    1    1    2    0  502 -0.20406748318E+02  0.26718705821E+02 -0.37078478431E+02  0.50051355431E+02  0.00000000000E+00 0. -1.
<mgrwt>
<rscale>  1 0.65573224E+03</rscale>
<asrwt>0</asrwt>
<pdfrwt beam="1">  1       21 0.18289077E-01 0.65573224E+03</pdfrwt>
<pdfrwt beam="2">0</pdfrwt>
<totfact> 0.26615664E+03</totfact>
</mgrwt>
</event>
<event>
 6    1  0.1439793E-004  0.6499122E+03  0.7818608E-02  0.9806944E-01
         21   -1    0    0  501  502  0.00000000000E+00  0.00000000000E+00  0.17849642461E+03  0.17849642461E+03  0.00000000000E+00 0. -1.
         13   -1    0    0    0    0 -0.00000000000E+00 -0.00000000000E+00 -0.10000000000E+04  0.10000000000E+04  0.00000000000E+00 0.  1.
    9000005    2    1    2  501    0  0.14983379802E+02 -0.73484968630E+02 -0.87239035370E+03  0.10878652683E+04  0.64557057746E+03 0.  0.
         13    1    3    3    0    0 -0.62401934866E+02  0.25379413899E+03 -0.17766959953E+03  0.31602524117E+03  0.00000000000E+00 0.  1.
          3    1    3    3  501    0  0.77385314668E+02 -0.32727910762E+03 -0.69472075418E+03  0.77184002714E+03  0.00000000000E+00 0.  1.
         -1    1    1    2    0  502 -0.14983379802E+02  0.73484968630E+02  0.50886778319E+02  0.90631156301E+02  0.00000000000E+00 0. -1.
<mgrwt>
<rscale>  1 0.64991223E+03</rscale>
<asrwt>0</asrwt>
<pdfrwt beam="1">  1       21 0.27460988E-01 0.64991223E+03</pdfrwt>
<pdfrwt beam="2">0</pdfrwt>
<totfact> 0.12102578E+03</totfact>
</mgrwt>
</event>
<event>
 6    1  0.1439793E-004  0.6416081E+03  0.7818608E-02  0.9822655E-01
         21   -1    0    0  501  502  0.00000000000E+00  0.00000000000E+00  0.13361980241E+03  0.13361980241E+03  0.00000000000E+00 0.  1.
         13   -1    0    0    0    0 -0.00000000000E+00 -0.00000000000E+00 -0.10000000000E+04  0.10000000000E+04  0.00000000000E+00 0.  1.
    9000005    2    1    2  501    0 -0.23804079713E+02  0.30467832784E+01 -0.89182627880E+03  0.10986423790E+04  0.64115914426E+03 0.  0.
         13    1    3    3    0    0  0.15125057162E+03 -0.10035489868E+03  0.24640421748E+01  0.18153212555E+03  0.00000000000E+00 0.  1.
          3    1    3    3  501    0 -0.17505465133E+03  0.10340168196E+03 -0.89429032098E+03  0.91711025345E+03  0.00000000000E+00 0.  1.
         -3    1    1    2    0  502  0.23804079713E+02 -0.30467832784E+01  0.25446081215E+02  0.34977423412E+02  0.00000000000E+00 0. -1.
<mgrwt>
<rscale>  1 0.64160811E+03</rscale>
<asrwt>0</asrwt>
<pdfrwt beam="1">  1       21 0.20556892E-01 0.64160811E+03</pdfrwt>
<pdfrwt beam="2">0</pdfrwt>
<totfact> 0.21297050E+03</totfact>
</mgrwt>
</event>
<event>
 6    1  0.1439793E-004  0.6624653E+03  0.7818608E-02  0.9783666E-01
         21   -1    0    0  501  502  0.00000000000E+00  0.00000000000E+00  0.18128206069E+03  0.18128206069E+03  0.00000000000E+00 0.  1.
         13   -1    0    0    0    0 -0.00000000000E+00 -0.00000000000E+00 -0.10000000000E+04  0.10000000000E+04  0.00000000000E+00 0.  1.
    9000005    2    1    2  501    0 -0.11929321618E+02 -0.47621233220E+02 -0.88080927326E+03  0.11021276273E+04  0.66064380758E+03 0.  0.
         13    1    3    3    0    0 -0.18311521914E+03  0.38792122939E+02  0.13333475744E+02  0.18765338754E+03  0.00000000000E+00 0.  1.
          1    1    3    3  501    0  0.17118589752E+03 -0.86413356159E+02 -0.89414274901E+03  0.91447423979E+03  0.00000000000E+00 0.  1.
         -1    1    1    2    0  502  0.11929321618E+02  0.47621233220E+02  0.62091333951E+02  0.79154433353E+02  0.00000000000E+00 0. -1.
<mgrwt>
<rscale>  1 0.66246534E+03</rscale>
<asrwt>0</asrwt>
<pdfrwt beam="1">  1       21 0.27889547E-01 0.66246534E+03</pdfrwt>
<pdfrwt beam="2">0</pdfrwt>
<totfact> 0.11727917E+03</totfact>
</mgrwt>
</event>
<event>
 6    1  0.1439793E-004  0.6550067E+03  0.7818608E-02  0.9797430E-01
         21   -1    0    0  501  502  0.00000000000E+00  0.00000000000E+00  0.33013387652E+03  0.33013387652E+03  0.00000000000E+00 0. -1.
         13   -1    0    0    0    0 -0.00000000000E+00 -0.00000000000E+00 -0.10000000000E+04  0.10000000000E+04  0.00000000000E+00 0.  1.
    9000005    2    1    2  501    0 -0.17942945096E+02  0.70911450446E+02 -0.88607296182E+03  0.11018888765E+04  0.65090968607E+03 0.  0.
         13    1    3    3    0    0 -0.15112026146E+03 -0.23917030424E+02 -0.92190862987E+03  0.93451852823E+03  0.00000000000E+00 0.  1.
          1    1    3    3  501    0  0.13317731637E+03  0.94828480870E+02  0.35835668051E+02  0.16737034828E+03  0.00000000000E+00 0.  1.
         -3    1    1    2    0  502  0.17942945096E+02 -0.70911450446E+02  0.21620683834E+03  0.22824500001E+03  0.00000000000E+00 0. -1.
<mgrwt>
<rscale>  1 0.65500672E+03</rscale>
<asrwt>0</asrwt>
<pdfrwt beam="1">  1       21 0.50789826E-01 0.65500672E+03</pdfrwt>
<pdfrwt beam="2">0</pdfrwt>
<totfact> 0.34088212E+02</totfact>
</mgrwt>
</event>
<event>
 6    1  0.1439793E-004  0.6481072E+03  0.7818608E-02  0.9810337E-01
         21   -1    0    0  501  502  0.00000000000E+00  0.00000000000E+00  0.27461868826E+03  0.27461868826E+03  0.00000000000E+00 0. -1.
         13   -1    0    0    0    0 -0.00000000000E+00 -0.00000000000E+00 -0.10000000000E+04  0.10000000000E+04  0.00000000000E+00 0.  1.
    9000005    2    1    2  501    0 -0.20648272908E+02  0.19098635540E+02 -0.89369964609E+03  0.11039664960E+04  0.64749660830E+03 0.  0.
         13    1    3    3    0    0  0.61653666736E+02  0.32527196198E+03 -0.45774713101E+03  0.56492075534E+03  0.00000000000E+00 0.  1.
          1    1    3    3  501    0 -0.82301939644E+02 -0.30617332644E+03 -0.43595251508E+03  0.53904574063E+03  0.00000000000E+00 0.  1.
         -1    1    1    2    0  502  0.20648272908E+02 -0.19098635540E+02  0.16831833435E+03  0.17065219228E+03  0.00000000000E+00 0. -1.
<mgrwt>
<rscale>  1 0.64810722E+03</rscale>
<asrwt>0</asrwt>
<pdfrwt beam="1">  1       21 0.42249028E-01 0.64810722E+03</pdfrwt>
<pdfrwt beam="2">0</pdfrwt>
<totfact> 0.50397588E+02</totfact>
</mgrwt>
</event>
<event>
 6    1  0.1439793E-004  0.6440550E+03  0.7818608E-02  0.9817999E-01
         21   -1    0    0  501  502  0.00000000000E+00  0.00000000000E+00  0.69325060706E+03  0.69325060706E+03  0.00000000000E+00 0. -1.
         13   -1    0    0    0    0 -0.00000000000E+00 -0.00000000000E+00 -0.10000000000E+04  0.10000000000E+04  0.00000000000E+00 0.  1.
    9000005    2    1    2  501    0 -0.50573386868E+02  0.67058074545E+02 -0.89299393338E+03  0.11010199814E+04  0.63855491657E+03 0.  0.
         13    1    3    3    0    0 -0.82306875303E+02  0.34978466475E+03 -0.48422780330E+03  0.60299278512E+03  0.00000000000E+00 0.  1.
          1    1    3    3  501    0  0.31733488435E+02 -0.28272659020E+03 -0.40876613008E+03  0.49802719624E+03  0.00000000000E+00 0.  1.
         -1    1    1    2    0  502  0.50573386868E+02 -0.67058074545E+02  0.58624454044E+03  0.59223062570E+03  0.00000000000E+00 0. -1.
<mgrwt>
<rscale>  1 0.64405499E+03</rscale>
<asrwt>0</asrwt>
<pdfrwt beam="1">  1       21 0.10665394E+00 0.64405499E+03</pdfrwt>
<pdfrwt beam="2">0</pdfrwt>
<totfact> 0.61886938E+01</totfact>
</mgrwt>
</event>
<event>
 6    1  0.1439793E-004  0.6411870E+03  0.7818608E-02  0.9823458E-01
         21   -1    0    0  501  502  0.00000000000E+00  0.00000000000E+00  0.51721656383E+03  0.51721656383E+03  0.00000000000E+00 0. -1.
         13   -1    0    0    0    0 -0.00000000000E+00 -0.00000000000E+00 -0.10000000000E+04  0.10000000000E+04  0.00000000000E+00 0.  1.
    9000005    2    1    2  501    0  0.19551703473E+02  0.12192944244E+02 -0.89686657541E+03  0.11024928206E+04  0.64077283680E+03 0.  0.
         13    1    3    3    0    0  0.63498516104E+02  0.26093994488E+03 -0.77853168176E+03  0.82354920672E+03  0.00000000000E+00 0.  1.
          3    1    3    3  501    0 -0.43946812630E+02 -0.24874700064E+03 -0.11833489365E+03  0.27894361388E+03  0.00000000000E+00 0.  1.
         -1    1    1    2    0  502 -0.19551703473E+02 -0.12192944244E+02  0.41408313924E+03  0.41472374323E+03  0.00000000000E+00 0. -1.
<mgrwt>
<rscale>  1 0.64118700E+03</rscale>
<asrwt>0</asrwt>
<pdfrwt beam="1">  1       21 0.79571777E-01 0.64118700E+03</pdfrwt>
<pdfrwt beam="2">0</pdfrwt>
<totfact> 0.12525803E+02</totfact>
</mgrwt>
</event>
<event>
 6    1  0.1439793E-004  0.6564127E+03  0.7818608E-02  0.9794820E-01
         21   -1    0    0  501  502  0.00000000000E+00  0.00000000000E+00  0.11746731569E+03  0.11746731569E+03  0.00000000000E+00 0.  1.
         13   -1    0    0    0    0 -0.00000000000E+00 -0.00000000000E+00 -0.10000000000E+04  0.10000000000E+04  0.00000000000E+00 0.  1.
    9000005    2    1    2  501    0  0.22149598077E+02  0.14859148110E+02 -0.86364050578E+03  0.10847822520E+04  0.65587057572E+03 0.  0.
         13    1    3    3    0    0 -0.33449161813E+02 -0.23498596438E+03 -0.78029709832E+03  0.81559843767E+03  0.00000000000E+00 0.  1.
          3    1    3    3  501    0  0.55598759889E+02  0.24984511249E+03 -0.83343407455E+02  0.26918381434E+03  0.00000000000E+00 0.  1.
         -1    1    1    2    0  502 -0.22149598077E+02 -0.14859148110E+02 -0.18892178535E+02  0.32685063673E+02  0.00000000000E+00 0. -1.
<mgrwt>
<rscale>  1 0.65641268E+03</rscale>
<asrwt>0</asrwt>
<pdfrwt beam="1">  1       21 0.18071894E-01 0.65641268E+03</pdfrwt>
<pdfrwt beam="2">0</pdfrwt>
<totfact> 0.27225917E+03</totfact>
</mgrwt>
</event>
<event>
 6    1  0.1439793E-004  0.6476627E+03  0.7818608E-02  0.9811175E-01
         21   -1    0    0  501  502  0.00000000000E+00  0.00000000000E+00  0.33400958054E+03  0.33400958054E+03  0.00000000000E+00 0. -1.
         13   -1    0    0    0    0 -0.00000000000E+00 -0.00000000000E+00 -0.10000000000E+04  0.10000000000E+04  0.00000000000E+00 0.  1.
    9000005    2    1    2  501    0 -0.26257196981E+02 -0.48812937472E+02 -0.89142308888E+03  0.11018630068E+04  0.64528661780E+03 0.  0.
         13    1    3    3    0    0 -0.23307239187E+03  0.15143999012E+03 -0.17171410551E+03  0.32671477544E+03  0.00000000000E+00 0.  1.
          3    1    3    3  501    0  0.20681519489E+03 -0.20025292759E+03 -0.71970898337E+03  0.77514823136E+03  0.00000000000E+00 0.  1.
         -3    1    1    2    0  502  0.26257196981E+02  0.48812937472E+02  0.22543266941E+03  0.23214657373E+03  0.00000000000E+00 0. -1.
<mgrwt>
<rscale>  1 0.64766269E+03</rscale>
<asrwt>0</asrwt>
<pdfrwt beam="1">  1       21 0.51386088E-01 0.64766269E+03</pdfrwt>
<pdfrwt beam="2">0</pdfrwt>
<totfact> 0.33266736E+02</totfact>
</mgrwt>
</event>
<event>
 6    1  0.1439793E-004  0.6927302E+03  0.7818608E-02  0.9729746E-01
         21   -1    0    0  501  502  0.00000000000E+00  0.00000000000E+00  0.23004779217E+03  0.23004779217E+03  0.00000000000E+00 0. -1.
         13   -1    0    0    0    0 -0.00000000000E+00 -0.00000000000E+00 -0.10000000000E+04  0.10000000000E+04  0.00000000000E+00 0.  1.
    9000005    2    1    2  501    0  0.25776259361E+02  0.23295133154E+03 -0.70148579900E+03  0.98587902358E+03  0.65187758400E+03 0.  0.
         13    1    3    3    0    0  0.23294380363E+03  0.25061256020E+03 -0.11076698200E+03  0.35963703270E+03  0.00000000000E+00 0.  1.
          1    1    3    3  501    0 -0.20716754427E+03 -0.17661228660E+02 -0.59071881699E+03  0.62624199089E+03  0.00000000000E+00 0.  1.
         -3    1    1    2    0  502 -0.25776259361E+02 -0.23295133154E+03 -0.68466408834E+02  0.24416876859E+03  0.00000000000E+00 0. -1.
<mgrwt>
<rscale>  1 0.69273019E+03</rscale>
<asrwt>0</asrwt>
<pdfrwt beam="1">  1       21 0.35391967E-01 0.69273019E+03</pdfrwt>
<pdfrwt beam="2">0</pdfrwt>
<totfact> 0.72434727E+02</totfact>
</mgrwt>
</event>
<event>
 6    1  0.1439793E-004  0.5232316E+03  0.7818608E-02  0.1007887E+00
         21   -1    0    0  501  502  0.00000000000E+00  0.00000000000E+00  0.75451176934E+02  0.75451176934E+02  0.00000000000E+00 0.  1.
         13   -1    0    0    0    0 -0.00000000000E+00 -0.00000000000E+00 -0.10000000000E+04  0.10000000000E+04  0.00000000000E+00 0.  1.
    9000005    2    1    2  501    0 -0.96432204533E+01 -0.21986134344E+02 -0.90046302497E+03  0.10414437149E+04  0.52268056226E+03 0.  0.
         13    1    3    3    0    0  0.20522538776E+03  0.95147852083E+02 -0.66268238479E+03  0.70022747494E+03  0.00000000000E+00 0.  1.
          3    1    3    3  501    0 -0.21486860822E+03 -0.11713398643E+03 -0.23778064017E+03  0.34121623996E+03  0.00000000000E+00 0.  1.
         -3    1    1    2    0  502  0.96432204533E+01  0.21986134344E+02 -0.24085798101E+02  0.34007462038E+02  0.00000000000E+00 0. -1.
<mgrwt>
<rscale>  1 0.52323164E+03</rscale>
<asrwt>0</asrwt>
<pdfrwt beam="1">  1       21 0.11607873E-01 0.52323164E+03</pdfrwt>
<pdfrwt beam="2">0</pdfrwt>
<totfact> 0.62210669E+03</totfact>
</mgrwt>
</event>
<event>
 6    1  0.1439793E-004  0.7214222E+03  0.7818608E-02  0.9681283E-01
         21   -1    0    0  501  502  0.00000000000E+00  0.00000000000E+00  0.19274657320E+03  0.19274657320E+03  0.00000000000E+00 0.  1.
         13   -1    0    0    0    0 -0.00000000000E+00 -0.00000000000E+00 -0.10000000000E+04  0.10000000000E+04  0.00000000000E+00 0.  1.
    9000005    2    1    2  501    0  0.34881953165E+02  0.17576103184E+01 -0.86432481459E+03  0.11258363112E+04  0.72057627962E+03 0.  0.
         13    1    3    3    0    0  0.13015857999E+02 -0.33509049693E+03 -0.22796818776E+03  0.40549296951E+03  0.00000000000E+00 0.  1.
          1    1    3    3  501    0  0.21866095166E+02  0.33684810724E+03 -0.63635662683E+03  0.72034334174E+03  0.00000000000E+00 0.  1.
         -3    1    1    2    0  502 -0.34881953165E+02 -0.17576103184E+01  0.57071387789E+02  0.66910261954E+02  0.00000000000E+00 0. -1.
<mgrwt>
<rscale>  1 0.72142222E+03</rscale>
<asrwt>0</asrwt>
<pdfrwt beam="1">  1       21 0.29653318E-01 0.72142222E+03</pdfrwt>
<pdfrwt beam="2">0</pdfrwt>
<totfact> 0.10342877E+03</totfact>
</mgrwt>
</event>
<event>
 6    1  0.1439793E-004  0.6130644E+03  0.7818608E-02  0.9878666E-01
         21   -1    0    0  501  502  0.00000000000E+00  0.00000000000E+00  0.26621121294E+03  0.26621121294E+03  0.00000000000E+00 0. -1.
         13   -1    0    0    0    0 -0.00000000000E+00 -0.00000000000E+00 -0.10000000000E+04  0.10000000000E+04  0.00000000000E+00 0.  1.
    9000005    2    1    2  501    0  0.24461813278E+02 -0.33860263203E+02 -0.90326308553E+03  0.10916648421E+04  0.61163962270E+03 0.  0.
         13    1    3    3    0    0 -0.12759355028E+03 -0.26594221063E+03 -0.26833073914E+03  0.39875651598E+03  0.00000000000E+00 0.  1.
          1    1    3    3  501    0  0.15205536355E+03  0.23208194743E+03 -0.63493234639E+03  0.69290832612E+03  0.00000000000E+00 0.  1.
         -3    1    1    2    0  502 -0.24461813278E+02  0.33860263203E+02  0.16947429847E+03  0.17454637085E+03  0.00000000000E+00 0. -1.
<mgrwt>
<rscale>  1 0.61306437E+03</rscale>
<asrwt>0</asrwt>
<pdfrwt beam="1">  1       21 0.40955570E-01 0.61306437E+03</pdfrwt>
<pdfrwt beam="2">0</pdfrwt>
<totfact> 0.53937738E+02</totfact>
</mgrwt>
</event>
<event>
 6    1  0.1439793E-004  0.6405147E+03  0.7818608E-02  0.9824742E-01
         21   -1    0    0  501  502  0.00000000000E+00  0.00000000000E+00  0.17592971206E+03  0.17592971206E+03  0.00000000000E+00 0. -1.
         13   -1    0    0    0    0 -0.00000000000E+00 -0.00000000000E+00 -0.10000000000E+04  0.10000000000E+04  0.00000000000E+00 0.  1.
    9000005    2    1    2  501    0  0.37386098841E+02 -0.59211164325E+02 -0.87852082716E+03  0.10872249005E+04  0.63667531616E+03 0.  0.
         13    1    3    3    0    0  0.25353927518E+03 -0.24256076332E+03 -0.41008071114E+03  0.53970740000E+03  0.00000000000E+00 0.  1.
          3    1    3    3  501    0 -0.21615317634E+03  0.18334959899E+03 -0.46844011602E+03  0.54751750053E+03  0.00000000000E+00 0.  1.
         -1    1    1    2    0  502 -0.37386098841E+02  0.59211164325E+02  0.54450539224E+02  0.88704811532E+02  0.00000000000E+00 0. -1.
<mgrwt>
<rscale>  1 0.64051475E+03</rscale>
<asrwt>0</asrwt>
<pdfrwt beam="1">  1       21 0.27066109E-01 0.64051475E+03</pdfrwt>
<pdfrwt beam="2">0</pdfrwt>
<totfact> 0.12461334E+03</totfact>
</mgrwt>
</event>
<event>
 6    1  0.1439793E-004  0.6256732E+03  0.7818608E-02  0.9853529E-01
         21   -1    0    0  501  502  0.00000000000E+00  0.00000000000E+00  0.12899470470E+03  0.12899470470E+03  0.00000000000E+00 0.  1.
         13   -1    0    0    0    0 -0.00000000000E+00 -0.00000000000E+00 -0.10000000000E+04  0.10000000000E+04  0.00000000000E+00 0.  1.
    9000005    2    1    2  501    0  0.87449441392E+02 -0.23743243518E+02 -0.78726509175E+03  0.10056108804E+04  0.61907654748E+03 0.  0.
         13    1    3    3    0    0  0.23770230072E+03  0.10414564579E+03 -0.76407224240E+03  0.80694181383E+03  0.00000000000E+00 0.  1.
          3    1    3    3  501    0 -0.15025285933E+03 -0.12788888931E+03 -0.23192849355E+02  0.19866906655E+03  0.00000000000E+00 0.  1.
         -1    1    1    2    0  502 -0.87449441392E+02  0.23743243518E+02 -0.83740203548E+02  0.12338382432E+03  0.00000000000E+00 0. -1.
<mgrwt>
<rscale>  1 0.62567317E+03</rscale>
<asrwt>0</asrwt>
<pdfrwt beam="1">  1       21 0.19845339E-01 0.62567317E+03</pdfrwt>
<pdfrwt beam="2">0</pdfrwt>
<totfact> 0.22800889E+03</totfact>
</mgrwt>
</event>
<event>
 6    1  0.1439793E-004  0.6503436E+03  0.7818608E-02  0.9806135E-01
         21   -1    0    0  501  502  0.00000000000E+00  0.00000000000E+00  0.19304296649E+03  0.19304296649E+03  0.00000000000E+00 0. -1.
         13   -1    0    0    0    0 -0.00000000000E+00 -0.00000000000E+00 -0.10000000000E+04  0.10000000000E+04  0.00000000000E+00 0.  1.
    9000005    2    1    2  501    0  0.11496472608E+02 -0.79443456913E+02 -0.87333616319E+03  0.10888814545E+04  0.64537069675E+03 0.  0.
         13    1    3    3    0    0  0.57471188618E+02 -0.16608041647E+03  0.31671915089E+02  0.17857422115E+03  0.00000000000E+00 0.  1.
          3    1    3    3  501    0 -0.45974716010E+02  0.86636959554E+02 -0.90500807828E+03  0.91030723332E+03  0.00000000000E+00 0.  1.
         -1    1    1    2    0  502 -0.11496472608E+02  0.79443456913E+02  0.66379129685E+02  0.10416151202E+03  0.00000000000E+00 0. -1.
<mgrwt>
<rscale>  1 0.65034358E+03</rscale>
<asrwt>0</asrwt>
<pdfrwt beam="1">  1       21 0.29698917E-01 0.65034358E+03</pdfrwt>
<pdfrwt beam="2">0</pdfrwt>
<totfact> 0.10354602E+03</totfact>
</mgrwt>
</event>
<event>
 6    1  0.1439793E-004  0.7291130E+03  0.7818608E-02  0.9668701E-01
         21   -1    0    0  501  502  0.00000000000E+00  0.00000000000E+00  0.35852356556E+03  0.35852356556E+03  0.00000000000E+00 0. -1.
         13   -1    0    0    0    0 -0.00000000000E+00 -0.00000000000E+00 -0.10000000000E+04  0.10000000000E+04  0.00000000000E+00 0.  1.
    9000005    2    1    2  501    0  0.67858658984E+02 -0.29919830055E+03 -0.73748168067E+03  0.10370559498E+04  0.66142376215E+03 0.  0.
         13    1    3    3    0    0  0.10970444751E+03  0.65136303904E+02 -0.64682388914E+03  0.65928669595E+03  0.00000000000E+00 0.  1.
          1    1    3    3  501    0 -0.41845788527E+02 -0.36433460446E+03 -0.90657791521E+02  0.37776925389E+03  0.00000000000E+00 0.  1.
         -1    1    1    2    0  502 -0.67858658984E+02  0.29919830055E+03  0.96005246230E+02  0.32146761572E+03  0.00000000000E+00 0. -1.
<mgrwt>
<rscale>  1 0.72911303E+03</rscale>
<asrwt>0</asrwt>
<pdfrwt beam="1">  1       21 0.55157470E-01 0.72911303E+03</pdfrwt>
<pdfrwt beam="2">0</pdfrwt>
<totfact> 0.28314397E+02</totfact>
</mgrwt>
</event>
<event>
 6    1  0.1439793E-004  0.6860511E+03  0.7818608E-02  0.9741388E-01
         21   -1    0    0  501  502  0.00000000000E+00  0.00000000000E+00  0.28461849019E+03  0.28461849019E+03  0.00000000000E+00 0. -1.
         13   -1    0    0    0    0 -0.00000000000E+00 -0.00000000000E+00 -0.10000000000E+04  0.10000000000E+04  0.00000000000E+00 0.  1.
    9000005    2    1    2  501    0  0.17428905084E+03  0.11476195044E+03 -0.80485080320E+03  0.10575684231E+04  0.65354355293E+03 0.  0.
         13    1    3    3    0    0  0.14729132863E+02  0.19055189075E+03 -0.85326627488E+03  0.87440854655E+03  0.00000000000E+00 0.  1.
          3    1    3    3  501    0  0.15955991798E+03 -0.75789940304E+02  0.48415471680E+02  0.18315987654E+03  0.00000000000E+00 0.  1.
         -1    1    1    2    0  502 -0.17428905084E+03 -0.11476195044E+03  0.89469293389E+02  0.22705006710E+03  0.00000000000E+00 0. -1.
<mgrwt>
<rscale>  1 0.68605113E+03</rscale>
<asrwt>0</asrwt>
<pdfrwt beam="1">  1       21 0.43787459E-01 0.68605113E+03</pdfrwt>
<pdfrwt beam="2">0</pdfrwt>
<totfact> 0.46605192E+02</totfact>
</mgrwt>
</event>
<event>
 6    1  0.1439793E-004  0.6642071E+03  0.7818608E-02  0.9780480E-01
         21   -1    0    0  501  502  0.00000000000E+00  0.00000000000E+00  0.17942948575E+03  0.17942948575E+03  0.00000000000E+00 0.  1.
         13   -1    0    0    0    0 -0.00000000000E+00 -0.00000000000E+00 -0.10000000000E+04  0.10000000000E+04  0.00000000000E+00 0.  1.
    9000005    2    1    2  501    0  0.21026229081E+02  0.14305630833E+02 -0.88710022502E+03  0.11082048004E+04  0.66372005929E+03 0.  0.
         13    1    3    3    0    0  0.31042500970E+03 -0.91919021823E+02 -0.28304276554E+03  0.43003023190E+03  0.00000000000E+00 0.  1.
          1    1    3    3  501    0 -0.28939878062E+03  0.10622465266E+03 -0.60405745948E+03  0.67817456854E+03  0.00000000000E+00 0.  1.
         -1    1    1    2    0  502 -0.21026229081E+02 -0.14305630833E+02  0.66529710771E+02  0.71224685315E+02  0.00000000000E+00 0. -1.
<mgrwt>
<rscale>  1 0.66420710E+03</rscale>
<asrwt>0</asrwt>
<pdfrwt beam="1">  1       21 0.27604535E-01 0.66420710E+03</pdfrwt>
<pdfrwt beam="2">0</pdfrwt>
<totfact> 0.11968313E+03</totfact>
</mgrwt>
</event>
<event>
 6    1  0.1439793E-004  0.6761761E+03  0.7818608E-02  0.9758864E-01
         21   -1    0    0  501  502  0.00000000000E+00  0.00000000000E+00  0.16635546847E+03  0.16635546847E+03  0.00000000000E+00 0.  1.
         13   -1    0    0    0    0 -0.00000000000E+00 -0.00000000000E+00 -0.10000000000E+04  0.10000000000E+04  0.00000000000E+00 0.  1.
    9000005    2    1    2  501    0 -0.10085462933E+03  0.39340632728E+02 -0.81073610806E+03  0.10557022376E+04  0.66745399532E+03 0.  0.
         13    1    3    3    0    0  0.68278226389E+02 -0.29302455796E+03 -0.40630062978E+03  0.50557443520E+03  0.00000000000E+00 0.  1.
          3    1    3    3  501    0 -0.16913285572E+03  0.33236519068E+03 -0.40443547828E+03  0.55012780238E+03  0.00000000000E+00 0.  1.
         -1    1    1    2    0  502  0.10085462933E+03 -0.39340632728E+02 -0.22908423473E+02  0.11065323089E+03  0.00000000000E+00 0. -1.
<mgrwt>
<rscale>  1 0.67617614E+03</rscale>
<asrwt>0</asrwt>
<pdfrwt beam="1">  1       21 0.25593148E-01 0.67617614E+03</pdfrwt>
<pdfrwt beam="2">0</pdfrwt>
<totfact> 0.13887687E+03</totfact>
</mgrwt>
</event>
<event>
 6    1  0.1439793E-004  0.6550650E+03  0.7818608E-02  0.9797321E-01
         21   -1    0    0  501  502  0.00000000000E+00  0.00000000000E+00  0.31578311773E+03  0.31578311773E+03  0.00000000000E+00 0. -1.
         13   -1    0    0    0    0 -0.00000000000E+00 -0.00000000000E+00 -0.10000000000E+04  0.10000000000E+04  0.00000000000E+00 0.  1.
    9000005    2    1    2  501    0 -0.71467548562E+01  0.57296907324E+02 -0.88828521423E+03  0.11037031899E+04  0.65251520886E+03 0.  0.
         13    1    3    3    0    0  0.35118449426E+02 -0.29652574777E+03 -0.39410160220E+03  0.49444605109E+03  0.00000000000E+00 0.  1.
          3    1    3    3  501    0 -0.42265204282E+02  0.35382265509E+03 -0.49418361203E+03  0.60925713878E+03  0.00000000000E+00 0.  1.
         -1    1    1    2    0  502  0.71467548562E+01 -0.57296907324E+02  0.20406833196E+03  0.21207992787E+03  0.00000000000E+00 0. -1.
<mgrwt>
<rscale>  1 0.65506497E+03</rscale>
<asrwt>0</asrwt>
<pdfrwt beam="1">  1       21 0.48582017E-01 0.65506497E+03</pdfrwt>
<pdfrwt beam="2">0</pdfrwt>
<totfact> 0.37492787E+02</totfact>
</mgrwt>
</event>
<event>
 6    1  0.1439793E-004  0.6536364E+03  0.7818608E-02  0.9799980E-01
         21   -1    0    0  501  502  0.00000000000E+00  0.00000000000E+00  0.17964888534E+03  0.17964888534E+03  0.00000000000E+00 0.  1.
         13   -1    0    0    0    0 -0.00000000000E+00 -0.00000000000E+00 -0.10000000000E+04  0.10000000000E+04  0.00000000000E+00 0.  1.
    9000005    2    1    2  501    0 -0.62332289192E+01 -0.44458282884E+02 -0.88544860819E+03  0.11005724936E+04  0.65209292586E+03 0.  0.
         13    1    3    3    0    0  0.31205560497E+03 -0.82348481605E+01 -0.57613484093E+03  0.65526930971E+03  0.00000000000E+00 0.  1.
          3    1    3    3  501    0 -0.31828883389E+03 -0.36223434724E+02 -0.30931376726E+03  0.44530318393E+03  0.00000000000E+00 0.  1.
         -3    1    1    2    0  502  0.62332289192E+01  0.44458282884E+02  0.65097493534E+02  0.79076391699E+02  0.00000000000E+00 0. -1.
<mgrwt>
<rscale>  1 0.65363642E+03</rscale>
<asrwt>0</asrwt>
<pdfrwt beam="1">  1       21 0.27638289E-01 0.65363642E+03</pdfrwt>
<pdfrwt beam="2">0</pdfrwt>
<totfact> 0.11946558E+03</totfact>
</mgrwt>
</event>
<event>
 6    1  0.1439793E-004  0.5860541E+03  0.7818608E-02  0.9934769E-01
         21   -1    0    0  501  502  0.00000000000E+00  0.00000000000E+00  0.11381918027E+03  0.11381918027E+03  0.00000000000E+00 0.  1.
         13   -1    0    0    0    0 -0.00000000000E+00 -0.00000000000E+00 -0.10000000000E+04  0.10000000000E+04  0.00000000000E+00 0.  1.
    9000005    2    1    2  501    0  0.41622690754E+02 -0.20044314233E+02 -0.89195753956E+03  0.10672617597E+04  0.58423042407E+03 0.  0.
         13    1    3    3    0    0  0.20594606489E+03  0.17092287515E+03 -0.20978918271E+03  0.34005868916E+03  0.00000000000E+00 0.  1.
          1    1    3    3  501    0 -0.16432337413E+03 -0.19096718938E+03 -0.68216835685E+03  0.72720307054E+03  0.00000000000E+00 0.  1.
         -3    1    1    2    0  502 -0.41622690754E+02  0.20044314233E+02  0.57767198313E+01  0.46557420576E+02  0.00000000000E+00 0. -1.
<mgrwt>
<rscale>  1 0.58605410E+03</rscale>
<asrwt>0</asrwt>
<pdfrwt beam="1">  1       21 0.17510643E-01 0.58605410E+03</pdfrwt>
<pdfrwt beam="2">0</pdfrwt>
<totfact> 0.28971413E+03</totfact>
</mgrwt>
</event>
<event>
 6    1  0.1439793E-004  0.6712358E+03  0.7818608E-02  0.9767728E-01
         21   -1    0    0  501  502  0.00000000000E+00  0.00000000000E+00  0.18127179380E+03  0.18127179380E+03  0.00000000000E+00 0.  1.
         13   -1    0    0    0    0 -0.00000000000E+00 -0.00000000000E+00 -0.10000000000E+04  0.10000000000E+04  0.00000000000E+00 0.  1.
    9000005    2    1    2  501    0  0.12868389444E+03 -0.10033477819E+03 -0.74323851421E+03  0.10014793969E+04  0.65109974730E+03 0.  0.
         13    1    3    3    0    0  0.16878103918E+03  0.25062605798E+03 -0.45180521697E+03  0.54353326872E+03  0.00000000000E+00 0.  1.
          3    1    3    3  501    0 -0.40097144748E+02 -0.35096083617E+03 -0.29143329724E+03  0.45794612814E+03  0.00000000000E+00 0.  1.
         -3    1    1    2    0  502 -0.12868389444E+03  0.10033477819E+03 -0.75489691991E+02  0.17979239694E+03  0.00000000000E+00 0. -1.
<mgrwt>
<rscale>  1 0.67123580E+03</rscale>
<asrwt>0</asrwt>
<pdfrwt beam="1">  1       21 0.27887967E-01 0.67123580E+03</pdfrwt>
<pdfrwt beam="2">0</pdfrwt>
<totfact> 0.11723362E+03</totfact>
</mgrwt>
</event>
<event>
 6    1  0.1439793E-004  0.7110558E+03  0.7818608E-02  0.9698510E-01
         21   -1    0    0  501  502  0.00000000000E+00  0.00000000000E+00  0.35422915114E+03  0.35422915114E+03  0.00000000000E+00 0. -1.
         13   -1    0    0    0    0 -0.00000000000E+00 -0.00000000000E+00 -0.10000000000E+04  0.10000000000E+04  0.00000000000E+00 0.  1.
    9000005    2    1    2  501    0 -0.17662161391E+03 -0.21484608392E+03 -0.77133321742E+03  0.10490735471E+04  0.65440533362E+03 0.  0.
         13    1    3    3    0    0 -0.57933038036E+02 -0.32433225390E+03 -0.81727969798E+03  0.88118882911E+03  0.00000000000E+00 0.  1.
          1    1    3    3  501    0 -0.11868857587E+03  0.10948616998E+03  0.45946480566E+02  0.16788471800E+03  0.00000000000E+00 0.  1.
         -1    1    1    2    0  502  0.17662161391E+03  0.21484608392E+03  0.12556236855E+03  0.30515560403E+03  0.00000000000E+00 0. -1.
<mgrwt>
<rscale>  1 0.71105582E+03</rscale>
<asrwt>0</asrwt>
<pdfrwt beam="1">  1       21 0.54496791E-01 0.71105582E+03</pdfrwt>
<pdfrwt beam="2">0</pdfrwt>
<totfact> 0.29115920E+02</totfact>
</mgrwt>
</event>
<event>
 6    1  0.1439793E-004  0.6292023E+03  0.7818608E-02  0.9846607E-01
         21   -1    0    0  501  502  0.00000000000E+00  0.00000000000E+00  0.32273884530E+03  0.32273884530E+03  0.00000000000E+00 0. -1.
         13   -1    0    0    0    0 -0.00000000000E+00 -0.00000000000E+00 -0.10000000000E+04  0.10000000000E+04  0.00000000000E+00 0.  1.
    9000005    2    1    2  501    0 -0.56675335920E+02  0.17304661937E+00 -0.89707461492E+03  0.10957364644E+04  0.62664456512E+03 0.  0.
         13    1    3    3    0    0  0.21493394706E+03  0.12809737726E+03 -0.15277080061E+03  0.29316285095E+03  0.00000000000E+00 0.  1.
          1    1    3    3  501    0 -0.27160928298E+03 -0.12792433064E+03 -0.74430381431E+03  0.80257361343E+03  0.00000000000E+00 0.  1.
         -1    1    1    2    0  502  0.56675335920E+02 -0.17304661937E+00  0.21981346022E+03  0.22700238092E+03  0.00000000000E+00 0. -1.
<mgrwt>
<rscale>  1 0.62920230E+03</rscale>
<asrwt>0</asrwt>
<pdfrwt beam="1">  1       21 0.49652129E-01 0.62920230E+03</pdfrwt>
<pdfrwt beam="2">0</pdfrwt>
<totfact> 0.35875096E+02</totfact>
</mgrwt>
</event>
<event>
 6    1  0.1439793E-004  0.6500079E+03  0.7818608E-02  0.9806764E-01
         21   -1    0    0  501  502  0.00000000000E+00  0.00000000000E+00  0.12780908571E+03  0.12780908571E+03  0.00000000000E+00 0.  1.
         13   -1    0    0    0    0 -0.00000000000E+00 -0.00000000000E+00 -0.10000000000E+04  0.10000000000E+04  0.00000000000E+00 0.  1.
    9000005    2    1    2  501    0  0.23148177358E+02 -0.16583029509E+02 -0.88377085839E+03  0.10970693706E+04  0.64938389161E+03 0.  0.
         13    1    3    3    0    0  0.15482986149E+03  0.21090931655E+02  0.41531681004E+02  0.16168485994E+03  0.00000000000E+00 0.  1.
          1    1    3    3  501    0 -0.13168168413E+03 -0.37673961164E+02 -0.92530253939E+03  0.93538451061E+03  0.00000000000E+00 0.  1.
         -3    1    1    2    0  502 -0.23148177358E+02  0.16583029509E+02  0.11579944100E+02  0.30739715159E+02  0.00000000000E+00 0. -1.
<mgrwt>
<rscale>  1 0.65000790E+03</rscale>
<asrwt>0</asrwt>
<pdfrwt beam="1">  1       21 0.19662936E-01 0.65000790E+03</pdfrwt>
<pdfrwt beam="2">0</pdfrwt>
<totfact> 0.23185444E+03</totfact>
</mgrwt>
</event>
<event>
 6    1  0.1439793E-004  0.6334740E+03  0.7818608E-02  0.9838293E-01
         21   -1    0    0  501  502  0.00000000000E+00  0.00000000000E+00  0.12501672248E+03  0.12501672248E+03  0.00000000000E+00 0.  1.
         13   -1    0    0    0    0 -0.00000000000E+00 -0.00000000000E+00 -0.10000000000E+04  0.10000000000E+04  0.00000000000E+00 0.  1.
    9000005    2    1    2  501    0  0.27485653180E+02 -0.49122868925E+02 -0.85742544474E+03  0.10660523699E+04  0.63096810118E+03 0.  0.
         13    1    3    3    0    0  0.83331028022E+02  0.24743083244E+03 -0.64832200719E+03  0.69891880936E+03  0.00000000000E+00 0.  1.
          3    1    3    3  501    0 -0.55845374842E+02 -0.29655370136E+03 -0.20910343755E+03  0.36713356054E+03  0.00000000000E+00 0.  1.
         -1    1    1    2    0  502 -0.27485653180E+02  0.49122868925E+02 -0.17557832788E+02  0.58964352573E+02  0.00000000000E+00 0. -1.
<mgrwt>
<rscale>  1 0.63347396E+03</rscale>
<asrwt>0</asrwt>
<pdfrwt beam="1">  1       21 0.19233341E-01 0.63347396E+03</pdfrwt>
<pdfrwt beam="2">0</pdfrwt>
<totfact> 0.24200975E+03</totfact>
</mgrwt>
</event>
<event>
 6    1  0.1439793E-004  0.6553076E+03  0.7818608E-02  0.9796871E-01
         21   -1    0    0  501  502  0.00000000000E+00  0.00000000000E+00  0.19058713600E+03  0.19058713600E+03  0.00000000000E+00 0.  1.
         13   -1    0    0    0    0 -0.00000000000E+00 -0.00000000000E+00 -0.10000000000E+04  0.10000000000E+04  0.00000000000E+00 0.  1.
    9000005    2    1    2  501    0 -0.25629405454E+02 -0.12205513749E+03 -0.83684273451E+03  0.10628893647E+04  0.64333017664E+03 0.  0.
         13    1    3    3    0    0 -0.46434378662E+01 -0.34517383854E+03 -0.22694741341E+03  0.41312427765E+03  0.00000000000E+00 0.  1.
          3    1    3    3  501    0 -0.20985967587E+02  0.22311870105E+03 -0.60989532110E+03  0.64976508701E+03  0.00000000000E+00 0.  1.
         -3    1    1    2    0  502  0.25629405454E+02  0.12205513749E+03  0.27429870517E+02  0.12769777135E+03  0.00000000000E+00 0. -1.
<mgrwt>
<rscale>  1 0.65530759E+03</rscale>
<asrwt>0</asrwt>
<pdfrwt beam="1">  1       21 0.29321097E-01 0.65530759E+03</pdfrwt>
<pdfrwt beam="2">0</pdfrwt>
<totfact> 0.10619687E+03</totfact>
</mgrwt>
</event>
<event>
 6    1  0.1439793E-004  0.6650311E+03  0.7818608E-02  0.9778976E-01
         21   -1    0    0  501  502  0.00000000000E+00  0.00000000000E+00  0.17172869886E+03  0.17172869886E+03  0.00000000000E+00 0.  1.
         13   -1    0    0    0    0 -0.00000000000E+00 -0.00000000000E+00 -0.10000000000E+04  0.10000000000E+04  0.00000000000E+00 0.  1.
    9000005    2    1    2  501    0 -0.14940599013E+03  0.53823119129E+02 -0.71628007135E+03  0.97740650870E+03  0.64579196696E+03 0.  0.
         13    1    3    3    0    0 -0.33581008454E+03  0.14139927979E+03 -0.67543042966E+03  0.76744278908E+03  0.00000000000E+00 0.  1.
          1    1    3    3  501    0  0.18640409441E+03 -0.87576160660E+02 -0.40849641695E+02  0.20996371962E+03  0.00000000000E+00 0.  1.
         -3    1    1    2    0  502  0.14940599013E+03 -0.53823119129E+02 -0.11199122979E+03  0.19432219016E+03  0.00000000000E+00 0. -1.
<mgrwt>
<rscale>  1 0.66503108E+03</rscale>
<asrwt>0</asrwt>
<pdfrwt beam="1">  1       21 0.26419799E-01 0.66503108E+03</pdfrwt>
<pdfrwt beam="2">0</pdfrwt>
<totfact> 0.13052519E+03</totfact>
</mgrwt>
</event>
<event>
 6    1  0.1439793E-004  0.6679122E+03  0.7818608E-02  0.9773737E-01
         21   -1    0    0  501  502  0.00000000000E+00  0.00000000000E+00  0.18897849392E+04  0.18897849392E+04  0.00000000000E+00 0. -1.
         13   -1    0    0    0    0 -0.00000000000E+00 -0.00000000000E+00 -0.10000000000E+04  0.10000000000E+04  0.00000000000E+00 0.  1.
    9000005    2    1    2  501    0  0.56469508807E+02  0.17026427997E+03 -0.88344113682E+03  0.11075084603E+04  0.64337237820E+03 0.  0.
         13    1    3    3    0    0 -0.11335780263E+03  0.12575022632E+03 -0.91378917878E+03  0.92934050492E+03  0.00000000000E+00 0.  1.
          3    1    3    3  501    0  0.16982731144E+03  0.44514053649E+02  0.30348041965E+02  0.17816795541E+03  0.00000000000E+00 0.  1.
         -3    1    1    2    0  502 -0.56469508807E+02 -0.17026427997E+03  0.17732260760E+04  0.17822764788E+04  0.00000000000E+00 0. -1.
<mgrwt>
<rscale>  1 0.66791223E+03</rscale>
<asrwt>0</asrwt>
<pdfrwt beam="1">  1       21 0.29073614E+00 0.66791223E+03</pdfrwt>
<pdfrwt beam="2">0</pdfrwt>
<totfact> 0.29072044E+00</totfact>
</mgrwt>
</event>
<event>
 6    1  0.1439793E-004  0.5567149E+03  0.7818608E-02  0.9999515E-01
         21   -1    0    0  501  502  0.00000000000E+00  0.00000000000E+00  0.51104773753E+03  0.51104773753E+03  0.00000000000E+00 0. -1.
         13   -1    0    0    0    0 -0.00000000000E+00 -0.00000000000E+00 -0.10000000000E+04  0.10000000000E+04  0.00000000000E+00 0.  1.
    9000005    2    1    2  501    0 -0.20974256068E+02  0.10364672610E+02 -0.92217703660E+03  0.10771917121E+04  0.55622311349E+03 0.  0.
         13    1    3    3    0    0  0.15439363467E+03  0.20086485054E+03 -0.24597896320E+03  0.35311433410E+03  0.00000000000E+00 0.  1.
          3    1    3    3  501    0 -0.17536789074E+03 -0.19050017793E+03 -0.67619807340E+03  0.72407737803E+03  0.00000000000E+00 0.  1.
         -1    1    1    2    0  502  0.20974256068E+02 -0.10364672610E+02  0.43322477413E+03  0.43385602540E+03  0.00000000000E+00 0. -1.
<mgrwt>
<rscale>  1 0.55671492E+03</rscale>
<asrwt>0</asrwt>
<pdfrwt beam="1">  1       21 0.78622727E-01 0.55671492E+03</pdfrwt>
<pdfrwt beam="2">0</pdfrwt>
<totfact> 0.13034256E+02</totfact>
</mgrwt>
</event>
<event>
 6    1  0.1439793E-004  0.6427952E+03  0.7818608E-02  0.9820393E-01
         21   -1    0    0  501  502  0.00000000000E+00  0.00000000000E+00  0.12009210501E+03  0.12009210501E+03  0.00000000000E+00 0.  1.
         13   -1    0    0    0    0 -0.00000000000E+00 -0.00000000000E+00 -0.10000000000E+04  0.10000000000E+04  0.00000000000E+00 0.  1.
    9000005    2    1    2  501    0  0.39822921981E+02 -0.30506651777E+02 -0.81053436319E+03  0.10344813123E+04  0.64083469837E+03 0.  0.
         13    1    3    3    0    0  0.29833582943E+03 -0.10052593690E+03 -0.21423804790E+03  0.38079872935E+03  0.00000000000E+00 0.  1.
          3    1    3    3  501    0 -0.25851290744E+03  0.70019285122E+02 -0.59629631529E+03  0.65368258294E+03  0.00000000000E+00 0.  1.
         -3    1    1    2    0  502 -0.39822921981E+02  0.30506651777E+02 -0.69373531790E+02  0.85610792724E+02  0.00000000000E+00 0. -1.
<mgrwt>
<rscale>  1 0.64279517E+03</rscale>
<asrwt>0</asrwt>
<pdfrwt beam="1">  1       21 0.18475708E-01 0.64279517E+03</pdfrwt>
<pdfrwt beam="2">0</pdfrwt>
<totfact> 0.26118528E+03</totfact>
</mgrwt>
</event>
<event>
 6    1  0.1439793E-004  0.6717955E+03  0.7818608E-02  0.9766720E-01
         21   -1    0    0  501  502  0.00000000000E+00  0.00000000000E+00  0.72898221964E+03  0.72898221964E+03  0.00000000000E+00 0. -1.
         13   -1    0    0    0    0 -0.00000000000E+00 -0.00000000000E+00 -0.10000000000E+04  0.10000000000E+04  0.00000000000E+00 0.  1.
    9000005    2    1    2  501    0  0.78444391997E+02 -0.42431555083E+02 -0.88357800293E+03  0.11099636531E+04  0.66584928049E+03 0.  0.
         13    1    3    3    0    0  0.34331981598E+03 -0.13465498231E+03 -0.35659360987E+03  0.51299070451E+03  0.00000000000E+00 0.  1.
          3    1    3    3  501    0 -0.26487542399E+03  0.92223427230E+02 -0.52698439306E+03  0.59697294854E+03  0.00000000000E+00 0.  1.
         -1    1    1    2    0  502 -0.78444391997E+02  0.42431555083E+02  0.61256022257E+03  0.61901856659E+03  0.00000000000E+00 0. -1.
<mgrwt>
<rscale>  1 0.67179552E+03</rscale>
<asrwt>0</asrwt>
<pdfrwt beam="1">  1       21 0.11215111E+00 0.67179552E+03</pdfrwt>
<pdfrwt beam="2">0</pdfrwt>
<totfact> 0.54331021E+01</totfact>
</mgrwt>
</event>
<event>
 6    1  0.1439793E-004  0.6862521E+03  0.7818608E-02  0.9741036E-01
         21   -1    0    0  501  502  0.00000000000E+00  0.00000000000E+00  0.21347687196E+03  0.21347687196E+03  0.00000000000E+00 0.  1.
         13   -1    0    0    0    0 -0.00000000000E+00 -0.00000000000E+00 -0.10000000000E+04  0.10000000000E+04  0.00000000000E+00 0.  1.
    9000005    2    1    2  501    0 -0.13738652732E+03 -0.17205263018E+03 -0.68971480891E+03  0.97295864792E+03  0.64997295904E+03 0.  0.
         13    1    3    3    0    0 -0.18018790045E+03  0.28364172064E+02 -0.73982928529E+03  0.76198397431E+03  0.00000000000E+00 0.  1.
          3    1    3    3  501    0  0.42801373128E+02 -0.20041680224E+03  0.50114476377E+02  0.21097467361E+03  0.00000000000E+00 0.  1.
         -1    1    1    2    0  502  0.13738652732E+03  0.17205263018E+03 -0.96808319127E+02  0.24051822404E+03  0.00000000000E+00 0. -1.
<mgrwt>
<rscale>  1 0.68625215E+03</rscale>
<asrwt>0</asrwt>
<pdfrwt beam="1">  1       21 0.32842595E-01 0.68625215E+03</pdfrwt>
<pdfrwt beam="2">0</pdfrwt>
<totfact> 0.84372832E+02</totfact>
</mgrwt>
</event>
<event>
 6    1  0.1439793E-004  0.6520620E+03  0.7818608E-02  0.9802918E-01
         21   -1    0    0  501  502  0.00000000000E+00  0.00000000000E+00  0.18196202308E+03  0.18196202308E+03  0.00000000000E+00 0.  1.
         13   -1    0    0    0    0 -0.00000000000E+00 -0.00000000000E+00 -0.10000000000E+04  0.10000000000E+04  0.00000000000E+00 0.  1.
    9000005    2    1    2  501    0 -0.51700007048E+02  0.18856830471E+02 -0.88246121052E+03  0.10972340831E+04  0.64973561875E+03 0.  0.
         13    1    3    3    0    0 -0.22855691242E+03  0.93953059905E+02 -0.62271796888E+02  0.25483958948E+03  0.00000000000E+00 0.  1.
          3    1    3    3  501    0  0.17685690537E+03 -0.75096229434E+02 -0.82018941363E+03  0.84239449362E+03  0.00000000000E+00 0.  1.
         -3    1    1    2    0  502  0.51700007048E+02 -0.18856830471E+02  0.64423233601E+02  0.84727939971E+02  0.00000000000E+00 0. -1.
<mgrwt>
<rscale>  1 0.65206199E+03</rscale>
<asrwt>0</asrwt>
<pdfrwt beam="1">  1       21 0.27994157E-01 0.65206199E+03</pdfrwt>
<pdfrwt beam="2">0</pdfrwt>
<totfact> 0.11648061E+03</totfact>
</mgrwt>
</event>
<event>
 6    1  0.1439793E-004  0.6526139E+03  0.7818608E-02  0.9801887E-01
         21   -1    0    0  501  502  0.00000000000E+00  0.00000000000E+00  0.21940344073E+03  0.21940344073E+03  0.00000000000E+00 0.  1.
         13   -1    0    0    0    0 -0.00000000000E+00 -0.00000000000E+00 -0.10000000000E+04  0.10000000000E+04  0.00000000000E+00 0.  1.
    9000005    2    1    2  501    0  0.38316652979E+02  0.18318629683E+01 -0.88990690160E+03  0.11035575407E+04  0.65148555662E+03 0.  0.
         13    1    3    3    0    0  0.26861103138E+02  0.28339057770E+03 -0.72066664768E+03  0.77484976316E+03  0.00000000000E+00 0.  1.
          3    1    3    3  501    0  0.11455549841E+02 -0.28155871473E+03 -0.16924025391E+03  0.32870777753E+03  0.00000000000E+00 0.  1.
         -3    1    1    2    0  502 -0.38316652979E+02 -0.18318629683E+01  0.10931034233E+03  0.11584590005E+03  0.00000000000E+00 0. -1.
<mgrwt>
<rscale>  1 0.65261394E+03</rscale>
<asrwt>0</asrwt>
<pdfrwt beam="1">  1       21 0.33754375E-01 0.65261394E+03</pdfrwt>
<pdfrwt beam="2">0</pdfrwt>
<totfact> 0.79996598E+02</totfact>
</mgrwt>
</event>
<event>
 6    1  0.1439793E-004  0.6548010E+03  0.7818608E-02  0.9797812E-01
         21   -1    0    0  501  502  0.00000000000E+00  0.00000000000E+00  0.26200420444E+03  0.26200420444E+03  0.00000000000E+00 0.  1.
         13   -1    0    0    0    0 -0.00000000000E+00 -0.00000000000E+00 -0.10000000000E+04  0.10000000000E+04  0.00000000000E+00 0.  1.
    9000005    2    1    2  501    0 -0.46575416494E+02 -0.52811638238E+01 -0.88886941917E+03  0.11040168302E+04  0.65312108904E+03 0.  0.
         13    1    3    3    0    0 -0.13025620753E+02 -0.57107941719E+02  0.98563947425E+02  0.11465529005E+03  0.00000000000E+00 0.  1.
          1    1    3    3  501    0 -0.33549795741E+02  0.51826777896E+02 -0.98743336660E+03  0.98936154017E+03  0.00000000000E+00 0.  1.
         -1    1    1    2    0  502  0.46575416494E+02  0.52811638238E+01  0.15087362362E+03  0.15798737423E+03  0.00000000000E+00 0. -1.
<mgrwt>
<rscale>  1 0.65480098E+03</rscale>
<asrwt>0</asrwt>
<pdfrwt beam="1">  1       21 0.40308338E-01 0.65480098E+03</pdfrwt>
<pdfrwt beam="2">0</pdfrwt>
<totfact> 0.55560138E+02</totfact>
</mgrwt>
</event>
<event>
 6    1  0.1439793E-004  0.6847372E+03  0.7818608E-02  0.9743696E-01
         21   -1    0    0  501  502  0.00000000000E+00  0.00000000000E+00  0.23712929358E+03  0.23712929358E+03  0.00000000000E+00 0. -1.
         13   -1    0    0    0    0 -0.00000000000E+00 -0.00000000000E+00 -0.10000000000E+04  0.10000000000E+04  0.00000000000E+00 0.  1.
    9000005    2    1    2  501    0 -0.55691645103E+02  0.40731771047E+02 -0.87157240390E+03  0.11083787769E+04  0.68125209824E+03 0.  0.
         13    1    3    3    0    0 -0.18769097499E+03 -0.19628188922E+03 -0.77368826534E+03  0.81996830064E+03  0.00000000000E+00 0.  1.
          1    1    3    3  501    0  0.13199932989E+03  0.23701366026E+03 -0.97884138565E+02  0.28841047628E+03  0.00000000000E+00 0.  1.
         -1    1    1    2    0  502  0.55691645103E+02 -0.40731771047E+02  0.10870169748E+03  0.12875051667E+03  0.00000000000E+00 0. -1.
<mgrwt>
<rscale>  1 0.68473722E+03</rscale>
<asrwt>0</asrwt>
<pdfrwt beam="1">  1       21 0.36481429E-01 0.68473722E+03</pdfrwt>
<pdfrwt beam="2">0</pdfrwt>
<totfact> 0.68111827E+02</totfact>
</mgrwt>
</event>
<event>
 6    1  0.1439793E-004  0.7237726E+03  0.7818608E-02  0.9677420E-01
         21   -1    0    0  501  502  0.00000000000E+00  0.00000000000E+00  0.36265697220E+03  0.36265697220E+03  0.00000000000E+00 0.  1.
         13   -1    0    0    0    0 -0.00000000000E+00 -0.00000000000E+00 -0.10000000000E+04  0.10000000000E+04  0.00000000000E+00 0.  1.
    9000005    2    1    2  501    0 -0.54910887268E+02 -0.13037860133E+03 -0.84423856557E+03  0.11120186895E+04  0.70981196446E+03 0.  0.
         13    1    3    3    0    0  0.47666115280E+02 -0.31457487148E+03 -0.84315018169E+03  0.90118346478E+03  0.00000000000E+00 0.  1.
          1    1    3    3  501    0 -0.10257700255E+03  0.18419627015E+03 -0.10883838829E+01  0.21083522468E+03  0.00000000000E+00 0.  1.
         -1    1    1    2    0  502  0.54910887268E+02  0.13037860133E+03  0.20689553777E+03  0.25063828274E+03  0.00000000000E+00 0. -1.
<mgrwt>
<rscale>  1 0.72377262E+03</rscale>
<asrwt>0</asrwt>
<pdfrwt beam="1">  1       21 0.55793379E-01 0.72377262E+03</pdfrwt>
<pdfrwt beam="2">0</pdfrwt>
<totfact> 0.27627776E+02</totfact>
</mgrwt>
</event>
<event>
 6    1  0.1439793E-004  0.6724004E+03  0.7818608E-02  0.9765631E-01
         21   -1    0    0  501  502  0.00000000000E+00  0.00000000000E+00  0.27121628703E+03  0.27121628703E+03  0.00000000000E+00 0. -1.
         13   -1    0    0    0    0 -0.00000000000E+00 -0.00000000000E+00 -0.10000000000E+04  0.10000000000E+04  0.00000000000E+00 0.  1.
    9000005    2    1    2  501    0  0.11030639202E+03 -0.33256184614E+03 -0.58931701783E+03  0.89410113130E+03  0.57389668397E+03 0.  0.
         13    1    3    3    0    0  0.59722539678E+02 -0.22294730852E+01 -0.55494657921E+03  0.55815540674E+03  0.00000000000E+00 0.  1.
          3    1    3    3  501    0  0.50583852341E+02 -0.33033237305E+03 -0.34370438623E+02  0.33594572457E+03  0.00000000000E+00 0.  1.
         -3    1    1    2    0  502 -0.11030639202E+03  0.33256184614E+03 -0.13946669514E+03  0.37711515573E+03  0.00000000000E+00 0. -1.
<mgrwt>
<rscale>  1 0.67240039E+03</rscale>
<asrwt>0</asrwt>
<pdfrwt beam="1">  1       21 0.41725581E-01 0.67240039E+03</pdfrwt>
<pdfrwt beam="2">0</pdfrwt>
<totfact> 0.51624915E+02</totfact>
</mgrwt>
</event>
<event>
 6    1  0.1439793E-004  0.6460401E+03  0.7818608E-02  0.9814238E-01
         21   -1    0    0  501  502  0.00000000000E+00  0.00000000000E+00  0.19224224297E+03  0.19224224297E+03  0.00000000000E+00 0.  1.
         13   -1    0    0    0    0 -0.00000000000E+00 -0.00000000000E+00 -0.10000000000E+04  0.10000000000E+04  0.00000000000E+00 0.  1.
    9000005    2    1    2  501    0 -0.39173311356E+02 -0.59443081945E+01 -0.89069857122E+03  0.11003234648E+04  0.64482392891E+03 0.  0.
         13    1    3    3    0    0  0.23635637499E+03  0.16871602539E+03 -0.58565390448E+03  0.65369712333E+03  0.00000000000E+00 0.  1.
          3    1    3    3  501    0 -0.27552968634E+03 -0.17466033359E+03 -0.30504466674E+03  0.44662634147E+03  0.00000000000E+00 0.  1.
         -3    1    1    2    0  502  0.39173311356E+02  0.59443081945E+01  0.82940814190E+02  0.91918778174E+02  0.00000000000E+00 0. -1.
<mgrwt>
<rscale>  1 0.64604008E+03</rscale>
<asrwt>0</asrwt>
<pdfrwt beam="1">  1       21 0.29575729E-01 0.64604008E+03</pdfrwt>
<pdfrwt beam="2">0</pdfrwt>
<totfact> 0.10443799E+03</totfact>
</mgrwt>
</event>
<event>
 6    1  0.1439793E-004  0.6449350E+03  0.7818608E-02  0.9816330E-01
         21   -1    0    0  501  502  0.00000000000E+00  0.00000000000E+00  0.12804115659E+03  0.12804115659E+03  0.00000000000E+00 0.  1.
         13   -1    0    0    0    0 -0.00000000000E+00 -0.00000000000E+00 -0.10000000000E+04  0.10000000000E+04  0.00000000000E+00 0.  1.
    9000005    2    1    2  501    0 -0.22685754419E+02  0.28828088813E+02 -0.87946618352E+03  0.10905970340E+04  0.64389084521E+03 0.  0.
         13    1    3    3    0    0  0.23361565599E+03 -0.16081046733E+03 -0.22293758808E+03  0.36074568507E+03  0.00000000000E+00 0.  1.
          3    1    3    3  501    0 -0.25630141040E+03  0.18963855614E+03 -0.65652859544E+03  0.72985134896E+03  0.00000000000E+00 0.  1.
         -1    1    1    2    0  502  0.22685754419E+02 -0.28828088813E+02  0.75073401088E+01  0.37444122552E+02  0.00000000000E+00 0. -1.
<mgrwt>
<rscale>  1 0.64493498E+03</rscale>
<asrwt>0</asrwt>
<pdfrwt beam="1">  1       21 0.19698639E-01 0.64493498E+03</pdfrwt>
<pdfrwt beam="2">0</pdfrwt>
<totfact> 0.23109560E+03</totfact>
</mgrwt>
</event>
<event>
 6    1  0.1439793E-004  0.6566483E+03  0.7818608E-02  0.9794384E-01
         21   -1    0    0  501  502  0.00000000000E+00  0.00000000000E+00  0.16653607610E+03  0.16653607610E+03  0.00000000000E+00 0.  1.
         13   -1    0    0    0    0 -0.00000000000E+00 -0.00000000000E+00 -0.10000000000E+04  0.10000000000E+04  0.00000000000E+00 0.  1.
    9000005    2    1    2  501    0  0.32289326029E+02  0.39333821226E+02 -0.87971849559E+03  0.10977666391E+04  0.65467336306E+03 0.  0.
         13    1    3    3    0    0  0.14284523950E+03 -0.12771666948E+03  0.39713443390E+01  0.19165615483E+03  0.00000000000E+00 0.  1.
          3    1    3    3  501    0 -0.11055591347E+03  0.16705049070E+03 -0.88368983993E+03  0.90611048423E+03  0.00000000000E+00 0.  1.
         -1    1    1    2    0  502 -0.32289326029E+02 -0.39333821226E+02  0.46254571689E+02  0.68769437033E+02  0.00000000000E+00 0. -1.
<mgrwt>
<rscale>  1 0.65664828E+03</rscale>
<asrwt>0</asrwt>
<pdfrwt beam="1">  1       21 0.25620934E-01 0.65664828E+03</pdfrwt>
<pdfrwt beam="2">0</pdfrwt>
<totfact> 0.13872232E+03</totfact>
</mgrwt>
</event>
<event>
 6    1  0.1439793E-004  0.6525146E+03  0.7818608E-02  0.9802072E-01
         21   -1    0    0  501  502  0.00000000000E+00  0.00000000000E+00  0.15941864850E+03  0.15941864850E+03  0.00000000000E+00 0.  1.
         13   -1    0    0    0    0 -0.00000000000E+00 -0.00000000000E+00 -0.10000000000E+04  0.10000000000E+04  0.00000000000E+00 0.  1.
    9000005    2    1    2  501    0 -0.23547607740E+02  0.21900568300E+01 -0.89061939759E+03  0.11040734388E+04  0.65208585382E+03 0.  0.
         13    1    3    3    0    0  0.27375475208E+03  0.34165777172E+02 -0.69236302019E+03  0.74530229863E+03  0.00000000000E+00 0.  1.
          3    1    3    3  501    0 -0.29730235982E+03 -0.31975720342E+02 -0.19825637739E+03  0.35877114018E+03  0.00000000000E+00 0.  1.
         -1    1    1    2    0  502  0.23547607740E+02 -0.21900568300E+01  0.50038046092E+02  0.55345209693E+02  0.00000000000E+00 0. -1.
<mgrwt>
<rscale>  1 0.65251456E+03</rscale>
<asrwt>0</asrwt>
<pdfrwt beam="1">  1       21 0.24525945E-01 0.65251456E+03</pdfrwt>
<pdfrwt beam="2">0</pdfrwt>
<totfact> 0.15116075E+03</totfact>
</mgrwt>
</event>
<event>
 6    1  0.1439793E-004  0.6546873E+03  0.7818608E-02  0.9798023E-01
         21   -1    0    0  501  502  0.00000000000E+00  0.00000000000E+00  0.14223569743E+03  0.14223569743E+03  0.00000000000E+00 0.  1.
         13   -1    0    0    0    0 -0.00000000000E+00 -0.00000000000E+00 -0.10000000000E+04  0.10000000000E+04  0.00000000000E+00 0.  1.
    9000005    2    1    2  501    0  0.22465058781E+02 -0.71897163352E+02 -0.83972845004E+03  0.10647813693E+04  0.65033961412E+03 0.  0.
         13    1    3    3    0    0  0.27123954895E+02  0.82130697507E+02  0.88559529207E+02  0.12378994553E+03  0.00000000000E+00 0.  1.
          3    1    3    3  501    0 -0.46588961143E+01 -0.15402786086E+03 -0.92828797925E+03  0.94099142380E+03  0.00000000000E+00 0.  1.
         -3    1    1    2    0  502 -0.22465058781E+02  0.71897163352E+02 -0.18035852530E+02  0.77454328095E+02  0.00000000000E+00 0. -1.
<mgrwt>
<rscale>  1 0.65468733E+03</rscale>
<asrwt>0</asrwt>
<pdfrwt beam="1">  1       21 0.21882414E-01 0.65468733E+03</pdfrwt>
<pdfrwt beam="2">0</pdfrwt>
<totfact> 0.18868986E+03</totfact>
</mgrwt>
</event>
<event>
 6    1  0.1439793E-004  0.6420758E+03  0.7818608E-02  0.9821763E-01
         21   -1    0    0  501  502  0.00000000000E+00  0.00000000000E+00  0.30637545948E+03  0.30637545948E+03  0.00000000000E+00 0. -1.
         13   -1    0    0    0    0 -0.00000000000E+00 -0.00000000000E+00 -0.10000000000E+04  0.10000000000E+04  0.00000000000E+00 0.  1.
    9000005    2    1    2  501    0  0.76960912710E+01  0.65242373543E+02 -0.89106194950E+03  0.10982953605E+04  0.63870611703E+03 0.  0.
         13    1    3    3    0    0 -0.80719375145E+02  0.26095399864E+03 -0.12083026578E+03  0.29868471682E+03  0.00000000000E+00 0.  1.
          3    1    3    3  501    0  0.88415466416E+02 -0.19571162510E+03 -0.77023168372E+03  0.79961064369E+03  0.00000000000E+00 0.  1.
         -3    1    1    2    0  502 -0.76960912710E+01 -0.65242373543E+02  0.19743740898E+03  0.20808009898E+03  0.00000000000E+00 0. -1.
<mgrwt>
<rscale>  1 0.64207578E+03</rscale>
<asrwt>0</asrwt>
<pdfrwt beam="1">  1       21 0.47134685E-01 0.64207578E+03</pdfrwt>
<pdfrwt beam="2">0</pdfrwt>
<totfact> 0.40035643E+02</totfact>
</mgrwt>
</event>
<event>
 6    1  0.1439793E-004  0.6556655E+03  0.7818608E-02  0.9796206E-01
         21   -1    0    0  501  502  0.00000000000E+00  0.00000000000E+00  0.11776924677E+03  0.11776924677E+03  0.00000000000E+00 0.  1.
         13   -1    0    0    0    0 -0.00000000000E+00 -0.00000000000E+00 -0.10000000000E+04  0.10000000000E+04  0.00000000000E+00 0.  1.
    9000005    2    1    2  501    0  0.27276186860E+02  0.13006510922E+02 -0.85129880291E+03  0.10745263832E+04  0.65496880594E+03 0.  0.
         13    1    3    3    0    0  0.48170066344E+02  0.19706498638E+03 -0.86529500465E+03  0.88875778996E+03  0.00000000000E+00 0.  1.
          1    1    3    3  501    0 -0.20893879485E+02 -0.18405847546E+03  0.13996201736E+02  0.18576859328E+03  0.00000000000E+00 0.  1.
         -1    1    1    2    0  502 -0.27276186860E+02 -0.13006510922E+02 -0.30931950314E+02  0.43242863529E+02  0.00000000000E+00 0. -1.
<mgrwt>
<rscale>  1 0.65566554E+03</rscale>
<asrwt>0</asrwt>
<pdfrwt beam="1">  1       21 0.18118345E-01 0.65566554E+03</pdfrwt>
<pdfrwt beam="2">0</pdfrwt>
<totfact> 0.27094208E+03</totfact>
</mgrwt>
</event>
<event>
 6    1  0.1439793E-004  0.6497603E+03  0.7818608E-02  0.9807229E-01
         21   -1    0    0  501  502  0.00000000000E+00  0.00000000000E+00  0.13056648600E+03  0.13056648600E+03  0.00000000000E+00 0.  1.
         13   -1    0    0    0    0 -0.00000000000E+00 -0.00000000000E+00 -0.10000000000E+04  0.10000000000E+04  0.00000000000E+00 0.  1.
    9000005    2    1    2  501    0  0.21590797767E+02 -0.48929259915E+02 -0.85732831020E+03  0.10757324547E+04  0.64755559430E+03 0.  0.
         13    1    3    3    0    0  0.66217025261E+02  0.25343010961E+03 -0.14223983743E+03  0.29806658022E+03  0.00000000000E+00 0.  1.
          1    1    3    3  501    0 -0.44626227494E+02 -0.30235936953E+03 -0.71508847277E+03  0.77766587453E+03  0.00000000000E+00 0.  1.
         -3    1    1    2    0  502 -0.21590797767E+02  0.48929259915E+02 -0.12105203802E+02  0.54834031250E+02  0.00000000000E+00 0. -1.
<mgrwt>
<rscale>  1 0.64976033E+03</rscale>
<asrwt>0</asrwt>
<pdfrwt beam="1">  1       21 0.20087151E-01 0.64976033E+03</pdfrwt>
<pdfrwt beam="2">0</pdfrwt>
<totfact> 0.22256354E+03</totfact>
</mgrwt>
</event>
<event>
 6    1  0.1439793E-004  0.6504088E+03  0.7818608E-02  0.9806012E-01
         21   -1    0    0  501  502  0.00000000000E+00  0.00000000000E+00  0.19587953889E+03  0.19587953889E+03  0.00000000000E+00 0.  1.
         13   -1    0    0    0    0 -0.00000000000E+00 -0.00000000000E+00 -0.10000000000E+04  0.10000000000E+04  0.00000000000E+00 0.  1.
    9000005    2    1    2  501    0 -0.16376856346E+02  0.10815497977E+03 -0.85579276860E+03  0.10749013242E+04  0.64114420597E+03 0.  0.
         13    1    3    3    0    0 -0.17367442859E+03  0.14010079613E+03 -0.20221700642E+02  0.22405346996E+03  0.00000000000E+00 0.  1.
          3    1    3    3  501    0  0.15729757225E+03 -0.31945816355E+02 -0.83557106796E+03  0.85084785422E+03  0.00000000000E+00 0.  1.
         -1    1    1    2    0  502  0.16376856346E+02 -0.10815497977E+03  0.51672307488E+02  0.12097821471E+03  0.00000000000E+00 0. -1.
<mgrwt>
<rscale>  1 0.65040879E+03</rscale>
<asrwt>0</asrwt>
<pdfrwt beam="1">  1       21 0.30135313E-01 0.65040879E+03</pdfrwt>
<pdfrwt beam="2">0</pdfrwt>
<totfact> 0.10056648E+03</totfact>
</mgrwt>
</event>
<event>
 6    1  0.1439793E-004  0.6484662E+03  0.7818608E-02  0.9809661E-01
         21   -1    0    0  501  502  0.00000000000E+00  0.00000000000E+00  0.22127200209E+03  0.22127200209E+03  0.00000000000E+00 0. -1.
         13   -1    0    0    0    0 -0.00000000000E+00 -0.00000000000E+00 -0.10000000000E+04  0.10000000000E+04  0.00000000000E+00 0.  1.
    9000005    2    1    2  501    0 -0.16720350418E+02  0.10088120355E+03 -0.86940068396E+03  0.10846040712E+04  0.64035291408E+03 0.  0.
         13    1    3    3    0    0  0.21443737427E+03 -0.18288039831E+03 -0.35449941876E+03  0.45287798077E+03  0.00000000000E+00 0.  1.
          1    1    3    3  501    0 -0.23115772469E+03  0.28376160186E+03 -0.51490126520E+03  0.63172609039E+03  0.00000000000E+00 0.  1.
         -3    1    1    2    0  502  0.16720350418E+02 -0.10088120355E+03  0.90672686046E+02  0.13666793092E+03  0.00000000000E+00 0. -1.
<mgrwt>
<rscale>  1 0.64846622E+03</rscale>
<asrwt>0</asrwt>
<pdfrwt beam="1">  1       21 0.34041846E-01 0.64846622E+03</pdfrwt>
<pdfrwt beam="2">0</pdfrwt>
<totfact> 0.78653444E+02</totfact>
</mgrwt>
</event>
<event>
 6    1  0.1439793E-004  0.6389515E+03  0.7818608E-02  0.9827735E-01
         21   -1    0    0  501  502  0.00000000000E+00  0.00000000000E+00  0.11858532239E+03  0.11858532239E+03  0.00000000000E+00 0.  1.
         13   -1    0    0    0    0 -0.00000000000E+00 -0.00000000000E+00 -0.10000000000E+04  0.10000000000E+04  0.00000000000E+00 0.  1.
    9000005    2    1    2  501    0 -0.15425229937E+02 -0.22108499102E+02 -0.88482856558E+03  0.10914122092E+04  0.63838256274E+03 0.  0.
         13    1    3    3    0    0  0.21589005457E+03  0.21178142207E+03 -0.34056283214E+03  0.45545903112E+03  0.00000000000E+00 0.  1.
          3    1    3    3  501    0 -0.23131528450E+03 -0.23388992117E+03 -0.54426573344E+03  0.63595317805E+03  0.00000000000E+00 0.  1.
         -3    1    1    2    0  502  0.15425229937E+02  0.22108499102E+02  0.34138879755E+01  0.27173113224E+02  0.00000000000E+00 0. -1.
<mgrwt>
<rscale>  1 0.63895150E+03</rscale>
<asrwt>0</asrwt>
<pdfrwt beam="1">  1       21 0.18243895E-01 0.63895150E+03</pdfrwt>
<pdfrwt beam="2">0</pdfrwt>
<totfact> 0.26756395E+03</totfact>
</mgrwt>
</event>
<event>
 6    1  0.1439793E-004  0.5858806E+03  0.7818608E-02  0.9935140E-01
         21   -1    0    0  501  502  0.00000000000E+00  0.00000000000E+00  0.16904824623E+03  0.16904824623E+03  0.00000000000E+00 0.  1.
         13   -1    0    0    0    0 -0.00000000000E+00 -0.00000000000E+00 -0.10000000000E+04  0.10000000000E+04  0.00000000000E+00 0.  1.
    9000005    2    1    2  501    0 -0.17600033626E+03  0.12020246868E+03 -0.72161802176E+03  0.92950990525E+03  0.54573926265E+03 0.  0.
         13    1    3    3    0    0  0.13510337399E+03 -0.66066337754E+01 -0.52086757769E+03  0.53814459281E+03  0.00000000000E+00 0.  1.
          1    1    3    3  501    0 -0.31110371025E+03  0.12680910245E+03 -0.20075044406E+03  0.39136531245E+03  0.00000000000E+00 0.  1.
         -3    1    1    2    0  502  0.17600033626E+03 -0.12020246868E+03 -0.10933373201E+03  0.23953834097E+03  0.00000000000E+00 0. -1.
<mgrwt>
<rscale>  1 0.58588061E+03</rscale>
<asrwt>0</asrwt>
<pdfrwt beam="1">  1       21 0.26007422E-01 0.58588061E+03</pdfrwt>
<pdfrwt beam="2">0</pdfrwt>
<totfact> 0.13523931E+03</totfact>
</mgrwt>
</event>
<event>
 6    1  0.1439793E-004  0.6610003E+03  0.7818608E-02  0.9786354E-01
         21   -1    0    0  501  502  0.00000000000E+00  0.00000000000E+00  0.56689220846E+03  0.56689220846E+03  0.00000000000E+00 0.  1.
         13   -1    0    0    0    0 -0.00000000000E+00 -0.00000000000E+00 -0.10000000000E+04  0.10000000000E+04  0.00000000000E+00 0.  1.
    9000005    2    1    2  501    0  0.40800657212E+02 -0.58650232275E+02 -0.88767376570E+03  0.11067457446E+04  0.65712775427E+03 0.  0.
         13    1    3    3    0    0 -0.21269976558E+03 -0.22079624188E+03 -0.22925155295E+03  0.38281646416E+03  0.00000000000E+00 0.  1.
          3    1    3    3  501    0  0.25350042279E+03  0.16214600960E+03 -0.65842221275E+03  0.72392928040E+03  0.00000000000E+00 0.  1.
         -1    1    1    2    0  502 -0.40800657212E+02  0.58650232275E+02  0.45456597415E+03  0.46014646389E+03  0.00000000000E+00 0. -1.
<mgrwt>
<rscale>  1 0.66100032E+03</rscale>
<asrwt>0</asrwt>
<pdfrwt beam="1">  1       21 0.87214183E-01 0.66100032E+03</pdfrwt>
<pdfrwt beam="2">0</pdfrwt>
<totfact> 0.10070217E+02</totfact>
</mgrwt>
</event>
<event>
 6    1  0.1439793E-004  0.6516148E+03  0.7818608E-02  0.9803754E-01
         21   -1    0    0  501  502  0.00000000000E+00  0.00000000000E+00  0.12317627777E+03  0.12317627777E+03  0.00000000000E+00 0.  1.
         13   -1    0    0    0    0 -0.00000000000E+00 -0.00000000000E+00 -0.10000000000E+04  0.10000000000E+04  0.00000000000E+00 0.  1.
    9000005    2    1    2  501    0 -0.31743298564E+02  0.27675123199E+02 -0.85710255093E+03  0.10766738687E+04  0.65025247971E+03 0.  0.
         13    1    3    3    0    0  0.22941835623E+03  0.20939184057E+03 -0.56504539055E+03  0.64478990257E+03  0.00000000000E+00 0.  1.
          3    1    3    3  501    0 -0.26116165479E+03 -0.18171671737E+03 -0.29205716038E+03  0.43188396617E+03  0.00000000000E+00 0.  1.
         -3    1    1    2    0  502  0.31743298564E+02 -0.27675123199E+02 -0.19721171303E+02  0.46502409028E+02  0.00000000000E+00 0. -1.
<mgrwt>
<rscale>  1 0.65161479E+03</rscale>
<asrwt>0</asrwt>
<pdfrwt beam="1">  1       21 0.18950196E-01 0.65161479E+03</pdfrwt>
<pdfrwt beam="2">0</pdfrwt>
<totfact> 0.24879210E+03</totfact>
</mgrwt>
</event>
<event>
 6    1  0.1439793E-004  0.6495037E+03  0.7818608E-02  0.9807711E-01
         21   -1    0    0  501  502  0.00000000000E+00  0.00000000000E+00  0.38892477738E+03  0.38892477738E+03  0.00000000000E+00 0. -1.
         13   -1    0    0    0    0 -0.00000000000E+00 -0.00000000000E+00 -0.10000000000E+04  0.10000000000E+04  0.00000000000E+00 0.  1.
    9000005    2    1    2  501    0  0.88725893576E+02  0.27780942232E+02 -0.88607810908E+03  0.10986306980E+04  0.64281484917E+03 0.  0.
         13    1    3    3    0    0  0.23783217828E+02 -0.21087394437E+03 -0.38464942978E+02  0.21566875922E+03  0.00000000000E+00 0.  1.
          3    1    3    3  501    0  0.64942675748E+02  0.23865488660E+03 -0.84761316611E+03  0.88296193881E+03  0.00000000000E+00 0.  1.
         -3    1    1    2    0  502 -0.88725893576E+02 -0.27780942232E+02  0.27500288647E+03  0.29029407935E+03  0.00000000000E+00 0. -1.
<mgrwt>
<rscale>  1 0.64950365E+03</rscale>
<asrwt>0</asrwt>
<pdfrwt beam="1">  1       21 0.59834579E-01 0.64950365E+03</pdfrwt>
<pdfrwt beam="2">0</pdfrwt>
<totfact> 0.23869881E+02</totfact>
</mgrwt>
</event>
<event>
 6    1  0.1439793E-004  0.6721654E+03  0.7818608E-02  0.9766054E-01
         21   -1    0    0  501  502  0.00000000000E+00  0.00000000000E+00  0.18665905818E+03  0.18665905818E+03  0.00000000000E+00 0.  1.
         13   -1    0    0    0    0 -0.00000000000E+00 -0.00000000000E+00 -0.10000000000E+04  0.10000000000E+04  0.00000000000E+00 0.  1.
    9000005    2    1    2  501    0  0.45693841565E+02 -0.15280264983E+03 -0.76851582500E+03  0.10209911130E+04  0.65296990945E+03 0.  0.
         13    1    3    3    0    0  0.92787202905E+02 -0.40133969400E+03 -0.40134601910E+03  0.57511880690E+03  0.00000000000E+00 0.  1.
          1    1    3    3  501    0 -0.47093361340E+02  0.24853704416E+03 -0.36716980590E+03  0.44587230612E+03  0.00000000000E+00 0.  1.
         -3    1    1    2    0  502 -0.45693841565E+02  0.15280264983E+03 -0.44825116824E+02  0.16566794515E+03  0.00000000000E+00 0. -1.
<mgrwt>
<rscale>  1 0.67216537E+03</rscale>
<asrwt>0</asrwt>
<pdfrwt beam="1">  1       21 0.28716777E-01 0.67216537E+03</pdfrwt>
<pdfrwt beam="2">0</pdfrwt>
<totfact> 0.11059087E+03</totfact>
</mgrwt>
</event>
<event>
 6    1  0.1439793E-004  0.6535719E+03  0.7818608E-02  0.9800100E-01
         21   -1    0    0  501  502  0.00000000000E+00  0.00000000000E+00  0.14316432322E+03  0.14316432322E+03  0.00000000000E+00 0.  1.
         13   -1    0    0    0    0 -0.00000000000E+00 -0.00000000000E+00 -0.10000000000E+04  0.10000000000E+04  0.00000000000E+00 0.  1.
    9000005    2    1    2  501    0  0.16210904315E+02  0.16717798269E+02 -0.88903811260E+03  0.11034242292E+04  0.65315693811E+03 0.  0.
         13    1    3    3    0    0 -0.28584671248E+03  0.61522557553E+01 -0.67503869795E+03  0.73309169755E+03  0.00000000000E+00 0.  1.
          1    1    3    3  501    0  0.30205761679E+03  0.10565542513E+02 -0.21399941464E+03  0.37033253168E+03  0.00000000000E+00 0.  1.
         -1    1    1    2    0  502 -0.16210904315E+02 -0.16717798269E+02  0.32202435820E+02  0.39740093991E+02  0.00000000000E+00 0. -1.
<mgrwt>
<rscale>  1 0.65357193E+03</rscale>
<asrwt>0</asrwt>
<pdfrwt beam="1">  1       21 0.22025280E-01 0.65357193E+03</pdfrwt>
<pdfrwt beam="2">0</pdfrwt>
<totfact> 0.18633791E+03</totfact>
</mgrwt>
</event>
<event>
 6    1  0.1439793E-004  0.6856869E+03  0.7818608E-02  0.9742028E-01
         21   -1    0    0  501  502  0.00000000000E+00  0.00000000000E+00  0.24626869630E+03  0.24626869630E+03  0.00000000000E+00 0. -1.
         13   -1    0    0    0    0 -0.00000000000E+00 -0.00000000000E+00 -0.10000000000E+04  0.10000000000E+04  0.00000000000E+00 0.  1.
    9000005    2    1    2  501    0  0.14736595229E+03 -0.14260539755E+03 -0.78111710358E+03  0.10393798243E+04  0.65430380286E+03 0.  0.
         13    1    3    3    0    0  0.91257787610E+02 -0.40376470704E+03 -0.53245176840E+03  0.67443221166E+03  0.00000000000E+00 0.  1.
          3    1    3    3  501    0  0.56108164682E+02  0.26115930949E+03 -0.24866533517E+03  0.36494761267E+03  0.00000000000E+00 0.  1.
         -1    1    1    2    0  502 -0.14736595229E+03  0.14260539755E+03  0.27385799871E+02  0.20688887196E+03  0.00000000000E+00 0. -1.
<mgrwt>
<rscale>  1 0.68568687E+03</rscale>
<asrwt>0</asrwt>
<pdfrwt beam="1">  1       21 0.37887491E-01 0.68568687E+03</pdfrwt>
<pdfrwt beam="2">0</pdfrwt>
<totfact> 0.63010409E+02</totfact>
</mgrwt>
</event>
<event>
 6    1  0.1439793E-004  0.6692908E+03  0.7818608E-02  0.9771240E-01
         21   -1    0    0  501  502  0.00000000000E+00  0.00000000000E+00  0.18076571251E+03  0.18076571251E+03  0.00000000000E+00 0.  1.
         13   -1    0    0    0    0 -0.00000000000E+00 -0.00000000000E+00 -0.10000000000E+04  0.10000000000E+04  0.00000000000E+00 0.  1.
    9000005    2    1    2  501    0 -0.11604177087E+03 -0.91082383666E+01 -0.82724869672E+03  0.10640914508E+04  0.65909146318E+03 0.  0.
         13    1    3    3    0    0 -0.24958470521E+02  0.30419485897E+03 -0.22516291680E+03  0.37928324057E+03  0.00000000000E+00 0.  1.
          3    1    3    3  501    0 -0.91083300350E+02 -0.31330309734E+03 -0.60208577992E+03  0.68480821022E+03  0.00000000000E+00 0.  1.
         -1    1    1    2    0  502  0.11604177087E+03  0.91082383666E+01  0.80144092350E+01  0.11667426172E+03  0.00000000000E+00 0. -1.
<mgrwt>
<rscale>  1 0.66929083E+03</rscale>
<asrwt>0</asrwt>
<pdfrwt beam="1">  1       21 0.27810109E-01 0.66929083E+03</pdfrwt>
<pdfrwt beam="2">0</pdfrwt>
<totfact> 0.11789945E+03</totfact>
</mgrwt>
</event>
<event>
 6    1  0.1439793E-004  0.6456537E+03  0.7818608E-02  0.9814969E-01
         21   -1    0    0  501  502  0.00000000000E+00  0.00000000000E+00  0.13694826245E+03  0.13694826245E+03  0.00000000000E+00 0.  1.
         13   -1    0    0    0    0 -0.00000000000E+00 -0.00000000000E+00 -0.10000000000E+04  0.10000000000E+04  0.00000000000E+00 0.  1.
    9000005    2    1    2  501    0 -0.10402704076E+02  0.60575770667E+02 -0.86002357515E+03  0.10754112003E+04  0.64272160363E+03 0.  0.
         13    1    3    3    0    0 -0.86155773088E+02  0.22037156957E+03 -0.44283799418E+02  0.24072287137E+03  0.00000000000E+00 0.  1.
          3    1    3    3  501    0  0.75753069012E+02 -0.15979579890E+03 -0.81573977573E+03  0.83468832898E+03  0.00000000000E+00 0.  1.
         -3    1    1    2    0  502  0.10402704076E+02 -0.60575770667E+02 -0.30281624003E+01  0.61537062097E+02  0.00000000000E+00 0. -1.
<mgrwt>
<rscale>  1 0.64565370E+03</rscale>
<asrwt>0</asrwt>
<pdfrwt beam="1">  1       21 0.21068963E-01 0.64565370E+03</pdfrwt>
<pdfrwt beam="2">0</pdfrwt>
<totfact> 0.20308667E+03</totfact>
</mgrwt>
</event>
<event>
 6    1  0.1439793E-004  0.6451984E+03  0.7818608E-02  0.9815831E-01
         21   -1    0    0  501  502  0.00000000000E+00  0.00000000000E+00  0.12067966576E+03  0.12067966576E+03  0.00000000000E+00 0.  1.
         13   -1    0    0    0    0 -0.00000000000E+00 -0.00000000000E+00 -0.10000000000E+04  0.10000000000E+04  0.00000000000E+00 0.  1.
    9000005    2    1    2  501    0  0.43434684506E+02 -0.91065444444E+01 -0.85138491984E+03  0.10682402879E+04  0.64367035821E+03 0.  0.
         13    1    3    3    0    0  0.10295375087E+03  0.18006445460E+03 -0.84472215742E+03  0.86981504118E+03  0.00000000000E+00 0.  1.
          3    1    3    3  501    0 -0.59519066362E+02 -0.18917099904E+03 -0.66627624145E+01  0.19842524674E+03  0.00000000000E+00 0.  1.
         -1    1    1    2    0  502 -0.43434684506E+02  0.91065444444E+01 -0.27935414404E+02  0.52439377836E+02  0.00000000000E+00 0. -1.
<mgrwt>
<rscale>  1 0.64519844E+03</rscale>
<asrwt>0</asrwt>
<pdfrwt beam="1">  1       21 0.18566102E-01 0.64519844E+03</pdfrwt>
<pdfrwt beam="2">0</pdfrwt>
<totfact> 0.25874999E+03</totfact>
</mgrwt>
</event>
<event>
 6    1  0.1439793E-004  0.6506989E+03  0.7818608E-02  0.9805469E-01
         21   -1    0    0  501  502  0.00000000000E+00  0.00000000000E+00  0.19450248367E+03  0.19450248367E+03  0.00000000000E+00 0. -1.
         13   -1    0    0    0    0 -0.00000000000E+00 -0.00000000000E+00 -0.10000000000E+04  0.10000000000E+04  0.00000000000E+00 0.  1.
    9000005    2    1    2  501    0  0.69568931830E+01  0.61126134807E+02 -0.88217588139E+03  0.10961949337E+04  0.64778410305E+03 0.  0.
         13    1    3    3    0    0  0.73114577338E+02  0.31162145447E+03 -0.22915746811E+03  0.39365824962E+03  0.00000000000E+00 0.  1.
          1    1    3    3  501    0 -0.66157684155E+02 -0.25049531966E+03 -0.65301841328E+03  0.70253668404E+03  0.00000000000E+00 0.  1.
         -3    1    1    2    0  502 -0.69568931830E+01 -0.61126134807E+02  0.76678365061E+02  0.98307550003E+02  0.00000000000E+00 0. -1.
<mgrwt>
<rscale>  1 0.65069889E+03</rscale>
<asrwt>0</asrwt>
<pdfrwt beam="1">  1       21 0.29923458E-01 0.65069889E+03</pdfrwt>
<pdfrwt beam="2">0</pdfrwt>
<totfact> 0.10199522E+03</totfact>
</mgrwt>
</event>
<event>
 6    1  0.1439793E-004  0.6529671E+03  0.7818608E-02  0.9801227E-01
         21   -1    0    0  501  502  0.00000000000E+00  0.00000000000E+00  0.15081729156E+03  0.15081729156E+03  0.00000000000E+00 0.  1.
         13   -1    0    0    0    0 -0.00000000000E+00 -0.00000000000E+00 -0.10000000000E+04  0.10000000000E+04  0.00000000000E+00 0.  1.
    9000005    2    1    2  501    0 -0.27322911795E+02  0.10342990180E+02 -0.88800296529E+03  0.11022319924E+04  0.65231325275E+03 0.  0.
         13    1    3    3    0    0 -0.28954591512E+03 -0.12081139079E+03 -0.25382304650E+03  0.40355714347E+03  0.00000000000E+00 0.  1.
          3    1    3    3  501    0  0.26222300332E+03  0.13115438097E+03 -0.63417991878E+03  0.69867484891E+03  0.00000000000E+00 0.  1.
         -1    1    1    2    0  502  0.27322911795E+02 -0.10342990180E+02  0.38820256852E+02  0.48585299184E+02  0.00000000000E+00 0. -1.
<mgrwt>
<rscale>  1 0.65296715E+03</rscale>
<asrwt>0</asrwt>
<pdfrwt beam="1">  1       21 0.23202660E-01 0.65296715E+03</pdfrwt>
<pdfrwt beam="2">0</pdfrwt>
<totfact> 0.16843212E+03</totfact>
</mgrwt>
</event>
<event>
 6    1  0.1439793E-004  0.6837662E+03  0.7818608E-02  0.9745404E-01
         21   -1    0    0  501  502  0.00000000000E+00  0.00000000000E+00  0.22841411655E+03  0.22841411655E+03  0.00000000000E+00 0. -1.
         13   -1    0    0    0    0 -0.00000000000E+00 -0.00000000000E+00 -0.10000000000E+04  0.10000000000E+04  0.00000000000E+00 0.  1.
    9000005    2    1    2  501    0  0.20805377436E+03  0.17695605057E+02 -0.75551856369E+03  0.10189918966E+04  0.65110419880E+03 0.  0.
         13    1    3    3    0    0  0.78189005130E+02 -0.32549143952E+02 -0.84775049106E+03  0.85197057601E+03  0.00000000000E+00 0.  1.
          3    1    3    3  501    0  0.12986476923E+03  0.50244749009E+02  0.92231927370E+02  0.16702132054E+03  0.00000000000E+00 0.  1.
         -1    1    1    2    0  502 -0.20805377436E+03 -0.17695605057E+02 -0.16067319760E+02  0.20942221999E+03  0.00000000000E+00 0. -1.
<mgrwt>
<rscale>  1 0.68376618E+03</rscale>
<asrwt>0</asrwt>
<pdfrwt beam="1">  1       21 0.35140632E-01 0.68376618E+03</pdfrwt>
<pdfrwt beam="2">0</pdfrwt>
<totfact> 0.73542738E+02</totfact>
</mgrwt>
</event>
<event>
 6    1  0.1439793E-004  0.6547762E+03  0.7818608E-02  0.9797858E-01
         21   -1    0    0  501  502  0.00000000000E+00  0.00000000000E+00  0.52745377200E+03  0.52745377200E+03  0.00000000000E+00 0. -1.
         13   -1    0    0    0    0 -0.00000000000E+00 -0.00000000000E+00 -0.10000000000E+04  0.10000000000E+04  0.00000000000E+00 0.  1.
    9000005    2    1    2  501    0  0.32649933871E+02  0.15420802085E+01 -0.89211320437E+03  0.11066155087E+04  0.65395987531E+03 0.  0.
         13    1    3    3    0    0 -0.48968006323E+02 -0.29584860600E+03 -0.64547493113E+03  0.71173179642E+03  0.00000000000E+00 0.  1.
          1    1    3    3  501    0  0.81617940194E+02  0.29739068621E+03 -0.24663827323E+03  0.39488371229E+03  0.00000000000E+00 0.  1.
         -3    1    1    2    0  502 -0.32649933871E+02 -0.15420802085E+01  0.41956697637E+03  0.42083826329E+03  0.00000000000E+00 0. -1.
<mgrwt>
<rscale>  1 0.65477623E+03</rscale>
<asrwt>0</asrwt>
<pdfrwt beam="1">  1       21 0.81146732E-01 0.65477623E+03</pdfrwt>
<pdfrwt beam="2">0</pdfrwt>
<totfact> 0.11944899E+02</totfact>
</mgrwt>
</event>
<event>
 6    1  0.1439793E-004  0.6640951E+03  0.7818608E-02  0.9780684E-01
         21   -1    0    0  501  502  0.00000000000E+00  0.00000000000E+00  0.15448610487E+03  0.15448610487E+03  0.00000000000E+00 0.  1.
         13   -1    0    0    0    0 -0.00000000000E+00 -0.00000000000E+00 -0.10000000000E+04  0.10000000000E+04  0.00000000000E+00 0.  1.
    9000005    2    1    2  501    0  0.32981825934E+02 -0.28882937116E+02 -0.87731927950E+03  0.11003233190E+04  0.66264640892E+03 0.  0.
         13    1    3    3    0    0  0.23308964809E+03 -0.16028709218E+03 -0.12217117474E+03  0.30813719656E+03  0.00000000000E+00 0.  1.
          3    1    3    3  501    0 -0.20010782216E+03  0.13140415507E+03 -0.75514810476E+03  0.79218612244E+03  0.00000000000E+00 0.  1.
         -3    1    1    2    0  502 -0.32981825934E+02  0.28882937116E+02  0.31805384368E+02  0.54162785870E+02  0.00000000000E+00 0. -1.
<mgrwt>
<rscale>  1 0.66409509E+03</rscale>
<asrwt>0</asrwt>
<pdfrwt beam="1">  1       21 0.23767092E-01 0.66409509E+03</pdfrwt>
<pdfrwt beam="2">0</pdfrwt>
<totfact> 0.16064145E+03</totfact>
</mgrwt>
</event>
<event>
 6    1  0.1439793E-004  0.5493604E+03  0.7818608E-02  0.1001642E+00
         21   -1    0    0  501  502  0.00000000000E+00  0.00000000000E+00  0.31789246560E+03  0.31789246560E+03  0.00000000000E+00 0. -1.
         13   -1    0    0    0    0 -0.00000000000E+00 -0.00000000000E+00 -0.10000000000E+04  0.10000000000E+04  0.00000000000E+00 0.  1.
    9000005    2    1    2  501    0  0.12211024011E+02 -0.55535718133E+02 -0.92096054197E+03  0.10723642914E+04  0.54640967099E+03 0.  0.
         13    1    3    3    0    0  0.26348508034E+03 -0.11874897577E+03 -0.44940985140E+03  0.53431724784E+03  0.00000000000E+00 0.  1.
          1    1    3    3  501    0 -0.25127405633E+03  0.63213257637E+02 -0.47155069056E+03  0.53804704357E+03  0.00000000000E+00 0.  1.
         -1    1    1    2    0  502 -0.12211024011E+02  0.55535718133E+02  0.23885300757E+03  0.24552817419E+03  0.00000000000E+00 0. -1.
<mgrwt>
<rscale>  1 0.54936040E+03</rscale>
<asrwt>0</asrwt>
<pdfrwt beam="1">  1       21 0.48906532E-01 0.54936040E+03</pdfrwt>
<pdfrwt beam="2">0</pdfrwt>
<totfact> 0.37364889E+02</totfact>
</mgrwt>
</event>
<event>
 6    1  0.1439793E-004  0.6506543E+03  0.7818608E-02  0.9805552E-01
         21   -1    0    0  501  502  0.00000000000E+00  0.00000000000E+00  0.12700059652E+03  0.12700059652E+03  0.00000000000E+00 0.  1.
         13   -1    0    0    0    0 -0.00000000000E+00 -0.00000000000E+00 -0.10000000000E+04  0.10000000000E+04  0.00000000000E+00 0.  1.
    9000005    2    1    2  501    0  0.25516615910E+02  0.80955413173E+01 -0.88435391287E+03  0.10979220759E+04  0.65010338109E+03 0.  0.
         13    1    3    3    0    0 -0.12765002973E+03  0.22916767965E+03 -0.75541206824E+03  0.79966227142E+03  0.00000000000E+00 0.  1.
          1    1    3    3  501    0  0.15316664564E+03 -0.22107213834E+03 -0.12894184463E+03  0.29825980450E+03  0.00000000000E+00 0.  1.
         -3    1    1    2    0  502 -0.25516615910E+02 -0.80955413173E+01  0.11354509390E+02  0.29078520599E+02  0.00000000000E+00 0. -1.
<mgrwt>
<rscale>  1 0.65065432E+03</rscale>
<asrwt>0</asrwt>
<pdfrwt beam="1">  1       21 0.19538553E-01 0.65065432E+03</pdfrwt>
<pdfrwt beam="2">0</pdfrwt>
<totfact> 0.23468194E+03</totfact>
</mgrwt>
</event>
<event>
 6    1  0.1439793E-004  0.6556129E+03  0.7818608E-02  0.9796304E-01
         21   -1    0    0  501  502  0.00000000000E+00  0.00000000000E+00  0.34694769198E+03  0.34694769198E+03  0.00000000000E+00 0. -1.
         13   -1    0    0    0    0 -0.00000000000E+00 -0.00000000000E+00 -0.10000000000E+04  0.10000000000E+04  0.00000000000E+00 0.  1.
    9000005    2    1    2  501    0  0.50926753789E+02 -0.70015360834E+02 -0.88383995021E+03  0.11004550536E+04  0.64987120443E+03 0.  0.
         13    1    3    3    0    0 -0.27196101625E+03 -0.16569859762E+03 -0.41079203512E+03  0.51977775609E+03  0.00000000000E+00 0.  1.
          3    1    3    3  501    0  0.32288777004E+03  0.95683236782E+02 -0.47304791509E+03  0.58067729748E+03  0.00000000000E+00 0.  1.
         -1    1    1    2    0  502 -0.50926753789E+02  0.70015360834E+02  0.23078764219E+03  0.24649263841E+03  0.00000000000E+00 0. -1.
<mgrwt>
<rscale>  1 0.65561289E+03</rscale>
<asrwt>0</asrwt>
<pdfrwt beam="1">  1       21 0.53376566E-01 0.65561289E+03</pdfrwt>
<pdfrwt beam="2">0</pdfrwt>
<totfact> 0.30621891E+02</totfact>
</mgrwt>
</event>
<event>
 6    1  0.1439793E-004  0.6602117E+03  0.7818608E-02  0.9787804E-01
         21   -1    0    0  501  502  0.00000000000E+00  0.00000000000E+00  0.37701817096E+03  0.37701817096E+03  0.00000000000E+00 0. -1.
         13   -1    0    0    0    0 -0.00000000000E+00 -0.00000000000E+00 -0.10000000000E+04  0.10000000000E+04  0.00000000000E+00 0.  1.
    9000005    2    1    2  501    0  0.40505877338E+02 -0.61021364640E+02 -0.88546763968E+03  0.11045055404E+04  0.65613658240E+03 0.  0.
         13    1    3    3    0    0  0.11136946344E+03 -0.11795141181E+03  0.45996931503E+02  0.16861616365E+03  0.00000000000E+00 0.  1.
          1    1    3    3  501    0 -0.70863586104E+02  0.56930047174E+02 -0.93146457118E+03  0.93588937673E+03  0.00000000000E+00 0.  1.
         -1    1    1    2    0  502 -0.40505877338E+02  0.61021364640E+02  0.26248581063E+03  0.27251263058E+03  0.00000000000E+00 0. -1.
<mgrwt>
<rscale>  1 0.66021174E+03</rscale>
<asrwt>0</asrwt>
<pdfrwt beam="1">  1       21 0.58002794E-01 0.66021174E+03</pdfrwt>
<pdfrwt beam="2">0</pdfrwt>
<totfact> 0.25533218E+02</totfact>
</mgrwt>
</event>
<event>
 6    1  0.1439793E-004  0.6588645E+03  0.7818608E-02  0.9790286E-01
         21   -1    0    0  501  502  0.00000000000E+00  0.00000000000E+00  0.13988033273E+03  0.13988033273E+03  0.00000000000E+00 0.  1.
         13   -1    0    0    0    0 -0.00000000000E+00 -0.00000000000E+00 -0.10000000000E+04  0.10000000000E+04  0.00000000000E+00 0.  1.
    9000005    2    1    2  501    0 -0.18876831582E+02 -0.79844686337E+02 -0.80842781984E+03  0.10429083997E+04  0.65373609471E+03 0.  0.
         13    1    3    3    0    0 -0.18050989040E+03 -0.19917105599E+03 -0.79763658422E+03  0.84171078796E+03  0.00000000000E+00 0.  1.
          1    1    3    3  501    0  0.16163305882E+03  0.11932636965E+03 -0.10791235621E+02  0.20119761173E+03  0.00000000000E+00 0.  1.
         -3    1    1    2    0  502  0.18876831582E+02  0.79844686337E+02 -0.51691847431E+02  0.96971933041E+02  0.00000000000E+00 0. -1.
<mgrwt>
<rscale>  1 0.65886447E+03</rscale>
<asrwt>0</asrwt>
<pdfrwt beam="1">  1       21 0.21520051E-01 0.65886447E+03</pdfrwt>
<pdfrwt beam="2">0</pdfrwt>
<totfact> 0.19484434E+03</totfact>
</mgrwt>
</event>
<event>
 6    1  0.1439793E-004  0.6612918E+03  0.7818608E-02  0.9785819E-01
         21   -1    0    0  501  502  0.00000000000E+00  0.00000000000E+00  0.28266906150E+03  0.28266906150E+03  0.00000000000E+00 0. -1.
         13   -1    0    0    0    0 -0.00000000000E+00 -0.00000000000E+00 -0.10000000000E+04  0.10000000000E+04  0.00000000000E+00 0.  1.
    9000005    2    1    2  501    0 -0.40943675780E+02 -0.72124419393E+02 -0.87958716155E+03  0.11004455768E+04  0.65607055738E+03 0.  0.
         13    1    3    3    0    0 -0.10841201086E+02 -0.35230196639E+03 -0.33005761651E+03  0.48287911260E+03  0.00000000000E+00 0.  1.
          3    1    3    3  501    0 -0.30102474693E+02  0.28017754700E+03 -0.54952954504E+03  0.61756646419E+03  0.00000000000E+00 0.  1.
         -3    1    1    2    0  502  0.40943675780E+02  0.72124419393E+02  0.16225622305E+03  0.18222348470E+03  0.00000000000E+00 0. -1.
<mgrwt>
<rscale>  1 0.66129184E+03</rscale>
<asrwt>0</asrwt>
<pdfrwt beam="1">  1       21 0.43487547E-01 0.66129184E+03</pdfrwt>
<pdfrwt beam="2">0</pdfrwt>
<totfact> 0.47381840E+02</totfact>
</mgrwt>
</event>
<event>
 6    1  0.1439793E-004  0.6215841E+03  0.7818608E-02  0.9861611E-01
         21   -1    0    0  501  502  0.00000000000E+00  0.00000000000E+00  0.17728024877E+03  0.17728024877E+03  0.00000000000E+00 0.  1.
         13   -1    0    0    0    0 -0.00000000000E+00 -0.00000000000E+00 -0.10000000000E+04  0.10000000000E+04  0.00000000000E+00 0.  1.
    9000005    2    1    2  501    0 -0.30854130026E+02 -0.16684157180E+02 -0.89920735433E+03  0.10931334017E+04  0.62059361053E+03 0.  0.
         13    1    3    3    0    0  0.16223774736E+03 -0.15448776266E+03 -0.76216629917E+02  0.23663585983E+03  0.00000000000E+00 0.  1.
          1    1    3    3  501    0 -0.19309187739E+03  0.13780360548E+03 -0.82299072441E+03  0.85649754189E+03  0.00000000000E+00 0.  1.
         -1    1    1    2    0  502  0.30854130026E+02  0.16684157180E+02  0.76487603103E+02  0.84146847053E+02  0.00000000000E+00 0. -1.
<mgrwt>
<rscale>  1 0.62158408E+03</rscale>
<asrwt>0</asrwt>
<pdfrwt beam="1">  1       21 0.27273884E-01 0.62158408E+03</pdfrwt>
<pdfrwt beam="2">0</pdfrwt>
<totfact> 0.12287953E+03</totfact>
</mgrwt>
</event>
<event>
 6    1  0.1439793E-004  0.6505066E+03  0.7818608E-02  0.9805829E-01
         21   -1    0    0  501  502  0.00000000000E+00  0.00000000000E+00  0.17352140063E+03  0.17352140063E+03  0.00000000000E+00 0.  1.
         13   -1    0    0    0    0 -0.00000000000E+00 -0.00000000000E+00 -0.10000000000E+04  0.10000000000E+04  0.00000000000E+00 0.  1.
    9000005    2    1    2  501    0  0.67907458621E+02 -0.53058188971E+02 -0.86233980271E+03  0.10801799829E+04  0.64477303436E+03 0.  0.
         13    1    3    3    0    0  0.31874267727E+03  0.45577669859E+02 -0.23878192923E+03  0.40086285439E+03  0.00000000000E+00 0.  1.
          3    1    3    3  501    0 -0.25083521864E+03 -0.98635858830E+02 -0.62355787348E+03  0.67931712855E+03  0.00000000000E+00 0.  1.
         -1    1    1    2    0  502 -0.67907458621E+02  0.53058188971E+02  0.35861203339E+02  0.93341417700E+02  0.00000000000E+00 0. -1.
<mgrwt>
<rscale>  1 0.65050662E+03</rscale>
<asrwt>0</asrwt>
<pdfrwt beam="1">  1       21 0.26695599E-01 0.65050662E+03</pdfrwt>
<pdfrwt beam="2">0</pdfrwt>
<totfact> 0.12797986E+03</totfact>
</mgrwt>
</event>
<event>
 6    1  0.1439793E-004  0.6453370E+03  0.7818608E-02  0.9815569E-01
         21   -1    0    0  501  502  0.00000000000E+00  0.00000000000E+00  0.12159773232E+03  0.12159773232E+03  0.00000000000E+00 0.  1.
         13   -1    0    0    0    0 -0.00000000000E+00 -0.00000000000E+00 -0.10000000000E+04  0.10000000000E+04  0.00000000000E+00 0.  1.
    9000005    2    1    2  501    0  0.47651980031E+02 -0.12268002733E+01 -0.84566366476E+03  0.10637701233E+04  0.64357410231E+03 0.  0.
         13    1    3    3    0    0  0.78499248793E+02 -0.22951190266E+03 -0.66858561466E+02  0.25161063723E+03  0.00000000000E+00 0.  1.
          1    1    3    3  501    0 -0.30847268762E+02  0.22828510239E+03 -0.77880510330E+03  0.81215948611E+03  0.00000000000E+00 0.  1.
         -3    1    1    2    0  502 -0.47651980031E+02  0.12268002733E+01 -0.32738602916E+02  0.57827608983E+02  0.00000000000E+00 0. -1.
<mgrwt>
<rscale>  1 0.64533700E+03</rscale>
<asrwt>0</asrwt>
<pdfrwt beam="1">  1       21 0.18707343E-01 0.64533700E+03</pdfrwt>
<pdfrwt beam="2">0</pdfrwt>
<totfact> 0.25504341E+03</totfact>
</mgrwt>
</event>
<event>
 6    1  0.1439793E-004  0.6452979E+03  0.7818608E-02  0.9815642E-01
         21   -1    0    0  501  502  0.00000000000E+00  0.00000000000E+00  0.13212845664E+03  0.13212845664E+03  0.00000000000E+00 0.  1.
         13   -1    0    0    0    0 -0.00000000000E+00 -0.00000000000E+00 -0.10000000000E+04  0.10000000000E+04  0.00000000000E+00 0.  1.
    9000005    2    1    2  501    0  0.24523071390E+02  0.95990812215E+01 -0.88889729452E+03  0.10984297089E+04  0.64476034438E+03 0.  0.
         13    1    3    3    0    0 -0.25745806302E+03 -0.15333156368E+03 -0.29161982215E+03  0.41813555614E+03  0.00000000000E+00 0.  1.
          3    1    3    3  501    0  0.28198113441E+03  0.16293064490E+03 -0.59727747237E+03  0.68029415271E+03  0.00000000000E+00 0.  1.
         -3    1    1    2    0  502 -0.24523071390E+02 -0.95990812215E+01  0.21025751164E+02  0.33698747791E+02  0.00000000000E+00 0. -1.
<mgrwt>
<rscale>  1 0.64529794E+03</rscale>
<asrwt>0</asrwt>
<pdfrwt beam="1">  1       21 0.20327454E-01 0.64529794E+03</pdfrwt>
<pdfrwt beam="2">0</pdfrwt>
<totfact> 0.21757990E+03</totfact>
</mgrwt>
</event>
<event>
 6    1  0.1439793E-004  0.6518649E+03  0.7818608E-02  0.9803286E-01
         21   -1    0    0  501  502  0.00000000000E+00  0.00000000000E+00  0.48053457401E+03  0.48053457401E+03  0.00000000000E+00 0. -1.
         13   -1    0    0    0    0 -0.00000000000E+00 -0.00000000000E+00 -0.10000000000E+04  0.10000000000E+04  0.00000000000E+00 0.  1.
    9000005    2    1    2  501    0  0.47942872904E+02  0.18524212977E+02 -0.89181491311E+03  0.11046545319E+04  0.64983546376E+03 0.  0.
         13    1    3    3    0    0  0.18603581914E+03 -0.26947604006E+03 -0.38300914733E+03  0.50390740132E+03  0.00000000000E+00 0.  1.
          3    1    3    3  501    0 -0.13809294624E+03  0.28800025303E+03 -0.50880576578E+03  0.60074713053E+03  0.00000000000E+00 0.  1.
         -3    1    1    2    0  502 -0.47942872904E+02 -0.18524212977E+02  0.37234948712E+03  0.37588004215E+03  0.00000000000E+00 0. -1.
<mgrwt>
<rscale>  1 0.65186486E+03</rscale>
<asrwt>0</asrwt>
<pdfrwt beam="1">  1       21 0.73928394E-01 0.65186486E+03</pdfrwt>
<pdfrwt beam="2">0</pdfrwt>
<totfact> 0.14826073E+02</totfact>
</mgrwt>
</event>
<event>
 6    1  0.1439793E-004  0.6466755E+03  0.7818608E-02  0.9813037E-01
         21   -1    0    0  501  502  0.00000000000E+00  0.00000000000E+00  0.21088930575E+03  0.21088930575E+03  0.00000000000E+00 0.  1.
         13   -1    0    0    0    0 -0.00000000000E+00 -0.00000000000E+00 -0.10000000000E+04  0.10000000000E+04  0.00000000000E+00 0.  1.
    9000005    2    1    2  501    0  0.46611771094E+02  0.44599887013E+01 -0.88972722697E+03  0.10999107702E+04  0.64497799591E+03 0.  0.
         13    1    3    3    0    0  0.28450697550E+03  0.65323170476E+02 -0.77640238720E+03  0.82946488929E+03  0.00000000000E+00 0.  1.
          1    1    3    3  501    0 -0.23789520440E+03 -0.60863181774E+02 -0.11332483977E+03  0.27044588087E+03  0.00000000000E+00 0.  1.
         -3    1    1    2    0  502 -0.46611771094E+02 -0.44599887013E+01  0.10061653272E+03  0.11097853558E+03  0.00000000000E+00 0. -1.
<mgrwt>
<rscale>  1 0.64667547E+03</rscale>
<asrwt>0</asrwt>
<pdfrwt beam="1">  1       21 0.32444508E-01 0.64667547E+03</pdfrwt>
<pdfrwt beam="2">0</pdfrwt>
<totfact> 0.86708061E+02</totfact>
</mgrwt>
</event>
<event>
 6    1  0.1439793E-004  0.6687323E+03  0.7818608E-02  0.9772251E-01
         21   -1    0    0  501  502  0.00000000000E+00  0.00000000000E+00  0.22930041558E+03  0.22930041558E+03  0.00000000000E+00 0. -1.
         13   -1    0    0    0    0 -0.00000000000E+00 -0.00000000000E+00 -0.10000000000E+04  0.10000000000E+04  0.00000000000E+00 0.  1.
    9000005    2    1    2  501    0  0.75588442193E+02 -0.43662701071E+02 -0.86985095849E+03  0.10971980347E+04  0.66301040209E+03 0.  0.
         13    1    3    3    0    0  0.22287002782E+03 -0.25284278137E+03 -0.22985126721E+03  0.40796093739E+03  0.00000000000E+00 0.  1.
          3    1    3    3  501    0 -0.14728158563E+03  0.20918008030E+03 -0.63999969127E+03  0.68923709730E+03  0.00000000000E+00 0.  1.
         -1    1    1    2    0  502 -0.75588442193E+02  0.43662701071E+02  0.99151374063E+02  0.13210238089E+03  0.00000000000E+00 0. -1.
<mgrwt>
<rscale>  1 0.66873226E+03</rscale>
<asrwt>0</asrwt>
<pdfrwt beam="1">  1       21 0.35276986E-01 0.66873226E+03</pdfrwt>
<pdfrwt beam="2">0</pdfrwt>
<totfact> 0.73040346E+02</totfact>
</mgrwt>
</event>
<event>
 6    1  0.1439793E-004  0.6480071E+03  0.7818608E-02  0.9810526E-01
         21   -1    0    0  501  502  0.00000000000E+00  0.00000000000E+00  0.48163053049E+03  0.48163053049E+03  0.00000000000E+00 0. -1.
         13   -1    0    0    0    0 -0.00000000000E+00 -0.00000000000E+00 -0.10000000000E+04  0.10000000000E+04  0.00000000000E+00 0.  1.
    9000005    2    1    2  501    0 -0.35463403520E+02  0.26559147428E+02 -0.89358127098E+03  0.11038118739E+04  0.64649062162E+03 0.  0.
         13    1    3    3    0    0  0.29592929397E+03 -0.61015306460E+02 -0.47259937799E+03  0.56093420891E+03  0.00000000000E+00 0.  1.
          1    1    3    3  501    0 -0.33139269749E+03  0.87574453888E+02 -0.42098189299E+03  0.54287766499E+03  0.00000000000E+00 0.  1.
         -1    1    1    2    0  502  0.35463403520E+02 -0.26559147428E+02  0.37521180147E+03  0.37781865659E+03  0.00000000000E+00 0. -1.
<mgrwt>
<rscale>  1 0.64800707E+03</rscale>
<asrwt>0</asrwt>
<pdfrwt beam="1">  1       21 0.74097003E-01 0.64800707E+03</pdfrwt>
<pdfrwt beam="2">0</pdfrwt>
<totfact> 0.14755830E+02</totfact>
</mgrwt>
</event>
<event>
 6    1  0.1439793E-004  0.6455232E+03  0.7818608E-02  0.9815216E-01
         21   -1    0    0  501  502  0.00000000000E+00  0.00000000000E+00  0.16967284005E+03  0.16967284005E+03  0.00000000000E+00 0. -1.
         13   -1    0    0    0    0 -0.00000000000E+00 -0.00000000000E+00 -0.10000000000E+04  0.10000000000E+04  0.00000000000E+00 0.  1.
    9000005    2    1    2  501    0  0.14524574456E+02 -0.35016679283E+02 -0.88971080354E+03  0.10992203865E+04  0.64440904166E+03 0.  0.
         13    1    3    3    0    0  0.16265520176E+03 -0.25079918542E+03 -0.19516842614E+03  0.35699812412E+03  0.00000000000E+00 0.  1.
          3    1    3    3  501    0 -0.14813062731E+03  0.21578250613E+03 -0.69454237740E+03  0.74222226233E+03  0.00000000000E+00 0.  1.
         -3    1    1    2    0  502 -0.14524574456E+02  0.35016679283E+02  0.59383643587E+02  0.70452453589E+02  0.00000000000E+00 0. -1.
<mgrwt>
<rscale>  1 0.64552316E+03</rscale>
<asrwt>0</asrwt>
<pdfrwt beam="1">  1       21 0.26103513E-01 0.64552316E+03</pdfrwt>
<pdfrwt beam="2">0</pdfrwt>
<totfact> 0.13380258E+03</totfact>
</mgrwt>
</event>
<event>
 6    1  0.1439793E-004  0.7790391E+03  0.7818608E-02  0.9590863E-01
         21   -1    0    0  501  502  0.00000000000E+00  0.00000000000E+00  0.19389012723E+03  0.19389012723E+03  0.00000000000E+00 0. -1.
         13   -1    0    0    0    0 -0.00000000000E+00 -0.00000000000E+00 -0.10000000000E+04  0.10000000000E+04  0.00000000000E+00 0.  1.
    9000005    2    1    2  501    0 -0.38385625394E+02  0.11132942914E+02 -0.83694773716E+03  0.11434087194E+04  0.77801323012E+03 0.  0.
         13    1    3    3    0    0  0.67566096998E+02  0.32178574431E+03 -0.11155009398E+03  0.34720983018E+03  0.00000000000E+00 0.  1.
          1    1    3    3  501    0 -0.10595172239E+03 -0.31065280140E+03 -0.72539764318E+03  0.79619888924E+03  0.00000000000E+00 0.  1.
         -3    1    1    2    0  502  0.38385625394E+02 -0.11132942914E+02  0.30837864389E+02  0.50481407814E+02  0.00000000000E+00 0. -1.
<mgrwt>
<rscale>  1 0.77903914E+03</rscale>
<asrwt>0</asrwt>
<pdfrwt beam="1">  1       21 0.29829249E-01 0.77903914E+03</pdfrwt>
<pdfrwt beam="2">0</pdfrwt>
<totfact> 0.10189076E+03</totfact>
</mgrwt>
</event>
<event>
 6    1  0.1439793E-004  0.6833015E+03  0.7818608E-02  0.9746223E-01
         21   -1    0    0  501  502  0.00000000000E+00  0.00000000000E+00  0.12621507993E+03  0.12621507993E+03  0.00000000000E+00 0.  1.
         13   -1    0    0    0    0 -0.00000000000E+00 -0.00000000000E+00 -0.10000000000E+04  0.10000000000E+04  0.00000000000E+00 0.  1.
    9000005    2    1    2  501    0  0.22504654711E+02  0.44086832426E+01 -0.86331461863E+03  0.11010054948E+04  0.68291659285E+03 0.  0.
         13    1    3    3    0    0 -0.11495418062E+03  0.31872969407E+03 -0.39361576703E+03  0.51936158269E+03  0.00000000000E+00 0.  1.
          1    1    3    3  501    0  0.13745883533E+03 -0.31432101083E+03 -0.46969885160E+03  0.58164391207E+03  0.00000000000E+00 0.  1.
         -1    1    1    2    0  502 -0.22504654711E+02 -0.44086832426E+01 -0.10470301447E+02  0.25209585161E+02  0.00000000000E+00 0. -1.
<mgrwt>
<rscale>  1 0.68330152E+03</rscale>
<asrwt>0</asrwt>
<pdfrwt beam="1">  1       21 0.19417704E-01 0.68330152E+03</pdfrwt>
<pdfrwt beam="2">0</pdfrwt>
<totfact> 0.23720020E+03</totfact>
</mgrwt>
</event>
<event>
 6    1  0.1439793E-004  0.6594761E+03  0.7818608E-02  0.9789159E-01
         21   -1    0    0  501  502  0.00000000000E+00  0.00000000000E+00  0.14199256829E+03  0.14199256829E+03  0.00000000000E+00 0.  1.
         13   -1    0    0    0    0 -0.00000000000E+00 -0.00000000000E+00 -0.10000000000E+04  0.10000000000E+04  0.00000000000E+00 0.  1.
    9000005    2    1    2  501    0 -0.89377657399E+02  0.18624465762E+02 -0.78388186054E+03  0.10243922423E+04  0.65312591318E+03 0.  0.
         13    1    3    3    0    0  0.27535703223E+03 -0.63860033509E+02 -0.29068937109E+03  0.40546258711E+03  0.00000000000E+00 0.  1.
          3    1    3    3  501    0 -0.36473468963E+03  0.82484499271E+02 -0.49319248945E+03  0.61892965521E+03  0.00000000000E+00 0.  1.
         -3    1    1    2    0  502  0.89377657399E+02 -0.18624465762E+02 -0.74125571177E+02  0.11760032597E+03  0.00000000000E+00 0. -1.
<mgrwt>
<rscale>  1 0.65947608E+03</rscale>
<asrwt>0</asrwt>
<pdfrwt beam="1">  1       21 0.21845010E-01 0.65947608E+03</pdfrwt>
<pdfrwt beam="2">0</pdfrwt>
<totfact> 0.18927561E+03</totfact>
</mgrwt>
</event>
<event>
 6    1  0.1439793E-004  0.6428359E+03  0.7818608E-02  0.9820316E-01
         21   -1    0    0  501  502  0.00000000000E+00  0.00000000000E+00  0.12481935530E+03  0.12481935530E+03  0.00000000000E+00 0.  1.
         13   -1    0    0    0    0 -0.00000000000E+00 -0.00000000000E+00 -0.10000000000E+04  0.10000000000E+04  0.00000000000E+00 0.  1.
    9000005    2    1    2  501    0  0.73495920607E+01 -0.59782591425E+02 -0.82834867557E+03  0.10485225135E+04  0.64000777979E+03 0.  0.
         13    1    3    3    0    0  0.66000672890E+02 -0.14141462199E+03  0.50437384027E+02  0.16400644452E+03  0.00000000000E+00 0.  1.
          1    1    3    3  501    0 -0.58651080830E+02  0.81632030567E+02 -0.87878605960E+03  0.88451606896E+03  0.00000000000E+00 0.  1.
         -1    1    1    2    0  502 -0.73495920607E+01  0.59782591425E+02 -0.46831969127E+02  0.76296841830E+02  0.00000000000E+00 0. -1.
<mgrwt>
<rscale>  1 0.64283585E+03</rscale>
<asrwt>0</asrwt>
<pdfrwt beam="1">  1       21 0.19202977E-01 0.64283585E+03</pdfrwt>
<pdfrwt beam="2">0</pdfrwt>
<totfact> 0.24265565E+03</totfact>
</mgrwt>
</event>
<event>
 6    1  0.1439793E-004  0.7038172E+03  0.7818608E-02  0.9710726E-01
         21   -1    0    0  501  502  0.00000000000E+00  0.00000000000E+00  0.26704725515E+03  0.26704725515E+03  0.00000000000E+00 0. -1.
         13   -1    0    0    0    0 -0.00000000000E+00 -0.00000000000E+00 -0.10000000000E+04  0.10000000000E+04  0.00000000000E+00 0.  1.
    9000005    2    1    2  501    0  0.75101907988E+02 -0.17892812132E+03 -0.79645264410E+03  0.10628713350E+04  0.67653757559E+03 0.  0.
         13    1    3    3    0    0  0.28288514902E+03  0.28971130217E+02 -0.90898043267E+02  0.29853942485E+03  0.00000000000E+00 0.  1.
          3    1    3    3  501    0 -0.20778324103E+03 -0.20789925154E+03 -0.70555460083E+03  0.76433191010E+03  0.00000000000E+00 0.  1.
         -3    1    1    2    0  502 -0.75101907988E+02  0.17892812132E+03  0.63499899252E+02  0.20417592020E+03  0.00000000000E+00 0. -1.
<mgrwt>
<rscale>  1 0.70381721E+03</rscale>
<asrwt>0</asrwt>
<pdfrwt beam="1">  1       21 0.41084192E-01 0.70381721E+03</pdfrwt>
<pdfrwt beam="2">0</pdfrwt>
<totfact> 0.53191103E+02</totfact>
</mgrwt>
</event>
<event>
 6    1  0.1439793E-004  0.6613667E+03  0.7818608E-02  0.9785681E-01
         21   -1    0    0  501  502  0.00000000000E+00  0.00000000000E+00  0.24317168910E+03  0.24317168910E+03  0.00000000000E+00 0. -1.
         13   -1    0    0    0    0 -0.00000000000E+00 -0.00000000000E+00 -0.10000000000E+04  0.10000000000E+04  0.00000000000E+00 0.  1.
    9000005    2    1    2  501    0  0.66657677153E+02  0.35229911999E+02 -0.87874991565E+03  0.10998215223E+04  0.65705522903E+03 0.  0.
         13    1    3    3    0    0  0.15683664525E+03  0.26871665552E+03 -0.18426126325E+03  0.36160556879E+03  0.00000000000E+00 0.  1.
          1    1    3    3  501    0 -0.90178968094E+02 -0.23348674352E+03 -0.69448865240E+03  0.73821595349E+03  0.00000000000E+00 0.  1.
         -1    1    1    2    0  502 -0.66657677153E+02 -0.35229911999E+02  0.12192160474E+03  0.14335016682E+03  0.00000000000E+00 0. -1.
<mgrwt>
<rscale>  1 0.66136674E+03</rscale>
<asrwt>0</asrwt>
<pdfrwt beam="1">  1       21 0.37411028E-01 0.66136674E+03</pdfrwt>
<pdfrwt beam="2">0</pdfrwt>
<totfact> 0.64791387E+02</totfact>
</mgrwt>
</event>
<event>
 6    1  0.1439793E-004  0.6491755E+03  0.7818608E-02  0.9808328E-01
         21   -1    0    0  501  502  0.00000000000E+00  0.00000000000E+00  0.14045213783E+03  0.14045213783E+03  0.00000000000E+00 0.  1.
         13   -1    0    0    0    0 -0.00000000000E+00 -0.00000000000E+00 -0.10000000000E+04  0.10000000000E+04  0.00000000000E+00 0.  1.
    9000005    2    1    2  501    0 -0.26330971248E+02 -0.81049463815E+02 -0.82172672374E+03  0.10472170900E+04  0.64355768152E+03 0.  0.
         13    1    3    3    0    0  0.54416039608E+02  0.27179083196E+03 -0.44893389165E+03  0.52761065264E+03  0.00000000000E+00 0.  1.
          1    1    3    3  501    0 -0.80747010856E+02 -0.35284029578E+03 -0.37279283209E+03  0.51960643736E+03  0.00000000000E+00 0.  1.
         -3    1    1    2    0  502  0.26330971248E+02  0.81049463815E+02 -0.37821138432E+02  0.93235047830E+02  0.00000000000E+00 0. -1.
<mgrwt>
<rscale>  1 0.64917550E+03</rscale>
<asrwt>0</asrwt>
<pdfrwt beam="1">  1       21 0.21608021E-01 0.64917550E+03</pdfrwt>
<pdfrwt beam="2">0</pdfrwt>
<totfact> 0.19339600E+03</totfact>
</mgrwt>
</event>
<event>
 6    1  0.1439793E-004  0.6554962E+03  0.7818608E-02  0.9796520E-01
         21   -1    0    0  501  502  0.00000000000E+00  0.00000000000E+00  0.19930766432E+03  0.19930766432E+03  0.00000000000E+00 0. -1.
         13   -1    0    0    0    0 -0.00000000000E+00 -0.00000000000E+00 -0.10000000000E+04  0.10000000000E+04  0.00000000000E+00 0.  1.
    9000005    2    1    2  501    0  0.21772930363E+02 -0.80345589083E+02 -0.87117082588E+03  0.10902357075E+04  0.65018906164E+03 0.  0.
         13    1    3    3    0    0 -0.26911560001E+03  0.49973873104E+02 -0.17584911642E+03  0.32533598926E+03  0.00000000000E+00 0.  1.
          3    1    3    3  501    0  0.29088853037E+03 -0.13031946219E+03 -0.69532170946E+03  0.76489971825E+03  0.00000000000E+00 0.  1.
         -3    1    1    2    0  502 -0.21772930363E+02  0.80345589083E+02  0.70478490203E+02  0.10907195681E+03  0.00000000000E+00 0. -1.
<mgrwt>
<rscale>  1 0.65549622E+03</rscale>
<asrwt>0</asrwt>
<pdfrwt beam="1">  1       21 0.30662717E-01 0.65549622E+03</pdfrwt>
<pdfrwt beam="2">0</pdfrwt>
<totfact> 0.97096677E+02</totfact>
</mgrwt>
</event>
<event>
 6    1  0.1439793E-004  0.6497195E+03  0.7818608E-02  0.9807306E-01
         21   -1    0    0  501  502  0.00000000000E+00  0.00000000000E+00  0.74732995854E+03  0.74732995854E+03  0.00000000000E+00 0. -1.
         13   -1    0    0    0    0 -0.00000000000E+00 -0.00000000000E+00 -0.10000000000E+04  0.10000000000E+04  0.00000000000E+00 0.  1.
    9000005    2    1    2  501    0 -0.27721638139E+02 -0.11553612853E+03 -0.88837800588E+03  0.11006138676E+04  0.63876311578E+03 0.  0.
         13    1    3    3    0    0  0.21943817313E+03  0.79068744583E+02 -0.69084804010E+03  0.72916115688E+03  0.00000000000E+00 0.  1.
          1    1    3    3  501    0 -0.24715981127E+03 -0.19460487311E+03 -0.19752996577E+03  0.37145271075E+03  0.00000000000E+00 0.  1.
         -1    1    1    2    0  502  0.27721638139E+02  0.11553612853E+03  0.63570796441E+03  0.64671609090E+03  0.00000000000E+00 0. -1.
<mgrwt>
<rscale>  1 0.64971948E+03</rscale>
<asrwt>0</asrwt>
<pdfrwt beam="1">  1       21 0.11497384E+00 0.64971948E+03</pdfrwt>
<pdfrwt beam="2">0</pdfrwt>
<totfact> 0.51211078E+01</totfact>
</mgrwt>
</event>
<event>
 6    1  0.1439793E-004  0.6807320E+03  0.7818608E-02  0.9750762E-01
         21   -1    0    0  501  502  0.00000000000E+00  0.00000000000E+00  0.54167323363E+03  0.54167323363E+03  0.00000000000E+00 0. -1.
         13   -1    0    0    0    0 -0.00000000000E+00 -0.00000000000E+00 -0.10000000000E+04  0.10000000000E+04  0.00000000000E+00 0.  1.
    9000005    2    1    2  501    0 -0.15976006315E+03 -0.11068411147E+03 -0.85919100031E+03  0.10961775722E+04  0.65239699910E+03 0.  0.
         13    1    3    3    0    0 -0.20696797393E+03  0.24500651740E+03 -0.43805741677E+03  0.54291641731E+03  0.00000000000E+00 0.  1.
          3    1    3    3  501    0  0.47207910779E+02 -0.35569062887E+03 -0.42113358355E+03  0.55326115488E+03  0.00000000000E+00 0.  1.
         -3    1    1    2    0  502  0.15976006315E+03  0.11068411147E+03  0.40086423395E+03  0.44549566145E+03  0.00000000000E+00 0. -1.
<mgrwt>
<rscale>  1 0.68073203E+03</rscale>
<asrwt>0</asrwt>
<pdfrwt beam="1">  1       21 0.83334341E-01 0.68073203E+03</pdfrwt>
<pdfrwt beam="2">0</pdfrwt>
<totfact> 0.11184954E+02</totfact>
</mgrwt>
</event>
<event>
 6    1  0.1439793E-004  0.6534219E+03  0.7818608E-02  0.9800379E-01
         21   -1    0    0  501  502  0.00000000000E+00  0.00000000000E+00  0.19198190000E+03  0.19198190000E+03  0.00000000000E+00 0.  1.
         13   -1    0    0    0    0 -0.00000000000E+00 -0.00000000000E+00 -0.10000000000E+04  0.10000000000E+04  0.00000000000E+00 0.  1.
    9000005    2    1    2  501    0  0.12364597245E+02 -0.65805524250E+02 -0.87843718182E+03  0.10948114448E+04  0.64998228199E+03 0.  0.
         13    1    3    3    0    0 -0.21072323811E+03  0.12979898557E+03 -0.71381769839E+03  0.75550497435E+03  0.00000000000E+00 0.  1.
          1    1    3    3  501    0  0.22308783535E+03 -0.19560450982E+03 -0.16461948343E+03  0.33930647042E+03  0.00000000000E+00 0.  1.
         -3    1    1    2    0  502 -0.12364597245E+02  0.65805524250E+02  0.70419081816E+02  0.97170455235E+02  0.00000000000E+00 0. -1.
<mgrwt>
<rscale>  1 0.65342193E+03</rscale>
<asrwt>0</asrwt>
<pdfrwt beam="1">  1       21 0.29535676E-01 0.65342193E+03</pdfrwt>
<pdfrwt beam="2">0</pdfrwt>
<totfact> 0.10467325E+03</totfact>
</mgrwt>
</event>
<event>
 6    1  0.1439793E-004  0.6505642E+03  0.7818608E-02  0.9805721E-01
         21   -1    0    0  501  502  0.00000000000E+00  0.00000000000E+00  0.13499915666E+03  0.13499915666E+03  0.00000000000E+00 0.  1.
         13   -1    0    0    0    0 -0.00000000000E+00 -0.00000000000E+00 -0.10000000000E+04  0.10000000000E+04  0.00000000000E+00 0.  1.
    9000005    2    1    2  501    0 -0.24981034695E+02  0.80406956704E+02 -0.77121547603E+03  0.10089633447E+04  0.64509254347E+03 0.  0.
         13    1    3    3    0    0 -0.30081374580E+03  0.74923076113E+00 -0.17700479613E+03  0.34902746148E+03  0.00000000000E+00 0.  1.
          3    1    3    3  501    0  0.27583271111E+03  0.79657725943E+02 -0.59421067990E+03  0.65993588319E+03  0.00000000000E+00 0.  1.
         -3    1    1    2    0  502  0.24981034695E+02 -0.80406956704E+02 -0.93785367310E+02  0.12603581198E+03  0.00000000000E+00 0. -1.
<mgrwt>
<rscale>  1 0.65056416E+03</rscale>
<asrwt>0</asrwt>
<pdfrwt beam="1">  1       21 0.20769100E-01 0.65056416E+03</pdfrwt>
<pdfrwt beam="2">0</pdfrwt>
<totfact> 0.20872784E+03</totfact>
</mgrwt>
</event>
<event>
 6    1  0.1439793E-004  0.6564534E+03  0.7818608E-02  0.9794745E-01
         21   -1    0    0  501  502  0.00000000000E+00  0.00000000000E+00  0.18163511553E+03  0.18163511553E+03  0.00000000000E+00 0.  1.
         13   -1    0    0    0    0 -0.00000000000E+00 -0.00000000000E+00 -0.10000000000E+04  0.10000000000E+04  0.00000000000E+00 0.  1.
    9000005    2    1    2  501    0 -0.32736331421E+02 -0.90479656741E+02 -0.85563932790E+03  0.10784478110E+04  0.64936336975E+03 0.  0.
         13    1    3    3    0    0  0.97252904214E+02 -0.22655792015E+03 -0.50577659008E+02  0.25168376617E+03  0.00000000000E+00 0.  1.
          3    1    3    3  501    0 -0.12998923563E+03  0.13607826341E+03 -0.80506166889E+03  0.82676404486E+03  0.00000000000E+00 0.  1.
         -3    1    1    2    0  502  0.32736331421E+02  0.90479656741E+02  0.37274443425E+02  0.10318730451E+03  0.00000000000E+00 0. -1.
<mgrwt>
<rscale>  1 0.65645337E+03</rscale>
<asrwt>0</asrwt>
<pdfrwt beam="1">  1       21 0.27943863E-01 0.65645337E+03</pdfrwt>
<pdfrwt beam="2">0</pdfrwt>
<totfact> 0.11686744E+03</totfact>
</mgrwt>
</event>
<event>
 6    1  0.1439793E-004  0.6679005E+03  0.7818608E-02  0.9773758E-01
         21   -1    0    0  501  502  0.00000000000E+00  0.00000000000E+00  0.47207283505E+03  0.47207283505E+03  0.00000000000E+00 0. -1.
         13   -1    0    0    0    0 -0.00000000000E+00 -0.00000000000E+00 -0.10000000000E+04  0.10000000000E+04  0.00000000000E+00 0.  1.
    9000005    2    1    2  501    0 -0.67206412833E+02 -0.44893233944E+02 -0.88343343224E+03  0.11074952569E+04  0.66299246643E+03 0.  0.
         13    1    3    3    0    0 -0.15163032786E+03 -0.26059532561E+03 -0.14687223123E+03  0.33537014232E+03  0.00000000000E+00 0.  1.
          3    1    3    3  501    0  0.84423915022E+02  0.21570209167E+03 -0.73656120101E+03  0.77212511461E+03  0.00000000000E+00 0.  1.
         -1    1    1    2    0  502  0.67206412833E+02  0.44893233944E+02  0.35550626730E+03  0.36457757812E+03  0.00000000000E+00 0. -1.
<mgrwt>
<rscale>  1 0.66790053E+03</rscale>
<asrwt>0</asrwt>
<pdfrwt beam="1">  1       21 0.72626588E-01 0.66790053E+03</pdfrwt>
<pdfrwt beam="2">0</pdfrwt>
<totfact> 0.15411908E+02</totfact>
</mgrwt>
</event>
<event>
 6    1  0.1439793E-004  0.6826084E+03  0.7818608E-02  0.9747445E-01
         21   -1    0    0  501  502  0.00000000000E+00  0.00000000000E+00  0.20935754745E+03  0.20935754745E+03  0.00000000000E+00 0.  1.
         13   -1    0    0    0    0 -0.00000000000E+00 -0.00000000000E+00 -0.10000000000E+04  0.10000000000E+04  0.00000000000E+00 0.  1.
    9000005    2    1    2  501    0 -0.20629431470E+03 -0.73077087053E+01 -0.71756407948E+03  0.99037993330E+03  0.65064848977E+03 0.  0.
         13    1    3    3    0    0 -0.42690238480E+03  0.68386123480E+02 -0.35568239749E+03  0.55985022633E+03  0.00000000000E+00 0.  1.
          1    1    3    3  501    0  0.22060807010E+03 -0.75693832185E+02 -0.36188168199E+03  0.43052970697E+03  0.00000000000E+00 0.  1.
         -3    1    1    2    0  502  0.20629431470E+03  0.73077087053E+01 -0.73078373072E+02  0.21897761414E+03  0.00000000000E+00 0. -1.
<mgrwt>
<rscale>  1 0.68260838E+03</rscale>
<asrwt>0</asrwt>
<pdfrwt beam="1">  1       21 0.32208853E-01 0.68260838E+03</pdfrwt>
<pdfrwt beam="2">0</pdfrwt>
<totfact> 0.87785782E+02</totfact>
</mgrwt>
</event>
<event>
 6    1  0.1439793E-004  0.6488873E+03  0.7818608E-02  0.9808869E-01
         21   -1    0    0  501  502  0.00000000000E+00  0.00000000000E+00  0.12614682355E+03  0.12614682355E+03  0.00000000000E+00 0.  1.
         13   -1    0    0    0    0 -0.00000000000E+00 -0.00000000000E+00 -0.10000000000E+04  0.10000000000E+04  0.00000000000E+00 0.  1.
    9000005    2    1    2  501    0  0.18963603253E+02 -0.30227884150E+02 -0.87628429516E+03  0.10903801692E+04  0.64790539750E+03 0.  0.
         13    1    3    3    0    0  0.32249624728E+03  0.14799082698E+02 -0.58020685927E+03  0.66397503108E+03  0.00000000000E+00 0.  1.
          3    1    3    3  501    0 -0.30353264402E+03 -0.45026966848E+02 -0.29607743589E+03  0.42640513807E+03  0.00000000000E+00 0.  1.
         -1    1    1    2    0  502 -0.18963603253E+02  0.30227884150E+02  0.24311187165E+01  0.35766654397E+02  0.00000000000E+00 0. -1.
<mgrwt>
<rscale>  1 0.64888731E+03</rscale>
<asrwt>0</asrwt>
<pdfrwt beam="1">  1       21 0.19407203E-01 0.64888731E+03</pdfrwt>
<pdfrwt beam="2">0</pdfrwt>
<totfact> 0.23774534E+03</totfact>
</mgrwt>
</event>
<event>
 6    1  0.1439793E-004  0.6325803E+03  0.7818608E-02  0.9840026E-01
         21   -1    0    0  501  502  0.00000000000E+00  0.00000000000E+00  0.13613373593E+03  0.13613373593E+03  0.00000000000E+00 0.  1.
         13   -1    0    0    0    0 -0.00000000000E+00 -0.00000000000E+00 -0.10000000000E+04  0.10000000000E+04  0.00000000000E+00 0.  1.
    9000005    2    1    2  501    0 -0.82979420398E+02 -0.27616561555E+02 -0.82707784136E+03  0.10412567275E+04  0.62650583257E+03 0.  0.
         13    1    3    3    0    0  0.15528020178E+03  0.23265798367E+03 -0.36420914551E+03  0.45922759075E+03  0.00000000000E+00 0.  1.
          1    1    3    3  501    0 -0.23825962217E+03 -0.26027454522E+03 -0.46286869585E+03  0.58202913676E+03  0.00000000000E+00 0.  1.
         -3    1    1    2    0  502  0.82979420398E+02  0.27616561555E+02 -0.36788422707E+02  0.94877008422E+02  0.00000000000E+00 0. -1.
<mgrwt>
<rscale>  1 0.63258028E+03</rscale>
<asrwt>0</asrwt>
<pdfrwt beam="1">  1       21 0.20943651E-01 0.63258028E+03</pdfrwt>
<pdfrwt beam="2">0</pdfrwt>
<totfact> 0.20554813E+03</totfact>
</mgrwt>
</event>
<event>
 6    1  0.1439793E-004  0.6524659E+03  0.7818608E-02  0.9802163E-01
         21   -1    0    0  501  502  0.00000000000E+00  0.00000000000E+00  0.18054115047E+03  0.18054115047E+03  0.00000000000E+00 0.  1.
         13   -1    0    0    0    0 -0.00000000000E+00 -0.00000000000E+00 -0.10000000000E+04  0.10000000000E+04  0.00000000000E+00 0.  1.
    9000005    2    1    2  501    0 -0.74369196931E+02  0.57789304376E+01 -0.87216037828E+03  0.10892086556E+04  0.64818793300E+03 0.  0.
         13    1    3    3    0    0 -0.28410536278E+03  0.21202949525E+03 -0.41769468100E+03  0.54785144934E+03  0.00000000000E+00 0.  1.
          3    1    3    3  501    0  0.20973616585E+03 -0.20625056481E+03 -0.45446569728E+03  0.54135720625E+03  0.00000000000E+00 0.  1.
         -1    1    1    2    0  502  0.74369196931E+02 -0.57789304376E+01  0.52701528747E+02  0.91332494883E+02  0.00000000000E+00 0. -1.
<mgrwt>
<rscale>  1 0.65246591E+03</rscale>
<asrwt>0</asrwt>
<pdfrwt beam="1">  1       21 0.27775561E-01 0.65246591E+03</pdfrwt>
<pdfrwt beam="2">0</pdfrwt>
<totfact> 0.11830499E+03</totfact>
</mgrwt>
</event>
<event>
 6    1  0.1439793E-004  0.6481704E+03  0.7818608E-02  0.9810218E-01
         21   -1    0    0  501  502  0.00000000000E+00  0.00000000000E+00  0.20047367000E+03  0.20047367000E+03  0.00000000000E+00 0.  1.
         13   -1    0    0    0    0 -0.00000000000E+00 -0.00000000000E+00 -0.10000000000E+04  0.10000000000E+04  0.00000000000E+00 0.  1.
    9000005    2    1    2  501    0 -0.23295802961E+02 -0.40954298001E+02 -0.88849763093E+03  0.10997967543E+04  0.64645565332E+03 0.  0.
         13    1    3    3    0    0  0.11522673746E+03 -0.31428470623E+03 -0.38291948604E+03  0.50860535820E+03  0.00000000000E+00 0.  1.
          1    1    3    3  501    0 -0.13852254042E+03  0.27333040823E+03 -0.50557814489E+03  0.59119139613E+03  0.00000000000E+00 0.  1.
         -3    1    1    2    0  502  0.23295802961E+02  0.40954298001E+02  0.88971300928E+02  0.10067691567E+03  0.00000000000E+00 0. -1.
<mgrwt>
<rscale>  1 0.64817039E+03</rscale>
<asrwt>0</asrwt>
<pdfrwt beam="1">  1       21 0.30842102E-01 0.64817039E+03</pdfrwt>
<pdfrwt beam="2">0</pdfrwt>
<totfact> 0.96011337E+02</totfact>
</mgrwt>
</event>
<event>
 6    1  0.1439793E-004  0.6480951E+03  0.7818608E-02  0.9810360E-01
         21   -1    0    0  501  502  0.00000000000E+00  0.00000000000E+00  0.14368997800E+03  0.14368997800E+03  0.00000000000E+00 0.  1.
         13   -1    0    0    0    0 -0.00000000000E+00 -0.00000000000E+00 -0.10000000000E+04  0.10000000000E+04  0.00000000000E+00 0.  1.
    9000005    2    1    2  501    0  0.23080973776E+02  0.10056775587E+02 -0.89041294421E+03  0.11013003638E+04  0.64760590645E+03 0.  0.
         13    1    3    3    0    0  0.30581892501E+03  0.11313622827E+03 -0.60109682313E+03  0.68384385047E+03  0.00000000000E+00 0.  1.
          1    1    3    3  501    0 -0.28273795124E+03 -0.10307945268E+03 -0.28931612108E+03  0.41745651337E+03  0.00000000000E+00 0.  1.
         -3    1    1    2    0  502 -0.23080973776E+02 -0.10056775587E+02  0.34102922218E+02  0.42389614170E+02  0.00000000000E+00 0. -1.
<mgrwt>
<rscale>  1 0.64809512E+03</rscale>
<asrwt>0</asrwt>
<pdfrwt beam="1">  1       21 0.22106150E-01 0.64809512E+03</pdfrwt>
<pdfrwt beam="2">0</pdfrwt>
<totfact> 0.18506597E+03</totfact>
</mgrwt>
</event>
<event>
 6    1  0.1439793E-004  0.6554414E+03  0.7818608E-02  0.9796622E-01
         21   -1    0    0  501  502  0.00000000000E+00  0.00000000000E+00  0.13338260366E+03  0.13338260366E+03  0.00000000000E+00 0.  1.
         13   -1    0    0    0    0 -0.00000000000E+00 -0.00000000000E+00 -0.10000000000E+04  0.10000000000E+04  0.00000000000E+00 0.  1.
    9000005    2    1    2  501    0 -0.45987774374E+02  0.46912693734E+02 -0.83188219784E+03  0.10590710282E+04  0.65214091695E+03 0.  0.
         13    1    3    3    0    0 -0.17975400930E+03  0.83771992229E+02 -0.88764830163E+03  0.90953216432E+03  0.00000000000E+00 0.  1.
          3    1    3    3  501    0  0.13376623493E+03 -0.36859298495E+02  0.55766103791E+02  0.14953886393E+03  0.00000000000E+00 0.  1.
         -3    1    1    2    0  502  0.45987774374E+02 -0.46912693734E+02 -0.34735198507E+02  0.74311575414E+02  0.00000000000E+00 0. -1.
<mgrwt>
<rscale>  1 0.65544142E+03</rscale>
<asrwt>0</asrwt>
<pdfrwt beam="1">  1       21 0.20520400E-01 0.65544142E+03</pdfrwt>
<pdfrwt beam="2">0</pdfrwt>
<totfact> 0.21357854E+03</totfact>
</mgrwt>
</event>
<event>
 6    1  0.1439793E-004  0.6468791E+03  0.7818608E-02  0.9812653E-01
         21   -1    0    0  501  502  0.00000000000E+00  0.00000000000E+00  0.14124803485E+03  0.14124803485E+03  0.00000000000E+00 0.  1.
         13   -1    0    0    0    0 -0.00000000000E+00 -0.00000000000E+00 -0.10000000000E+04  0.10000000000E+04  0.00000000000E+00 0.  1.
    9000005    2    1    2  501    0  0.97113098424E+02 -0.31076496039E+02 -0.77347746860E+03  0.10083253421E+04  0.63879253171E+03 0.  0.
         13    1    3    3    0    0  0.14272019702E+03 -0.14402818059E+03  0.21654531891E+02  0.20391687079E+03  0.00000000000E+00 0.  1.
          1    1    3    3  501    0 -0.45607098601E+02  0.11295168455E+03 -0.79513200049E+03  0.80440847129E+03  0.00000000000E+00 0.  1.
         -3    1    1    2    0  502 -0.97113098424E+02  0.31076496039E+02 -0.85274496547E+02  0.13292269277E+03  0.00000000000E+00 0. -1.
<mgrwt>
<rscale>  1 0.64687912E+03</rscale>
<asrwt>0</asrwt>
<pdfrwt beam="1">  1       21 0.21730466E-01 0.64687912E+03</pdfrwt>
<pdfrwt beam="2">0</pdfrwt>
<totfact> 0.19131520E+03</totfact>
</mgrwt>
</event>
<event>
 6    1  0.1439793E-004  0.6864036E+03  0.7818608E-02  0.9740771E-01
         21   -1    0    0  501  502  0.00000000000E+00  0.00000000000E+00  0.34847969759E+03  0.34847969759E+03  0.00000000000E+00 0. -1.
         13   -1    0    0    0    0 -0.00000000000E+00 -0.00000000000E+00 -0.10000000000E+04  0.10000000000E+04  0.00000000000E+00 0.  1.
    9000005    2    1    2  501    0 -0.19077999441E+03 -0.95633196294E+02 -0.82517750549E+03  0.10733442061E+04  0.65238574071E+03 0.  0.
         13    1    3    3    0    0  0.10371732314E+02 -0.13722518444E+03  0.70354186934E+02  0.15455754817E+03  0.00000000000E+00 0.  1.
          1    1    3    3  501    0 -0.20115172673E+03  0.41591988150E+02 -0.89553169242E+03  0.91878665792E+03  0.00000000000E+00 0.  1.
         -3    1    1    2    0  502  0.19077999441E+03  0.95633196294E+02  0.17365720308E+03  0.27513549150E+03  0.00000000000E+00 0. -1.
<mgrwt>
<rscale>  1 0.68640358E+03</rscale>
<asrwt>0</asrwt>
<pdfrwt beam="1">  1       21 0.53612260E-01 0.68640358E+03</pdfrwt>
<pdfrwt beam="2">0</pdfrwt>
<totfact> 0.30240126E+02</totfact>
</mgrwt>
</event>
<event>
 6    1  0.1439793E-004  0.7734045E+03  0.7818608E-02  0.9599331E-01
         21   -1    0    0  501  502  0.00000000000E+00  0.00000000000E+00  0.18094578566E+03  0.18094578566E+03  0.00000000000E+00 0.  1.
         13   -1    0    0    0    0 -0.00000000000E+00 -0.00000000000E+00 -0.10000000000E+04  0.10000000000E+04  0.00000000000E+00 0.  1.
    9000005    2    1    2  501    0  0.32143119610E+02 -0.47262415881E+01 -0.84036665175E+03  0.11420904451E+04  0.77272178565E+03 0.  0.
         13    1    3    3    0    0 -0.18156535915E+03  0.22384823372E+02  0.77942833591E+02  0.19885206880E+03  0.00000000000E+00 0.  1.
          3    1    3    3  501    0  0.21370847876E+03 -0.27111064960E+02 -0.91830948534E+03  0.94323837634E+03  0.00000000000E+00 0.  1.
         -3    1    1    2    0  502 -0.32143119610E+02  0.47262415881E+01  0.21312437413E+02  0.38855340512E+02  0.00000000000E+00 0. -1.
<mgrwt>
<rscale>  1 0.77340447E+03</rscale>
<asrwt>0</asrwt>
<pdfrwt beam="1">  1       21 0.27837812E-01 0.77340447E+03</pdfrwt>
<pdfrwt beam="2">0</pdfrwt>
<totfact> 0.11702061E+03</totfact>
</mgrwt>
</event>
<event>
 6    1  0.1439793E-004  0.6423540E+03  0.7818608E-02  0.9821233E-01
         21   -1    0    0  501  502  0.00000000000E+00  0.00000000000E+00  0.18652979615E+03  0.18652979615E+03  0.00000000000E+00 0.  1.
         13   -1    0    0    0    0 -0.00000000000E+00 -0.00000000000E+00 -0.10000000000E+04  0.10000000000E+04  0.00000000000E+00 0.  1.
    9000005    2    1    2  501    0  0.24714400223E+02 -0.29549536321E+02 -0.89190709453E+03  0.10991437418E+04  0.64119788145E+03 0.  0.
         13    1    3    3    0    0  0.22364049233E+03  0.11805727528E+03 -0.10438856963E+03  0.27358648272E+03  0.00000000000E+00 0.  1.
          1    1    3    3  501    0 -0.19892609211E+03 -0.14760681160E+03 -0.78751852490E+03  0.82555725908E+03  0.00000000000E+00 0.  1.
         -3    1    1    2    0  502 -0.24714400223E+02  0.29549536321E+02  0.78436890687E+02  0.87386054356E+02  0.00000000000E+00 0. -1.
<mgrwt>
<rscale>  1 0.64235403E+03</rscale>
<asrwt>0</asrwt>
<pdfrwt beam="1">  1       21 0.28696891E-01 0.64235403E+03</pdfrwt>
<pdfrwt beam="2">0</pdfrwt>
<totfact> 0.11094074E+03</totfact>
</mgrwt>
</event>
<event>
 6    1  0.1439793E-004  0.6354889E+03  0.7818608E-02  0.9834396E-01
         21   -1    0    0  501  502  0.00000000000E+00  0.00000000000E+00  0.18744869965E+03  0.18744869965E+03  0.00000000000E+00 0. -1.
         13   -1    0    0    0    0 -0.00000000000E+00 -0.00000000000E+00 -0.10000000000E+04  0.10000000000E+04  0.00000000000E+00 0.  1.
    9000005    2    1    2  501    0 -0.13550495834E+02 -0.20511698538E+02 -0.89711091349E+03  0.10993880734E+04  0.63501322758E+03 0.  0.
         13    1    3    3    0    0  0.29640291750E+03  0.11554347057E+02 -0.27922827950E+03  0.40737774179E+03  0.00000000000E+00 0.  1.
          1    1    3    3  501    0 -0.30995341333E+03 -0.32066045596E+02 -0.61788263399E+03  0.69201033165E+03  0.00000000000E+00 0.  1.
         -1    1    1    2    0  502  0.13550495834E+02  0.20511698538E+02  0.84559613138E+02  0.88060626209E+02  0.00000000000E+00 0. -1.
<mgrwt>
<rscale>  1 0.63548890E+03</rscale>
<asrwt>0</asrwt>
<pdfrwt beam="1">  1       21 0.28838261E-01 0.63548890E+03</pdfrwt>
<pdfrwt beam="2">0</pdfrwt>
<totfact> 0.10990654E+03</totfact>
</mgrwt>
</event>
<event>
 6    1  0.1439793E-004  0.6540608E+03  0.7818608E-02  0.9799189E-01
         21   -1    0    0  501  502  0.00000000000E+00  0.00000000000E+00  0.13993547422E+03  0.13993547422E+03  0.00000000000E+00 0.  1.
         13   -1    0    0    0    0 -0.00000000000E+00 -0.00000000000E+00 -0.10000000000E+04  0.10000000000E+04  0.00000000000E+00 0.  1.
    9000005    2    1    2  501    0 -0.68847997105E+02 -0.23131738354E+02 -0.83995102079E+03  0.10645718417E+04  0.65001566503E+03 0.  0.
         13    1    3    3    0    0  0.25043903166E+03  0.26303371515E+02 -0.63205925394E+03  0.68037524677E+03  0.00000000000E+00 0.  1.
          3    1    3    3  501    0 -0.31928702877E+03 -0.49435109869E+02 -0.20789176685E+03  0.38419659492E+03  0.00000000000E+00 0.  1.
         -1    1    1    2    0  502  0.68847997105E+02  0.23131738354E+02 -0.20113504992E+02  0.75363632527E+02  0.00000000000E+00 0. -1.
<mgrwt>
<rscale>  1 0.65406077E+03</rscale>
<asrwt>0</asrwt>
<pdfrwt beam="1">  1       21 0.21528534E-01 0.65406077E+03</pdfrwt>
<pdfrwt beam="2">0</pdfrwt>
<totfact> 0.19473628E+03</totfact>
</mgrwt>
</event>
<event>
 6    1  0.1439793E-004  0.6391848E+03  0.7818608E-02  0.9827287E-01
         21   -1    0    0  501  502  0.00000000000E+00  0.00000000000E+00  0.23307250296E+03  0.23307250296E+03  0.00000000000E+00 0. -1.
         13   -1    0    0    0    0 -0.00000000000E+00 -0.00000000000E+00 -0.10000000000E+04  0.10000000000E+04  0.00000000000E+00 0.  1.
    9000005    2    1    2  501    0  0.99816754830E+01 -0.46380458628E+02 -0.89310619643E+03  0.10982695172E+04  0.63742173915E+03 0.  0.
         13    1    3    3    0    0 -0.21345182721E+03  0.15557110751E+03 -0.16781169242E+03  0.31292941080E+03  0.00000000000E+00 0.  1.
          1    1    3    3  501    0  0.22343350269E+03 -0.20195156614E+03 -0.72529450401E+03  0.78534010641E+03  0.00000000000E+00 0.  1.
         -3    1    1    2    0  502 -0.99816754830E+01  0.46380458628E+02  0.12617869939E+03  0.13480298575E+03  0.00000000000E+00 0. -1.
<mgrwt>
<rscale>  1 0.63918484E+03</rscale>
<asrwt>0</asrwt>
<pdfrwt beam="1">  1       21 0.35857307E-01 0.63918484E+03</pdfrwt>
<pdfrwt beam="2">0</pdfrwt>
<totfact> 0.70797863E+02</totfact>
</mgrwt>
</event>
<event>
 6    1  0.1439793E-004  0.6606427E+03  0.7818608E-02  0.9787011E-01
         21   -1    0    0  501  502  0.00000000000E+00  0.00000000000E+00  0.49753688615E+03  0.49753688615E+03  0.00000000000E+00 0. -1.
         13   -1    0    0    0    0 -0.00000000000E+00 -0.00000000000E+00 -0.10000000000E+04  0.10000000000E+04  0.00000000000E+00 0.  1.
    9000005    2    1    2  501    0 -0.28700800505E+02  0.13260702888E+02 -0.89017408009E+03  0.11085389742E+04  0.65988573417E+03 0.  0.
         13    1    3    3    0    0  0.30228365434E+03  0.65509301754E+02 -0.55026273240E+03  0.63123367382E+03  0.00000000000E+00 0.  1.
          3    1    3    3  501    0 -0.33098445485E+03 -0.52248598866E+02 -0.33991134769E+03  0.47730530033E+03  0.00000000000E+00 0.  1.
         -3    1    1    2    0  502  0.28700800505E+02 -0.13260702888E+02  0.38771096624E+03  0.38899791199E+03  0.00000000000E+00 0. -1.
<mgrwt>
<rscale>  1 0.66064269E+03</rscale>
<asrwt>0</asrwt>
<pdfrwt beam="1">  1       21 0.76544134E-01 0.66064269E+03</pdfrwt>
<pdfrwt beam="2">0</pdfrwt>
<totfact> 0.13670551E+02</totfact>
</mgrwt>
</event>
<event>
 6    1  0.1439793E-004  0.6884504E+03  0.7818608E-02  0.9737190E-01
         21   -1    0    0  501  502  0.00000000000E+00  0.00000000000E+00  0.28935156070E+03  0.28935156070E+03  0.00000000000E+00 0. -1.
         13   -1    0    0    0    0 -0.00000000000E+00 -0.00000000000E+00 -0.10000000000E+04  0.10000000000E+04  0.00000000000E+00 0.  1.
    9000005    2    1    2  501    0 -0.16790731604E+03  0.75322103546E+02 -0.82358554338E+03  0.10734324195E+04  0.66339861765E+03 0.  0.
         13    1    3    3    0    0 -0.13155986742E+03  0.25586155708E+03 -0.84061417071E+03  0.88848484462E+03  0.00000000000E+00 0.  1.
          3    1    3    3  501    0 -0.36347448620E+02 -0.18053945354E+03  0.17028627335E+02  0.18494757488E+03  0.00000000000E+00 0.  1.
         -1    1    1    2    0  502  0.16790731604E+03 -0.75322103546E+02  0.11293710408E+03  0.21591914121E+03  0.00000000000E+00 0. -1.
<mgrwt>
<rscale>  1 0.68845044E+03</rscale>
<asrwt>0</asrwt>
<pdfrwt beam="1">  1       21 0.44515623E-01 0.68845044E+03</pdfrwt>
<pdfrwt beam="2">0</pdfrwt>
<totfact> 0.45003972E+02</totfact>
</mgrwt>
</event>
<event>
 6    1  0.1439793E-004  0.7175907E+03  0.7818608E-02  0.9687614E-01
         21   -1    0    0  501  502  0.00000000000E+00  0.00000000000E+00  0.24198508451E+04  0.24198508451E+04  0.00000000000E+00 0. -1.
         13   -1    0    0    0    0 -0.00000000000E+00 -0.00000000000E+00 -0.10000000000E+04  0.10000000000E+04  0.00000000000E+00 0.  1.
    9000005    2    1    2  501    0 -0.22698871143E+03 -0.22051726925E+03 -0.85890756016E+03  0.11192223200E+04  0.64403778105E+03 0.  0.
         13    1    3    3    0    0 -0.21887336300E+03 -0.24428750839E+03 -0.77003115898E+02  0.33691455244E+03  0.00000000000E+00 0.  1.
          3    1    3    3  501    0 -0.81153484337E+01  0.23770239148E+02 -0.78190444427E+03  0.78230776751E+03  0.00000000000E+00 0.  1.
         -3    1    1    2    0  502  0.22698871143E+03  0.22051726925E+03  0.22787584052E+04  0.23006285251E+04  0.00000000000E+00 0. -1.
<mgrwt>
<rscale>  1 0.71759069E+03</rscale>
<asrwt>0</asrwt>
<pdfrwt beam="1">  1       21 0.37228473E+00 0.71759069E+03</pdfrwt>
<pdfrwt beam="2">0</pdfrwt>
<totfact> 0.89313539E-01</totfact>
</mgrwt>
</event>
<event>
 6    1  0.1439793E-004  0.7669606E+03  0.7818608E-02  0.9609111E-01
         21   -1    0    0  501  502  0.00000000000E+00  0.00000000000E+00  0.59520198954E+03  0.59520198954E+03  0.00000000000E+00 0. -1.
         13   -1    0    0    0    0 -0.00000000000E+00 -0.00000000000E+00 -0.10000000000E+04  0.10000000000E+04  0.00000000000E+00 0.  1.
    9000005    2    1    2  501    0 -0.32067368369E+03  0.16511930991E+02 -0.78504982445E+03  0.10975116266E+04  0.69650864206E+03 0.  0.
         13    1    3    3    0    0 -0.49163141702E+03 -0.25556616019E+02 -0.28833597998E+03  0.57051926188E+03  0.00000000000E+00 0.  1.
          1    1    3    3  501    0  0.17095773333E+03  0.42068547010E+02 -0.49671384447E+03  0.52699236477E+03  0.00000000000E+00 0.  1.
         -3    1    1    2    0  502  0.32067368369E+03 -0.16511930991E+02  0.38025181399E+03  0.49769036290E+03  0.00000000000E+00 0. -1.
<mgrwt>
<rscale>  1 0.76696059E+03</rscale>
<asrwt>0</asrwt>
<pdfrwt beam="1">  1       21 0.91569534E-01 0.76696059E+03</pdfrwt>
<pdfrwt beam="2">0</pdfrwt>
<totfact> 0.88428260E+01</totfact>
</mgrwt>
</event>
<event>
 6    1  0.1439793E-004  0.6430354E+03  0.7818608E-02  0.9819936E-01
         21   -1    0    0  501  502  0.00000000000E+00  0.00000000000E+00  0.22322650576E+03  0.22322650576E+03  0.00000000000E+00 0. -1.
         13   -1    0    0    0    0 -0.00000000000E+00 -0.00000000000E+00 -0.10000000000E+04  0.10000000000E+04  0.00000000000E+00 0.  1.
    9000005    2    1    2  501    0  0.17842760986E+02  0.22438744695E+02 -0.89473173599E+03  0.11018345448E+04  0.64239600202E+03 0.  0.
         13    1    3    3    0    0 -0.23998480993E+03  0.67666784232E+02 -0.77474544285E+03  0.81388082905E+03  0.00000000000E+00 0.  1.
          1    1    3    3  501    0  0.25782757092E+03 -0.45228039537E+02 -0.11998629314E+03  0.28795371577E+03  0.00000000000E+00 0.  1.
         -3    1    1    2    0  502 -0.17842760986E+02 -0.22438744695E+02  0.11795824174E+03  0.12139196093E+03  0.00000000000E+00 0. -1.
<mgrwt>
<rscale>  1 0.64303537E+03</rscale>
<asrwt>0</asrwt>
<pdfrwt beam="1">  1       21 0.34342538E-01 0.64303537E+03</pdfrwt>
<pdfrwt beam="2">0</pdfrwt>
<totfact> 0.77289737E+02</totfact>
</mgrwt>
</event>
<event>
 6    1  0.1439793E-004  0.7135229E+03  0.7818608E-02  0.9694382E-01
         21   -1    0    0  501  502  0.00000000000E+00  0.00000000000E+00  0.27432118905E+03  0.27432118905E+03  0.00000000000E+00 0. -1.
         13   -1    0    0    0    0 -0.00000000000E+00 -0.00000000000E+00 -0.10000000000E+04  0.10000000000E+04  0.00000000000E+00 0.  1.
    9000005    2    1    2  501    0 -0.16933631121E+03 -0.10561982645E+03 -0.79010592668E+03  0.10646042673E+04  0.68504345593E+03 0.  0.
         13    1    3    3    0    0 -0.31938610988E+03  0.10330977102E+03 -0.72548887363E+03  0.79938382629E+03  0.00000000000E+00 0.  1.
          3    1    3    3  501    0  0.15004979866E+03 -0.20892959747E+03 -0.64617053056E+02  0.26522044100E+03  0.00000000000E+00 0.  1.
         -3    1    1    2    0  502  0.16933631121E+03  0.10561982645E+03  0.64427115731E+02  0.20971692176E+03  0.00000000000E+00 0. -1.
<mgrwt>
<rscale>  1 0.71352286E+03</rscale>
<asrwt>0</asrwt>
<pdfrwt beam="1">  1       21 0.42203259E-01 0.71352286E+03</pdfrwt>
<pdfrwt beam="2">0</pdfrwt>
<totfact> 0.50245862E+02</totfact>
</mgrwt>
</event>
<event>
 6    1  0.1439793E-004  0.6497116E+03  0.7818608E-02  0.9807321E-01
         21   -1    0    0  501  502  0.00000000000E+00  0.00000000000E+00  0.14047323933E+03  0.14047323933E+03  0.00000000000E+00 0.  1.
         13   -1    0    0    0    0 -0.00000000000E+00 -0.00000000000E+00 -0.10000000000E+04  0.10000000000E+04  0.00000000000E+00 0.  1.
    9000005    2    1    2  501    0  0.10170638166E+02 -0.65097543633E+02 -0.85579366705E+03  0.10744802999E+04  0.64636211385E+03 0.  0.
         13    1    3    3    0    0 -0.11420870959E+03  0.24948066145E+03 -0.56619443853E+03  0.62917435739E+03  0.00000000000E+00 0.  1.
          1    1    3    3  501    0  0.12437934775E+03 -0.31457820508E+03 -0.28959922853E+03  0.44530594250E+03  0.00000000000E+00 0.  1.
         -1    1    1    2    0  502 -0.10170638166E+02  0.65097543633E+02 -0.37330936152E+01  0.65992939438E+02  0.00000000000E+00 0. -1.
<mgrwt>
<rscale>  1 0.64971156E+03</rscale>
<asrwt>0</asrwt>
<pdfrwt beam="1">  1       21 0.21611267E-01 0.64971156E+03</pdfrwt>
<pdfrwt beam="2">0</pdfrwt>
<totfact> 0.19333535E+03</totfact>
</mgrwt>
</event>
<event>
 6    1  0.1439793E-004  0.6737522E+03  0.7818608E-02  0.9763203E-01
         21   -1    0    0  501  502  0.00000000000E+00  0.00000000000E+00  0.14251128703E+03  0.14251128703E+03  0.00000000000E+00 0.  1.
         13   -1    0    0    0    0 -0.00000000000E+00 -0.00000000000E+00 -0.10000000000E+04  0.10000000000E+04  0.00000000000E+00 0.  1.
    9000005    2    1    2  501    0  0.32854702471E+02 -0.53491890417E+02 -0.84101030014E+03  0.10776086530E+04  0.67082134005E+03 0.  0.
         13    1    3    3    0    0  0.18306280025E+03  0.75124367933E+02  0.15578669154E+02  0.19849018723E+03  0.00000000000E+00 0.  1.
          3    1    3    3  501    0 -0.15020809778E+03 -0.12861625835E+03 -0.85658896930E+03  0.87911846578E+03  0.00000000000E+00 0.  1.
         -1    1    1    2    0  502 -0.32854702471E+02  0.53491890417E+02 -0.16478412825E+02  0.64902634031E+02  0.00000000000E+00 0. -1.
<mgrwt>
<rscale>  1 0.67375224E+03</rscale>
<asrwt>0</asrwt>
<pdfrwt beam="1">  1       21 0.21924813E-01 0.67375224E+03</pdfrwt>
<pdfrwt beam="2">0</pdfrwt>
<totfact> 0.18782857E+03</totfact>
</mgrwt>
</event>
<event>
 6    1  0.1439793E-004  0.6705725E+03  0.7818608E-02  0.9768924E-01
         21   -1    0    0  501  502  0.00000000000E+00  0.00000000000E+00  0.28736896475E+03  0.28736896475E+03  0.00000000000E+00 0. -1.
         13   -1    0    0    0    0 -0.00000000000E+00 -0.00000000000E+00 -0.10000000000E+04  0.10000000000E+04  0.00000000000E+00 0.  1.
    9000005    2    1    2  501    0 -0.41851661130E+02 -0.56022629989E+02 -0.87976877799E+03  0.11061919197E+04  0.66691630946E+03 0.  0.
         13    1    3    3    0    0  0.98808763555E+02 -0.12766155124E+03 -0.92737169370E+03  0.94131764123E+03  0.00000000000E+00 0.  1.
          3    1    3    3  501    0 -0.14066042468E+03  0.71638921246E+02  0.47602915708E+02  0.16487427845E+03  0.00000000000E+00 0.  1.
         -3    1    1    2    0  502  0.41851661130E+02  0.56022629989E+02  0.16713774274E+03  0.18117704507E+03  0.00000000000E+00 0. -1.
<mgrwt>
<rscale>  1 0.67057249E+03</rscale>
<asrwt>0</asrwt>
<pdfrwt beam="1">  1       21 0.44210609E-01 0.67057249E+03</pdfrwt>
<pdfrwt beam="2">0</pdfrwt>
<totfact> 0.45729820E+02</totfact>
</mgrwt>
</event>
<event>
 6    1  0.1439793E-004  0.6494930E+03  0.7818608E-02  0.9807731E-01
         21   -1    0    0  501  502  0.00000000000E+00  0.00000000000E+00  0.12735313206E+03  0.12735313206E+03  0.00000000000E+00 0.  1.
         13   -1    0    0    0    0 -0.00000000000E+00 -0.00000000000E+00 -0.10000000000E+04  0.10000000000E+04  0.00000000000E+00 0.  1.
    9000005    2    1    2  501    0  0.48252916864E+02 -0.31944421872E+02 -0.83680222270E+03  0.10592823699E+04  0.64690987711E+03 0.  0.
         13    1    3    3    0    0  0.85406608993E+02 -0.15576471819E+03  0.32353913250E+02  0.18056497998E+03  0.00000000000E+00 0.  1.
          3    1    3    3  501    0 -0.37153692129E+02  0.12382029632E+03 -0.86915613595E+03  0.87871738988E+03  0.00000000000E+00 0.  1.
         -1    1    1    2    0  502 -0.48252916864E+02  0.31944421872E+02 -0.35844645240E+02  0.68070762203E+02  0.00000000000E+00 0. -1.
<mgrwt>
<rscale>  1 0.64949302E+03</rscale>
<asrwt>0</asrwt>
<pdfrwt beam="1">  1       21 0.19592789E-01 0.64949302E+03</pdfrwt>
<pdfrwt beam="2">0</pdfrwt>
<totfact> 0.23345060E+03</totfact>
</mgrwt>
</event>
<event>
 6    1  0.1439793E-004  0.6448866E+03  0.7818608E-02  0.9816422E-01
         21   -1    0    0  501  502  0.00000000000E+00  0.00000000000E+00  0.32610096573E+03  0.32610096573E+03  0.00000000000E+00 0. -1.
         13   -1    0    0    0    0 -0.00000000000E+00 -0.00000000000E+00 -0.10000000000E+04  0.10000000000E+04  0.00000000000E+00 0.  1.
    9000005    2    1    2  501    0 -0.17539882965E+02  0.11050288894E+02 -0.89549621552E+03  0.11035362176E+04  0.64455329891E+03 0.  0.
         13    1    3    3    0    0 -0.18150202413E+03 -0.23006624873E+03 -0.21577182589E+03  0.36391062696E+03  0.00000000000E+00 0.  1.
          1    1    3    3  501    0  0.16396214117E+03  0.24111653762E+03 -0.67972438963E+03  0.73962559063E+03  0.00000000000E+00 0.  1.
         -1    1    1    2    0  502  0.17539882965E+02 -0.11050288894E+02  0.22159718125E+03  0.22256474814E+03  0.00000000000E+00 0. -1.
<mgrwt>
<rscale>  1 0.64488659E+03</rscale>
<asrwt>0</asrwt>
<pdfrwt beam="1">  1       21 0.50169378E-01 0.64488659E+03</pdfrwt>
<pdfrwt beam="2">0</pdfrwt>
<totfact> 0.35033839E+02</totfact>
</mgrwt>
</event>
<event>
 6    1  0.1439793E-004  0.6503604E+03  0.7818608E-02  0.9806103E-01
         21   -1    0    0  501  502  0.00000000000E+00  0.00000000000E+00  0.31062376703E+03  0.31062376703E+03  0.00000000000E+00 0. -1.
         13   -1    0    0    0    0 -0.00000000000E+00 -0.00000000000E+00 -0.10000000000E+04  0.10000000000E+04  0.00000000000E+00 0.  1.
    9000005    2    1    2  501    0  0.14668342641E+02 -0.19981719542E+02 -0.89342845574E+03  0.11050714890E+04  0.64988780634E+03 0.  0.
         13    1    3    3    0    0 -0.24729577878E+03  0.18392822580E+03 -0.33326090090E+03  0.45392468816E+03  0.00000000000E+00 0.  1.
          3    1    3    3  501    0  0.26196412142E+03 -0.20390994534E+03 -0.56016755484E+03  0.65114680082E+03  0.00000000000E+00 0.  1.
         -3    1    1    2    0  502 -0.14668342641E+02  0.19981719542E+02  0.20405222277E+03  0.20555227805E+03  0.00000000000E+00 0. -1.
<mgrwt>
<rscale>  1 0.65036035E+03</rscale>
<asrwt>0</asrwt>
<pdfrwt beam="1">  1       21 0.47788270E-01 0.65036035E+03</pdfrwt>
<pdfrwt beam="2">0</pdfrwt>
<totfact> 0.38850092E+02</totfact>
</mgrwt>
</event>
<event>
 6    1  0.1439793E-004  0.6598284E+03  0.7818608E-02  0.9788510E-01
         21   -1    0    0  501  502  0.00000000000E+00  0.00000000000E+00  0.18681616880E+03  0.18681616880E+03  0.00000000000E+00 0.  1.
         13   -1    0    0    0    0 -0.00000000000E+00 -0.00000000000E+00 -0.10000000000E+04  0.10000000000E+04  0.00000000000E+00 0.  1.
    9000005    2    1    2  501    0 -0.11301630882E+03 -0.76629738483E+02 -0.81705492242E+03  0.10502153334E+04  0.64554527139E+03 0.  0.
         13    1    3    3    0    0 -0.33851984983E+03  0.41704494873E+02 -0.23303647296E+03  0.41308709899E+03  0.00000000000E+00 0.  1.
          3    1    3    3  501    0  0.22550354101E+03 -0.11833423336E+03 -0.58401844947E+03  0.63712823443E+03  0.00000000000E+00 0.  1.
         -1    1    1    2    0  502  0.11301630882E+03  0.76629738483E+02  0.38710912216E+01  0.13660083538E+03  0.00000000000E+00 0. -1.
<mgrwt>
<rscale>  1 0.65982839E+03</rscale>
<asrwt>0</asrwt>
<pdfrwt beam="1">  1       21 0.28740948E-01 0.65982839E+03</pdfrwt>
<pdfrwt beam="2">0</pdfrwt>
<totfact> 0.11048591E+03</totfact>
</mgrwt>
</event>
<event>
 6    1  0.1439793E-004  0.6604771E+03  0.7818608E-02  0.9787316E-01
         21   -1    0    0  501  502  0.00000000000E+00  0.00000000000E+00  0.19411702809E+03  0.19411702809E+03  0.00000000000E+00 0. -1.
         13   -1    0    0    0    0 -0.00000000000E+00 -0.00000000000E+00 -0.10000000000E+04  0.10000000000E+04  0.00000000000E+00 0.  1.
    9000005    2    1    2  501    0  0.21696571766E+02  0.14836139510E+02 -0.88868422118E+03  0.11072441374E+04  0.65995384875E+03 0.  0.
         13    1    3    3    0    0 -0.76024066175E+02 -0.13121237486E+03  0.44198405926E+02  0.15795519948E+03  0.00000000000E+00 0.  1.
          1    1    3    3  501    0  0.97720637941E+02  0.14604851437E+03 -0.93288262711E+03  0.94928893789E+03  0.00000000000E+00 0.  1.
         -3    1    1    2    0  502 -0.21696571766E+02 -0.14836139510E+02  0.82801249279E+02  0.86872890732E+02  0.00000000000E+00 0. -1.
<mgrwt>
<rscale>  1 0.66047705E+03</rscale>
<asrwt>0</asrwt>
<pdfrwt beam="1">  1       21 0.29864157E-01 0.66047705E+03</pdfrwt>
<pdfrwt beam="2">0</pdfrwt>
<totfact> 0.10233869E+03</totfact>
</mgrwt>
</event>
<event>
 6    1  0.1439793E-004  0.6656830E+03  0.7818608E-02  0.9777788E-01
         21   -1    0    0  501  502  0.00000000000E+00  0.00000000000E+00  0.25281066435E+03  0.25281066435E+03  0.00000000000E+00 0.  1.
         13   -1    0    0    0    0 -0.00000000000E+00 -0.00000000000E+00 -0.10000000000E+04  0.10000000000E+04  0.00000000000E+00 0.  1.
    9000005    2    1    2  501    0 -0.57111769989E+02  0.48556833397E+01 -0.88275976814E+03  0.11056214185E+04  0.66321081176E+03 0.  0.
         13    1    3    3    0    0 -0.18303619425E+03  0.28296528127E+03 -0.31658336509E+03  0.46238147223E+03  0.00000000000E+00 0.  1.
          1    1    3    3  501    0  0.12592442426E+03 -0.27810959793E+03 -0.56617640305E+03  0.64323994625E+03  0.00000000000E+00 0.  1.
         -3    1    1    2    0  502  0.57111769989E+02 -0.48556833397E+01  0.13557043249E+03  0.14718924586E+03  0.00000000000E+00 0. -1.
<mgrwt>
<rscale>  1 0.66568304E+03</rscale>
<asrwt>0</asrwt>
<pdfrwt beam="1">  1       21 0.38893947E-01 0.66568304E+03</pdfrwt>
<pdfrwt beam="2">0</pdfrwt>
<totfact> 0.59780289E+02</totfact>
</mgrwt>
</event>
<event>
 6    1  0.1439793E-004  0.6045833E+03  0.7818608E-02  0.9895943E-01
         21   -1    0    0  501  502  0.00000000000E+00  0.00000000000E+00  0.12311566854E+03  0.12311566854E+03  0.00000000000E+00 0.  1.
         13   -1    0    0    0    0 -0.00000000000E+00 -0.00000000000E+00 -0.10000000000E+04  0.10000000000E+04  0.00000000000E+00 0.  1.
    9000005    2    1    2  501    0  0.30034286742E+02 -0.46521842140E+01 -0.90049804648E+03  0.10846278947E+04  0.60381887770E+03 0.  0.
         13    1    3    3    0    0 -0.78228025586E+02 -0.15531229890E+03 -0.88109444832E+03  0.89809184443E+03  0.00000000000E+00 0.  1.
          3    1    3    3  501    0  0.10826231233E+03  0.15066011469E+03 -0.19403598156E+02  0.18653605027E+03  0.00000000000E+00 0.  1.
         -3    1    1    2    0  502 -0.30034286742E+02  0.46521842140E+01  0.23613715015E+02  0.38487773836E+02  0.00000000000E+00 0. -1.
<mgrwt>
<rscale>  1 0.60458328E+03</rscale>
<asrwt>0</asrwt>
<pdfrwt beam="1">  1       21 0.18940872E-01 0.60458328E+03</pdfrwt>
<pdfrwt beam="2">0</pdfrwt>
<totfact> 0.24946383E+03</totfact>
</mgrwt>
</event>
<event>
 6    1  0.1439793E-004  0.6496625E+03  0.7818608E-02  0.9807413E-01
         21   -1    0    0  501  502  0.00000000000E+00  0.00000000000E+00  0.25828059442E+03  0.25828059442E+03  0.00000000000E+00 0.  1.
         13   -1    0    0    0    0 -0.00000000000E+00 -0.00000000000E+00 -0.10000000000E+04  0.10000000000E+04  0.00000000000E+00 0.  1.
    9000005    2    1    2  501    0 -0.25376680158E+02  0.46676039296E+02 -0.88935926832E+03  0.11013724760E+04  0.64748652056E+03 0.  0.
         13    1    3    3    0    0  0.56992621250E+02  0.26212268617E+03 -0.81657406471E+03  0.85950547679E+03  0.00000000000E+00 0.  1.
          1    1    3    3  501    0 -0.82369301408E+02 -0.21544664687E+03 -0.72785203615E+02  0.24186699925E+03  0.00000000000E+00 0.  1.
         -3    1    1    2    0  502  0.25376680158E+02 -0.46676039296E+02  0.14763986274E+03  0.15690811837E+03  0.00000000000E+00 0. -1.
<mgrwt>
<rscale>  1 0.64966255E+03</rscale>
<asrwt>0</asrwt>
<pdfrwt beam="1">  1       21 0.39735475E-01 0.64966255E+03</pdfrwt>
<pdfrwt beam="2">0</pdfrwt>
<totfact> 0.57260466E+02</totfact>
</mgrwt>
</event>
<event>
 6    1  0.1439793E-004  0.6596909E+03  0.7818608E-02  0.9788763E-01
         21   -1    0    0  501  502  0.00000000000E+00  0.00000000000E+00  0.38497361547E+03  0.38497361547E+03  0.00000000000E+00 0. -1.
         13   -1    0    0    0    0 -0.00000000000E+00 -0.00000000000E+00 -0.10000000000E+04  0.10000000000E+04  0.00000000000E+00 0.  1.
    9000005    2    1    2  501    0  0.15633575951E+03 -0.81023568499E+02 -0.85962860408E+03  0.10835836120E+04  0.63575657212E+03 0.  0.
         13    1    3    3    0    0  0.34412534990E+03  0.55180846730E+02 -0.24330540969E+03  0.42504670881E+03  0.00000000000E+00 0.  1.
          1    1    3    3  501    0 -0.18778959039E+03 -0.13620441523E+03 -0.61632319439E+03  0.65853690324E+03  0.00000000000E+00 0.  1.
         -3    1    1    2    0  502 -0.15633575951E+03  0.81023568499E+02  0.24460221955E+03  0.30139000342E+03  0.00000000000E+00 0. -1.
<mgrwt>
<rscale>  1 0.65969092E+03</rscale>
<asrwt>0</asrwt>
<pdfrwt beam="1">  1       21 0.59226708E-01 0.65969092E+03</pdfrwt>
<pdfrwt beam="2">0</pdfrwt>
<totfact> 0.24387315E+02</totfact>
</mgrwt>
</event>
<event>
 6    1  0.1439793E-004  0.6504566E+03  0.7818608E-02  0.9805923E-01
         21   -1    0    0  501  502  0.00000000000E+00  0.00000000000E+00  0.13669125240E+03  0.13669125240E+03  0.00000000000E+00 0.  1.
         13   -1    0    0    0    0 -0.00000000000E+00 -0.00000000000E+00 -0.10000000000E+04  0.10000000000E+04  0.00000000000E+00 0.  1.
    9000005    2    1    2  501    0  0.23814785663E+02  0.41759678773E+02 -0.87196039623E+03  0.10878459270E+04  0.64867774245E+03 0.  0.
         13    1    3    3    0    0  0.72223521138E+02 -0.23865224620E+03 -0.10637041833E+03  0.27108263965E+03  0.00000000000E+00 0.  1.
          3    1    3    3  501    0 -0.48408735475E+02  0.28041192498E+03 -0.76558997790E+03  0.81676328737E+03  0.00000000000E+00 0.  1.
         -1    1    1    2    0  502 -0.23814785663E+02 -0.41759678773E+02  0.86516486293E+01  0.48845325379E+02  0.00000000000E+00 0. -1.
<mgrwt>
<rscale>  1 0.65045663E+03</rscale>
<asrwt>0</asrwt>
<pdfrwt beam="1">  1       21 0.21029423E-01 0.65045663E+03</pdfrwt>
<pdfrwt beam="2">0</pdfrwt>
<totfact> 0.20378171E+03</totfact>
</mgrwt>
</event>
<event>
 6    1  0.1439793E-004  0.6512835E+03  0.7818608E-02  0.9804374E-01
         21   -1    0    0  501  502  0.00000000000E+00  0.00000000000E+00  0.13652000770E+03  0.13652000770E+03  0.00000000000E+00 0.  1.
         13   -1    0    0    0    0 -0.00000000000E+00 -0.00000000000E+00 -0.10000000000E+04  0.10000000000E+04  0.00000000000E+00 0.  1.
    9000005    2    1    2  501    0 -0.26472042744E+02 -0.13983320406E+02 -0.88559839728E+03  0.10992973515E+04  0.65059499185E+03 0.  0.
         13    1    3    3    0    0 -0.23384509037E+03  0.21166221904E+03 -0.61189717831E+03  0.68840582368E+03  0.00000000000E+00 0.  1.
          3    1    3    3  501    0  0.20737304762E+03 -0.22564553945E+03 -0.27370121897E+03  0.41089152780E+03  0.00000000000E+00 0.  1.
         -3    1    1    2    0  502  0.26472042744E+02  0.13983320406E+02  0.22118404987E+02  0.37222656216E+02  0.00000000000E+00 0. -1.
<mgrwt>
<rscale>  1 0.65128346E+03</rscale>
<asrwt>0</asrwt>
<pdfrwt beam="1">  1       21 0.21003078E-01 0.65128346E+03</pdfrwt>
<pdfrwt beam="2">0</pdfrwt>
<totfact> 0.20426740E+03</totfact>
</mgrwt>
</event>
<event>
 6    1  0.1439793E-004  0.6561872E+03  0.7818608E-02  0.9795238E-01
         21   -1    0    0  501  502  0.00000000000E+00  0.00000000000E+00  0.19126525544E+03  0.19126525544E+03  0.00000000000E+00 0.  1.
         13   -1    0    0    0    0 -0.00000000000E+00 -0.00000000000E+00 -0.10000000000E+04  0.10000000000E+04  0.00000000000E+00 0.  1.
    9000005    2    1    2  501    0  0.13668875570E+02 -0.16136008840E+02 -0.89087087582E+03  0.11064504395E+04  0.65584636067E+03 0.  0.
         13    1    3    3    0    0  0.30738663666E+03  0.10013629567E+03 -0.32519531714E+03  0.45854750724E+03  0.00000000000E+00 0.  1.
          3    1    3    3  501    0 -0.29371776109E+03 -0.11627230451E+03 -0.56567555868E+03  0.64790293228E+03  0.00000000000E+00 0.  1.
         -3    1    1    2    0  502 -0.13668875570E+02  0.16136008840E+02  0.82136131260E+02  0.84814815916E+02  0.00000000000E+00 0. -1.
<mgrwt>
<rscale>  1 0.65618721E+03</rscale>
<asrwt>0</asrwt>
<pdfrwt beam="1">  1       21 0.29425423E-01 0.65618721E+03</pdfrwt>
<pdfrwt beam="2">0</pdfrwt>
<totfact> 0.10544047E+03</totfact>
</mgrwt>
</event>
<event>
 6    1  0.1439793E-004  0.5718749E+03  0.7818608E-02  0.9965538E-01
         21   -1    0    0  501  502  0.00000000000E+00  0.00000000000E+00  0.17450640496E+03  0.17450640496E+03  0.00000000000E+00 0. -1.
         13   -1    0    0    0    0 -0.00000000000E+00 -0.00000000000E+00 -0.10000000000E+04  0.10000000000E+04  0.00000000000E+00 0.  1.
    9000005    2    1    2  501    0 -0.10167441795E+02  0.21805566750E+02 -0.91654933685E+03  0.10803256865E+04  0.57136856966E+03 0.  0.
         13    1    3    3    0    0  0.14693332514E+03  0.22288130396E+03 -0.24658979825E+03  0.36341712438E+03  0.00000000000E+00 0.  1.
          1    1    3    3  501    0 -0.15710076694E+03 -0.20107573721E+03 -0.66995953860E+03  0.71690856211E+03  0.00000000000E+00 0.  1.
         -1    1    1    2    0  502  0.10167441795E+02 -0.21805566750E+02  0.91055741808E+02  0.94180718463E+02  0.00000000000E+00 0. -1.
<mgrwt>
<rscale>  1 0.57187490E+03</rscale>
<asrwt>0</asrwt>
<pdfrwt beam="1">  1       21 0.26847138E-01 0.57187490E+03</pdfrwt>
<pdfrwt beam="2">0</pdfrwt>
<totfact> 0.12715390E+03</totfact>
</mgrwt>
</event>
<event>
 6    1  0.1439793E-004  0.6616632E+03  0.7818608E-02  0.9785137E-01
         21   -1    0    0  501  502  0.00000000000E+00  0.00000000000E+00  0.11758400518E+03  0.11758400518E+03  0.00000000000E+00 0.  1.
         13   -1    0    0    0    0 -0.00000000000E+00 -0.00000000000E+00 -0.10000000000E+04  0.10000000000E+04  0.00000000000E+00 0.  1.
    9000005    2    1    2  501    0  0.86575978005E+01  0.21138936979E+02 -0.86393415778E+03  0.10882005582E+04  0.66126879347E+03 0.  0.
         13    1    3    3    0    0  0.57057501771E+02  0.33334283289E+03 -0.36447619450E+03  0.49720810443E+03  0.00000000000E+00 0.  1.
          1    1    3    3  501    0 -0.48399903970E+02 -0.31220389591E+03 -0.49945796328E+03  0.59099245377E+03  0.00000000000E+00 0.  1.
         -1    1    1    2    0  502 -0.86575978005E+01 -0.21138936979E+02 -0.18481837043E+02  0.29383446985E+02  0.00000000000E+00 0. -1.
<mgrwt>
<rscale>  1 0.66166323E+03</rscale>
<asrwt>0</asrwt>
<pdfrwt beam="1">  1       21 0.18089846E-01 0.66166323E+03</pdfrwt>
<pdfrwt beam="2">0</pdfrwt>
<totfact> 0.27169919E+03</totfact>
</mgrwt>
</event>
<event>
 6    1  0.1439793E-004  0.6658927E+03  0.7818608E-02  0.9777406E-01
         21   -1    0    0  501  502  0.00000000000E+00  0.00000000000E+00  0.18373391368E+03  0.18373391368E+03  0.00000000000E+00 0. -1.
         13   -1    0    0    0    0 -0.00000000000E+00 -0.00000000000E+00 -0.10000000000E+04  0.10000000000E+04  0.00000000000E+00 0.  1.
    9000005    2    1    2  501    0  0.13985417015E+03  0.26166781478E+02 -0.79947140741E+03  0.10404651083E+04  0.65051458164E+03 0.  0.
         13    1    3    3    0    0  0.14153666839E+03 -0.27278445159E+03 -0.61944734716E+03  0.69149042034E+03  0.00000000000E+00 0.  1.
          3    1    3    3  501    0 -0.16824982347E+01  0.29895123307E+03 -0.18002406025E+03  0.34897468794E+03  0.00000000000E+00 0.  1.
         -3    1    1    2    0  502 -0.13985417015E+03 -0.26166781478E+02 -0.16794678910E+02  0.14326880540E+03  0.00000000000E+00 0. -1.
<mgrwt>
<rscale>  1 0.66589272E+03</rscale>
<asrwt>0</asrwt>
<pdfrwt beam="1">  1       21 0.28266755E-01 0.66589272E+03</pdfrwt>
<pdfrwt beam="2">0</pdfrwt>
<totfact> 0.11416621E+03</totfact>
</mgrwt>
</event>
<event>
 6    1  0.1439793E-004  0.6561236E+03  0.7818608E-02  0.9795356E-01
         21   -1    0    0  501  502  0.00000000000E+00  0.00000000000E+00  0.18751059675E+03  0.18751059675E+03  0.00000000000E+00 0. -1.
         13   -1    0    0    0    0 -0.00000000000E+00 -0.00000000000E+00 -0.10000000000E+04  0.10000000000E+04  0.00000000000E+00 0.  1.
    9000005    2    1    2  501    0  0.61261151558E+02  0.78696080556E+02 -0.85614178383E+03  0.10786458545E+04  0.64849990250E+03 0.  0.
         13    1    3    3    0    0 -0.46100516430E+02 -0.23679863176E+03 -0.63343606835E+03  0.67782011058E+03  0.00000000000E+00 0.  1.
          1    1    3    3  501    0  0.10736166799E+03  0.31549471231E+03 -0.22270571547E+03  0.40082574388E+03  0.00000000000E+00 0.  1.
         -3    1    1    2    0  502 -0.61261151558E+02 -0.78696080556E+02  0.43652380575E+02  0.10886474229E+03  0.00000000000E+00 0. -1.
<mgrwt>
<rscale>  1 0.65612356E+03</rscale>
<asrwt>0</asrwt>
<pdfrwt beam="1">  1       21 0.28847783E-01 0.65612356E+03</pdfrwt>
<pdfrwt beam="2">0</pdfrwt>
<totfact> 0.10969620E+03</totfact>
</mgrwt>
</event>
<event>
 6    1  0.1439793E-004  0.6500685E+03  0.7818608E-02  0.9806651E-01
         21   -1    0    0  501  502  0.00000000000E+00  0.00000000000E+00  0.11328448763E+03  0.11328448763E+03  0.00000000000E+00 0.  1.
         13   -1    0    0    0    0 -0.00000000000E+00 -0.00000000000E+00 -0.10000000000E+04  0.10000000000E+04  0.00000000000E+00 0.  1.
    9000005    2    1    2  501    0 -0.20551068357E+02  0.27115864074E+01 -0.87292394174E+03  0.10883865654E+04  0.64973795376E+03 0.  0.
         13    1    3    3    0    0 -0.30206794261E+03  0.13924721586E+03 -0.38523211961E+03  0.50895836280E+03  0.00000000000E+00 0.  1.
          1    1    3    3  501    0  0.28151687426E+03 -0.13653562945E+03 -0.48769182213E+03  0.57942820260E+03  0.00000000000E+00 0.  1.
         -3    1    1    2    0  502  0.20551068357E+02 -0.27115864074E+01 -0.13791570628E+02  0.24897922239E+02  0.00000000000E+00 0. -1.
<mgrwt>
<rscale>  1 0.65006854E+03</rscale>
<asrwt>0</asrwt>
<pdfrwt beam="1">  1       21 0.17428382E-01 0.65006854E+03</pdfrwt>
<pdfrwt beam="2">0</pdfrwt>
<totfact> 0.29168702E+03</totfact>
</mgrwt>
</event>
<event>
 6    1  0.1439793E-004  0.7288646E+03  0.7818608E-02  0.9669105E-01
         21   -1    0    0  501  502  0.00000000000E+00  0.00000000000E+00  0.69926733140E+03  0.69926733140E+03  0.00000000000E+00 0. -1.
         13   -1    0    0    0    0 -0.00000000000E+00 -0.00000000000E+00 -0.10000000000E+04  0.10000000000E+04  0.00000000000E+00 0.  1.
    9000005    2    1    2  501    0  0.26302290457E+03 -0.15702681553E+03 -0.81954608061E+03  0.10967676836E+04  0.66136608955E+03 0.  0.
         13    1    3    3    0    0 -0.60236067440E+02 -0.27794062726E+03 -0.65569969155E+03  0.71471774961E+03  0.00000000000E+00 0.  1.
          1    1    3    3  501    0  0.32325897201E+03  0.12091381173E+03 -0.16384638906E+03  0.38204993399E+03  0.00000000000E+00 0.  1.
         -1    1    1    2    0  502 -0.26302290457E+03  0.15702681553E+03  0.51881341201E+03  0.60249964781E+03  0.00000000000E+00 0. -1.
<mgrwt>
<rscale>  1 0.72886458E+03</rscale>
<asrwt>0</asrwt>
<pdfrwt beam="1">  1       21 0.10757959E+00 0.72886458E+03</pdfrwt>
<pdfrwt beam="2">0</pdfrwt>
<totfact> 0.59806676E+01</totfact>
</mgrwt>
</event>
<event>
 6    1  0.1439793E-004  0.6860768E+03  0.7818608E-02  0.9741343E-01
         21   -1    0    0  501  502  0.00000000000E+00  0.00000000000E+00  0.24508426100E+03  0.24508426100E+03  0.00000000000E+00 0. -1.
         13   -1    0    0    0    0 -0.00000000000E+00 -0.00000000000E+00 -0.10000000000E+04  0.10000000000E+04  0.00000000000E+00 0.  1.
    9000005    2    1    2  501    0 -0.56709075768E+00  0.40357868707E+02 -0.87874007021E+03  0.11148477678E+04  0.68488857140E+03 0.  0.
         13    1    3    3    0    0  0.11132644118E+03 -0.55829859001E+02 -0.94494848083E+03  0.95312023432E+03  0.00000000000E+00 0.  1.
          3    1    3    3  501    0 -0.11189353194E+03  0.96187727708E+02  0.66208410612E+02  0.16172753348E+03  0.00000000000E+00 0.  1.
         -3    1    1    2    0  502  0.56709075768E+00 -0.40357868707E+02  0.12382433122E+03  0.13023649320E+03  0.00000000000E+00 0. -1.
<mgrwt>
<rscale>  1 0.68607684E+03</rscale>
<asrwt>0</asrwt>
<pdfrwt beam="1">  1       21 0.37705270E-01 0.68607684E+03</pdfrwt>
<pdfrwt beam="2">0</pdfrwt>
<totfact> 0.63637854E+02</totfact>
</mgrwt>
</event>
<event>
 6    1  0.1439793E-004  0.6527417E+03  0.7818608E-02  0.9801648E-01
         21   -1    0    0  501  502  0.00000000000E+00  0.00000000000E+00  0.88982028016E+03  0.88982028016E+03  0.00000000000E+00 0. -1.
         13   -1    0    0    0    0 -0.00000000000E+00 -0.00000000000E+00 -0.10000000000E+04  0.10000000000E+04  0.00000000000E+00 0.  1.
    9000005    2    1    2  501    0  0.40753391441E+02  0.20508873118E+02 -0.89274686048E+03  0.11059243799E+04  0.65114539424E+03 0.  0.
         13    1    3    3    0    0  0.18469943125E+03  0.18806238390E+03 -0.98277988777E+02  0.28131815302E+03  0.00000000000E+00 0.  1.
          3    1    3    3  501    0 -0.14394603981E+03 -0.16755351078E+03 -0.79446887170E+03  0.82460622691E+03  0.00000000000E+00 0.  1.
         -1    1    1    2    0  502 -0.40753391441E+02 -0.20508873118E+02  0.78256714064E+03  0.78389590023E+03  0.00000000000E+00 0. -1.
<mgrwt>
<rscale>  1 0.65274174E+03</rscale>
<asrwt>0</asrwt>
<pdfrwt beam="1">  1       21 0.13689542E+00 0.65274174E+03</pdfrwt>
<pdfrwt beam="2">0</pdfrwt>
<totfact> 0.32526700E+01</totfact>
</mgrwt>
</event>
<event>
 6    1  0.1439793E-004  0.6439488E+03  0.7818608E-02  0.9818201E-01
         21   -1    0    0  501  502  0.00000000000E+00  0.00000000000E+00  0.58712613892E+03  0.58712613892E+03  0.00000000000E+00 0. -1.
         13   -1    0    0    0    0 -0.00000000000E+00 -0.00000000000E+00 -0.10000000000E+04  0.10000000000E+04  0.00000000000E+00 0.  1.
    9000005    2    1    2  501    0  0.14862925911E+02  0.44333323430E+02 -0.89508426789E+03  0.11026540277E+04  0.64224894550E+03 0.  0.
         13    1    3    3    0    0  0.21099119988E+03  0.80726496323E+02 -0.46116427632E+02  0.23056621291E+03  0.00000000000E+00 0.  1.
          1    1    3    3  501    0 -0.19612827397E+03 -0.36393172893E+02 -0.84896784026E+03  0.87208781477E+03  0.00000000000E+00 0.  1.
         -3    1    1    2    0  502 -0.14862925911E+02 -0.44333323430E+02  0.48221040681E+03  0.48447211123E+03  0.00000000000E+00 0. -1.
<mgrwt>
<rscale>  1 0.64394880E+03</rscale>
<asrwt>0</asrwt>
<pdfrwt beam="1">  1       21 0.90327096E-01 0.64394880E+03</pdfrwt>
<pdfrwt beam="2">0</pdfrwt>
<totfact> 0.92846884E+01</totfact>
</mgrwt>
</event>
<event>
 6    1  0.1439793E-004  0.6425882E+03  0.7818608E-02  0.9820787E-01
         21   -1    0    0  501  502  0.00000000000E+00  0.00000000000E+00  0.18600407130E+03  0.18600407130E+03  0.00000000000E+00 0.  1.
         13   -1    0    0    0    0 -0.00000000000E+00 -0.00000000000E+00 -0.10000000000E+04  0.10000000000E+04  0.00000000000E+00 0.  1.
    9000005    2    1    2  501    0  0.13494131910E+03 -0.10490068001E+02 -0.83004047974E+03  0.10497079644E+04  0.62817227850E+03 0.  0.
         13    1    3    3    0    0  0.36616719714E+03  0.10041508302E+03 -0.42098943615E+03  0.56691596424E+03  0.00000000000E+00 0.  1.
          3    1    3    3  501    0 -0.23122587804E+03 -0.11090515102E+03 -0.40905104359E+03  0.48279200020E+03  0.00000000000E+00 0.  1.
         -1    1    1    2    0  502 -0.13494131910E+03  0.10490068001E+02  0.16044551037E+02  0.13629610685E+03  0.00000000000E+00 0. -1.
<mgrwt>
<rscale>  1 0.64258821E+03</rscale>
<asrwt>0</asrwt>
<pdfrwt beam="1">  1       21 0.28616010E-01 0.64258821E+03</pdfrwt>
<pdfrwt beam="2">0</pdfrwt>
<totfact> 0.11156433E+03</totfact>
</mgrwt>
</event>
<event>
 6    1  0.1439793E-004  0.6564524E+03  0.7818608E-02  0.9794746E-01
         21   -1    0    0  501  502  0.00000000000E+00  0.00000000000E+00  0.12686873054E+03  0.12686873054E+03  0.00000000000E+00 0.  1.
         13   -1    0    0    0    0 -0.00000000000E+00 -0.00000000000E+00 -0.10000000000E+04  0.10000000000E+04  0.00000000000E+00 0.  1.
    9000005    2    1    2  501    0 -0.32196225077E+02  0.14812793562E+02 -0.87191793021E+03  0.10914076539E+04  0.65549506045E+03 0.  0.
         13    1    3    3    0    0 -0.86970764222E+02 -0.23234111482E+03 -0.78576563253E+03  0.82399874801E+03  0.00000000000E+00 0.  1.
          3    1    3    3  501    0  0.54774539145E+02  0.24715390838E+03 -0.86152297679E+02  0.26740890591E+03  0.00000000000E+00 0.  1.
         -1    1    1    2    0  502  0.32196225077E+02 -0.14812793562E+02 -0.12133392580E+01  0.35461076611E+02  0.00000000000E+00 0. -1.
<mgrwt>
<rscale>  1 0.65645243E+03</rscale>
<asrwt>0</asrwt>
<pdfrwt beam="1">  1       21 0.19518266E-01 0.65645243E+03</pdfrwt>
<pdfrwt beam="2">0</pdfrwt>
<totfact> 0.23509759E+03</totfact>
</mgrwt>
</event>
<event>
 6    1  0.1439793E-004  0.6593850E+03  0.7818608E-02  0.9789327E-01
         21   -1    0    0  501  502  0.00000000000E+00  0.00000000000E+00  0.67972014144E+03  0.67972014144E+03  0.00000000000E+00 0. -1.
         13   -1    0    0    0    0 -0.00000000000E+00 -0.00000000000E+00 -0.10000000000E+04  0.10000000000E+04  0.00000000000E+00 0.  1.
    9000005    2    1    2  501    0  0.73445720012E+02  0.10885389835E+03 -0.88291448069E+03  0.11019648619E+04  0.64617732221E+03 0.  0.
         13    1    3    3    0    0  0.23881708026E+03  0.26653153691E+03 -0.76560111121E+03  0.84511402750E+03  0.00000000000E+00 0.  1.
          1    1    3    3  501    0 -0.16537136025E+03 -0.15767763856E+03 -0.11731336948E+03  0.25685083444E+03  0.00000000000E+00 0.  1.
         -3    1    1    2    0  502 -0.73445720012E+02 -0.10885389835E+03  0.56263462213E+03  0.57775527951E+03  0.00000000000E+00 0. -1.
<mgrwt>
<rscale>  1 0.65938500E+03</rscale>
<asrwt>0</asrwt>
<pdfrwt beam="1">  1       21 0.10457233E+00 0.65938500E+03</pdfrwt>
<pdfrwt beam="2">0</pdfrwt>
<totfact> 0.64843552E+01</totfact>
</mgrwt>
</event>
<event>
 6    1  0.1439793E-004  0.6613794E+03  0.7818608E-02  0.9785658E-01
         21   -1    0    0  501  502  0.00000000000E+00  0.00000000000E+00  0.12549586749E+03  0.12549586749E+03  0.00000000000E+00 0.  1.
         13   -1    0    0    0    0 -0.00000000000E+00 -0.00000000000E+00 -0.10000000000E+04  0.10000000000E+04  0.00000000000E+00 0.  1.
    9000005    2    1    2  501    0  0.62705813901E+01 -0.28172846249E+02 -0.87474589033E+03  0.10966326053E+04  0.66074932381E+03 0.  0.
         13    1    3    3    0    0  0.12478978055E+03 -0.22962694944E+02  0.69697734188E+02  0.14476722295E+03  0.00000000000E+00 0.  1.
          1    1    3    3  501    0 -0.11851919916E+03 -0.52101513055E+01 -0.94444362452E+03  0.95186538236E+03  0.00000000000E+00 0.  1.
         -3    1    1    2    0  502 -0.62705813901E+01  0.28172846249E+02  0.24175781355E+00  0.28863262179E+02  0.00000000000E+00 0. -1.
<mgrwt>
<rscale>  1 0.66137939E+03</rscale>
<asrwt>0</asrwt>
<pdfrwt beam="1">  1       21 0.19307056E-01 0.66137939E+03</pdfrwt>
<pdfrwt beam="2">0</pdfrwt>
<totfact> 0.23999771E+03</totfact>
</mgrwt>
</event>
<event>
 6    1  0.1439793E-004  0.6536461E+03  0.7818608E-02  0.9799961E-01
         21   -1    0    0  501  502  0.00000000000E+00  0.00000000000E+00  0.13871222492E+03  0.13871222492E+03  0.00000000000E+00 0.  1.
         13   -1    0    0    0    0 -0.00000000000E+00 -0.00000000000E+00 -0.10000000000E+04  0.10000000000E+04  0.00000000000E+00 0.  1.
    9000005    2    1    2  501    0 -0.88613686918E+02  0.13719328321E+02 -0.78012105693E+03  0.10177633034E+04  0.64746634879E+03 0.  0.
         13    1    3    3    0    0  0.14422935859E+03 -0.92435071950E+02 -0.73898176981E+03  0.75857788428E+03  0.00000000000E+00 0.  1.
          3    1    3    3  501    0 -0.23284304551E+03  0.10615440027E+03 -0.41139287116E+02  0.25918541912E+03  0.00000000000E+00 0.  1.
         -1    1    1    2    0  502  0.88613686918E+02 -0.13719328321E+02 -0.81166718153E+02  0.12094892151E+03  0.00000000000E+00 0. -1.
<mgrwt>
<rscale>  1 0.65364614E+03</rscale>
<asrwt>0</asrwt>
<pdfrwt beam="1">  1       21 0.21340342E-01 0.65364614E+03</pdfrwt>
<pdfrwt beam="2">0</pdfrwt>
<totfact> 0.19806871E+03</totfact>
</mgrwt>
</event>
<event>
 6    1  0.1439793E-004  0.6658880E+03  0.7818608E-02  0.9777415E-01
         21   -1    0    0  501  502  0.00000000000E+00  0.00000000000E+00  0.17285046398E+03  0.17285046398E+03  0.00000000000E+00 0.  1.
         13   -1    0    0    0    0 -0.00000000000E+00 -0.00000000000E+00 -0.10000000000E+04  0.10000000000E+04  0.00000000000E+00 0.  1.
    9000005    2    1    2  501    0 -0.28102432852E+02  0.14159997417E+03 -0.76895287934E+03  0.10171997323E+04  0.65005112522E+03 0.  0.
         13    1    3    3    0    0 -0.19648128604E+03  0.34053584174E+03 -0.55421549279E+03  0.67950302996E+03  0.00000000000E+00 0.  1.
          1    1    3    3  501    0  0.16837885319E+03 -0.19893586758E+03 -0.21473738654E+03  0.33769670237E+03  0.00000000000E+00 0.  1.
         -3    1    1    2    0  502  0.28102432852E+02 -0.14159997417E+03 -0.58196656680E+02  0.15565073165E+03  0.00000000000E+00 0. -1.
<mgrwt>
<rscale>  1 0.66588795E+03</rscale>
<asrwt>0</asrwt>
<pdfrwt beam="1">  1       21 0.26592378E-01 0.66588795E+03</pdfrwt>
<pdfrwt beam="2">0</pdfrwt>
<totfact> 0.12885294E+03</totfact>
</mgrwt>
</event>
<event>
 6    1  0.1439793E-004  0.6567155E+03  0.7818608E-02  0.9794259E-01
         21   -1    0    0  501  502  0.00000000000E+00  0.00000000000E+00  0.49366740197E+03  0.49366740197E+03  0.00000000000E+00 0. -1.
         13   -1    0    0    0    0 -0.00000000000E+00 -0.00000000000E+00 -0.10000000000E+04  0.10000000000E+04  0.00000000000E+00 0.  1.
    9000005    2    1    2  501    0  0.35669502673E+02 -0.53779461159E+01 -0.89124689664E+03  0.11070665057E+04  0.65572401325E+03 0.  0.
         13    1    3    3    0    0 -0.25120638627E+03 -0.30783252611E+02 -0.73934731835E+03  0.78146446772E+03  0.00000000000E+00 0.  1.
          3    1    3    3  501    0  0.28687588895E+03  0.25405306496E+02 -0.15189957828E+03  0.32560203799E+03  0.00000000000E+00 0.  1.
         -3    1    1    2    0  502 -0.35669502673E+02  0.53779461159E+01  0.38491429860E+03  0.38660089627E+03  0.00000000000E+00 0. -1.
<mgrwt>
<rscale>  1 0.65671548E+03</rscale>
<asrwt>0</asrwt>
<pdfrwt beam="1">  1       21 0.75948829E-01 0.65671548E+03</pdfrwt>
<pdfrwt beam="2">0</pdfrwt>
<totfact> 0.13926015E+02</totfact>
</mgrwt>
</event>
<event>
 6    1  0.1439793E-004  0.6491020E+03  0.7818608E-02  0.9808466E-01
         21   -1    0    0  501  502  0.00000000000E+00  0.00000000000E+00  0.13988636474E+03  0.13988636474E+03  0.00000000000E+00 0.  1.
         13   -1    0    0    0    0 -0.00000000000E+00 -0.00000000000E+00 -0.10000000000E+04  0.10000000000E+04  0.00000000000E+00 0.  1.
    9000005    2    1    2  501    0 -0.42832422353E+02 -0.13692645336E+02 -0.87766237864E+03  0.10916156351E+04  0.64754253843E+03 0.  0.
         13    1    3    3    0    0  0.10081877132E+03 -0.28701649872E+03 -0.61544273582E+03  0.68652214550E+03  0.00000000000E+00 0.  1.
          3    1    3    3  501    0 -0.14365119367E+03  0.27332385339E+03 -0.26221964282E+03  0.40509348965E+03  0.00000000000E+00 0.  1.
         -1    1    1    2    0  502  0.42832422353E+02  0.13692645336E+02  0.17548743383E+02  0.48270729592E+02  0.00000000000E+00 0. -1.
<mgrwt>
<rscale>  1 0.64910203E+03</rscale>
<asrwt>0</asrwt>
<pdfrwt beam="1">  1       21 0.21520979E-01 0.64910203E+03</pdfrwt>
<pdfrwt beam="2">0</pdfrwt>
<totfact> 0.19491018E+03</totfact>
</mgrwt>
</event>
<event>
 6    1  0.1439793E-004  0.6443177E+03  0.7818608E-02  0.9817500E-01
         21   -1    0    0  501  502  0.00000000000E+00  0.00000000000E+00  0.13085260568E+03  0.13085260568E+03  0.00000000000E+00 0.  1.
         13   -1    0    0    0    0 -0.00000000000E+00 -0.00000000000E+00 -0.10000000000E+04  0.10000000000E+04  0.00000000000E+00 0.  1.
    9000005    2    1    2  501    0 -0.54829853381E+02 -0.32991216507E+01 -0.86089498071E+03  0.10753071346E+04  0.64197201569E+03 0.  0.
         13    1    3    3    0    0 -0.27658332310E+03  0.19985421201E+03 -0.41168691787E+03  0.53472063643E+03  0.00000000000E+00 0.  1.
          1    1    3    3  501    0  0.22175346972E+03 -0.20315333366E+03 -0.44920806284E+03  0.54058649819E+03  0.00000000000E+00 0.  1.
         -3    1    1    2    0  502  0.54829853381E+02  0.32991216507E+01 -0.82524136105E+01  0.55545471065E+02  0.00000000000E+00 0. -1.
<mgrwt>
<rscale>  1 0.64431767E+03</rscale>
<asrwt>0</asrwt>
<pdfrwt beam="1">  1       21 0.20131170E-01 0.64431767E+03</pdfrwt>
<pdfrwt beam="2">0</pdfrwt>
<totfact> 0.22167876E+03</totfact>
</mgrwt>
</event>
<event>
 6    1  0.1439793E-004  0.6495830E+03  0.7818608E-02  0.9807562E-01
         21   -1    0    0  501  502  0.00000000000E+00  0.00000000000E+00  0.25271060771E+03  0.25271060771E+03  0.00000000000E+00 0. -1.
         13   -1    0    0    0    0 -0.00000000000E+00 -0.00000000000E+00 -0.10000000000E+04  0.10000000000E+04  0.00000000000E+00 0.  1.
    9000005    2    1    2  501    0 -0.21978807865E+02  0.90159385608E+01 -0.89345022446E+03  0.11046317638E+04  0.64914842290E+03 0.  0.
         13    1    3    3    0    0  0.29796378686E+03 -0.79981615536E+02 -0.33926837937E+03  0.45856570995E+03  0.00000000000E+00 0.  1.
          3    1    3    3  501    0 -0.31994259473E+03  0.88997554096E+02 -0.55418184509E+03  0.64606605389E+03  0.00000000000E+00 0.  1.
         -3    1    1    2    0  502  0.21978807865E+02 -0.90159385608E+01  0.14616083217E+03  0.14807884387E+03  0.00000000000E+00 0. -1.
<mgrwt>
<rscale>  1 0.64958297E+03</rscale>
<asrwt>0</asrwt>
<pdfrwt beam="1">  1       21 0.38878554E-01 0.64958297E+03</pdfrwt>
<pdfrwt beam="2">0</pdfrwt>
<totfact> 0.59904564E+02</totfact>
</mgrwt>
</event>
<event>
 6    1  0.1439793E-004  0.4891835E+03  0.7818608E-02  0.1016641E+00
         21   -1    0    0  501  502  0.00000000000E+00  0.00000000000E+00  0.77563427097E+02  0.77563427097E+02  0.00000000000E+00 0.  1.
         13   -1    0    0    0    0 -0.00000000000E+00 -0.00000000000E+00 -0.10000000000E+04  0.10000000000E+04  0.00000000000E+00 0.  1.
    9000005    2    1    2  501    0 -0.51101054672E+02 -0.44400921620E+02 -0.81759852506E+03  0.95276849168E+03  0.48447671867E+03 0.  0.
         13    1    3    3    0    0  0.50218286450E+02  0.13988316412E+03 -0.69207861998E+03  0.70785732470E+03  0.00000000000E+00 0.  1.
          3    1    3    3  501    0 -0.10131934112E+03 -0.18428408574E+03 -0.12551990508E+03  0.24491116699E+03  0.00000000000E+00 0.  1.
         -1    1    1    2    0  502  0.51101054672E+02  0.44400921620E+02 -0.10483804784E+03  0.12479493541E+03  0.00000000000E+00 0. -1.
<mgrwt>
<rscale>  1 0.48918345E+03</rscale>
<asrwt>0</asrwt>
<pdfrwt beam="1">  1       21 0.11932835E-01 0.48918345E+03</pdfrwt>
<pdfrwt beam="2">0</pdfrwt>
<totfact> 0.59176626E+03</totfact>
</mgrwt>
</event>
<event>
 6    1  0.1439793E-004  0.6481807E+03  0.7818608E-02  0.9810199E-01
         21   -1    0    0  501  502  0.00000000000E+00  0.00000000000E+00  0.12954863771E+03  0.12954863771E+03  0.00000000000E+00 0.  1.
         13   -1    0    0    0    0 -0.00000000000E+00 -0.00000000000E+00 -0.10000000000E+04  0.10000000000E+04  0.00000000000E+00 0.  1.
    9000005    2    1    2  501    0  0.16300670782E+02  0.13679978110E+02 -0.88975402039E+03  0.11008180568E+04  0.64783124634E+03 0.  0.
         13    1    3    3    0    0 -0.13363396806E+03 -0.10769815308E+03  0.18204544600E+02  0.17259297506E+03  0.00000000000E+00 0.  1.
          1    1    3    3  501    0  0.14993463884E+03  0.12137813119E+03 -0.90795856499E+03  0.92822508175E+03  0.00000000000E+00 0.  1.
         -3    1    1    2    0  502 -0.16300670782E+02 -0.13679978110E+02  0.19302658093E+02  0.28730580893E+02  0.00000000000E+00 0. -1.
<mgrwt>
<rscale>  1 0.64818067E+03</rscale>
<asrwt>0</asrwt>
<pdfrwt beam="1">  1       21 0.19930559E-01 0.64818067E+03</pdfrwt>
<pdfrwt beam="2">0</pdfrwt>
<totfact> 0.22594292E+03</totfact>
</mgrwt>
</event>
<event>
 6    1  0.1439793E-004  0.6492766E+03  0.7818608E-02  0.9808138E-01
         21   -1    0    0  501  502  0.00000000000E+00  0.00000000000E+00  0.14729669250E+03  0.14729669250E+03  0.00000000000E+00 0.  1.
         13   -1    0    0    0    0 -0.00000000000E+00 -0.00000000000E+00 -0.10000000000E+04  0.10000000000E+04  0.00000000000E+00 0.  1.
    9000005    2    1    2  501    0 -0.27955237451E+02 -0.15664903457E+02 -0.88772585749E+03  0.10998260330E+04  0.64848532782E+03 0.  0.
         13    1    3    3    0    0 -0.19989471482E+03 -0.23963542559E+03 -0.68344752112E+03  0.75132120184E+03  0.00000000000E+00 0.  1.
          3    1    3    3  501    0  0.17193947736E+03  0.22397052213E+03 -0.20427833637E+03  0.34850483120E+03  0.00000000000E+00 0.  1.
         -1    1    1    2    0  502  0.27955237451E+02  0.15664903457E+02  0.35022549997E+02  0.47470659460E+02  0.00000000000E+00 0. -1.
<mgrwt>
<rscale>  1 0.64927660E+03</rscale>
<asrwt>0</asrwt>
<pdfrwt beam="1">  1       21 0.22661029E-01 0.64927660E+03</pdfrwt>
<pdfrwt beam="2">0</pdfrwt>
<totfact> 0.17637356E+03</totfact>
</mgrwt>
</event>
<event>
 6    1  0.1439793E-004  0.6595398E+03  0.7818608E-02  0.9789041E-01
         21   -1    0    0  501  502  0.00000000000E+00  0.00000000000E+00  0.16549474964E+03  0.16549474964E+03  0.00000000000E+00 0.  1.
         13   -1    0    0    0    0 -0.00000000000E+00 -0.00000000000E+00 -0.10000000000E+04  0.10000000000E+04  0.00000000000E+00 0.  1.
    9000005    2    1    2  501    0 -0.72415199286E+02  0.65494691655E+02 -0.83966130879E+03  0.10677189824E+04  0.65227233281E+03 0.  0.
         13    1    3    3    0    0  0.36351914854E+02 -0.45547035186E+01  0.10656638215E+03  0.11268806876E+03  0.00000000000E+00 0.  1.
          3    1    3    3  501    0 -0.10876711414E+03  0.70049395174E+02 -0.94622769094E+03  0.95503091363E+03  0.00000000000E+00 0.  1.
         -3    1    1    2    0  502  0.72415199286E+02 -0.65494691655E+02  0.51560584322E+01  0.97775767249E+02  0.00000000000E+00 0. -1.
<mgrwt>
<rscale>  1 0.65953977E+03</rscale>
<asrwt>0</asrwt>
<pdfrwt beam="1">  1       21 0.25460730E-01 0.65953977E+03</pdfrwt>
<pdfrwt beam="2">0</pdfrwt>
<totfact> 0.14042138E+03</totfact>
</mgrwt>
</event>
<event>
 6    1  0.1439793E-004  0.8384730E+03  0.7818608E-02  0.9505940E-01
         21   -1    0    0  501  502  0.00000000000E+00  0.00000000000E+00  0.55537311099E+03  0.55537311099E+03  0.00000000000E+00 0. -1.
         13   -1    0    0    0    0 -0.00000000000E+00 -0.00000000000E+00 -0.10000000000E+04  0.10000000000E+04  0.00000000000E+00 0.  1.
    9000005    2    1    2  501    0 -0.41332766061E+03 -0.33101708820E+03 -0.56660374853E+03  0.10119667971E+04  0.65009608745E+03 0.  0.
         13    1    3    3    0    0 -0.52770960663E+03 -0.15133369359E+03 -0.57991665389E+03  0.79855033730E+03  0.00000000000E+00 0.  1.
          3    1    3    3  501    0  0.11438194602E+03 -0.17968339460E+03  0.13312905362E+02  0.21341645981E+03  0.00000000000E+00 0.  1.
         -1    1    1    2    0  502  0.41332766061E+03  0.33101708820E+03  0.12197685952E+03  0.54340631388E+03  0.00000000000E+00 0. -1.
<mgrwt>
<rscale>  1 0.83847301E+03</rscale>
<asrwt>0</asrwt>
<pdfrwt beam="1">  1       21 0.85442015E-01 0.83847301E+03</pdfrwt>
<pdfrwt beam="2">0</pdfrwt>
<totfact> 0.10354292E+02</totfact>
</mgrwt>
</event>
<event>
 6    1  0.1439793E-004  0.6542613E+03  0.7818608E-02  0.9798816E-01
         21   -1    0    0  501  502  0.00000000000E+00  0.00000000000E+00  0.11379768968E+03  0.11379768968E+03  0.00000000000E+00 0.  1.
         13   -1    0    0    0    0 -0.00000000000E+00 -0.00000000000E+00 -0.10000000000E+04  0.10000000000E+04  0.00000000000E+00 0.  1.
    9000005    2    1    2  501    0 -0.15163671586E+02 -0.13657038312E+02 -0.86041198033E+03  0.10809101122E+04  0.65394299684E+03 0.  0.
         13    1    3    3    0    0  0.14447907506E+03  0.27034005512E+03 -0.55670128692E+03  0.63551103168E+03  0.00000000000E+00 0.  1.
          3    1    3    3  501    0 -0.15964274664E+03 -0.28399709343E+03 -0.30371069342E+03  0.44539908052E+03  0.00000000000E+00 0.  1.
         -3    1    1    2    0  502  0.15163671586E+02  0.13657038312E+02 -0.25790329989E+02  0.32887577478E+02  0.00000000000E+00 0. -1.
<mgrwt>
<rscale>  1 0.65426134E+03</rscale>
<asrwt>0</asrwt>
<pdfrwt beam="1">  1       21 0.17507336E-01 0.65426134E+03</pdfrwt>
<pdfrwt beam="2">0</pdfrwt>
<totfact> 0.28916414E+03</totfact>
</mgrwt>
</event>
<event>
 6    1  0.1439793E-004  0.6440139E+03  0.7818608E-02  0.9818077E-01
         21   -1    0    0  501  502  0.00000000000E+00  0.00000000000E+00  0.20837120135E+04  0.20837120135E+04  0.00000000000E+00 0. -1.
         13   -1    0    0    0    0 -0.00000000000E+00 -0.00000000000E+00 -0.10000000000E+04  0.10000000000E+04  0.00000000000E+00 0.  1.
    9000005    2    1    2  501    0  0.23232256080E+02  0.84588852320E+02 -0.89523905317E+03  0.11028176862E+04  0.63801165741E+03 0.  0.
         13    1    3    3    0    0 -0.23427993864E+03  0.89693886799E+02 -0.10550803763E+03  0.27214707234E+03  0.00000000000E+00 0.  1.
          3    1    3    3  501    0  0.25751219472E+03 -0.51050344786E+01 -0.78973101555E+03  0.83067061385E+03  0.00000000000E+00 0.  1.
         -1    1    1    2    0  502 -0.23232256080E+02 -0.84588852320E+02  0.19789510667E+04  0.19808943273E+04  0.00000000000E+00 0. -1.
<mgrwt>
<rscale>  1 0.64401389E+03</rscale>
<asrwt>0</asrwt>
<pdfrwt beam="1">  1       21 0.32057107E+00 0.64401389E+03</pdfrwt>
<pdfrwt beam="2">0</pdfrwt>
<totfact> 0.19250671E+00</totfact>
</mgrwt>
</event>
<event>
 6    1  0.1439793E-004  0.6640440E+03  0.7818608E-02  0.9780778E-01
         21   -1    0    0  501  502  0.00000000000E+00  0.00000000000E+00  0.14847054675E+03  0.14847054675E+03  0.00000000000E+00 0.  1.
         13   -1    0    0    0    0 -0.00000000000E+00 -0.00000000000E+00 -0.10000000000E+04  0.10000000000E+04  0.00000000000E+00 0.  1.
    9000005    2    1    2  501    0  0.33374619068E+02  0.30932711966E+02 -0.87405831388E+03  0.10976941011E+04  0.66248298524E+03 0.  0.
         13    1    3    3    0    0  0.34527427397E+03 -0.28998378769E+01 -0.52497919488E+03  0.62835172347E+03  0.00000000000E+00 0.  1.
          1    1    3    3  501    0 -0.31189965490E+03  0.33832549843E+02 -0.34907911900E+03  0.46934237767E+03  0.00000000000E+00 0.  1.
         -1    1    1    2    0  502 -0.33374619068E+02 -0.30932711966E+02  0.22528860635E+02  0.50776445612E+02  0.00000000000E+00 0. -1.
<mgrwt>
<rscale>  1 0.66404398E+03</rscale>
<asrwt>0</asrwt>
<pdfrwt beam="1">  1       21 0.22841622E-01 0.66404398E+03</pdfrwt>
<pdfrwt beam="2">0</pdfrwt>
<totfact> 0.17355732E+03</totfact>
</mgrwt>
</event>
<event>
 6    1  0.1439793E-004  0.6607616E+03  0.7818608E-02  0.9786793E-01
         21   -1    0    0  501  502  0.00000000000E+00  0.00000000000E+00  0.16004545244E+03  0.16004545244E+03  0.00000000000E+00 0.  1.
         13   -1    0    0    0    0 -0.00000000000E+00 -0.00000000000E+00 -0.10000000000E+04  0.10000000000E+04  0.00000000000E+00 0.  1.
    9000005    2    1    2  501    0  0.10401408876E+03  0.25897435264E+02 -0.81641002094E+03  0.10503005093E+04  0.65200937854E+03 0.  0.
         13    1    3    3    0    0  0.30586202396E+03  0.18943012495E+03 -0.64658069344E+03  0.73993374235E+03  0.00000000000E+00 0.  1.
          1    1    3    3  501    0 -0.20184793520E+03 -0.16353268968E+03 -0.16982932750E+03  0.31036676694E+03  0.00000000000E+00 0.  1.
         -1    1    1    2    0  502 -0.10401408876E+03 -0.25897435264E+02 -0.23544526628E+02  0.10974494315E+03  0.00000000000E+00 0. -1.
<mgrwt>
<rscale>  1 0.66076156E+03</rscale>
<asrwt>0</asrwt>
<pdfrwt beam="1">  1       21 0.24622377E-01 0.66076156E+03</pdfrwt>
<pdfrwt beam="2">0</pdfrwt>
<totfact> 0.14994172E+03</totfact>
</mgrwt>
</event>
<event>
 6    1  0.1439793E-004  0.6492448E+03  0.7818608E-02  0.9808197E-01
         21   -1    0    0  501  502  0.00000000000E+00  0.00000000000E+00  0.20019646920E+03  0.20019646920E+03  0.00000000000E+00 0. -1.
         13   -1    0    0    0    0 -0.00000000000E+00 -0.00000000000E+00 -0.10000000000E+04  0.10000000000E+04  0.00000000000E+00 0.  1.
    9000005    2    1    2  501    0 -0.80382660381E+02  0.13781125361E+02 -0.87479981203E+03  0.10894005591E+04  0.64410214675E+03 0.  0.
         13    1    3    3    0    0 -0.11785104662E+03 -0.18968045850E+03 -0.36900445916E+02  0.22633865873E+03  0.00000000000E+00 0.  1.
          1    1    3    3  501    0  0.37468386243E+02  0.20346158386E+03 -0.83789936611E+03  0.86306190033E+03  0.00000000000E+00 0.  1.
         -1    1    1    2    0  502  0.80382660381E+02 -0.13781125361E+02  0.74996281226E+02  0.11079591014E+03  0.00000000000E+00 0. -1.
<mgrwt>
<rscale>  1 0.64924484E+03</rscale>
<asrwt>0</asrwt>
<pdfrwt beam="1">  1       21 0.30799456E-01 0.64924484E+03</pdfrwt>
<pdfrwt beam="2">0</pdfrwt>
<totfact> 0.96271790E+02</totfact>
</mgrwt>
</event>
<event>
 6    1  0.1439793E-004  0.6401782E+03  0.7818608E-02  0.9825386E-01
         21   -1    0    0  501  502  0.00000000000E+00  0.00000000000E+00  0.19122566012E+03  0.19122566012E+03  0.00000000000E+00 0.  1.
         13   -1    0    0    0    0 -0.00000000000E+00 -0.00000000000E+00 -0.10000000000E+04  0.10000000000E+04  0.00000000000E+00 0.  1.
    9000005    2    1    2  501    0 -0.12420473909E+02 -0.15847408868E+02 -0.89628244201E+03  0.11014310251E+04  0.63986145271E+03 0.  0.
         13    1    3    3    0    0  0.18966189308E+03  0.11916260641E+03 -0.81491679356E+03  0.84513948013E+03  0.00000000000E+00 0.  1.
          3    1    3    3  501    0 -0.20208236699E+03 -0.13501001528E+03 -0.81365648451E+02  0.25629154497E+03  0.00000000000E+00 0.  1.
         -3    1    1    2    0  502  0.12420473909E+02  0.15847408868E+02  0.87508102125E+02  0.89794635015E+02  0.00000000000E+00 0. -1.
<mgrwt>
<rscale>  1 0.64017817E+03</rscale>
<asrwt>0</asrwt>
<pdfrwt beam="1">  1       21 0.29419331E-01 0.64017817E+03</pdfrwt>
<pdfrwt beam="2">0</pdfrwt>
<totfact> 0.10558874E+03</totfact>
</mgrwt>
</event>
<event>
 6    1  0.1439793E-004  0.6469055E+03  0.7818608E-02  0.9812603E-01
         21   -1    0    0  501  502  0.00000000000E+00  0.00000000000E+00  0.14988610621E+03  0.14988610621E+03  0.00000000000E+00 0.  1.
         13   -1    0    0    0    0 -0.00000000000E+00 -0.00000000000E+00 -0.10000000000E+04  0.10000000000E+04  0.00000000000E+00 0.  1.
    9000005    2    1    2  501    0  0.27376654567E+02 -0.46653703677E+02 -0.87676131366E+03  0.10895857391E+04  0.64463992471E+03 0.  0.
         13    1    3    3    0    0 -0.25110955514E+03  0.10003291124E+03 -0.64304832150E+03  0.69754837524E+03  0.00000000000E+00 0.  1.
          3    1    3    3  501    0  0.27848620971E+03 -0.14668661492E+03 -0.23371299217E+03  0.39203736391E+03  0.00000000000E+00 0.  1.
         -3    1    1    2    0  502 -0.27376654567E+02  0.46653703677E+02  0.26647419876E+02  0.60300367065E+02  0.00000000000E+00 0. -1.
<mgrwt>
<rscale>  1 0.64690547E+03</rscale>
<asrwt>0</asrwt>
<pdfrwt beam="1">  1       21 0.23059400E-01 0.64690547E+03</pdfrwt>
<pdfrwt beam="2">0</pdfrwt>
<totfact> 0.17052228E+03</totfact>
</mgrwt>
</event>
<event>
 6    1  0.1439793E-004  0.6591511E+03  0.7818608E-02  0.9789758E-01
         21   -1    0    0  501  502  0.00000000000E+00  0.00000000000E+00  0.17930624374E+03  0.17930624374E+03  0.00000000000E+00 0.  1.
         13   -1    0    0    0    0 -0.00000000000E+00 -0.00000000000E+00 -0.10000000000E+04  0.10000000000E+04  0.00000000000E+00 0.  1.
    9000005    2    1    2  501    0  0.23337687012E+01 -0.26529337446E+02 -0.88858750485E+03  0.11063760489E+04  0.65861290270E+03 0.  0.
         13    1    3    3    0    0 -0.12437977305E+02  0.33758985355E+02 -0.98828231178E+03  0.98893695458E+03  0.00000000000E+00 0.  1.
          3    1    3    3  501    0  0.14771746006E+02 -0.60288322801E+02  0.99694806931E+02  0.11743909432E+03  0.00000000000E+00 0.  1.
         -3    1    1    2    0  502 -0.23337687012E+01  0.26529337446E+02  0.67893748580E+02  0.72930194830E+02  0.00000000000E+00 0. -1.
<mgrwt>
<rscale>  1 0.65915113E+03</rscale>
<asrwt>0</asrwt>
<pdfrwt beam="1">  1       21 0.27585575E-01 0.65915113E+03</pdfrwt>
<pdfrwt beam="2">0</pdfrwt>
<totfact> 0.11988087E+03</totfact>
</mgrwt>
</event>
<event>
 6    1  0.1439793E-004  0.6088277E+03  0.7818608E-02  0.9887259E-01
         21   -1    0    0  501  502  0.00000000000E+00  0.00000000000E+00  0.16394964500E+03  0.16394964500E+03  0.00000000000E+00 0. -1.
         13   -1    0    0    0    0 -0.00000000000E+00 -0.00000000000E+00 -0.10000000000E+04  0.10000000000E+04  0.00000000000E+00 0.  1.
    9000005    2    1    2  501    0 -0.88737694887E+00  0.11635817915E+03 -0.85128695559E+03  0.10465947674E+04  0.59760447886E+03 0.  0.
         13    1    3    3    0    0 -0.28381309108E+03  0.15461374708E+03 -0.46286225234E+03  0.56453232511E+03  0.00000000000E+00 0.  1.
          3    1    3    3  501    0  0.28292571413E+03 -0.38255567935E+02 -0.38842470325E+03  0.48206244232E+03  0.00000000000E+00 0.  1.
         -1    1    1    2    0  502  0.88737694887E+00 -0.11635817915E+03  0.15236600590E+02  0.11735487757E+03  0.00000000000E+00 0. -1.
<mgrwt>
<rscale>  1 0.60882767E+03</rscale>
<asrwt>0</asrwt>
<pdfrwt beam="1">  1       21 0.25223022E-01 0.60882767E+03</pdfrwt>
<pdfrwt beam="2">0</pdfrwt>
<totfact> 0.14342318E+03</totfact>
</mgrwt>
</event>
<event>
 6    1  0.1439793E-004  0.5433235E+03  0.7818608E-02  0.1003051E+00
         21   -1    0    0  501  502  0.00000000000E+00  0.00000000000E+00  0.18004308983E+03  0.18004308983E+03  0.00000000000E+00 0.  1.
         13   -1    0    0    0    0 -0.00000000000E+00 -0.00000000000E+00 -0.10000000000E+04  0.10000000000E+04  0.00000000000E+00 0.  1.
    9000005    2    1    2  501    0 -0.15972900530E+03  0.10146535889E+03 -0.82833555909E+03  0.99062615303E+03  0.50930521540E+03 0.  0.
         13    1    3    3    0    0 -0.20984565026E+03  0.27223161274E+03 -0.40371280793E+03  0.53021625700E+03  0.00000000000E+00 0.  1.
          1    1    3    3  501    0  0.50116644960E+02 -0.17076625385E+03 -0.42462275116E+03  0.46040989603E+03  0.00000000000E+00 0.  1.
         -3    1    1    2    0  502  0.15972900530E+03 -0.10146535889E+03  0.83786489166E+01  0.18941693679E+03  0.00000000000E+00 0. -1.
<mgrwt>
<rscale>  1 0.54332345E+03</rscale>
<asrwt>0</asrwt>
<pdfrwt beam="1">  1       21 0.27698936E-01 0.54332345E+03</pdfrwt>
<pdfrwt beam="2">0</pdfrwt>
<totfact> 0.11977895E+03</totfact>
</mgrwt>
</event>
<event>
 6    1  0.1439793E-004  0.6505694E+03  0.7818608E-02  0.9805711E-01
         21   -1    0    0  501  502  0.00000000000E+00  0.00000000000E+00  0.13905718114E+03  0.13905718114E+03  0.00000000000E+00 0.  1.
         13   -1    0    0    0    0 -0.00000000000E+00 -0.00000000000E+00 -0.10000000000E+04  0.10000000000E+04  0.00000000000E+00 0.  1.
    9000005    2    1    2  501    0  0.22596483681E+01  0.25616776070E+02 -0.88859779567E+03  0.11012931378E+04  0.65006092612E+03 0.  0.
         13    1    3    3    0    0 -0.13797404486E+03  0.27923898167E+03 -0.66810794460E+03  0.73714277557E+03  0.00000000000E+00 0.  1.
          1    1    3    3  501    0  0.14023369323E+03 -0.25362220560E+03 -0.22048985107E+03  0.36415036223E+03  0.00000000000E+00 0.  1.
         -3    1    1    2    0  502 -0.22596483681E+01 -0.25616776070E+02  0.27654976814E+02  0.37764043343E+02  0.00000000000E+00 0. -1.
<mgrwt>
<rscale>  1 0.65056939E+03</rscale>
<asrwt>0</asrwt>
<pdfrwt beam="1">  1       21 0.21393412E-01 0.65056939E+03</pdfrwt>
<pdfrwt beam="2">0</pdfrwt>
<totfact> 0.19714757E+03</totfact>
</mgrwt>
</event>
<event>
 6    1  0.1439793E-004  0.7156894E+03  0.7818608E-02  0.9690771E-01
         21   -1    0    0  501  502  0.00000000000E+00  0.00000000000E+00  0.71042922590E+03  0.71042922590E+03  0.00000000000E+00 0. -1.
         13   -1    0    0    0    0 -0.00000000000E+00 -0.00000000000E+00 -0.10000000000E+04  0.10000000000E+04  0.00000000000E+00 0.  1.
    9000005    2    1    2  501    0  0.30353524339E+03  0.15029917178E+02 -0.82659517478E+03  0.10933759467E+04  0.64795974841E+03 0.  0.
         13    1    3    3    0    0  0.70682457500E+02 -0.60365867824E+02 -0.84296495472E+03  0.84807426720E+03  0.00000000000E+00 0.  1.
          1    1    3    3  501    0  0.23285278589E+03  0.75395785002E+02  0.16369779940E+02  0.24530167954E+03  0.00000000000E+00 0.  1.
         -1    1    1    2    0  502 -0.30353524339E+03 -0.15029917178E+02  0.53702440068E+03  0.61705327916E+03  0.00000000000E+00 0. -1.
<mgrwt>
<rscale>  1 0.71568944E+03</rscale>
<asrwt>0</asrwt>
<pdfrwt beam="1">  1       21 0.10929680E+00 0.71568944E+03</pdfrwt>
<pdfrwt beam="2">0</pdfrwt>
<totfact> 0.57585310E+01</totfact>
</mgrwt>
</event>
<event>
 6    1  0.1439793E-004  0.6577473E+03  0.7818608E-02  0.9792350E-01
         21   -1    0    0  501  502  0.00000000000E+00  0.00000000000E+00  0.31811778739E+03  0.31811778739E+03  0.00000000000E+00 0.  1.
         13   -1    0    0    0    0 -0.00000000000E+00 -0.00000000000E+00 -0.10000000000E+04  0.10000000000E+04  0.00000000000E+00 0.  1.
    9000005    2    1    2  501    0 -0.19668381653E+02  0.95387284307E+01 -0.89121140573E+03  0.11076503465E+04  0.65738397292E+03 0.  0.
         13    1    3    3    0    0 -0.30205235476E+03  0.13741066248E+03 -0.33900312088E+03  0.47438426528E+03  0.00000000000E+00 0.  1.
          3    1    3    3  501    0  0.28238397310E+03 -0.12787193405E+03 -0.55220828485E+03  0.63326608123E+03  0.00000000000E+00 0.  1.
         -3    1    1    2    0  502  0.19668381653E+02 -0.95387284307E+01  0.20932919312E+03  0.21046744088E+03  0.00000000000E+00 0. -1.
<mgrwt>
<rscale>  1 0.65774731E+03</rscale>
<asrwt>0</asrwt>
<pdfrwt beam="1">  1       21 0.48941197E-01 0.65774731E+03</pdfrwt>
<pdfrwt beam="2">0</pdfrwt>
<totfact> 0.36898206E+02</totfact>
</mgrwt>
</event>
<event>
 6    1  0.1439793E-004  0.6496217E+03  0.7818608E-02  0.9807489E-01
         21   -1    0    0  501  502  0.00000000000E+00  0.00000000000E+00  0.12168035096E+03  0.12168035096E+03  0.00000000000E+00 0.  1.
         13   -1    0    0    0    0 -0.00000000000E+00 -0.00000000000E+00 -0.10000000000E+04  0.10000000000E+04  0.00000000000E+00 0.  1.
    9000005    2    1    2  501    0 -0.37092549623E+01 -0.30632913033E+02 -0.87620179305E+03  0.10907510890E+04  0.64888845114E+03 0.  0.
         13    1    3    3    0    0 -0.21167169716E+03 -0.22813190220E+03 -0.24035869434E+03  0.39321924435E+03  0.00000000000E+00 0.  1.
          1    1    3    3  501    0  0.20796244220E+03  0.19749898917E+03 -0.63584309870E+03  0.69753184462E+03  0.00000000000E+00 0.  1.
         -3    1    1    2    0  502  0.37092549623E+01  0.30632913033E+02 -0.21178559943E+01  0.30929261991E+02  0.00000000000E+00 0. -1.
<mgrwt>
<rscale>  1 0.64962170E+03</rscale>
<asrwt>0</asrwt>
<pdfrwt beam="1">  1       21 0.18720053E-01 0.64962170E+03</pdfrwt>
<pdfrwt beam="2">0</pdfrwt>
<totfact> 0.25467497E+03</totfact>
</mgrwt>
</event>
<event>
 6    1  0.1439793E-004  0.6539453E+03  0.7818608E-02  0.9799404E-01
         21   -1    0    0  501  502  0.00000000000E+00  0.00000000000E+00  0.15578467167E+03  0.15578467167E+03  0.00000000000E+00 0.  1.
         13   -1    0    0    0    0 -0.00000000000E+00 -0.00000000000E+00 -0.10000000000E+04  0.10000000000E+04  0.00000000000E+00 0.  1.
    9000005    2    1    2  501    0  0.35167611946E+02 -0.23264821897E+02 -0.88280152592E+03  0.10986278041E+04  0.65258448101E+03 0.  0.
         13    1    3    3    0    0 -0.13850779423E+03 -0.29416314024E+03 -0.36339831629E+03  0.48762147043E+03  0.00000000000E+00 0.  1.
          3    1    3    3  501    0  0.17367540618E+03  0.27089831834E+03 -0.51940320963E+03  0.61100633365E+03  0.00000000000E+00 0.  1.
         -3    1    1    2    0  502 -0.35167611946E+02  0.23264821897E+02  0.38586197598E+02  0.57156867593E+02  0.00000000000E+00 0. -1.
<mgrwt>
<rscale>  1 0.65394535E+03</rscale>
<asrwt>0</asrwt>
<pdfrwt beam="1">  1       21 0.23966872E-01 0.65394535E+03</pdfrwt>
<pdfrwt beam="2">0</pdfrwt>
<totfact> 0.15811692E+03</totfact>
</mgrwt>
</event>
<event>
 6    1  0.1439793E-004  0.5977186E+03  0.7818608E-02  0.9910150E-01
         21   -1    0    0  501  502  0.00000000000E+00  0.00000000000E+00  0.10158716607E+03  0.10158716607E+03  0.00000000000E+00 0.  1.
         13   -1    0    0    0    0 -0.00000000000E+00 -0.00000000000E+00 -0.10000000000E+04  0.10000000000E+04  0.00000000000E+00 0.  1.
    9000005    2    1    2  501    0 -0.67581725227E+01 -0.29756389059E+02 -0.88572709161E+03  0.10685410824E+04  0.59693923346E+03 0.  0.
         13    1    3    3    0    0 -0.12337370891E+03  0.21398558776E+03 -0.16038731340E+03  0.29450805442E+03  0.00000000000E+00 0.  1.
          3    1    3    3  501    0  0.11661553638E+03 -0.24374197682E+03 -0.72533977821E+03  0.77403302801E+03  0.00000000000E+00 0.  1.
         -3    1    1    2    0  502  0.67581725227E+01  0.29756389059E+02 -0.12685742317E+02  0.33046083638E+02  0.00000000000E+00 0. -1.
<mgrwt>
<rscale>  1 0.59771863E+03</rscale>
<asrwt>0</asrwt>
<pdfrwt beam="1">  1       21 0.15628794E-01 0.59771863E+03</pdfrwt>
<pdfrwt beam="2">0</pdfrwt>
<totfact> 0.35864591E+03</totfact>
</mgrwt>
</event>
<event>
 6    1  0.1439793E-004  0.6501370E+03  0.7818608E-02  0.9806522E-01
         21   -1    0    0  501  502  0.00000000000E+00  0.00000000000E+00  0.16257316689E+03  0.16257316689E+03  0.00000000000E+00 0. -1.
         13   -1    0    0    0    0 -0.00000000000E+00 -0.00000000000E+00 -0.10000000000E+04  0.10000000000E+04  0.00000000000E+00 0.  1.
    9000005    2    1    2  501    0 -0.17476898044E+02  0.17753157003E+02 -0.89129947079E+03  0.11032193326E+04  0.64965955142E+03 0.  0.
         13    1    3    3    0    0 -0.77248963037E+02  0.42081457706E+02  0.86453627594E+02  0.12333888721E+03  0.00000000000E+00 0.  1.
          3    1    3    3  501    0  0.59772064992E+02 -0.24328300702E+02 -0.97775309838E+03  0.97988044544E+03  0.00000000000E+00 0.  1.
         -3    1    1    2    0  502  0.17476898044E+02 -0.17753157003E+02  0.53872637678E+02  0.59353834242E+02  0.00000000000E+00 0. -1.
<mgrwt>
<rscale>  1 0.65013702E+03</rscale>
<asrwt>0</asrwt>
<pdfrwt beam="1">  1       21 0.25011256E-01 0.65013702E+03</pdfrwt>
<pdfrwt beam="2">0</pdfrwt>
<totfact> 0.14548782E+03</totfact>
</mgrwt>
</event>
<event>
 6    1  0.1439793E-004  0.6401167E+03  0.7818608E-02  0.9825503E-01
         21   -1    0    0  501  502  0.00000000000E+00  0.00000000000E+00  0.13658796755E+03  0.13658796755E+03  0.00000000000E+00 0.  1.
         13   -1    0    0    0    0 -0.00000000000E+00 -0.00000000000E+00 -0.10000000000E+04  0.10000000000E+04  0.00000000000E+00 0.  1.
    9000005    2    1    2  501    0  0.27486551941E+02  0.39147035019E+02 -0.87800940943E+03  0.10865771257E+04  0.63832697432E+03 0.  0.
         13    1    3    3    0    0 -0.99947438174E+02 -0.27882087113E+03 -0.44270434296E+03  0.53265157828E+03  0.00000000000E+00 0.  1.
          3    1    3    3  501    0  0.12743399011E+03  0.31796790615E+03 -0.43530506648E+03  0.55392554741E+03  0.00000000000E+00 0.  1.
         -1    1    1    2    0  502 -0.27486551941E+02 -0.39147035019E+02  0.14597376984E+02  0.50010841856E+02  0.00000000000E+00 0. -1.
<mgrwt>
<rscale>  1 0.64011665E+03</rscale>
<asrwt>0</asrwt>
<pdfrwt beam="1">  1       21 0.21013533E-01 0.64011665E+03</pdfrwt>
<pdfrwt beam="2">0</pdfrwt>
<totfact> 0.20416805E+03</totfact>
</mgrwt>
</event>
<event>
 6    1  0.1439793E-004  0.6577117E+03  0.7818608E-02  0.9792415E-01
         21   -1    0    0  501  502  0.00000000000E+00  0.00000000000E+00  0.14896207568E+03  0.14896207568E+03  0.00000000000E+00 0.  1.
         13   -1    0    0    0    0 -0.00000000000E+00 -0.00000000000E+00 -0.10000000000E+04  0.10000000000E+04  0.00000000000E+00 0.  1.
    9000005    2    1    2  501    0 -0.82528623622E+02  0.31440951556E+01 -0.83810677348E+03  0.10653673766E+04  0.65250580406E+03 0.  0.
         13    1    3    3    0    0  0.24221316498E+02  0.28894127265E+03 -0.18345373310E+03  0.34311660321E+03  0.00000000000E+00 0.  1.
          3    1    3    3  501    0 -0.10674994012E+03 -0.28579717750E+03 -0.65465304038E+03  0.72225077339E+03  0.00000000000E+00 0.  1.
         -3    1    1    2    0  502  0.82528623622E+02 -0.31440951556E+01 -0.12931150844E+02  0.83594699075E+02  0.00000000000E+00 0. -1.
<mgrwt>
<rscale>  1 0.65771170E+03</rscale>
<asrwt>0</asrwt>
<pdfrwt beam="1">  1       21 0.22917242E-01 0.65771170E+03</pdfrwt>
<pdfrwt beam="2">0</pdfrwt>
<totfact> 0.17249659E+03</totfact>
</mgrwt>
</event>
<event>
 6    1  0.1439793E-004  0.6348141E+03  0.7818608E-02  0.9835699E-01
         21   -1    0    0  501  502  0.00000000000E+00  0.00000000000E+00  0.11359490092E+03  0.11359490092E+03  0.00000000000E+00 0.  1.
         13   -1    0    0    0    0 -0.00000000000E+00 -0.00000000000E+00 -0.10000000000E+04  0.10000000000E+04  0.00000000000E+00 0.  1.
    9000005    2    1    2  501    0 -0.30872705809E+02  0.19452914999E+02 -0.85821513799E+03  0.10674840153E+04  0.63376443572E+03 0.  0.
         13    1    3    3    0    0 -0.25032522867E+03 -0.16247721528E+03 -0.64761465590E+03  0.71306823526E+03  0.00000000000E+00 0.  1.
          1    1    3    3  501    0  0.21945252286E+03  0.18193013027E+03 -0.21060048209E+03  0.35441578005E+03  0.00000000000E+00 0.  1.
         -3    1    1    2    0  502  0.30872705809E+02 -0.19452914999E+02 -0.28189961091E+02  0.46110885615E+02  0.00000000000E+00 0. -1.
<mgrwt>
<rscale>  1 0.63481407E+03</rscale>
<asrwt>0</asrwt>
<pdfrwt beam="1">  1       21 0.17476138E-01 0.63481407E+03</pdfrwt>
<pdfrwt beam="2">0</pdfrwt>
<totfact> 0.29032211E+03</totfact>
</mgrwt>
</event>
<event>
 6    1  0.1439793E-004  0.6503117E+03  0.7818608E-02  0.9806195E-01
         21   -1    0    0  501  502  0.00000000000E+00  0.00000000000E+00  0.46695848394E+03  0.46695848394E+03  0.00000000000E+00 0. -1.
         13   -1    0    0    0    0 -0.00000000000E+00 -0.00000000000E+00 -0.10000000000E+04  0.10000000000E+04  0.00000000000E+00 0.  1.
    9000005    2    1    2  501    0 -0.11182273057E+03 -0.28203118855E+02 -0.88405918948E+03  0.10974816294E+04  0.64000432607E+03 0.  0.
         13    1    3    3    0    0  0.18357788744E+03 -0.21563537569E+03 -0.27296705786E+03  0.39333251924E+03  0.00000000000E+00 0.  1.
          3    1    3    3  501    0 -0.29540061802E+03  0.18743225684E+03 -0.61109213161E+03  0.70414911017E+03  0.00000000000E+00 0.  1.
         -1    1    1    2    0  502  0.11182273057E+03  0.28203118855E+02  0.35101767341E+03  0.36947685453E+03  0.00000000000E+00 0. -1.
<mgrwt>
<rscale>  1 0.65031168E+03</rscale>
<asrwt>0</asrwt>
<pdfrwt beam="1">  1       21 0.71839765E-01 0.65031168E+03</pdfrwt>
<pdfrwt beam="2">0</pdfrwt>
<totfact> 0.15833817E+02</totfact>
</mgrwt>
</event>
<event>
 6    1  0.1439793E-004  0.6319784E+03  0.7818608E-02  0.9841196E-01
         21   -1    0    0  501  502  0.00000000000E+00  0.00000000000E+00  0.12687334021E+03  0.12687334021E+03  0.00000000000E+00 0.  1.
         13   -1    0    0    0    0 -0.00000000000E+00 -0.00000000000E+00 -0.10000000000E+04  0.10000000000E+04  0.00000000000E+00 0.  1.
    9000005    2    1    2  501    0 -0.20118932334E+02 -0.66757630520E+01 -0.89550439314E+03  0.10960496448E+04  0.63162280551E+03 0.  0.
         13    1    3    3    0    0 -0.27075049081E+03  0.15517457954E+03 -0.31523539806E+03  0.44357449724E+03  0.00000000000E+00 0.  1.
          3    1    3    3  501    0  0.25063155848E+03 -0.16185034259E+03 -0.58026899508E+03  0.65247514754E+03  0.00000000000E+00 0.  1.
         -1    1    1    2    0  502  0.20118932334E+02  0.66757630520E+01  0.22377733350E+02  0.30823695439E+02  0.00000000000E+00 0. -1.
<mgrwt>
<rscale>  1 0.63197841E+03</rscale>
<asrwt>0</asrwt>
<pdfrwt beam="1">  1       21 0.19518975E-01 0.63197841E+03</pdfrwt>
<pdfrwt beam="2">0</pdfrwt>
<totfact> 0.23530087E+03</totfact>
</mgrwt>
</event>
<event>
 6    1  0.1439793E-004  0.6443655E+03  0.7818608E-02  0.9817410E-01
         21   -1    0    0  501  502  0.00000000000E+00  0.00000000000E+00  0.12752433931E+03  0.12752433931E+03  0.00000000000E+00 0.  1.
         13   -1    0    0    0    0 -0.00000000000E+00 -0.00000000000E+00 -0.10000000000E+04  0.10000000000E+04  0.00000000000E+00 0.  1.
    9000005    2    1    2  501    0  0.17799837975E+02  0.93289550641E+01 -0.89140711390E+03  0.10999152184E+04  0.64405200211E+03 0.  0.
         13    1    3    3    0    0 -0.40386083700E+02  0.66083555831E+00 -0.98691624049E+03  0.98774244528E+03  0.00000000000E+00 0.  1.
          1    1    3    3  501    0  0.58185921675E+02  0.86681195058E+01  0.95509126592E+02  0.11217277316E+03  0.00000000000E+00 0.  1.
         -3    1    1    2    0  502 -0.17799837975E+02 -0.93289550641E+01  0.18931453212E+02  0.27609120871E+02  0.00000000000E+00 0. -1.
<mgrwt>
<rscale>  1 0.64436546E+03</rscale>
<asrwt>0</asrwt>
<pdfrwt beam="1">  1       21 0.19619129E-01 0.64436546E+03</pdfrwt>
<pdfrwt beam="2">0</pdfrwt>
<totfact> 0.23289681E+03</totfact>
</mgrwt>
</event>
<event>
 6    1  0.1439793E-004  0.6434686E+03  0.7818608E-02  0.9819113E-01
         21   -1    0    0  501  502  0.00000000000E+00  0.00000000000E+00  0.36619217936E+03  0.36619217936E+03  0.00000000000E+00 0. -1.
         13   -1    0    0    0    0 -0.00000000000E+00 -0.00000000000E+00 -0.10000000000E+04  0.10000000000E+04  0.00000000000E+00 0.  1.
    9000005    2    1    2  501    0  0.43080161110E+02 -0.91874620165E+01 -0.89444737896E+03  0.11018566178E+04  0.64195917528E+03 0.  0.
         13    1    3    3    0    0  0.77993520349E+02  0.20325763051E+03 -0.40824682151E+02  0.22150238881E+03  0.00000000000E+00 0.  1.
          3    1    3    3  501    0 -0.34913359239E+02 -0.21244509253E+03 -0.85362269681E+03  0.88035422899E+03  0.00000000000E+00 0.  1.
         -1    1    1    2    0  502 -0.43080161110E+02  0.91874620165E+01  0.26063955832E+03  0.26433556155E+03  0.00000000000E+00 0. -1.
<mgrwt>
<rscale>  1 0.64346864E+03</rscale>
<asrwt>0</asrwt>
<pdfrwt beam="1">  1       21 0.56337257E-01 0.64346864E+03</pdfrwt>
<pdfrwt beam="2">0</pdfrwt>
<totfact> 0.27263624E+02</totfact>
</mgrwt>
</event>
<event>
 6    1  0.1439793E-004  0.6447410E+03  0.7818608E-02  0.9816698E-01
         21   -1    0    0  501  502  0.00000000000E+00  0.00000000000E+00  0.13965460500E+03  0.13965460500E+03  0.00000000000E+00 0.  1.
         13   -1    0    0    0    0 -0.00000000000E+00 -0.00000000000E+00 -0.10000000000E+04  0.10000000000E+04  0.00000000000E+00 0.  1.
    9000005    2    1    2  501    0  0.13285517402E+02  0.18790151174E+02 -0.89194032439E+03  0.11005673396E+04  0.64433015756E+03 0.  0.
         13    1    3    3    0    0  0.32599258340E+03  0.41014526500E+02 -0.40621647714E+03  0.52246069911E+03  0.00000000000E+00 0.  1.
          3    1    3    3  501    0 -0.31270706599E+03 -0.22224375325E+02 -0.48572384725E+03  0.57810664048E+03  0.00000000000E+00 0.  1.
         -3    1    1    2    0  502 -0.13285517402E+02 -0.18790151174E+02  0.31594929391E+02  0.39087265407E+02  0.00000000000E+00 0. -1.
<mgrwt>
<rscale>  1 0.64474098E+03</rscale>
<asrwt>0</asrwt>
<pdfrwt beam="1">  1       21 0.21485323E-01 0.64474098E+03</pdfrwt>
<pdfrwt beam="2">0</pdfrwt>
<totfact> 0.19557231E+03</totfact>
</mgrwt>
</event>
<event>
 6    1  0.1439793E-004  0.6590482E+03  0.7818608E-02  0.9789947E-01
         21   -1    0    0  501  502  0.00000000000E+00  0.00000000000E+00  0.23337550772E+03  0.23337550772E+03  0.00000000000E+00 0. -1.
         13   -1    0    0    0    0 -0.00000000000E+00 -0.00000000000E+00 -0.10000000000E+04  0.10000000000E+04  0.00000000000E+00 0.  1.
    9000005    2    1    2  501    0 -0.13747808731E+03 -0.12609396029E+03 -0.80759797656E+03  0.10423814300E+04  0.63209543783E+03 0.  0.
         13    1    3    3    0    0 -0.12461487116E+03 -0.25359759179E+03 -0.85902001090E+03  0.90429861429E+03  0.00000000000E+00 0.  1.
          1    1    3    3  501    0 -0.12863216150E+02  0.12750363150E+03  0.51422034339E+02  0.13808281570E+03  0.00000000000E+00 0.  1.
         -1    1    1    2    0  502  0.13747808731E+03  0.12609396029E+03  0.40973484274E+02  0.19099407773E+03  0.00000000000E+00 0. -1.
<mgrwt>
<rscale>  1 0.65904822E+03</rscale>
<asrwt>0</asrwt>
<pdfrwt beam="1">  1       21 0.35903923E-01 0.65904822E+03</pdfrwt>
<pdfrwt beam="2">0</pdfrwt>
<totfact> 0.70506166E+02</totfact>
</mgrwt>
</event>
<event>
 6    1  0.1439793E-004  0.6574877E+03  0.7818608E-02  0.9792830E-01
         21   -1    0    0  501  502  0.00000000000E+00  0.00000000000E+00  0.13849851505E+03  0.13849851505E+03  0.00000000000E+00 0.  1.
         13   -1    0    0    0    0 -0.00000000000E+00 -0.00000000000E+00 -0.10000000000E+04  0.10000000000E+04  0.00000000000E+00 0.  1.
    9000005    2    1    2  501    0 -0.28997951283E+02 -0.27614159987E+02 -0.87654025803E+03  0.10957248350E+04  0.65626722228E+03 0.  0.
         13    1    3    3    0    0  0.19757563596E+03 -0.17583881207E+03 -0.75303785620E+03  0.79813622435E+03  0.00000000000E+00 0.  1.
          1    1    3    3  501    0 -0.22657358724E+03  0.14822465209E+03 -0.12350240184E+03  0.29758861064E+03  0.00000000000E+00 0.  1.
         -3    1    1    2    0  502  0.28997951283E+02  0.27614159987E+02  0.15038773082E+02  0.42773680063E+02  0.00000000000E+00 0. -1.
<mgrwt>
<rscale>  1 0.65748771E+03</rscale>
<asrwt>0</asrwt>
<pdfrwt beam="1">  1       21 0.21307463E-01 0.65748771E+03</pdfrwt>
<pdfrwt beam="2">0</pdfrwt>
<totfact> 0.19862645E+03</totfact>
</mgrwt>
</event>
<event>
 6    1  0.1439793E-004  0.6452134E+03  0.7818608E-02  0.9815802E-01
         21   -1    0    0  501  502  0.00000000000E+00  0.00000000000E+00  0.12349299397E+03  0.12349299397E+03  0.00000000000E+00 0.  1.
         13   -1    0    0    0    0 -0.00000000000E+00 -0.00000000000E+00 -0.10000000000E+04  0.10000000000E+04  0.00000000000E+00 0.  1.
    9000005    2    1    2  501    0 -0.94579774125E+01  0.56479154055E+02 -0.81443191036E+03  0.10390378835E+04  0.64266712892E+03 0.  0.
         13    1    3    3    0    0 -0.25597032999E+03  0.55896495619E+02 -0.95247706425E+02  0.27877832347E+03  0.00000000000E+00 0.  1.
          1    1    3    3  501    0  0.24651235257E+03  0.58265843566E+00 -0.71918420393E+03  0.76025956005E+03  0.00000000000E+00 0.  1.
         -1    1    1    2    0  502  0.94579774125E+01 -0.56479154055E+02 -0.62075095671E+02  0.84455110455E+02  0.00000000000E+00 0. -1.
<mgrwt>
<rscale>  1 0.64521344E+03</rscale>
<asrwt>0</asrwt>
<pdfrwt beam="1">  1       21 0.18998922E-01 0.64521344E+03</pdfrwt>
<pdfrwt beam="2">0</pdfrwt>
<totfact> 0.24763355E+03</totfact>
</mgrwt>
</event>
<event>
 6    1  0.1439793E-004  0.6348555E+03  0.7818608E-02  0.9835619E-01
         21   -1    0    0  501  502  0.00000000000E+00  0.00000000000E+00  0.22158641182E+03  0.22158641182E+03  0.00000000000E+00 0. -1.
         13   -1    0    0    0    0 -0.00000000000E+00 -0.00000000000E+00 -0.10000000000E+04  0.10000000000E+04  0.00000000000E+00 0.  1.
    9000005    2    1    2  501    0 -0.27960779193E+02 -0.36305438454E+02 -0.89443750788E+03  0.10968409110E+04  0.63319952502E+03 0.  0.
         13    1    3    3    0    0  0.10415763980E+03 -0.26839967779E+03 -0.19385979135E+03  0.34708618478E+03  0.00000000000E+00 0.  1.
          3    1    3    3  501    0 -0.13211841899E+03  0.23209423933E+03 -0.70057771653E+03  0.74975472621E+03  0.00000000000E+00 0.  1.
         -3    1    1    2    0  502  0.27960779193E+02  0.36305438454E+02  0.11602391970E+03  0.12474550083E+03  0.00000000000E+00 0. -1.
<mgrwt>
<rscale>  1 0.63485552E+03</rscale>
<asrwt>0</asrwt>
<pdfrwt beam="1">  1       21 0.34090216E-01 0.63485552E+03</pdfrwt>
<pdfrwt beam="2">0</pdfrwt>
<totfact> 0.78503358E+02</totfact>
</mgrwt>
</event>
<event>
 6    1  0.1439793E-004  0.6706827E+03  0.7818608E-02  0.9768725E-01
         21   -1    0    0  501  502  0.00000000000E+00  0.00000000000E+00  0.29816559024E+03  0.29816559024E+03  0.00000000000E+00 0. -1.
         13   -1    0    0    0    0 -0.00000000000E+00 -0.00000000000E+00 -0.10000000000E+04  0.10000000000E+04  0.00000000000E+00 0.  1.
    9000005    2    1    2  501    0  0.74574832496E+02 -0.25263179819E+02 -0.87820609218E+03  0.11050164141E+04  0.66604481915E+03 0.  0.
         13    1    3    3    0    0 -0.18674383708E+03  0.16009771488E+03 -0.69207669878E+03  0.73448941176E+03  0.00000000000E+00 0.  1.
          1    1    3    3  501    0  0.26131866957E+03 -0.18536089470E+03 -0.18612939340E+03  0.37052700231E+03  0.00000000000E+00 0.  1.
         -1    1    1    2    0  502 -0.74574832496E+02  0.25263179819E+02  0.17637168242E+03  0.19314917618E+03  0.00000000000E+00 0. -1.
<mgrwt>
<rscale>  1 0.67068274E+03</rscale>
<asrwt>0</asrwt>
<pdfrwt beam="1">  1       21 0.45871628E-01 0.67068274E+03</pdfrwt>
<pdfrwt beam="2">0</pdfrwt>
<totfact> 0.42301500E+02</totfact>
</mgrwt>
</event>
<event>
 6    1  0.1439793E-004  0.7135495E+03  0.7818608E-02  0.9694337E-01
         21   -1    0    0  501  502  0.00000000000E+00  0.00000000000E+00  0.82304307561E+03  0.82304307561E+03  0.00000000000E+00 0. -1.
         13   -1    0    0    0    0 -0.00000000000E+00 -0.00000000000E+00 -0.10000000000E+04  0.10000000000E+04  0.00000000000E+00 0.  1.
    9000005    2    1    2  501    0 -0.16020640970E+03 -0.23499408586E+03 -0.83965373949E+03  0.11018944204E+04  0.65441928263E+03 0.  0.
         13    1    3    3    0    0 -0.21658823484E+02 -0.43834787079E+03 -0.38004850883E+03  0.58056423377E+03  0.00000000000E+00 0.  1.
          3    1    3    3  501    0 -0.13854758622E+03  0.20335378494E+03 -0.45960523066E+03  0.52133018668E+03  0.00000000000E+00 0.  1.
         -1    1    1    2    0  502  0.16020640970E+03  0.23499408586E+03  0.66269681510E+03  0.72114865516E+03  0.00000000000E+00 0. -1.
<mgrwt>
<rscale>  1 0.71354952E+03</rscale>
<asrwt>0</asrwt>
<pdfrwt beam="1">  1       21 0.12662201E+00 0.71354952E+03</pdfrwt>
<pdfrwt beam="2">0</pdfrwt>
<totfact> 0.39536838E+01</totfact>
</mgrwt>
</event>
<event>
 6    1  0.1439793E-004  0.6703868E+03  0.7818608E-02  0.9769259E-01
         21   -1    0    0  501  502  0.00000000000E+00  0.00000000000E+00  0.21812204404E+03  0.21812204404E+03  0.00000000000E+00 0.  1.
         13   -1    0    0    0    0 -0.00000000000E+00 -0.00000000000E+00 -0.10000000000E+04  0.10000000000E+04  0.00000000000E+00 0.  1.
    9000005    2    1    2  501    0  0.26153516097E+02 -0.16770908235E+02 -0.88510067862E+03  0.11103250114E+04  0.66966644677E+03 0.  0.
         13    1    3    3    0    0  0.76586610569E+02  0.32034263363E+03 -0.44675093789E+03  0.55504172127E+03  0.00000000000E+00 0.  1.
          1    1    3    3  501    0 -0.50433094471E+02 -0.33711354186E+03 -0.43834974073E+03  0.55528329016E+03  0.00000000000E+00 0.  1.
         -1    1    1    2    0  502 -0.26153516097E+02  0.16770908235E+02  0.10322272266E+03  0.10779703262E+03  0.00000000000E+00 0. -1.
<mgrwt>
<rscale>  1 0.67038677E+03</rscale>
<asrwt>0</asrwt>
<pdfrwt beam="1">  1       21 0.33557237E-01 0.67038677E+03</pdfrwt>
<pdfrwt beam="2">0</pdfrwt>
<totfact> 0.80854502E+02</totfact>
</mgrwt>
</event>
<event>
 6    1  0.1439793E-004  0.6570005E+03  0.7818608E-02  0.9793731E-01
         21   -1    0    0  501  502  0.00000000000E+00  0.00000000000E+00  0.31488852497E+03  0.31488852497E+03  0.00000000000E+00 0. -1.
         13   -1    0    0    0    0 -0.00000000000E+00 -0.00000000000E+00 -0.10000000000E+04  0.10000000000E+04  0.00000000000E+00 0.  1.
    9000005    2    1    2  501    0 -0.59222885761E+01  0.10134415183E+03 -0.87818735167E+03  0.10967509428E+04  0.64911007949E+03 0.  0.
         13    1    3    3    0    0 -0.30402920677E+03  0.13057470208E+03 -0.61342371519E+03  0.69697357607E+03  0.00000000000E+00 0.  1.
          3    1    3    3  501    0  0.29810691820E+03 -0.29230550250E+02 -0.26476363649E+03  0.39977736673E+03  0.00000000000E+00 0.  1.
         -1    1    1    2    0  502  0.59222885761E+01 -0.10134415183E+03  0.19307587664E+03  0.21813758217E+03  0.00000000000E+00 0. -1.
<mgrwt>
<rscale>  1 0.65700046E+03</rscale>
<asrwt>0</asrwt>
<pdfrwt beam="1">  1       21 0.48444387E-01 0.65700046E+03</pdfrwt>
<pdfrwt beam="2">0</pdfrwt>
<totfact> 0.37713761E+02</totfact>
</mgrwt>
</event>
<event>
 6    1  0.1439793E-004  0.6268628E+03  0.7818608E-02  0.9851190E-01
         21   -1    0    0  501  502  0.00000000000E+00  0.00000000000E+00  0.14911871264E+03  0.14911871264E+03  0.00000000000E+00 0. -1.
         13   -1    0    0    0    0 -0.00000000000E+00 -0.00000000000E+00 -0.10000000000E+04  0.10000000000E+04  0.00000000000E+00 0.  1.
    9000005    2    1    2  501    0  0.23299908196E+02 -0.39069507668E+02 -0.89035270882E+03  0.10888915986E+04  0.62521008891E+03 0.  0.
         13    1    3    3    0    0 -0.18444940698E+03 -0.22449671269E+03 -0.68135914348E+03  0.74072305226E+03  0.00000000000E+00 0.  1.
          3    1    3    3  501    0  0.20774931518E+03  0.18542720502E+03 -0.20899356535E+03  0.34816854636E+03  0.00000000000E+00 0.  1.
         -3    1    1    2    0  502 -0.23299908196E+02  0.39069507668E+02  0.39471421458E+02  0.60227114021E+02  0.00000000000E+00 0. -1.
<mgrwt>
<rscale>  1 0.62686280E+03</rscale>
<asrwt>0</asrwt>
<pdfrwt beam="1">  1       21 0.22941340E-01 0.62686280E+03</pdfrwt>
<pdfrwt beam="2">0</pdfrwt>
<totfact> 0.17239779E+03</totfact>
</mgrwt>
</event>
<event>
 6    1  0.1439793E-004  0.6548809E+03  0.7818608E-02  0.9797663E-01
         21   -1    0    0  501  502  0.00000000000E+00  0.00000000000E+00  0.22420946611E+03  0.22420946611E+03  0.00000000000E+00 0. -1.
         13   -1    0    0    0    0 -0.00000000000E+00 -0.00000000000E+00 -0.10000000000E+04  0.10000000000E+04  0.00000000000E+00 0.  1.
    9000005    2    1    2  501    0  0.29655898027E+02 -0.16346890215E+02 -0.89006287556E+03  0.11050253179E+04  0.65400484531E+03 0.  0.
         13    1    3    3    0    0  0.23904138284E+03  0.85147766975E+02 -0.82539243266E+03  0.86351814852E+03  0.00000000000E+00 0.  1.
          3    1    3    3  501    0 -0.20938548481E+03 -0.10149465719E+03 -0.64670442901E+02  0.24150716940E+03  0.00000000000E+00 0.  1.
         -1    1    1    2    0  502 -0.29655898027E+02  0.16346890215E+02  0.11427234168E+03  0.11918414819E+03  0.00000000000E+00 0. -1.
<mgrwt>
<rscale>  1 0.65488093E+03</rscale>
<asrwt>0</asrwt>
<pdfrwt beam="1">  1       21 0.34493763E-01 0.65488093E+03</pdfrwt>
<pdfrwt beam="2">0</pdfrwt>
<totfact> 0.76536976E+02</totfact>
</mgrwt>
</event>
<event>
 6    1  0.1439793E-004  0.6533021E+03  0.7818608E-02  0.9800603E-01
         21   -1    0    0  501  502  0.00000000000E+00  0.00000000000E+00  0.22712091801E+03  0.22712091801E+03  0.00000000000E+00 0.  1.
         13   -1    0    0    0    0 -0.00000000000E+00 -0.00000000000E+00 -0.10000000000E+04  0.10000000000E+04  0.00000000000E+00 0.  1.
    9000005    2    1    2  501    0  0.14894787890E+02  0.55585151905E+02 -0.88563808293E+03  0.11005264627E+04  0.65076271972E+03 0.  0.
         13    1    3    3    0    0 -0.24527767214E+03  0.21008265177E+03 -0.61467249097E+03  0.69434726772E+03  0.00000000000E+00 0.  1.
          1    1    3    3  501    0  0.26017246003E+03 -0.15449749987E+03 -0.27096559196E+03  0.40617919500E+03  0.00000000000E+00 0.  1.
         -3    1    1    2    0  502 -0.14894787890E+02 -0.55585151905E+02  0.11275900094E+03  0.12659445530E+03  0.00000000000E+00 0. -1.
<mgrwt>
<rscale>  1 0.65330214E+03</rscale>
<asrwt>0</asrwt>
<pdfrwt beam="1">  1       21 0.34941679E-01 0.65330214E+03</pdfrwt>
<pdfrwt beam="2">0</pdfrwt>
<totfact> 0.74559877E+02</totfact>
</mgrwt>
</event>
<event>
 6    1  0.1439793E-004  0.6982346E+03  0.7818608E-02  0.9720256E-01
         21   -1    0    0  501  502  0.00000000000E+00  0.00000000000E+00  0.18645585085E+03  0.18645585085E+03  0.00000000000E+00 0.  1.
         13   -1    0    0    0    0 -0.00000000000E+00 -0.00000000000E+00 -0.10000000000E+04  0.10000000000E+04  0.00000000000E+00 0.  1.
    9000005    2    1    2  501    0  0.51852793978E+02 -0.12385671479E+02 -0.86548605194E+03  0.11120241482E+04  0.69619643986E+03 0.  0.
         13    1    3    3    0    0  0.31685040493E+03 -0.15832024462E+03 -0.65119835943E+03  0.74129534079E+03  0.00000000000E+00 0.  1.
          1    1    3    3  501    0 -0.26499761095E+03  0.14593457314E+03 -0.21428769251E+03  0.37072880736E+03  0.00000000000E+00 0.  1.
         -3    1    1    2    0  502 -0.51852793978E+02  0.12385671479E+02  0.51941902790E+02  0.74431702699E+02  0.00000000000E+00 0. -1.
<mgrwt>
<rscale>  1 0.69823463E+03</rscale>
<asrwt>0</asrwt>
<pdfrwt beam="1">  1       21 0.28685515E-01 0.69823463E+03</pdfrwt>
<pdfrwt beam="2">0</pdfrwt>
<totfact> 0.11066588E+03</totfact>
</mgrwt>
</event>
<event>
 6    1  0.1439793E-004  0.6512785E+03  0.7818608E-02  0.9804383E-01
         21   -1    0    0  501  502  0.00000000000E+00  0.00000000000E+00  0.20537063802E+03  0.20537063802E+03  0.00000000000E+00 0.  1.
         13   -1    0    0    0    0 -0.00000000000E+00 -0.00000000000E+00 -0.10000000000E+04  0.10000000000E+04  0.00000000000E+00 0.  1.
    9000005    2    1    2  501    0  0.20148017760E+02  0.55782189464E+00 -0.89282680998E+03  0.11051259744E+04  0.65096655286E+03 0.  0.
         13    1    3    3    0    0 -0.18821305072E+03  0.16695950568E+01 -0.87610128027E+03  0.89609173264E+03  0.00000000000E+00 0.  1.
          3    1    3    3  501    0  0.20836106848E+03 -0.11117731622E+01 -0.16725529714E+02  0.20903424179E+03  0.00000000000E+00 0.  1.
         -1    1    1    2    0  502 -0.20148017760E+02 -0.55782189464E+00  0.98197448002E+02  0.10024466359E+03  0.00000000000E+00 0. -1.
<mgrwt>
<rscale>  1 0.65127852E+03</rscale>
<asrwt>0</asrwt>
<pdfrwt beam="1">  1       21 0.31595482E-01 0.65127852E+03</pdfrwt>
<pdfrwt beam="2">0</pdfrwt>
<totfact> 0.91443990E+02</totfact>
</mgrwt>
</event>
<event>
 6    1  0.1439793E-004  0.6439292E+03  0.7818608E-02  0.9818238E-01
         21   -1    0    0  501  502  0.00000000000E+00  0.00000000000E+00  0.14457246116E+03  0.14457246116E+03  0.00000000000E+00 0.  1.
         13   -1    0    0    0    0 -0.00000000000E+00 -0.00000000000E+00 -0.10000000000E+04  0.10000000000E+04  0.00000000000E+00 0.  1.
    9000005    2    1    2  501    0  0.61829721376E+02 -0.16423046401E+02 -0.86658180878E+03  0.10796336543E+04  0.64074344733E+03 0.  0.
         13    1    3    3    0    0  0.10183841714E+03  0.30053552420E+03 -0.51199185731E+03  0.60235232752E+03  0.00000000000E+00 0.  1.
          3    1    3    3  501    0 -0.40008695766E+02 -0.31695857060E+03 -0.35458995146E+03  0.47728132678E+03  0.00000000000E+00 0.  1.
         -1    1    1    2    0  502 -0.61829721376E+02  0.16423046401E+02  0.11154269939E+02  0.64938806860E+02  0.00000000000E+00 0. -1.
<mgrwt>
<rscale>  1 0.64392919E+03</rscale>
<asrwt>0</asrwt>
<pdfrwt beam="1">  1       21 0.22241916E-01 0.64392919E+03</pdfrwt>
<pdfrwt beam="2">0</pdfrwt>
<totfact> 0.18291928E+03</totfact>
</mgrwt>
</event>
<event>
 6    1  0.1439793E-004  0.6319969E+03  0.7818608E-02  0.9841160E-01
         21   -1    0    0  501  502  0.00000000000E+00  0.00000000000E+00  0.13400547696E+03  0.13400547696E+03  0.00000000000E+00 0.  1.
         13   -1    0    0    0    0 -0.00000000000E+00 -0.00000000000E+00 -0.10000000000E+04  0.10000000000E+04  0.00000000000E+00 0.  1.
    9000005    2    1    2  501    0  0.71082739281E+02 -0.58028074259E+00 -0.85320183010E+03  0.10617784353E+04  0.62798645711E+03 0.  0.
         13    1    3    3    0    0  0.96722693636E+02 -0.26446667280E+03 -0.70243967873E+03  0.75678226904E+03  0.00000000000E+00 0.  1.
          1    1    3    3  501    0 -0.25639954355E+02  0.26388639205E+03 -0.15076215137E+03  0.30499616630E+03  0.00000000000E+00 0.  1.
         -3    1    1    2    0  502 -0.71082739281E+02  0.58028074259E+00 -0.12792692939E+02  0.72227041626E+02  0.00000000000E+00 0. -1.
<mgrwt>
<rscale>  1 0.63199690E+03</rscale>
<asrwt>0</asrwt>
<pdfrwt beam="1">  1       21 0.20616227E-01 0.63199690E+03</pdfrwt>
<pdfrwt beam="2">0</pdfrwt>
<totfact> 0.21187879E+03</totfact>
</mgrwt>
</event>
<event>
 6    1  0.1439793E-004  0.6441496E+03  0.7818608E-02  0.9817819E-01
         21   -1    0    0  501  502  0.00000000000E+00  0.00000000000E+00  0.21313808100E+03  0.21313808100E+03  0.00000000000E+00 0. -1.
         13   -1    0    0    0    0 -0.00000000000E+00 -0.00000000000E+00 -0.10000000000E+04  0.10000000000E+04  0.00000000000E+00 0.  1.
    9000005    2    1    2  501    0  0.18872015051E+02 -0.29177114792E+02 -0.89321364967E+03  0.11012535530E+04  0.64321171256E+03 0.  0.
         13    1    3    3    0    0 -0.75406194797E+01  0.74631984340E+02  0.87189258934E+02  0.11501635059E+03  0.00000000000E+00 0.  1.
          1    1    3    3  501    0  0.26412634531E+02 -0.10380909913E+03 -0.98040290860E+03  0.98623720246E+03  0.00000000000E+00 0.  1.
         -1    1    1    2    0  502 -0.18872015051E+02  0.29177114792E+02  0.10635173066E+03  0.11188452795E+03  0.00000000000E+00 0. -1.
<mgrwt>
<rscale>  1 0.64414964E+03</rscale>
<asrwt>0</asrwt>
<pdfrwt beam="1">  1       21 0.32790473E-01 0.64414964E+03</pdfrwt>
<pdfrwt beam="2">0</pdfrwt>
<totfact> 0.84883493E+02</totfact>
</mgrwt>
</event>
<event>
 6    1  0.1439793E-004  0.6540549E+03  0.7818608E-02  0.9799200E-01
         21   -1    0    0  501  502  0.00000000000E+00  0.00000000000E+00  0.13219396345E+03  0.13219396345E+03  0.00000000000E+00 0.  1.
         13   -1    0    0    0    0 -0.00000000000E+00 -0.00000000000E+00 -0.10000000000E+04  0.10000000000E+04  0.00000000000E+00 0.  1.
    9000005    2    1    2  501    0 -0.57030534432E+02  0.42907313122E+02 -0.80421214054E+03  0.10366026302E+04  0.65014946483E+03 0.  0.
         13    1    3    3    0    0 -0.34148623152E+03 -0.47629408463E+02 -0.33675219742E+03  0.48195793316E+03  0.00000000000E+00 0.  1.
          1    1    3    3  501    0  0.28445569709E+03  0.90536721585E+02 -0.46745994312E+03  0.55464469707E+03  0.00000000000E+00 0.  1.
         -1    1    1    2    0  502  0.57030534432E+02 -0.42907313122E+02 -0.63593896017E+02  0.95591333224E+02  0.00000000000E+00 0. -1.
<mgrwt>
<rscale>  1 0.65405493E+03</rscale>
<asrwt>0</asrwt>
<pdfrwt beam="1">  1       21 0.20337532E-01 0.65405493E+03</pdfrwt>
<pdfrwt beam="2">0</pdfrwt>
<totfact> 0.21729643E+03</totfact>
</mgrwt>
</event>
<event>
 6    1  0.1439793E-004  0.6517066E+03  0.7818608E-02  0.9803582E-01
         21   -1    0    0  501  502  0.00000000000E+00  0.00000000000E+00  0.12199135275E+03  0.12199135275E+03  0.00000000000E+00 0.  1.
         13   -1    0    0    0    0 -0.00000000000E+00 -0.00000000000E+00 -0.10000000000E+04  0.10000000000E+04  0.00000000000E+00 0.  1.
    9000005    2    1    2  501    0  0.25959494832E+02 -0.19536162158E+02 -0.87251935760E+03  0.10890415530E+04  0.65089624191E+03 0.  0.
         13    1    3    3    0    0 -0.13026047354E+03 -0.20454325543E+03 -0.80048902013E+03  0.83641401570E+03  0.00000000000E+00 0.  1.
          1    1    3    3  501    0  0.15621996837E+03  0.18500709327E+03 -0.72030337473E+02  0.25262753729E+03  0.00000000000E+00 0.  1.
         -3    1    1    2    0  502 -0.25959494832E+02  0.19536162158E+02 -0.54892896472E+01  0.32949799766E+02  0.00000000000E+00 0. -1.
<mgrwt>
<rscale>  1 0.65170659E+03</rscale>
<asrwt>0</asrwt>
<pdfrwt beam="1">  1       21 0.18767900E-01 0.65170659E+03</pdfrwt>
<pdfrwt beam="2">0</pdfrwt>
<totfact> 0.25342049E+03</totfact>
</mgrwt>
</event>
<event>
 6    1  0.1439793E-004  0.6513150E+03  0.7818608E-02  0.9804315E-01
         21   -1    0    0  501  502  0.00000000000E+00  0.00000000000E+00  0.14679550247E+03  0.14679550247E+03  0.00000000000E+00 0.  1.
         13   -1    0    0    0    0 -0.00000000000E+00 -0.00000000000E+00 -0.10000000000E+04  0.10000000000E+04  0.00000000000E+00 0.  1.
    9000005    2    1    2  501    0  0.78243972896E+02 -0.23588967227E+02 -0.84169612822E+03  0.10642667121E+04  0.64616770550E+03 0.  0.
         13    1    3    3    0    0 -0.13493891595E+03 -0.14260996044E+03 -0.79086981091E+03  0.81487494112E+03  0.00000000000E+00 0.  1.
          3    1    3    3  501    0  0.21318288885E+03  0.11902099321E+03 -0.50826317313E+02  0.24939177102E+03  0.00000000000E+00 0.  1.
         -3    1    1    2    0  502 -0.78243972896E+02  0.23588967227E+02 -0.11508369310E+02  0.82528790332E+02  0.00000000000E+00 0. -1.
<mgrwt>
<rscale>  1 0.65131503E+03</rscale>
<asrwt>0</asrwt>
<pdfrwt beam="1">  1       21 0.22583923E-01 0.65131503E+03</pdfrwt>
<pdfrwt beam="2">0</pdfrwt>
<totfact> 0.17752722E+03</totfact>
</mgrwt>
</event>
<event>
 6    1  0.1439793E-004  0.6945443E+03  0.7818608E-02  0.9726608E-01
         21   -1    0    0  501  502  0.00000000000E+00  0.00000000000E+00  0.29325483396E+03  0.29325483396E+03  0.00000000000E+00 0.  1.
         13   -1    0    0    0    0 -0.00000000000E+00 -0.00000000000E+00 -0.10000000000E+04  0.10000000000E+04  0.00000000000E+00 0.  1.
    9000005    2    1    2  501    0 -0.73589936790E+02  0.23535783106E+03 -0.77172340502E+03  0.10382431500E+04  0.64929426082E+03 0.  0.
         13    1    3    3    0    0  0.24011835646E+03  0.10622285073E+03 -0.60651110170E+03  0.66090531517E+03  0.00000000000E+00 0.  1.
          3    1    3    3  501    0 -0.31370829325E+03  0.12913498033E+03 -0.16521230332E+03  0.37733783479E+03  0.00000000000E+00 0.  1.
         -3    1    1    2    0  502  0.73589936790E+02 -0.23535783106E+03  0.64978238983E+02  0.25501168400E+03  0.00000000000E+00 0. -1.
<mgrwt>
<rscale>  1 0.69454433E+03</rscale>
<asrwt>0</asrwt>
<pdfrwt beam="1">  1       21 0.45116127E-01 0.69454433E+03</pdfrwt>
<pdfrwt beam="2">0</pdfrwt>
<totfact> 0.43725742E+02</totfact>
</mgrwt>
</event>
<event>
 6    1  0.1439793E-004  0.6781864E+03  0.7818608E-02  0.9755281E-01
         21   -1    0    0  501  502  0.00000000000E+00  0.00000000000E+00  0.20216194511E+03  0.20216194511E+03  0.00000000000E+00 0.  1.
         13   -1    0    0    0    0 -0.00000000000E+00 -0.00000000000E+00 -0.10000000000E+04  0.10000000000E+04  0.00000000000E+00 0.  1.
    9000005    2    1    2  501    0  0.17962172980E+03  0.32071963472E+02 -0.75474322949E+03  0.10146793042E+04  0.65318004509E+03 0.  0.
         13    1    3    3    0    0  0.16182950206E+03  0.19067195793E+03 -0.80848285878E+03  0.84627957332E+03  0.00000000000E+00 0.  1.
          1    1    3    3  501    0  0.17792227747E+02 -0.15859999446E+03  0.53739629290E+02  0.16839973090E+03  0.00000000000E+00 0.  1.
         -3    1    1    2    0  502 -0.17962172980E+03 -0.32071963472E+02 -0.43094825402E+02  0.18748264089E+03  0.00000000000E+00 0. -1.
<mgrwt>
<rscale>  1 0.67818637E+03</rscale>
<asrwt>0</asrwt>
<pdfrwt beam="1">  1       21 0.31101837E-01 0.67818637E+03</pdfrwt>
<pdfrwt beam="2">0</pdfrwt>
<totfact> 0.94226173E+02</totfact>
</mgrwt>
</event>
<event>
 6    1  0.1439793E-004  0.6451757E+03  0.7818608E-02  0.9815874E-01
         21   -1    0    0  501  502  0.00000000000E+00  0.00000000000E+00  0.12718510489E+03  0.12718510489E+03  0.00000000000E+00 0.  1.
         13   -1    0    0    0    0 -0.00000000000E+00 -0.00000000000E+00 -0.10000000000E+04  0.10000000000E+04  0.00000000000E+00 0.  1.
    9000005    2    1    2  501    0 -0.26259502870E+02 -0.56484917664E+02 -0.83146637761E+03  0.10524200909E+04  0.64216166443E+03 0.  0.
         13    1    3    3    0    0 -0.24356601412E+03 -0.21163671716E+03 -0.23579368939E+03  0.39964129822E+03  0.00000000000E+00 0.  1.
          3    1    3    3  501    0  0.21730651125E+03  0.15515179949E+03 -0.59567268821E+03  0.65277879270E+03  0.00000000000E+00 0.  1.
         -3    1    1    2    0  502  0.26259502870E+02  0.56484917664E+02 -0.41348517504E+02  0.74765013972E+02  0.00000000000E+00 0. -1.
<mgrwt>
<rscale>  1 0.64517572E+03</rscale>
<asrwt>0</asrwt>
<pdfrwt beam="1">  1       21 0.19566939E-01 0.64517572E+03</pdfrwt>
<pdfrwt beam="2">0</pdfrwt>
<totfact> 0.23407971E+03</totfact>
</mgrwt>
</event>
<event>
 6    1  0.1439793E-004  0.6424038E+03  0.7818608E-02  0.9821138E-01
         21   -1    0    0  501  502  0.00000000000E+00  0.00000000000E+00  0.11603973410E+03  0.11603973410E+03  0.00000000000E+00 0.  1.
         13   -1    0    0    0    0 -0.00000000000E+00 -0.00000000000E+00 -0.10000000000E+04  0.10000000000E+04  0.00000000000E+00 0.  1.
    9000005    2    1    2  501    0  0.28428070264E+02 -0.17093605532E+02 -0.86618517886E+03  0.10784059694E+04  0.64154682147E+03 0.  0.
         13    1    3    3    0    0  0.20415058583E+03 -0.16316958602E+03 -0.79835282437E+03  0.84004107499E+03  0.00000000000E+00 0.  1.
          3    1    3    3  501    0 -0.17572251556E+03  0.14607598049E+03 -0.67832354498E+02  0.23836489437E+03  0.00000000000E+00 0.  1.
         -1    1    1    2    0  502 -0.28428070264E+02  0.17093605532E+02 -0.17775087040E+02  0.37633764738E+02  0.00000000000E+00 0. -1.
<mgrwt>
<rscale>  1 0.64240382E+03</rscale>
<asrwt>0</asrwt>
<pdfrwt beam="1">  1       21 0.17852266E-01 0.64240382E+03</pdfrwt>
<pdfrwt beam="2">0</pdfrwt>
<totfact> 0.27877822E+03</totfact>
</mgrwt>
</event>
<event>
 6    1  0.1439793E-004  0.6010375E+03  0.7818608E-02  0.9903256E-01
         21   -1    0    0  501  502  0.00000000000E+00  0.00000000000E+00  0.32129145965E+03  0.32129145965E+03  0.00000000000E+00 0. -1.
         13   -1    0    0    0    0 -0.00000000000E+00 -0.00000000000E+00 -0.10000000000E+04  0.10000000000E+04  0.00000000000E+00 0.  1.
    9000005    2    1    2  501    0  0.70796778271E+01 -0.11430790644E+03 -0.89410305189E+03  0.10773422540E+04  0.59002512288E+03 0.  0.
         13    1    3    3    0    0 -0.96792333044E+02 -0.30301342875E+03 -0.27041587515E+03  0.41750525658E+03  0.00000000000E+00 0.  1.
          1    1    3    3  501    0  0.10387201087E+03  0.18870552231E+03 -0.62368717674E+03  0.65983699746E+03  0.00000000000E+00 0.  1.
         -3    1    1    2    0  502 -0.70796778271E+01  0.11430790644E+03  0.21539451155E+03  0.24394920561E+03  0.00000000000E+00 0. -1.
<mgrwt>
<rscale>  1 0.60103749E+03</rscale>
<asrwt>0</asrwt>
<pdfrwt beam="1">  1       21 0.49429454E-01 0.60103749E+03</pdfrwt>
<pdfrwt beam="2">0</pdfrwt>
<totfact> 0.36323766E+02</totfact>
</mgrwt>
</event>
<event>
 6    1  0.1439793E-004  0.5420477E+03  0.7818608E-02  0.1003352E+00
         21   -1    0    0  501  502  0.00000000000E+00  0.00000000000E+00  0.12753821468E+03  0.12753821468E+03  0.00000000000E+00 0. -1.
         13   -1    0    0    0    0 -0.00000000000E+00 -0.00000000000E+00 -0.10000000000E+04  0.10000000000E+04  0.00000000000E+00 0.  1.
    9000005    2    1    2  501    0 -0.99799423949E+02 -0.45117941331E+01 -0.87305109890E+03  0.10276351186E+04  0.53276208055E+03 0.  0.
         13    1    3    3    0    0  0.41896667117E+01  0.12698260502E+03 -0.84878820293E+03  0.85824445743E+03  0.00000000000E+00 0.  1.
          1    1    3    3  501    0 -0.10398909066E+03 -0.13149439915E+03 -0.24262895973E+02  0.16939066121E+03  0.00000000000E+00 0.  1.
         -3    1    1    2    0  502  0.99799423949E+02  0.45117941331E+01  0.58931357434E+00  0.99903096034E+02  0.00000000000E+00 0. -1.
<mgrwt>
<rscale>  1 0.54204771E+03</rscale>
<asrwt>0</asrwt>
<pdfrwt beam="1">  1       21 0.19621263E-01 0.54204771E+03</pdfrwt>
<pdfrwt beam="2">0</pdfrwt>
<totfact> 0.23383507E+03</totfact>
</mgrwt>
</event>
<event>
 6    1  0.1439793E-004  0.6318423E+03  0.7818608E-02  0.9841460E-01
         21   -1    0    0  501  502  0.00000000000E+00  0.00000000000E+00  0.29666819443E+03  0.29666819443E+03  0.00000000000E+00 0. -1.
         13   -1    0    0    0    0 -0.00000000000E+00 -0.00000000000E+00 -0.10000000000E+04  0.10000000000E+04  0.00000000000E+00 0.  1.
    9000005    2    1    2  501    0  0.83857099450E+02  0.11549438717E+03 -0.87127788479E+03  0.10762666243E+04  0.61551094827E+03 0.  0.
         13    1    3    3    0    0 -0.15318828627E+03 -0.17543080173E+03 -0.19899150219E+03  0.30633353586E+03  0.00000000000E+00 0.  1.
          3    1    3    3  501    0  0.23704538572E+03  0.29092518891E+03 -0.67228638259E+03  0.76993308843E+03  0.00000000000E+00 0.  1.
         -1    1    1    2    0  502 -0.83857099450E+02 -0.11549438717E+03  0.16794607921E+03  0.22040157014E+03  0.00000000000E+00 0. -1.
<mgrwt>
<rscale>  1 0.63184230E+03</rscale>
<asrwt>0</asrwt>
<pdfrwt beam="1">  1       21 0.45641259E-01 0.63184230E+03</pdfrwt>
<pdfrwt beam="2">0</pdfrwt>
<totfact> 0.42903469E+02</totfact>
</mgrwt>
</event>
<event>
 6    1  0.1439793E-004  0.6377335E+03  0.7818608E-02  0.9830073E-01
         21   -1    0    0  501  502  0.00000000000E+00  0.00000000000E+00  0.11529329681E+03  0.11529329681E+03  0.00000000000E+00 0.  1.
         13   -1    0    0    0    0 -0.00000000000E+00 -0.00000000000E+00 -0.10000000000E+04  0.10000000000E+04  0.00000000000E+00 0.  1.
    9000005    2    1    2  501    0  0.48797685381E+01 -0.26013521358E+02 -0.88239357911E+03  0.10887251584E+04  0.63718406029E+03 0.  0.
         13    1    3    3    0    0 -0.17276427974E+02  0.19608055132E+03 -0.19927041386E+02  0.19784626494E+03  0.00000000000E+00 0.  1.
          3    1    3    3  501    0  0.22156196512E+02 -0.22209407268E+03 -0.86246653772E+03  0.89087889348E+03  0.00000000000E+00 0.  1.
         -1    1    1    2    0  502 -0.48797685381E+01  0.26013521358E+02 -0.23131240851E+01  0.26568138389E+02  0.00000000000E+00 0. -1.
<mgrwt>
<rscale>  1 0.63773352E+03</rscale>
<asrwt>0</asrwt>
<pdfrwt beam="1">  1       21 0.17737430E-01 0.63773352E+03</pdfrwt>
<pdfrwt beam="2">0</pdfrwt>
<totfact> 0.28225216E+03</totfact>
</mgrwt>
</event>
<event>
 6    1  0.1439793E-004  0.6415731E+03  0.7818608E-02  0.9822721E-01
         21   -1    0    0  501  502  0.00000000000E+00  0.00000000000E+00  0.66354343998E+03  0.66354343998E+03  0.00000000000E+00 0. -1.
         13   -1    0    0    0    0 -0.00000000000E+00 -0.00000000000E+00 -0.10000000000E+04  0.10000000000E+04  0.00000000000E+00 0.  1.
    9000005    2    1    2  501    0  0.32858653582E+02 -0.26567871491E+02 -0.89621764856E+03  0.11021897020E+04  0.64018007049E+03 0.  0.
         13    1    3    3    0    0 -0.19010067422E+02  0.20610236004E+03 -0.36672302984E+02  0.21020091171E+03  0.00000000000E+00 0.  1.
          1    1    3    3  501    0  0.51868721004E+02 -0.23267023154E+03 -0.85954534558E+03  0.89198879027E+03  0.00000000000E+00 0.  1.
         -1    1    1    2    0  502 -0.32858653582E+02  0.26567871491E+02  0.55976108855E+03  0.56135373800E+03  0.00000000000E+00 0. -1.
<mgrwt>
<rscale>  1 0.64157312E+03</rscale>
<asrwt>0</asrwt>
<pdfrwt beam="1">  1       21 0.10208360E+00 0.64157312E+03</pdfrwt>
<pdfrwt beam="2">0</pdfrwt>
<totfact> 0.69018303E+01</totfact>
</mgrwt>
</event>
<event>
 6    1  0.1439793E-004  0.6304082E+03  0.7818608E-02  0.9844252E-01
         21   -1    0    0  501  502  0.00000000000E+00  0.00000000000E+00  0.91272902513E+03  0.91272902513E+03  0.00000000000E+00 0. -1.
         13   -1    0    0    0    0 -0.00000000000E+00 -0.00000000000E+00 -0.10000000000E+04  0.10000000000E+04  0.00000000000E+00 0.  1.
    9000005    2    1    2  501    0  0.22130538105E+02  0.62989174636E+02 -0.89913977856E+03  0.10981197008E+04  0.62686293487E+03 0.  0.
         13    1    3    3    0    0 -0.89032938556E+02 -0.25308297234E+03 -0.24572786662E+03  0.36381319309E+03  0.00000000000E+00 0.  1.
          3    1    3    3  501    0  0.11116347666E+03  0.31607214697E+03 -0.65341191194E+03  0.73430650773E+03  0.00000000000E+00 0.  1.
         -3    1    1    2    0  502 -0.22130538105E+02 -0.62989174636E+02  0.81186880369E+03  0.81460932430E+03  0.00000000000E+00 0. -1.
<mgrwt>
<rscale>  1 0.63040823E+03</rscale>
<asrwt>0</asrwt>
<pdfrwt beam="1">  1       21 0.14041985E+00 0.63040823E+03</pdfrwt>
<pdfrwt beam="2">0</pdfrwt>
<totfact> 0.30508313E+01</totfact>
</mgrwt>
</event>
<event>
 6    1  0.1439793E-004  0.6371729E+03  0.7818608E-02  0.9831151E-01
         21   -1    0    0  501  502  0.00000000000E+00  0.00000000000E+00  0.15142108270E+03  0.15142108270E+03  0.00000000000E+00 0.  1.
         13   -1    0    0    0    0 -0.00000000000E+00 -0.00000000000E+00 -0.10000000000E+04  0.10000000000E+04  0.00000000000E+00 0.  1.
    9000005    2    1    2  501    0 -0.55758055070E+01 -0.10231538097E+03 -0.83146900880E+03  0.10475352042E+04  0.62887976957E+03 0.  0.
         13    1    3    3    0    0 -0.53853371318E+02 -0.28492727857E+03 -0.12415240343E+03  0.31543233657E+03  0.00000000000E+00 0.  1.
          1    1    3    3  501    0  0.48277565811E+02  0.18261189760E+03 -0.70731660537E+03  0.73210286759E+03  0.00000000000E+00 0.  1.
         -1    1    1    2    0  502  0.55758055070E+01  0.10231538097E+03 -0.17109908497E+02  0.10388587854E+03  0.00000000000E+00 0. -1.
<mgrwt>
<rscale>  1 0.63717289E+03</rscale>
<asrwt>0</asrwt>
<pdfrwt beam="1">  1       21 0.23295551E-01 0.63717289E+03</pdfrwt>
<pdfrwt beam="2">0</pdfrwt>
<totfact> 0.16725526E+03</totfact>
</mgrwt>
</event>
<event>
 6    1  0.1439793E-004  0.6305132E+03  0.7818608E-02  0.9844048E-01
         21   -1    0    0  501  502  0.00000000000E+00  0.00000000000E+00  0.12025896374E+03  0.12025896374E+03  0.00000000000E+00 0.  1.
         13   -1    0    0    0    0 -0.00000000000E+00 -0.00000000000E+00 -0.10000000000E+04  0.10000000000E+04  0.00000000000E+00 0.  1.
    9000005    2    1    2  501    0  0.95584519474E+01  0.17693847709E+02 -0.89515564786E+03  0.10949203272E+04  0.63019239347E+03 0.  0.
         13    1    3    3    0    0 -0.11240863505E+03 -0.24454510422E+03 -0.68913906074E+03  0.73983150397E+03  0.00000000000E+00 0.  1.
          1    1    3    3  501    0  0.12196708700E+03  0.26223895193E+03 -0.20601658713E+03  0.35508882324E+03  0.00000000000E+00 0.  1.
         -1    1    1    2    0  502 -0.95584519474E+01 -0.17693847709E+02  0.15414611604E+02  0.25338636532E+02  0.00000000000E+00 0. -1.
<mgrwt>
<rscale>  1 0.63051319E+03</rscale>
<asrwt>0</asrwt>
<pdfrwt beam="1">  1       21 0.18501379E-01 0.63051319E+03</pdfrwt>
<pdfrwt beam="2">0</pdfrwt>
<totfact> 0.26061020E+03</totfact>
</mgrwt>
</event>
<event>
 6    1  0.1439793E-004  0.7558572E+03  0.7818608E-02  0.9626206E-01
         21   -1    0    0  501  502  0.00000000000E+00  0.00000000000E+00  0.28884244046E+03  0.28884244046E+03  0.00000000000E+00 0. -1.
         13   -1    0    0    0    0 -0.00000000000E+00 -0.00000000000E+00 -0.10000000000E+04  0.10000000000E+04  0.00000000000E+00 0.  1.
    9000005    2    1    2  501    0 -0.66371688239E+02 -0.20386347497E+03 -0.75683471960E+03  0.10696349580E+04  0.72481351608E+03 0.  0.
         13    1    3    3    0    0 -0.26965636270E+03 -0.35260988844E+03 -0.66898305324E+03  0.80286151538E+03  0.00000000000E+00 0.  1.
          3    1    3    3  501    0  0.20328467446E+03  0.14874641347E+03 -0.87851666366E+02  0.26677344259E+03  0.00000000000E+00 0.  1.
         -3    1    1    2    0  502  0.66371688239E+02  0.20386347497E+03  0.45677160062E+02  0.21920748249E+03  0.00000000000E+00 0. -1.
<mgrwt>
<rscale>  1 0.75585723E+03</rscale>
<asrwt>0</asrwt>
<pdfrwt beam="1">  1       21 0.44437297E-01 0.75585723E+03</pdfrwt>
<pdfrwt beam="2">0</pdfrwt>
<totfact> 0.44932346E+02</totfact>
</mgrwt>
</event>
<event>
 6    1  0.1439793E-004  0.6444234E+03  0.7818608E-02  0.9817300E-01
         21   -1    0    0  501  502  0.00000000000E+00  0.00000000000E+00  0.12380367222E+03  0.12380367222E+03  0.00000000000E+00 0.  1.
         13   -1    0    0    0    0 -0.00000000000E+00 -0.00000000000E+00 -0.10000000000E+04  0.10000000000E+04  0.00000000000E+00 0.  1.
    9000005    2    1    2  501    0  0.41587084875E+02 -0.36641839475E+02 -0.83494693004E+03  0.10547122629E+04  0.64203541296E+03 0.  0.
         13    1    3    3    0    0  0.10715609411E+03  0.13110910008E+03 -0.85671775174E+03  0.87329109166E+03  0.00000000000E+00 0.  1.
          1    1    3    3  501    0 -0.65569009235E+02 -0.16775093956E+03  0.21770821703E+02  0.18142117124E+03  0.00000000000E+00 0.  1.
         -3    1    1    2    0  502 -0.41587084875E+02  0.36641839475E+02 -0.41249397743E+02  0.69091409325E+02  0.00000000000E+00 0. -1.
<mgrwt>
<rscale>  1 0.64442345E+03</rscale>
<asrwt>0</asrwt>
<pdfrwt beam="1">  1       21 0.19046718E-01 0.64442345E+03</pdfrwt>
<pdfrwt beam="2">0</pdfrwt>
<totfact> 0.24645614E+03</totfact>
</mgrwt>
</event>
<event>
 6    1  0.1439793E-004  0.6434170E+03  0.7818608E-02  0.9819211E-01
         21   -1    0    0  501  502  0.00000000000E+00  0.00000000000E+00  0.21293297736E+03  0.21293297736E+03  0.00000000000E+00 0. -1.
         13   -1    0    0    0    0 -0.00000000000E+00 -0.00000000000E+00 -0.10000000000E+04  0.10000000000E+04  0.00000000000E+00 0.  1.
    9000005    2    1    2  501    0 -0.49632995774E+01 -0.23082778144E+02 -0.89509652137E+03  0.11023534965E+04  0.64298366987E+03 0.  0.
         13    1    3    3    0    0  0.20415016483E+03  0.10111020861E+03 -0.64341203134E+02  0.23672844042E+03  0.00000000000E+00 0.  1.
          1    1    3    3  501    0 -0.20911346441E+03 -0.12419298675E+03 -0.83075531823E+03  0.86562505609E+03  0.00000000000E+00 0.  1.
         -1    1    1    2    0  502  0.49632995774E+01  0.23082778144E+02  0.10802949873E+03  0.11057948085E+03  0.00000000000E+00 0. -1.
<mgrwt>
<rscale>  1 0.64341701E+03</rscale>
<asrwt>0</asrwt>
<pdfrwt beam="1">  1       21 0.32758919E-01 0.64341701E+03</pdfrwt>
<pdfrwt beam="2">0</pdfrwt>
<totfact> 0.85053232E+02</totfact>
</mgrwt>
</event>
<event>
 6    1  0.1439793E-004  0.7669920E+03  0.7818608E-02  0.9609063E-01
         21   -1    0    0  501  502  0.00000000000E+00  0.00000000000E+00  0.34991573589E+03  0.34991573589E+03  0.00000000000E+00 0. -1.
         13   -1    0    0    0    0 -0.00000000000E+00 -0.00000000000E+00 -0.10000000000E+04  0.10000000000E+04  0.00000000000E+00 0.  1.
    9000005    2    1    2  501    0  0.15970568073E+02 -0.40670267357E+03 -0.50262733357E+03  0.91701197049E+03  0.65008814312E+03 0.  0.
         13    1    3    3    0    0  0.18751635883E+03 -0.51799816897E+03 -0.29218800943E+03  0.62358505494E+03  0.00000000000E+00 0.  1.
          1    1    3    3  501    0 -0.17154579076E+03  0.11129549540E+03 -0.21043932414E+03  0.29342691555E+03  0.00000000000E+00 0.  1.
         -1    1    1    2    0  502 -0.15970568073E+02  0.40670267357E+03 -0.14745693054E+03  0.43290376540E+03  0.00000000000E+00 0. -1.
<mgrwt>
<rscale>  1 0.76699199E+03</rscale>
<asrwt>0</asrwt>
<pdfrwt beam="1">  1       21 0.53833189E-01 0.76699199E+03</pdfrwt>
<pdfrwt beam="2">0</pdfrwt>
<totfact> 0.29755678E+02</totfact>
</mgrwt>
</event>
<event>
 6    1  0.1439793E-004  0.6467310E+03  0.7818608E-02  0.9812933E-01
         21   -1    0    0  501  502  0.00000000000E+00  0.00000000000E+00  0.13968410547E+03  0.13968410547E+03  0.00000000000E+00 0.  1.
         13   -1    0    0    0    0 -0.00000000000E+00 -0.00000000000E+00 -0.10000000000E+04  0.10000000000E+04  0.00000000000E+00 0.  1.
    9000005    2    1    2  501    0 -0.18068591043E+02 -0.74711807417E+02 -0.84010393324E+03  0.10602054824E+04  0.64214695986E+03 0.  0.
         13    1    3    3    0    0 -0.11834858742E+03 -0.24693309999E+03 -0.96462055928E+02  0.29032270364E+03  0.00000000000E+00 0.  1.
          3    1    3    3  501    0  0.10027999638E+03  0.17222129257E+03 -0.74364187732E+03  0.76988277873E+03  0.00000000000E+00 0.  1.
         -3    1    1    2    0  502  0.18068591043E+02  0.74711807417E+02 -0.20211961287E+02  0.79478623094E+02  0.00000000000E+00 0. -1.
<mgrwt>
<rscale>  1 0.64673105E+03</rscale>
<asrwt>0</asrwt>
<pdfrwt beam="1">  1       21 0.21489862E-01 0.64673105E+03</pdfrwt>
<pdfrwt beam="2">0</pdfrwt>
<totfact> 0.19547563E+03</totfact>
</mgrwt>
</event>
<event>
 6    1  0.1439793E-004  0.6228210E+03  0.7818608E-02  0.9859159E-01
         21   -1    0    0  501  502  0.00000000000E+00  0.00000000000E+00  0.15159104534E+03  0.15159104534E+03  0.00000000000E+00 0.  1.
         13   -1    0    0    0    0 -0.00000000000E+00 -0.00000000000E+00 -0.10000000000E+04  0.10000000000E+04  0.00000000000E+00 0.  1.
    9000005    2    1    2  501    0  0.65893269948E+02 -0.27437823177E+02 -0.87619201485E+03  0.10749969490E+04  0.61871741226E+03 0.  0.
         13    1    3    3    0    0 -0.26066662781E+03 -0.11451219395E+03 -0.41203606893E+03  0.50083316136E+03  0.00000000000E+00 0.  1.
          1    1    3    3  501    0  0.32655989776E+03  0.87074370769E+02 -0.46415594592E+03  0.57416378761E+03  0.00000000000E+00 0.  1.
         -1    1    1    2    0  502 -0.65893269948E+02  0.27437823177E+02  0.27783060200E+02  0.76594096373E+02  0.00000000000E+00 0. -1.
<mgrwt>
<rscale>  1 0.62282100E+03</rscale>
<asrwt>0</asrwt>
<pdfrwt beam="1">  1       21 0.23321699E-01 0.62282100E+03</pdfrwt>
<pdfrwt beam="2">0</pdfrwt>
<totfact> 0.16700927E+03</totfact>
</mgrwt>
</event>
<event>
 6    1  0.1439793E-004  0.6647429E+03  0.7818608E-02  0.9779502E-01
         21   -1    0    0  501  502  0.00000000000E+00  0.00000000000E+00  0.32595466516E+03  0.32595466516E+03  0.00000000000E+00 0.  1.
         13   -1    0    0    0    0 -0.00000000000E+00 -0.00000000000E+00 -0.10000000000E+04  0.10000000000E+04  0.00000000000E+00 0.  1.
    9000005    2    1    2  501    0 -0.74274447895E+02 -0.95394230961E+01 -0.88227542061E+03  0.11046687351E+04  0.66051147029E+03 0.  0.
         13    1    3    3    0    0  0.55494598346E+02 -0.32130753047E+03 -0.40343724606E+03  0.51872901508E+03  0.00000000000E+00 0.  1.
          1    1    3    3  501    0 -0.12976904624E+03  0.31176810737E+03 -0.47883817455E+03  0.58593972006E+03  0.00000000000E+00 0.  1.
         -1    1    1    2    0  502  0.74274447895E+02  0.95394230961E+01  0.20823008577E+03  0.22128593001E+03  0.00000000000E+00 0. -1.
<mgrwt>
<rscale>  1 0.66474288E+03</rscale>
<asrwt>0</asrwt>
<pdfrwt beam="1">  1       21 0.50146870E-01 0.66474288E+03</pdfrwt>
<pdfrwt beam="2">0</pdfrwt>
<totfact> 0.35001399E+02</totfact>
</mgrwt>
</event>
<event>
 6    1  0.1439793E-004  0.6504372E+03  0.7818608E-02  0.9805959E-01
         21   -1    0    0  501  502  0.00000000000E+00  0.00000000000E+00  0.14011453713E+03  0.14011453713E+03  0.00000000000E+00 0.  1.
         13   -1    0    0    0    0 -0.00000000000E+00 -0.00000000000E+00 -0.10000000000E+04  0.10000000000E+04  0.00000000000E+00 0.  1.
    9000005    2    1    2  501    0  0.37203772205E+02  0.36979905372E+02 -0.87043118116E+03  0.10866089651E+04  0.64831856966E+03 0.  0.
         13    1    3    3    0    0 -0.30354205933E+03 -0.61879290876E+01 -0.46375118177E+03  0.55429345192E+03  0.00000000000E+00 0.  1.
          1    1    3    3  501    0  0.34074583153E+03  0.43167834460E+02 -0.40667999939E+03  0.53231551315E+03  0.00000000000E+00 0.  1.
         -1    1    1    2    0  502 -0.37203772205E+02 -0.36979905372E+02  0.10545718293E+02  0.53505572065E+02  0.00000000000E+00 0. -1.
<mgrwt>
<rscale>  1 0.65043724E+03</rscale>
<asrwt>0</asrwt>
<pdfrwt beam="1">  1       21 0.21556082E-01 0.65043724E+03</pdfrwt>
<pdfrwt beam="2">0</pdfrwt>
<totfact> 0.19428640E+03</totfact>
</mgrwt>
</event>
<event>
 6    1  0.1439793E-004  0.6692190E+03  0.7818608E-02  0.9771370E-01
         21   -1    0    0  501  502  0.00000000000E+00  0.00000000000E+00  0.22528037254E+03  0.22528037254E+03  0.00000000000E+00 0.  1.
         13   -1    0    0    0    0 -0.00000000000E+00 -0.00000000000E+00 -0.10000000000E+04  0.10000000000E+04  0.00000000000E+00 0.  1.
    9000005    2    1    2  501    0 -0.11655488949E+03 -0.80877589077E+02 -0.83589785757E+03  0.10707844098E+04  0.65400901921E+03 0.  0.
         13    1    3    3    0    0 -0.22736083863E+02 -0.35775349291E+03 -0.33402988007E+03  0.48998005263E+03  0.00000000000E+00 0.  1.
          1    1    3    3  501    0 -0.93818805624E+02  0.27687590383E+03 -0.50186797751E+03  0.58080435713E+03  0.00000000000E+00 0.  1.
         -1    1    1    2    0  502  0.11655488949E+03  0.80877589077E+02  0.61178230115E+02  0.15449596279E+03  0.00000000000E+00 0. -1.
<mgrwt>
<rscale>  1 0.66921897E+03</rscale>
<asrwt>0</asrwt>
<pdfrwt beam="1">  1       21 0.34658518E-01 0.66921897E+03</pdfrwt>
<pdfrwt beam="2">0</pdfrwt>
<totfact> 0.75721278E+02</totfact>
</mgrwt>
</event>
<event>
 6    1  0.1439793E-004  0.6903641E+03  0.7818608E-02  0.9733854E-01
         21   -1    0    0  501  502  0.00000000000E+00  0.00000000000E+00  0.26577286252E+03  0.26577286252E+03  0.00000000000E+00 0. -1.
         13   -1    0    0    0    0 -0.00000000000E+00 -0.00000000000E+00 -0.10000000000E+04  0.10000000000E+04  0.00000000000E+00 0.  1.
    9000005    2    1    2  501    0 -0.22753113251E+02 -0.22686620212E+03 -0.77090021544E+03  0.10348380395E+04  0.65162615668E+03 0.  0.
         13    1    3    3    0    0 -0.29411377251E+03 -0.27587149029E+03 -0.36356329606E+03  0.54294222582E+03  0.00000000000E+00 0.  1.
          1    1    3    3  501    0  0.27136065926E+03  0.49005288173E+02 -0.40733691938E+03  0.49189581371E+03  0.00000000000E+00 0.  1.
         -1    1    1    2    0  502  0.22753113251E+02  0.22686620212E+03  0.36673077961E+02  0.23093482300E+03  0.00000000000E+00 0. -1.
<mgrwt>
<rscale>  1 0.69036413E+03</rscale>
<asrwt>0</asrwt>
<pdfrwt beam="1">  1       21 0.40888132E-01 0.69036413E+03</pdfrwt>
<pdfrwt beam="2">0</pdfrwt>
<totfact> 0.53780461E+02</totfact>
</mgrwt>
</event>
<event>
 6    1  0.1439793E-004  0.6442383E+03  0.7818608E-02  0.9817651E-01
         21   -1    0    0  501  502  0.00000000000E+00  0.00000000000E+00  0.25445225557E+03  0.25445225557E+03  0.00000000000E+00 0. -1.
         13   -1    0    0    0    0 -0.00000000000E+00 -0.00000000000E+00 -0.10000000000E+04  0.10000000000E+04  0.00000000000E+00 0.  1.
    9000005    2    1    2  501    0 -0.35863957124E+02 -0.19508368052E+02 -0.89318043450E+03  0.11012784620E+04  0.64294335875E+03 0.  0.
         13    1    3    3    0    0 -0.32970171025E+03 -0.27386911120E+02 -0.33730567148E+03  0.47247050347E+03  0.00000000000E+00 0.  1.
          3    1    3    3  501    0  0.29383775313E+03  0.78785430681E+01 -0.55587476302E+03  0.62880795858E+03  0.00000000000E+00 0.  1.
         -1    1    1    2    0  502  0.35863957124E+02  0.19508368052E+02  0.14763269007E+03  0.15317379352E+03  0.00000000000E+00 0. -1.
<mgrwt>
<rscale>  1 0.64423828E+03</rscale>
<asrwt>0</asrwt>
<pdfrwt beam="1">  1       21 0.39146500E-01 0.64423828E+03</pdfrwt>
<pdfrwt beam="2">0</pdfrwt>
<totfact> 0.59085132E+02</totfact>
</mgrwt>
</event>
<event>
 6    1  0.1439793E-004  0.6432487E+03  0.7818608E-02  0.9819531E-01
         21   -1    0    0  501  502  0.00000000000E+00  0.00000000000E+00  0.13427864326E+03  0.13427864326E+03  0.00000000000E+00 0.  1.
         13   -1    0    0    0    0 -0.00000000000E+00 -0.00000000000E+00 -0.10000000000E+04  0.10000000000E+04  0.00000000000E+00 0.  1.
    9000005    2    1    2  501    0 -0.31048607027E+02 -0.44253532118E+02 -0.86776817509E+03  0.10801807637E+04  0.64097307708E+03 0.  0.
         13    1    3    3    0    0 -0.44117278081E+02 -0.34214255840E+03 -0.45604571461E+03  0.57182651067E+03  0.00000000000E+00 0.  1.
          1    1    3    3  501    0  0.13068671053E+02  0.29788902628E+03 -0.41172246048E+03  0.50835425306E+03  0.00000000000E+00 0.  1.
         -3    1    1    2    0  502  0.31048607027E+02  0.44253532118E+02  0.20468183523E+01  0.54097879521E+02  0.00000000000E+00 0. -1.
<mgrwt>
<rscale>  1 0.64324869E+03</rscale>
<asrwt>0</asrwt>
<pdfrwt beam="1">  1       21 0.20658252E-01 0.64324869E+03</pdfrwt>
<pdfrwt beam="2">0</pdfrwt>
<totfact> 0.21095171E+03</totfact>
</mgrwt>
</event>
<event>
 6    1  0.1439793E-004  0.6580112E+03  0.7818608E-02  0.9791862E-01
         21   -1    0    0  501  502  0.00000000000E+00  0.00000000000E+00  0.21761889881E+03  0.21761889881E+03  0.00000000000E+00 0. -1.
         13   -1    0    0    0    0 -0.00000000000E+00 -0.00000000000E+00 -0.10000000000E+04  0.10000000000E+04  0.00000000000E+00 0.  1.
    9000005    2    1    2  501    0  0.87671106859E+02 -0.44232838369E+02 -0.86670151032E+03  0.10881866835E+04  0.65064274619E+03 0.  0.
         13    1    3    3    0    0 -0.22967439022E+03 -0.29614722338E+02 -0.88976982742E+02  0.24808115760E+03  0.00000000000E+00 0.  1.
          3    1    3    3  501    0  0.31734549707E+03 -0.14618116031E+02 -0.77772452757E+03  0.84010552588E+03  0.00000000000E+00 0.  1.
         -3    1    1    2    0  502 -0.87671106859E+02  0.44232838369E+02  0.84320409124E+02  0.12943221532E+03  0.00000000000E+00 0. -1.
<mgrwt>
<rscale>  1 0.65801121E+03</rscale>
<asrwt>0</asrwt>
<pdfrwt beam="1">  1       21 0.33479830E-01 0.65801121E+03</pdfrwt>
<pdfrwt beam="2">0</pdfrwt>
<totfact> 0.81302998E+02</totfact>
</mgrwt>
</event>
<event>
 6    1  0.1439793E-004  0.6525620E+03  0.7818608E-02  0.9801984E-01
         21   -1    0    0  501  502  0.00000000000E+00  0.00000000000E+00  0.14425982867E+03  0.14425982867E+03  0.00000000000E+00 0.  1.
         13   -1    0    0    0    0 -0.00000000000E+00 -0.00000000000E+00 -0.10000000000E+04  0.10000000000E+04  0.00000000000E+00 0.  1.
    9000005    2    1    2  501    0 -0.47697218185E+02  0.25845854356E+02 -0.87059481411E+03  0.10880131112E+04  0.65030313473E+03 0.  0.
         13    1    3    3    0    0  0.14565766823E+03  0.14044937267E+03 -0.14451751897E+02  0.20285718062E+03  0.00000000000E+00 0.  1.
          3    1    3    3  501    0 -0.19335488642E+03 -0.11460351831E+03 -0.85614306222E+03  0.88515593061E+03  0.00000000000E+00 0.  1.
         -1    1    1    2    0  502  0.47697218185E+02 -0.25845854356E+02  0.14854642782E+02  0.56246717434E+02  0.00000000000E+00 0. -1.
<mgrwt>
<rscale>  1 0.65256203E+03</rscale>
<asrwt>0</asrwt>
<pdfrwt beam="1">  1       21 0.22193819E-01 0.65256203E+03</pdfrwt>
<pdfrwt beam="2">0</pdfrwt>
<totfact> 0.18361599E+03</totfact>
</mgrwt>
</event>
<event>
 6    1  0.1439793E-004  0.6543989E+03  0.7818608E-02  0.9798560E-01
         21   -1    0    0  501  502  0.00000000000E+00  0.00000000000E+00  0.17104485605E+03  0.17104485605E+03  0.00000000000E+00 0. -1.
         13   -1    0    0    0    0 -0.00000000000E+00 -0.00000000000E+00 -0.10000000000E+04  0.10000000000E+04  0.00000000000E+00 0.  1.
    9000005    2    1    2  501    0  0.55742793093E+01 -0.49662962744E+02 -0.88194289402E+03  0.10982081612E+04  0.65248786546E+03 0.  0.
         13    1    3    3    0    0 -0.93256765056E+02  0.36967443316E+02  0.79391788009E+02  0.12793151331E+03  0.00000000000E+00 0.  1.
          3    1    3    3  501    0  0.98831044365E+02 -0.86630406060E+02 -0.96133468203E+03  0.97027664790E+03  0.00000000000E+00 0.  1.
         -1    1    1    2    0  502 -0.55742793093E+01  0.49662962744E+02  0.52987750066E+02  0.72836694841E+02  0.00000000000E+00 0. -1.
<mgrwt>
<rscale>  1 0.65439888E+03</rscale>
<asrwt>0</asrwt>
<pdfrwt beam="1">  1       21 0.26314592E-01 0.65439888E+03</pdfrwt>
<pdfrwt beam="2">0</pdfrwt>
<totfact> 0.13163233E+03</totfact>
</mgrwt>
</event>
<event>
 6    1  0.1439793E-004  0.6548407E+03  0.7818608E-02  0.9797738E-01
         21   -1    0    0  501  502  0.00000000000E+00  0.00000000000E+00  0.15938422237E+03  0.15938422237E+03  0.00000000000E+00 0.  1.
         13   -1    0    0    0    0 -0.00000000000E+00 -0.00000000000E+00 -0.10000000000E+04  0.10000000000E+04  0.00000000000E+00 0.  1.
    9000005    2    1    2  501    0 -0.15352134882E+02 -0.13842285953E+02 -0.89051912098E+03  0.11053690337E+04  0.65451439938E+03 0.  0.
         13    1    3    3    0    0  0.53686115225E+02  0.47327509039E+02  0.93102773386E+02  0.11743176100E+03  0.00000000000E+00 0.  1.
          1    1    3    3  501    0 -0.69038250107E+02 -0.61169794992E+02 -0.98362189436E+03  0.98793727274E+03  0.00000000000E+00 0.  1.
         -3    1    1    2    0  502  0.15352134882E+02  0.13842285953E+02  0.49903343348E+02  0.54015188633E+02  0.00000000000E+00 0. -1.
<mgrwt>
<rscale>  1 0.65484074E+03</rscale>
<asrwt>0</asrwt>
<pdfrwt beam="1">  1       21 0.24520649E-01 0.65484074E+03</pdfrwt>
<pdfrwt beam="2">0</pdfrwt>
<totfact> 0.15120680E+03</totfact>
</mgrwt>
</event>
<event>
 6    1  0.1439793E-004  0.6806620E+03  0.7818608E-02  0.9750886E-01
         21   -1    0    0  501  502  0.00000000000E+00  0.00000000000E+00  0.36587230799E+03  0.36587230799E+03  0.00000000000E+00 0. -1.
         13   -1    0    0    0    0 -0.00000000000E+00 -0.00000000000E+00 -0.10000000000E+04  0.10000000000E+04  0.00000000000E+00 0.  1.
    9000005    2    1    2  501    0 -0.39038992078E+02 -0.43667350008E+02 -0.88033978277E+03  0.11127887763E+04  0.67813704166E+03 0.  0.
         13    1    3    3    0    0 -0.24154156985E+03  0.45940060356E+02 -0.46736224088E+02  0.25027403731E+03  0.00000000000E+00 0.  1.
          1    1    3    3  501    0  0.20250257777E+03 -0.89607410363E+02 -0.83360355868E+03  0.86251473903E+03  0.00000000000E+00 0.  1.
         -1    1    1    2    0  502  0.39038992078E+02  0.43667350008E+02  0.24621209075E+03  0.25308353165E+03  0.00000000000E+00 0. -1.
<mgrwt>
<rscale>  1 0.68066198E+03</rscale>
<asrwt>0</asrwt>
<pdfrwt beam="1">  1       21 0.56288046E-01 0.68066198E+03</pdfrwt>
<pdfrwt beam="2">0</pdfrwt>
<totfact> 0.27212290E+02</totfact>
</mgrwt>
</event>
<event>
 6    1  0.1439793E-004  0.7069216E+03  0.7818608E-02  0.9705468E-01
         21   -1    0    0  501  502  0.00000000000E+00  0.00000000000E+00  0.24206645297E+03  0.24206645297E+03  0.00000000000E+00 0.  1.
         13   -1    0    0    0    0 -0.00000000000E+00 -0.00000000000E+00 -0.10000000000E+04  0.10000000000E+04  0.00000000000E+00 0.  1.
    9000005    2    1    2  501    0  0.27312280266E+03 -0.15350620059E+02 -0.59245208173E+03  0.92235436026E+03  0.65184844087E+03 0.  0.
         13    1    3    3    0    0  0.26254123230E+03 -0.30852040819E+03 -0.27228324257E+03  0.48810952164E+03  0.00000000000E+00 0.  1.
          1    1    3    3  501    0  0.10581570364E+02  0.29316978813E+03 -0.32016883916E+03  0.43424483862E+03  0.00000000000E+00 0.  1.
         -1    1    1    2    0  502 -0.27312280266E+03  0.15350620059E+02 -0.16548146530E+03  0.31971209272E+03  0.00000000000E+00 0. -1.
<mgrwt>
<rscale>  1 0.70692156E+03</rscale>
<asrwt>0</asrwt>
<pdfrwt beam="1">  1       21 0.37240992E-01 0.70692156E+03</pdfrwt>
<pdfrwt beam="2">0</pdfrwt>
<totfact> 0.65184921E+02</totfact>
</mgrwt>
</event>
<event>
 6    1  0.1439793E-004  0.5683947E+03  0.7818608E-02  0.9973237E-01
         21   -1    0    0  501  502  0.00000000000E+00  0.00000000000E+00  0.15137723670E+03  0.15137723670E+03  0.00000000000E+00 0. -1.
         13   -1    0    0    0    0 -0.00000000000E+00 -0.00000000000E+00 -0.10000000000E+04  0.10000000000E+04  0.00000000000E+00 0.  1.
    9000005    2    1    2  501    0  0.74486411537E+01 -0.25135938552E+02 -0.91659401297E+03  0.10785254114E+04  0.56778973295E+03 0.  0.
         13    1    3    3    0    0 -0.26973873158E+03 -0.60651089553E+02 -0.56827464453E+03  0.63196013291E+03  0.00000000000E+00 0.  1.
          1    1    3    3  501    0  0.27718737273E+03  0.35515151001E+02 -0.34831936844E+03  0.44656527853E+03  0.00000000000E+00 0.  1.
         -3    1    1    2    0  502 -0.74486411537E+01  0.25135938552E+02  0.67971249675E+02  0.72851825264E+02  0.00000000000E+00 0. -1.
<mgrwt>
<rscale>  1 0.56839465E+03</rscale>
<asrwt>0</asrwt>
<pdfrwt beam="1">  1       21 0.23288805E-01 0.56839465E+03</pdfrwt>
<pdfrwt beam="2">0</pdfrwt>
<totfact> 0.16794323E+03</totfact>
</mgrwt>
</event>
<event>
 6    1  0.1439793E-004  0.6555137E+03  0.7818608E-02  0.9796488E-01
         21   -1    0    0  501  502  0.00000000000E+00  0.00000000000E+00  0.13740268202E+03  0.13740268202E+03  0.00000000000E+00 0.  1.
         13   -1    0    0    0    0 -0.00000000000E+00 -0.00000000000E+00 -0.10000000000E+04  0.10000000000E+04  0.00000000000E+00 0.  1.
    9000005    2    1    2  501    0 -0.56208565206E+01 -0.84135613373E+02 -0.78612530354E+03  0.10235678699E+04  0.65006753178E+03 0.  0.
         13    1    3    3    0    0  0.20708453601E+01 -0.33410442824E+03 -0.20773485698E+03  0.39342575942E+03  0.00000000000E+00 0.  1.
          1    1    3    3  501    0 -0.76917018807E+01  0.24996881486E+03 -0.57839044656E+03  0.63014211044E+03  0.00000000000E+00 0.  1.
         -1    1    1    2    0  502  0.56208565206E+01  0.84135613373E+02 -0.76472014441E+02  0.11383481216E+03  0.00000000000E+00 0. -1.
<mgrwt>
<rscale>  1 0.65551369E+03</rscale>
<asrwt>0</asrwt>
<pdfrwt beam="1">  1       21 0.21138874E-01 0.65551369E+03</pdfrwt>
<pdfrwt beam="2">0</pdfrwt>
<totfact> 0.20171006E+03</totfact>
</mgrwt>
</event>
<event>
 6    1  0.1439793E-004  0.6521668E+03  0.7818608E-02  0.9802722E-01
         21   -1    0    0  501  502  0.00000000000E+00  0.00000000000E+00  0.14490397727E+03  0.14490397727E+03  0.00000000000E+00 0.  1.
         13   -1    0    0    0    0 -0.00000000000E+00 -0.00000000000E+00 -0.10000000000E+04  0.10000000000E+04  0.00000000000E+00 0.  1.
    9000005    2    1    2  501    0 -0.25423249543E+02 -0.27098815310E+02 -0.88350114674E+03  0.10981328486E+04  0.65110735630E+03 0.  0.
         13    1    3    3    0    0 -0.28741958610E+03  0.15999029283E+03 -0.41210710398E+03  0.52729420386E+03  0.00000000000E+00 0.  1.
          3    1    3    3  501    0  0.26199633656E+03 -0.18708910814E+03 -0.47139404277E+03  0.57083864472E+03  0.00000000000E+00 0.  1.
         -3    1    1    2    0  502  0.25423249543E+02  0.27098815310E+02  0.28405124018E+02  0.46771128691E+02  0.00000000000E+00 0. -1.
<mgrwt>
<rscale>  1 0.65216676E+03</rscale>
<asrwt>0</asrwt>
<pdfrwt beam="1">  1       21 0.22292919E-01 0.65216676E+03</pdfrwt>
<pdfrwt beam="2">0</pdfrwt>
<totfact> 0.18204115E+03</totfact>
</mgrwt>
</event>
<event>
 6    1  0.1439793E-004  0.6762938E+03  0.7818608E-02  0.9758654E-01
         21   -1    0    0  501  502  0.00000000000E+00  0.00000000000E+00  0.77326911550E+03  0.77326911550E+03  0.00000000000E+00 0. -1.
         13   -1    0    0    0    0 -0.00000000000E+00 -0.00000000000E+00 -0.10000000000E+04  0.10000000000E+04  0.00000000000E+00 0.  1.
    9000005    2    1    2  501    0  0.44180232581E+02  0.18795295326E+03 -0.86983314176E+03  0.11018089760E+04  0.64814745205E+03 0.  0.
         13    1    3    3    0    0 -0.18718229135E+03  0.31181020520E+03 -0.28928774560E+03  0.46470443726E+03  0.00000000000E+00 0.  1.
          1    1    3    3  501    0  0.23136252393E+03 -0.12385725194E+03 -0.58054539616E+03  0.63710453878E+03  0.00000000000E+00 0.  1.
         -1    1    1    2    0  502 -0.44180232581E+02 -0.18795295326E+03  0.64310225726E+03  0.67146013945E+03  0.00000000000E+00 0. -1.
<mgrwt>
<rscale>  1 0.67629382E+03</rscale>
<asrwt>0</asrwt>
<pdfrwt beam="1">  1       21 0.11896448E+00 0.67629382E+03</pdfrwt>
<pdfrwt beam="2">0</pdfrwt>
<totfact> 0.46758220E+01</totfact>
</mgrwt>
</event>
<event>
 6    1  0.1439793E-004  0.6753520E+03  0.7818608E-02  0.9760337E-01
         21   -1    0    0  501  502  0.00000000000E+00  0.00000000000E+00  0.50700142067E+03  0.50700142067E+03  0.00000000000E+00 0.  1.
         13   -1    0    0    0    0 -0.00000000000E+00 -0.00000000000E+00 -0.10000000000E+04  0.10000000000E+04  0.00000000000E+00 0.  1.
    9000005    2    1    2  501    0 -0.17193032091E+03 -0.79331224120E+01 -0.86482073116E+03  0.10972762905E+04  0.65305236467E+03 0.  0.
         13    1    3    3    0    0 -0.40076580380E+03 -0.11696453464E+03 -0.47619195745E+03  0.63328722725E+03  0.00000000000E+00 0.  1.
          3    1    3    3  501    0  0.22883548288E+03  0.10903141223E+03 -0.38862877371E+03  0.46398906327E+03  0.00000000000E+00 0.  1.
         -1    1    1    2    0  502  0.17193032091E+03  0.79331224120E+01  0.37182215184E+03  0.40972513015E+03  0.00000000000E+00 0. -1.
<mgrwt>
<rscale>  1 0.67535203E+03</rscale>
<asrwt>0</asrwt>
<pdfrwt beam="1">  1       21 0.78000216E-01 0.67535203E+03</pdfrwt>
<pdfrwt beam="2">0</pdfrwt>
<totfact> 0.13063022E+02</totfact>
</mgrwt>
</event>
<event>
 6    1  0.1439793E-004  0.6689228E+03  0.7818608E-02  0.9771906E-01
         21   -1    0    0  501  502  0.00000000000E+00  0.00000000000E+00  0.39757222456E+03  0.39757222456E+03  0.00000000000E+00 0. -1.
         13   -1    0    0    0    0 -0.00000000000E+00 -0.00000000000E+00 -0.10000000000E+04  0.10000000000E+04  0.00000000000E+00 0.  1.
    9000005    2    1    2  501    0  0.12332176473E+03 -0.76931153725E+02 -0.86738794772E+03  0.10953627724E+04  0.65294034283E+03 0.  0.
         13    1    3    3    0    0 -0.14765225885E+03  0.17452637885E+03 -0.11243172401E+03  0.25475780464E+03  0.00000000000E+00 0.  1.
          3    1    3    3  501    0  0.27097402358E+03 -0.25145753258E+03 -0.75495622371E+03  0.84060496778E+03  0.00000000000E+00 0.  1.
         -1    1    1    2    0  502 -0.12332176473E+03  0.76931153725E+02  0.26496017228E+03  0.30220945214E+03  0.00000000000E+00 0. -1.
<mgrwt>
<rscale>  1 0.66892283E+03</rscale>
<asrwt>0</asrwt>
<pdfrwt beam="1">  1       21 0.61164956E-01 0.66892283E+03</pdfrwt>
<pdfrwt beam="2">0</pdfrwt>
<totfact> 0.22688499E+02</totfact>
</mgrwt>
</event>
<event>
 6    1  0.1439793E-004  0.6540095E+03  0.7818608E-02  0.9799285E-01
         21   -1    0    0  501  502  0.00000000000E+00  0.00000000000E+00  0.17795370370E+03  0.17795370370E+03  0.00000000000E+00 0.  1.
         13   -1    0    0    0    0 -0.00000000000E+00 -0.00000000000E+00 -0.10000000000E+04  0.10000000000E+04  0.00000000000E+00 0.  1.
    9000005    2    1    2  501    0 -0.48184705037E+02  0.67476881514E+02 -0.86512662493E+03  0.10845148999E+04  0.64873229890E+03 0.  0.
         13    1    3    3    0    0  0.36680868954E+02  0.33435295021E+03 -0.28711455151E+03  0.44223539790E+03  0.00000000000E+00 0.  1.
          3    1    3    3  501    0 -0.84865573991E+02 -0.26687606870E+03 -0.57801207342E+03  0.64227950202E+03  0.00000000000E+00 0.  1.
         -1    1    1    2    0  502  0.48184705037E+02 -0.67476881514E+02  0.43080328622E+02  0.93438803783E+02  0.00000000000E+00 0. -1.
<mgrwt>
<rscale>  1 0.65400955E+03</rscale>
<asrwt>0</asrwt>
<pdfrwt beam="1">  1       21 0.27377492E-01 0.65400955E+03</pdfrwt>
<pdfrwt beam="2">0</pdfrwt>
<totfact> 0.12172972E+03</totfact>
</mgrwt>
</event>
<event>
 6    1  0.1439793E-004  0.6509577E+03  0.7818608E-02  0.9804984E-01
         21   -1    0    0  501  502  0.00000000000E+00  0.00000000000E+00  0.32578148592E+03  0.32578148592E+03  0.00000000000E+00 0.  1.
         13   -1    0    0    0    0 -0.00000000000E+00 -0.00000000000E+00 -0.10000000000E+04  0.10000000000E+04  0.00000000000E+00 0.  1.
    9000005    2    1    2  501    0 -0.33468980781E+02 -0.76627814731E+01 -0.89257976921E+03  0.11047373079E+04  0.65005152425E+03 0.  0.
         13    1    3    3    0    0 -0.28977317907E+03 -0.76260896001E+02 -0.19270546905E+03  0.35625779622E+03  0.00000000000E+00 0.  1.
          1    1    3    3  501    0  0.25630419829E+03  0.68598114528E+02 -0.69987430016E+03  0.74847951168E+03  0.00000000000E+00 0.  1.
         -1    1    1    2    0  502  0.33468980781E+02  0.76627814731E+01  0.21836125513E+03  0.22104417801E+03  0.00000000000E+00 0. -1.
<mgrwt>
<rscale>  1 0.65095766E+03</rscale>
<asrwt>0</asrwt>
<pdfrwt beam="1">  1       21 0.50120227E-01 0.65095766E+03</pdfrwt>
<pdfrwt beam="2">0</pdfrwt>
<totfact> 0.35087095E+02</totfact>
</mgrwt>
</event>
<event>
 6    1  0.1439793E-004  0.6493189E+03  0.7818608E-02  0.9808058E-01
         21   -1    0    0  501  502  0.00000000000E+00  0.00000000000E+00  0.13467153635E+03  0.13467153635E+03  0.00000000000E+00 0.  1.
         13   -1    0    0    0    0 -0.00000000000E+00 -0.00000000000E+00 -0.10000000000E+04  0.10000000000E+04  0.00000000000E+00 0.  1.
    9000005    2    1    2  501    0 -0.53039395863E+02 -0.23340356097E+02 -0.85838611966E+03  0.10763093407E+04  0.64672800836E+03 0.  0.
         13    1    3    3    0    0 -0.18677194764E+03  0.20391563015E+03 -0.73478100317E+03  0.78509137510E+03  0.00000000000E+00 0.  1.
          3    1    3    3  501    0  0.13373255178E+03 -0.22725598624E+03 -0.12360511650E+03  0.29121796564E+03  0.00000000000E+00 0.  1.
         -1    1    1    2    0  502  0.53039395863E+02  0.23340356097E+02 -0.69423439844E+01  0.58362195609E+02  0.00000000000E+00 0. -1.
<mgrwt>
<rscale>  1 0.64931893E+03</rscale>
<asrwt>0</asrwt>
<pdfrwt beam="1">  1       21 0.20718697E-01 0.64931893E+03</pdfrwt>
<pdfrwt beam="2">0</pdfrwt>
<totfact> 0.20971682E+03</totfact>
</mgrwt>
</event>
<event>
 6    1  0.1439793E-004  0.6658772E+03  0.7818608E-02  0.9777435E-01
         21   -1    0    0  501  502  0.00000000000E+00  0.00000000000E+00  0.25871527648E+03  0.25871527648E+03  0.00000000000E+00 0.  1.
         13   -1    0    0    0    0 -0.00000000000E+00 -0.00000000000E+00 -0.10000000000E+04  0.10000000000E+04  0.00000000000E+00 0.  1.
    9000005    2    1    2  501    0 -0.21623091433E+01 -0.15679965955E+03 -0.84114208958E+03  0.10728058836E+04  0.64714885469E+03 0.  0.
         13    1    3    3    0    0  0.17776675491E+03 -0.98686998784E+02 -0.85913921745E+03  0.88287051023E+03  0.00000000000E+00 0.  1.
          3    1    3    3  501    0 -0.17992906405E+03 -0.58112660768E+02  0.17997127862E+02  0.18993537333E+03  0.00000000000E+00 0.  1.
         -3    1    1    2    0  502  0.21623091433E+01  0.15679965955E+03  0.99857366063E+02  0.18590939291E+03  0.00000000000E+00 0. -1.
<mgrwt>
<rscale>  1 0.66587720E+03</rscale>
<asrwt>0</asrwt>
<pdfrwt beam="1">  1       21 0.39802349E-01 0.66587720E+03</pdfrwt>
<pdfrwt beam="2">0</pdfrwt>
<totfact> 0.56987396E+02</totfact>
</mgrwt>
</event>
<event>
 6    1  0.1439793E-004  0.6595188E+03  0.7818608E-02  0.9789080E-01
         21   -1    0    0  501  502  0.00000000000E+00  0.00000000000E+00  0.14828854580E+03  0.14828854580E+03  0.00000000000E+00 0.  1.
         13   -1    0    0    0    0 -0.00000000000E+00 -0.00000000000E+00 -0.10000000000E+04  0.10000000000E+04  0.00000000000E+00 0.  1.
    9000005    2    1    2  501    0  0.86716702204E+01 -0.10889350966E+03 -0.75385021694E+03  0.10016262941E+04  0.65040917058E+03 0.  0.
         13    1    3    3    0    0 -0.18074005718E+03 -0.29588400009E+03 -0.60330526285E+03  0.69583873847E+03  0.00000000000E+00 0.  1.
          3    1    3    3  501    0  0.18941172740E+03  0.18699049042E+03 -0.15054495409E+03  0.30578755564E+03  0.00000000000E+00 0.  1.
         -3    1    1    2    0  502 -0.86716702204E+01  0.10889350966E+03 -0.97861237261E+02  0.14666225169E+03  0.00000000000E+00 0. -1.
<mgrwt>
<rscale>  1 0.65951883E+03</rscale>
<asrwt>0</asrwt>
<pdfrwt beam="1">  1       21 0.22813622E-01 0.65951883E+03</pdfrwt>
<pdfrwt beam="2">0</pdfrwt>
<totfact> 0.17400764E+03</totfact>
</mgrwt>
</event>
<event>
 6    1  0.1439793E-004  0.6499593E+03  0.7818608E-02  0.9806856E-01
         21   -1    0    0  501  502  0.00000000000E+00  0.00000000000E+00  0.12256219607E+03  0.12256219607E+03  0.00000000000E+00 0.  1.
         13   -1    0    0    0    0 -0.00000000000E+00 -0.00000000000E+00 -0.10000000000E+04  0.10000000000E+04  0.00000000000E+00 0.  1.
    9000005    2    1    2  501    0  0.47347676449E+01  0.42070433140E+02 -0.85688934834E+03  0.10755028889E+04  0.64857903856E+03 0.  0.
         13    1    3    3    0    0  0.25044276994E+03 -0.20215907375E+02 -0.88507144205E+02  0.26639027479E+03  0.00000000000E+00 0.  1.
          1    1    3    3  501    0 -0.24570800229E+03  0.62286340515E+02 -0.76838220414E+03  0.80911261407E+03  0.00000000000E+00 0.  1.
         -1    1    1    2    0  502 -0.47347676449E+01 -0.42070433140E+02 -0.20548455584E+02  0.47059307221E+02  0.00000000000E+00 0. -1.
<mgrwt>
<rscale>  1 0.64995931E+03</rscale>
<asrwt>0</asrwt>
<pdfrwt beam="1">  1       21 0.18855722E-01 0.64995931E+03</pdfrwt>
<pdfrwt beam="2">0</pdfrwt>
<totfact> 0.25119034E+03</totfact>
</mgrwt>
</event>
<event>
 6    1  0.1439793E-004  0.6281583E+03  0.7818608E-02  0.9848649E-01
         21   -1    0    0  501  502  0.00000000000E+00  0.00000000000E+00  0.37948333527E+03  0.37948333527E+03  0.00000000000E+00 0. -1.
         13   -1    0    0    0    0 -0.00000000000E+00 -0.00000000000E+00 -0.10000000000E+04  0.10000000000E+04  0.00000000000E+00 0.  1.
    9000005    2    1    2  501    0  0.13583935895E+03  0.69800838697E+02 -0.87832615762E+03  0.10798331673E+04  0.60930972549E+03 0.  0.
         13    1    3    3    0    0  0.13323571232E+03 -0.11334405415E+03  0.76793260973E+01  0.17509312293E+03  0.00000000000E+00 0.  1.
          3    1    3    3  501    0  0.26036466345E+01  0.18314489285E+03 -0.88600548372E+03  0.90474004439E+03  0.00000000000E+00 0.  1.
         -1    1    1    2    0  502 -0.13583935895E+03 -0.69800838697E+02  0.25780949289E+03  0.29965016794E+03  0.00000000000E+00 0. -1.
<mgrwt>
<rscale>  1 0.62815828E+03</rscale>
<asrwt>0</asrwt>
<pdfrwt beam="1">  1       21 0.58382050E-01 0.62815828E+03</pdfrwt>
<pdfrwt beam="2">0</pdfrwt>
<totfact> 0.25256552E+02</totfact>
</mgrwt>
</event>
<event>
 6    1  0.1439793E-004  0.7318327E+03  0.7818608E-02  0.9664291E-01
         21   -1    0    0  501  502  0.00000000000E+00  0.00000000000E+00  0.13580339961E+04  0.13580339961E+04  0.00000000000E+00 0. -1.
         13   -1    0    0    0    0 -0.00000000000E+00 -0.00000000000E+00 -0.10000000000E+04  0.10000000000E+04  0.00000000000E+00 0.  1.
    9000005    2    1    2  501    0  0.25615623858E+03  0.22658747374E+03 -0.83886972156E+03  0.11132302320E+04  0.64700945729E+03 0.  0.
         13    1    3    3    0    0  0.22682124572E+03 -0.19374236765E+03 -0.44976781466E+03  0.53969905469E+03  0.00000000000E+00 0.  1.
          3    1    3    3  501    0  0.29334992861E+02  0.42032984139E+03 -0.38910190690E+03  0.57353117729E+03  0.00000000000E+00 0.  1.
         -1    1    1    2    0  502 -0.25615623858E+03 -0.22658747374E+03  0.11969037177E+04  0.12448037641E+04  0.00000000000E+00 0. -1.
<mgrwt>
<rscale>  1 0.73183273E+03</rscale>
<asrwt>0</asrwt>
<pdfrwt beam="1">  1       21 0.20892830E+00 0.73183273E+03</pdfrwt>
<pdfrwt beam="2">0</pdfrwt>
<totfact> 0.93751270E+00</totfact>
</mgrwt>
</event>
<event>
 6    1  0.1439793E-004  0.6681503E+03  0.7818608E-02  0.9773305E-01
         21   -1    0    0  501  502  0.00000000000E+00  0.00000000000E+00  0.17874087220E+03  0.17874087220E+03  0.00000000000E+00 0.  1.
         13   -1    0    0    0    0 -0.00000000000E+00 -0.00000000000E+00 -0.10000000000E+04  0.10000000000E+04  0.00000000000E+00 0.  1.
    9000005    2    1    2  501    0 -0.22168139627E+02 -0.17142206729E+03 -0.69938454498E+03  0.96724532731E+03  0.64540516723E+03 0.  0.
         13    1    3    3    0    0  0.14507459496E+03  0.66784940895E+02 -0.65333276394E+03  0.67257012042E+03  0.00000000000E+00 0.  1.
          3    1    3    3  501    0 -0.16724273459E+03 -0.23820700818E+03 -0.46051781033E+02  0.29467520689E+03  0.00000000000E+00 0.  1.
         -3    1    1    2    0  502  0.22168139627E+02  0.17142206729E+03 -0.12187458282E+03  0.21149554489E+03  0.00000000000E+00 0. -1.
<mgrwt>
<rscale>  1 0.66815027E+03</rscale>
<asrwt>0</asrwt>
<pdfrwt beam="1">  1       21 0.27498595E-01 0.66815027E+03</pdfrwt>
<pdfrwt beam="2">0</pdfrwt>
<totfact> 0.12057265E+03</totfact>
</mgrwt>
</event>
<event>
 6    1  0.1439793E-004  0.6469475E+03  0.7818608E-02  0.9812524E-01
         21   -1    0    0  501  502  0.00000000000E+00  0.00000000000E+00  0.12998430608E+03  0.12998430608E+03  0.00000000000E+00 0.  1.
         13   -1    0    0    0    0 -0.00000000000E+00 -0.00000000000E+00 -0.10000000000E+04  0.10000000000E+04  0.00000000000E+00 0.  1.
    9000005    2    1    2  501    0 -0.24464382150E+01  0.33523036497E+02 -0.88240884540E+03  0.10941601628E+04  0.64607376702E+03 0.  0.
         13    1    3    3    0    0 -0.20438655981E+03  0.14724181811E+03 -0.88308330286E+02  0.26693141447E+03  0.00000000000E+00 0.  1.
          3    1    3    3  501    0  0.20194012160E+03 -0.11371878161E+03 -0.79410051512E+03  0.82722874836E+03  0.00000000000E+00 0.  1.
         -3    1    1    2    0  502  0.24464382150E+01 -0.33523036497E+02  0.12393151480E+02  0.35824143249E+02  0.00000000000E+00 0. -1.
<mgrwt>
<rscale>  1 0.64694752E+03</rscale>
<asrwt>0</asrwt>
<pdfrwt beam="1">  1       21 0.19997585E-01 0.64694752E+03</pdfrwt>
<pdfrwt beam="2">0</pdfrwt>
<totfact> 0.22450418E+03</totfact>
</mgrwt>
</event>
<event>
 6    1  0.1439793E-004  0.6426863E+03  0.7818608E-02  0.9820600E-01
         21   -1    0    0  501  502  0.00000000000E+00  0.00000000000E+00  0.14022170583E+03  0.14022170583E+03  0.00000000000E+00 0.  1.
         13   -1    0    0    0    0 -0.00000000000E+00 -0.00000000000E+00 -0.10000000000E+04  0.10000000000E+04  0.00000000000E+00 0.  1.
    9000005    2    1    2  501    0 -0.23584378630E+02 -0.21366636841E+02 -0.88902425576E+03  0.10970003875E+04  0.64189794115E+03 0.  0.
         13    1    3    3    0    0 -0.75141420633E+02  0.27213109866E+03 -0.19906313759E+03  0.34543841811E+03  0.00000000000E+00 0.  1.
          1    1    3    3  501    0  0.51557042002E+02 -0.29349773550E+03 -0.68996111816E+03  0.75156196944E+03  0.00000000000E+00 0.  1.
         -3    1    1    2    0  502  0.23584378630E+02  0.21366636841E+02  0.29245961587E+02  0.43221318287E+02  0.00000000000E+00 0. -1.
<mgrwt>
<rscale>  1 0.64268633E+03</rscale>
<asrwt>0</asrwt>
<pdfrwt beam="1">  1       21 0.21572570E-01 0.64268633E+03</pdfrwt>
<pdfrwt beam="2">0</pdfrwt>
<totfact> 0.19406551E+03</totfact>
</mgrwt>
</event>
<event>
 6    1  0.1439793E-004  0.6546149E+03  0.7818608E-02  0.9798158E-01
         21   -1    0    0  501  502  0.00000000000E+00  0.00000000000E+00  0.13492509737E+03  0.13492509737E+03  0.00000000000E+00 0.  1.
         13   -1    0    0    0    0 -0.00000000000E+00 -0.00000000000E+00 -0.10000000000E+04  0.10000000000E+04  0.00000000000E+00 0.  1.
    9000005    2    1    2  501    0  0.27475146979E+02 -0.88756843755E+01 -0.88430478189E+03  0.11002343244E+04  0.65397779763E+03 0.  0.
         13    1    3    3    0    0 -0.23758527498E+03  0.96899846313E+02 -0.11781898455E+03  0.28234315331E+03  0.00000000000E+00 0.  1.
          1    1    3    3  501    0  0.26506042196E+03 -0.10577553069E+03 -0.76648579734E+03  0.81789117106E+03  0.00000000000E+00 0.  1.
         -1    1    1    2    0  502 -0.27475146979E+02  0.88756843755E+01  0.19229879258E+02  0.34690772994E+02  0.00000000000E+00 0. -1.
<mgrwt>
<rscale>  1 0.65461486E+03</rscale>
<asrwt>0</asrwt>
<pdfrwt beam="1">  1       21 0.20757707E-01 0.65461486E+03</pdfrwt>
<pdfrwt beam="2">0</pdfrwt>
<totfact> 0.20891354E+03</totfact>
</mgrwt>
</event>
<event>
 6    1  0.1439793E-004  0.6765143E+03  0.7818608E-02  0.9758261E-01
         21   -1    0    0  501  502  0.00000000000E+00  0.00000000000E+00  0.21935966613E+03  0.21935966613E+03  0.00000000000E+00 0.  1.
         13   -1    0    0    0    0 -0.00000000000E+00 -0.00000000000E+00 -0.10000000000E+04  0.10000000000E+04  0.00000000000E+00 0.  1.
    9000005    2    1    2  501    0 -0.11166746984E+03  0.23482249782E+03 -0.55309874999E+03  0.87383629253E+03  0.62454816436E+03 0.  0.
         13    1    3    3    0    0  0.22725418066E+03  0.22400700400E+03 -0.36954825038E+03  0.48825148216E+03  0.00000000000E+00 0.  1.
          1    1    3    3  501    0 -0.33892165050E+03  0.10815493825E+02 -0.18355049960E+03  0.38558481037E+03  0.00000000000E+00 0.  1.
         -3    1    1    2    0  502  0.11166746984E+03 -0.23482249782E+03 -0.22754158388E+03  0.34552337360E+03  0.00000000000E+00 0. -1.
<mgrwt>
<rscale>  1 0.67651433E+03</rscale>
<asrwt>0</asrwt>
<pdfrwt beam="1">  1       21 0.33747640E-01 0.67651433E+03</pdfrwt>
<pdfrwt beam="2">0</pdfrwt>
<totfact> 0.79897703E+02</totfact>
</mgrwt>
</event>
<event>
 6    1  0.1439793E-004  0.6570175E+03  0.7818608E-02  0.9793700E-01
         21   -1    0    0  501  502  0.00000000000E+00  0.00000000000E+00  0.14047343493E+03  0.14047343493E+03  0.00000000000E+00 0.  1.
         13   -1    0    0    0    0 -0.00000000000E+00 -0.00000000000E+00 -0.10000000000E+04  0.10000000000E+04  0.00000000000E+00 0.  1.
    9000005    2    1    2  501    0  0.10278536997E+02  0.21468233641E+02 -0.88718792974E+03  0.11039811827E+04  0.65658624390E+03 0.  0.
         13    1    3    3    0    0  0.30733003831E+03  0.64732567527E+02 -0.64819479972E+03  0.72027672192E+03  0.00000000000E+00 0.  1.
          3    1    3    3  501    0 -0.29705150131E+03 -0.43264333887E+02 -0.23899313002E+03  0.38370446077E+03  0.00000000000E+00 0.  1.
         -1    1    1    2    0  502 -0.10278536997E+02 -0.21468233641E+02  0.27661364664E+02  0.36492252240E+02  0.00000000000E+00 0. -1.
<mgrwt>
<rscale>  1 0.65701753E+03</rscale>
<asrwt>0</asrwt>
<pdfrwt beam="1">  1       21 0.21611297E-01 0.65701753E+03</pdfrwt>
<pdfrwt beam="2">0</pdfrwt>
<totfact> 0.19327351E+03</totfact>
</mgrwt>
</event>
<event>
 6    1  0.1439793E-004  0.8040836E+03  0.7818608E-02  0.9554125E-01
         21   -1    0    0  501  502  0.00000000000E+00  0.00000000000E+00  0.54170709747E+03  0.54170709747E+03  0.00000000000E+00 0.  1.
         13   -1    0    0    0    0 -0.00000000000E+00 -0.00000000000E+00 -0.10000000000E+04  0.10000000000E+04  0.00000000000E+00 0.  1.
    9000005    2    1    2  501    0 -0.49587596470E+02  0.47638489877E+03 -0.64178338364E+03  0.10288033461E+04  0.64587066195E+03 0.  0.
         13    1    3    3    0    0  0.22374452673E+03  0.24507740658E+02 -0.37442481298E+03  0.43687089989E+03  0.00000000000E+00 0.  1.
          1    1    3    3  501    0 -0.27333212320E+03  0.45187715811E+03 -0.26735857066E+03  0.59193244622E+03  0.00000000000E+00 0.  1.
         -3    1    1    2    0  502  0.49587596470E+02 -0.47638489877E+03  0.18349048110E+03  0.51290375135E+03  0.00000000000E+00 0. -1.
<mgrwt>
<rscale>  1 0.80408359E+03</rscale>
<asrwt>0</asrwt>
<pdfrwt beam="1">  1       21 0.83339551E-01 0.80408359E+03</pdfrwt>
<pdfrwt beam="2">0</pdfrwt>
<totfact> 0.11024083E+02</totfact>
</mgrwt>
</event>
<event>
 6    1  0.1439793E-004  0.6840046E+03  0.7818608E-02  0.9744984E-01
         21   -1    0    0  501  502  0.00000000000E+00  0.00000000000E+00  0.18772265838E+03  0.18772265838E+03  0.00000000000E+00 0.  1.
         13   -1    0    0    0    0 -0.00000000000E+00 -0.00000000000E+00 -0.10000000000E+04  0.10000000000E+04  0.00000000000E+00 0.  1.
    9000005    2    1    2  501    0 -0.53033729239E+02 -0.11289352777E+03 -0.81367976171E+03  0.10629849663E+04  0.67253606510E+03 0.  0.
         13    1    3    3    0    0 -0.15027478605E+03 -0.35198746891E+03 -0.65899569640E+03  0.76207153042E+03  0.00000000000E+00 0.  1.
          3    1    3    3  501    0  0.97241056815E+02  0.23909394114E+03 -0.15468406531E+03  0.30091343586E+03  0.00000000000E+00 0.  1.
         -1    1    1    2    0  502  0.53033729239E+02  0.11289352777E+03  0.14024200913E+01  0.12473769211E+03  0.00000000000E+00 0. -1.
<mgrwt>
<rscale>  1 0.68400459E+03</rscale>
<asrwt>0</asrwt>
<pdfrwt beam="1">  1       21 0.28880408E-01 0.68400459E+03</pdfrwt>
<pdfrwt beam="2">0</pdfrwt>
<totfact> 0.10926968E+03</totfact>
</mgrwt>
</event>
<event>
 6    1  0.1439793E-004  0.6387900E+03  0.7818608E-02  0.9828044E-01
         21   -1    0    0  501  502  0.00000000000E+00  0.00000000000E+00  0.13582617461E+03  0.13582617461E+03  0.00000000000E+00 0.  1.
         13   -1    0    0    0    0 -0.00000000000E+00 -0.00000000000E+00 -0.10000000000E+04  0.10000000000E+04  0.00000000000E+00 0.  1.
    9000005    2    1    2  501    0 -0.20418718653E+02  0.19214997354E+02 -0.89146073638E+03  0.10967018126E+04  0.63817433432E+03 0.  0.
         13    1    3    3    0    0 -0.32914857444E+03  0.23480675672E+02 -0.45399147650E+03  0.56124717097E+03  0.00000000000E+00 0.  1.
          1    1    3    3  501    0  0.30872985579E+03 -0.42656783187E+01 -0.43746925988E+03  0.53545464159E+03  0.00000000000E+00 0.  1.
         -3    1    1    2    0  502  0.20418718653E+02 -0.19214997354E+02  0.27286910989E+02  0.39124362053E+02  0.00000000000E+00 0. -1.
<mgrwt>
<rscale>  1 0.63878997E+03</rscale>
<asrwt>0</asrwt>
<pdfrwt beam="1">  1       21 0.20896334E-01 0.63878997E+03</pdfrwt>
<pdfrwt beam="2">0</pdfrwt>
<totfact> 0.20639030E+03</totfact>
</mgrwt>
</event>
<event>
 6    1  0.1439793E-004  0.6566098E+03  0.7818608E-02  0.9794455E-01
         21   -1    0    0  501  502  0.00000000000E+00  0.00000000000E+00  0.16565822759E+03  0.16565822759E+03  0.00000000000E+00 0.  1.
         13   -1    0    0    0    0 -0.00000000000E+00 -0.00000000000E+00 -0.10000000000E+04  0.10000000000E+04  0.00000000000E+00 0.  1.
    9000005    2    1    2  501    0 -0.90438168393E+02  0.42483777049E+02 -0.83928645821E+03  0.10656163187E+04  0.64896259226E+03 0.  0.
         13    1    3    3    0    0 -0.17841108136E+03  0.30407967353E+03 -0.61953391452E+03  0.71282342347E+03  0.00000000000E+00 0.  1.
          1    1    3    3  501    0  0.87972912962E+02 -0.26159589649E+03 -0.21975254369E+03  0.35279289524E+03  0.00000000000E+00 0.  1.
         -1    1    1    2    0  502  0.90438168393E+02 -0.42483777049E+02  0.49446858080E+01  0.10004190888E+03  0.00000000000E+00 0. -1.
<mgrwt>
<rscale>  1 0.65660976E+03</rscale>
<asrwt>0</asrwt>
<pdfrwt beam="1">  1       21 0.25485880E-01 0.65660976E+03</pdfrwt>
<pdfrwt beam="2">0</pdfrwt>
<totfact> 0.14017086E+03</totfact>
</mgrwt>
</event>
<event>
 6    1  0.1439793E-004  0.6529114E+03  0.7818608E-02  0.9801331E-01
         21   -1    0    0  501  502  0.00000000000E+00  0.00000000000E+00  0.11670337779E+03  0.11670337779E+03  0.00000000000E+00 0.  1.
         13   -1    0    0    0    0 -0.00000000000E+00 -0.00000000000E+00 -0.10000000000E+04  0.10000000000E+04  0.00000000000E+00 0.  1.
    9000005    2    1    2  501    0 -0.30110124779E+02  0.27722402101E+01 -0.84779762365E+03  0.10700720168E+04  0.65221085971E+03 0.  0.
         13    1    3    3    0    0 -0.31876080372E+03  0.11050120345E+03 -0.36221540418E+03  0.49499390398E+03  0.00000000000E+00 0.  1.
          1    1    3    3  501    0  0.28865067894E+03 -0.10772896324E+03 -0.48558221947E+03  0.57507811282E+03  0.00000000000E+00 0.  1.
         -3    1    1    2    0  502  0.30110124779E+02 -0.27722402101E+01 -0.35498998558E+02  0.46631360998E+02  0.00000000000E+00 0. -1.
<mgrwt>
<rscale>  1 0.65291141E+03</rscale>
<asrwt>0</asrwt>
<pdfrwt beam="1">  1       21 0.17954365E-01 0.65291141E+03</pdfrwt>
<pdfrwt beam="2">0</pdfrwt>
<totfact> 0.27568351E+03</totfact>
</mgrwt>
</event>
<event>
 6    1  0.1439793E-004  0.6707402E+03  0.7818608E-02  0.9768621E-01
         21   -1    0    0  501  502  0.00000000000E+00  0.00000000000E+00  0.15968595612E+03  0.15968595612E+03  0.00000000000E+00 0.  1.
         13   -1    0    0    0    0 -0.00000000000E+00 -0.00000000000E+00 -0.10000000000E+04  0.10000000000E+04  0.00000000000E+00 0.  1.
    9000005    2    1    2  501    0 -0.57880922113E+02  0.18756390828E+02 -0.86451776625E+03  0.10942044815E+04  0.66797490659E+03 0.  0.
         13    1    3    3    0    0 -0.35590763433E+03  0.80902006953E+02 -0.50532161824E+03  0.62335007561E+03  0.00000000000E+00 0.  1.
          1    1    3    3  501    0  0.29802671222E+03 -0.62145616124E+02 -0.35919614801E+03  0.47085440589E+03  0.00000000000E+00 0.  1.
         -3    1    1    2    0  502  0.57880922113E+02 -0.18756390828E+02  0.24203722365E+02  0.65481474616E+02  0.00000000000E+00 0. -1.
<mgrwt>
<rscale>  1 0.67074025E+03</rscale>
<asrwt>0</asrwt>
<pdfrwt beam="1">  1       21 0.24567069E-01 0.67074025E+03</pdfrwt>
<pdfrwt beam="2">0</pdfrwt>
<totfact> 0.15052825E+03</totfact>
</mgrwt>
</event>
<event>
 6    1  0.1439793E-004  0.6408403E+03  0.7818608E-02  0.9824120E-01
         21   -1    0    0  501  502  0.00000000000E+00  0.00000000000E+00  0.12728855132E+03  0.12728855132E+03  0.00000000000E+00 0.  1.
         13   -1    0    0    0    0 -0.00000000000E+00 -0.00000000000E+00 -0.10000000000E+04  0.10000000000E+04  0.00000000000E+00 0.  1.
    9000005    2    1    2  501    0  0.46438890239E+01 -0.61116060703E+02 -0.84368153276E+03  0.10594691249E+04  0.63790246850E+03 0.  0.
         13    1    3    3    0    0 -0.98894605880E+02  0.84495877375E+02 -0.86929439607E+03  0.87897237921E+03  0.00000000000E+00 0.  1.
          3    1    3    3  501    0  0.10353849490E+03 -0.14561193808E+03  0.25612863319E+02  0.18049674569E+03  0.00000000000E+00 0.  1.
         -1    1    1    2    0  502 -0.46438890239E+01  0.61116060703E+02 -0.29029915926E+02  0.67819426419E+02  0.00000000000E+00 0. -1.
<mgrwt>
<rscale>  1 0.64084031E+03</rscale>
<asrwt>0</asrwt>
<pdfrwt beam="1">  1       21 0.19582853E-01 0.64084031E+03</pdfrwt>
<pdfrwt beam="2">0</pdfrwt>
<totfact> 0.23375476E+03</totfact>
</mgrwt>
</event>
<event>
 6    1  0.1439793E-004  0.6581400E+03  0.7818608E-02  0.9791624E-01
         21   -1    0    0  501  502  0.00000000000E+00  0.00000000000E+00  0.34912446273E+03  0.34912446273E+03  0.00000000000E+00 0. -1.
         13   -1    0    0    0    0 -0.00000000000E+00 -0.00000000000E+00 -0.10000000000E+04  0.10000000000E+04  0.00000000000E+00 0.  1.
    9000005    2    1    2  501    0 -0.42101072137E+02  0.46803469568E+02 -0.88714327055E+03  0.11046137128E+04  0.65512228399E+03 0.  0.
         13    1    3    3    0    0  0.26750022182E+03 -0.10960608441E+03 -0.26428740799E+03  0.39168571130E+03  0.00000000000E+00 0.  1.
          3    1    3    3  501    0 -0.30960129396E+03  0.15640955397E+03 -0.62285586257E+03  0.71292800150E+03  0.00000000000E+00 0.  1.
         -1    1    1    2    0  502  0.42101072137E+02 -0.46803469568E+02  0.23626773328E+03  0.24451074992E+03  0.00000000000E+00 0. -1.
<mgrwt>
<rscale>  1 0.65814001E+03</rscale>
<asrwt>0</asrwt>
<pdfrwt beam="1">  1       21 0.53711454E-01 0.65814001E+03</pdfrwt>
<pdfrwt beam="2">0</pdfrwt>
<totfact> 0.30202080E+02</totfact>
</mgrwt>
</event>
<event>
 6    1  0.1439793E-004  0.6796323E+03  0.7818608E-02  0.9752712E-01
         21   -1    0    0  501  502  0.00000000000E+00  0.00000000000E+00  0.13911643132E+03  0.13911643132E+03  0.00000000000E+00 0.  1.
         13   -1    0    0    0    0 -0.00000000000E+00 -0.00000000000E+00 -0.10000000000E+04  0.10000000000E+04  0.00000000000E+00 0.  1.
    9000005    2    1    2  501    0  0.22244167000E+02 -0.30198587221E+02 -0.86645161068E+03  0.11011986159E+04  0.67859652250E+03 0.  0.
         13    1    3    3    0    0  0.20873021896E+03 -0.28545257019E+03 -0.55021602667E+03  0.65405592279E+03  0.00000000000E+00 0.  1.
          1    1    3    3  501    0 -0.18648605196E+03  0.25525398297E+03 -0.31623558401E+03  0.44714269310E+03  0.00000000000E+00 0.  1.
         -1    1    1    2    0  502 -0.22244167000E+02  0.30198587221E+02  0.55680419975E+01  0.37917815435E+02  0.00000000000E+00 0. -1.
<mgrwt>
<rscale>  1 0.67963225E+03</rscale>
<asrwt>0</asrwt>
<pdfrwt beam="1">  1       21 0.21402527E-01 0.67963225E+03</pdfrwt>
<pdfrwt beam="2">0</pdfrwt>
<totfact> 0.19674447E+03</totfact>
</mgrwt>
</event>
<event>
 6    1  0.1439793E-004  0.6872789E+03  0.7818608E-02  0.9739238E-01
         21   -1    0    0  501  502  0.00000000000E+00  0.00000000000E+00  0.50345344878E+03  0.50345344878E+03  0.00000000000E+00 0. -1.
         13   -1    0    0    0    0 -0.00000000000E+00 -0.00000000000E+00 -0.10000000000E+04  0.10000000000E+04  0.00000000000E+00 0.  1.
    9000005    2    1    2  501    0  0.12171587106E+03 -0.18423584810E+03 -0.84606002219E+03  0.10900320326E+04  0.65084150903E+03 0.  0.
         13    1    3    3    0    0  0.18042763858E+03  0.20699284723E+03 -0.23153474430E+03  0.35917754577E+03  0.00000000000E+00 0.  1.
          1    1    3    3  501    0 -0.58711767516E+02 -0.39122869534E+03 -0.61452527789E+03  0.73085448679E+03  0.00000000000E+00 0.  1.
         -1    1    1    2    0  502 -0.12171587106E+03  0.18423584810E+03  0.34951347097E+03  0.41342141621E+03  0.00000000000E+00 0. -1.
<mgrwt>
<rscale>  1 0.68727889E+03</rscale>
<asrwt>0</asrwt>
<pdfrwt beam="1">  1       21 0.77454375E-01 0.68727889E+03</pdfrwt>
<pdfrwt beam="2">0</pdfrwt>
<totfact> 0.13258131E+02</totfact>
</mgrwt>
</event>
<event>
 6    1  0.1439793E-004  0.6670946E+03  0.7818608E-02  0.9775221E-01
         21   -1    0    0  501  502  0.00000000000E+00  0.00000000000E+00  0.17651539501E+03  0.17651539501E+03  0.00000000000E+00 0.  1.
         13   -1    0    0    0    0 -0.00000000000E+00 -0.00000000000E+00 -0.10000000000E+04  0.10000000000E+04  0.00000000000E+00 0.  1.
    9000005    2    1    2  501    0  0.71211435746E+02  0.14515658481E+03 -0.73348348994E+03  0.99147025617E+03  0.64720455513E+03 0.  0.
         13    1    3    3    0    0 -0.79254882919E+02  0.20158086540E+03  0.23265240343E+02  0.21784731619E+03  0.00000000000E+00 0.  1.
          3    1    3    3  501    0  0.15046631866E+03 -0.56424280591E+02 -0.75674873028E+03  0.77362293998E+03  0.00000000000E+00 0.  1.
         -1    1    1    2    0  502 -0.71211435746E+02 -0.14515658481E+03 -0.90001115055E+02  0.18504513883E+03  0.00000000000E+00 0. -1.
<mgrwt>
<rscale>  1 0.66709463E+03</rscale>
<asrwt>0</asrwt>
<pdfrwt beam="1">  1       21 0.27156214E-01 0.66709463E+03</pdfrwt>
<pdfrwt beam="2">0</pdfrwt>
<totfact> 0.12361114E+03</totfact>
</mgrwt>
</event>
<event>
 6    1  0.1439793E-004  0.6101547E+03  0.7818608E-02  0.9884559E-01
         21   -1    0    0  501  502  0.00000000000E+00  0.00000000000E+00  0.12197332096E+03  0.12197332096E+03  0.00000000000E+00 0.  1.
         13   -1    0    0    0    0 -0.00000000000E+00 -0.00000000000E+00 -0.10000000000E+04  0.10000000000E+04  0.00000000000E+00 0.  1.
    9000005    2    1    2  501    0  0.10734095040E+02 -0.44542630415E+02 -0.88569275959E+03  0.10755186601E+04  0.60843196596E+03 0.  0.
         13    1    3    3    0    0 -0.26206370243E+03 -0.40728968987E+02 -0.69157340654E+03  0.74068212458E+03  0.00000000000E+00 0.  1.
          1    1    3    3  501    0  0.27279779747E+03 -0.38136614274E+01 -0.19411935305E+03  0.33483653556E+03  0.00000000000E+00 0.  1.
         -3    1    1    2    0  502 -0.10734095040E+02  0.44542630415E+02  0.76660805450E+01  0.46454660816E+02  0.00000000000E+00 0. -1.
<mgrwt>
<rscale>  1 0.61015467E+03</rscale>
<asrwt>0</asrwt>
<pdfrwt beam="1">  1       21 0.18765126E-01 0.61015467E+03</pdfrwt>
<pdfrwt beam="2">0</pdfrwt>
<totfact> 0.25387829E+03</totfact>
</mgrwt>
</event>
<event>
 6    1  0.1439793E-004  0.6479096E+03  0.7818608E-02  0.9810710E-01
         21   -1    0    0  501  502  0.00000000000E+00  0.00000000000E+00  0.18659063454E+03  0.18659063454E+03  0.00000000000E+00 0.  1.
         13   -1    0    0    0    0 -0.00000000000E+00 -0.00000000000E+00 -0.10000000000E+04  0.10000000000E+04  0.00000000000E+00 0.  1.
    9000005    2    1    2  501    0 -0.25720414655E+01 -0.34610144951E+02 -0.89095700724E+03  0.11016311485E+04  0.64697938219E+03 0.  0.
         13    1    3    3    0    0 -0.45644940168E+02  0.42829891494E+02 -0.97647709694E+03  0.97848116027E+03  0.00000000000E+00 0.  1.
          1    1    3    3  501    0  0.43072898702E+02 -0.77440036445E+02  0.85520089700E+02  0.12314998818E+03  0.00000000000E+00 0.  1.
         -3    1    1    2    0  502  0.25720414655E+01  0.34610144951E+02  0.77547641777E+02  0.84959486086E+02  0.00000000000E+00 0. -1.
<mgrwt>
<rscale>  1 0.64790956E+03</rscale>
<asrwt>0</asrwt>
<pdfrwt beam="1">  1       21 0.28706251E-01 0.64790956E+03</pdfrwt>
<pdfrwt beam="2">0</pdfrwt>
<totfact> 0.11083132E+03</totfact>
</mgrwt>
</event>
<event>
 6    1  0.1439793E-004  0.6742088E+03  0.7818608E-02  0.9762384E-01
         21   -1    0    0  501  502  0.00000000000E+00  0.00000000000E+00  0.31599077820E+03  0.31599077820E+03  0.00000000000E+00 0. -1.
         13   -1    0    0    0    0 -0.00000000000E+00 -0.00000000000E+00 -0.10000000000E+04  0.10000000000E+04  0.00000000000E+00 0.  1.
    9000005    2    1    2  501    0 -0.10034158539E+03 -0.12003445047E+03 -0.85196089583E+03  0.10864598045E+04  0.65580548625E+03 0.  0.
         13    1    3    3    0    0  0.26101393761E+03  0.60418325836E+02 -0.38508741542E+03  0.46911722121E+03  0.00000000000E+00 0.  1.
          3    1    3    3  501    0 -0.36135552300E+03 -0.18045277631E+03 -0.46687348041E+03  0.61734258333E+03  0.00000000000E+00 0.  1.
         -3    1    1    2    0  502  0.10034158539E+03  0.12003445047E+03  0.16795167403E+03  0.22953097366E+03  0.00000000000E+00 0. -1.
<mgrwt>
<rscale>  1 0.67420882E+03</rscale>
<asrwt>0</asrwt>
<pdfrwt beam="1">  1       21 0.48613964E-01 0.67420882E+03</pdfrwt>
<pdfrwt beam="2">0</pdfrwt>
<totfact> 0.37374498E+02</totfact>
</mgrwt>
</event>
<event>
 6    1  0.1439793E-004  0.6562389E+03  0.7818608E-02  0.9795142E-01
         21   -1    0    0  501  502  0.00000000000E+00  0.00000000000E+00  0.11998589667E+03  0.11998589667E+03  0.00000000000E+00 0.  1.
         13   -1    0    0    0    0 -0.00000000000E+00 -0.00000000000E+00 -0.10000000000E+04  0.10000000000E+04  0.00000000000E+00 0.  1.
    9000005    2    1    2  501    0 -0.22091042074E+02  0.28674865804E+02 -0.82575902287E+03  0.10547641532E+04  0.65523979801E+03 0.  0.
         13    1    3    3    0    0 -0.97126860141E+02  0.33044324624E+03 -0.40695620810E+03  0.53314137080E+03  0.00000000000E+00 0.  1.
          3    1    3    3  501    0  0.75035818067E+02 -0.30176838044E+03 -0.41880281477E+03  0.52162278237E+03  0.00000000000E+00 0.  1.
         -3    1    1    2    0  502  0.22091042074E+02 -0.28674865804E+02 -0.54255080462E+02  0.65221743497E+02  0.00000000000E+00 0. -1.
<mgrwt>
<rscale>  1 0.65623887E+03</rscale>
<asrwt>0</asrwt>
<pdfrwt beam="1">  1       21 0.18459368E-01 0.65623887E+03</pdfrwt>
<pdfrwt beam="2">0</pdfrwt>
<totfact> 0.26150306E+03</totfact>
</mgrwt>
</event>
<event>
 6    1  0.1439793E-004  0.6376179E+03  0.7818608E-02  0.9830295E-01
         21   -1    0    0  501  502  0.00000000000E+00  0.00000000000E+00  0.13614244051E+03  0.13614244051E+03  0.00000000000E+00 0.  1.
         13   -1    0    0    0    0 -0.00000000000E+00 -0.00000000000E+00 -0.10000000000E+04  0.10000000000E+04  0.00000000000E+00 0.  1.
    9000005    2    1    2  501    0 -0.36324954225E+02 -0.22023906884E+02 -0.88332631403E+03  0.10894135717E+04  0.63620122480E+03 0.  0.
         13    1    3    3    0    0 -0.22319670049E+03 -0.16526234983E+03 -0.78780225574E+03  0.83532078002E+03  0.00000000000E+00 0.  1.
          1    1    3    3  501    0  0.18687174627E+03  0.14323844294E+03 -0.95524058295E+02  0.25409279172E+03  0.00000000000E+00 0.  1.
         -3    1    1    2    0  502  0.36324954225E+02  0.22023906884E+02  0.19468754547E+02  0.46728868780E+02  0.00000000000E+00 0. -1.
<mgrwt>
<rscale>  1 0.63761787E+03</rscale>
<asrwt>0</asrwt>
<pdfrwt beam="1">  1       21 0.20944990E-01 0.63761787E+03</pdfrwt>
<pdfrwt beam="2">0</pdfrwt>
<totfact> 0.20547852E+03</totfact>
</mgrwt>
</event>
<event>
 6    1  0.1439793E-004  0.6968228E+03  0.7818608E-02  0.9722681E-01
         21   -1    0    0  501  502  0.00000000000E+00  0.00000000000E+00  0.57857789242E+03  0.57857789242E+03  0.00000000000E+00 0. -1.
         13   -1    0    0    0    0 -0.00000000000E+00 -0.00000000000E+00 -0.10000000000E+04  0.10000000000E+04  0.00000000000E+00 0.  1.
    9000005    2    1    2  501    0 -0.22556612954E+03 -0.43475031954E+02 -0.84588556491E+03  0.10959399496E+04  0.65786915652E+03 0.  0.
         13    1    3    3    0    0  0.11225032400E+03  0.84834186896E+02 -0.68687752745E+03  0.70114029425E+03  0.00000000000E+00 0.  1.
          3    1    3    3  501    0 -0.33781645354E+03 -0.12830921885E+03 -0.15900803746E+03  0.39479965539E+03  0.00000000000E+00 0.  1.
         -3    1    1    2    0  502  0.22556612954E+03  0.43475031954E+02  0.42446345733E+03  0.48263794278E+03  0.00000000000E+00 0. -1.
<mgrwt>
<rscale>  1 0.69682278E+03</rscale>
<asrwt>0</asrwt>
<pdfrwt beam="1">  1       21 0.89011981E-01 0.69682278E+03</pdfrwt>
<pdfrwt beam="2">0</pdfrwt>
<totfact> 0.95469840E+01</totfact>
</mgrwt>
</event>
<event>
 6    1  0.1439793E-004  0.6826117E+03  0.7818608E-02  0.9747439E-01
         21   -1    0    0  501  502  0.00000000000E+00  0.00000000000E+00  0.22625344657E+03  0.22625344657E+03  0.00000000000E+00 0.  1.
         13   -1    0    0    0    0 -0.00000000000E+00 -0.00000000000E+00 -0.10000000000E+04  0.10000000000E+04  0.00000000000E+00 0.  1.
    9000005    2    1    2  501    0  0.27445502886E+02 -0.20510134524E+03 -0.75598403474E+03  0.10185629930E+04  0.65049127005E+03 0.  0.
         13    1    3    3    0    0 -0.13956877084E+03 -0.13833392077E+03  0.41672372010E+02  0.20087882421E+03  0.00000000000E+00 0.  1.
          3    1    3    3  501    0  0.16701427372E+03 -0.66767424476E+02 -0.79765640675E+03  0.81768416875E+03  0.00000000000E+00 0.  1.
         -3    1    1    2    0  502 -0.27445502886E+02  0.20510134524E+03 -0.17762518688E+02  0.20769045361E+03  0.00000000000E+00 0. -1.
<mgrwt>
<rscale>  1 0.68261168E+03</rscale>
<asrwt>0</asrwt>
<pdfrwt beam="1">  1       21 0.34808222E-01 0.68261168E+03</pdfrwt>
<pdfrwt beam="2">0</pdfrwt>
<totfact> 0.74989180E+02</totfact>
</mgrwt>
</event>
<event>
 6    1  0.1439793E-004  0.6492922E+03  0.7818608E-02  0.9808108E-01
         21   -1    0    0  501  502  0.00000000000E+00  0.00000000000E+00  0.13999635106E+03  0.13999635106E+03  0.00000000000E+00 0.  1.
         13   -1    0    0    0    0 -0.00000000000E+00 -0.00000000000E+00 -0.10000000000E+04  0.10000000000E+04  0.00000000000E+00 0.  1.
    9000005    2    1    2  501    0  0.56626557313E+02 -0.38866005828E+02 -0.85147200762E+03  0.10707870865E+04  0.64564949575E+03 0.  0.
         13    1    3    3    0    0 -0.90241285695E+02 -0.30833572738E+03 -0.29942113278E+03  0.43916673961E+03  0.00000000000E+00 0.  1.
          3    1    3    3  501    0  0.14686784301E+03  0.26946972155E+03 -0.55205087484E+03  0.63162034685E+03  0.00000000000E+00 0.  1.
         -3    1    1    2    0  502 -0.56626557313E+02  0.38866005828E+02 -0.85316413205E+01  0.69209264595E+02  0.00000000000E+00 0. -1.
<mgrwt>
<rscale>  1 0.64929223E+03</rscale>
<asrwt>0</asrwt>
<pdfrwt beam="1">  1       21 0.21537900E-01 0.64929223E+03</pdfrwt>
<pdfrwt beam="2">0</pdfrwt>
<totfact> 0.19461298E+03</totfact>
</mgrwt>
</event>
<event>
 6    1  0.1439793E-004  0.6529806E+03  0.7818608E-02  0.9801202E-01
         21   -1    0    0  501  502  0.00000000000E+00  0.00000000000E+00  0.11871386003E+03  0.11871386003E+03  0.00000000000E+00 0.  1.
         13   -1    0    0    0    0 -0.00000000000E+00 -0.00000000000E+00 -0.10000000000E+04  0.10000000000E+04  0.00000000000E+00 0.  1.
    9000005    2    1    2  501    0 -0.77439488901E+01 -0.23469803636E+02 -0.87736892731E+03  0.10936909709E+04  0.65251276212E+03 0.  0.
         13    1    3    3    0    0 -0.47179682700E+02  0.39297030672E+02  0.97925454990E+02  0.11558362260E+03  0.00000000000E+00 0.  1.
          3    1    3    3  501    0  0.39435733810E+02 -0.62766834309E+02 -0.97529438230E+03  0.97810734827E+03  0.00000000000E+00 0.  1.
         -3    1    1    2    0  502  0.77439488901E+01  0.23469803636E+02 -0.39172126573E+01  0.25022889165E+02  0.00000000000E+00 0. -1.
<mgrwt>
<rscale>  1 0.65298063E+03</rscale>
<asrwt>0</asrwt>
<pdfrwt beam="1">  1       21 0.18263670E-01 0.65298063E+03</pdfrwt>
<pdfrwt beam="2">0</pdfrwt>
<totfact> 0.26688558E+03</totfact>
</mgrwt>
</event>
<event>
 6    1  0.1439793E-004  0.6463738E+03  0.7818608E-02  0.9813607E-01
         21   -1    0    0  501  502  0.00000000000E+00  0.00000000000E+00  0.12863859710E+03  0.12863859710E+03  0.00000000000E+00 0.  1.
         13   -1    0    0    0    0 -0.00000000000E+00 -0.00000000000E+00 -0.10000000000E+04  0.10000000000E+04  0.00000000000E+00 0.  1.
    9000005    2    1    2  501    0 -0.31565361195E+02 -0.67725570016E+00 -0.88359545749E+03  0.10947785499E+04  0.64560228484E+03 0.  0.
         13    1    3    3    0    0 -0.17356798780E+03  0.13375019394E+01 -0.92946860269E+03  0.94553663001E+03  0.00000000000E+00 0.  1.
          1    1    3    3  501    0  0.14200262661E+03 -0.20147576396E+01  0.45873145198E+02  0.14924191992E+03  0.00000000000E+00 0.  1.
         -3    1    1    2    0  502  0.31565361195E+02  0.67725570016E+00  0.12234054598E+02  0.33860047173E+02  0.00000000000E+00 0. -1.
<mgrwt>
<rscale>  1 0.64637384E+03</rscale>
<asrwt>0</asrwt>
<pdfrwt beam="1">  1       21 0.19790553E-01 0.64637384E+03</pdfrwt>
<pdfrwt beam="2">0</pdfrwt>
<totfact> 0.22903182E+03</totfact>
</mgrwt>
</event>
<event>
 6    1  0.1439793E-004  0.6379268E+03  0.7818608E-02  0.9829701E-01
         21   -1    0    0  501  502  0.00000000000E+00  0.00000000000E+00  0.20198776225E+03  0.20198776225E+03  0.00000000000E+00 0. -1.
         13   -1    0    0    0    0 -0.00000000000E+00 -0.00000000000E+00 -0.10000000000E+04  0.10000000000E+04  0.00000000000E+00 0.  1.
    9000005    2    1    2  501    0  0.11711001149E+03 -0.11582421748E+02 -0.85858297049E+03  0.10696332347E+04  0.62697817536E+03 0.  0.
         13    1    3    3    0    0  0.11072255401E+03 -0.31457697983E+03 -0.41472196450E+03  0.53217710214E+03  0.00000000000E+00 0.  1.
          3    1    3    3  501    0  0.63874574877E+01  0.30299455808E+03 -0.44386100598E+03  0.53745613260E+03  0.00000000000E+00 0.  1.
         -3    1    1    2    0  502 -0.11711001149E+03  0.11582421748E+02  0.60570732734E+02  0.13235452750E+03  0.00000000000E+00 0. -1.
<mgrwt>
<rscale>  1 0.63792675E+03</rscale>
<asrwt>0</asrwt>
<pdfrwt beam="1">  1       21 0.31075039E-01 0.63792675E+03</pdfrwt>
<pdfrwt beam="2">0</pdfrwt>
<totfact> 0.94634589E+02</totfact>
</mgrwt>
</event>
<event>
 6    1  0.1439793E-004  0.6458987E+03  0.7818608E-02  0.9814506E-01
         21   -1    0    0  501  502  0.00000000000E+00  0.00000000000E+00  0.96681873486E+03  0.96681873486E+03  0.00000000000E+00 0. -1.
         13   -1    0    0    0    0 -0.00000000000E+00 -0.00000000000E+00 -0.10000000000E+04  0.10000000000E+04  0.00000000000E+00 0.  1.
    9000005    2    1    2  501    0 -0.87613385366E+02 -0.38281850817E+02 -0.89277602955E+03  0.11019229236E+04  0.63878281531E+03 0.  0.
         13    1    3    3    0    0 -0.46806820674E+02  0.29601784991E+03 -0.32752221205E+03  0.44394621894E+03  0.00000000000E+00 0.  1.
          3    1    3    3  501    0 -0.40806564692E+02 -0.33429970072E+03 -0.56525381750E+03  0.65797670462E+03  0.00000000000E+00 0.  1.
         -3    1    1    2    0  502  0.87613385366E+02  0.38281850817E+02  0.85959476441E+03  0.86489581130E+03  0.00000000000E+00 0. -1.
<mgrwt>
<rscale>  1 0.64589867E+03</rscale>
<asrwt>0</asrwt>
<pdfrwt beam="1">  1       21 0.14874134E+00 0.64589867E+03</pdfrwt>
<pdfrwt beam="2">0</pdfrwt>
<totfact> 0.26012986E+01</totfact>
</mgrwt>
</event>
<event>
 6    1  0.1439793E-004  0.6597152E+03  0.7818608E-02  0.9788718E-01
         21   -1    0    0  501  502  0.00000000000E+00  0.00000000000E+00  0.17715928694E+03  0.17715928694E+03  0.00000000000E+00 0.  1.
         13   -1    0    0    0    0 -0.00000000000E+00 -0.00000000000E+00 -0.10000000000E+04  0.10000000000E+04  0.00000000000E+00 0.  1.
    9000005    2    1    2  501    0 -0.11972656072E+02  0.75128956636E+02 -0.86679905698E+03  0.10892955252E+04  0.65531399460E+03 0.  0.
         13    1    3    3    0    0 -0.13252771587E+03 -0.16866677048E+03 -0.39075572787E+02  0.21803434437E+03  0.00000000000E+00 0.  1.
          3    1    3    3  501    0  0.12055505980E+03  0.24379572712E+03 -0.82772348420E+03  0.87126118087E+03  0.00000000000E+00 0.  1.
         -3    1    1    2    0  502  0.11972656072E+02 -0.75128956636E+02  0.43958343922E+02  0.87863761694E+02  0.00000000000E+00 0. -1.
<mgrwt>
<rscale>  1 0.65971519E+03</rscale>
<asrwt>0</asrwt>
<pdfrwt beam="1">  1       21 0.27255274E-01 0.65971519E+03</pdfrwt>
<pdfrwt beam="2">0</pdfrwt>
<totfact> 0.12277381E+03</totfact>
</mgrwt>
</event>
<event>
 6    1  0.1439793E-004  0.6463428E+03  0.7818608E-02  0.9813666E-01
         21   -1    0    0  501  502  0.00000000000E+00  0.00000000000E+00  0.13005835112E+03  0.13005835112E+03  0.00000000000E+00 0.  1.
         13   -1    0    0    0    0 -0.00000000000E+00 -0.00000000000E+00 -0.10000000000E+04  0.10000000000E+04  0.00000000000E+00 0.  1.
    9000005    2    1    2  501    0  0.30104200008E+02 -0.41118058581E+02 -0.86362765041E+03  0.10787083348E+04  0.64433065689E+03 0.  0.
         13    1    3    3    0    0  0.15467333243E+03  0.26749652438E+03 -0.47979134716E+03  0.57068201928E+03  0.00000000000E+00 0.  1.
          1    1    3    3  501    0 -0.12456913242E+03 -0.30861458296E+03 -0.38383630325E+03  0.50802631552E+03  0.00000000000E+00 0.  1.
         -3    1    1    2    0  502 -0.30104200008E+02  0.41118058581E+02 -0.63139984717E+01  0.51350016322E+02  0.00000000000E+00 0. -1.
<mgrwt>
<rscale>  1 0.64634275E+03</rscale>
<asrwt>0</asrwt>
<pdfrwt beam="1">  1       21 0.20008977E-01 0.64634275E+03</pdfrwt>
<pdfrwt beam="2">0</pdfrwt>
<totfact> 0.22426451E+03</totfact>
</mgrwt>
</event>
<event>
 6    1  0.1439793E-004  0.6729915E+03  0.7818608E-02  0.9764569E-01
         21   -1    0    0  501  502  0.00000000000E+00  0.00000000000E+00  0.28043484163E+03  0.28043484163E+03  0.00000000000E+00 0. -1.
         13   -1    0    0    0    0 -0.00000000000E+00 -0.00000000000E+00 -0.10000000000E+04  0.10000000000E+04  0.00000000000E+00 0.  1.
    9000005    2    1    2  501    0  0.50844453690E+02 -0.88217484729E+02 -0.86929801096E+03  0.10993618999E+04  0.66524437014E+03 0.  0.
         13    1    3    3    0    0  0.42016777707E+02  0.14012471724E+03  0.48052360047E+02  0.15397848972E+03  0.00000000000E+00 0.  1.
          3    1    3    3  501    0  0.88276759825E+01 -0.22834220196E+03 -0.91735037101E+03  0.94538341018E+03  0.00000000000E+00 0.  1.
         -3    1    1    2    0  502 -0.50844453690E+02  0.88217484729E+02  0.14973285259E+03  0.18107294173E+03  0.00000000000E+00 0. -1.
<mgrwt>
<rscale>  1 0.67299150E+03</rscale>
<asrwt>0</asrwt>
<pdfrwt beam="1">  1       21 0.43143821E-01 0.67299150E+03</pdfrwt>
<pdfrwt beam="2">0</pdfrwt>
<totfact> 0.48131067E+02</totfact>
</mgrwt>
</event>
<event>
 6    1  0.1439793E-004  0.6517337E+03  0.7818608E-02  0.9803531E-01
         21   -1    0    0  501  502  0.00000000000E+00  0.00000000000E+00  0.33833946829E+03  0.33833946829E+03  0.00000000000E+00 0. -1.
         13   -1    0    0    0    0 -0.00000000000E+00 -0.00000000000E+00 -0.10000000000E+04  0.10000000000E+04  0.00000000000E+00 0.  1.
    9000005    2    1    2  501    0 -0.19336345280E+02 -0.29707843541E+02 -0.89231293266E+03  0.11049792740E+04  0.65076906499E+03 0.  0.
         13    1    3    3    0    0  0.21123187554E+03  0.11697558479E+03 -0.90473070911E+02  0.25785183583E+03  0.00000000000E+00 0.  1.
          3    1    3    3  501    0 -0.23056822082E+03 -0.14668342834E+03 -0.80183986175E+03  0.84712743816E+03  0.00000000000E+00 0.  1.
         -1    1    1    2    0  502  0.19336345280E+02  0.29707843541E+02  0.23065240095E+03  0.23336019429E+03  0.00000000000E+00 0. -1.
<mgrwt>
<rscale>  1 0.65173371E+03</rscale>
<asrwt>0</asrwt>
<pdfrwt beam="1">  1       21 0.52052224E-01 0.65173371E+03</pdfrwt>
<pdfrwt beam="2">0</pdfrwt>
<totfact> 0.32343210E+02</totfact>
</mgrwt>
</event>
<event>
 6    1  0.1439793E-004  0.6425427E+03  0.7818608E-02  0.9820874E-01
         21   -1    0    0  501  502  0.00000000000E+00  0.00000000000E+00  0.14636987013E+03  0.14636987013E+03  0.00000000000E+00 0.  1.
         13   -1    0    0    0    0 -0.00000000000E+00 -0.00000000000E+00 -0.10000000000E+04  0.10000000000E+04  0.00000000000E+00 0.  1.
    9000005    2    1    2  501    0  0.19606503298E+01 -0.37184047119E+02 -0.88773791608E+03  0.10958739437E+04  0.64146285570E+03 0.  0.
         13    1    3    3    0    0 -0.27898542243E+03 -0.14747002813E+03 -0.60479346200E+03  0.68216963199E+03  0.00000000000E+00 0.  1.
          1    1    3    3  501    0  0.28094607276E+03  0.11028598102E+03 -0.28294445408E+03  0.41370431167E+03  0.00000000000E+00 0.  1.
         -3    1    1    2    0  502 -0.19606503298E+01  0.37184047119E+02  0.34107786213E+02  0.50495926472E+02  0.00000000000E+00 0. -1.
<mgrwt>
<rscale>  1 0.64254268E+03</rscale>
<asrwt>0</asrwt>
<pdfrwt beam="1">  1       21 0.22518441E-01 0.64254268E+03</pdfrwt>
<pdfrwt beam="2">0</pdfrwt>
<totfact> 0.17860248E+03</totfact>
</mgrwt>
</event>
<event>
 6    1  0.1439793E-004  0.6654477E+03  0.7818608E-02  0.9778217E-01
         21   -1    0    0  501  502  0.00000000000E+00  0.00000000000E+00  0.47055606045E+03  0.47055606045E+03  0.00000000000E+00 0. -1.
         13   -1    0    0    0    0 -0.00000000000E+00 -0.00000000000E+00 -0.10000000000E+04  0.10000000000E+04  0.00000000000E+00 0.  1.
    9000005    2    1    2  501    0  0.67349821454E+02 -0.39316176093E+02 -0.88459375015E+03  0.11069448008E+04  0.66086226183E+03 0.  0.
         13    1    3    3    0    0 -0.65117802290E+02  0.88031834914E+02 -0.91427610710E+03  0.92080982410E+03  0.00000000000E+00 0.  1.
          1    1    3    3  501    0  0.13246762374E+03 -0.12734801101E+03  0.29682356951E+02  0.18613497673E+03  0.00000000000E+00 0.  1.
         -3    1    1    2    0  502 -0.67349821454E+02  0.39316176093E+02  0.35514981060E+03  0.36361125962E+03  0.00000000000E+00 0. -1.
<mgrwt>
<rscale>  1 0.66544774E+03</rscale>
<asrwt>0</asrwt>
<pdfrwt beam="1">  1       21 0.72393238E-01 0.66544774E+03</pdfrwt>
<pdfrwt beam="2">0</pdfrwt>
<totfact> 0.15530309E+02</totfact>
</mgrwt>
</event>
<event>
 6    1  0.1439793E-004  0.6992784E+03  0.7818608E-02  0.9718467E-01
         21   -1    0    0  501  502  0.00000000000E+00  0.00000000000E+00  0.19038197603E+03  0.19038197603E+03  0.00000000000E+00 0.  1.
         13   -1    0    0    0    0 -0.00000000000E+00 -0.00000000000E+00 -0.10000000000E+04  0.10000000000E+04  0.00000000000E+00 0.  1.
    9000005    2    1    2  501    0  0.12691000578E+03 -0.11454312063E+03 -0.68446516136E+03  0.97851051720E+03  0.67805899382E+03 0.  0.
         13    1    3    3    0    0  0.29907382314E+03  0.64305869660E+02 -0.66198121432E+03  0.72924586024E+03  0.00000000000E+00 0.  1.
          3    1    3    3  501    0 -0.17216381736E+03 -0.17884899029E+03 -0.22483947044E+02  0.24926465696E+03  0.00000000000E+00 0.  1.
         -3    1    1    2    0  502 -0.12691000578E+03  0.11454312063E+03 -0.12515286260E+03  0.21187145883E+03  0.00000000000E+00 0. -1.
<mgrwt>
<rscale>  1 0.69927840E+03</rscale>
<asrwt>0</asrwt>
<pdfrwt beam="1">  1       21 0.29289534E-01 0.69927840E+03</pdfrwt>
<pdfrwt beam="2">0</pdfrwt>
<totfact> 0.10614912E+03</totfact>
</mgrwt>
</event>
<event>
 6    1  0.1439793E-004  0.6633645E+03  0.7818608E-02  0.9782020E-01
         21   -1    0    0  501  502  0.00000000000E+00  0.00000000000E+00  0.20731434776E+03  0.20731434776E+03  0.00000000000E+00 0. -1.
         13   -1    0    0    0    0 -0.00000000000E+00 -0.00000000000E+00 -0.10000000000E+04  0.10000000000E+04  0.00000000000E+00 0.  1.
    9000005    2    1    2  501    0 -0.11025008319E+03  0.77900830567E+02 -0.83445466954E+03  0.10660052148E+04  0.64948356581E+03 0.  0.
         13    1    3    3    0    0  0.23783839541E+03  0.69330063403E+02 -0.59190826102E+03  0.64166124200E+03  0.00000000000E+00 0.  1.
          1    1    3    3  501    0 -0.34808847860E+03  0.85707671642E+01 -0.24254640852E+03  0.42434397282E+03  0.00000000000E+00 0.  1.
         -1    1    1    2    0  502  0.11025008319E+03 -0.77900830567E+02  0.41769017294E+02  0.14130913294E+03  0.00000000000E+00 0. -1.
<mgrwt>
<rscale>  1 0.66336455E+03</rscale>
<asrwt>0</asrwt>
<pdfrwt beam="1">  1       21 0.31894514E-01 0.66336455E+03</pdfrwt>
<pdfrwt beam="2">0</pdfrwt>
<totfact> 0.89652935E+02</totfact>
</mgrwt>
</event>
<event>
 6    1  0.1439793E-004  0.6472711E+03  0.7818608E-02  0.9811913E-01
         21   -1    0    0  501  502  0.00000000000E+00  0.00000000000E+00  0.13046412958E+03  0.13046412958E+03  0.00000000000E+00 0.  1.
         13   -1    0    0    0    0 -0.00000000000E+00 -0.00000000000E+00 -0.10000000000E+04  0.10000000000E+04  0.00000000000E+00 0.  1.
    9000005    2    1    2  501    0 -0.15367802758E+02 -0.14901714430E+02 -0.89024508982E+03  0.11006798683E+04  0.64691701320E+03 0.  0.
         13    1    3    3    0    0 -0.24719051923E+03  0.60678096135E+02 -0.99654581719E+02  0.27334231251E+03  0.00000000000E+00 0.  1.
          1    1    3    3  501    0  0.23182271648E+03 -0.75579810565E+02 -0.79059050810E+03  0.82733755574E+03  0.00000000000E+00 0.  1.
         -3    1    1    2    0  502  0.15367802758E+02  0.14901714430E+02  0.20709219398E+02  0.29784261324E+02  0.00000000000E+00 0. -1.
<mgrwt>
<rscale>  1 0.64727108E+03</rscale>
<asrwt>0</asrwt>
<pdfrwt beam="1">  1       21 0.20071404E-01 0.64727108E+03</pdfrwt>
<pdfrwt beam="2">0</pdfrwt>
<totfact> 0.22292054E+03</totfact>
</mgrwt>
</event>
<event>
 6    1  0.1439793E-004  0.6603145E+03  0.7818608E-02  0.9787615E-01
         21   -1    0    0  501  502  0.00000000000E+00  0.00000000000E+00  0.20122176202E+03  0.20122176202E+03  0.00000000000E+00 0.  1.
         13   -1    0    0    0    0 -0.00000000000E+00 -0.00000000000E+00 -0.10000000000E+04  0.10000000000E+04  0.00000000000E+00 0.  1.
    9000005    2    1    2  501    0  0.19965148410E+01  0.11007875704E+03 -0.85282390741E+03  0.10785748982E+04  0.65107132876E+03 0.  0.
         13    1    3    3    0    0 -0.13664305590E+03  0.53920727179E+02  0.56233889933E+02  0.15729278407E+03  0.00000000000E+00 0.  1.
          3    1    3    3  501    0  0.13863957074E+03  0.56158029861E+02 -0.90905779734E+03  0.92128211412E+03  0.00000000000E+00 0.  1.
         -1    1    1    2    0  502 -0.19965148410E+01 -0.11007875704E+03  0.54045669430E+02  0.12264686383E+03  0.00000000000E+00 0. -1.
<mgrwt>
<rscale>  1 0.66031447E+03</rscale>
<asrwt>0</asrwt>
<pdfrwt beam="1">  1       21 0.30957193E-01 0.66031447E+03</pdfrwt>
<pdfrwt beam="2">0</pdfrwt>
<totfact> 0.95221119E+02</totfact>
</mgrwt>
</event>
<event>
 6    1  0.1439793E-004  0.6527012E+03  0.7818608E-02  0.9801724E-01
         21   -1    0    0  501  502  0.00000000000E+00  0.00000000000E+00  0.21503118801E+03  0.21503118801E+03  0.00000000000E+00 0. -1.
         13   -1    0    0    0    0 -0.00000000000E+00 -0.00000000000E+00 -0.10000000000E+04  0.10000000000E+04  0.00000000000E+00 0.  1.
    9000005    2    1    2  501    0 -0.79368599640E+02 -0.14863532100E+02 -0.87659383448E+03  0.10929023874E+04  0.64768709923E+03 0.  0.
         13    1    3    3    0    0 -0.29830076244E+03  0.77426293590E+02 -0.17998974620E+03  0.35689562136E+03  0.00000000000E+00 0.  1.
          1    1    3    3  501    0  0.21893216280E+03 -0.92289825690E+02 -0.69660408827E+03  0.73600676602E+03  0.00000000000E+00 0.  1.
         -3    1    1    2    0  502  0.79368599640E+02  0.14863532100E+02  0.91625022491E+02  0.12212880062E+03  0.00000000000E+00 0. -1.
<mgrwt>
<rscale>  1 0.65270122E+03</rscale>
<asrwt>0</asrwt>
<pdfrwt beam="1">  1       21 0.33081720E-01 0.65270122E+03</pdfrwt>
<pdfrwt beam="2">0</pdfrwt>
<totfact> 0.83328780E+02</totfact>
</mgrwt>
</event>
<event>
 6    1  0.1439793E-004  0.6601734E+03  0.7818608E-02  0.9787875E-01
         21   -1    0    0  501  502  0.00000000000E+00  0.00000000000E+00  0.14902343280E+03  0.14902343280E+03  0.00000000000E+00 0.  1.
         13   -1    0    0    0    0 -0.00000000000E+00 -0.00000000000E+00 -0.10000000000E+04  0.10000000000E+04  0.00000000000E+00 0.  1.
    9000005    2    1    2  501    0  0.68547229349E+02 -0.66803465668E+02 -0.80987308942E+03  0.10448556760E+04  0.65319793093E+03 0.  0.
         13    1    3    3    0    0  0.33830525523E+03  0.16099803805E+02 -0.61437467078E+03  0.70154535527E+03  0.00000000000E+00 0.  1.
          1    1    3    3  501    0 -0.26975802588E+03 -0.82903269472E+02 -0.19549841863E+03  0.34331032071E+03  0.00000000000E+00 0.  1.
         -1    1    1    2    0  502 -0.68547229349E+02  0.66803465668E+02 -0.41103477780E+02  0.10416775683E+03  0.00000000000E+00 0. -1.
<mgrwt>
<rscale>  1 0.66017343E+03</rscale>
<asrwt>0</asrwt>
<pdfrwt beam="1">  1       21 0.22926681E-01 0.66017343E+03</pdfrwt>
<pdfrwt beam="2">0</pdfrwt>
<totfact> 0.17233889E+03</totfact>
</mgrwt>
</event>
<event>
 6    1  0.1439793E-004  0.6496913E+03  0.7818608E-02  0.9807359E-01
         21   -1    0    0  501  502  0.00000000000E+00  0.00000000000E+00  0.13454452332E+03  0.13454452332E+03  0.00000000000E+00 0.  1.
         13   -1    0    0    0    0 -0.00000000000E+00 -0.00000000000E+00 -0.10000000000E+04  0.10000000000E+04  0.00000000000E+00 0.  1.
    9000005    2    1    2  501    0 -0.52731220424E+02  0.30018441494E+02 -0.85359771955E+03  0.10727198127E+04  0.64685163781E+03 0.  0.
         13    1    3    3    0    0 -0.26870835843E+03 -0.10838049067E+03 -0.15517175218E+03  0.32867732706E+03  0.00000000000E+00 0.  1.
          3    1    3    3  501    0  0.21597713801E+03  0.13839893216E+03 -0.69842596737E+03  0.74404248566E+03  0.00000000000E+00 0.  1.
         -3    1    1    2    0  502  0.52731220424E+02 -0.30018441494E+02 -0.11857757130E+02  0.61824710604E+02  0.00000000000E+00 0. -1.
<mgrwt>
<rscale>  1 0.64969126E+03</rscale>
<asrwt>0</asrwt>
<pdfrwt beam="1">  1       21 0.20699157E-01 0.64969126E+03</pdfrwt>
<pdfrwt beam="2">0</pdfrwt>
<totfact> 0.21009465E+03</totfact>
</mgrwt>
</event>
<event>
 6    1  0.1439793E-004  0.7175176E+03  0.7818608E-02  0.9687735E-01
         21   -1    0    0  501  502  0.00000000000E+00  0.00000000000E+00  0.11513558956E+04  0.11513558956E+04  0.00000000000E+00 0. -1.
         13   -1    0    0    0    0 -0.00000000000E+00 -0.00000000000E+00 -0.10000000000E+04  0.10000000000E+04  0.00000000000E+00 0.  1.
    9000005    2    1    2  501    0  0.84119004377E+02 -0.27561668833E+03 -0.84826440870E+03  0.11110283902E+04  0.65710806638E+03 0.  0.
         13    1    3    3    0    0  0.23377899386E+02 -0.98189766527E+02 -0.90847406147E+03  0.91406393474E+03  0.00000000000E+00 0.  1.
          1    1    3    3  501    0  0.60741104991E+02 -0.17742692180E+03  0.60209652766E+02  0.19696445543E+03  0.00000000000E+00 0.  1.
         -3    1    1    2    0  502 -0.84119004377E+02  0.27561668833E+03  0.99962030430E+03  0.10403275054E+04  0.00000000000E+00 0. -1.
<mgrwt>
<rscale>  1 0.71751765E+03</rscale>
<asrwt>0</asrwt>
<pdfrwt beam="1">  1       21 0.17713167E+00 0.71751765E+03</pdfrwt>
<pdfrwt beam="2">0</pdfrwt>
<totfact> 0.15613296E+01</totfact>
</mgrwt>
</event>
<event>
 6    1  0.1439793E-004  0.6637227E+03  0.7818608E-02  0.9781365E-01
         21   -1    0    0  501  502  0.00000000000E+00  0.00000000000E+00  0.16199585246E+03  0.16199585246E+03  0.00000000000E+00 0.  1.
         13   -1    0    0    0    0 -0.00000000000E+00 -0.00000000000E+00 -0.10000000000E+04  0.10000000000E+04  0.00000000000E+00 0.  1.
    9000005    2    1    2  501    0  0.51784626396E+02 -0.85229077320E+02 -0.82885183443E+03  0.10618489205E+04  0.65618756717E+03 0.  0.
         13    1    3    3    0    0  0.12842914294E+03 -0.32278442192E+03 -0.23988821485E+03  0.42217316756E+03  0.00000000000E+00 0.  1.
          3    1    3    3  501    0 -0.76644516541E+02  0.23755534460E+03 -0.58896361958E+03  0.63967575291E+03  0.00000000000E+00 0.  1.
         -3    1    1    2    0  502 -0.51784626396E+02  0.85229077320E+02 -0.91523131093E+01  0.10014693199E+03  0.00000000000E+00 0. -1.
<mgrwt>
<rscale>  1 0.66372266E+03</rscale>
<asrwt>0</asrwt>
<pdfrwt beam="1">  1       21 0.24922438E-01 0.66372266E+03</pdfrwt>
<pdfrwt beam="2">0</pdfrwt>
<totfact> 0.14640354E+03</totfact>
</mgrwt>
</event>
<event>
 6    1  0.1439793E-004  0.7377143E+03  0.7818608E-02  0.9654824E-01
         21   -1    0    0  501  502  0.00000000000E+00  0.00000000000E+00  0.44005228269E+03  0.44005228269E+03  0.00000000000E+00 0. -1.
         13   -1    0    0    0    0 -0.00000000000E+00 -0.00000000000E+00 -0.10000000000E+04  0.10000000000E+04  0.00000000000E+00 0.  1.
    9000005    2    1    2  501    0 -0.13027994713E+03  0.35122500313E+03 -0.72169053735E+03  0.10320172263E+04  0.63552376521E+03 0.  0.
         13    1    3    3    0    0 -0.32383165191E+03  0.31117337671E+03 -0.23532558371E+03  0.50702459457E+03  0.00000000000E+00 0.  1.
          1    1    3    3  501    0  0.19355170478E+03  0.40051626419E+02 -0.48636495363E+03  0.52499263169E+03  0.00000000000E+00 0.  1.
         -3    1    1    2    0  502  0.13027994713E+03 -0.35122500313E+03  0.16174282004E+03  0.40803505644E+03  0.00000000000E+00 0. -1.
<mgrwt>
<rscale>  1 0.73771426E+03</rscale>
<asrwt>0</asrwt>
<pdfrwt beam="1">  1       21 0.67700349E-01 0.73771426E+03</pdfrwt>
<pdfrwt beam="2">0</pdfrwt>
<totfact> 0.17943272E+02</totfact>
</mgrwt>
</event>
<event>
 6    1  0.1439793E-004  0.7284409E+03  0.7818608E-02  0.9669794E-01
         21   -1    0    0  501  502  0.00000000000E+00  0.00000000000E+00  0.51644779738E+03  0.51644779738E+03  0.00000000000E+00 0. -1.
         13   -1    0    0    0    0 -0.00000000000E+00 -0.00000000000E+00 -0.10000000000E+04  0.10000000000E+04  0.00000000000E+00 0.  1.
    9000005    2    1    2  501    0 -0.26784612231E+03  0.18915620124E+03 -0.78508781633E+03  0.10709757556E+04  0.65046489216E+03 0.  0.
         13    1    3    3    0    0 -0.42735858557E+03  0.24369494769E+03 -0.34826578851E+03  0.60275338874E+03  0.00000000000E+00 0.  1.
          1    1    3    3  501    0  0.15951246326E+03 -0.54538746444E+02 -0.43682202782E+03  0.46822236682E+03  0.00000000000E+00 0.  1.
         -3    1    1    2    0  502  0.26784612231E+03 -0.18915620124E+03  0.30153561371E+03  0.44547204182E+03  0.00000000000E+00 0. -1.
<mgrwt>
<rscale>  1 0.72844093E+03</rscale>
<asrwt>0</asrwt>
<pdfrwt beam="1">  1       21 0.79453505E-01 0.72844093E+03</pdfrwt>
<pdfrwt beam="2">0</pdfrwt>
<totfact> 0.12434619E+02</totfact>
</mgrwt>
</event>
<event>
 6    1  0.1439793E-004  0.6570055E+03  0.7818608E-02  0.9793722E-01
         21   -1    0    0  501  502  0.00000000000E+00  0.00000000000E+00  0.24389238989E+03  0.24389238989E+03  0.00000000000E+00 0. -1.
         13   -1    0    0    0    0 -0.00000000000E+00 -0.00000000000E+00 -0.10000000000E+04  0.10000000000E+04  0.00000000000E+00 0.  1.
    9000005    2    1    2  501    0  0.24111855915E+02  0.12774736809E+02 -0.89056743608E+03  0.11066917328E+04  0.65643861695E+03 0.  0.
         13    1    3    3    0    0  0.24995831988E+03  0.10292351845E+03 -0.11476744891E+03  0.29367325322E+03  0.00000000000E+00 0.  1.
          3    1    3    3  501    0 -0.22584646396E+03 -0.90148781639E+02 -0.77579998717E+03  0.81301847962E+03  0.00000000000E+00 0.  1.
         -3    1    1    2    0  502 -0.24111855915E+02 -0.12774736809E+02  0.13445982597E+03  0.13720065705E+03  0.00000000000E+00 0. -1.
<mgrwt>
<rscale>  1 0.65700550E+03</rscale>
<asrwt>0</asrwt>
<pdfrwt beam="1">  1       21 0.37521905E-01 0.65700550E+03</pdfrwt>
<pdfrwt beam="2">0</pdfrwt>
<totfact> 0.64419387E+02</totfact>
</mgrwt>
</event>
<event>
 6    1  0.1439793E-004  0.6495456E+03  0.7818608E-02  0.9807632E-01
         21   -1    0    0  501  502  0.00000000000E+00  0.00000000000E+00  0.74184626094E+03  0.74184626094E+03  0.00000000000E+00 0. -1.
         13   -1    0    0    0    0 -0.00000000000E+00 -0.00000000000E+00 -0.10000000000E+04  0.10000000000E+04  0.00000000000E+00 0.  1.
    9000005    2    1    2  501    0  0.34238382985E+02 -0.17366456649E+02 -0.89388243211E+03  0.11049594328E+04  0.64841012101E+03 0.  0.
         13    1    3    3    0    0 -0.93790749878E+02  0.28098778287E+03 -0.26610943391E+03  0.39820229746E+03  0.00000000000E+00 0.  1.
          3    1    3    3  501    0  0.12802913286E+03 -0.29835423952E+03 -0.62777299819E+03  0.70675713535E+03  0.00000000000E+00 0.  1.
         -3    1    1    2    0  502 -0.34238382985E+02  0.17366456649E+02  0.63572869305E+03  0.63688682813E+03  0.00000000000E+00 0. -1.
<mgrwt>
<rscale>  1 0.64954565E+03</rscale>
<asrwt>0</asrwt>
<pdfrwt beam="1">  1       21 0.11413019E+00 0.64954565E+03</pdfrwt>
<pdfrwt beam="2">0</pdfrwt>
<totfact> 0.52173450E+01</totfact>
</mgrwt>
</event>
<event>
 6    1  0.1439793E-004  0.6571086E+03  0.7818608E-02  0.9793531E-01
         21   -1    0    0  501  502  0.00000000000E+00  0.00000000000E+00  0.18396636186E+03  0.18396636186E+03  0.00000000000E+00 0.  1.
         13   -1    0    0    0    0 -0.00000000000E+00 -0.00000000000E+00 -0.10000000000E+04  0.10000000000E+04  0.00000000000E+00 0.  1.
    9000005    2    1    2  501    0  0.10573214442E+03  0.49927956240E+02 -0.83808444983E+03  0.10649775999E+04  0.64662172562E+03 0.  0.
         13    1    3    3    0    0  0.10313015429E+02 -0.24599301225E+03 -0.66501872241E+03  0.70913244287E+03  0.00000000000E+00 0.  1.
          3    1    3    3  501    0  0.95419128990E+02  0.29592096849E+03 -0.17306572742E+03  0.35584515703E+03  0.00000000000E+00 0.  1.
         -3    1    1    2    0  502 -0.10573214442E+03 -0.49927956240E+02  0.22050811686E+02  0.11898876196E+03  0.00000000000E+00 0. -1.
<mgrwt>
<rscale>  1 0.65710862E+03</rscale>
<asrwt>0</asrwt>
<pdfrwt beam="1">  1       21 0.28302516E-01 0.65710862E+03</pdfrwt>
<pdfrwt beam="2">0</pdfrwt>
<totfact> 0.11393787E+03</totfact>
</mgrwt>
</event>
<event>
 6    1  0.1439793E-004  0.6498380E+03  0.7818608E-02  0.9807083E-01
         21   -1    0    0  501  502  0.00000000000E+00  0.00000000000E+00  0.15749035283E+03  0.15749035283E+03  0.00000000000E+00 0.  1.
         13   -1    0    0    0    0 -0.00000000000E+00 -0.00000000000E+00 -0.10000000000E+04  0.10000000000E+04  0.00000000000E+00 0.  1.
    9000005    2    1    2  501    0  0.46055235510E+02  0.78591838613E+02 -0.84546646464E+03  0.10663503255E+04  0.64342187717E+03 0.  0.
         13    1    3    3    0    0 -0.28993931198E+03  0.10960958300E+03 -0.35873923932E+03  0.47410221171E+03  0.00000000000E+00 0.  1.
          3    1    3    3  501    0  0.33599454749E+03 -0.31017744385E+02 -0.48672722532E+03  0.59224811378E+03  0.00000000000E+00 0.  1.
         -1    1    1    2    0  502 -0.46055235510E+02 -0.78591838613E+02  0.29568174761E+01  0.91140027343E+02  0.00000000000E+00 0. -1.
<mgrwt>
<rscale>  1 0.64983804E+03</rscale>
<asrwt>0</asrwt>
<pdfrwt beam="1">  1       21 0.24229284E-01 0.64983804E+03</pdfrwt>
<pdfrwt beam="2">0</pdfrwt>
<totfact> 0.15482151E+03</totfact>
</mgrwt>
</event>
<event>
 6    1  0.1439793E-004  0.6549437E+03  0.7818608E-02  0.9797547E-01
         21   -1    0    0  501  502  0.00000000000E+00  0.00000000000E+00  0.14859894805E+03  0.14859894805E+03  0.00000000000E+00 0.  1.
         13   -1    0    0    0    0 -0.00000000000E+00 -0.00000000000E+00 -0.10000000000E+04  0.10000000000E+04  0.00000000000E+00 0.  1.
    9000005    2    1    2  501    0  0.13831079715E+02 -0.59449516493E+02 -0.86606320211E+03  0.10858253674E+04  0.65209333283E+03 0.  0.
         13    1    3    3    0    0 -0.93384730656E+02 -0.14616350332E+03 -0.92114878739E+03  0.93733642100E+03  0.00000000000E+00 0.  1.
          3    1    3    3  501    0  0.10721581037E+03  0.86713986828E+02  0.55085585281E+02  0.14848894643E+03  0.00000000000E+00 0.  1.
         -1    1    1    2    0  502 -0.13831079715E+02  0.59449516493E+02  0.14662150152E+02  0.62773580624E+02  0.00000000000E+00 0. -1.
<mgrwt>
<rscale>  1 0.65494371E+03</rscale>
<asrwt>0</asrwt>
<pdfrwt beam="1">  1       21 0.22861376E-01 0.65494371E+03</pdfrwt>
<pdfrwt beam="2">0</pdfrwt>
<totfact> 0.17333893E+03</totfact>
</mgrwt>
</event>
<event>
 6    1  0.1439793E-004  0.6600556E+03  0.7818608E-02  0.9788091E-01
         21   -1    0    0  501  502  0.00000000000E+00  0.00000000000E+00  0.14817005833E+03  0.14817005833E+03  0.00000000000E+00 0.  1.
         13   -1    0    0    0    0 -0.00000000000E+00 -0.00000000000E+00 -0.10000000000E+04  0.10000000000E+04  0.00000000000E+00 0.  1.
    9000005    2    1    2  501    0  0.28968967924E+02 -0.85216591377E+02 -0.82011437543E+03  0.10527397398E+04  0.65389013027E+03 0.  0.
         13    1    3    3    0    0 -0.99518633717E+02  0.23429543555E+03 -0.14026292183E+03  0.29064066615E+03  0.00000000000E+00 0.  1.
          1    1    3    3  501    0  0.12848760164E+03 -0.31951202693E+03 -0.67985145360E+03  0.76209907367E+03  0.00000000000E+00 0.  1.
         -1    1    1    2    0  502 -0.28968967924E+02  0.85216591377E+02 -0.31715566242E+02  0.95430318508E+02  0.00000000000E+00 0. -1.
<mgrwt>
<rscale>  1 0.66005558E+03</rscale>
<asrwt>0</asrwt>
<pdfrwt beam="1">  1       21 0.22795393E-01 0.66005558E+03</pdfrwt>
<pdfrwt beam="2">0</pdfrwt>
<totfact> 0.17427374E+03</totfact>
</mgrwt>
</event>
<event>
 6    1  0.1439793E-004  0.6580756E+03  0.7818608E-02  0.9791743E-01
         21   -1    0    0  501  502  0.00000000000E+00  0.00000000000E+00  0.14406186604E+03  0.14406186604E+03  0.00000000000E+00 0.  1.
         13   -1    0    0    0    0 -0.00000000000E+00 -0.00000000000E+00 -0.10000000000E+04  0.10000000000E+04  0.00000000000E+00 0.  1.
    9000005    2    1    2  501    0  0.36894744145E+02 -0.82913843167E+02 -0.80582496434E+03  0.10403928866E+04  0.65178796992E+03 0.  0.
         13    1    3    3    0    0  0.10321463636E+03  0.36585813164E+02 -0.87870744797E+03  0.88550469338E+03  0.00000000000E+00 0.  1.
          1    1    3    3  501    0 -0.66319892218E+02 -0.11949965633E+03  0.72882483635E+02  0.15488819318E+03  0.00000000000E+00 0.  1.
         -3    1    1    2    0  502 -0.36894744145E+02  0.82913843167E+02 -0.50113169626E+02  0.10366897947E+03  0.00000000000E+00 0. -1.
<mgrwt>
<rscale>  1 0.65807559E+03</rscale>
<asrwt>0</asrwt>
<pdfrwt beam="1">  1       21 0.22163363E-01 0.65807559E+03</pdfrwt>
<pdfrwt beam="2">0</pdfrwt>
<totfact> 0.18405960E+03</totfact>
</mgrwt>
</event>
<event>
 6    1  0.1439793E-004  0.6448467E+03  0.7818608E-02  0.9816497E-01
         21   -1    0    0  501  502  0.00000000000E+00  0.00000000000E+00  0.16920154978E+03  0.16920154978E+03  0.00000000000E+00 0. -1.
         13   -1    0    0    0    0 -0.00000000000E+00 -0.00000000000E+00 -0.10000000000E+04  0.10000000000E+04  0.00000000000E+00 0.  1.
    9000005    2    1    2  501    0  0.34158525266E+02 -0.81292496253E+01 -0.89078556158E+03  0.10996936864E+04  0.64389005083E+03 0.  0.
         13    1    3    3    0    0  0.25849779996E+03  0.14535045107E+03 -0.71998316029E+03  0.77866784787E+03  0.00000000000E+00 0.  1.
          3    1    3    3  501    0 -0.22433927469E+03 -0.15347970070E+03 -0.17080240129E+03  0.32102583849E+03  0.00000000000E+00 0.  1.
         -1    1    1    2    0  502 -0.34158525266E+02  0.81292496253E+01  0.59987111358E+02  0.69507863418E+02  0.00000000000E+00 0. -1.
<mgrwt>
<rscale>  1 0.64484672E+03</rscale>
<asrwt>0</asrwt>
<pdfrwt beam="1">  1       21 0.26031007E-01 0.64484672E+03</pdfrwt>
<pdfrwt beam="2">0</pdfrwt>
<totfact> 0.13454223E+03</totfact>
</mgrwt>
</event>
<event>
 6    1  0.1439793E-004  0.6599354E+03  0.7818608E-02  0.9788313E-01
         21   -1    0    0  501  502  0.00000000000E+00  0.00000000000E+00  0.36550262270E+03  0.36550262270E+03  0.00000000000E+00 0. -1.
         13   -1    0    0    0    0 -0.00000000000E+00 -0.00000000000E+00 -0.10000000000E+04  0.10000000000E+04  0.00000000000E+00 0.  1.
    9000005    2    1    2  501    0  0.22664185032E+02 -0.23266167215E+02 -0.88998104284E+03  0.11079625614E+04  0.65913564691E+03 0.  0.
         13    1    3    3    0    0 -0.31415608624E+03 -0.21680768741E+02 -0.51744696543E+03  0.60573547386E+03  0.00000000000E+00 0.  1.
          3    1    3    3  501    0  0.33682027127E+03 -0.15853984740E+01 -0.37253407741E+03  0.50222708754E+03  0.00000000000E+00 0.  1.
         -3    1    1    2    0  502 -0.22664185032E+02  0.23266167215E+02  0.25548366554E+03  0.25754006130E+03  0.00000000000E+00 0. -1.
<mgrwt>
<rscale>  1 0.65993544E+03</rscale>
<asrwt>0</asrwt>
<pdfrwt beam="1">  1       21 0.56231171E-01 0.65993544E+03</pdfrwt>
<pdfrwt beam="2">0</pdfrwt>
<totfact> 0.27329480E+02</totfact>
</mgrwt>
</event>
<event>
 6    1  0.1439793E-004  0.6610335E+03  0.7818608E-02  0.9786293E-01
         21   -1    0    0  501  502  0.00000000000E+00  0.00000000000E+00  0.16250590421E+03  0.16250590421E+03  0.00000000000E+00 0.  1.
         13   -1    0    0    0    0 -0.00000000000E+00 -0.00000000000E+00 -0.10000000000E+04  0.10000000000E+04  0.00000000000E+00 0.  1.
    9000005    2    1    2  501    0  0.26748704663E+02  0.37928400950E+02 -0.87928690120E+03  0.11000503569E+04  0.65940221139E+03 0.  0.
         13    1    3    3    0    0  0.20115612401E+03 -0.24828062320E+03 -0.35344219943E+03  0.47647501762E+03  0.00000000000E+00 0.  1.
          3    1    3    3  501    0 -0.17440741935E+03  0.28620902415E+03 -0.52584470178E+03  0.62357533932E+03  0.00000000000E+00 0.  1.
         -1    1    1    2    0  502 -0.26748704663E+02 -0.37928400950E+02  0.41792805413E+02  0.62455547264E+02  0.00000000000E+00 0. -1.
<mgrwt>
<rscale>  1 0.66103353E+03</rscale>
<asrwt>0</asrwt>
<pdfrwt beam="1">  1       21 0.25000908E-01 0.66103353E+03</pdfrwt>
<pdfrwt beam="2">0</pdfrwt>
<totfact> 0.14552394E+03</totfact>
</mgrwt>
</event>
<event>
 6    1  0.1439793E-004  0.6452706E+03  0.7818608E-02  0.9815694E-01
         21   -1    0    0  501  502  0.00000000000E+00  0.00000000000E+00  0.11778259550E+03  0.11778259550E+03  0.00000000000E+00 0.  1.
         13   -1    0    0    0    0 -0.00000000000E+00 -0.00000000000E+00 -0.10000000000E+04  0.10000000000E+04  0.00000000000E+00 0.  1.
    9000005    2    1    2  501    0  0.36954165023E+02  0.16516564420E+02 -0.81799192113E+03  0.10418660629E+04  0.64399976919E+03 0.  0.
         13    1    3    3    0    0  0.83506914491E+02  0.22123196054E+03 -0.79646093869E+03  0.83082309308E+03  0.00000000000E+00 0.  1.
          3    1    3    3  501    0 -0.46552749468E+02 -0.20471539612E+03 -0.21530982436E+02  0.21104296979E+03  0.00000000000E+00 0.  1.
         -3    1    1    2    0  502 -0.36954165023E+02 -0.16516564420E+02 -0.64225483369E+02  0.75916532631E+02  0.00000000000E+00 0. -1.
<mgrwt>
<rscale>  1 0.64527057E+03</rscale>
<asrwt>0</asrwt>
<pdfrwt beam="1">  1       21 0.18120399E-01 0.64527057E+03</pdfrwt>
<pdfrwt beam="2">0</pdfrwt>
<totfact> 0.27097844E+03</totfact>
</mgrwt>
</event>
<event>
 6    1  0.1439793E-004  0.7341496E+03  0.7818608E-02  0.9660551E-01
         21   -1    0    0  501  502  0.00000000000E+00  0.00000000000E+00  0.30902494037E+03  0.30902494037E+03  0.00000000000E+00 0. -1.
         13   -1    0    0    0    0 -0.00000000000E+00 -0.00000000000E+00 -0.10000000000E+04  0.10000000000E+04  0.00000000000E+00 0.  1.
    9000005    2    1    2  501    0  0.27014767497E+03 -0.18422009434E+03 -0.64801422534E+03  0.97923342633E+03  0.65731184193E+03 0.  0.
         13    1    3    3    0    0  0.40273952784E+03 -0.27397444140E+03 -0.24429543734E+03  0.54492328133E+03  0.00000000000E+00 0.  1.
          3    1    3    3  501    0 -0.13259185288E+03  0.89754347055E+02 -0.40371878800E+03  0.43431014500E+03  0.00000000000E+00 0.  1.
         -3    1    1    2    0  502 -0.27014767497E+03  0.18422009434E+03 -0.42960834288E+02  0.32979151404E+03  0.00000000000E+00 0. -1.
<mgrwt>
<rscale>  1 0.73414962E+03</rscale>
<asrwt>0</asrwt>
<pdfrwt beam="1">  1       21 0.47542297E-01 0.73414962E+03</pdfrwt>
<pdfrwt beam="2">0</pdfrwt>
<totfact> 0.38994854E+02</totfact>
</mgrwt>
</event>
<event>
 6    1  0.1439793E-004  0.6518725E+03  0.7818608E-02  0.9803272E-01
         21   -1    0    0  501  502  0.00000000000E+00  0.00000000000E+00  0.20533894971E+03  0.20533894971E+03  0.00000000000E+00 0. -1.
         13   -1    0    0    0    0 -0.00000000000E+00 -0.00000000000E+00 -0.10000000000E+04  0.10000000000E+04  0.00000000000E+00 0.  1.
    9000005    2    1    2  501    0  0.11214956473E+03 -0.13850527548E+02 -0.85663569733E+03  0.10764583117E+04  0.64200343992E+03 0.  0.
         13    1    3    3    0    0  0.65725457827E+02  0.22287210942E+03 -0.79389537240E+03  0.82720110933E+03  0.00000000000E+00 0.  1.
          3    1    3    3  501    0  0.46424106906E+02 -0.23672263696E+03 -0.62740324928E+02  0.24925720235E+03  0.00000000000E+00 0.  1.
         -1    1    1    2    0  502 -0.11214956473E+03  0.13850527548E+02  0.61974647035E+02  0.12888063803E+03  0.00000000000E+00 0. -1.
<mgrwt>
<rscale>  1 0.65187252E+03</rscale>
<asrwt>0</asrwt>
<pdfrwt beam="1">  1       21 0.31590607E-01 0.65187252E+03</pdfrwt>
<pdfrwt beam="2">0</pdfrwt>
<totfact> 0.91468831E+02</totfact>
</mgrwt>
</event>
<event>
 6    1  0.1439793E-004  0.6625460E+03  0.7818608E-02  0.9783518E-01
         21   -1    0    0  501  502  0.00000000000E+00  0.00000000000E+00  0.18229645966E+03  0.18229645966E+03  0.00000000000E+00 0.  1.
         13   -1    0    0    0    0 -0.00000000000E+00 -0.00000000000E+00 -0.10000000000E+04  0.10000000000E+04  0.00000000000E+00 0.  1.
    9000005    2    1    2  501    0 -0.10787200884E+02  0.50857319679E+02 -0.87976186422E+03  0.11013392720E+04  0.66050315949E+03 0.  0.
         13    1    3    3    0    0  0.18122749685E+03 -0.32025146548E+02 -0.87289821435E+03  0.89208761243E+03  0.00000000000E+00 0.  1.
          3    1    3    3  501    0 -0.19201469773E+03  0.82882466227E+02 -0.68636498673E+01  0.20925165960E+03  0.00000000000E+00 0.  1.
         -3    1    1    2    0  502  0.10787200884E+02 -0.50857319679E+02  0.62058323878E+02  0.80957187639E+02  0.00000000000E+00 0. -1.
<mgrwt>
<rscale>  1 0.66254604E+03</rscale>
<asrwt>0</asrwt>
<pdfrwt beam="1">  1       21 0.28045608E-01 0.66254604E+03</pdfrwt>
<pdfrwt beam="2">0</pdfrwt>
<totfact> 0.11598563E+03</totfact>
</mgrwt>
</event>
<event>
 6    1  0.1439793E-004  0.6570659E+03  0.7818608E-02  0.9793610E-01
         21   -1    0    0  501  502  0.00000000000E+00  0.00000000000E+00  0.22057564562E+03  0.22057564562E+03  0.00000000000E+00 0.  1.
         13   -1    0    0    0    0 -0.00000000000E+00 -0.00000000000E+00 -0.10000000000E+04  0.10000000000E+04  0.00000000000E+00 0.  1.
    9000005    2    1    2  501    0 -0.86743588975E+02  0.28509468101E+02 -0.87114140167E+03  0.10911567260E+04  0.65069072448E+03 0.  0.
         13    1    3    3    0    0  0.19943048115E+03  0.10857371067E+03 -0.71463068023E+02  0.23804986358E+03  0.00000000000E+00 0.  1.
          1    1    3    3  501    0 -0.28617407012E+03 -0.80064242571E+02 -0.79967833365E+03  0.85310686239E+03  0.00000000000E+00 0.  1.
         -1    1    1    2    0  502  0.86743588975E+02 -0.28509468101E+02  0.91717047287E+02  0.12941891965E+03  0.00000000000E+00 0. -1.
<mgrwt>
<rscale>  1 0.65706595E+03</rscale>
<asrwt>0</asrwt>
<pdfrwt beam="1">  1       21 0.33934714E-01 0.65706595E+03</pdfrwt>
<pdfrwt beam="2">0</pdfrwt>
<totfact> 0.79110943E+02</totfact>
</mgrwt>
</event>
<event>
 6    1  0.1439793E-004  0.6520321E+03  0.7818608E-02  0.9802974E-01
         21   -1    0    0  501  502  0.00000000000E+00  0.00000000000E+00  0.35660447073E+03  0.35660447073E+03  0.00000000000E+00 0. -1.
         13   -1    0    0    0    0 -0.00000000000E+00 -0.00000000000E+00 -0.10000000000E+04  0.10000000000E+04  0.00000000000E+00 0.  1.
    9000005    2    1    2  501    0 -0.41682014535E+02 -0.43304243101E+02 -0.88971444295E+03  0.11030583111E+04  0.64925588175E+03 0.  0.
         13    1    3    3    0    0 -0.29380505840E+03  0.13699713656E+03 -0.32598513058E+03  0.45973463338E+03  0.00000000000E+00 0.  1.
          3    1    3    3  501    0  0.25212304386E+03 -0.18030137967E+03 -0.56372931236E+03  0.64332367777E+03  0.00000000000E+00 0.  1.
         -1    1    1    2    0  502  0.41682014535E+02  0.43304243101E+02  0.24631891367E+03  0.25354615958E+03  0.00000000000E+00 0. -1.
<mgrwt>
<rscale>  1 0.65203209E+03</rscale>
<asrwt>0</asrwt>
<pdfrwt beam="1">  1       21 0.54862225E-01 0.65203209E+03</pdfrwt>
<pdfrwt beam="2">0</pdfrwt>
<totfact> 0.28860958E+02</totfact>
</mgrwt>
</event>
<event>
 6    1  0.1439793E-004  0.6451719E+03  0.7818608E-02  0.9815881E-01
         21   -1    0    0  501  502  0.00000000000E+00  0.00000000000E+00  0.18898421757E+03  0.18898421757E+03  0.00000000000E+00 0. -1.
         13   -1    0    0    0    0 -0.00000000000E+00 -0.00000000000E+00 -0.10000000000E+04  0.10000000000E+04  0.00000000000E+00 0.  1.
    9000005    2    1    2  501    0  0.26801457787E+02 -0.11680165476E+02 -0.89315091580E+03  0.11018009363E+04  0.64450911579E+03 0.  0.
         13    1    3    3    0    0  0.26862125114E+03 -0.18029331822E+03 -0.62275697220E+03  0.70177582145E+03  0.00000000000E+00 0.  1.
          1    1    3    3  501    0 -0.24181979336E+03  0.16861315274E+03 -0.27039394361E+03  0.40002511481E+03  0.00000000000E+00 0.  1.
         -3    1    1    2    0  502 -0.26801457787E+02  0.11680165476E+02  0.82135133376E+02  0.87183281308E+02  0.00000000000E+00 0. -1.
<mgrwt>
<rscale>  1 0.64517187E+03</rscale>
<asrwt>0</asrwt>
<pdfrwt beam="1">  1       21 0.29074494E-01 0.64517187E+03</pdfrwt>
<pdfrwt beam="2">0</pdfrwt>
<totfact> 0.10806919E+03</totfact>
</mgrwt>
</event>
<event>
 6    1  0.1439793E-004  0.6493368E+03  0.7818608E-02  0.9808024E-01
         21   -1    0    0  501  502  0.00000000000E+00  0.00000000000E+00  0.13438829186E+03  0.13438829186E+03  0.00000000000E+00 0.  1.
         13   -1    0    0    0    0 -0.00000000000E+00 -0.00000000000E+00 -0.10000000000E+04  0.10000000000E+04  0.00000000000E+00 0.  1.
    9000005    2    1    2  501    0  0.62287632314E+01  0.25600665303E+02 -0.88781454738E+03  0.10999331380E+04  0.64880200835E+03 0.  0.
         13    1    3    3    0    0  0.28668490548E+03 -0.15364328318E+02 -0.70871218383E+03  0.76465499222E+03  0.00000000000E+00 0.  1.
          1    1    3    3  501    0 -0.28045614225E+03  0.40964993621E+02 -0.17910236355E+03  0.33527814581E+03  0.00000000000E+00 0.  1.
         -1    1    1    2    0  502 -0.62287632314E+01 -0.25600665303E+02  0.22202839241E+02  0.34455153834E+02  0.00000000000E+00 0. -1.
<mgrwt>
<rscale>  1 0.64933677E+03</rscale>
<asrwt>0</asrwt>
<pdfrwt beam="1">  1       21 0.20675121E-01 0.64933677E+03</pdfrwt>
<pdfrwt beam="2">0</pdfrwt>
<totfact> 0.21056783E+03</totfact>
</mgrwt>
</event>
<event>
 6    1  0.1439793E-004  0.6203956E+03  0.7818608E-02  0.9863972E-01
         21   -1    0    0  501  502  0.00000000000E+00  0.00000000000E+00  0.12360654024E+03  0.12360654024E+03  0.00000000000E+00 0.  1.
         13   -1    0    0    0    0 -0.00000000000E+00 -0.00000000000E+00 -0.10000000000E+04  0.10000000000E+04  0.00000000000E+00 0.  1.
    9000005    2    1    2  501    0 -0.44441394059E+02 -0.14127892025E+02 -0.88014584902E+03  0.10768228330E+04  0.61864049597E+03 0.  0.
         13    1    3    3    0    0 -0.25639052373E+03  0.18098614354E+03 -0.58810874573E+03  0.66660631682E+03  0.00000000000E+00 0.  1.
          3    1    3    3  501    0  0.21194912967E+03 -0.19511403557E+03 -0.29203710329E+03  0.41021651617E+03  0.00000000000E+00 0.  1.
         -3    1    1    2    0  502  0.44441394059E+02  0.14127892025E+02  0.37523892607E+01  0.46783707251E+02  0.00000000000E+00 0. -1.
<mgrwt>
<rscale>  1 0.62039560E+03</rscale>
<asrwt>0</asrwt>
<pdfrwt beam="1">  1       21 0.19016390E-01 0.62039560E+03</pdfrwt>
<pdfrwt beam="2">0</pdfrwt>
<totfact> 0.24742866E+03</totfact>
</mgrwt>
</event>
<event>
 6    1  0.1439793E-004  0.6690063E+03  0.7818608E-02  0.9771755E-01
         21   -1    0    0  501  502  0.00000000000E+00  0.00000000000E+00  0.13829998927E+03  0.13829998927E+03  0.00000000000E+00 0.  1.
         13   -1    0    0    0    0 -0.00000000000E+00 -0.00000000000E+00 -0.10000000000E+04  0.10000000000E+04  0.00000000000E+00 0.  1.
    9000005    2    1    2  501    0  0.19838784084E+02  0.72417891113E+01 -0.88332309722E+03  0.11080745243E+04  0.66867289196E+03 0.  0.
         13    1    3    3    0    0  0.21573522329E+03  0.94852377989E+02 -0.41452974396E+02  0.23928436903E+03  0.00000000000E+00 0.  1.
          3    1    3    3  501    0 -0.19589643920E+03 -0.87610588878E+02 -0.84187012283E+03  0.86879015526E+03  0.00000000000E+00 0.  1.
         -1    1    1    2    0  502 -0.19838784084E+02 -0.72417891113E+01  0.21623086492E+02  0.30225464974E+02  0.00000000000E+00 0. -1.
<mgrwt>
<rscale>  1 0.66900632E+03</rscale>
<asrwt>0</asrwt>
<pdfrwt beam="1">  1       21 0.21276921E-01 0.66900632E+03</pdfrwt>
<pdfrwt beam="2">0</pdfrwt>
<totfact> 0.19908082E+03</totfact>
</mgrwt>
</event>
<event>
 6    1  0.1439793E-004  0.6513038E+03  0.7818608E-02  0.9804336E-01
         21   -1    0    0  501  502  0.00000000000E+00  0.00000000000E+00  0.15919631598E+03  0.15919631598E+03  0.00000000000E+00 0. -1.
         13   -1    0    0    0    0 -0.00000000000E+00 -0.00000000000E+00 -0.10000000000E+04  0.10000000000E+04  0.00000000000E+00 0.  1.
    9000005    2    1    2  501    0 -0.86354374502E+01 -0.34367959147E+02 -0.88733442453E+03  0.11007083924E+04  0.65033903210E+03 0.  0.
         13    1    3    3    0    0 -0.67293585725E+02 -0.14572772510E+03  0.39551494134E+02  0.16531581059E+03  0.00000000000E+00 0.  1.
          3    1    3    3  501    0  0.58658148275E+02  0.11135976595E+03 -0.92688591866E+03  0.93539258178E+03  0.00000000000E+00 0.  1.
         -3    1    1    2    0  502  0.86354374502E+01  0.34367959147E+02  0.46530740512E+02  0.58487923613E+02  0.00000000000E+00 0. -1.
<mgrwt>
<rscale>  1 0.65130376E+03</rscale>
<asrwt>0</asrwt>
<pdfrwt beam="1">  1       21 0.24491740E-01 0.65130376E+03</pdfrwt>
<pdfrwt beam="2">0</pdfrwt>
<totfact> 0.15158334E+03</totfact>
</mgrwt>
</event>
<event>
 6    1  0.1439793E-004  0.6484235E+03  0.7818608E-02  0.9809742E-01
         21   -1    0    0  501  502  0.00000000000E+00  0.00000000000E+00  0.14626055818E+03  0.14626055818E+03  0.00000000000E+00 0.  1.
         13   -1    0    0    0    0 -0.00000000000E+00 -0.00000000000E+00 -0.10000000000E+04  0.10000000000E+04  0.00000000000E+00 0.  1.
    9000005    2    1    2  501    0 -0.20549271984E+02 -0.20218002991E+02 -0.88922979165E+03  0.11005374223E+04  0.64778233634E+03 0.  0.
         13    1    3    3    0    0  0.24331901843E+03 -0.16594144852E+02 -0.77592100786E+03  0.81334674083E+03  0.00000000000E+00 0.  1.
          3    1    3    3  501    0 -0.26386829042E+03 -0.36238581395E+01 -0.11330878379E+03  0.28719068146E+03  0.00000000000E+00 0.  1.
         -3    1    1    2    0  502  0.20549271984E+02  0.20218002991E+02  0.35490349833E+02  0.45723135887E+02  0.00000000000E+00 0. -1.
<mgrwt>
<rscale>  1 0.64842347E+03</rscale>
<asrwt>0</asrwt>
<pdfrwt beam="1">  1       21 0.22501624E-01 0.64842347E+03</pdfrwt>
<pdfrwt beam="2">0</pdfrwt>
<totfact> 0.17881274E+03</totfact>
</mgrwt>
</event>
<event>
 6    1  0.1439793E-004  0.6842256E+03  0.7818608E-02  0.9744595E-01
         21   -1    0    0  501  502  0.00000000000E+00  0.00000000000E+00  0.50770125078E+03  0.50770125078E+03  0.00000000000E+00 0. -1.
         13   -1    0    0    0    0 -0.00000000000E+00 -0.00000000000E+00 -0.10000000000E+04  0.10000000000E+04  0.00000000000E+00 0.  1.
    9000005    2    1    2  501    0  0.63822295596E+02  0.21642183676E+03 -0.84605892158E+03  0.10881086431E+04  0.64595125484E+03 0.  0.
         13    1    3    3    0    0  0.70738657029E+02 -0.16579149381E+03 -0.24426289463E+02  0.18189947948E+03  0.00000000000E+00 0.  1.
          1    1    3    3  501    0 -0.69163614336E+01  0.38221333057E+03 -0.82163263212E+03  0.90620916365E+03  0.00000000000E+00 0.  1.
         -3    1    1    2    0  502 -0.63822295596E+02 -0.21642183676E+03  0.35376017236E+03  0.41959260764E+03  0.00000000000E+00 0. -1.
<mgrwt>
<rscale>  1 0.68422564E+03</rscale>
<asrwt>0</asrwt>
<pdfrwt beam="1">  1       21 0.78107882E-01 0.68422564E+03</pdfrwt>
<pdfrwt beam="2">0</pdfrwt>
<totfact> 0.13007059E+02</totfact>
</mgrwt>
</event>
<event>
 6    1  0.1439793E-004  0.6519522E+03  0.7818608E-02  0.9803123E-01
         21   -1    0    0  501  502  0.00000000000E+00  0.00000000000E+00  0.14242329494E+03  0.14242329494E+03  0.00000000000E+00 0.  1.
         13   -1    0    0    0    0 -0.00000000000E+00 -0.00000000000E+00 -0.10000000000E+04  0.10000000000E+04  0.00000000000E+00 0.  1.
    9000005    2    1    2  501    0  0.63176886812E+02 -0.25212528405E+02 -0.85386102173E+03  0.10742999001E+04  0.64839389294E+03 0.  0.
         13    1    3    3    0    0  0.15736952366E+03 -0.13974242430E+03 -0.28630135259E+01  0.21047876133E+03  0.00000000000E+00 0.  1.
          3    1    3    3  501    0 -0.94192636851E+02  0.11452989589E+03 -0.85099800821E+03  0.86382113881E+03  0.00000000000E+00 0.  1.
         -1    1    1    2    0  502 -0.63176886812E+02  0.25212528405E+02 -0.37156833273E+01  0.68123394795E+02  0.00000000000E+00 0. -1.
<mgrwt>
<rscale>  1 0.65195217E+03</rscale>
<asrwt>0</asrwt>
<pdfrwt beam="1">  1       21 0.21911276E-01 0.65195217E+03</pdfrwt>
<pdfrwt beam="2">0</pdfrwt>
<totfact> 0.18823210E+03</totfact>
</mgrwt>
</event>
<event>
 6    1  0.1439793E-004  0.6445293E+03  0.7818608E-02  0.9817099E-01
         21   -1    0    0  501  502  0.00000000000E+00  0.00000000000E+00  0.11525587430E+03  0.11525587430E+03  0.00000000000E+00 0.  1.
         13   -1    0    0    0    0 -0.00000000000E+00 -0.00000000000E+00 -0.10000000000E+04  0.10000000000E+04  0.00000000000E+00 0.  1.
    9000005    2    1    2  501    0  0.22760022746E+02 -0.13126989086E+02 -0.87600300212E+03  0.10875657367E+04  0.64399350577E+03 0.  0.
         13    1    3    3    0    0 -0.90230265343E+02 -0.24502582702E+03 -0.76207525144E+03  0.80556678528E+03  0.00000000000E+00 0.  1.
          3    1    3    3  501    0  0.11299028809E+03  0.23189883793E+03 -0.11392775068E+03  0.28199895144E+03  0.00000000000E+00 0.  1.
         -1    1    1    2    0  502 -0.22760022746E+02  0.13126989086E+02 -0.87411235833E+01  0.27690137583E+02  0.00000000000E+00 0. -1.
<mgrwt>
<rscale>  1 0.64452926E+03</rscale>
<asrwt>0</asrwt>
<pdfrwt beam="1">  1       21 0.17731672E-01 0.64452926E+03</pdfrwt>
<pdfrwt beam="2">0</pdfrwt>
<totfact> 0.28236271E+03</totfact>
</mgrwt>
</event>
<event>
 6    1  0.1439793E-004  0.6004658E+03  0.7818608E-02  0.9904440E-01
         21   -1    0    0  501  502  0.00000000000E+00  0.00000000000E+00  0.13546337983E+03  0.13546337983E+03  0.00000000000E+00 0. -1.
         13   -1    0    0    0    0 -0.00000000000E+00 -0.00000000000E+00 -0.10000000000E+04  0.10000000000E+04  0.00000000000E+00 0.  1.
    9000005    2    1    2  501    0 -0.25804169395E+02 -0.79221978240E+01 -0.90544173828E+03  0.10864547575E+04  0.59985880195E+03 0.  0.
         13    1    3    3    0    0  0.28624331092E+03 -0.14458027218E+02 -0.47485274230E+03  0.55464348411E+03  0.00000000000E+00 0.  1.
          3    1    3    3  501    0 -0.31204748031E+03  0.65358293939E+01 -0.43058899598E+03  0.53181127338E+03  0.00000000000E+00 0.  1.
         -1    1    1    2    0  502  0.25804169395E+02  0.79221978240E+01  0.40905118109E+02  0.49008622344E+02  0.00000000000E+00 0. -1.
<mgrwt>
<rscale>  1 0.60046582E+03</rscale>
<asrwt>0</asrwt>
<pdfrwt beam="1">  1       21 0.20840519E-01 0.60046582E+03</pdfrwt>
<pdfrwt beam="2">0</pdfrwt>
<totfact> 0.20780202E+03</totfact>
</mgrwt>
</event>
<event>
 6    1  0.1439793E-004  0.6834991E+03  0.7818608E-02  0.9745875E-01
         21   -1    0    0  501  502  0.00000000000E+00  0.00000000000E+00  0.24818459363E+03  0.24818459363E+03  0.00000000000E+00 0. -1.
         13   -1    0    0    0    0 -0.00000000000E+00 -0.00000000000E+00 -0.10000000000E+04  0.10000000000E+04  0.00000000000E+00 0.  1.
    9000005    2    1    2  501    0  0.31120007191E+02 -0.20003471105E+03 -0.78736297261E+03  0.10426463492E+04  0.65283123264E+03 0.  0.
         13    1    3    3    0    0 -0.12519478280E+03 -0.53439746646E+02 -0.81525313173E+03  0.82653929668E+03  0.00000000000E+00 0.  1.
          3    1    3    3  501    0  0.15631478999E+03 -0.14659496440E+03  0.27890159115E+02  0.21610705249E+03  0.00000000000E+00 0.  1.
         -3    1    1    2    0  502 -0.31120007191E+02  0.20003471105E+03  0.35547566239E+02  0.20553824446E+03  0.00000000000E+00 0. -1.
<mgrwt>
<rscale>  1 0.68349906E+03</rscale>
<asrwt>0</asrwt>
<pdfrwt beam="1">  1       21 0.38182244E-01 0.68349906E+03</pdfrwt>
<pdfrwt beam="2">0</pdfrwt>
<totfact> 0.62021180E+02</totfact>
</mgrwt>
</event>
<event>
 6    1  0.1439793E-004  0.6540731E+03  0.7818608E-02  0.9799166E-01
         21   -1    0    0  501  502  0.00000000000E+00  0.00000000000E+00  0.15637518415E+03  0.15637518415E+03  0.00000000000E+00 0.  1.
         13   -1    0    0    0    0 -0.00000000000E+00 -0.00000000000E+00 -0.10000000000E+04  0.10000000000E+04  0.00000000000E+00 0.  1.
    9000005    2    1    2  501    0 -0.54215022547E+02 -0.12104950158E+03 -0.65382684001E+03  0.92482492580E+03  0.64048368923E+03 0.  0.
         13    1    3    3    0    0  0.15707683433E+03 -0.12363847605E+03 -0.68287307503E+03  0.71153021105E+03  0.00000000000E+00 0.  1.
          1    1    3    3  501    0 -0.21129185688E+03  0.25889744701E+01  0.29046235021E+02  0.21329471475E+03  0.00000000000E+00 0.  1.
         -3    1    1    2    0  502  0.54215022547E+02  0.12104950158E+03 -0.18979797585E+03  0.23155025834E+03  0.00000000000E+00 0. -1.
<mgrwt>
<rscale>  1 0.65407309E+03</rscale>
<asrwt>0</asrwt>
<pdfrwt beam="1">  1       21 0.24057720E-01 0.65407309E+03</pdfrwt>
<pdfrwt beam="2">0</pdfrwt>
<totfact> 0.15695230E+03</totfact>
</mgrwt>
</event>
<event>
 6    1  0.1439793E-004  0.6577765E+03  0.7818608E-02  0.9792296E-01
         21   -1    0    0  501  502  0.00000000000E+00  0.00000000000E+00  0.29811644906E+03  0.29811644906E+03  0.00000000000E+00 0. -1.
         13   -1    0    0    0    0 -0.00000000000E+00 -0.00000000000E+00 -0.10000000000E+04  0.10000000000E+04  0.00000000000E+00 0.  1.
    9000005    2    1    2  501    0 -0.54969453031E+01 -0.46996455232E+02 -0.88856062166E+03  0.11055360452E+04  0.65607246984E+03 0.  0.
         13    1    3    3    0    0 -0.14618756357E+03  0.11710155433E+03  0.38252194932E+01  0.18734516293E+03  0.00000000000E+00 0.  1.
          3    1    3    3  501    0  0.14069061827E+03 -0.16409800956E+03 -0.89238584116E+03  0.91819088228E+03  0.00000000000E+00 0.  1.
         -1    1    1    2    0  502  0.54969453031E+01  0.46996455232E+02  0.18667707072E+03  0.19258040385E+03  0.00000000000E+00 0. -1.
<mgrwt>
<rscale>  1 0.65777653E+03</rscale>
<asrwt>0</asrwt>
<pdfrwt beam="1">  1       21 0.45864068E-01 0.65777653E+03</pdfrwt>
<pdfrwt beam="2">0</pdfrwt>
<totfact> 0.42364347E+02</totfact>
</mgrwt>
</event>
<event>
 6    1  0.1439793E-004  0.6276542E+03  0.7818608E-02  0.9849637E-01
         21   -1    0    0  501  502  0.00000000000E+00  0.00000000000E+00  0.18375253621E+03  0.18375253621E+03  0.00000000000E+00 0.  1.
         13   -1    0    0    0    0 -0.00000000000E+00 -0.00000000000E+00 -0.10000000000E+04  0.10000000000E+04  0.00000000000E+00 0.  1.
    9000005    2    1    2  501    0 -0.80816419499E+02  0.70799060120E+01 -0.87977066088E+03  0.10807155754E+04  0.62238920329E+03 0.  0.
         13    1    3    3    0    0 -0.28093674305E+03  0.20253414659E+03 -0.44822478985E+03  0.56643710717E+03  0.00000000000E+00 0.  1.
          3    1    3    3  501    0  0.20012032355E+03 -0.19545424058E+03 -0.43154587103E+03  0.51427846821E+03  0.00000000000E+00 0.  1.
         -1    1    1    2    0  502  0.80816419499E+02 -0.70799060120E+01  0.63523197093E+02  0.10303696084E+03  0.00000000000E+00 0. -1.
<mgrwt>
<rscale>  1 0.62765416E+03</rscale>
<asrwt>0</asrwt>
<pdfrwt beam="1">  1       21 0.28269620E-01 0.62765416E+03</pdfrwt>
<pdfrwt beam="2">0</pdfrwt>
<totfact> 0.11440390E+03</totfact>
</mgrwt>
</event>
<event>
 6    1  0.1439793E-004  0.8360929E+03  0.7818608E-02  0.9509195E-01
         21   -1    0    0  501  502  0.00000000000E+00  0.00000000000E+00  0.41069632262E+03  0.41069632262E+03  0.00000000000E+00 0. -1.
         13   -1    0    0    0    0 -0.00000000000E+00 -0.00000000000E+00 -0.10000000000E+04  0.10000000000E+04  0.00000000000E+00 0.  1.
    9000005    2    1    2  501    0 -0.33269155379E+03 -0.27622279429E+03 -0.48234225892E+03  0.96524885424E+03  0.71558968259E+03 0.  0.
         13    1    3    3    0    0 -0.46168386650E+03  0.44989421980E+02 -0.39247403867E+03  0.60762810312E+03  0.00000000000E+00 0.  1.
          1    1    3    3  501    0  0.12899231271E+03 -0.32121221627E+03 -0.89868220250E+02  0.35762075111E+03  0.00000000000E+00 0.  1.
         -1    1    1    2    0  502  0.33269155379E+03  0.27622279429E+03 -0.10696141846E+03  0.44544746838E+03  0.00000000000E+00 0. -1.
<mgrwt>
<rscale>  1 0.83609288E+03</rscale>
<asrwt>0</asrwt>
<pdfrwt beam="1">  1       21 0.63184048E-01 0.83609288E+03</pdfrwt>
<pdfrwt beam="2">0</pdfrwt>
<totfact> 0.20769177E+02</totfact>
</mgrwt>
</event>
<event>
 6    1  0.1439793E-004  0.6453363E+03  0.7818608E-02  0.9815570E-01
         21   -1    0    0  501  502  0.00000000000E+00  0.00000000000E+00  0.55270017508E+03  0.55270017508E+03  0.00000000000E+00 0. -1.
         13   -1    0    0    0    0 -0.00000000000E+00 -0.00000000000E+00 -0.10000000000E+04  0.10000000000E+04  0.00000000000E+00 0.  1.
    9000005    2    1    2  501    0 -0.31721920409E+02 -0.13770176598E+02 -0.89514922705E+03  0.11035176009E+04  0.64440907716E+03 0.  0.
         13    1    3    3    0    0 -0.17507010665E+03 -0.25646377389E+03 -0.24715481889E+03  0.39687367519E+03  0.00000000000E+00 0.  1.
          3    1    3    3  501    0  0.14334818624E+03  0.24269359730E+03 -0.64799440816E+03  0.70664392566E+03  0.00000000000E+00 0.  1.
         -3    1    1    2    0  502  0.31721920409E+02  0.13770176598E+02  0.44784940213E+03  0.44918257422E+03  0.00000000000E+00 0. -1.
<mgrwt>
<rscale>  1 0.64533631E+03</rscale>
<asrwt>0</asrwt>
<pdfrwt beam="1">  1       21 0.85030794E-01 0.64533631E+03</pdfrwt>
<pdfrwt beam="2">0</pdfrwt>
<totfact> 0.10716008E+02</totfact>
</mgrwt>
</event>
<event>
 6    1  0.1439793E-004  0.6513574E+03  0.7818608E-02  0.9804235E-01
         21   -1    0    0  501  502  0.00000000000E+00  0.00000000000E+00  0.13293987210E+03  0.13293987210E+03  0.00000000000E+00 0.  1.
         13   -1    0    0    0    0 -0.00000000000E+00 -0.00000000000E+00 -0.10000000000E+04  0.10000000000E+04  0.00000000000E+00 0.  1.
    9000005    2    1    2  501    0  0.11754018828E+02 -0.36636621127E+02 -0.87772937788E+03  0.10930120389E+04  0.65022000699E+03 0.  0.
         13    1    3    3    0    0  0.17872793634E+03  0.24295885641E+03 -0.27613715006E+03  0.40893080929E+03  0.00000000000E+00 0.  1.
          3    1    3    3  501    0 -0.16697391751E+03 -0.27959547754E+03 -0.60159222782E+03  0.68408122965E+03  0.00000000000E+00 0.  1.
         -1    1    1    2    0  502 -0.11754018828E+02  0.36636621127E+02  0.10669249985E+02  0.39927833167E+02  0.00000000000E+00 0. -1.
<mgrwt>
<rscale>  1 0.65135740E+03</rscale>
<asrwt>0</asrwt>
<pdfrwt beam="1">  1       21 0.20452287E-01 0.65135740E+03</pdfrwt>
<pdfrwt beam="2">0</pdfrwt>
<totfact> 0.21498328E+03</totfact>
</mgrwt>
</event>
<event>
 6    1  0.1439793E-004  0.6395219E+03  0.7818608E-02  0.9826642E-01
         21   -1    0    0  501  502  0.00000000000E+00  0.00000000000E+00  0.12358510371E+03  0.12358510371E+03  0.00000000000E+00 0.  1.
         13   -1    0    0    0    0 -0.00000000000E+00 -0.00000000000E+00 -0.10000000000E+04  0.10000000000E+04  0.00000000000E+00 0.  1.
    9000005    2    1    2  501    0  0.44799889633E+02  0.11718708059E+02 -0.86527010207E+03  0.10759556520E+04  0.63784312911E+03 0.  0.
         13    1    3    3    0    0  0.22505818255E+03 -0.23620400564E+03 -0.36798988451E+03  0.49179271336E+03  0.00000000000E+00 0.  1.
          3    1    3    3  501    0 -0.18025829291E+03  0.24792271370E+03 -0.49728021756E+03  0.58416293867E+03  0.00000000000E+00 0.  1.
         -3    1    1    2    0  502 -0.44799889633E+02 -0.11718708059E+02 -0.11144794216E+02  0.47629451685E+02  0.00000000000E+00 0. -1.
<mgrwt>
<rscale>  1 0.63952186E+03</rscale>
<asrwt>0</asrwt>
<pdfrwt beam="1">  1       21 0.19013092E-01 0.63952186E+03</pdfrwt>
<pdfrwt beam="2">0</pdfrwt>
<totfact> 0.24733321E+03</totfact>
</mgrwt>
</event>
<event>
 6    1  0.1439793E-004  0.6514940E+03  0.7818608E-02  0.9803980E-01
         21   -1    0    0  501  502  0.00000000000E+00  0.00000000000E+00  0.60440600884E+03  0.60440600884E+03  0.00000000000E+00 0. -1.
         13   -1    0    0    0    0 -0.00000000000E+00 -0.00000000000E+00 -0.10000000000E+04  0.10000000000E+04  0.00000000000E+00 0.  1.
    9000005    2    1    2  501    0 -0.15167017131E+02  0.26106168391E+02 -0.89338294312E+03  0.11057022780E+04  0.65079403358E+03 0.  0.
         13    1    3    3    0    0  0.26443996560E+02 -0.78799777042E+02  0.86137868969E+02  0.11970138799E+03  0.00000000000E+00 0.  1.
          1    1    3    3  501    0 -0.41611013691E+02  0.10490594543E+03 -0.97952081209E+03  0.98600089004E+03  0.00000000000E+00 0.  1.
         -3    1    1    2    0  502  0.15167017131E+02 -0.26106168391E+02  0.49778895195E+03  0.49870373081E+03  0.00000000000E+00 0. -1.
<mgrwt>
<rscale>  1 0.65149401E+03</rscale>
<asrwt>0</asrwt>
<pdfrwt beam="1">  1       21 0.92985537E-01 0.65149401E+03</pdfrwt>
<pdfrwt beam="2">0</pdfrwt>
<totfact> 0.86511415E+01</totfact>
</mgrwt>
</event>
<event>
 6    1  0.1439793E-004  0.6538247E+03  0.7818608E-02  0.9799629E-01
         21   -1    0    0  501  502  0.00000000000E+00  0.00000000000E+00  0.22541566976E+03  0.22541566976E+03  0.00000000000E+00 0.  1.
         13   -1    0    0    0    0 -0.00000000000E+00 -0.00000000000E+00 -0.10000000000E+04  0.10000000000E+04  0.00000000000E+00 0.  1.
    9000005    2    1    2  501    0 -0.34793172243E+02 -0.19359921414E+02 -0.88941509815E+03  0.11038777059E+04  0.65261121770E+03 0.  0.
         13    1    3    3    0    0  0.11185018192E+03 -0.20457947119E+03 -0.82740949224E+03  0.85963346322E+03  0.00000000000E+00 0.  1.
          3    1    3    3  501    0 -0.14664335416E+03  0.18521954978E+03 -0.62005605901E+02  0.24424424272E+03  0.00000000000E+00 0.  1.
         -3    1    1    2    0  502  0.34793172243E+02  0.19359921414E+02  0.11483076791E+03  0.12153796382E+03  0.00000000000E+00 0. -1.
<mgrwt>
<rscale>  1 0.65382473E+03</rscale>
<asrwt>0</asrwt>
<pdfrwt beam="1">  1       21 0.34679333E-01 0.65382473E+03</pdfrwt>
<pdfrwt beam="2">0</pdfrwt>
<totfact> 0.75711005E+02</totfact>
</mgrwt>
</event>
<event>
 6    1  0.1439793E-004  0.6681916E+03  0.7818608E-02  0.9773230E-01
         21   -1    0    0  501  502  0.00000000000E+00  0.00000000000E+00  0.12700666592E+03  0.12700666592E+03  0.00000000000E+00 0.  1.
         13   -1    0    0    0    0 -0.00000000000E+00 -0.00000000000E+00 -0.10000000000E+04  0.10000000000E+04  0.00000000000E+00 0.  1.
    9000005    2    1    2  501    0  0.43585697363E+02  0.22567060722E+01 -0.83229974066E+03  0.10673344422E+04  0.66676468673E+03 0.  0.
         13    1    3    3    0    0  0.35572472710E+03  0.72620666958E+01 -0.45676990430E+03  0.57899185189E+03  0.00000000000E+00 0.  1.
          3    1    3    3  501    0 -0.31213902973E+03 -0.50053606236E+01 -0.37552983636E+03  0.48834259031E+03  0.00000000000E+00 0.  1.
         -1    1    1    2    0  502 -0.43585697363E+02 -0.22567060722E+01 -0.40693593425E+02  0.59672223712E+02  0.00000000000E+00 0. -1.
<mgrwt>
<rscale>  1 0.66819155E+03</rscale>
<asrwt>0</asrwt>
<pdfrwt beam="1">  1       21 0.19539487E-01 0.66819155E+03</pdfrwt>
<pdfrwt beam="2">0</pdfrwt>
<totfact> 0.23450680E+03</totfact>
</mgrwt>
</event>
<event>
 6    1  0.1439793E-004  0.6754881E+03  0.7818608E-02  0.9760094E-01
         21   -1    0    0  501  502  0.00000000000E+00  0.00000000000E+00  0.23778961933E+03  0.23778961933E+03  0.00000000000E+00 0. -1.
         13   -1    0    0    0    0 -0.00000000000E+00 -0.00000000000E+00 -0.10000000000E+04  0.10000000000E+04  0.00000000000E+00 0.  1.
    9000005    2    1    2  501    0  0.29075165760E+02  0.14259025736E+03 -0.83586442709E+03  0.10746876104E+04  0.65962623716E+03 0.  0.
         13    1    3    3    0    0  0.32053888420E+03  0.17981518850E+03 -0.35391216848E+03  0.51022789153E+03  0.00000000000E+00 0.  1.
          1    1    3    3  501    0 -0.29146371844E+03 -0.37224931138E+02 -0.48195225861E+03  0.56445971889E+03  0.00000000000E+00 0.  1.
         -3    1    1    2    0  502 -0.29075165760E+02 -0.14259025736E+03  0.73654046424E+02  0.16310200892E+03  0.00000000000E+00 0. -1.
<mgrwt>
<rscale>  1 0.67548806E+03</rscale>
<asrwt>0</asrwt>
<pdfrwt beam="1">  1       21 0.36583017E-01 0.67548806E+03</pdfrwt>
<pdfrwt beam="2">0</pdfrwt>
<totfact> 0.67769375E+02</totfact>
</mgrwt>
</event>
<event>
 6    1  0.1439793E-004  0.6534038E+03  0.7818608E-02  0.9800413E-01
         21   -1    0    0  501  502  0.00000000000E+00  0.00000000000E+00  0.34609678394E+03  0.34609678394E+03  0.00000000000E+00 0. -1.
         13   -1    0    0    0    0 -0.00000000000E+00 -0.00000000000E+00 -0.10000000000E+04  0.10000000000E+04  0.00000000000E+00 0.  1.
    9000005    2    1    2  501    0  0.67399530783E+02  0.91452089362E+01 -0.88790406479E+03  0.11024110667E+04  0.64985398364E+03 0.  0.
         13    1    3    3    0    0  0.26550086112E+03  0.16070304644E+03 -0.76248857298E+03  0.82322840106E+03  0.00000000000E+00 0.  1.
          3    1    3    3  501    0 -0.19810133034E+03 -0.15155783750E+03 -0.12541549181E+03  0.27918266561E+03  0.00000000000E+00 0.  1.
         -3    1    1    2    0  502 -0.67399530783E+02 -0.91452089362E+01  0.23400084873E+03  0.24368571727E+03  0.00000000000E+00 0. -1.
<mgrwt>
<rscale>  1 0.65340380E+03</rscale>
<asrwt>0</asrwt>
<pdfrwt beam="1">  1       21 0.53245658E-01 0.65340380E+03</pdfrwt>
<pdfrwt beam="2">0</pdfrwt>
<totfact> 0.30791902E+02</totfact>
</mgrwt>
</event>
<event>
 6    1  0.1439793E-004  0.6422933E+03  0.7818608E-02  0.9821349E-01
         21   -1    0    0  501  502  0.00000000000E+00  0.00000000000E+00  0.11259905107E+03  0.11259905107E+03  0.00000000000E+00 0.  1.
         13   -1    0    0    0    0 -0.00000000000E+00 -0.00000000000E+00 -0.10000000000E+04  0.10000000000E+04  0.00000000000E+00 0.  1.
    9000005    2    1    2  501    0  0.21960495912E+02 -0.14807469138E+02 -0.86785279662E+03  0.10796801388E+04  0.64174699151E+03 0.  0.
         13    1    3    3    0    0  0.41291454129E+02  0.19739564003E+03 -0.16810125005E+02  0.20236749538E+03  0.00000000000E+00 0.  1.
          1    1    3    3  501    0 -0.19330958217E+02 -0.21220310916E+03 -0.85104267161E+03  0.87731264347E+03  0.00000000000E+00 0.  1.
         -3    1    1    2    0  502 -0.21960495912E+02  0.14807469138E+02 -0.19548152313E+02  0.32918912221E+02  0.00000000000E+00 0. -1.
<mgrwt>
<rscale>  1 0.64229333E+03</rscale>
<asrwt>0</asrwt>
<pdfrwt beam="1">  1       21 0.17322930E-01 0.64229333E+03</pdfrwt>
<pdfrwt beam="2">0</pdfrwt>
<totfact> 0.29512691E+03</totfact>
</mgrwt>
</event>
<event>
 6    1  0.1439793E-004  0.7065516E+03  0.7818608E-02  0.9706093E-01
         21   -1    0    0  501  502  0.00000000000E+00  0.00000000000E+00  0.60764571715E+03  0.60764571715E+03  0.00000000000E+00 0. -1.
         13   -1    0    0    0    0 -0.00000000000E+00 -0.00000000000E+00 -0.10000000000E+04  0.10000000000E+04  0.00000000000E+00 0.  1.
    9000005    2    1    2  501    0  0.89320590647E+02 -0.21697661636E+03 -0.84277867553E+03  0.10997686124E+04  0.66645186250E+03 0.  0.
         13    1    3    3    0    0 -0.97626621340E+02 -0.28231276753E+03 -0.76559565105E+02  0.30837124203E+03  0.00000000000E+00 0.  1.
          1    1    3    3  501    0  0.18694721199E+03  0.65336151165E+02 -0.76621911042E+03  0.79139737041E+03  0.00000000000E+00 0.  1.
         -1    1    1    2    0  502 -0.89320590647E+02  0.21697661636E+03  0.45042439268E+03  0.50787710470E+03  0.00000000000E+00 0. -1.
<mgrwt>
<rscale>  1 0.70655156E+03</rscale>
<asrwt>0</asrwt>
<pdfrwt beam="1">  1       21 0.93483954E-01 0.70655156E+03</pdfrwt>
<pdfrwt beam="2">0</pdfrwt>
<totfact> 0.84757694E+01</totfact>
</mgrwt>
</event>
<event>
 6    1  0.1439793E-004  0.6475072E+03  0.7818608E-02  0.9811468E-01
         21   -1    0    0  501  502  0.00000000000E+00  0.00000000000E+00  0.11419085979E+03  0.11419085979E+03  0.00000000000E+00 0.  1.
         13   -1    0    0    0    0 -0.00000000000E+00 -0.00000000000E+00 -0.10000000000E+04  0.10000000000E+04  0.00000000000E+00 0.  1.
    9000005    2    1    2  501    0 -0.61570612185E+01 -0.22102520954E+02 -0.87577179887E+03  0.10891473166E+04  0.64710061248E+03 0.  0.
         13    1    3    3    0    0  0.68127091682E+01  0.26100004106E+03 -0.13065491667E+03  0.29195571871E+03  0.00000000000E+00 0.  1.
          1    1    3    3  501    0 -0.12969770387E+02 -0.28310256201E+03 -0.74511688221E+03  0.79719159787E+03  0.00000000000E+00 0.  1.
         -3    1    1    2    0  502  0.61570612185E+01  0.22102520954E+02 -0.10037341336E+02  0.25043543209E+02  0.00000000000E+00 0. -1.
<mgrwt>
<rscale>  1 0.64750725E+03</rscale>
<asrwt>0</asrwt>
<pdfrwt beam="1">  1       21 0.17567824E-01 0.64750725E+03</pdfrwt>
<pdfrwt beam="2">0</pdfrwt>
<totfact> 0.28734374E+03</totfact>
</mgrwt>
</event>
<event>
 6    1  0.1439793E-004  0.6414699E+03  0.7818608E-02  0.9822918E-01
         21   -1    0    0  501  502  0.00000000000E+00  0.00000000000E+00  0.14101969705E+03  0.14101969705E+03  0.00000000000E+00 0.  1.
         13   -1    0    0    0    0 -0.00000000000E+00 -0.00000000000E+00 -0.10000000000E+04  0.10000000000E+04  0.00000000000E+00 0.  1.
    9000005    2    1    2  501    0 -0.42857045042E+02  0.65104502858E+02 -0.84648038344E+03  0.10620793994E+04  0.63671680402E+03 0.  0.
         13    1    3    3    0    0 -0.30598597454E+02 -0.28361756679E+03 -0.30237959472E+03  0.41570255912E+03  0.00000000000E+00 0.  1.
          3    1    3    3  501    0 -0.12258447588E+02  0.34872206964E+03 -0.54410078872E+03  0.64637684031E+03  0.00000000000E+00 0.  1.
         -1    1    1    2    0  502  0.42857045042E+02 -0.65104502858E+02 -0.12499919504E+02  0.78940297629E+02  0.00000000000E+00 0. -1.
<mgrwt>
<rscale>  1 0.64146988E+03</rscale>
<asrwt>0</asrwt>
<pdfrwt beam="1">  1       21 0.21695337E-01 0.64146988E+03</pdfrwt>
<pdfrwt beam="2">0</pdfrwt>
<totfact> 0.19196024E+03</totfact>
</mgrwt>
</event>
<event>
 6    1  0.1439793E-004  0.6054871E+03  0.7818608E-02  0.9894087E-01
         21   -1    0    0  501  502  0.00000000000E+00  0.00000000000E+00  0.17879188693E+03  0.17879188693E+03  0.00000000000E+00 0. -1.
         13   -1    0    0    0    0 -0.00000000000E+00 -0.00000000000E+00 -0.10000000000E+04  0.10000000000E+04  0.00000000000E+00 0.  1.
    9000005    2    1    2  501    0  0.91649017294E+00  0.35792885755E+02 -0.90431430199E+03  0.10883009522E+04  0.60442752687E+03 0.  0.
         13    1    3    3    0    0  0.60723208580E+02 -0.14371570879E+03 -0.88438901407E+03  0.89804534475E+03  0.00000000000E+00 0.  1.
          3    1    3    3  501    0 -0.59806718407E+02  0.17950859455E+03 -0.19925287919E+02  0.19025560749E+03  0.00000000000E+00 0.  1.
         -3    1    1    2    0  502 -0.91649017294E+00 -0.35792885755E+02  0.83106188913E+02  0.90490934687E+02  0.00000000000E+00 0. -1.
<mgrwt>
<rscale>  1 0.60548708E+03</rscale>
<asrwt>0</asrwt>
<pdfrwt beam="1">  1       21 0.27506443E-01 0.60548708E+03</pdfrwt>
<pdfrwt beam="2">0</pdfrwt>
<totfact> 0.12095012E+03</totfact>
</mgrwt>
</event>
<event>
 6    1  0.1439793E-004  0.6447008E+03  0.7818608E-02  0.9816774E-01
         21   -1    0    0  501  502  0.00000000000E+00  0.00000000000E+00  0.14720887501E+03  0.14720887501E+03  0.00000000000E+00 0. -1.
         13   -1    0    0    0    0 -0.00000000000E+00 -0.00000000000E+00 -0.10000000000E+04  0.10000000000E+04  0.00000000000E+00 0.  1.
    9000005    2    1    2  501    0  0.24054793504E+02  0.23892855036E+01 -0.89233382041E+03  0.11008627151E+04  0.64424741265E+03 0.  0.
         13    1    3    3    0    0  0.66700332780E+02 -0.17320947249E+03  0.48403536349E+01  0.18567144308E+03  0.00000000000E+00 0.  1.
          3    1    3    3  501    0 -0.42645539276E+02  0.17559875799E+03 -0.89717417405E+03  0.91519127203E+03  0.00000000000E+00 0.  1.
         -1    1    1    2    0  502 -0.24054793504E+02 -0.23892855036E+01  0.39542695418E+02  0.46346159891E+02  0.00000000000E+00 0. -1.
<mgrwt>
<rscale>  1 0.64470076E+03</rscale>
<asrwt>0</asrwt>
<pdfrwt beam="1">  1       21 0.22647519E-01 0.64470076E+03</pdfrwt>
<pdfrwt beam="2">0</pdfrwt>
<totfact> 0.17661542E+03</totfact>
</mgrwt>
</event>
<event>
 6    1  0.1439793E-004  0.5748775E+03  0.7818608E-02  0.9958943E-01
         21   -1    0    0  501  502  0.00000000000E+00  0.00000000000E+00  0.48338926132E+03  0.48338926132E+03  0.00000000000E+00 0. -1.
         13   -1    0    0    0    0 -0.00000000000E+00 -0.00000000000E+00 -0.10000000000E+04  0.10000000000E+04  0.00000000000E+00 0.  1.
    9000005    2    1    2  501    0  0.32380233268E+02 -0.68044749763E+01 -0.91663946933E+03  0.10819944859E+04  0.57392453372E+03 0.  0.
         13    1    3    3    0    0 -0.83824830545E+02 -0.91842845510E+02  0.27157097277E+02  0.12727615024E+03  0.00000000000E+00 0.  1.
          1    1    3    3  501    0  0.11620506381E+03  0.85038370534E+02 -0.94379656661E+03  0.95471833567E+03  0.00000000000E+00 0.  1.
         -1    1    1    2    0  502 -0.32380233268E+02  0.68044749763E+01  0.40002873065E+03  0.40139477542E+03  0.00000000000E+00 0. -1.
<mgrwt>
<rscale>  1 0.57487751E+03</rscale>
<asrwt>0</asrwt>
<pdfrwt beam="1">  1       21 0.74367577E-01 0.57487751E+03</pdfrwt>
<pdfrwt beam="2">0</pdfrwt>
<totfact> 0.14775666E+02</totfact>
</mgrwt>
</event>
<event>
 6    1  0.1439793E-004  0.7485555E+03  0.7818608E-02  0.9637619E-01
         21   -1    0    0  501  502  0.00000000000E+00  0.00000000000E+00  0.33738913580E+03  0.33738913580E+03  0.00000000000E+00 0. -1.
         13   -1    0    0    0    0 -0.00000000000E+00 -0.00000000000E+00 -0.10000000000E+04  0.10000000000E+04  0.00000000000E+00 0.  1.
    9000005    2    1    2  501    0 -0.80520995637E+02  0.34999759676E+03 -0.62705952746E+03  0.97649324219E+03  0.65677503957E+03 0.  0.
         13    1    3    3    0    0 -0.12795341248E+03  0.47801737516E+03 -0.20983056868E+03  0.53749563187E+03  0.00000000000E+00 0.  1.
          3    1    3    3  501    0  0.47432416846E+02 -0.12801977840E+03 -0.41722895878E+03  0.43899761033E+03  0.00000000000E+00 0.  1.
         -3    1    1    2    0  502  0.80520995637E+02 -0.34999759676E+03 -0.35551336740E+02  0.36089589361E+03  0.00000000000E+00 0. -1.
<mgrwt>
<rscale>  1 0.74855554E+03</rscale>
<asrwt>0</asrwt>
<pdfrwt beam="1">  1       21 0.51906019E-01 0.74855554E+03</pdfrwt>
<pdfrwt beam="2">0</pdfrwt>
<totfact> 0.32254153E+02</totfact>
</mgrwt>
</event>
<event>
 6    1  0.1439793E-004  0.6516300E+03  0.7818608E-02  0.9803725E-01
         21   -1    0    0  501  502  0.00000000000E+00  0.00000000000E+00  0.33596664322E+03  0.33596664322E+03  0.00000000000E+00 0. -1.
         13   -1    0    0    0    0 -0.00000000000E+00 -0.00000000000E+00 -0.10000000000E+04  0.10000000000E+04  0.00000000000E+00 0.  1.
    9000005    2    1    2  501    0 -0.23963861111E+02 -0.90251497753E+01 -0.89305521077E+03  0.11055176693E+04  0.65112670635E+03 0.  0.
         13    1    3    3    0    0 -0.23291108650E+03  0.11966854936E+03 -0.80217194291E+03  0.84382934407E+03  0.00000000000E+00 0.  1.
          3    1    3    3  501    0  0.20894722539E+03 -0.12869369913E+03 -0.90883267863E+02  0.26168832525E+03  0.00000000000E+00 0.  1.
         -3    1    1    2    0  502  0.23963861111E+02  0.90251497753E+01  0.22902185399E+03  0.23044897390E+03  0.00000000000E+00 0. -1.
<mgrwt>
<rscale>  1 0.65163004E+03</rscale>
<asrwt>0</asrwt>
<pdfrwt beam="1">  1       21 0.51687174E-01 0.65163004E+03</pdfrwt>
<pdfrwt beam="2">0</pdfrwt>
<totfact> 0.32838049E+02</totfact>
</mgrwt>
</event>
<event>
 6    1  0.1439793E-004  0.8052304E+03  0.7818608E-02  0.9552477E-01
         21   -1    0    0  501  502  0.00000000000E+00  0.00000000000E+00  0.92677300291E+03  0.92677300291E+03  0.00000000000E+00 0. -1.
         13   -1    0    0    0    0 -0.00000000000E+00 -0.00000000000E+00 -0.10000000000E+04  0.10000000000E+04  0.00000000000E+00 0.  1.
    9000005    2    1    2  501    0  0.12626331798E+03  0.46463594906E+03 -0.74718642667E+03  0.10984914666E+04  0.64541998374E+03 0.  0.
         13    1    3    3    0    0  0.16409124758E+03  0.30098396144E+02  0.63019839897E+02  0.17833494106E+03  0.00000000000E+00 0.  1.
          1    1    3    3  501    0 -0.37827929592E+02  0.43453755292E+03 -0.81020626657E+03  0.92015652557E+03  0.00000000000E+00 0.  1.
         -3    1    1    2    0  502 -0.12626331798E+03 -0.46463594906E+03  0.67395942958E+03  0.82828153629E+03  0.00000000000E+00 0. -1.
<mgrwt>
<rscale>  1 0.80523037E+03</rscale>
<asrwt>0</asrwt>
<pdfrwt beam="1">  1       21 0.14258046E+00 0.80523037E+03</pdfrwt>
<pdfrwt beam="2">0</pdfrwt>
<totfact> 0.28417418E+01</totfact>
</mgrwt>
</event>
<event>
 6    1  0.1439793E-004  0.6503863E+03  0.7818608E-02  0.9806055E-01
         21   -1    0    0  501  502  0.00000000000E+00  0.00000000000E+00  0.11706098642E+03  0.11706098642E+03  0.00000000000E+00 0.  1.
         13   -1    0    0    0    0 -0.00000000000E+00 -0.00000000000E+00 -0.10000000000E+04  0.10000000000E+04  0.00000000000E+00 0.  1.
    9000005    2    1    2  501    0  0.29766392545E+02  0.62685841213E+01 -0.86321630891E+03  0.10808074576E+04  0.64967455790E+03 0.  0.
         13    1    3    3    0    0 -0.19214011332E+03 -0.13556373838E+03 -0.76401363616E+03  0.79938237818E+03  0.00000000000E+00 0.  1.
          3    1    3    3  501    0  0.22190650587E+03  0.14183232250E+03 -0.99202672754E+02  0.28142507943E+03  0.00000000000E+00 0.  1.
         -3    1    1    2    0  502 -0.29766392545E+02 -0.62685841213E+01 -0.19722704662E+02  0.36253528810E+02  0.00000000000E+00 0. -1.
<mgrwt>
<rscale>  1 0.65038632E+03</rscale>
<asrwt>0</asrwt>
<pdfrwt beam="1">  1       21 0.18009382E-01 0.65038632E+03</pdfrwt>
<pdfrwt beam="2">0</pdfrwt>
<totfact> 0.27411062E+03</totfact>
</mgrwt>
</event>
<event>
 6    1  0.1439793E-004  0.6570131E+03  0.7818608E-02  0.9793708E-01
         21   -1    0    0  501  502  0.00000000000E+00  0.00000000000E+00  0.15618054113E+03  0.15618054113E+03  0.00000000000E+00 0.  1.
         13   -1    0    0    0    0 -0.00000000000E+00 -0.00000000000E+00 -0.10000000000E+04  0.10000000000E+04  0.00000000000E+00 0.  1.
    9000005    2    1    2  501    0 -0.34914629459E+01 -0.34229434062E+02 -0.88518895299E+03  0.11023727395E+04  0.65611152245E+03 0.  0.
         13    1    3    3    0    0 -0.85451214468E+02 -0.26862857641E+03 -0.13576687513E+03  0.31288315152E+03  0.00000000000E+00 0.  1.
          3    1    3    3  501    0  0.81959751522E+02  0.23439914235E+03 -0.74942207786E+03  0.78948958801E+03  0.00000000000E+00 0.  1.
         -1    1    1    2    0  502  0.34914629459E+01  0.34229434062E+02  0.41369494120E+02  0.53807801604E+02  0.00000000000E+00 0. -1.
<mgrwt>
<rscale>  1 0.65701307E+03</rscale>
<asrwt>0</asrwt>
<pdfrwt beam="1">  1       21 0.24027775E-01 0.65701307E+03</pdfrwt>
<pdfrwt beam="2">0</pdfrwt>
<totfact> 0.15731163E+03</totfact>
</mgrwt>
</event>
<event>
 6    1  0.1439793E-004  0.6571243E+03  0.7818608E-02  0.9793502E-01
         21   -1    0    0  501  502  0.00000000000E+00  0.00000000000E+00  0.26980953540E+03  0.26980953540E+03  0.00000000000E+00 0.  1.
         13   -1    0    0    0    0 -0.00000000000E+00 -0.00000000000E+00 -0.10000000000E+04  0.10000000000E+04  0.00000000000E+00 0.  1.
    9000005    2    1    2  501    0  0.13792890810E+02  0.25453675212E+02 -0.89061116600E+03  0.11067974657E+04  0.65648628908E+03 0.  0.
         13    1    3    3    0    0  0.13382203045E+03  0.31293897052E+03 -0.53433502400E+03  0.63352431127E+03  0.00000000000E+00 0.  1.
          3    1    3    3  501    0 -0.12002913964E+03 -0.28748529531E+03 -0.35627614200E+03  0.47327315447E+03  0.00000000000E+00 0.  1.
         -1    1    1    2    0  502 -0.13792890810E+02 -0.25453675212E+02  0.16042070140E+03  0.16301206967E+03  0.00000000000E+00 0. -1.
<mgrwt>
<rscale>  1 0.65712433E+03</rscale>
<asrwt>0</asrwt>
<pdfrwt beam="1">  1       21 0.41509158E-01 0.65712433E+03</pdfrwt>
<pdfrwt beam="2">0</pdfrwt>
<totfact> 0.52253928E+02</totfact>
</mgrwt>
</event>
<event>
 6    1  0.1439793E-004  0.6422047E+03  0.7818608E-02  0.9821517E-01
         21   -1    0    0  501  502  0.00000000000E+00  0.00000000000E+00  0.11388313931E+03  0.11388313931E+03  0.00000000000E+00 0.  1.
         13   -1    0    0    0    0 -0.00000000000E+00 -0.00000000000E+00 -0.10000000000E+04  0.10000000000E+04  0.00000000000E+00 0.  1.
    9000005    2    1    2  501    0 -0.25801110136E+02  0.63032770182E+01 -0.87429090802E+03  0.10848094099E+04  0.64165523092E+03 0.  0.
         13    1    3    3    0    0 -0.94785633478E+02 -0.20845910957E+03 -0.55652312360E+02  0.23566225100E+03  0.00000000000E+00 0.  1.
          3    1    3    3  501    0  0.68984523342E+02  0.21476238659E+03 -0.81863859566E+03  0.84914715889E+03  0.00000000000E+00 0.  1.
         -1    1    1    2    0  502  0.25801110136E+02 -0.63032770182E+01 -0.11825952677E+02  0.29073729416E+02  0.00000000000E+00 0. -1.
<mgrwt>
<rscale>  1 0.64220469E+03</rscale>
<asrwt>0</asrwt>
<pdfrwt beam="1">  1       21 0.17520482E-01 0.64220469E+03</pdfrwt>
<pdfrwt beam="2">0</pdfrwt>
<totfact> 0.28886442E+03</totfact>
</mgrwt>
</event>
<event>
 6    1  0.1439793E-004  0.6466805E+03  0.7818608E-02  0.9813028E-01
         21   -1    0    0  501  502  0.00000000000E+00  0.00000000000E+00  0.25528750891E+03  0.25528750891E+03  0.00000000000E+00 0. -1.
         13   -1    0    0    0    0 -0.00000000000E+00 -0.00000000000E+00 -0.10000000000E+04  0.10000000000E+04  0.00000000000E+00 0.  1.
    9000005    2    1    2  501    0  0.22521523436E+02 -0.58261899833E+01 -0.89445902452E+03  0.11037448160E+04  0.64626195056E+03 0.  0.
         13    1    3    3    0    0 -0.11369423773E+03 -0.52715554237E+01 -0.94988779146E+03  0.95668228025E+03  0.00000000000E+00 0.  1.
          1    1    3    3  501    0  0.13621576117E+03 -0.55463455954E+00  0.55428766939E+02  0.14706253572E+03  0.00000000000E+00 0.  1.
         -1    1    1    2    0  502 -0.22521523436E+02  0.58261899833E+01  0.14974653343E+03  0.15154269293E+03  0.00000000000E+00 0. -1.
<mgrwt>
<rscale>  1 0.64668050E+03</rscale>
<asrwt>0</asrwt>
<pdfrwt beam="1">  1       21 0.39275000E-01 0.64668050E+03</pdfrwt>
<pdfrwt beam="2">0</pdfrwt>
<totfact> 0.58674460E+02</totfact>
</mgrwt>
</event>
<event>
 6    1  0.1439793E-004  0.6398938E+03  0.7818608E-02  0.9825930E-01
         21   -1    0    0  501  502  0.00000000000E+00  0.00000000000E+00  0.16858625197E+03  0.16858625197E+03  0.00000000000E+00 0.  1.
         13   -1    0    0    0    0 -0.00000000000E+00 -0.00000000000E+00 -0.10000000000E+04  0.10000000000E+04  0.00000000000E+00 0.  1.
    9000005    2    1    2  501    0 -0.22586816853E+02 -0.26449863880E+02 -0.89256088312E+03  0.10982390294E+04  0.63894778817E+03 0.  0.
         13    1    3    3    0    0  0.17103427793E+03  0.24077701621E+03 -0.30638149791E+03  0.42555366057E+03  0.00000000000E+00 0.  1.
          3    1    3    3  501    0 -0.19362109478E+03 -0.26722688009E+03 -0.58617938521E+03  0.67268536882E+03  0.00000000000E+00 0.  1.
         -1    1    1    2    0  502  0.22586816853E+02  0.26449863880E+02  0.61147135094E+02  0.70347222582E+02  0.00000000000E+00 0. -1.
<mgrwt>
<rscale>  1 0.63989377E+03</rscale>
<asrwt>0</asrwt>
<pdfrwt beam="1">  1       21 0.25936346E-01 0.63989377E+03</pdfrwt>
<pdfrwt beam="2">0</pdfrwt>
<totfact> 0.13554709E+03</totfact>
</mgrwt>
</event>
<event>
 6    1  0.1439793E-004  0.7033834E+03  0.7818608E-02  0.9711464E-01
         21   -1    0    0  501  502  0.00000000000E+00  0.00000000000E+00  0.17062867293E+03  0.17062867293E+03  0.00000000000E+00 0.  1.
         13   -1    0    0    0    0 -0.00000000000E+00 -0.00000000000E+00 -0.10000000000E+04  0.10000000000E+04  0.00000000000E+00 0.  1.
    9000005    2    1    2  501    0  0.40857940438E+02  0.92855719568E+02 -0.79951020568E+03  0.10648778218E+04  0.69602920221E+03 0.  0.
         13    1    3    3    0    0  0.22891068461E+02 -0.30329870219E+03 -0.39330401456E+03  0.49719427957E+03  0.00000000000E+00 0.  1.
          3    1    3    3  501    0  0.17966871977E+02  0.39615442176E+03 -0.40620619112E+03  0.56768354219E+03  0.00000000000E+00 0.  1.
         -1    1    1    2    0  502 -0.40857940438E+02 -0.92855719568E+02 -0.29861121384E+02  0.10575085117E+03  0.00000000000E+00 0. -1.
<mgrwt>
<rscale>  1 0.70338340E+03</rscale>
<asrwt>0</asrwt>
<pdfrwt beam="1">  1       21 0.26250564E-01 0.70338340E+03</pdfrwt>
<pdfrwt beam="2">0</pdfrwt>
<totfact> 0.13192474E+03</totfact>
</mgrwt>
</event>
<event>
 6    1  0.1439793E-004  0.6504198E+03  0.7818608E-02  0.9805992E-01
         21   -1    0    0  501  502  0.00000000000E+00  0.00000000000E+00  0.66128156475E+03  0.66128156475E+03  0.00000000000E+00 0. -1.
         13   -1    0    0    0    0 -0.00000000000E+00 -0.00000000000E+00 -0.10000000000E+04  0.10000000000E+04  0.00000000000E+00 0.  1.
    9000005    2    1    2  501    0 -0.18636808824E+02 -0.15439583615E+02 -0.89394703998E+03  0.11055257597E+04  0.64996937126E+03 0.  0.
         13    1    3    3    0    0  0.23538460227E+03  0.26044936871E+02 -0.77050784096E+02  0.24904030407E+03  0.00000000000E+00 0.  1.
          3    1    3    3  501    0 -0.25402141110E+03 -0.41484520485E+02 -0.81689625589E+03  0.85648545558E+03  0.00000000000E+00 0.  1.
         -1    1    1    2    0  502  0.18636808824E+02  0.15439583615E+02  0.55522860473E+03  0.55575580509E+03  0.00000000000E+00 0. -1.
<mgrwt>
<rscale>  1 0.65041978E+03</rscale>
<asrwt>0</asrwt>
<pdfrwt beam="1">  1       21 0.10173562E+00 0.65041978E+03</pdfrwt>
<pdfrwt beam="2">0</pdfrwt>
<totfact> 0.69509061E+01</totfact>
</mgrwt>
</event>
<event>
 6    1  0.1439793E-004  0.6580098E+03  0.7818608E-02  0.9791864E-01
         21   -1    0    0  501  502  0.00000000000E+00  0.00000000000E+00  0.22371589140E+03  0.22371589140E+03  0.00000000000E+00 0. -1.
         13   -1    0    0    0    0 -0.00000000000E+00 -0.00000000000E+00 -0.10000000000E+04  0.10000000000E+04  0.00000000000E+00 0.  1.
    9000005    2    1    2  501    0 -0.88573282117E+02  0.48350416209E+02 -0.86672697873E+03  0.10882061065E+04  0.65022602644E+03 0.  0.
         13    1    3    3    0    0 -0.11850786460E+03  0.10728981276E+03 -0.96036827314E+03  0.97358227077E+03  0.00000000000E+00 0.  1.
          3    1    3    3  501    0  0.29934582482E+02 -0.58939396552E+02  0.93641294411E+02  0.11462383571E+03  0.00000000000E+00 0.  1.
         -1    1    1    2    0  502  0.88573282117E+02 -0.48350416209E+02  0.90442870130E+02  0.13550978492E+03  0.00000000000E+00 0. -1.
<mgrwt>
<rscale>  1 0.65800978E+03</rscale>
<asrwt>0</asrwt>
<pdfrwt beam="1">  1       21 0.34417828E-01 0.65800978E+03</pdfrwt>
<pdfrwt beam="2">0</pdfrwt>
<totfact> 0.76864060E+02</totfact>
</mgrwt>
</event>
<event>
 6    1  0.1439793E-004  0.6516424E+03  0.7818608E-02  0.9803702E-01
         21   -1    0    0  501  502  0.00000000000E+00  0.00000000000E+00  0.19023884553E+03  0.19023884553E+03  0.00000000000E+00 0.  1.
         13   -1    0    0    0    0 -0.00000000000E+00 -0.00000000000E+00 -0.10000000000E+04  0.10000000000E+04  0.00000000000E+00 0.  1.
    9000005    2    1    2  501    0  0.38051533938E+02 -0.85966815097E+02 -0.86362483383E+03  0.10818898331E+04  0.64482520491E+03 0.  0.
         13    1    3    3    0    0 -0.21065964477E+03  0.71883329270E+02 -0.72105364902E+03  0.75462776501E+03  0.00000000000E+00 0.  1.
          3    1    3    3  501    0  0.24871117871E+03 -0.15785014437E+03 -0.14257118481E+03  0.32726206812E+03  0.00000000000E+00 0.  1.
         -3    1    1    2    0  502 -0.38051533938E+02  0.85966815097E+02  0.53863679363E+02  0.10834901240E+03  0.00000000000E+00 0. -1.
<mgrwt>
<rscale>  1 0.65164235E+03</rscale>
<asrwt>0</asrwt>
<pdfrwt beam="1">  1       21 0.29267514E-01 0.65164235E+03</pdfrwt>
<pdfrwt beam="2">0</pdfrwt>
<totfact> 0.10660934E+03</totfact>
</mgrwt>
</event>
<event>
 6    1  0.1439793E-004  0.6688015E+03  0.7818608E-02  0.9772125E-01
         21   -1    0    0  501  502  0.00000000000E+00  0.00000000000E+00  0.18621212161E+03  0.18621212161E+03  0.00000000000E+00 0.  1.
         13   -1    0    0    0    0 -0.00000000000E+00 -0.00000000000E+00 -0.10000000000E+04  0.10000000000E+04  0.00000000000E+00 0.  1.
    9000005    2    1    2  501    0  0.12725814140E+03  0.10671951433E+03 -0.75832106079E+03  0.10111114159E+04  0.64785166109E+03 0.  0.
         13    1    3    3    0    0  0.30493154771E+03  0.11688973635E+03 -0.11914608042E+03  0.34762371573E+03  0.00000000000E+00 0.  1.
          1    1    3    3  501    0 -0.17767340631E+03 -0.10170222017E+02 -0.63917498037E+03  0.66348770015E+03  0.00000000000E+00 0.  1.
         -1    1    1    2    0  502 -0.12725814140E+03 -0.10671951433E+03 -0.55466817599E+02  0.17510070573E+03  0.00000000000E+00 0. -1.
<mgrwt>
<rscale>  1 0.66880151E+03</rscale>
<asrwt>0</asrwt>
<pdfrwt beam="1">  1       21 0.28648018E-01 0.66880151E+03</pdfrwt>
<pdfrwt beam="2">0</pdfrwt>
<totfact> 0.11114234E+03</totfact>
</mgrwt>
</event>
<event>
 6    1  0.1439793E-004  0.6639893E+03  0.7818608E-02  0.9780878E-01
         21   -1    0    0  501  502  0.00000000000E+00  0.00000000000E+00  0.23913695181E+03  0.23913695181E+03  0.00000000000E+00 0. -1.
         13   -1    0    0    0    0 -0.00000000000E+00 -0.00000000000E+00 -0.10000000000E+04  0.10000000000E+04  0.00000000000E+00 0.  1.
    9000005    2    1    2  501    0 -0.10987331332E+03  0.10031109623E+01 -0.86316557002E+03  0.10890071507E+04  0.65483480496E+03 0.  0.
         13    1    3    3    0    0  0.19970617315E+02  0.24889853907E+03 -0.87796359856E+02  0.26468379080E+03  0.00000000000E+00 0.  1.
          3    1    3    3  501    0 -0.12984393064E+03 -0.24789542811E+03 -0.77536921016E+03  0.82432335989E+03  0.00000000000E+00 0.  1.
         -1    1    1    2    0  502  0.10987331332E+03 -0.10031109623E+01  0.10230252182E+03  0.15012980112E+03  0.00000000000E+00 0. -1.
<mgrwt>
<rscale>  1 0.66398929E+03</rscale>
<asrwt>0</asrwt>
<pdfrwt beam="1">  1       21 0.36790299E-01 0.66398929E+03</pdfrwt>
<pdfrwt beam="2">0</pdfrwt>
<totfact> 0.67044520E+02</totfact>
</mgrwt>
</event>
<event>
 6    1  0.1439793E-004  0.6486779E+03  0.7818608E-02  0.9809263E-01
         21   -1    0    0  501  502  0.00000000000E+00  0.00000000000E+00  0.16289462577E+03  0.16289462577E+03  0.00000000000E+00 0.  1.
         13   -1    0    0    0    0 -0.00000000000E+00 -0.00000000000E+00 -0.10000000000E+04  0.10000000000E+04  0.00000000000E+00 0.  1.
    9000005    2    1    2  501    0  0.75261695800E+02  0.10128190224E+03 -0.80282157570E+03  0.10321363548E+04  0.63628659108E+03 0.  0.
         13    1    3    3    0    0 -0.76095351067E+02 -0.20156131956E+03 -0.72775706364E+02  0.22740662135E+03  0.00000000000E+00 0.  1.
          1    1    3    3  501    0  0.15135704687E+03  0.30284322180E+03 -0.73004586934E+03  0.80472973349E+03  0.00000000000E+00 0.  1.
         -3    1    1    2    0  502 -0.75261695800E+02 -0.10128190224E+03 -0.34283798528E+02  0.13075827094E+03  0.00000000000E+00 0. -1.
<mgrwt>
<rscale>  1 0.64867787E+03</rscale>
<asrwt>0</asrwt>
<pdfrwt beam="1">  1       21 0.25060711E-01 0.64867787E+03</pdfrwt>
<pdfrwt beam="2">0</pdfrwt>
<totfact> 0.14493652E+03</totfact>
</mgrwt>
</event>
<event>
 6    1  0.1439793E-004  0.6514614E+03  0.7818608E-02  0.9804041E-01
         21   -1    0    0  501  502  0.00000000000E+00  0.00000000000E+00  0.27500767206E+03  0.27500767206E+03  0.00000000000E+00 0. -1.
         13   -1    0    0    0    0 -0.00000000000E+00 -0.00000000000E+00 -0.10000000000E+04  0.10000000000E+04  0.00000000000E+00 0.  1.
    9000005    2    1    2  501    0 -0.14277964998E+02 -0.17956725886E+02 -0.89303740364E+03  0.11054038639E+04  0.65105728907E+03 0.  0.
         13    1    3    3    0    0 -0.16397335585E+03  0.20579977079E+03 -0.76168313703E+03  0.80585483080E+03  0.00000000000E+00 0.  1.
          3    1    3    3  501    0  0.14969539086E+03 -0.22375649668E+03 -0.13135426661E+03  0.29954903306E+03  0.00000000000E+00 0.  1.
         -1    1    1    2    0  502  0.14277964998E+02  0.17956725886E+02  0.16804507570E+03  0.16960380820E+03  0.00000000000E+00 0. -1.
<mgrwt>
<rscale>  1 0.65146136E+03</rscale>
<asrwt>0</asrwt>
<pdfrwt beam="1">  1       21 0.42308871E-01 0.65146136E+03</pdfrwt>
<pdfrwt beam="2">0</pdfrwt>
<totfact> 0.50234302E+02</totfact>
</mgrwt>
</event>
<event>
 6    1  0.1439793E-004  0.6757509E+03  0.7818608E-02  0.9759624E-01
         21   -1    0    0  501  502  0.00000000000E+00  0.00000000000E+00  0.20436462691E+03  0.20436462691E+03  0.00000000000E+00 0. -1.
         13   -1    0    0    0    0 -0.00000000000E+00 -0.00000000000E+00 -0.10000000000E+04  0.10000000000E+04  0.00000000000E+00 0.  1.
    9000005    2    1    2  501    0 -0.16704172237E+03  0.55590251736E+02 -0.77322288193E+03  0.10268948186E+04  0.65241561158E+03 0.  0.
         13    1    3    3    0    0  0.22471800101E+03  0.59527603069E+02 -0.49347686691E+03  0.54549164400E+03  0.00000000000E+00 0.  1.
          1    1    3    3  501    0 -0.39175972337E+03 -0.39373513337E+01 -0.27974601502E+03  0.48140317460E+03  0.00000000000E+00 0.  1.
         -3    1    1    2    0  502  0.16704172237E+03 -0.55590251736E+02 -0.22412491167E+02  0.17746980830E+03  0.00000000000E+00 0. -1.
<mgrwt>
<rscale>  1 0.67575095E+03</rscale>
<asrwt>0</asrwt>
<pdfrwt beam="1">  1       21 0.31440711E-01 0.67575095E+03</pdfrwt>
<pdfrwt beam="2">0</pdfrwt>
<totfact> 0.92206888E+02</totfact>
</mgrwt>
</event>
<event>
 6    1  0.1439793E-004  0.9501427E+03  0.7818608E-02  0.9364984E-01
         21   -1    0    0  501  502  0.00000000000E+00  0.00000000000E+00  0.77809669244E+03  0.77809669244E+03  0.00000000000E+00 0. -1.
         13   -1    0    0    0    0 -0.00000000000E+00 -0.00000000000E+00 -0.10000000000E+04  0.10000000000E+04  0.00000000000E+00 0.  1.
    9000005    2    1    2  501    0 -0.16231072870E+02 -0.69626196663E+03 -0.44168935360E+03  0.10477884836E+04  0.64631806979E+03 0.  0.
         13    1    3    3    0    0 -0.10633026545E+03 -0.79870160861E+03 -0.32705332473E+03  0.86959430895E+03  0.00000000000E+00 0.  1.
          3    1    3    3  501    0  0.90099192576E+02  0.10243964199E+03 -0.11463602888E+03  0.17819417462E+03  0.00000000000E+00 0.  1.
         -3    1    1    2    0  502  0.16231072870E+02  0.69626196663E+03  0.21978604604E+03  0.73030820886E+03  0.00000000000E+00 0. -1.
<mgrwt>
<rscale>  1 0.95014274E+03</rscale>
<asrwt>0</asrwt>
<pdfrwt beam="1">  1       21 0.11970718E+00 0.95014274E+03</pdfrwt>
<pdfrwt beam="2">0</pdfrwt>
<totfact> 0.44364736E+01</totfact>
</mgrwt>
</event>
<event>
 6    1  0.1439793E-004  0.6547101E+03  0.7818608E-02  0.9797981E-01
         21   -1    0    0  501  502  0.00000000000E+00  0.00000000000E+00  0.16290615421E+03  0.16290615421E+03  0.00000000000E+00 0.  1.
         13   -1    0    0    0    0 -0.00000000000E+00 -0.00000000000E+00 -0.10000000000E+04  0.10000000000E+04  0.00000000000E+00 0.  1.
    9000005    2    1    2  501    0 -0.14709505833E+03  0.36482074623E+02 -0.70141243538E+03  0.95949193867E+03  0.63692815759E+03 0.  0.
         13    1    3    3    0    0  0.80368659181E+02  0.14011411955E+03  0.48796771072E+02  0.16873711134E+03  0.00000000000E+00 0.  1.
          1    1    3    3  501    0 -0.22746371751E+03 -0.10363204492E+03 -0.75020920645E+03  0.79075482734E+03  0.00000000000E+00 0.  1.
         -1    1    1    2    0  502  0.14709505833E+03 -0.36482074623E+02 -0.13568141041E+03  0.20341421554E+03  0.00000000000E+00 0. -1.
<mgrwt>
<rscale>  1 0.65471015E+03</rscale>
<asrwt>0</asrwt>
<pdfrwt beam="1">  1       21 0.25062485E-01 0.65471015E+03</pdfrwt>
<pdfrwt beam="2">0</pdfrwt>
<totfact> 0.14487088E+03</totfact>
</mgrwt>
</event>
<event>
 6    1  0.1439793E-004  0.6604062E+03  0.7818608E-02  0.9787446E-01
         21   -1    0    0  501  502  0.00000000000E+00  0.00000000000E+00  0.19245249199E+03  0.19245249199E+03  0.00000000000E+00 0. -1.
         13   -1    0    0    0    0 -0.00000000000E+00 -0.00000000000E+00 -0.10000000000E+04  0.10000000000E+04  0.00000000000E+00 0.  1.
    9000005    2    1    2  501    0  0.12507615509E+03  0.22979709236E+02 -0.83272853990E+03  0.10628137787E+04  0.64804644548E+03 0.  0.
         13    1    3    3    0    0  0.37803623271E+03  0.85350558831E+02 -0.39469534240E+03  0.55315506365E+03  0.00000000000E+00 0.  1.
          1    1    3    3  501    0 -0.25296007762E+03 -0.62370849595E+02 -0.43803319750E+03  0.50965871508E+03  0.00000000000E+00 0.  1.
         -3    1    1    2    0  502 -0.12507615509E+03 -0.22979709236E+02  0.25181031886E+02  0.12963871326E+03  0.00000000000E+00 0. -1.
<mgrwt>
<rscale>  1 0.66040617E+03</rscale>
<asrwt>0</asrwt>
<pdfrwt beam="1">  1       21 0.29608075E-01 0.66040617E+03</pdfrwt>
<pdfrwt beam="2">0</pdfrwt>
<totfact> 0.10411752E+03</totfact>
</mgrwt>
</event>
<event>
 6    1  0.1439793E-004  0.6539584E+03  0.7818608E-02  0.9799380E-01
         21   -1    0    0  501  502  0.00000000000E+00  0.00000000000E+00  0.48879955951E+03  0.48879955951E+03  0.00000000000E+00 0. -1.
         13   -1    0    0    0    0 -0.00000000000E+00 -0.00000000000E+00 -0.10000000000E+04  0.10000000000E+04  0.00000000000E+00 0.  1.
    9000005    2    1    2  501    0 -0.24867020849E+02  0.28224565065E+02 -0.89205888854E+03  0.11060879811E+04  0.65287561334E+03 0.  0.
         13    1    3    3    0    0  0.30537165739E+03  0.61527790445E+02 -0.53116316646E+03  0.61576929734E+03  0.00000000000E+00 0.  1.
          1    1    3    3  501    0 -0.33023867824E+03 -0.33303225380E+02 -0.36089572208E+03  0.49031868376E+03  0.00000000000E+00 0.  1.
         -3    1    1    2    0  502  0.24867020849E+02 -0.28224565065E+02  0.38085844805E+03  0.38271157841E+03  0.00000000000E+00 0. -1.
<mgrwt>
<rscale>  1 0.65395838E+03</rscale>
<asrwt>0</asrwt>
<pdfrwt beam="1">  1       21 0.75199930E-01 0.65395838E+03</pdfrwt>
<pdfrwt beam="2">0</pdfrwt>
<totfact> 0.14252567E+02</totfact>
</mgrwt>
</event>
<event>
 6    1  0.1439793E-004  0.6776528E+03  0.7818608E-02  0.9756231E-01
         21   -1    0    0  501  502  0.00000000000E+00  0.00000000000E+00  0.17449470850E+03  0.17449470850E+03  0.00000000000E+00 0.  1.
         13   -1    0    0    0    0 -0.00000000000E+00 -0.00000000000E+00 -0.10000000000E+04  0.10000000000E+04  0.00000000000E+00 0.  1.
    9000005    2    1    2  501    0  0.13873429421E+03 -0.19847821430E+02 -0.76462116019E+03  0.10216941265E+04  0.66300243527E+03 0.  0.
         13    1    3    3    0    0 -0.43843340661E+02 -0.31930565678E+03 -0.42590630082E+03  0.53411096043E+03  0.00000000000E+00 0.  1.
          3    1    3    3  501    0  0.18257763487E+03  0.29945783535E+03 -0.33871485937E+03  0.48758316610E+03  0.00000000000E+00 0.  1.
         -1    1    1    2    0  502 -0.13873429421E+03  0.19847821430E+02 -0.60884131309E+02  0.15280058197E+03  0.00000000000E+00 0. -1.
<mgrwt>
<rscale>  1 0.67765284E+03</rscale>
<asrwt>0</asrwt>
<pdfrwt beam="1">  1       21 0.26845339E-01 0.67765284E+03</pdfrwt>
<pdfrwt beam="2">0</pdfrwt>
<totfact> 0.12638488E+03</totfact>
</mgrwt>
</event>
<event>
 6    1  0.1439793E-004  0.6683909E+03  0.7818608E-02  0.9772869E-01
         21   -1    0    0  501  502  0.00000000000E+00  0.00000000000E+00  0.19399463851E+03  0.19399463851E+03  0.00000000000E+00 0.  1.
         13   -1    0    0    0    0 -0.00000000000E+00 -0.00000000000E+00 -0.10000000000E+04  0.10000000000E+04  0.00000000000E+00 0.  1.
    9000005    2    1    2  501    0  0.50806107394E+02 -0.15127593867E+03 -0.78817107084E+03  0.10334215022E+04  0.64906139479E+03 0.  0.
         13    1    3    3    0    0  0.61703276086E+02 -0.40608552936E+03 -0.44123778269E+03  0.60282960471E+03  0.00000000000E+00 0.  1.
          3    1    3    3  501    0 -0.10897168692E+02  0.25480959069E+03 -0.34693328815E+03  0.43059189753E+03  0.00000000000E+00 0.  1.
         -3    1    1    2    0  502 -0.50806107394E+02  0.15127593867E+03 -0.17834290653E+02  0.16057313627E+03  0.00000000000E+00 0. -1.
<mgrwt>
<rscale>  1 0.66839088E+03</rscale>
<asrwt>0</asrwt>
<pdfrwt beam="1">  1       21 0.29845328E-01 0.66839088E+03</pdfrwt>
<pdfrwt beam="2">0</pdfrwt>
<totfact> 0.10241822E+03</totfact>
</mgrwt>
</event>
<event>
 6    1  0.1439793E-004  0.6517049E+03  0.7818608E-02  0.9803585E-01
         21   -1    0    0  501  502  0.00000000000E+00  0.00000000000E+00  0.22303415540E+03  0.22303415540E+03  0.00000000000E+00 0. -1.
         13   -1    0    0    0    0 -0.00000000000E+00 -0.00000000000E+00 -0.10000000000E+04  0.10000000000E+04  0.00000000000E+00 0.  1.
    9000005    2    1    2  501    0  0.57921922736E+02  0.13311053527E+02 -0.88539626324E+03  0.10993842910E+04  0.64898932430E+03 0.  0.
         13    1    3    3    0    0 -0.94949375629E+02  0.29966650186E+03 -0.32768110725E+03  0.45408182558E+03  0.00000000000E+00 0.  1.
          3    1    3    3  501    0  0.15287129836E+03 -0.28635544834E+03 -0.55771515599E+03  0.64530246542E+03  0.00000000000E+00 0.  1.
         -1    1    1    2    0  502 -0.57921922736E+02 -0.13311053527E+02  0.10843041865E+03  0.12364986440E+03  0.00000000000E+00 0. -1.
<mgrwt>
<rscale>  1 0.65170490E+03</rscale>
<asrwt>0</asrwt>
<pdfrwt beam="1">  1       21 0.34312946E-01 0.65170490E+03</pdfrwt>
<pdfrwt beam="2">0</pdfrwt>
<totfact> 0.77377400E+02</totfact>
</mgrwt>
</event>
<event>
 6    1  0.1439793E-004  0.6419390E+03  0.7818608E-02  0.9822024E-01
         21   -1    0    0  501  502  0.00000000000E+00  0.00000000000E+00  0.23289611326E+03  0.23289611326E+03  0.00000000000E+00 0. -1.
         13   -1    0    0    0    0 -0.00000000000E+00 -0.00000000000E+00 -0.10000000000E+04  0.10000000000E+04  0.00000000000E+00 0.  1.
    9000005    2    1    2  501    0  0.27638616003E+02  0.43220469212E+02 -0.89136498024E+03  0.10984612911E+04  0.63988575385E+03 0.  0.
         13    1    3    3    0    0 -0.14942148664E+03  0.12053430265E+03 -0.88454389559E+03  0.90513711779E+03  0.00000000000E+00 0.  1.
          3    1    3    3  501    0  0.17706010264E+03 -0.77313833438E+02 -0.68210846538E+01  0.19332417330E+03  0.00000000000E+00 0.  1.
         -1    1    1    2    0  502 -0.27638616003E+02 -0.43220469212E+02  0.12426109350E+03  0.13443482217E+03  0.00000000000E+00 0. -1.
<mgrwt>
<rscale>  1 0.64193900E+03</rscale>
<asrwt>0</asrwt>
<pdfrwt beam="1">  1       21 0.35830170E-01 0.64193900E+03</pdfrwt>
<pdfrwt beam="2">0</pdfrwt>
<totfact> 0.70892899E+02</totfact>
</mgrwt>
</event>
<event>
 6    1  0.1439793E-004  0.6277055E+03  0.7818608E-02  0.9849537E-01
         21   -1    0    0  501  502  0.00000000000E+00  0.00000000000E+00  0.39171853781E+03  0.39171853781E+03  0.00000000000E+00 0. -1.
         13   -1    0    0    0    0 -0.00000000000E+00 -0.00000000000E+00 -0.10000000000E+04  0.10000000000E+04  0.00000000000E+00 0.  1.
    9000005    2    1    2  501    0 -0.22499367162E+02 -0.10164789893E+02 -0.90092542675E+03  0.10980349760E+04  0.62721976971E+03 0.  0.
         13    1    3    3    0    0 -0.24656967775E+03 -0.20471510420E+03 -0.56706470458E+03  0.65135801143E+03  0.00000000000E+00 0.  1.
          3    1    3    3  501    0  0.22407031058E+03  0.19455031431E+03 -0.33386072216E+03  0.44667696458E+03  0.00000000000E+00 0.  1.
         -3    1    1    2    0  502  0.22499367162E+02  0.10164789893E+02  0.29264396456E+03  0.29368356180E+03  0.00000000000E+00 0. -1.
<mgrwt>
<rscale>  1 0.62770549E+03</rscale>
<asrwt>0</asrwt>
<pdfrwt beam="1">  1       21 0.60264389E-01 0.62770549E+03</pdfrwt>
<pdfrwt beam="2">0</pdfrwt>
<totfact> 0.23551897E+02</totfact>
</mgrwt>
</event>
<event>
 6    1  0.1439793E-004  0.6715897E+03  0.7818608E-02  0.9767090E-01
         21   -1    0    0  501  502  0.00000000000E+00  0.00000000000E+00  0.46088410485E+03  0.46088410485E+03  0.00000000000E+00 0. -1.
         13   -1    0    0    0    0 -0.00000000000E+00 -0.00000000000E+00 -0.10000000000E+04  0.10000000000E+04  0.00000000000E+00 0.  1.
    9000005    2    1    2  501    0  0.15502664620E+03  0.35788940213E+02 -0.86685195039E+03  0.10965696374E+04  0.65247111550E+03 0.  0.
         13    1    3    3    0    0 -0.17904101974E+03  0.22018072419E+03 -0.29721709700E+03  0.41094189468E+03  0.00000000000E+00 0.  1.
          3    1    3    3  501    0  0.33406766594E+03 -0.18439178397E+03 -0.56963485339E+03  0.68562774275E+03  0.00000000000E+00 0.  1.
         -1    1    1    2    0  502 -0.15502664620E+03 -0.35788940213E+02  0.32773605524E+03  0.36431446743E+03  0.00000000000E+00 0. -1.
<mgrwt>
<rscale>  1 0.67158966E+03</rscale>
<asrwt>0</asrwt>
<pdfrwt beam="1">  1       21 0.70905245E-01 0.67158966E+03</pdfrwt>
<pdfrwt beam="2">0</pdfrwt>
<totfact> 0.16272213E+02</totfact>
</mgrwt>
</event>
<event>
 6    1  0.1439793E-004  0.6526981E+03  0.7818608E-02  0.9801730E-01
         21   -1    0    0  501  502  0.00000000000E+00  0.00000000000E+00  0.21645361597E+03  0.21645361597E+03  0.00000000000E+00 0.  1.
         13   -1    0    0    0    0 -0.00000000000E+00 -0.00000000000E+00 -0.10000000000E+04  0.10000000000E+04  0.00000000000E+00 0.  1.
    9000005    2    1    2  501    0 -0.64238685431E+02  0.91902616453E+01 -0.88279039189E+03  0.10978768783E+04  0.64946415939E+03 0.  0.
         13    1    3    3    0    0 -0.20222294453E+03  0.17794867822E+03 -0.83135029077E+03  0.87390111417E+03  0.00000000000E+00 0.  1.
          3    1    3    3  501    0  0.13798425910E+03 -0.16875841658E+03 -0.51440101118E+02  0.22397576415E+03  0.00000000000E+00 0.  1.
         -3    1    1    2    0  502  0.64238685431E+02 -0.91902616453E+01  0.99244007862E+02  0.11857673765E+03  0.00000000000E+00 0. -1.
<mgrwt>
<rscale>  1 0.65269806E+03</rscale>
<asrwt>0</asrwt>
<pdfrwt beam="1">  1       21 0.33300555E-01 0.65269806E+03</pdfrwt>
<pdfrwt beam="2">0</pdfrwt>
<totfact> 0.82223082E+02</totfact>
</mgrwt>
</event>
<event>
 6    1  0.1439793E-004  0.7624748E+03  0.7818608E-02  0.9615980E-01
         21   -1    0    0  501  502  0.00000000000E+00  0.00000000000E+00  0.27316061854E+03  0.27316061854E+03  0.00000000000E+00 0.  1.
         13   -1    0    0    0    0 -0.00000000000E+00 -0.00000000000E+00 -0.10000000000E+04  0.10000000000E+04  0.00000000000E+00 0.  1.
    9000005    2    1    2  501    0 -0.71492966833E+02  0.27355565291E+03 -0.52333039974E+03  0.92479321883E+03  0.70811287995E+03 0.  0.
         13    1    3    3    0    0  0.28828689525E+03 -0.23261031554E+02 -0.26149635969E+03  0.38991121514E+03  0.00000000000E+00 0.  1.
          1    1    3    3  501    0 -0.35977986209E+03  0.29681668446E+03 -0.26183404005E+03  0.53488200369E+03  0.00000000000E+00 0.  1.
         -1    1    1    2    0  502  0.71492966833E+02 -0.27355565291E+03 -0.20350898172E+03  0.34836739972E+03  0.00000000000E+00 0. -1.
<mgrwt>
<rscale>  1 0.76247478E+03</rscale>
<asrwt>0</asrwt>
<pdfrwt beam="1">  1       21 0.42024709E-01 0.76247478E+03</pdfrwt>
<pdfrwt beam="2">0</pdfrwt>
<totfact> 0.50512055E+02</totfact>
</mgrwt>
</event>
<event>
 6    1  0.1439793E-004  0.6263024E+03  0.7818608E-02  0.9852291E-01
         21   -1    0    0  501  502  0.00000000000E+00  0.00000000000E+00  0.11240225456E+03  0.11240225456E+03  0.00000000000E+00 0.  1.
         13   -1    0    0    0    0 -0.00000000000E+00 -0.00000000000E+00 -0.10000000000E+04  0.10000000000E+04  0.00000000000E+00 0.  1.
    9000005    2    1    2  501    0  0.20744216751E+02  0.24912448113E+01 -0.89308075618E+03  0.10908015084E+04  0.62595380403E+03 0.  0.
         13    1    3    3    0    0 -0.12614476881E+03 -0.18229685090E+03 -0.81120103459E+03  0.84094694426E+03  0.00000000000E+00 0.  1.
          1    1    3    3  501    0  0.14688898556E+03  0.18478809571E+03 -0.81879721588E+02  0.24985456411E+03  0.00000000000E+00 0.  1.
         -3    1    1    2    0  502 -0.20744216751E+02 -0.24912448113E+01  0.54830107416E+01  0.21600746194E+02  0.00000000000E+00 0. -1.
<mgrwt>
<rscale>  1 0.62630240E+03</rscale>
<asrwt>0</asrwt>
<pdfrwt beam="1">  1       21 0.17292654E-01 0.62630240E+03</pdfrwt>
<pdfrwt beam="2">0</pdfrwt>
<totfact> 0.29625516E+03</totfact>
</mgrwt>
</event>
<event>
 6    1  0.1439793E-004  0.6589680E+03  0.7818608E-02  0.9790095E-01
         21   -1    0    0  501  502  0.00000000000E+00  0.00000000000E+00  0.18890649279E+03  0.18890649279E+03  0.00000000000E+00 0.  1.
         13   -1    0    0    0    0 -0.00000000000E+00 -0.00000000000E+00 -0.10000000000E+04  0.10000000000E+04  0.00000000000E+00 0.  1.
    9000005    2    1    2  501    0  0.50061347233E+02  0.21681574605E+02 -0.88103169107E+03  0.11002071200E+04  0.65670589853E+03 0.  0.
         13    1    3    3    0    0 -0.21008968382E+03 -0.21977057776E+03 -0.40583019201E+03  0.50708473340E+03  0.00000000000E+00 0.  1.
          1    1    3    3  501    0  0.26015103105E+03  0.24145215236E+03 -0.47520149906E+03  0.59312238665E+03  0.00000000000E+00 0.  1.
         -1    1    1    2    0  502 -0.50061347233E+02 -0.21681574605E+02  0.69938183857E+02  0.88699372745E+02  0.00000000000E+00 0. -1.
<mgrwt>
<rscale>  1 0.65896803E+03</rscale>
<asrwt>0</asrwt>
<pdfrwt beam="1">  1       21 0.29062537E-01 0.65896803E+03</pdfrwt>
<pdfrwt beam="2">0</pdfrwt>
<totfact> 0.10806713E+03</totfact>
</mgrwt>
</event>
<event>
 6    1  0.1439793E-004  0.5976230E+03  0.7818608E-02  0.9910350E-01
         21   -1    0    0  501  502  0.00000000000E+00  0.00000000000E+00  0.16957042493E+03  0.16957042493E+03  0.00000000000E+00 0. -1.
         13   -1    0    0    0    0 -0.00000000000E+00 -0.00000000000E+00 -0.10000000000E+04  0.10000000000E+04  0.00000000000E+00 0.  1.
    9000005    2    1    2  501    0  0.27463118635E+01  0.33696593460E+02 -0.90681787263E+03  0.10860349556E+04  0.59666596010E+03 0.  0.
         13    1    3    3    0    0  0.19044893298E+03 -0.14371819218E+03 -0.74255778901E+03  0.77994729621E+03  0.00000000000E+00 0.  1.
          1    1    3    3  501    0 -0.18770262112E+03  0.17741478564E+03 -0.16426008361E+03  0.30608765935E+03  0.00000000000E+00 0.  1.
         -3    1    1    2    0  502 -0.27463118635E+01 -0.33696593460E+02  0.76388297552E+02  0.83535469368E+02  0.00000000000E+00 0. -1.
<mgrwt>
<rscale>  1 0.59762302E+03</rscale>
<asrwt>0</asrwt>
<pdfrwt beam="1">  1       21 0.26087757E-01 0.59762302E+03</pdfrwt>
<pdfrwt beam="2">0</pdfrwt>
<totfact> 0.13432811E+03</totfact>
</mgrwt>
</event>
<event>
 6    1  0.1439793E-004  0.7050069E+03  0.7818608E-02  0.9708708E-01
         21   -1    0    0  501  502  0.00000000000E+00  0.00000000000E+00  0.16333752979E+03  0.16333752979E+03  0.00000000000E+00 0.  1.
         13   -1    0    0    0    0 -0.00000000000E+00 -0.00000000000E+00 -0.10000000000E+04  0.10000000000E+04  0.00000000000E+00 0.  1.
    9000005    2    1    2  501    0  0.33960025001E+02 -0.43575180082E+02 -0.85213161408E+03  0.11059670319E+04  0.70283903441E+03 0.  0.
         13    1    3    3    0    0  0.27788035772E+03  0.18843051160E+03 -0.25927147346E+03  0.42419953778E+03  0.00000000000E+00 0.  1.
          3    1    3    3  501    0 -0.24392033272E+03 -0.23200569168E+03 -0.59286014062E+03  0.68176749411E+03  0.00000000000E+00 0.  1.
         -3    1    1    2    0  502 -0.33960025001E+02  0.43575180082E+02  0.15469143875E+02  0.57370497902E+02  0.00000000000E+00 0. -1.
<mgrwt>
<rscale>  1 0.70500694E+03</rscale>
<asrwt>0</asrwt>
<pdfrwt beam="1">  1       21 0.25128850E-01 0.70500694E+03</pdfrwt>
<pdfrwt beam="2">0</pdfrwt>
<totfact> 0.14375811E+03</totfact>
</mgrwt>
</event>
<event>
 6    1  0.1439793E-004  0.6470728E+03  0.7818608E-02  0.9812287E-01
         21   -1    0    0  501  502  0.00000000000E+00  0.00000000000E+00  0.14477242181E+03  0.14477242181E+03  0.00000000000E+00 0.  1.
         13   -1    0    0    0    0 -0.00000000000E+00 -0.00000000000E+00 -0.10000000000E+04  0.10000000000E+04  0.00000000000E+00 0.  1.
    9000005    2    1    2  501    0 -0.11529436982E+02  0.82797588159E+02 -0.83912597580E+03  0.10596394075E+04  0.64165014001E+03 0.  0.
         13    1    3    3    0    0  0.13174798685E+03 -0.25020429408E+03 -0.40701654435E+03  0.49560285329E+03  0.00000000000E+00 0.  1.
          1    1    3    3  501    0 -0.14327742383E+03  0.33300188224E+03 -0.43210943145E+03  0.56403655423E+03  0.00000000000E+00 0.  1.
         -1    1    1    2    0  502  0.11529436982E+02 -0.82797588159E+02 -0.16101602391E+02  0.85133014287E+02  0.00000000000E+00 0. -1.
<mgrwt>
<rscale>  1 0.64707285E+03</rscale>
<asrwt>0</asrwt>
<pdfrwt beam="1">  1       21 0.22272680E-01 0.64707285E+03</pdfrwt>
<pdfrwt beam="2">0</pdfrwt>
<totfact> 0.18240401E+03</totfact>
</mgrwt>
</event>
<event>
 6    1  0.1439793E-004  0.6468141E+03  0.7818608E-02  0.9812776E-01
         21   -1    0    0  501  502  0.00000000000E+00  0.00000000000E+00  0.21420233819E+03  0.21420233819E+03  0.00000000000E+00 0.  1.
         13   -1    0    0    0    0 -0.00000000000E+00 -0.00000000000E+00 -0.10000000000E+04  0.10000000000E+04  0.00000000000E+00 0.  1.
    9000005    2    1    2  501    0  0.35823934415E+02  0.53398584690E+02 -0.88488493391E+03  0.10960793065E+04  0.64360992593E+03 0.  0.
         13    1    3    3    0    0  0.18419464230E+02 -0.27635658279E+03 -0.22001050145E+03  0.35371861452E+03  0.00000000000E+00 0.  1.
          1    1    3    3  501    0  0.17404470185E+02  0.32975516748E+03 -0.66487443246E+03  0.74236069198E+03  0.00000000000E+00 0.  1.
         -1    1    1    2    0  502 -0.35823934415E+02 -0.53398584690E+02  0.99087272102E+02  0.11812303169E+03  0.00000000000E+00 0. -1.
<mgrwt>
<rscale>  1 0.64681412E+03</rscale>
<asrwt>0</asrwt>
<pdfrwt beam="1">  1       21 0.32954205E-01 0.64681412E+03</pdfrwt>
<pdfrwt beam="2">0</pdfrwt>
<totfact> 0.84016924E+02</totfact>
</mgrwt>
</event>
<event>
 6    1  0.1439793E-004  0.6501019E+03  0.7818608E-02  0.9806588E-01
         21   -1    0    0  501  502  0.00000000000E+00  0.00000000000E+00  0.15861846599E+03  0.15861846599E+03  0.00000000000E+00 0. -1.
         13   -1    0    0    0    0 -0.00000000000E+00 -0.00000000000E+00 -0.10000000000E+04  0.10000000000E+04  0.00000000000E+00 0.  1.
    9000005    2    1    2  501    0 -0.30843681098E+01 -0.31592030923E+02 -0.88902951474E+03  0.11013655201E+04  0.64932654425E+03 0.  0.
         13    1    3    3    0    0  0.24141052940E+03 -0.51168027538E+02 -0.80518725572E+03  0.84215421837E+03  0.00000000000E+00 0.  1.
          3    1    3    3  501    0 -0.24449489751E+03  0.19575996615E+02 -0.83842259014E+02  0.25921130174E+03  0.00000000000E+00 0.  1.
         -1    1    1    2    0  502  0.30843681098E+01  0.31592030923E+02  0.47647980730E+02  0.57252945882E+02  0.00000000000E+00 0. -1.
<mgrwt>
<rscale>  1 0.65010194E+03</rscale>
<asrwt>0</asrwt>
<pdfrwt beam="1">  1       21 0.24402840E-01 0.65010194E+03</pdfrwt>
<pdfrwt beam="2">0</pdfrwt>
<totfact> 0.15267453E+03</totfact>
</mgrwt>
</event>
<event>
 6    1  0.1439793E-004  0.6460091E+03  0.7818608E-02  0.9814297E-01
         21   -1    0    0  501  502  0.00000000000E+00  0.00000000000E+00  0.11619063557E+03  0.11619063557E+03  0.00000000000E+00 0.  1.
         13   -1    0    0    0    0 -0.00000000000E+00 -0.00000000000E+00 -0.10000000000E+04  0.10000000000E+04  0.00000000000E+00 0.  1.
    9000005    2    1    2  501    0 -0.21490338770E+02 -0.70861525890E+01 -0.88229208042E+03  0.10935113417E+04  0.64561264786E+03 0.  0.
         13    1    3    3    0    0 -0.24149220992E+03 -0.75113498307E+02 -0.90013648347E+02  0.26844549162E+03  0.00000000000E+00 0.  1.
          1    1    3    3  501    0  0.22000187115E+03  0.68027345718E+02 -0.79227843207E+03  0.82506585010E+03  0.00000000000E+00 0.  1.
         -3    1    1    2    0  502  0.21490338770E+02  0.70861525890E+01 -0.15172840104E+01  0.22679293854E+02  0.00000000000E+00 0. -1.
<mgrwt>
<rscale>  1 0.64600909E+03</rscale>
<asrwt>0</asrwt>
<pdfrwt beam="1">  1       21 0.17875482E-01 0.64600909E+03</pdfrwt>
<pdfrwt beam="2">0</pdfrwt>
<totfact> 0.27805896E+03</totfact>
</mgrwt>
</event>
<event>
 6    1  0.1439793E-004  0.6915035E+03  0.7818608E-02  0.9731874E-01
         21   -1    0    0  501  502  0.00000000000E+00  0.00000000000E+00  0.19979024935E+03  0.19979024935E+03  0.00000000000E+00 0.  1.
         13   -1    0    0    0    0 -0.00000000000E+00 -0.00000000000E+00 -0.10000000000E+04  0.10000000000E+04  0.00000000000E+00 0.  1.
    9000005    2    1    2  501    0 -0.15147875619E+03  0.10145497057E+03 -0.72693615541E+03  0.10033012054E+04  0.66703688811E+03 0.  0.
         13    1    3    3    0    0  0.57013697168E+02 -0.25137251612E+03 -0.41390686757E+03  0.48760393615E+03  0.00000000000E+00 0.  1.
          1    1    3    3  501    0 -0.20849245336E+03  0.35282748670E+03 -0.31302928784E+03  0.51569726926E+03  0.00000000000E+00 0.  1.
         -3    1    1    2    0  502  0.15147875619E+03 -0.10145497057E+03 -0.73273595240E+02  0.19648904394E+03  0.00000000000E+00 0. -1.
<mgrwt>
<rscale>  1 0.69150353E+03</rscale>
<asrwt>0</asrwt>
<pdfrwt beam="1">  1       21 0.30736961E-01 0.69150353E+03</pdfrwt>
<pdfrwt beam="2">0</pdfrwt>
<totfact> 0.96409924E+02</totfact>
</mgrwt>
</event>
<event>
 6    1  0.1439793E-004  0.5928005E+03  0.7818608E-02  0.9920456E-01
         21   -1    0    0  501  502  0.00000000000E+00  0.00000000000E+00  0.12695637920E+03  0.12695637920E+03  0.00000000000E+00 0.  1.
         13   -1    0    0    0    0 -0.00000000000E+00 -0.00000000000E+00 -0.10000000000E+04  0.10000000000E+04  0.00000000000E+00 0.  1.
    9000005    2    1    2  501    0 -0.59327286482E+02  0.95758731616E+02 -0.78660317957E+03  0.98496549400E+03  0.58199914146E+03 0.  0.
         13    1    3    3    0    0 -0.88587230412E+02  0.23881894392E+03 -0.79880571958E+03  0.83843471004E+03  0.00000000000E+00 0.  1.
          1    1    3    3  501    0  0.29259943930E+02 -0.14306021231E+03  0.12202540008E+02  0.14653078396E+03  0.00000000000E+00 0.  1.
         -3    1    1    2    0  502  0.59327286482E+02 -0.95758731616E+02 -0.86440441225E+02  0.14199088520E+03  0.00000000000E+00 0. -1.
<mgrwt>
<rscale>  1 0.59280052E+03</rscale>
<asrwt>0</asrwt>
<pdfrwt beam="1">  1       21 0.19531750E-01 0.59280052E+03</pdfrwt>
<pdfrwt beam="2">0</pdfrwt>
<totfact> 0.23537581E+03</totfact>
</mgrwt>
</event>
<event>
 6    1  0.1439793E-004  0.6633543E+03  0.7818608E-02  0.9782038E-01
         21   -1    0    0  501  502  0.00000000000E+00  0.00000000000E+00  0.13744420202E+03  0.13744420202E+03  0.00000000000E+00 0.  1.
         13   -1    0    0    0    0 -0.00000000000E+00 -0.00000000000E+00 -0.10000000000E+04  0.10000000000E+04  0.00000000000E+00 0.  1.
    9000005    2    1    2  501    0  0.61490202021E+02 -0.98169139667E+01 -0.84190364048E+03  0.10718398702E+04  0.66042528020E+03 0.  0.
         13    1    3    3    0    0  0.26277476286E+03  0.22856904067E+03 -0.39234105470E+03  0.52461975330E+03  0.00000000000E+00 0.  1.
          1    1    3    3  501    0 -0.20128456084E+03 -0.23838595464E+03 -0.44956258578E+03  0.54722011689E+03  0.00000000000E+00 0.  1.
         -3    1    1    2    0  502 -0.61490202021E+02  0.98169139667E+01 -0.20652157502E+02  0.65604331823E+02  0.00000000000E+00 0. -1.
<mgrwt>
<rscale>  1 0.66335433E+03</rscale>
<asrwt>0</asrwt>
<pdfrwt beam="1">  1       21 0.21145261E-01 0.66335433E+03</pdfrwt>
<pdfrwt beam="2">0</pdfrwt>
<totfact> 0.20152653E+03</totfact>
</mgrwt>
</event>
<event>
 6    1  0.1439793E-004  0.5851872E+03  0.7818608E-02  0.9936624E-01
         21   -1    0    0  501  502  0.00000000000E+00  0.00000000000E+00  0.10939618097E+03  0.10939618097E+03  0.00000000000E+00 0.  1.
         13   -1    0    0    0    0 -0.00000000000E+00 -0.00000000000E+00 -0.10000000000E+04  0.10000000000E+04  0.00000000000E+00 0.  1.
    9000005    2    1    2  501    0 -0.20545134560E+02  0.54529280641E+01 -0.90913952147E+03  0.10811931804E+04  0.58480098048E+03 0.  0.
         13    1    3    3    0    0  0.12229194602E+03 -0.12547095342E+03 -0.26096522816E+02  0.17714205801E+03  0.00000000000E+00 0.  1.
          1    1    3    3  501    0 -0.14283708058E+03  0.13092388148E+03 -0.88304299866E+03  0.90405112234E+03  0.00000000000E+00 0.  1.
         -1    1    1    2    0  502  0.20545134560E+02 -0.54529280641E+01  0.18535702444E+02  0.28203000614E+02  0.00000000000E+00 0. -1.
<mgrwt>
<rscale>  1 0.58518717E+03</rscale>
<asrwt>0</asrwt>
<pdfrwt beam="1">  1       21 0.16830181E-01 0.58518717E+03</pdfrwt>
<pdfrwt beam="2">0</pdfrwt>
<totfact> 0.31220899E+03</totfact>
</mgrwt>
</event>
<event>
 6    1  0.1439793E-004  0.6368037E+03  0.7818608E-02  0.9831861E-01
         21   -1    0    0  501  502  0.00000000000E+00  0.00000000000E+00  0.12222533761E+03  0.12222533761E+03  0.00000000000E+00 0.  1.
         13   -1    0    0    0    0 -0.00000000000E+00 -0.00000000000E+00 -0.10000000000E+04  0.10000000000E+04  0.00000000000E+00 0.  1.
    9000005    2    1    2  501    0 -0.10976969037E+02  0.27584264922E+02 -0.88628761319E+03  0.10913407808E+04  0.63611129603E+03 0.  0.
         13    1    3    3    0    0  0.58206252406E+02  0.32395818044E+03 -0.51589011374E+03  0.61194728527E+03  0.00000000000E+00 0.  1.
          3    1    3    3  501    0 -0.69183221443E+02 -0.29637391551E+03 -0.37039749944E+03  0.47939349549E+03  0.00000000000E+00 0.  1.
         -1    1    1    2    0  502  0.10976969037E+02 -0.27584264922E+02  0.85129507990E+01  0.30884556850E+02  0.00000000000E+00 0. -1.
<mgrwt>
<rscale>  1 0.63680371E+03</rscale>
<asrwt>0</asrwt>
<pdfrwt beam="1">  1       21 0.18803898E-01 0.63680371E+03</pdfrwt>
<pdfrwt beam="2">0</pdfrwt>
<totfact> 0.25263193E+03</totfact>
</mgrwt>
</event>
<event>
 6    1  0.1439793E-004  0.6418665E+03  0.7818608E-02  0.9822162E-01
         21   -1    0    0  501  502  0.00000000000E+00  0.00000000000E+00  0.11664297861E+03  0.11664297861E+03  0.00000000000E+00 0.  1.
         13   -1    0    0    0    0 -0.00000000000E+00 -0.00000000000E+00 -0.10000000000E+04  0.10000000000E+04  0.00000000000E+00 0.  1.
    9000005    2    1    2  501    0 -0.17035541682E+02 -0.16527342649E+02 -0.88452896561E+03  0.10928787999E+04  0.64142748427E+03 0.  0.
         13    1    3    3    0    0 -0.29052080475E+03  0.14452025698E+03 -0.44907665763E+03  0.55403816393E+03  0.00000000000E+00 0.  1.
          3    1    3    3  501    0  0.27348526307E+03 -0.16104759963E+03 -0.43545230799E+03  0.53884063599E+03  0.00000000000E+00 0.  1.
         -3    1    1    2    0  502  0.17035541682E+02  0.16527342649E+02  0.11719442213E+01  0.23764178688E+02  0.00000000000E+00 0. -1.
<mgrwt>
<rscale>  1 0.64186648E+03</rscale>
<asrwt>0</asrwt>
<pdfrwt beam="1">  1       21 0.17945073E-01 0.64186648E+03</pdfrwt>
<pdfrwt beam="2">0</pdfrwt>
<totfact> 0.27605570E+03</totfact>
</mgrwt>
</event>
<event>
 6    1  0.1439793E-004  0.6544142E+03  0.7818608E-02  0.9798531E-01
         21   -1    0    0  501  502  0.00000000000E+00  0.00000000000E+00  0.17012025726E+03  0.17012025726E+03  0.00000000000E+00 0. -1.
         13   -1    0    0    0    0 -0.00000000000E+00 -0.00000000000E+00 -0.10000000000E+04  0.10000000000E+04  0.00000000000E+00 0.  1.
    9000005    2    1    2  501    0 -0.21242005938E+02 -0.50369431661E+02 -0.87952474904E+03  0.10962763062E+04  0.65212702202E+03 0.  0.
         13    1    3    3    0    0 -0.12548292497E+03 -0.17486532823E+03 -0.90647884977E+03  0.93168006985E+03  0.00000000000E+00 0.  1.
          1    1    3    3  501    0  0.10424091903E+03  0.12449589657E+03  0.26954100738E+02  0.16459623632E+03  0.00000000000E+00 0.  1.
         -1    1    1    2    0  502  0.21242005938E+02  0.50369431661E+02  0.49645006295E+02  0.73843951087E+02  0.00000000000E+00 0. -1.
<mgrwt>
<rscale>  1 0.65441421E+03</rscale>
<asrwt>0</asrwt>
<pdfrwt beam="1">  1       21 0.26172347E-01 0.65441421E+03</pdfrwt>
<pdfrwt beam="2">0</pdfrwt>
<totfact> 0.13304569E+03</totfact>
</mgrwt>
</event>
<event>
 6    1  0.1439793E-004  0.6607202E+03  0.7818608E-02  0.9786869E-01
         21   -1    0    0  501  502  0.00000000000E+00  0.00000000000E+00  0.14068866474E+03  0.14068866474E+03  0.00000000000E+00 0.  1.
         13   -1    0    0    0    0 -0.00000000000E+00 -0.00000000000E+00 -0.10000000000E+04  0.10000000000E+04  0.00000000000E+00 0.  1.
    9000005    2    1    2  501    0 -0.26646484478E+02  0.21099648673E+02 -0.88035247122E+03  0.11007141765E+04  0.65984543221E+03 0.  0.
         13    1    3    3    0    0  0.84834554233E+02 -0.29301368896E+03 -0.56383047609E+03  0.64106062839E+03  0.00000000000E+00 0.  1.
          1    1    3    3  501    0 -0.11148103871E+03  0.31411333763E+03 -0.31652199513E+03  0.45965354809E+03  0.00000000000E+00 0.  1.
         -1    1    1    2    0  502  0.26646484478E+02 -0.21099648673E+02  0.21041135954E+02  0.39974488257E+02  0.00000000000E+00 0. -1.
<mgrwt>
<rscale>  1 0.66072023E+03</rscale>
<asrwt>0</asrwt>
<pdfrwt beam="1">  1       21 0.21644409E-01 0.66072023E+03</pdfrwt>
<pdfrwt beam="2">0</pdfrwt>
<totfact> 0.19267177E+03</totfact>
</mgrwt>
</event>
<event>
 6    1  0.1439793E-004  0.6589403E+03  0.7818608E-02  0.9790146E-01
         21   -1    0    0  501  502  0.00000000000E+00  0.00000000000E+00  0.16529819666E+03  0.16529819666E+03  0.00000000000E+00 0.  1.
         13   -1    0    0    0    0 -0.00000000000E+00 -0.00000000000E+00 -0.10000000000E+04  0.10000000000E+04  0.00000000000E+00 0.  1.
    9000005    2    1    2  501    0 -0.14223986001E+02 -0.26827910704E+02 -0.88690884167E+03  0.11049025559E+04  0.65824031027E+03 0.  0.
         13    1    3    3    0    0 -0.58330118475E+02 -0.11393527508E+03  0.68051181326E+02  0.14496417802E+03  0.00000000000E+00 0.  1.
          3    1    3    3  501    0  0.44106132473E+02  0.87107364372E+02 -0.95496002299E+03  0.95993837790E+03  0.00000000000E+00 0.  1.
         -3    1    1    2    0  502  0.14223986001E+02  0.26827910704E+02  0.52207038321E+02  0.60395640743E+02  0.00000000000E+00 0. -1.
<mgrwt>
<rscale>  1 0.65894033E+03</rscale>
<asrwt>0</asrwt>
<pdfrwt beam="1">  1       21 0.25430491E-01 0.65894033E+03</pdfrwt>
<pdfrwt beam="2">0</pdfrwt>
<totfact> 0.14075399E+03</totfact>
</mgrwt>
</event>
<event>
 6    1  0.1439793E-004  0.6548699E+03  0.7818608E-02  0.9797684E-01
         21   -1    0    0  501  502  0.00000000000E+00  0.00000000000E+00  0.16520815725E+03  0.16520815725E+03  0.00000000000E+00 0.  1.
         13   -1    0    0    0    0 -0.00000000000E+00 -0.00000000000E+00 -0.10000000000E+04  0.10000000000E+04  0.00000000000E+00 0.  1.
    9000005    2    1    2  501    0 -0.69974859390E+02 -0.20690485528E+02 -0.86609606491E+03  0.10858070775E+04  0.65079185520E+03 0.  0.
         13    1    3    3    0    0 -0.34172297678E+03  0.81086526975E+02 -0.58166983666E+03  0.67947731132E+03  0.00000000000E+00 0.  1.
          1    1    3    3  501    0  0.27174811739E+03 -0.10177701250E+03 -0.28442622824E+03  0.40632976619E+03  0.00000000000E+00 0.  1.
         -1    1    1    2    0  502  0.69974859390E+02  0.20690485528E+02  0.31304222154E+02  0.79401079732E+02  0.00000000000E+00 0. -1.
<mgrwt>
<rscale>  1 0.65486992E+03</rscale>
<asrwt>0</asrwt>
<pdfrwt beam="1">  1       21 0.25416639E-01 0.65486992E+03</pdfrwt>
<pdfrwt beam="2">0</pdfrwt>
<totfact> 0.14093483E+03</totfact>
</mgrwt>
</event>
<event>
 6    1  0.1439793E-004  0.6513522E+03  0.7818608E-02  0.9804245E-01
         21   -1    0    0  501  502  0.00000000000E+00  0.00000000000E+00  0.15184990691E+03  0.15184990691E+03  0.00000000000E+00 0. -1.
         13   -1    0    0    0    0 -0.00000000000E+00 -0.00000000000E+00 -0.10000000000E+04  0.10000000000E+04  0.00000000000E+00 0.  1.
    9000005    2    1    2  501    0  0.21070487302E+02  0.10557851531E+02 -0.89055558339E+03  0.11033353805E+04  0.65092571091E+03 0.  0.
         13    1    3    3    0    0  0.85577355371E+02 -0.30631519042E+03 -0.53767428940E+03  0.62469682336E+03  0.00000000000E+00 0.  1.
          3    1    3    3  501    0 -0.64506868069E+02  0.31687304195E+03 -0.35288129399E+03  0.47863855715E+03  0.00000000000E+00 0.  1.
         -1    1    1    2    0  502 -0.21070487302E+02 -0.10557851531E+02  0.42405490296E+02  0.48514526396E+02  0.00000000000E+00 0. -1.
<mgrwt>
<rscale>  1 0.65135222E+03</rscale>
<asrwt>0</asrwt>
<pdfrwt beam="1">  1       21 0.23361523E-01 0.65135222E+03</pdfrwt>
<pdfrwt beam="2">0</pdfrwt>
<totfact> 0.16622301E+03</totfact>
</mgrwt>
</event>
<event>
 6    1  0.1439793E-004  0.6352957E+03  0.7818608E-02  0.9834769E-01
         21   -1    0    0  501  502  0.00000000000E+00  0.00000000000E+00  0.14041601207E+03  0.14041601207E+03  0.00000000000E+00 0.  1.
         13   -1    0    0    0    0 -0.00000000000E+00 -0.00000000000E+00 -0.10000000000E+04  0.10000000000E+04  0.00000000000E+00 0.  1.
    9000005    2    1    2  501    0 -0.26529934534E+02 -0.15162813231E+02 -0.89249088496E+03  0.10955093065E+04  0.63456040895E+03 0.  0.
         13    1    3    3    0    0  0.72374247104E+02 -0.17896407034E+03 -0.10856369121E+02  0.19334950444E+03  0.00000000000E+00 0.  1.
          1    1    3    3  501    0 -0.98904181638E+02  0.16380125711E+03 -0.88163451584E+03  0.90215980208E+03  0.00000000000E+00 0.  1.
         -3    1    1    2    0  502  0.26529934534E+02  0.15162813231E+02  0.32906897032E+02  0.44906705554E+02  0.00000000000E+00 0. -1.
<mgrwt>
<rscale>  1 0.63529573E+03</rscale>
<asrwt>0</asrwt>
<pdfrwt beam="1">  1       21 0.21602463E-01 0.63529573E+03</pdfrwt>
<pdfrwt beam="2">0</pdfrwt>
<totfact> 0.19361067E+03</totfact>
</mgrwt>
</event>
<event>
 6    1  0.1439793E-004  0.6511679E+03  0.7818608E-02  0.9804590E-01
         21   -1    0    0  501  502  0.00000000000E+00  0.00000000000E+00  0.15371620925E+03  0.15371620925E+03  0.00000000000E+00 0.  1.
         13   -1    0    0    0    0 -0.00000000000E+00 -0.00000000000E+00 -0.10000000000E+04  0.10000000000E+04  0.00000000000E+00 0.  1.
    9000005    2    1    2  501    0 -0.47537509223E+02 -0.57461560300E+02 -0.85915366837E+03  0.10780374180E+04  0.64688329941E+03 0.  0.
         13    1    3    3    0    0 -0.12598026804E+03 -0.24515131025E+03 -0.10177629945E+03  0.29381730375E+03  0.00000000000E+00 0.  1.
          3    1    3    3  501    0  0.78442758814E+02  0.18768974995E+03 -0.75737736892E+03  0.78422011425E+03  0.00000000000E+00 0.  1.
         -1    1    1    2    0  502  0.47537509223E+02  0.57461560300E+02  0.12869877618E+02  0.75678791251E+02  0.00000000000E+00 0. -1.
<mgrwt>
<rscale>  1 0.65116791E+03</rscale>
<asrwt>0</asrwt>
<pdfrwt beam="1">  1       21 0.23648647E-01 0.65116791E+03</pdfrwt>
<pdfrwt beam="2">0</pdfrwt>
<totfact> 0.16231577E+03</totfact>
</mgrwt>
</event>
<event>
 6    1  0.1439793E-004  0.5967119E+03  0.7818608E-02  0.9912251E-01
         21   -1    0    0  501  502  0.00000000000E+00  0.00000000000E+00  0.10161046981E+03  0.10161046981E+03  0.00000000000E+00 0.  1.
         13   -1    0    0    0    0 -0.00000000000E+00 -0.00000000000E+00 -0.10000000000E+04  0.10000000000E+04  0.00000000000E+00 0.  1.
    9000005    2    1    2  501    0  0.37028035755E+02 -0.17170741281E+02 -0.84053492762E+03  0.10308074697E+04  0.59531434151E+03 0.  0.
         13    1    3    3    0    0 -0.18614245736E+03 -0.23483004149E+02 -0.29894288533E+02  0.18998456359E+03  0.00000000000E+00 0.  1.
          3    1    3    3  501    0  0.22317049312E+03  0.63122628683E+01 -0.81064063909E+03  0.84082290609E+03  0.00000000000E+00 0.  1.
         -1    1    1    2    0  502 -0.37028035755E+02  0.17170741281E+02 -0.57854602573E+02  0.70803000126E+02  0.00000000000E+00 0. -1.
<mgrwt>
<rscale>  1 0.59671189E+03</rscale>
<asrwt>0</asrwt>
<pdfrwt beam="1">  1       21 0.15632380E-01 0.59671189E+03</pdfrwt>
<pdfrwt beam="2">0</pdfrwt>
<totfact> 0.35850195E+03</totfact>
</mgrwt>
</event>
<event>
 6    1  0.1439793E-004  0.6504165E+03  0.7818608E-02  0.9805998E-01
         21   -1    0    0  501  502  0.00000000000E+00  0.00000000000E+00  0.27248419320E+03  0.27248419320E+03  0.00000000000E+00 0.  1.
         13   -1    0    0    0    0 -0.00000000000E+00 -0.00000000000E+00 -0.10000000000E+04  0.10000000000E+04  0.00000000000E+00 0.  1.
    9000005    2    1    2  501    0 -0.50091543092E+02 -0.38768104364E+01 -0.89004263188E+03  0.11023690521E+04  0.64847316692E+03 0.  0.
         13    1    3    3    0    0  0.63035877461E+02  0.31014310358E+03 -0.44527677601E+03  0.54629083262E+03  0.00000000000E+00 0.  1.
          3    1    3    3  501    0 -0.11312742055E+03 -0.31401991402E+03 -0.44476585587E+03  0.55607821952E+03  0.00000000000E+00 0.  1.
         -1    1    1    2    0  502  0.50091543092E+02  0.38768104364E+01  0.16252682508E+03  0.17011514106E+03  0.00000000000E+00 0. -1.
<mgrwt>
<rscale>  1 0.65041651E+03</rscale>
<asrwt>0</asrwt>
<pdfrwt beam="1">  1       21 0.41920644E-01 0.65041651E+03</pdfrwt>
<pdfrwt beam="2">0</pdfrwt>
<totfact> 0.51216740E+02</totfact>
</mgrwt>
</event>
<event>
 6    1  0.1439793E-004  0.4825841E+03  0.7818608E-02  0.1018427E+00
         21   -1    0    0  501  502  0.00000000000E+00  0.00000000000E+00  0.26473602025E+03  0.26473602025E+03  0.00000000000E+00 0. -1.
         13   -1    0    0    0    0 -0.00000000000E+00 -0.00000000000E+00 -0.10000000000E+04  0.10000000000E+04  0.00000000000E+00 0.  1.
    9000005    2    1    2  501    0  0.82537829341E+02  0.97899122457E+01 -0.93290294689E+03  0.10503310367E+04  0.47537253034E+03 0.  0.
         13    1    3    3    0    0  0.95675408598E+00 -0.36738046287E+02 -0.95347892238E+03  0.95418690771E+03  0.00000000000E+00 0.  1.
          3    1    3    3  501    0  0.81581075255E+02  0.46527958533E+02  0.20575975487E+02  0.96144128954E+02  0.00000000000E+00 0.  1.
         -1    1    1    2    0  502 -0.82537829341E+02 -0.97899122457E+01  0.19763896714E+03  0.21440498358E+03  0.00000000000E+00 0. -1.
<mgrwt>
<rscale>  1 0.48258406E+03</rscale>
<asrwt>0</asrwt>
<pdfrwt beam="1">  1       21 0.40728617E-01 0.48258406E+03</pdfrwt>
<pdfrwt beam="2">0</pdfrwt>
<totfact> 0.55268556E+02</totfact>
</mgrwt>
</event>
<event>
 6    1  0.1439793E-004  0.6511933E+03  0.7818608E-02  0.9804543E-01
         21   -1    0    0  501  502  0.00000000000E+00  0.00000000000E+00  0.40665787370E+03  0.40665787370E+03  0.00000000000E+00 0. -1.
         13   -1    0    0    0    0 -0.00000000000E+00 -0.00000000000E+00 -0.10000000000E+04  0.10000000000E+04  0.00000000000E+00 0.  1.
    9000005    2    1    2  501    0  0.28251600880E+02  0.84515521532E+01 -0.89318679709E+03  0.11053666387E+04  0.65052530293E+03 0.  0.
         13    1    3    3    0    0  0.21282163175E+03  0.23847692664E+03 -0.64523542401E+03  0.72006461091E+03  0.00000000000E+00 0.  1.
          3    1    3    3  501    0 -0.18457003087E+03 -0.23002537449E+03 -0.24795137308E+03  0.38530202779E+03  0.00000000000E+00 0.  1.
         -3    1    1    2    0  502 -0.28251600880E+02 -0.84515521532E+01  0.29984467080E+03  0.30129123501E+03  0.00000000000E+00 0. -1.
<mgrwt>
<rscale>  1 0.65119333E+03</rscale>
<asrwt>0</asrwt>
<pdfrwt beam="1">  1       21 0.62562748E-01 0.65119333E+03</pdfrwt>
<pdfrwt beam="2">0</pdfrwt>
<totfact> 0.21619255E+02</totfact>
</mgrwt>
</event>
<event>
 6    1  0.1439793E-004  0.6281390E+03  0.7818608E-02  0.9848687E-01
         21   -1    0    0  501  502  0.00000000000E+00  0.00000000000E+00  0.34092987590E+03  0.34092987590E+03  0.00000000000E+00 0. -1.
         13   -1    0    0    0    0 -0.00000000000E+00 -0.00000000000E+00 -0.10000000000E+04  0.10000000000E+04  0.00000000000E+00 0.  1.
    9000005    2    1    2  501    0 -0.25304670290E+02  0.79219633875E+02 -0.89349212352E+03  0.10921935687E+04  0.62260946016E+03 0.  0.
         13    1    3    3    0    0 -0.53657022229E+02 -0.22756029471E+03 -0.12692372268E+03  0.26603081616E+03  0.00000000000E+00 0.  1.
          3    1    3    3  501    0  0.28352351939E+02  0.30677992859E+03 -0.76656840084E+03  0.82616275250E+03  0.00000000000E+00 0.  1.
         -3    1    1    2    0  502  0.25304670290E+02 -0.79219633875E+02  0.23442199942E+03  0.24873630725E+03  0.00000000000E+00 0. -1.
<mgrwt>
<rscale>  1 0.62813901E+03</rscale>
<asrwt>0</asrwt>
<pdfrwt beam="1">  1       21 0.52450749E-01 0.62813901E+03</pdfrwt>
<pdfrwt beam="2">0</pdfrwt>
<totfact> 0.31890495E+02</totfact>
</mgrwt>
</event>
<event>
 6    1  0.1439793E-004  0.6485794E+03  0.7818608E-02  0.9809449E-01
         21   -1    0    0  501  502  0.00000000000E+00  0.00000000000E+00  0.28839147695E+03  0.28839147695E+03  0.00000000000E+00 0. -1.
         13   -1    0    0    0    0 -0.00000000000E+00 -0.00000000000E+00 -0.10000000000E+04  0.10000000000E+04  0.00000000000E+00 0.  1.
    9000005    2    1    2  501    0  0.13096806943E+02 -0.24872371104E+02 -0.89364384352E+03  0.11041985914E+04  0.64796994448E+03 0.  0.
         13    1    3    3    0    0 -0.24290506108E+03 -0.88243986320E+02 -0.77135358307E+03  0.81349629375E+03  0.00000000000E+00 0.  1.
          3    1    3    3  501    0  0.25600186803E+03  0.63371615216E+02 -0.12229026045E+03  0.29070229763E+03  0.00000000000E+00 0.  1.
         -1    1    1    2    0  502 -0.13096806943E+02  0.24872371104E+02  0.18203532047E+03  0.18419288557E+03  0.00000000000E+00 0. -1.
<mgrwt>
<rscale>  1 0.64857938E+03</rscale>
<asrwt>0</asrwt>
<pdfrwt beam="1">  1       21 0.44367918E-01 0.64857938E+03</pdfrwt>
<pdfrwt beam="2">0</pdfrwt>
<totfact> 0.45475093E+02</totfact>
</mgrwt>
</event>
<event>
 6    1  0.1439793E-004  0.5611705E+03  0.7818608E-02  0.9989410E-01
         21   -1    0    0  501  502  0.00000000000E+00  0.00000000000E+00  0.27665604282E+03  0.27665604282E+03  0.00000000000E+00 0. -1.
         13   -1    0    0    0    0 -0.00000000000E+00 -0.00000000000E+00 -0.10000000000E+04  0.10000000000E+04  0.00000000000E+00 0.  1.
    9000005    2    1    2  501    0 -0.18089246887E+02 -0.18130876941E+02 -0.92037783165E+03  0.10779645804E+04  0.56058570625E+03 0.  0.
         13    1    3    3    0    0  0.13026696750E+03 -0.11797295834E+03 -0.40837481758E+02  0.18042949215E+03  0.00000000000E+00 0.  1.
          1    1    3    3  501    0 -0.14835621438E+03  0.99842081396E+02 -0.87954034989E+03  0.89753508825E+03  0.00000000000E+00 0.  1.
         -3    1    1    2    0  502  0.18089246887E+02  0.18130876941E+02  0.19703387447E+03  0.19869146242E+03  0.00000000000E+00 0. -1.
<mgrwt>
<rscale>  1 0.56117046E+03</rscale>
<asrwt>0</asrwt>
<pdfrwt beam="1">  1       21 0.42562467E-01 0.56117046E+03</pdfrwt>
<pdfrwt beam="2">0</pdfrwt>
<totfact> 0.50020603E+02</totfact>
</mgrwt>
</event>
<event>
 6    1  0.1439793E-004  0.6384585E+03  0.7818608E-02  0.9828680E-01
         21   -1    0    0  501  502  0.00000000000E+00  0.00000000000E+00  0.11398275743E+03  0.11398275743E+03  0.00000000000E+00 0.  1.
         13   -1    0    0    0    0 -0.00000000000E+00 -0.00000000000E+00 -0.10000000000E+04  0.10000000000E+04  0.00000000000E+00 0.  1.
    9000005    2    1    2  501    0  0.22804852759E+02 -0.24171532175E+01 -0.88469064757E+03  0.10910118238E+04  0.63804651379E+03 0.  0.
         13    1    3    3    0    0 -0.24358320188E+03  0.18243069549E+03 -0.52437759849E+03  0.60628838080E+03  0.00000000000E+00 0.  1.
          3    1    3    3  501    0  0.26638805464E+03 -0.18484784870E+03 -0.36031304908E+03  0.48472344297E+03  0.00000000000E+00 0.  1.
         -3    1    1    2    0  502 -0.22804852759E+02  0.24171532175E+01 -0.13265949999E+01  0.22970933662E+02  0.00000000000E+00 0. -1.
<mgrwt>
<rscale>  1 0.63845850E+03</rscale>
<asrwt>0</asrwt>
<pdfrwt beam="1">  1       21 0.17535808E-01 0.63845850E+03</pdfrwt>
<pdfrwt beam="2">0</pdfrwt>
<totfact> 0.28842166E+03</totfact>
</mgrwt>
</event>
<event>
 6    1  0.1439793E-004  0.7207859E+03  0.7818608E-02  0.9682331E-01
         21   -1    0    0  501  502  0.00000000000E+00  0.00000000000E+00  0.27399025718E+03  0.27399025718E+03  0.00000000000E+00 0. -1.
         13   -1    0    0    0    0 -0.00000000000E+00 -0.00000000000E+00 -0.10000000000E+04  0.10000000000E+04  0.00000000000E+00 0.  1.
    9000005    2    1    2  501    0  0.31390500966E+03  0.56710865380E+02 -0.56981512106E+03  0.91881531830E+03  0.64635890928E+03 0.  0.
         13    1    3    3    0    0 -0.14094433845E+03 -0.11602827005E+03 -0.32825346048E+03  0.37560378101E+03  0.00000000000E+00 0.  1.
          3    1    3    3  501    0  0.45484934810E+03  0.17273913543E+03 -0.24156166058E+03  0.54321153729E+03  0.00000000000E+00 0.  1.
         -1    1    1    2    0  502 -0.31390500966E+03 -0.56710865380E+02 -0.15619462176E+03  0.35517493888E+03  0.00000000000E+00 0. -1.
<mgrwt>
<rscale>  1 0.72078590E+03</rscale>
<asrwt>0</asrwt>
<pdfrwt beam="1">  1       21 0.42152346E-01 0.72078590E+03</pdfrwt>
<pdfrwt beam="2">0</pdfrwt>
<totfact> 0.50345132E+02</totfact>
</mgrwt>
</event>
<event>
 6    1  0.1439793E-004  0.6533517E+03  0.7818608E-02  0.9800510E-01
         21   -1    0    0  501  502  0.00000000000E+00  0.00000000000E+00  0.17737122268E+03  0.17737122268E+03  0.00000000000E+00 0. -1.
         13   -1    0    0    0    0 -0.00000000000E+00 -0.00000000000E+00 -0.10000000000E+04  0.10000000000E+04  0.00000000000E+00 0.  1.
    9000005    2    1    2  501    0  0.54712173320E+02 -0.34879072964E+02 -0.87637663436E+03  0.10931168235E+04  0.65012184472E+03 0.  0.
         13    1    3    3    0    0  0.18989273942E+02  0.33830730827E+02  0.10332030519E+03  0.11036392679E+03  0.00000000000E+00 0.  1.
          1    1    3    3  501    0  0.35722899377E+02 -0.68709803791E+02 -0.97969693955E+03  0.98275289673E+03  0.00000000000E+00 0.  1.
         -3    1    1    2    0  502 -0.54712173320E+02  0.34879072964E+02  0.53747857045E+02  0.84254399156E+02  0.00000000000E+00 0. -1.
<mgrwt>
<rscale>  1 0.65335165E+03</rscale>
<asrwt>0</asrwt>
<pdfrwt beam="1">  1       21 0.27287880E-01 0.65335165E+03</pdfrwt>
<pdfrwt beam="2">0</pdfrwt>
<totfact> 0.12252756E+03</totfact>
</mgrwt>
</event>
<event>
 6    1  0.1439793E-004  0.6828538E+03  0.7818608E-02  0.9747012E-01
         21   -1    0    0  501  502  0.00000000000E+00  0.00000000000E+00  0.61261886323E+03  0.61261886323E+03  0.00000000000E+00 0. -1.
         13   -1    0    0    0    0 -0.00000000000E+00 -0.00000000000E+00 -0.10000000000E+04  0.10000000000E+04  0.00000000000E+00 0.  1.
    9000005    2    1    2  501    0 -0.52877953999E+02 -0.85462031350E+01 -0.88181231863E+03  0.11152947142E+04  0.68074974744E+03 0.  0.
         13    1    3    3    0    0  0.26479397280E+03 -0.91075201278E+02 -0.16034537452E+03  0.32267813600E+03  0.00000000000E+00 0.  1.
          3    1    3    3  501    0 -0.31767192680E+03  0.82528998143E+02 -0.72146694411E+03  0.79261657821E+03  0.00000000000E+00 0.  1.
         -3    1    1    2    0  502  0.52877953999E+02  0.85462031350E+01  0.49443118186E+03  0.49732414902E+03  0.00000000000E+00 0. -1.
<mgrwt>
<rscale>  1 0.68285382E+03</rscale>
<asrwt>0</asrwt>
<pdfrwt beam="1">  1       21 0.94249053E-01 0.68285382E+03</pdfrwt>
<pdfrwt beam="2">0</pdfrwt>
<totfact> 0.83371867E+01</totfact>
</mgrwt>
</event>
<event>
 6    1  0.1439793E-004  0.6487074E+03  0.7818608E-02  0.9809208E-01
         21   -1    0    0  501  502  0.00000000000E+00  0.00000000000E+00  0.23361254286E+03  0.23361254286E+03  0.00000000000E+00 0. -1.
         13   -1    0    0    0    0 -0.00000000000E+00 -0.00000000000E+00 -0.10000000000E+04  0.10000000000E+04  0.00000000000E+00 0.  1.
    9000005    2    1    2  501    0  0.26101197786E+02 -0.46605603175E+02 -0.88862330365E+03  0.11002148032E+04  0.64650435623E+03 0.  0.
         13    1    3    3    0    0 -0.81408366439E+02  0.15785513146E+03  0.45334979284E+01  0.17766856013E+03  0.00000000000E+00 0.  1.
          1    1    3    3  501    0  0.10750956422E+03 -0.20446073463E+03 -0.89315680158E+03  0.92254624308E+03  0.00000000000E+00 0.  1.
         -3    1    1    2    0  502 -0.26101197786E+02  0.46605603175E+02  0.12223584651E+03  0.13339773965E+03  0.00000000000E+00 0. -1.
<mgrwt>
<rscale>  1 0.64870736E+03</rscale>
<asrwt>0</asrwt>
<pdfrwt beam="1">  1       21 0.35940390E-01 0.64870736E+03</pdfrwt>
<pdfrwt beam="2">0</pdfrwt>
<totfact> 0.70413473E+02</totfact>
</mgrwt>
</event>
<event>
 6    1  0.1439793E-004  0.6596938E+03  0.7818608E-02  0.9788758E-01
         21   -1    0    0  501  502  0.00000000000E+00  0.00000000000E+00  0.15080022780E+03  0.15080022780E+03  0.00000000000E+00 0.  1.
         13   -1    0    0    0    0 -0.00000000000E+00 -0.00000000000E+00 -0.10000000000E+04  0.10000000000E+04  0.00000000000E+00 0.  1.
    9000005    2    1    2  501    0  0.11911218886E+02 -0.89585343110E+02 -0.82672830311E+03  0.10576746257E+04  0.65347418918E+03 0.  0.
         13    1    3    3    0    0  0.13031596395E+03  0.49455152675E+02 -0.86070300012E+03  0.87191611810E+03  0.00000000000E+00 0.  1.
          3    1    3    3  501    0 -0.11840474506E+03 -0.13904049579E+03  0.33974697011E+02  0.18575850764E+03  0.00000000000E+00 0.  1.
         -1    1    1    2    0  502 -0.11911218886E+02  0.89585343110E+02 -0.22471469094E+02  0.93125602059E+02  0.00000000000E+00 0. -1.
<mgrwt>
<rscale>  1 0.65969381E+03</rscale>
<asrwt>0</asrwt>
<pdfrwt beam="1">  1       21 0.23200034E-01 0.65969381E+03</pdfrwt>
<pdfrwt beam="2">0</pdfrwt>
<totfact> 0.16841562E+03</totfact>
</mgrwt>
</event>
<event>
 6    1  0.1439793E-004  0.6283609E+03  0.7818608E-02  0.9848253E-01
         21   -1    0    0  501  502  0.00000000000E+00  0.00000000000E+00  0.13703951837E+03  0.13703951837E+03  0.00000000000E+00 0.  1.
         13   -1    0    0    0    0 -0.00000000000E+00 -0.00000000000E+00 -0.10000000000E+04  0.10000000000E+04  0.00000000000E+00 0.  1.
    9000005    2    1    2  501    0 -0.33523369331E+02  0.94218697152E+01 -0.89240847265E+03  0.10914350000E+04  0.62739532135E+03 0.  0.
         13    1    3    3    0    0 -0.17664272799E+03 -0.36133341637E+02 -0.92105200196E+03  0.93853346347E+03  0.00000000000E+00 0.  1.
          3    1    3    3  501    0  0.14311935866E+03  0.45555211352E+02  0.28643529308E+02  0.15290153654E+03  0.00000000000E+00 0.  1.
         -1    1    1    2    0  502  0.33523369331E+02 -0.94218697152E+01  0.29447991024E+02  0.45604518368E+02  0.00000000000E+00 0. -1.
<mgrwt>
<rscale>  1 0.62836094E+03</rscale>
<asrwt>0</asrwt>
<pdfrwt beam="1">  1       21 0.21083002E-01 0.62836094E+03</pdfrwt>
<pdfrwt beam="2">0</pdfrwt>
<totfact> 0.20297723E+03</totfact>
</mgrwt>
</event>
<event>
 6    1  0.1439793E-004  0.6522331E+03  0.7818608E-02  0.9802598E-01
         21   -1    0    0  501  502  0.00000000000E+00  0.00000000000E+00  0.11860743014E+03  0.11860743014E+03  0.00000000000E+00 0.  1.
         13   -1    0    0    0    0 -0.00000000000E+00 -0.00000000000E+00 -0.10000000000E+04  0.10000000000E+04  0.00000000000E+00 0.  1.
    9000005    2    1    2  501    0  0.24582031728E+02 -0.77593877957E+00 -0.87804331564E+03  0.10937861516E+04  0.65176928657E+03 0.  0.
         13    1    3    3    0    0  0.14429364928E+03 -0.27563553459E+03 -0.63768178125E+03  0.70953059080E+03  0.00000000000E+00 0.  1.
          3    1    3    3  501    0 -0.11971161755E+03  0.27485959581E+03 -0.24036153439E+03  0.38425556079E+03  0.00000000000E+00 0.  1.
         -3    1    1    2    0  502 -0.24582031728E+02  0.77593877957E+00 -0.33492542225E+01  0.24821278547E+02  0.00000000000E+00 0. -1.
<mgrwt>
<rscale>  1 0.65223315E+03</rscale>
<asrwt>0</asrwt>
<pdfrwt beam="1">  1       21 0.18247296E-01 0.65223315E+03</pdfrwt>
<pdfrwt beam="2">0</pdfrwt>
<totfact> 0.26734758E+03</totfact>
</mgrwt>
</event>
<event>
 6    1  0.1439793E-004  0.6669998E+03  0.7818608E-02  0.9775393E-01
         21   -1    0    0  501  502  0.00000000000E+00  0.00000000000E+00  0.25278394013E+03  0.25278394013E+03  0.00000000000E+00 0.  1.
         13   -1    0    0    0    0 -0.00000000000E+00 -0.00000000000E+00 -0.10000000000E+04  0.10000000000E+04  0.00000000000E+00 0.  1.
    9000005    2    1    2  501    0 -0.49056227591E+02 -0.37633771747E+02 -0.88123015404E+03  0.11051946733E+04  0.66412789981E+03 0.  0.
         13    1    3    3    0    0  0.69785313249E+02  0.19879492221E+03 -0.80164537972E+03  0.82886954696E+03  0.00000000000E+00 0.  1.
          3    1    3    3  501    0 -0.11884154084E+03 -0.23642869396E+03 -0.79584774315E+02  0.27632512636E+03  0.00000000000E+00 0.  1.
         -3    1    1    2    0  502  0.49056227591E+02  0.37633771747E+02  0.13401409417E+03  0.14758926681E+03  0.00000000000E+00 0. -1.
<mgrwt>
<rscale>  1 0.66699976E+03</rscale>
<asrwt>0</asrwt>
<pdfrwt beam="1">  1       21 0.38889836E-01 0.66699976E+03</pdfrwt>
<pdfrwt beam="2">0</pdfrwt>
<totfact> 0.59787279E+02</totfact>
</mgrwt>
</event>
<event>
 6    1  0.1439793E-004  0.6538619E+03  0.7818608E-02  0.9799559E-01
         21   -1    0    0  501  502  0.00000000000E+00  0.00000000000E+00  0.19632853442E+03  0.19632853442E+03  0.00000000000E+00 0. -1.
         13   -1    0    0    0    0 -0.00000000000E+00 -0.00000000000E+00 -0.10000000000E+04  0.10000000000E+04  0.00000000000E+00 0.  1.
    9000005    2    1    2  501    0 -0.54984084336E+02 -0.10112915421E+03 -0.84986967119E+03  0.10722937427E+04  0.64364979392E+03 0.  0.
         13    1    3    3    0    0  0.10340470877E+03  0.15586361396E+03 -0.18673630784E+02  0.18797527614E+03  0.00000000000E+00 0.  1.
          1    1    3    3  501    0 -0.15838879311E+03 -0.25699276817E+03 -0.83119604040E+03  0.88431846653E+03  0.00000000000E+00 0.  1.
         -1    1    1    2    0  502  0.54984084336E+02  0.10112915421E+03  0.46198205604E+02  0.12403479174E+03  0.00000000000E+00 0. -1.
<mgrwt>
<rscale>  1 0.65386192E+03</rscale>
<asrwt>0</asrwt>
<pdfrwt beam="1">  1       21 0.30204389E-01 0.65386192E+03</pdfrwt>
<pdfrwt beam="2">0</pdfrwt>
<totfact> 0.10008445E+03</totfact>
</mgrwt>
</event>
<event>
 6    1  0.1439793E-004  0.6533485E+03  0.7818608E-02  0.9800516E-01
         21   -1    0    0  501  502  0.00000000000E+00  0.00000000000E+00  0.19021971272E+03  0.19021971272E+03  0.00000000000E+00 0.  1.
         13   -1    0    0    0    0 -0.00000000000E+00 -0.00000000000E+00 -0.10000000000E+04  0.10000000000E+04  0.00000000000E+00 0.  1.
    9000005    2    1    2  501    0 -0.16290709748E+02  0.30286192881E+02 -0.88934607566E+03  0.11035400993E+04  0.65244284635E+03 0.  0.
         13    1    3    3    0    0 -0.32596957701E+03  0.67831592987E+02 -0.37037814096E+03  0.49803338989E+03  0.00000000000E+00 0.  1.
          3    1    3    3  501    0  0.30967886726E+03 -0.37545400107E+02 -0.51896793470E+03  0.60550670941E+03  0.00000000000E+00 0.  1.
         -1    1    1    2    0  502  0.16290709748E+02 -0.30286192881E+02  0.79565788384E+02  0.86679613430E+02  0.00000000000E+00 0. -1.
<mgrwt>
<rscale>  1 0.65334854E+03</rscale>
<asrwt>0</asrwt>
<pdfrwt beam="1">  1       21 0.29264570E-01 0.65334854E+03</pdfrwt>
<pdfrwt beam="2">0</pdfrwt>
<totfact> 0.10661961E+03</totfact>
</mgrwt>
</event>
<event>
 6    1  0.1439793E-004  0.6955525E+03  0.7818608E-02  0.9724868E-01
         21   -1    0    0  501  502  0.00000000000E+00  0.00000000000E+00  0.12985632531E+03  0.12985632531E+03  0.00000000000E+00 0.  1.
         13   -1    0    0    0    0 -0.00000000000E+00 -0.00000000000E+00 -0.10000000000E+04  0.10000000000E+04  0.00000000000E+00 0.  1.
    9000005    2    1    2  501    0  0.85031773235E+01 -0.18365571901E+02 -0.86297468702E+03  0.11083855861E+04  0.69525800886E+03 0.  0.
         13    1    3    3    0    0 -0.39408200831E+02  0.17215814324E+03  0.42657984018E+02  0.18168966998E+03  0.00000000000E+00 0.  1.
          1    1    3    3  501    0  0.47911378155E+02 -0.19052371514E+03 -0.90563267104E+03  0.92669591616E+03  0.00000000000E+00 0.  1.
         -1    1    1    2    0  502 -0.85031773235E+01  0.18365571901E+02 -0.71689876744E+01  0.21470739161E+02  0.00000000000E+00 0. -1.
<mgrwt>
<rscale>  1 0.69555251E+03</rscale>
<asrwt>0</asrwt>
<pdfrwt beam="1">  1       21 0.19977896E-01 0.69555251E+03</pdfrwt>
<pdfrwt beam="2">0</pdfrwt>
<totfact> 0.22451409E+03</totfact>
</mgrwt>
</event>
<event>
 6    1  0.1439793E-004  0.6818705E+03  0.7818608E-02  0.9748748E-01
         21   -1    0    0  501  502  0.00000000000E+00  0.00000000000E+00  0.22258795329E+03  0.22258795329E+03  0.00000000000E+00 0. -1.
         13   -1    0    0    0    0 -0.00000000000E+00 -0.00000000000E+00 -0.10000000000E+04  0.10000000000E+04  0.00000000000E+00 0.  1.
    9000005    2    1    2  501    0  0.21175966228E+03  0.60524964358E+02 -0.72684129712E+03  0.99661709988E+03  0.64532313354E+03 0.  0.
         13    1    3    3    0    0  0.34339702444E+03  0.12468964464E+03 -0.76284433778E+03  0.84581351819E+03  0.00000000000E+00 0.  1.
          1    1    3    3  501    0 -0.13163736216E+03 -0.64164680280E+02  0.36003040660E+02  0.15080358168E+03  0.00000000000E+00 0.  1.
         -3    1    1    2    0  502 -0.21175966228E+03 -0.60524964358E+02 -0.50570749590E+02  0.22597085341E+03  0.00000000000E+00 0. -1.
<mgrwt>
<rscale>  1 0.68187050E+03</rscale>
<asrwt>0</asrwt>
<pdfrwt beam="1">  1       21 0.34244300E-01 0.68187050E+03</pdfrwt>
<pdfrwt beam="2">0</pdfrwt>
<totfact> 0.77530792E+02</totfact>
</mgrwt>
</event>
<event>
 6    1  0.1439793E-004  0.6497483E+03  0.7818608E-02  0.9807252E-01
         21   -1    0    0  501  502  0.00000000000E+00  0.00000000000E+00  0.21393635842E+03  0.21393635842E+03  0.00000000000E+00 0. -1.
         13   -1    0    0    0    0 -0.00000000000E+00 -0.00000000000E+00 -0.10000000000E+04  0.10000000000E+04  0.00000000000E+00 0.  1.
    9000005    2    1    2  501    0 -0.14072038147E+02  0.21794813543E+02 -0.89273780007E+03  0.11041528795E+04  0.64923013290E+03 0.  0.
         13    1    3    3    0    0  0.22026406695E+03  0.73075033538E+02 -0.82189374342E+03  0.85402900723E+03  0.00000000000E+00 0.  1.
          3    1    3    3  501    0 -0.23433610510E+03 -0.51280219995E+02 -0.70844056657E+02  0.25012387227E+03  0.00000000000E+00 0.  1.
         -3    1    1    2    0  502  0.14072038147E+02 -0.21794813543E+02  0.10667415849E+03  0.10978347893E+03  0.00000000000E+00 0. -1.
<mgrwt>
<rscale>  1 0.64974826E+03</rscale>
<asrwt>0</asrwt>
<pdfrwt beam="1">  1       21 0.32913285E-01 0.64974826E+03</pdfrwt>
<pdfrwt beam="2">0</pdfrwt>
<totfact> 0.84211454E+02</totfact>
</mgrwt>
</event>
<event>
 6    1  0.1439793E-004  0.6494466E+03  0.7818608E-02  0.9807818E-01
         21   -1    0    0  501  502  0.00000000000E+00  0.00000000000E+00  0.16341211824E+03  0.16341211824E+03  0.00000000000E+00 0.  1.
         13   -1    0    0    0    0 -0.00000000000E+00 -0.00000000000E+00 -0.10000000000E+04  0.10000000000E+04  0.00000000000E+00 0.  1.
    9000005    2    1    2  501    0 -0.52041272034E+02 -0.21386556040E+02 -0.87904057763E+03  0.10929287148E+04  0.64700476020E+03 0.  0.
         13    1    3    3    0    0  0.19601780991E+03  0.54188656110E+02 -0.30494892776E+02  0.20564369851E+03  0.00000000000E+00 0.  1.
          1    1    3    3  501    0 -0.24805908194E+03 -0.75575212150E+02 -0.84854568486E+03  0.88728501628E+03  0.00000000000E+00 0.  1.
         -1    1    1    2    0  502  0.52041272034E+02  0.21386556040E+02  0.42452695874E+02  0.70483403445E+02  0.00000000000E+00 0. -1.
<mgrwt>
<rscale>  1 0.64944656E+03</rscale>
<asrwt>0</asrwt>
<pdfrwt beam="1">  1       21 0.25140325E-01 0.64944656E+03</pdfrwt>
<pdfrwt beam="2">0</pdfrwt>
<totfact> 0.14403203E+03</totfact>
</mgrwt>
</event>
<event>
 6    1  0.1439793E-004  0.6588382E+03  0.7818608E-02  0.9790335E-01
         21   -1    0    0  501  502  0.00000000000E+00  0.00000000000E+00  0.16063727968E+03  0.16063727968E+03  0.00000000000E+00 0.  1.
         13   -1    0    0    0    0 -0.00000000000E+00 -0.00000000000E+00 -0.10000000000E+04  0.10000000000E+04  0.00000000000E+00 0.  1.
    9000005    2    1    2  501    0 -0.42958797957E+02 -0.38039759284E+02 -0.87331911508E+03  0.10939625592E+04  0.65633476407E+03 0.  0.
         13    1    3    3    0    0 -0.56540269418E+02 -0.29146578258E+03 -0.76016879730E+03  0.81609172577E+03  0.00000000000E+00 0.  1.
          1    1    3    3  501    0  0.13581471461E+02  0.25342602329E+03 -0.11315031778E+03  0.27787083341E+03  0.00000000000E+00 0.  1.
         -1    1    1    2    0  502  0.42958797957E+02  0.38039759284E+02  0.33956394764E+02  0.66674720500E+02  0.00000000000E+00 0. -1.
<mgrwt>
<rscale>  1 0.65883822E+03</rscale>
<asrwt>0</asrwt>
<pdfrwt beam="1">  1       21 0.24713427E-01 0.65883822E+03</pdfrwt>
<pdfrwt beam="2">0</pdfrwt>
<totfact> 0.14887642E+03</totfact>
</mgrwt>
</event>
<event>
 6    1  0.1439793E-004  0.5151791E+03  0.7818608E-02  0.1009891E+00
         21   -1    0    0  501  502  0.00000000000E+00  0.00000000000E+00  0.94021210439E+02  0.94021210439E+02  0.00000000000E+00 0.  1.
         13   -1    0    0    0    0 -0.00000000000E+00 -0.00000000000E+00 -0.10000000000E+04  0.10000000000E+04  0.00000000000E+00 0.  1.
    9000005    2    1    2  501    0 -0.27044306087E+02  0.18541046748E+02 -0.92302584660E+03  0.10570649246E+04  0.51413458987E+03 0.  0.
         13    1    3    3    0    0  0.10539556601E+03  0.72260125179E+02 -0.48999408742E+01  0.12788182219E+03  0.00000000000E+00 0.  1.
          1    1    3    3  501    0 -0.13243987210E+03 -0.53719078431E+02 -0.91812590573E+03  0.92918310245E+03  0.00000000000E+00 0.  1.
         -1    1    1    2    0  502  0.27044306087E+02 -0.18541046748E+02  0.17047057040E+02  0.36956285798E+02  0.00000000000E+00 0. -1.
<mgrwt>
<rscale>  1 0.51517914E+03</rscale>
<asrwt>0</asrwt>
<pdfrwt beam="1">  1       21 0.14464801E-01 0.51517914E+03</pdfrwt>
<pdfrwt beam="2">0</pdfrwt>
<totfact> 0.41516469E+03</totfact>
</mgrwt>
</event>
<event>
 6    1  0.1439793E-004  0.6626951E+03  0.7818608E-02  0.9783245E-01
         21   -1    0    0  501  502  0.00000000000E+00  0.00000000000E+00  0.17079822162E+03  0.17079822162E+03  0.00000000000E+00 0.  1.
         13   -1    0    0    0    0 -0.00000000000E+00 -0.00000000000E+00 -0.10000000000E+04  0.10000000000E+04  0.00000000000E+00 0.  1.
    9000005    2    1    2  501    0  0.96195198864E+02  0.13145854324E+03 -0.68752574138E+03  0.95491175995E+03  0.64236279418E+03 0.  0.
         13    1    3    3    0    0  0.32860465792E+02  0.36543870719E+03 -0.58754678890E+03  0.69270230841E+03  0.00000000000E+00 0.  1.
          1    1    3    3  501    0  0.63334733072E+02 -0.23398016395E+03 -0.99978952480E+02  0.26220945154E+03  0.00000000000E+00 0.  1.
         -1    1    1    2    0  502 -0.96195198864E+02 -0.13145854324E+03 -0.14167603700E+03  0.21588646168E+03  0.00000000000E+00 0. -1.
<mgrwt>
<rscale>  1 0.66269512E+03</rscale>
<asrwt>0</asrwt>
<pdfrwt beam="1">  1       21 0.26276649E-01 0.66269512E+03</pdfrwt>
<pdfrwt beam="2">0</pdfrwt>
<totfact> 0.13194775E+03</totfact>
</mgrwt>
</event>
<event>
 6    1  0.1439793E-004  0.6886122E+03  0.7818608E-02  0.9736907E-01
         21   -1    0    0  501  502  0.00000000000E+00  0.00000000000E+00  0.35016665036E+03  0.35016665036E+03  0.00000000000E+00 0. -1.
         13   -1    0    0    0    0 -0.00000000000E+00 -0.00000000000E+00 -0.10000000000E+04  0.10000000000E+04  0.00000000000E+00 0.  1.
    9000005    2    1    2  501    0 -0.46475695703E+02  0.11062809831E+02 -0.87869355271E+03  0.11163732189E+04  0.68695300291E+03 0.  0.
         13    1    3    3    0    0  0.10286933326E+03 -0.46685918879E+02 -0.93862865527E+03  0.94540225684E+03  0.00000000000E+00 0.  1.
          3    1    3    3  501    0 -0.14934502896E+03  0.57748728710E+02  0.59935102559E+02  0.17097096204E+03  0.00000000000E+00 0.  1.
         -1    1    1    2    0  502  0.46475695703E+02 -0.11062809831E+02  0.22886020307E+03  0.23379343148E+03  0.00000000000E+00 0. -1.
<mgrwt>
<rscale>  1 0.68861223E+03</rscale>
<asrwt>0</asrwt>
<pdfrwt beam="1">  1       21 0.53871791E-01 0.68861223E+03</pdfrwt>
<pdfrwt beam="2">0</pdfrwt>
<totfact> 0.29918534E+02</totfact>
</mgrwt>
</event>
<event>
 6    1  0.1439793E-004  0.5115480E+03  0.7818608E-02  0.1010808E+00
         21   -1    0    0  501  502  0.00000000000E+00  0.00000000000E+00  0.82738473756E+02  0.82738473756E+02  0.00000000000E+00 0.  1.
         13   -1    0    0    0    0 -0.00000000000E+00 -0.00000000000E+00 -0.10000000000E+04  0.10000000000E+04  0.00000000000E+00 0.  1.
    9000005    2    1    2  501    0 -0.22833770135E+01 -0.30851184902E+02 -0.91897152906E+03  0.10517556797E+04  0.51061172045E+03 0.  0.
         13    1    3    3    0    0  0.20287497110E+03  0.13663514470E+03 -0.48903989247E+03  0.54679743333E+03  0.00000000000E+00 0.  1.
          1    1    3    3  501    0 -0.20515834811E+03 -0.16748632960E+03 -0.42993163658E+03  0.50495824633E+03  0.00000000000E+00 0.  1.
         -1    1    1    2    0  502  0.22833770135E+01  0.30851184902E+02  0.17100028123E+01  0.30982794097E+02  0.00000000000E+00 0. -1.
<mgrwt>
<rscale>  1 0.51154798E+03</rscale>
<asrwt>0</asrwt>
<pdfrwt beam="1">  1       21 0.12728996E-01 0.51154798E+03</pdfrwt>
<pdfrwt beam="2">0</pdfrwt>
<totfact> 0.52564768E+03</totfact>
</mgrwt>
</event>
<event>
 6    1  0.1439793E-004  0.6562762E+03  0.7818608E-02  0.9795073E-01
         21   -1    0    0  501  502  0.00000000000E+00  0.00000000000E+00  0.16244907487E+03  0.16244907487E+03  0.00000000000E+00 0. -1.
         13   -1    0    0    0    0 -0.00000000000E+00 -0.00000000000E+00 -0.10000000000E+04  0.10000000000E+04  0.00000000000E+00 0.  1.
    9000005    2    1    2  501    0 -0.25490705302E+02  0.96039555699E+02 -0.83632134998E+03  0.10630766231E+04  0.64871036206E+03 0.  0.
         13    1    3    3    0    0  0.94927594574E+02  0.61616950716E+02  0.79772485381E+02  0.13846135291E+03  0.00000000000E+00 0.  1.
          3    1    3    3  501    0 -0.12041829988E+03  0.34422604983E+02 -0.91609383536E+03  0.92461527018E+03  0.00000000000E+00 0.  1.
         -3    1    1    2    0  502  0.25490705302E+02 -0.96039555699E+02 -0.12295751547E+01  0.99372451770E+02  0.00000000000E+00 0. -1.
<mgrwt>
<rscale>  1 0.65627624E+03</rscale>
<asrwt>0</asrwt>
<pdfrwt beam="1">  1       21 0.24992165E-01 0.65627624E+03</pdfrwt>
<pdfrwt beam="2">0</pdfrwt>
<totfact> 0.14565940E+03</totfact>
</mgrwt>
</event>
<event>
 6    1  0.1439793E-004  0.6448206E+03  0.7818608E-02  0.9816547E-01
         21   -1    0    0  501  502  0.00000000000E+00  0.00000000000E+00  0.12259402994E+03  0.12259402994E+03  0.00000000000E+00 0.  1.
         13   -1    0    0    0    0 -0.00000000000E+00 -0.00000000000E+00 -0.10000000000E+04  0.10000000000E+04  0.00000000000E+00 0.  1.
    9000005    2    1    2  501    0 -0.37018629898E+02  0.99995118744E+01 -0.87100610849E+03  0.10837182351E+04  0.64367942553E+03 0.  0.
         13    1    3    3    0    0  0.97760858940E+02  0.12655405463E+03  0.32181146662E+02  0.16312185778E+03  0.00000000000E+00 0.  1.
          1    1    3    3  501    0 -0.13477948884E+03 -0.11655454276E+03 -0.90318725515E+03  0.92059637731E+03  0.00000000000E+00 0.  1.
         -3    1    1    2    0  502  0.37018629898E+02 -0.99995118744E+01 -0.63998615701E+01  0.38875794852E+02  0.00000000000E+00 0. -1.
<mgrwt>
<rscale>  1 0.64482057E+03</rscale>
<asrwt>0</asrwt>
<pdfrwt beam="1">  1       21 0.18860619E-01 0.64482057E+03</pdfrwt>
<pdfrwt beam="2">0</pdfrwt>
<totfact> 0.25111243E+03</totfact>
</mgrwt>
</event>
<event>
 6    1  0.1439793E-004  0.6539716E+03  0.7818608E-02  0.9799355E-01
         21   -1    0    0  501  502  0.00000000000E+00  0.00000000000E+00  0.19762856486E+03  0.19762856486E+03  0.00000000000E+00 0. -1.
         13   -1    0    0    0    0 -0.00000000000E+00 -0.00000000000E+00 -0.10000000000E+04  0.10000000000E+04  0.00000000000E+00 0.  1.
    9000005    2    1    2  501    0  0.19563908827E+01 -0.23211521736E+02 -0.89142178093E+03  0.11055820207E+04  0.65355658575E+03 0.  0.
         13    1    3    3    0    0  0.26005167397E+03  0.18648834854E+03 -0.40081286460E+03  0.51288958822E+03  0.00000000000E+00 0.  1.
          3    1    3    3  501    0 -0.25809528308E+03 -0.20969987027E+03 -0.49060891633E+03  0.59269243248E+03  0.00000000000E+00 0.  1.
         -3    1    1    2    0  502 -0.19563908827E+01  0.23211521736E+02  0.89050345784E+02  0.92046544154E+02  0.00000000000E+00 0. -1.
<mgrwt>
<rscale>  1 0.65397157E+03</rscale>
<asrwt>0</asrwt>
<pdfrwt beam="1">  1       21 0.30404394E-01 0.65397157E+03</pdfrwt>
<pdfrwt beam="2">0</pdfrwt>
<totfact> 0.98768426E+02</totfact>
</mgrwt>
</event>
<event>
 6    1  0.1439793E-004  0.6509303E+03  0.7818608E-02  0.9805035E-01
         21   -1    0    0  501  502  0.00000000000E+00  0.00000000000E+00  0.21611923172E+03  0.21611923172E+03  0.00000000000E+00 0.  1.
         13   -1    0    0    0    0 -0.00000000000E+00 -0.00000000000E+00 -0.10000000000E+04  0.10000000000E+04  0.00000000000E+00 0.  1.
    9000005    2    1    2  501    0  0.21069998315E+02  0.49813014495E+02 -0.88668009123E+03  0.10999599358E+04  0.64867942378E+03 0.  0.
         13    1    3    3    0    0 -0.11828190861E+03 -0.19092580745E+03 -0.67012795875E+02  0.23438000910E+03  0.00000000000E+00 0.  1.
          1    1    3    3  501    0  0.13935190692E+03  0.24073882195E+03 -0.81966729535E+03  0.86557992665E+03  0.00000000000E+00 0.  1.
         -3    1    1    2    0  502 -0.21069998315E+02 -0.49813014495E+02  0.10279932295E+03  0.11615929597E+03  0.00000000000E+00 0. -1.
<mgrwt>
<rscale>  1 0.65093032E+03</rscale>
<asrwt>0</asrwt>
<pdfrwt beam="1">  1       21 0.33249112E-01 0.65093032E+03</pdfrwt>
<pdfrwt beam="2">0</pdfrwt>
<totfact> 0.82491184E+02</totfact>
</mgrwt>
</event>
<event>
 6    1  0.1439793E-004  0.6506921E+03  0.7818608E-02  0.9805481E-01
         21   -1    0    0  501  502  0.00000000000E+00  0.00000000000E+00  0.14135083519E+03  0.14135083519E+03  0.00000000000E+00 0.  1.
         13   -1    0    0    0    0 -0.00000000000E+00 -0.00000000000E+00 -0.10000000000E+04  0.10000000000E+04  0.00000000000E+00 0.  1.
    9000005    2    1    2  501    0 -0.72491742922E+01 -0.20734120985E+02 -0.89035260647E+03  0.11027819032E+04  0.65032123440E+03 0.  0.
         13    1    3    3    0    0 -0.77509287517E+02  0.27215252620E+03 -0.19120974646E+03  0.34151991788E+03  0.00000000000E+00 0.  1.
          3    1    3    3  501    0  0.70260113225E+02 -0.29288664719E+03 -0.69914286001E+03  0.76126198533E+03  0.00000000000E+00 0.  1.
         -1    1    1    2    0  502  0.72491742922E+01  0.20734120985E+02  0.31703441657E+02  0.38568931977E+02  0.00000000000E+00 0. -1.
<mgrwt>
<rscale>  1 0.65069206E+03</rscale>
<asrwt>0</asrwt>
<pdfrwt beam="1">  1       21 0.21746282E-01 0.65069206E+03</pdfrwt>
<pdfrwt beam="2">0</pdfrwt>
<totfact> 0.19101427E+03</totfact>
</mgrwt>
</event>
<event>
 6    1  0.1439793E-004  0.7581288E+03  0.7818608E-02  0.9622683E-01
         21   -1    0    0  501  502  0.00000000000E+00  0.00000000000E+00  0.36601481133E+03  0.36601481133E+03  0.00000000000E+00 0. -1.
         13   -1    0    0    0    0 -0.00000000000E+00 -0.00000000000E+00 -0.10000000000E+04  0.10000000000E+04  0.00000000000E+00 0.  1.
    9000005    2    1    2  501    0  0.33267789544E+03  0.21693339643E+03 -0.60107194136E+03  0.96749509733E+03  0.64577442197E+03 0.  0.
         13    1    3    3    0    0  0.35855955442E+03  0.10417552264E+03 -0.18819553130E+02  0.37386049426E+03  0.00000000000E+00 0.  1.
          3    1    3    3  501    0 -0.25881658981E+02  0.11275787379E+03 -0.58225238822E+03  0.59363460307E+03  0.00000000000E+00 0.  1.
         -3    1    1    2    0  502 -0.33267789544E+03 -0.21693339643E+03 -0.32913247311E+02  0.39851971400E+03  0.00000000000E+00 0. -1.
<mgrwt>
<rscale>  1 0.75812880E+03</rscale>
<asrwt>0</asrwt>
<pdfrwt beam="1">  1       21 0.56309969E-01 0.75812880E+03</pdfrwt>
<pdfrwt beam="2">0</pdfrwt>
<totfact> 0.26992979E+02</totfact>
</mgrwt>
</event>
<event>
 6    1  0.1439793E-004  0.6508352E+03  0.7818608E-02  0.9805213E-01
         21   -1    0    0  501  502  0.00000000000E+00  0.00000000000E+00  0.62699457236E+03  0.62699457236E+03  0.00000000000E+00 0. -1.
         13   -1    0    0    0    0 -0.00000000000E+00 -0.00000000000E+00 -0.10000000000E+04  0.10000000000E+04  0.00000000000E+00 0.  1.
    9000005    2    1    2  501    0 -0.30232301019E+02  0.31278524086E+02 -0.89309911901E+03  0.11050848236E+04  0.64937977545E+03 0.  0.
         13    1    3    3    0    0  0.21685807678E+03 -0.39803688075E+02 -0.53331940059E+02  0.22683927102E+03  0.00000000000E+00 0.  1.
          3    1    3    3  501    0 -0.24709037780E+03  0.71082212161E+02 -0.83976717896E+03  0.87824555253E+03  0.00000000000E+00 0.  1.
         -3    1    1    2    0  502  0.30232301019E+02 -0.31278524086E+02  0.52009369138E+03  0.52190974881E+03  0.00000000000E+00 0. -1.
<mgrwt>
<rscale>  1 0.65083518E+03</rscale>
<asrwt>0</asrwt>
<pdfrwt beam="1">  1       21 0.96460701E-01 0.65083518E+03</pdfrwt>
<pdfrwt beam="2">0</pdfrwt>
<totfact> 0.79175222E+01</totfact>
</mgrwt>
</event>
<event>
 6    1  0.1439793E-004  0.5689961E+03  0.7818608E-02  0.9971902E-01
         21   -1    0    0  501  502  0.00000000000E+00  0.00000000000E+00  0.12870873134E+03  0.12870873134E+03  0.00000000000E+00 0.  1.
         13   -1    0    0    0    0 -0.00000000000E+00 -0.00000000000E+00 -0.10000000000E+04  0.10000000000E+04  0.00000000000E+00 0.  1.
    9000005    2    1    2  501    0 -0.17684669293E+02  0.74921069773E+02 -0.88339579415E+03  0.10507829092E+04  0.56376473715E+03 0.  0.
         13    1    3    3    0    0 -0.27305155393E+03  0.11172202489E+03 -0.34629714533E+03  0.45492930749E+03  0.00000000000E+00 0.  1.
          1    1    3    3  501    0  0.25536688464E+03 -0.36800955122E+02 -0.53709864882E+03  0.59585360167E+03  0.00000000000E+00 0.  1.
         -1    1    1    2    0  502  0.17684669293E+02 -0.74921069773E+02  0.12104525484E+02  0.77925822171E+02  0.00000000000E+00 0. -1.
<mgrwt>
<rscale>  1 0.56899613E+03</rscale>
<asrwt>0</asrwt>
<pdfrwt beam="1">  1       21 0.19801343E-01 0.56899613E+03</pdfrwt>
<pdfrwt beam="2">0</pdfrwt>
<totfact> 0.22952036E+03</totfact>
</mgrwt>
</event>
<event>
 6    1  0.1439793E-004  0.6456183E+03  0.7818608E-02  0.9815036E-01
         21   -1    0    0  501  502  0.00000000000E+00  0.00000000000E+00  0.15835386517E+03  0.15835386517E+03  0.00000000000E+00 0.  1.
         13   -1    0    0    0    0 -0.00000000000E+00 -0.00000000000E+00 -0.10000000000E+04  0.10000000000E+04  0.00000000000E+00 0.  1.
    9000005    2    1    2  501    0  0.35189937611E+02  0.57330420160E+02 -0.87163886429E+03  0.10847014884E+04  0.64210427533E+03 0.  0.
         13    1    3    3    0    0 -0.16479930899E+03  0.22805556086E+03 -0.15476456130E+03  0.32112337274E+03  0.00000000000E+00 0.  1.
          1    1    3    3  501    0  0.19998924660E+03 -0.17072514070E+03 -0.71687430299E+03  0.76357811566E+03  0.00000000000E+00 0.  1.
         -3    1    1    2    0  502 -0.35189937611E+02 -0.57330420160E+02  0.29992729463E+02  0.73652376781E+02  0.00000000000E+00 0. -1.
<mgrwt>
<rscale>  1 0.64561832E+03</rscale>
<asrwt>0</asrwt>
<pdfrwt beam="1">  1       21 0.24362132E-01 0.64561832E+03</pdfrwt>
<pdfrwt beam="2">0</pdfrwt>
<totfact> 0.15320857E+03</totfact>
</mgrwt>
</event>
<event>
 6    1  0.1439793E-004  0.6603911E+03  0.7818608E-02  0.9787474E-01
         21   -1    0    0  501  502  0.00000000000E+00  0.00000000000E+00  0.28018624323E+03  0.28018624323E+03  0.00000000000E+00 0. -1.
         13   -1    0    0    0    0 -0.00000000000E+00 -0.00000000000E+00 -0.10000000000E+04  0.10000000000E+04  0.00000000000E+00 0.  1.
    9000005    2    1    2  501    0 -0.64942042501E+02  0.58072450796E+02 -0.87857324427E+03  0.10990938544E+04  0.65461933731E+03 0.  0.
         13    1    3    3    0    0  0.66086693356E+02 -0.28202893756E+03 -0.31503589842E+03  0.42796657574E+03  0.00000000000E+00 0.  1.
          3    1    3    3  501    0 -0.13102873586E+03  0.34010138835E+03 -0.56353734585E+03  0.67112727865E+03  0.00000000000E+00 0.  1.
         -1    1    1    2    0  502  0.64942042501E+02 -0.58072450796E+02  0.15875948749E+03  0.18109238884E+03  0.00000000000E+00 0. -1.
<mgrwt>
<rscale>  1 0.66039106E+03</rscale>
<asrwt>0</asrwt>
<pdfrwt beam="1">  1       21 0.43105575E-01 0.66039106E+03</pdfrwt>
<pdfrwt beam="2">0</pdfrwt>
<totfact> 0.48271650E+02</totfact>
</mgrwt>
</event>
<event>
 6    1  0.1439793E-004  0.6650605E+03  0.7818608E-02  0.9778922E-01
         21   -1    0    0  501  502  0.00000000000E+00  0.00000000000E+00  0.16536838222E+03  0.16536838222E+03  0.00000000000E+00 0.  1.
         13   -1    0    0    0    0 -0.00000000000E+00 -0.00000000000E+00 -0.10000000000E+04  0.10000000000E+04  0.00000000000E+00 0.  1.
    9000005    2    1    2  501    0  0.13490066808E+03  0.50449723929E+02 -0.72881487305E+03  0.98664919366E+03  0.64927817403E+03 0.  0.
         13    1    3    3    0    0 -0.66823005379E+02  0.29843583745E+03 -0.18969474302E+03  0.35987964467E+03  0.00000000000E+00 0.  1.
          3    1    3    3  501    0  0.20172367346E+03 -0.24798611352E+03 -0.53912013003E+03  0.62676954898E+03  0.00000000000E+00 0.  1.
         -3    1    1    2    0  502 -0.13490066808E+03 -0.50449723929E+02 -0.10581674474E+03  0.17871918856E+03  0.00000000000E+00 0. -1.
<mgrwt>
<rscale>  1 0.66506053E+03</rscale>
<asrwt>0</asrwt>
<pdfrwt beam="1">  1       21 0.25441289E-01 0.66506053E+03</pdfrwt>
<pdfrwt beam="2">0</pdfrwt>
<totfact> 0.14059176E+03</totfact>
</mgrwt>
</event>
<event>
 6    1  0.1439793E-004  0.6550948E+03  0.7818608E-02  0.9797266E-01
         21   -1    0    0  501  502  0.00000000000E+00  0.00000000000E+00  0.16824603612E+03  0.16824603612E+03  0.00000000000E+00 0.  1.
         13   -1    0    0    0    0 -0.00000000000E+00 -0.00000000000E+00 -0.10000000000E+04  0.10000000000E+04  0.00000000000E+00 0.  1.
    9000005    2    1    2  501    0 -0.22167616800E+02  0.21178623568E+02 -0.88841322661E+03  0.11038239174E+04  0.65437698768E+03 0.  0.
         13    1    3    3    0    0 -0.19976767012E+03  0.12950565369E+03 -0.54335694213E+02  0.24419501229E+03  0.00000000000E+00 0.  1.
          3    1    3    3  501    0  0.17760005332E+03 -0.10832703012E+03 -0.83407753240E+03  0.85962890508E+03  0.00000000000E+00 0.  1.
         -3    1    1    2    0  502  0.22167616800E+02 -0.21178623568E+02  0.56659262728E+02  0.64422118746E+02  0.00000000000E+00 0. -1.
<mgrwt>
<rscale>  1 0.65509479E+03</rscale>
<asrwt>0</asrwt>
<pdfrwt beam="1">  1       21 0.25884005E-01 0.65509479E+03</pdfrwt>
<pdfrwt beam="2">0</pdfrwt>
<totfact> 0.13597442E+03</totfact>
</mgrwt>
</event>
<event>
 6    1  0.1439793E-004  0.6546994E+03  0.7818608E-02  0.9798001E-01
         21   -1    0    0  501  502  0.00000000000E+00  0.00000000000E+00  0.91352489725E+03  0.91352489725E+03  0.00000000000E+00 0. -1.
         13   -1    0    0    0    0 -0.00000000000E+00 -0.00000000000E+00 -0.10000000000E+04  0.10000000000E+04  0.00000000000E+00 0.  1.
    9000005    2    1    2  501    0 -0.28297524223E+02  0.43071149771E+02 -0.89193037101E+03  0.11064226342E+04  0.65266789792E+03 0.  0.
         13    1    3    3    0    0 -0.19338901197E+03 -0.48396878408E+02 -0.47717794478E+01  0.19940997385E+03  0.00000000000E+00 0.  1.
          3    1    3    3  501    0  0.16509148775E+03  0.91468028179E+02 -0.88715859156E+03  0.90701266038E+03  0.00000000000E+00 0.  1.
         -3    1    1    2    0  502  0.28297524223E+02 -0.43071149771E+02  0.80545526825E+03  0.80710226302E+03  0.00000000000E+00 0. -1.
<mgrwt>
<rscale>  1 0.65469937E+03</rscale>
<asrwt>0</asrwt>
<pdfrwt beam="1">  1       21 0.14054229E+00 0.65469937E+03</pdfrwt>
<pdfrwt beam="2">0</pdfrwt>
<totfact> 0.30297731E+01</totfact>
</mgrwt>
</event>
<event>
 6    1  0.1439793E-004  0.6733232E+03  0.7818608E-02  0.9763973E-01
         21   -1    0    0  501  502  0.00000000000E+00  0.00000000000E+00  0.32383073462E+03  0.32383073462E+03  0.00000000000E+00 0. -1.
         13   -1    0    0    0    0 -0.00000000000E+00 -0.00000000000E+00 -0.10000000000E+04  0.10000000000E+04  0.00000000000E+00 0.  1.
    9000005    2    1    2  501    0  0.28914427757E+02  0.15809286393E+03 -0.85178700099E+03  0.10857740464E+04  0.65386144324E+03 0.  0.
         13    1    3    3    0    0 -0.20334357284E+03  0.32740135243E+03 -0.50844130572E+03  0.63800690870E+03  0.00000000000E+00 0.  1.
          3    1    3    3  501    0  0.23225800060E+03 -0.16930848849E+03 -0.34334569527E+03  0.44776713767E+03  0.00000000000E+00 0.  1.
         -1    1    1    2    0  502 -0.28914427757E+02 -0.15809286393E+03  0.17561773561E+03  0.23805668825E+03  0.00000000000E+00 0. -1.
<mgrwt>
<rscale>  1 0.67332324E+03</rscale>
<asrwt>0</asrwt>
<pdfrwt beam="1">  1       21 0.49820112E-01 0.67332324E+03</pdfrwt>
<pdfrwt beam="2">0</pdfrwt>
<totfact> 0.35467366E+02</totfact>
</mgrwt>
</event>
<event>
 6    1  0.1439793E-004  0.6509123E+03  0.7818608E-02  0.9805069E-01
         21   -1    0    0  501  502  0.00000000000E+00  0.00000000000E+00  0.13389024190E+03  0.13389024190E+03  0.00000000000E+00 0.  1.
         13   -1    0    0    0    0 -0.00000000000E+00 -0.00000000000E+00 -0.10000000000E+04  0.10000000000E+04  0.00000000000E+00 0.  1.
    9000005    2    1    2  501    0  0.19905727360E+02  0.37308133614E+02 -0.87512258552E+03  0.10906540779E+04  0.64953725315E+03 0.  0.
         13    1    3    3    0    0  0.32343942732E+03  0.20941239710E+02 -0.59369033642E+03  0.67640210986E+03  0.00000000000E+00 0.  1.
          3    1    3    3  501    0 -0.30353369996E+03  0.16366893905E+02 -0.28143224910E+03  0.41425196808E+03  0.00000000000E+00 0.  1.
         -3    1    1    2    0  502 -0.19905727360E+02 -0.37308133614E+02  0.90128274216E+01  0.43236163956E+02  0.00000000000E+00 0. -1.
<mgrwt>
<rscale>  1 0.65091227E+03</rscale>
<asrwt>0</asrwt>
<pdfrwt beam="1">  1       21 0.20598498E-01 0.65091227E+03</pdfrwt>
<pdfrwt beam="2">0</pdfrwt>
<totfact> 0.21206321E+03</totfact>
</mgrwt>
</event>
<event>
 6    1  0.1439793E-004  0.6646329E+03  0.7818608E-02  0.9779702E-01
         21   -1    0    0  501  502  0.00000000000E+00  0.00000000000E+00  0.15492056239E+03  0.15492056239E+03  0.00000000000E+00 0.  1.
         13   -1    0    0    0    0 -0.00000000000E+00 -0.00000000000E+00 -0.10000000000E+04  0.10000000000E+04  0.00000000000E+00 0.  1.
    9000005    2    1    2  501    0 -0.12487976187E+02  0.21774297458E+02 -0.88559720881E+03  0.11072575855E+04  0.66415877238E+03 0.  0.
         13    1    3    3    0    0  0.96215289160E+02  0.31412285660E+03 -0.60146146821E+03  0.68533674106E+03  0.00000000000E+00 0.  1.
          3    1    3    3  501    0 -0.10870326535E+03 -0.29234855914E+03 -0.28413574060E+03  0.42192084449E+03  0.00000000000E+00 0.  1.
         -3    1    1    2    0  502  0.12487976187E+02 -0.21774297458E+02  0.40517771193E+02  0.47662976842E+02  0.00000000000E+00 0. -1.
<mgrwt>
<rscale>  1 0.66463294E+03</rscale>
<asrwt>0</asrwt>
<pdfrwt beam="1">  1       21 0.23833932E-01 0.66463294E+03</pdfrwt>
<pdfrwt beam="2">0</pdfrwt>
<totfact> 0.15975947E+03</totfact>
</mgrwt>
</event>
<event>
 6    1  0.1439793E-004  0.6500879E+03  0.7818608E-02  0.9806614E-01
         21   -1    0    0  501  502  0.00000000000E+00  0.00000000000E+00  0.11924720700E+03  0.11924720700E+03  0.00000000000E+00 0.  1.
         13   -1    0    0    0    0 -0.00000000000E+00 -0.00000000000E+00 -0.10000000000E+04  0.10000000000E+04  0.00000000000E+00 0.  1.
    9000005    2    1    2  501    0  0.50601162029E+01 -0.25306642419E+02 -0.87913919065E+03  0.10933892365E+04  0.64957545752E+03 0.  0.
         13    1    3    3    0    0 -0.49257437156E+02  0.30551821052E+03 -0.35220630532E+03  0.46884640724E+03  0.00000000000E+00 0.  1.
          1    1    3    3  501    0  0.54317553359E+02 -0.33082485294E+03 -0.52693288533E+03  0.62454282925E+03  0.00000000000E+00 0.  1.
         -1    1    1    2    0  502 -0.50601162029E+01  0.25306642419E+02 -0.16136023465E+01  0.25857970512E+02  0.00000000000E+00 0. -1.
<mgrwt>
<rscale>  1 0.65008792E+03</rscale>
<asrwt>0</asrwt>
<pdfrwt beam="1">  1       21 0.18345724E-01 0.65008792E+03</pdfrwt>
<pdfrwt beam="2">0</pdfrwt>
<totfact> 0.26464773E+03</totfact>
</mgrwt>
</event>
<event>
 6    1  0.1439793E-004  0.6088322E+03  0.7818608E-02  0.9887250E-01
         21   -1    0    0  501  502  0.00000000000E+00  0.00000000000E+00  0.12170655297E+03  0.12170655297E+03  0.00000000000E+00 0.  1.
         13   -1    0    0    0    0 -0.00000000000E+00 -0.00000000000E+00 -0.10000000000E+04  0.10000000000E+04  0.00000000000E+00 0.  1.
    9000005    2    1    2  501    0 -0.55168493163E+01 -0.21915432821E+02 -0.90245471817E+03  0.10886234932E+04  0.60841258183E+03 0.  0.
         13    1    3    3    0    0  0.26781441043E+03 -0.11987343397E+02 -0.19900872646E+03  0.33387531811E+03  0.00000000000E+00 0.  1.
          1    1    3    3  501    0 -0.27333125975E+03 -0.99280894240E+01 -0.70344599171E+03  0.75474817506E+03  0.00000000000E+00 0.  1.
         -1    1    1    2    0  502  0.55168493163E+01  0.21915432821E+02  0.24161271138E+02  0.33083059791E+02  0.00000000000E+00 0. -1.
<mgrwt>
<rscale>  1 0.60883215E+03</rscale>
<asrwt>0</asrwt>
<pdfrwt beam="1">  1       21 0.18724085E-01 0.60883215E+03</pdfrwt>
<pdfrwt beam="2">0</pdfrwt>
<totfact> 0.25495115E+03</totfact>
</mgrwt>
</event>
<event>
 6    1  0.1439793E-004  0.6532797E+03  0.7818608E-02  0.9800644E-01
         21   -1    0    0  501  502  0.00000000000E+00  0.00000000000E+00  0.21062506462E+03  0.21062506462E+03  0.00000000000E+00 0.  1.
         13   -1    0    0    0    0 -0.00000000000E+00 -0.00000000000E+00 -0.10000000000E+04  0.10000000000E+04  0.00000000000E+00 0.  1.
    9000005    2    1    2  501    0  0.12390149247E+02 -0.61636732495E+02 -0.88266855833E+03  0.10981248305E+04  0.65024745823E+03 0.  0.
         13    1    3    3    0    0  0.48229091700E+02 -0.15422797979E+03  0.42944504974E+02  0.16720210986E+03  0.00000000000E+00 0.  1.
          3    1    3    3  501    0 -0.35838942453E+02  0.92591247290E+02 -0.92561306330E+03  0.93092272065E+03  0.00000000000E+00 0.  1.
         -1    1    1    2    0  502 -0.12390149247E+02  0.61636732495E+02  0.93293622951E+02  0.11250023411E+03  0.00000000000E+00 0. -1.
<mgrwt>
<rscale>  1 0.65327969E+03</rscale>
<asrwt>0</asrwt>
<pdfrwt beam="1">  1       21 0.32403855E-01 0.65327969E+03</pdfrwt>
<pdfrwt beam="2">0</pdfrwt>
<totfact> 0.86889102E+02</totfact>
</mgrwt>
</event>
<event>
 6    1  0.1439793E-004  0.6857171E+03  0.7818608E-02  0.9741975E-01
         21   -1    0    0  501  502  0.00000000000E+00  0.00000000000E+00  0.21522062820E+03  0.21522062820E+03  0.00000000000E+00 0.  1.
         13   -1    0    0    0    0 -0.00000000000E+00 -0.00000000000E+00 -0.10000000000E+04  0.10000000000E+04  0.00000000000E+00 0.  1.
    9000005    2    1    2  501    0  0.15368503921E+03  0.11751249741E+03 -0.75424948791E+03  0.10193626385E+04  0.65785987902E+03 0.  0.
         13    1    3    3    0    0 -0.57453115918E+02 -0.24504553747E+03 -0.18576768088E+03  0.31282232533E+03  0.00000000000E+00 0.  1.
          1    1    3    3  501    0  0.21113815512E+03  0.36255803488E+03 -0.56848180703E+03  0.70654031317E+03  0.00000000000E+00 0.  1.
         -1    1    1    2    0  502 -0.15368503921E+03 -0.11751249741E+03 -0.30529883882E+02  0.19585798971E+03  0.00000000000E+00 0. -1.
<mgrwt>
<rscale>  1 0.68571707E+03</rscale>
<asrwt>0</asrwt>
<pdfrwt beam="1">  1       21 0.33110865E-01 0.68571707E+03</pdfrwt>
<pdfrwt beam="2">0</pdfrwt>
<totfact> 0.82996192E+02</totfact>
</mgrwt>
</event>
<event>
 6    1  0.1439793E-004  0.6683760E+03  0.7818608E-02  0.9772896E-01
         21   -1    0    0  501  502  0.00000000000E+00  0.00000000000E+00  0.35453117693E+03  0.35453117693E+03  0.00000000000E+00 0.  1.
         13   -1    0    0    0    0 -0.00000000000E+00 -0.00000000000E+00 -0.10000000000E+04  0.10000000000E+04  0.00000000000E+00 0.  1.
    9000005    2    1    2  501    0  0.16915350543E+03 -0.14420405683E+03 -0.82998580047E+03  0.10656467132E+04  0.63033226957E+03 0.  0.
         13    1    3    3    0    0  0.23923144403E+03  0.10801709005E+03 -0.74583749110E+03  0.79067878351E+03  0.00000000000E+00 0.  1.
          1    1    3    3  501    0 -0.70077938599E+02 -0.25222114689E+03 -0.84148309371E+02  0.27496792974E+03  0.00000000000E+00 0.  1.
         -3    1    1    2    0  502 -0.16915350543E+03  0.14420405683E+03  0.18451697740E+03  0.28888446368E+03  0.00000000000E+00 0. -1.
<mgrwt>
<rscale>  1 0.66837601E+03</rscale>
<asrwt>0</asrwt>
<pdfrwt beam="1">  1       21 0.54543256E-01 0.66837601E+03</pdfrwt>
<pdfrwt beam="2">0</pdfrwt>
<totfact> 0.29181379E+02</totfact>
</mgrwt>
</event>
<event>
 6    1  0.1439793E-004  0.6559414E+03  0.7818608E-02  0.9795694E-01
         21   -1    0    0  501  502  0.00000000000E+00  0.00000000000E+00  0.98684676307E+03  0.98684676307E+03  0.00000000000E+00 0. -1.
         13   -1    0    0    0    0 -0.00000000000E+00 -0.00000000000E+00 -0.10000000000E+04  0.10000000000E+04  0.00000000000E+00 0.  1.
    9000005    2    1    2  501    0  0.30560456277E+02 -0.43520602541E+01 -0.89213514055E+03  0.11073229892E+04  0.65521463010E+03 0.  0.
         13    1    3    3    0    0  0.37685127203E+01 -0.32881428698E+03 -0.48618973598E+03  0.58695272074E+03  0.00000000000E+00 0.  1.
          1    1    3    3  501    0  0.26791943557E+02  0.32446222672E+03 -0.40594540456E+03  0.52037026846E+03  0.00000000000E+00 0.  1.
         -1    1    1    2    0  502 -0.30560456277E+02  0.43520602541E+01  0.87898190362E+03  0.87952377387E+03  0.00000000000E+00 0. -1.
<mgrwt>
<rscale>  1 0.65594138E+03</rscale>
<asrwt>0</asrwt>
<pdfrwt beam="1">  1       21 0.15182257E+00 0.65594138E+03</pdfrwt>
<pdfrwt beam="2">0</pdfrwt>
<totfact> 0.24538872E+01</totfact>
</mgrwt>
</event>
<event>
 6    1  0.1439793E-004  0.6469817E+03  0.7818608E-02  0.9812459E-01
         21   -1    0    0  501  502  0.00000000000E+00  0.00000000000E+00  0.19200655227E+03  0.19200655227E+03  0.00000000000E+00 0. -1.
         13   -1    0    0    0    0 -0.00000000000E+00 -0.00000000000E+00 -0.10000000000E+04  0.10000000000E+04  0.00000000000E+00 0.  1.
    9000005    2    1    2  501    0 -0.66341196860E+01 -0.22704731643E+02 -0.89358126482E+03  0.11032102077E+04  0.64654912347E+03 0.  0.
         13    1    3    3    0    0 -0.17921142974E+03 -0.21229177809E+03 -0.77004132530E+03  0.81862578647E+03  0.00000000000E+00 0.  1.
          1    1    3    3  501    0  0.17257731006E+03  0.18958704645E+03 -0.12353993951E+03  0.28458442119E+03  0.00000000000E+00 0.  1.
         -3    1    1    2    0  502  0.66341196860E+01  0.22704731643E+02  0.85587817085E+02  0.88796344611E+02  0.00000000000E+00 0. -1.
<mgrwt>
<rscale>  1 0.64698167E+03</rscale>
<asrwt>0</asrwt>
<pdfrwt beam="1">  1       21 0.29539469E-01 0.64698167E+03</pdfrwt>
<pdfrwt beam="2">0</pdfrwt>
<totfact> 0.10468818E+03</totfact>
</mgrwt>
</event>
<event>
 6    1  0.1439793E-004  0.6268294E+03  0.7818608E-02  0.9851256E-01
         21   -1    0    0  501  502  0.00000000000E+00  0.00000000000E+00  0.13449249345E+03  0.13449249345E+03  0.00000000000E+00 0.  1.
         13   -1    0    0    0    0 -0.00000000000E+00 -0.00000000000E+00 -0.10000000000E+04  0.10000000000E+04  0.00000000000E+00 0.  1.
    9000005    2    1    2  501    0 -0.10631014187E+02  0.17588226986E+02 -0.89854688539E+03  0.10955827936E+04  0.62649244856E+03 0.  0.
         13    1    3    3    0    0  0.23996618756E+03 -0.17807841297E+03 -0.53353365326E+03  0.61151766246E+03  0.00000000000E+00 0.  1.
          1    1    3    3  501    0 -0.25059720175E+03  0.19566663996E+03 -0.36501323213E+03  0.48406513110E+03  0.00000000000E+00 0.  1.
         -1    1    1    2    0  502  0.10631014187E+02 -0.17588226986E+02  0.33039378848E+02  0.38909699894E+02  0.00000000000E+00 0. -1.
<mgrwt>
<rscale>  1 0.62682944E+03</rscale>
<asrwt>0</asrwt>
<pdfrwt beam="1">  1       21 0.20691152E-01 0.62682944E+03</pdfrwt>
<pdfrwt beam="2">0</pdfrwt>
<totfact> 0.21045246E+03</totfact>
</mgrwt>
</event>
<event>
 6    1  0.1439793E-004  0.6394592E+03  0.7818608E-02  0.9826762E-01
         21   -1    0    0  501  502  0.00000000000E+00  0.00000000000E+00  0.22371882311E+03  0.22371882311E+03  0.00000000000E+00 0.  1.
         13   -1    0    0    0    0 -0.00000000000E+00 -0.00000000000E+00 -0.10000000000E+04  0.10000000000E+04  0.00000000000E+00 0.  1.
    9000005    2    1    2  501    0 -0.29054365690E+02 -0.15284639923E+02 -0.89532337456E+03  0.11002327056E+04  0.63861591362E+03 0.  0.
         13    1    3    3    0    0  0.28845838023E+03  0.63667513583E+02 -0.55139642222E+03  0.62553961014E+03  0.00000000000E+00 0.  1.
          3    1    3    3  501    0 -0.31751274592E+03 -0.78952153506E+02 -0.34392695234E+03  0.47469309550E+03  0.00000000000E+00 0.  1.
         -3    1    1    2    0  502  0.29054365690E+02  0.15284639923E+02  0.11904219767E+03  0.12348611747E+03  0.00000000000E+00 0. -1.
<mgrwt>
<rscale>  1 0.63945919E+03</rscale>
<asrwt>0</asrwt>
<pdfrwt beam="1">  1       21 0.34418279E-01 0.63945919E+03</pdfrwt>
<pdfrwt beam="2">0</pdfrwt>
<totfact> 0.76964058E+02</totfact>
</mgrwt>
</event>
<event>
 6    1  0.1439793E-004  0.6530440E+03  0.7818608E-02  0.9801084E-01
         21   -1    0    0  501  502  0.00000000000E+00  0.00000000000E+00  0.26455104971E+03  0.26455104971E+03  0.00000000000E+00 0.  1.
         13   -1    0    0    0    0 -0.00000000000E+00 -0.00000000000E+00 -0.10000000000E+04  0.10000000000E+04  0.00000000000E+00 0.  1.
    9000005    2    1    2  501    0 -0.29359418992E+02  0.76988000893E+01 -0.89176781192E+03  0.11053127581E+04  0.65233826799E+03 0.  0.
         13    1    3    3    0    0 -0.10693953458E+03 -0.78226819553E+02 -0.96122134152E+03  0.97031024252E+03  0.00000000000E+00 0.  1.
          1    1    3    3  501    0  0.77580115586E+02  0.85925619642E+02  0.69453529596E+02  0.13500251560E+03  0.00000000000E+00 0.  1.
         -1    1    1    2    0  502  0.29359418992E+02 -0.76988000893E+01  0.15631886163E+03  0.15923829159E+03  0.00000000000E+00 0. -1.
<mgrwt>
<rscale>  1 0.65304400E+03</rscale>
<asrwt>0</asrwt>
<pdfrwt beam="1">  1       21 0.40700160E-01 0.65304400E+03</pdfrwt>
<pdfrwt beam="2">0</pdfrwt>
<totfact> 0.54460866E+02</totfact>
</mgrwt>
</event>
<event>
 6    1  0.1439793E-004  0.7110006E+03  0.7818608E-02  0.9698602E-01
         21   -1    0    0  501  502  0.00000000000E+00  0.00000000000E+00  0.24568610537E+03  0.24568610537E+03  0.00000000000E+00 0.  1.
         13   -1    0    0    0    0 -0.00000000000E+00 -0.00000000000E+00 -0.10000000000E+04  0.10000000000E+04  0.00000000000E+00 0.  1.
    9000005    2    1    2  501    0  0.29604853836E+02  0.21382393080E+03 -0.74469540968E+03  0.10296082583E+04  0.67743988039E+03 0.  0.
         13    1    3    3    0    0  0.17693802387E+03  0.41775139484E+03 -0.53992620788E+03  0.70522592276E+03  0.00000000000E+00 0.  1.
          1    1    3    3  501    0 -0.14733317004E+03 -0.20392746404E+03 -0.20476920180E+03  0.32438233551E+03  0.00000000000E+00 0.  1.
         -3    1    1    2    0  502 -0.29604853836E+02 -0.21382393080E+03 -0.96184849514E+01  0.21607784710E+03  0.00000000000E+00 0. -1.
<mgrwt>
<rscale>  1 0.71100064E+03</rscale>
<asrwt>0</asrwt>
<pdfrwt beam="1">  1       21 0.37797861E-01 0.71100064E+03</pdfrwt>
<pdfrwt beam="2">0</pdfrwt>
<totfact> 0.63203262E+02</totfact>
</mgrwt>
</event>
<event>
 6    1  0.1439793E-004  0.6654498E+03  0.7818608E-02  0.9778213E-01
         21   -1    0    0  501  502  0.00000000000E+00  0.00000000000E+00  0.19531638184E+03  0.19531638184E+03  0.00000000000E+00 0. -1.
         13   -1    0    0    0    0 -0.00000000000E+00 -0.00000000000E+00 -0.10000000000E+04  0.10000000000E+04  0.00000000000E+00 0.  1.
    9000005    2    1    2  501    0  0.68599411084E+01  0.21719986659E+03 -0.63216107981E+03  0.91785130823E+03  0.62896784684E+03 0.  0.
         13    1    3    3    0    0 -0.24964423437E+03 -0.56245292127E+02 -0.11873672455E+03  0.28210669328E+03  0.00000000000E+00 0.  1.
          1    1    3    3  501    0  0.25650417548E+03  0.27344515871E+03 -0.51342435526E+03  0.63574461494E+03  0.00000000000E+00 0.  1.
         -3    1    1    2    0  502 -0.68599411084E+01 -0.21719986659E+03 -0.17252253835E+03  0.27746507361E+03  0.00000000000E+00 0. -1.
<mgrwt>
<rscale>  1 0.66544977E+03</rscale>
<asrwt>0</asrwt>
<pdfrwt beam="1">  1       21 0.30048673E-01 0.66544977E+03</pdfrwt>
<pdfrwt beam="2">0</pdfrwt>
<totfact> 0.10105324E+03</totfact>
</mgrwt>
</event>
<event>
 6    1  0.1439793E-004  0.6559786E+03  0.7818608E-02  0.9795625E-01
         21   -1    0    0  501  502  0.00000000000E+00  0.00000000000E+00  0.64943033027E+03  0.64943033027E+03  0.00000000000E+00 0. -1.
         13   -1    0    0    0    0 -0.00000000000E+00 -0.00000000000E+00 -0.10000000000E+04  0.10000000000E+04  0.00000000000E+00 0.  1.
    9000005    2    1    2  501    0 -0.36859611615E+02 -0.18486234374E+02 -0.89155390639E+03  0.11068768157E+04  0.65468125478E+03 0.  0.
         13    1    3    3    0    0  0.18749094539E+03  0.53351393431E+02 -0.84443068627E+03  0.86663856925E+03  0.00000000000E+00 0.  1.
          3    1    3    3  501    0 -0.22435055700E+03 -0.71837627804E+02 -0.47123220118E+02  0.24023824648E+03  0.00000000000E+00 0.  1.
         -1    1    1    2    0  502  0.36859611615E+02  0.18486234374E+02  0.54098423666E+03  0.54255351454E+03  0.00000000000E+00 0. -1.
<mgrwt>
<rscale>  1 0.65597860E+03</rscale>
<asrwt>0</asrwt>
<pdfrwt beam="1">  1       21 0.99912356E-01 0.65597860E+03</pdfrwt>
<pdfrwt beam="2">0</pdfrwt>
<totfact> 0.72616350E+01</totfact>
</mgrwt>
</event>
<event>
 6    1  0.1439793E-004  0.6433312E+03  0.7818608E-02  0.9819374E-01
         21   -1    0    0  501  502  0.00000000000E+00  0.00000000000E+00  0.14741986992E+03  0.14741986992E+03  0.00000000000E+00 0.  1.
         13   -1    0    0    0    0 -0.00000000000E+00 -0.00000000000E+00 -0.10000000000E+04  0.10000000000E+04  0.00000000000E+00 0.  1.
    9000005    2    1    2  501    0 -0.25917931255E+02 -0.24624975686E+02 -0.88835979759E+03  0.10968400993E+04  0.64233709598E+03 0.  0.
         13    1    3    3    0    0  0.12988925212E+03  0.17075819698E+03 -0.80546601319E+03  0.83354968542E+03  0.00000000000E+00 0.  1.
          3    1    3    3  501    0 -0.15580718337E+03 -0.19538317267E+03 -0.82893784398E+02  0.26329041389E+03  0.00000000000E+00 0.  1.
         -3    1    1    2    0  502  0.25917931255E+02  0.24624975686E+02  0.35779667508E+02  0.50579770611E+02  0.00000000000E+00 0. -1.
<mgrwt>
<rscale>  1 0.64333123E+03</rscale>
<asrwt>0</asrwt>
<pdfrwt beam="1">  1       21 0.22679979E-01 0.64333123E+03</pdfrwt>
<pdfrwt beam="2">0</pdfrwt>
<totfact> 0.17613652E+03</totfact>
</mgrwt>
</event>
<event>
 6    1  0.1439793E-004  0.6604200E+03  0.7818608E-02  0.9787421E-01
         21   -1    0    0  501  502  0.00000000000E+00  0.00000000000E+00  0.85055365316E+03  0.85055365316E+03  0.00000000000E+00 0. -1.
         13   -1    0    0    0    0 -0.00000000000E+00 -0.00000000000E+00 -0.10000000000E+04  0.10000000000E+04  0.00000000000E+00 0.  1.
    9000005    2    1    2  501    0 -0.35485240838E+02 -0.74098023022E+02 -0.88843617325E+03  0.11070109961E+04  0.65528985359E+03 0.  0.
         13    1    3    3    0    0 -0.18457199342E+03  0.24573887512E+03 -0.42745576766E+03  0.52647207790E+03  0.00000000000E+00 0.  1.
          3    1    3    3  501    0  0.14908675258E+03 -0.31983689814E+03 -0.46098040559E+03  0.58053891820E+03  0.00000000000E+00 0.  1.
         -3    1    1    2    0  502  0.35485240838E+02  0.74098023022E+02  0.73898982641E+03  0.74354265706E+03  0.00000000000E+00 0. -1.
<mgrwt>
<rscale>  1 0.66041995E+03</rscale>
<asrwt>0</asrwt>
<pdfrwt beam="1">  1       21 0.13085440E+00 0.66041995E+03</pdfrwt>
<pdfrwt beam="2">0</pdfrwt>
<totfact> 0.36596741E+01</totfact>
</mgrwt>
</event>
<event>
 6    1  0.1439793E-004  0.6694521E+03  0.7818608E-02  0.9770948E-01
         21   -1    0    0  501  502  0.00000000000E+00  0.00000000000E+00  0.39583260269E+03  0.39583260269E+03  0.00000000000E+00 0.  1.
         13   -1    0    0    0    0 -0.00000000000E+00 -0.00000000000E+00 -0.10000000000E+04  0.10000000000E+04  0.00000000000E+00 0.  1.
    9000005    2    1    2  501    0 -0.11953780717E+03 -0.60044669488E+02 -0.87028739165E+03  0.10979828065E+04  0.65595079825E+03 0.  0.
         13    1    3    3    0    0  0.36464911077E+02  0.25796043354E+03 -0.59446995006E+03  0.64905145909E+03  0.00000000000E+00 0.  1.
          3    1    3    3  501    0 -0.15600271825E+03 -0.31800510303E+03 -0.27581744158E+03  0.44893134746E+03  0.00000000000E+00 0.  1.
         -1    1    1    2    0  502  0.11953780717E+03  0.60044669488E+02  0.26611999434E+03  0.29784979614E+03  0.00000000000E+00 0. -1.
<mgrwt>
<rscale>  1 0.66945209E+03</rscale>
<asrwt>0</asrwt>
<pdfrwt beam="1">  1       21 0.60897322E-01 0.66945209E+03</pdfrwt>
<pdfrwt beam="2">0</pdfrwt>
<totfact> 0.22908899E+02</totfact>
</mgrwt>
</event>
<event>
 6    1  0.1439793E-004  0.6455836E+03  0.7818608E-02  0.9815102E-01
         21   -1    0    0  501  502  0.00000000000E+00  0.00000000000E+00  0.12775278925E+03  0.12775278925E+03  0.00000000000E+00 0.  1.
         13   -1    0    0    0    0 -0.00000000000E+00 -0.00000000000E+00 -0.10000000000E+04  0.10000000000E+04  0.00000000000E+00 0.  1.
    9000005    2    1    2  501    0 -0.94219242097E+01 -0.18688452794E+02 -0.89055973544E+03  0.10999430880E+04  0.64524423554E+03 0.  0.
         13    1    3    3    0    0  0.10177496758E+03  0.13616473672E+03  0.18599097540E+02  0.17101142062E+03  0.00000000000E+00 0.  1.
          3    1    3    3  501    0 -0.11119689179E+03 -0.15485318951E+03 -0.90915883298E+03  0.92893166737E+03  0.00000000000E+00 0.  1.
         -3    1    1    2    0  502  0.94219242097E+01  0.18688452794E+02  0.18312524693E+02  0.27809701262E+02  0.00000000000E+00 0. -1.
<mgrwt>
<rscale>  1 0.64558358E+03</rscale>
<asrwt>0</asrwt>
<pdfrwt beam="1">  1       21 0.19654275E-01 0.64558358E+03</pdfrwt>
<pdfrwt beam="2">0</pdfrwt>
<totfact> 0.23208945E+03</totfact>
</mgrwt>
</event>
<event>
 6    1  0.1439793E-004  0.6083306E+03  0.7818608E-02  0.9888272E-01
         21   -1    0    0  501  502  0.00000000000E+00  0.00000000000E+00  0.25276463800E+03  0.25276463800E+03  0.00000000000E+00 0.  1.
         13   -1    0    0    0    0 -0.00000000000E+00 -0.00000000000E+00 -0.10000000000E+04  0.10000000000E+04  0.00000000000E+00 0.  1.
    9000005    2    1    2  501    0  0.24672457422E+02 -0.56593659062E+01 -0.90639061687E+03  0.10916089563E+04  0.60780375505E+03 0.  0.
         13    1    3    3    0    0 -0.14113717853E+03 -0.99533737886E+01  0.26619669517E+02  0.14397006501E+03  0.00000000000E+00 0.  1.
          1    1    3    3  501    0  0.16580963595E+03  0.42940078824E+01 -0.93301028638E+03  0.94763889134E+03  0.00000000000E+00 0.  1.
         -3    1    1    2    0  502 -0.24672457422E+02  0.56593659062E+01  0.15915525486E+03  0.16115568165E+03  0.00000000000E+00 0. -1.
<mgrwt>
<rscale>  1 0.60833064E+03</rscale>
<asrwt>0</asrwt>
<pdfrwt beam="1">  1       21 0.38886866E-01 0.60833064E+03</pdfrwt>
<pdfrwt beam="2">0</pdfrwt>
<totfact> 0.60079917E+02</totfact>
</mgrwt>
</event>
<event>
 6    1  0.1439793E-004  0.6528431E+03  0.7818608E-02  0.9801459E-01
         21   -1    0    0  501  502  0.00000000000E+00  0.00000000000E+00  0.11682391200E+03  0.11682391200E+03  0.00000000000E+00 0.  1.
         13   -1    0    0    0    0 -0.00000000000E+00 -0.00000000000E+00 -0.10000000000E+04  0.10000000000E+04  0.00000000000E+00 0.  1.
    9000005    2    1    2  501    0  0.62620013140E+01  0.24679357429E+02 -0.87125488598E+03  0.10887098870E+04  0.65234642514E+03 0.  0.
         13    1    3    3    0    0  0.29887137556E+02 -0.17649064077E+03  0.14973877520E+02  0.17962851745E+03  0.00000000000E+00 0.  1.
          3    1    3    3  501    0 -0.23625136242E+02  0.20116999820E+03 -0.88622876350E+03  0.90908136956E+03  0.00000000000E+00 0.  1.
         -3    1    1    2    0  502 -0.62620013140E+01 -0.24679357429E+02 -0.11921202022E+02  0.28114024992E+02  0.00000000000E+00 0. -1.
<mgrwt>
<rscale>  1 0.65284312E+03</rscale>
<asrwt>0</asrwt>
<pdfrwt beam="1">  1       21 0.17972909E-01 0.65284312E+03</pdfrwt>
<pdfrwt beam="2">0</pdfrwt>
<totfact> 0.27514470E+03</totfact>
</mgrwt>
</event>
<event>
 6    1  0.1439793E-004  0.6694320E+03  0.7818608E-02  0.9770984E-01
         21   -1    0    0  501  502  0.00000000000E+00  0.00000000000E+00  0.13311705199E+03  0.13311705199E+03  0.00000000000E+00 0.  1.
         13   -1    0    0    0    0 -0.00000000000E+00 -0.00000000000E+00 -0.10000000000E+04  0.10000000000E+04  0.00000000000E+00 0.  1.
    9000005    2    1    2  501    0 -0.33598554674E+02 -0.27462935706E+02 -0.85894564184E+03  0.10890026944E+04  0.66802408423E+03 0.  0.
         13    1    3    3    0    0  0.26902698556E+03  0.84876629681E+02 -0.17306151921E+03  0.33095294326E+03  0.00000000000E+00 0.  1.
          3    1    3    3  501    0 -0.30262554023E+03 -0.11233956539E+03 -0.68588412264E+03  0.75804975116E+03  0.00000000000E+00 0.  1.
         -3    1    1    2    0  502  0.33598554674E+02  0.27462935706E+02 -0.79373061685E+01  0.44114357560E+02  0.00000000000E+00 0. -1.
<mgrwt>
<rscale>  1 0.66943204E+03</rscale>
<asrwt>0</asrwt>
<pdfrwt beam="1">  1       21 0.20479546E-01 0.66943204E+03</pdfrwt>
<pdfrwt beam="2">0</pdfrwt>
<totfact> 0.21427896E+03</totfact>
</mgrwt>
</event>
<event>
 6    1  0.1439793E-004  0.6659475E+03  0.7818608E-02  0.9777307E-01
         21   -1    0    0  501  502  0.00000000000E+00  0.00000000000E+00  0.31894327528E+03  0.31894327528E+03  0.00000000000E+00 0. -1.
         13   -1    0    0    0    0 -0.00000000000E+00 -0.00000000000E+00 -0.10000000000E+04  0.10000000000E+04  0.00000000000E+00 0.  1.
    9000005    2    1    2  501    0  0.63894351911E+02 -0.16542899836E+03 -0.84606255587E+03  0.10767116382E+04  0.64190097493E+03 0.  0.
         13    1    3    3    0    0  0.10999079950E+03 -0.39283265858E+03 -0.67402755146E+03  0.78786332175E+03  0.00000000000E+00 0.  1.
          1    1    3    3  501    0 -0.46096447587E+02  0.22740366021E+03 -0.17203500441E+03  0.28884831642E+03  0.00000000000E+00 0.  1.
         -3    1    1    2    0  502 -0.63894351911E+02  0.16542899836E+03  0.16500583115E+03  0.24223163712E+03  0.00000000000E+00 0. -1.
<mgrwt>
<rscale>  1 0.66594752E+03</rscale>
<asrwt>0</asrwt>
<pdfrwt beam="1">  1       21 0.49068195E-01 0.66594752E+03</pdfrwt>
<pdfrwt beam="2">0</pdfrwt>
<totfact> 0.36666441E+02</totfact>
</mgrwt>
</event>
<event>
 6    1  0.1439793E-004  0.6592464E+03  0.7818608E-02  0.9789582E-01
         21   -1    0    0  501  502  0.00000000000E+00  0.00000000000E+00  0.11750594785E+03  0.11750594785E+03  0.00000000000E+00 0.  1.
         13   -1    0    0    0    0 -0.00000000000E+00 -0.00000000000E+00 -0.10000000000E+04  0.10000000000E+04  0.00000000000E+00 0.  1.
    9000005    2    1    2  501    0  0.24363083739E+02  0.49832972644E+01 -0.86252640283E+03  0.10856139407E+04  0.65877723061E+03 0.  0.
         13    1    3    3    0    0 -0.10116933778E+03 -0.17501458711E+03 -0.68738163194E+01  0.20226860844E+03  0.00000000000E+00 0.  1.
          1    1    3    3  501    0  0.12553242152E+03  0.17999788437E+03 -0.85565258651E+03  0.88334533227E+03  0.00000000000E+00 0.  1.
         -1    1    1    2    0  502 -0.24363083739E+02 -0.49832972644E+01 -0.19967649316E+02  0.31892007151E+02  0.00000000000E+00 0. -1.
<mgrwt>
<rscale>  1 0.65924641E+03</rscale>
<asrwt>0</asrwt>
<pdfrwt beam="1">  1       21 0.18077838E-01 0.65924641E+03</pdfrwt>
<pdfrwt beam="2">0</pdfrwt>
<totfact> 0.27206372E+03</totfact>
</mgrwt>
</event>
<event>
 6    1  0.1439793E-004  0.6661077E+03  0.7818608E-02  0.9777015E-01
         21   -1    0    0  501  502  0.00000000000E+00  0.00000000000E+00  0.30439707175E+03  0.30439707175E+03  0.00000000000E+00 0. -1.
         13   -1    0    0    0    0 -0.00000000000E+00 -0.00000000000E+00 -0.10000000000E+04  0.10000000000E+04  0.00000000000E+00 0.  1.
    9000005    2    1    2  501    0  0.70604044998E+02 -0.12921662740E+02 -0.88164591281E+03  0.11049882138E+04  0.66222921746E+03 0.  0.
         13    1    3    3    0    0  0.18542596259E+03 -0.28176057129E+03 -0.64885774472E+03  0.73129213042E+03  0.00000000000E+00 0.  1.
          1    1    3    3  501    0 -0.11482191759E+03  0.26883890855E+03 -0.23278816809E+03  0.37369608335E+03  0.00000000000E+00 0.  1.
         -1    1    1    2    0  502 -0.70604044998E+02  0.12921662740E+02  0.18604298456E+03  0.19940885798E+03  0.00000000000E+00 0. -1.
<mgrwt>
<rscale>  1 0.66610768E+03</rscale>
<asrwt>0</asrwt>
<pdfrwt beam="1">  1       21 0.46830317E-01 0.66610768E+03</pdfrwt>
<pdfrwt beam="2">0</pdfrwt>
<totfact> 0.40501935E+02</totfact>
</mgrwt>
</event>
<event>
 6    1  0.1439793E-004  0.5969631E+03  0.7818608E-02  0.9911727E-01
         21   -1    0    0  501  502  0.00000000000E+00  0.00000000000E+00  0.24277612505E+03  0.24277612505E+03  0.00000000000E+00 0. -1.
         13   -1    0    0    0    0 -0.00000000000E+00 -0.00000000000E+00 -0.10000000000E+04  0.10000000000E+04  0.00000000000E+00 0.  1.
    9000005    2    1    2  501    0  0.91781792026E+02  0.60879599931E+02 -0.88912539857E+03  0.10709383092E+04  0.58671514775E+03 0.  0.
         13    1    3    3    0    0  0.33007460302E+03 -0.45805495571E+02 -0.54799924002E+03  0.64136616222E+03  0.00000000000E+00 0.  1.
          1    1    3    3  501    0 -0.23829281100E+03  0.10668509550E+03 -0.34112615855E+03  0.42957214694E+03  0.00000000000E+00 0.  1.
         -3    1    1    2    0  502 -0.91781792026E+02 -0.60879599931E+02  0.13190152362E+03  0.17183781589E+03  0.00000000000E+00 0. -1.
<mgrwt>
<rscale>  1 0.59696305E+03</rscale>
<asrwt>0</asrwt>
<pdfrwt beam="1">  1       21 0.37350172E-01 0.59696305E+03</pdfrwt>
<pdfrwt beam="2">0</pdfrwt>
<totfact> 0.65340119E+02</totfact>
</mgrwt>
</event>
<event>
 6    1  0.1439793E-004  0.6800879E+03  0.7818608E-02  0.9751904E-01
         21   -1    0    0  501  502  0.00000000000E+00  0.00000000000E+00  0.27509498842E+03  0.27509498842E+03  0.00000000000E+00 0.  1.
         13   -1    0    0    0    0 -0.00000000000E+00 -0.00000000000E+00 -0.10000000000E+04  0.10000000000E+04  0.00000000000E+00 0.  1.
    9000005    2    1    2  501    0 -0.25468454818E+02 -0.25803678284E+03 -0.75256402125E+03  0.10143333265E+04  0.62871922809E+03 0.  0.
         13    1    3    3    0    0  0.11189332034E+03  0.50535692491E+02 -0.64977710195E+03  0.66127471869E+03  0.00000000000E+00 0.  1.
          3    1    3    3  501    0 -0.13736177516E+03 -0.30857247533E+03 -0.10278691929E+03  0.35305860786E+03  0.00000000000E+00 0.  1.
         -1    1    1    2    0  502  0.25468454818E+02  0.25803678284E+03  0.27659009664E+02  0.26076166187E+03  0.00000000000E+00 0. -1.
<mgrwt>
<rscale>  1 0.68008786E+03</rscale>
<asrwt>0</asrwt>
<pdfrwt beam="1">  1       21 0.42322305E-01 0.68008786E+03</pdfrwt>
<pdfrwt beam="2">0</pdfrwt>
<totfact> 0.50082355E+02</totfact>
</mgrwt>
</event>
<event>
 6    1  0.1439793E-004  0.6370800E+03  0.7818608E-02  0.9831329E-01
         21   -1    0    0  501  502  0.00000000000E+00  0.00000000000E+00  0.40065453649E+03  0.40065453649E+03  0.00000000000E+00 0. -1.
         13   -1    0    0    0    0 -0.00000000000E+00 -0.00000000000E+00 -0.10000000000E+04  0.10000000000E+04  0.00000000000E+00 0.  1.
    9000005    2    1    2  501    0  0.85381730370E+01 -0.28286527869E+02 -0.89772850860E+03  0.11008121285E+04  0.63639440518E+03 0.  0.
         13    1    3    3    0    0  0.24108125345E+03 -0.14559771475E+03 -0.17258065530E+03  0.33030735367E+03  0.00000000000E+00 0.  1.
          3    1    3    3  501    0 -0.23254308041E+03  0.11731118688E+03 -0.72514785330E+03  0.77050477479E+03  0.00000000000E+00 0.  1.
         -1    1    1    2    0  502 -0.85381730370E+01  0.28286527869E+02  0.29838304509E+03  0.29984240803E+03  0.00000000000E+00 0. -1.
<mgrwt>
<rscale>  1 0.63707995E+03</rscale>
<asrwt>0</asrwt>
<pdfrwt beam="1">  1       21 0.61639158E-01 0.63707995E+03</pdfrwt>
<pdfrwt beam="2">0</pdfrwt>
<totfact> 0.22380965E+02</totfact>
</mgrwt>
</event>
<event>
 6    1  0.1439793E-004  0.9461679E+03  0.7818608E-02  0.9369641E-01
         21   -1    0    0  501  502  0.00000000000E+00  0.00000000000E+00  0.68894592246E+03  0.68894592246E+03  0.00000000000E+00 0. -1.
         13   -1    0    0    0    0 -0.00000000000E+00 -0.00000000000E+00 -0.10000000000E+04  0.10000000000E+04  0.00000000000E+00 0.  1.
    9000005    2    1    2  501    0  0.20337853674E+03  0.64880042598E+03 -0.34769214516E+03  0.10080295032E+04  0.65797327426E+03 0.  0.
         13    1    3    3    0    0 -0.13896374881E+03  0.47313549179E+03 -0.37905376014E+03  0.62197256382E+03  0.00000000000E+00 0.  1.
          3    1    3    3  501    0  0.34234228555E+03  0.17566493419E+03  0.31361614978E+02  0.38605693942E+03  0.00000000000E+00 0.  1.
         -1    1    1    2    0  502 -0.20337853674E+03 -0.64880042598E+03  0.36638067615E+02  0.68091641921E+03  0.00000000000E+00 0. -1.
<mgrwt>
<rscale>  1 0.94616788E+03</rscale>
<asrwt>0</asrwt>
<pdfrwt beam="1">  1       21 0.10599168E+00 0.94616788E+03</pdfrwt>
<pdfrwt beam="2">0</pdfrwt>
<totfact> 0.60487751E+01</totfact>
</mgrwt>
</event>
<event>
 6    1  0.1439793E-004  0.6410294E+03  0.7818608E-02  0.9823759E-01
         21   -1    0    0  501  502  0.00000000000E+00  0.00000000000E+00  0.24625828622E+03  0.24625828622E+03  0.00000000000E+00 0. -1.
         13   -1    0    0    0    0 -0.00000000000E+00 -0.00000000000E+00 -0.10000000000E+04  0.10000000000E+04  0.00000000000E+00 0.  1.
    9000005    2    1    2  501    0  0.46311396541E+02 -0.32557117675E+02 -0.89108668947E+03  0.10977040749E+04  0.63852489105E+03 0.  0.
         13    1    3    3    0    0 -0.57131579116E+02 -0.24360905856E+03 -0.95001006752E+02  0.26764637496E+03  0.00000000000E+00 0.  1.
          3    1    3    3  501    0  0.10344297566E+03  0.21105194089E+03 -0.79608568272E+03  0.83005769992E+03  0.00000000000E+00 0.  1.
         -3    1    1    2    0  502 -0.46311396541E+02  0.32557117675E+02  0.13734497569E+03  0.14855421135E+03  0.00000000000E+00 0. -1.
<mgrwt>
<rscale>  1 0.64102944E+03</rscale>
<asrwt>0</asrwt>
<pdfrwt beam="1">  1       21 0.37885889E-01 0.64102944E+03</pdfrwt>
<pdfrwt beam="2">0</pdfrwt>
<totfact> 0.63229942E+02</totfact>
</mgrwt>
</event>
<event>
 6    1  0.1439793E-004  0.6553428E+03  0.7818608E-02  0.9796805E-01
         21   -1    0    0  501  502  0.00000000000E+00  0.00000000000E+00  0.24282562787E+03  0.24282562787E+03  0.00000000000E+00 0. -1.
         13   -1    0    0    0    0 -0.00000000000E+00 -0.00000000000E+00 -0.10000000000E+04  0.10000000000E+04  0.00000000000E+00 0.  1.
    9000005    2    1    2  501    0  0.19628885419E+03  0.15844080781E+03 -0.74221081826E+03  0.99012677192E+03  0.60484818084E+03 0.  0.
         13    1    3    3    0    0  0.42353677832E+02  0.36159510398E+03 -0.58989476415E+03  0.69319599394E+03  0.00000000000E+00 0.  1.
          1    1    3    3  501    0  0.15393517635E+03 -0.20315429616E+03 -0.15231605411E+03  0.29693077798E+03  0.00000000000E+00 0.  1.
         -3    1    1    2    0  502 -0.19628885419E+03 -0.15844080781E+03 -0.14963553865E+02  0.25269885596E+03  0.00000000000E+00 0. -1.
<mgrwt>
<rscale>  1 0.65534275E+03</rscale>
<asrwt>0</asrwt>
<pdfrwt beam="1">  1       21 0.37357788E-01 0.65534275E+03</pdfrwt>
<pdfrwt beam="2">0</pdfrwt>
<totfact> 0.65011037E+02</totfact>
</mgrwt>
</event>
<event>
 6    1  0.1439793E-004  0.6341194E+03  0.7818608E-02  0.9837043E-01
         21   -1    0    0  501  502  0.00000000000E+00  0.00000000000E+00  0.13447594176E+03  0.13447594176E+03  0.00000000000E+00 0.  1.
         13   -1    0    0    0    0 -0.00000000000E+00 -0.00000000000E+00 -0.10000000000E+04  0.10000000000E+04  0.00000000000E+00 0.  1.
    9000005    2    1    2  501    0 -0.71384164063E+01  0.19439118042E+02 -0.89596351403E+03  0.10976602282E+04  0.63378113076E+03 0.  0.
         13    1    3    3    0    0 -0.29400406192E+03 -0.11535219041E+03 -0.41151521054E+03  0.51873816590E+03  0.00000000000E+00 0.  1.
          1    1    3    3  501    0  0.28686564552E+03  0.13479130845E+03 -0.48444830349E+03  0.57892206225E+03  0.00000000000E+00 0.  1.
         -3    1    1    2    0  502  0.71384164063E+01 -0.19439118042E+02  0.30439455789E+02  0.36815713599E+02  0.00000000000E+00 0. -1.
<mgrwt>
<rscale>  1 0.63411936E+03</rscale>
<asrwt>0</asrwt>
<pdfrwt beam="1">  1       21 0.20688606E-01 0.63411936E+03</pdfrwt>
<pdfrwt beam="2">0</pdfrwt>
<totfact> 0.21043724E+03</totfact>
</mgrwt>
</event>
<event>
 6    1  0.1439793E-004  0.6341340E+03  0.7818608E-02  0.9837015E-01
         21   -1    0    0  501  502  0.00000000000E+00  0.00000000000E+00  0.11406444409E+03  0.11406444409E+03  0.00000000000E+00 0.  1.
         13   -1    0    0    0    0 -0.00000000000E+00 -0.00000000000E+00 -0.10000000000E+04  0.10000000000E+04  0.00000000000E+00 0.  1.
    9000005    2    1    2  501    0 -0.22711490960E+02 -0.23691262808E+02 -0.87249949814E+03  0.10786015705E+04  0.63328420624E+03 0.  0.
         13    1    3    3    0    0 -0.15214874733E+03  0.20447212055E+03 -0.74410622265E+03  0.78654444247E+03  0.00000000000E+00 0.  1.
          1    1    3    3  501    0  0.12943725637E+03 -0.22816338336E+03 -0.12839327550E+03  0.29205712803E+03  0.00000000000E+00 0.  1.
         -3    1    1    2    0  502  0.22711490960E+02  0.23691262808E+02 -0.13436057761E+02  0.35462873589E+02  0.00000000000E+00 0. -1.
<mgrwt>
<rscale>  1 0.63413403E+03</rscale>
<asrwt>0</asrwt>
<pdfrwt beam="1">  1       21 0.17548376E-01 0.63413403E+03</pdfrwt>
<pdfrwt beam="2">0</pdfrwt>
<totfact> 0.28807138E+03</totfact>
</mgrwt>
</event>
<event>
 6    1  0.1439793E-004  0.6506048E+03  0.7818608E-02  0.9805645E-01
         21   -1    0    0  501  502  0.00000000000E+00  0.00000000000E+00  0.12043310488E+03  0.12043310488E+03  0.00000000000E+00 0.  1.
         13   -1    0    0    0    0 -0.00000000000E+00 -0.00000000000E+00 -0.10000000000E+04  0.10000000000E+04  0.00000000000E+00 0.  1.
    9000005    2    1    2  501    0  0.23522591837E+02 -0.36369684744E+02 -0.83015739234E+03  0.10547264442E+04  0.64916138956E+03 0.  0.
         13    1    3    3    0    0 -0.16247131919E+01 -0.24112272882E+03 -0.48048365520E+02  0.24586877694E+03  0.00000000000E+00 0.  1.
          1    1    3    3  501    0  0.25147305028E+02  0.20475304407E+03 -0.78210902682E+03  0.80885766723E+03  0.00000000000E+00 0.  1.
         -3    1    1    2    0  502 -0.23522591837E+02  0.36369684744E+02 -0.49409502785E+02  0.65706660701E+02  0.00000000000E+00 0. -1.
<mgrwt>
<rscale>  1 0.65060478E+03</rscale>
<asrwt>0</asrwt>
<pdfrwt beam="1">  1       21 0.18528169E-01 0.65060478E+03</pdfrwt>
<pdfrwt beam="2">0</pdfrwt>
<totfact> 0.25970953E+03</totfact>
</mgrwt>
</event>
<event>
 6    1  0.1439793E-004  0.6698639E+03  0.7818608E-02  0.9770204E-01
         21   -1    0    0  501  502  0.00000000000E+00  0.00000000000E+00  0.18309371044E+03  0.18309371044E+03  0.00000000000E+00 0.  1.
         13   -1    0    0    0    0 -0.00000000000E+00 -0.00000000000E+00 -0.10000000000E+04  0.10000000000E+04  0.00000000000E+00 0.  1.
    9000005    2    1    2  501    0  0.13940052800E+03  0.35547396239E+02 -0.79165667720E+03  0.10370332178E+04  0.65423350240E+03 0.  0.
         13    1    3    3    0    0  0.10567039403E+03 -0.30117461824E+03 -0.28587531372E+03  0.42848229583E+03  0.00000000000E+00 0.  1.
          3    1    3    3  501    0  0.33730133973E+02  0.33672201448E+03 -0.50578136348E+03  0.60855092196E+03  0.00000000000E+00 0.  1.
         -1    1    1    2    0  502 -0.13940052800E+03 -0.35547396239E+02 -0.25249612364E+02  0.14606049264E+03  0.00000000000E+00 0. -1.
<mgrwt>
<rscale>  1 0.66986387E+03</rscale>
<asrwt>0</asrwt>
<pdfrwt beam="1">  1       21 0.28168262E-01 0.66986387E+03</pdfrwt>
<pdfrwt beam="2">0</pdfrwt>
<totfact> 0.11493524E+03</totfact>
</mgrwt>
</event>
<event>
 6    1  0.1439793E-004  0.7154030E+03  0.7818608E-02  0.9691248E-01
         21   -1    0    0  501  502  0.00000000000E+00  0.00000000000E+00  0.19679097724E+03  0.19679097724E+03  0.00000000000E+00 0.  1.
         13   -1    0    0    0    0 -0.00000000000E+00 -0.00000000000E+00 -0.10000000000E+04  0.10000000000E+04  0.00000000000E+00 0.  1.
    9000005    2    1    2  501    0  0.83529928673E+02  0.11939501525E+03 -0.76235204939E+03  0.10454578648E+04  0.70040636860E+03 0.  0.
         13    1    3    3    0    0 -0.16867851322E+03  0.81122837176E+02  0.50213838824E+02  0.19379057032E+03  0.00000000000E+00 0.  1.
          1    1    3    3  501    0  0.25220844189E+03  0.38272178074E+02 -0.81256588822E+03  0.85166729447E+03  0.00000000000E+00 0.  1.
         -3    1    1    2    0  502 -0.83529928673E+02 -0.11939501525E+03 -0.40856973368E+02  0.15133311245E+03  0.00000000000E+00 0. -1.
<mgrwt>
<rscale>  1 0.71540303E+03</rscale>
<asrwt>0</asrwt>
<pdfrwt beam="1">  1       21 0.30275534E-01 0.71540303E+03</pdfrwt>
<pdfrwt beam="2">0</pdfrwt>
<totfact> 0.99243700E+02</totfact>
</mgrwt>
</event>
<event>
 6    1  0.1439793E-004  0.6986821E+03  0.7818608E-02  0.9719489E-01
         21   -1    0    0  501  502  0.00000000000E+00  0.00000000000E+00  0.24699749233E+03  0.24699749233E+03  0.00000000000E+00 0. -1.
         13   -1    0    0    0    0 -0.00000000000E+00 -0.00000000000E+00 -0.10000000000E+04  0.10000000000E+04  0.00000000000E+00 0.  1.
    9000005    2    1    2  501    0 -0.11261061016E+03  0.21627805495E+03 -0.71593078026E+03  0.10003567424E+04  0.65475139044E+03 0.  0.
         13    1    3    3    0    0 -0.92936824496E+02  0.18829088380E+03 -0.84300278049E+03  0.86876026508E+03  0.00000000000E+00 0.  1.
          3    1    3    3  501    0 -0.19673785669E+02  0.27987171145E+02  0.12707200022E+03  0.13159647728E+03  0.00000000000E+00 0.  1.
         -3    1    1    2    0  502  0.11261061016E+03 -0.21627805495E+03 -0.37071727407E+02  0.24664074997E+03  0.00000000000E+00 0. -1.
<mgrwt>
<rscale>  1 0.69868214E+03</rscale>
<asrwt>0</asrwt>
<pdfrwt beam="1">  1       21 0.37999613E-01 0.69868214E+03</pdfrwt>
<pdfrwt beam="2">0</pdfrwt>
<totfact> 0.62568158E+02</totfact>
</mgrwt>
</event>
<event>
 6    1  0.1439793E-004  0.6603547E+03  0.7818608E-02  0.9787541E-01
         21   -1    0    0  501  502  0.00000000000E+00  0.00000000000E+00  0.13122545460E+03  0.13122545460E+03  0.00000000000E+00 0.  1.
         13   -1    0    0    0    0 -0.00000000000E+00 -0.00000000000E+00 -0.10000000000E+04  0.10000000000E+04  0.00000000000E+00 0.  1.
    9000005    2    1    2  501    0  0.14199998444E+02  0.15310484043E+02 -0.88539774942E+03  0.11045349733E+04  0.66002445545E+03 0.  0.
         13    1    3    3    0    0 -0.17245348440E+03 -0.25769154458E+03 -0.56266521380E+03  0.64244632402E+03  0.00000000000E+00 0.  1.
          1    1    3    3  501    0  0.18665348285E+03  0.27300202862E+03 -0.32273253562E+03  0.46208864933E+03  0.00000000000E+00 0.  1.
         -3    1    1    2    0  502 -0.14199998444E+02 -0.15310484043E+02  0.16623204015E+02  0.26690481246E+02  0.00000000000E+00 0. -1.
<mgrwt>
<rscale>  1 0.66035470E+03</rscale>
<asrwt>0</asrwt>
<pdfrwt beam="1">  1       21 0.20188531E-01 0.66035470E+03</pdfrwt>
<pdfrwt beam="2">0</pdfrwt>
<totfact> 0.22033185E+03</totfact>
</mgrwt>
</event>
<event>
 6    1  0.1439793E-004  0.6518159E+03  0.7818608E-02  0.9803378E-01
         21   -1    0    0  501  502  0.00000000000E+00  0.00000000000E+00  0.12059115472E+03  0.12059115472E+03  0.00000000000E+00 0.  1.
         13   -1    0    0    0    0 -0.00000000000E+00 -0.00000000000E+00 -0.10000000000E+04  0.10000000000E+04  0.00000000000E+00 0.  1.
    9000005    2    1    2  501    0  0.41498752372E+02  0.36251120986E+00 -0.84119226926E+03  0.10641749820E+04  0.65049341316E+03 0.  0.
         13    1    3    3    0    0 -0.28062319572E+02 -0.22545253175E+03 -0.79051601253E+03  0.82251559493E+03  0.00000000000E+00 0.  1.
          1    1    3    3  501    0  0.69561071944E+02  0.22581504296E+03 -0.50676256733E+02  0.24165938706E+03  0.00000000000E+00 0.  1.
         -3    1    1    2    0  502 -0.41498752372E+02 -0.36251120986E+00 -0.38216576021E+02  0.56416172730E+02  0.00000000000E+00 0. -1.
<mgrwt>
<rscale>  1 0.65181589E+03</rscale>
<asrwt>0</asrwt>
<pdfrwt beam="1">  1       21 0.18552485E-01 0.65181589E+03</pdfrwt>
<pdfrwt beam="2">0</pdfrwt>
<totfact> 0.25905136E+03</totfact>
</mgrwt>
</event>
<event>
 6    1  0.1439793E-004  0.6461276E+03  0.7818608E-02  0.9814073E-01
         21   -1    0    0  501  502  0.00000000000E+00  0.00000000000E+00  0.11790804063E+03  0.11790804063E+03  0.00000000000E+00 0.  1.
         13   -1    0    0    0    0 -0.00000000000E+00 -0.00000000000E+00 -0.10000000000E+04  0.10000000000E+04  0.00000000000E+00 0.  1.
    9000005    2    1    2  501    0 -0.99031359005E+01 -0.27974381893E+02 -0.87445002907E+03  0.10872643261E+04  0.64544575549E+03 0.  0.
         13    1    3    3    0    0 -0.23881158626E+03 -0.15455278050E+03 -0.74077081541E+03  0.79351051452E+03  0.00000000000E+00 0.  1.
          3    1    3    3  501    0  0.22890845036E+03  0.12657839861E+03 -0.13367921366E+03  0.29375381156E+03  0.00000000000E+00 0.  1.
         -3    1    1    2    0  502  0.99031359005E+01  0.27974381893E+02 -0.76419302939E+01  0.30643714552E+02  0.00000000000E+00 0. -1.
<mgrwt>
<rscale>  1 0.64612759E+03</rscale>
<asrwt>0</asrwt>
<pdfrwt beam="1">  1       21 0.18139698E-01 0.64612759E+03</pdfrwt>
<pdfrwt beam="2">0</pdfrwt>
<totfact> 0.27042351E+03</totfact>
</mgrwt>
</event>
<event>
 6    1  0.1439793E-004  0.5858078E+03  0.7818608E-02  0.9935296E-01
         21   -1    0    0  501  502  0.00000000000E+00  0.00000000000E+00  0.17863658599E+03  0.17863658599E+03  0.00000000000E+00 0.  1.
         13   -1    0    0    0    0 -0.00000000000E+00 -0.00000000000E+00 -0.10000000000E+04  0.10000000000E+04  0.00000000000E+00 0.  1.
    9000005    2    1    2  501    0  0.10880215045E+02  0.45126272223E+02 -0.90787012528E+03  0.10804624009E+04  0.58396581736E+03 0.  0.
         13    1    3    3    0    0  0.27653932936E+02  0.18815016662E+03 -0.32014523159E+02  0.19284749129E+03  0.00000000000E+00 0.  1.
          3    1    3    3  501    0 -0.16773717890E+02 -0.14302389439E+03 -0.87585560212E+03  0.88761490960E+03  0.00000000000E+00 0.  1.
         -1    1    1    2    0  502 -0.10880215045E+02 -0.45126272223E+02  0.86506711268E+02  0.98174185092E+02  0.00000000000E+00 0. -1.
<mgrwt>
<rscale>  1 0.58580785E+03</rscale>
<asrwt>0</asrwt>
<pdfrwt beam="1">  1       21 0.27482551E-01 0.58580785E+03</pdfrwt>
<pdfrwt beam="2">0</pdfrwt>
<totfact> 0.12130811E+03</totfact>
</mgrwt>
</event>
<event>
 6    1  0.1439793E-004  0.6562021E+03  0.7818608E-02  0.9795210E-01
         21   -1    0    0  501  502  0.00000000000E+00  0.00000000000E+00  0.28012025929E+03  0.28012025929E+03  0.00000000000E+00 0.  1.
         13   -1    0    0    0    0 -0.00000000000E+00 -0.00000000000E+00 -0.10000000000E+04  0.10000000000E+04  0.00000000000E+00 0.  1.
    9000005    2    1    2  501    0 -0.43577906116E+02  0.13926098874E+02 -0.88898187109E+03  0.11049389229E+04  0.65460544300E+03 0.  0.
         13    1    3    3    0    0 -0.14758878228E+02  0.24499417630E+00 -0.99454815820E+03  0.99465769161E+03  0.00000000000E+00 0.  1.
          1    1    3    3  501    0 -0.28819027888E+02  0.13681104698E+02  0.10556628710E+03  0.11028123126E+03  0.00000000000E+00 0.  1.
         -3    1    1    2    0  502  0.43577906116E+02 -0.13926098874E+02  0.16910213038E+03  0.17518133642E+03  0.00000000000E+00 0. -1.
<mgrwt>
<rscale>  1 0.65620215E+03</rscale>
<asrwt>0</asrwt>
<pdfrwt beam="1">  1       21 0.43095423E-01 0.65620215E+03</pdfrwt>
<pdfrwt beam="2">0</pdfrwt>
<totfact> 0.48312649E+02</totfact>
</mgrwt>
</event>
<event>
 6    1  0.1439793E-004  0.6435211E+03  0.7818608E-02  0.9819013E-01
         21   -1    0    0  501  502  0.00000000000E+00  0.00000000000E+00  0.13781547102E+03  0.13781547102E+03  0.00000000000E+00 0.  1.
         13   -1    0    0    0    0 -0.00000000000E+00 -0.00000000000E+00 -0.10000000000E+04  0.10000000000E+04  0.00000000000E+00 0.  1.
    9000005    2    1    2  501    0  0.26705193541E+02 -0.52138087478E+02 -0.86621696180E+03  0.10790974325E+04  0.64084935554E+03 0.  0.
         13    1    3    3    0    0  0.30691662527E+03  0.92594576393E+02 -0.51901683613E+03  0.61004102045E+03  0.00000000000E+00 0.  1.
          3    1    3    3  501    0 -0.28021143173E+03 -0.14473266387E+03 -0.34720012566E+03  0.46905641209E+03  0.00000000000E+00 0.  1.
         -1    1    1    2    0  502 -0.26705193541E+02  0.52138087478E+02  0.40324328190E+01  0.58718038475E+02  0.00000000000E+00 0. -1.
<mgrwt>
<rscale>  1 0.64352113E+03</rscale>
<asrwt>0</asrwt>
<pdfrwt beam="1">  1       21 0.21202380E-01 0.64352113E+03</pdfrwt>
<pdfrwt beam="2">0</pdfrwt>
<totfact> 0.20064906E+03</totfact>
</mgrwt>
</event>
<event>
 6    1  0.1439793E-004  0.6443307E+03  0.7818608E-02  0.9817476E-01
         21   -1    0    0  501  502  0.00000000000E+00  0.00000000000E+00  0.33146211571E+03  0.33146211571E+03  0.00000000000E+00 0. -1.
         13   -1    0    0    0    0 -0.00000000000E+00 -0.00000000000E+00 -0.10000000000E+04  0.10000000000E+04  0.00000000000E+00 0.  1.
    9000005    2    1    2  501    0  0.29726626714E+02  0.10950460708E+01 -0.89513640165E+03  0.11029194293E+04  0.64364370456E+03 0.  0.
         13    1    3    3    0    0 -0.18344480537E+03  0.21583585520E+03 -0.20589697080E+03  0.35018662966E+03  0.00000000000E+00 0.  1.
          1    1    3    3  501    0  0.21317143209E+03 -0.21474080913E+03 -0.68923943084E+03  0.75273279960E+03  0.00000000000E+00 0.  1.
         -3    1    1    2    0  502 -0.29726626714E+02 -0.10950460708E+01  0.22659851735E+03  0.22854268645E+03  0.00000000000E+00 0. -1.
<mgrwt>
<rscale>  1 0.64433073E+03</rscale>
<asrwt>0</asrwt>
<pdfrwt beam="1">  1       21 0.50994170E-01 0.64433073E+03</pdfrwt>
<pdfrwt beam="2">0</pdfrwt>
<totfact> 0.33830207E+02</totfact>
</mgrwt>
</event>
<event>
 6    1  0.1439793E-004  0.6432433E+03  0.7818608E-02  0.9819541E-01
         21   -1    0    0  501  502  0.00000000000E+00  0.00000000000E+00  0.15753598130E+03  0.15753598130E+03  0.00000000000E+00 0.  1.
         13   -1    0    0    0    0 -0.00000000000E+00 -0.00000000000E+00 -0.10000000000E+04  0.10000000000E+04  0.00000000000E+00 0.  1.
    9000005    2    1    2  501    0 -0.26584583209E+02  0.77125447316E+01 -0.89262392023E+03  0.11002451519E+04  0.64264742116E+03 0.  0.
         13    1    3    3    0    0  0.22103807539E+03 -0.19172737593E+03 -0.25661645218E+03  0.38919046877E+03  0.00000000000E+00 0.  1.
          1    1    3    3  501    0 -0.24762265860E+03  0.19943992066E+03 -0.63600746805E+03  0.71105468314E+03  0.00000000000E+00 0.  1.
         -3    1    1    2    0  502  0.26584583209E+02 -0.77125447316E+01  0.50159901525E+02  0.57290829385E+02  0.00000000000E+00 0. -1.
<mgrwt>
<rscale>  1 0.64324329E+03</rscale>
<asrwt>0</asrwt>
<pdfrwt beam="1">  1       21 0.24236304E-01 0.64324329E+03</pdfrwt>
<pdfrwt beam="2">0</pdfrwt>
<totfact> 0.15478548E+03</totfact>
</mgrwt>
</event>
<event>
 6    1  0.1439793E-004  0.6689311E+03  0.7818608E-02  0.9771891E-01
         21   -1    0    0  501  502  0.00000000000E+00  0.00000000000E+00  0.14830765739E+03  0.14830765739E+03  0.00000000000E+00 0.  1.
         13   -1    0    0    0    0 -0.00000000000E+00 -0.00000000000E+00 -0.10000000000E+04  0.10000000000E+04  0.00000000000E+00 0.  1.
    9000005    2    1    2  501    0 -0.98459335193E+02  0.52240837980E+01 -0.77227599087E+03  0.10217039897E+04  0.66162474624E+03 0.  0.
         13    1    3    3    0    0 -0.30630450228E+03 -0.44918860093E+02 -0.11454116963E+03  0.33009064156E+03  0.00000000000E+00 0.  1.
          3    1    3    3  501    0  0.20784516708E+03  0.50142943891E+02 -0.65773482125E+03  0.69161334818E+03  0.00000000000E+00 0.  1.
         -1    1    1    2    0  502  0.98459335193E+02 -0.52240837980E+01 -0.79416351737E+02  0.12660366765E+03  0.00000000000E+00 0. -1.
<mgrwt>
<rscale>  1 0.66893111E+03</rscale>
<asrwt>0</asrwt>
<pdfrwt beam="1">  1       21 0.22816562E-01 0.66893111E+03</pdfrwt>
<pdfrwt beam="2">0</pdfrwt>
<totfact> 0.17388911E+03</totfact>
</mgrwt>
</event>
<event>
 6    1  0.1439793E-004  0.6501561E+03  0.7818608E-02  0.9806486E-01
         21   -1    0    0  501  502  0.00000000000E+00  0.00000000000E+00  0.26500063688E+03  0.26500063688E+03  0.00000000000E+00 0. -1.
         13   -1    0    0    0    0 -0.00000000000E+00 -0.00000000000E+00 -0.10000000000E+04  0.10000000000E+04  0.00000000000E+00 0.  1.
    9000005    2    1    2  501    0  0.40216108530E+02 -0.97365850808E+02 -0.87480562151E+03  0.10899485470E+04  0.64156489568E+03 0.  0.
         13    1    3    3    0    0  0.18596424248E+03 -0.32085456142E+03 -0.61099414016E+03  0.71473364855E+03  0.00000000000E+00 0.  1.
          1    1    3    3  501    0 -0.14574813395E+03  0.22348871061E+03 -0.26381148135E+03  0.37521489844E+03  0.00000000000E+00 0.  1.
         -1    1    1    2    0  502 -0.40216108530E+02  0.97365850808E+02  0.13980625839E+03  0.17505208989E+03  0.00000000000E+00 0. -1.
<mgrwt>
<rscale>  1 0.65015610E+03</rscale>
<asrwt>0</asrwt>
<pdfrwt beam="1">  1       21 0.40769328E-01 0.65015610E+03</pdfrwt>
<pdfrwt beam="2">0</pdfrwt>
<totfact> 0.54281500E+02</totfact>
</mgrwt>
</event>
<event>
 6    1  0.1439793E-004  0.8052186E+03  0.7818608E-02  0.9552494E-01
         21   -1    0    0  501  502  0.00000000000E+00  0.00000000000E+00  0.45752985078E+03  0.45752985078E+03  0.00000000000E+00 0.  1.
         13   -1    0    0    0    0 -0.00000000000E+00 -0.00000000000E+00 -0.10000000000E+04  0.10000000000E+04  0.00000000000E+00 0.  1.
    9000005    2    1    2  501    0 -0.31200855043E+03 -0.36161657278E+03 -0.55799827272E+03  0.97966271039E+03  0.64827546037E+03 0.  0.
         13    1    3    3    0    0 -0.19962513960E+03 -0.85657160537E+02 -0.63565177202E+03  0.67174438650E+03  0.00000000000E+00 0.  1.
          1    1    3    3  501    0 -0.11238341082E+03 -0.27595941225E+03  0.77653499302E+02  0.30791832389E+03  0.00000000000E+00 0.  1.
         -1    1    1    2    0  502  0.31200855043E+03  0.36161657278E+03  0.15528123504E+02  0.47786714040E+03  0.00000000000E+00 0. -1.
<mgrwt>
<rscale>  1 0.80521858E+03</rscale>
<asrwt>0</asrwt>
<pdfrwt beam="1">  1       21 0.70389206E-01 0.80521858E+03</pdfrwt>
<pdfrwt beam="2">0</pdfrwt>
<totfact> 0.16313784E+02</totfact>
</mgrwt>
</event>
<event>
 6    1  0.1439793E-004  0.6482374E+03  0.7818608E-02  0.9810092E-01
         21   -1    0    0  501  502  0.00000000000E+00  0.00000000000E+00  0.20658311655E+03  0.20658311655E+03  0.00000000000E+00 0. -1.
         13   -1    0    0    0    0 -0.00000000000E+00 -0.00000000000E+00 -0.10000000000E+04  0.10000000000E+04  0.00000000000E+00 0.  1.
    9000005    2    1    2  501    0 -0.13753798455E+02  0.19115658893E+02 -0.89343572011E+03  0.11038293182E+04  0.64780954174E+03 0.  0.
         13    1    3    3    0    0 -0.10291222859E+01 -0.24554734842E+02 -0.99355642795E+03  0.99386033708E+03  0.00000000000E+00 0.  1.
          3    1    3    3  501    0 -0.12724676169E+02  0.43670393735E+02  0.10012070784E+03  0.10996898113E+03  0.00000000000E+00 0.  1.
         -3    1    1    2    0  502  0.13753798455E+02 -0.19115658893E+02  0.10001883666E+03  0.10275379834E+03  0.00000000000E+00 0. -1.
<mgrwt>
<rscale>  1 0.64823744E+03</rscale>
<asrwt>0</asrwt>
<pdfrwt beam="1">  1       21 0.31782017E-01 0.64823744E+03</pdfrwt>
<pdfrwt beam="2">0</pdfrwt>
<totfact> 0.90384130E+02</totfact>
</mgrwt>
</event>
<event>
 6    1  0.1439793E-004  0.6477096E+03  0.7818608E-02  0.9811087E-01
         21   -1    0    0  501  502  0.00000000000E+00  0.00000000000E+00  0.36520585070E+03  0.36520585070E+03  0.00000000000E+00 0. -1.
         13   -1    0    0    0    0 -0.00000000000E+00 -0.00000000000E+00 -0.10000000000E+04  0.10000000000E+04  0.00000000000E+00 0.  1.
    9000005    2    1    2  501    0 -0.17201600182E+02 -0.22573495576E+02 -0.89426310288E+03  0.11041893845E+04  0.64708750717E+03 0.  0.
         13    1    3    3    0    0  0.11004926795E+03 -0.28369160684E+02  0.68726159880E+02  0.13281165501E+03  0.00000000000E+00 0.  1.
          1    1    3    3  501    0 -0.12725086813E+03  0.57956651088E+01 -0.96298926276E+03  0.97137772950E+03  0.00000000000E+00 0.  1.
         -1    1    1    2    0  502  0.17201600182E+02  0.22573495576E+02  0.25946895358E+03  0.26101646619E+03  0.00000000000E+00 0. -1.
<mgrwt>
<rscale>  1 0.64770958E+03</rscale>
<asrwt>0</asrwt>
<pdfrwt beam="1">  1       21 0.56185514E-01 0.64770958E+03</pdfrwt>
<pdfrwt beam="2">0</pdfrwt>
<totfact> 0.27412514E+02</totfact>
</mgrwt>
</event>
<event>
 6    1  0.1439793E-004  0.6537302E+03  0.7818608E-02  0.9799805E-01
         21   -1    0    0  501  502  0.00000000000E+00  0.00000000000E+00  0.14705267073E+03  0.14705267073E+03  0.00000000000E+00 0.  1.
         13   -1    0    0    0    0 -0.00000000000E+00 -0.00000000000E+00 -0.10000000000E+04  0.10000000000E+04  0.00000000000E+00 0.  1.
    9000005    2    1    2  501    0 -0.81234114051E+02  0.38537272023E+02 -0.82558693661E+03  0.10530702590E+04  0.64751762752E+03 0.  0.
         13    1    3    3    0    0  0.17516533335E+03 -0.15257401960E+03 -0.86697343296E+02  0.24794788727E+03  0.00000000000E+00 0.  1.
          1    1    3    3  501    0 -0.25639944740E+03  0.19111129163E+03 -0.73888959331E+03  0.80512237177E+03  0.00000000000E+00 0.  1.
         -3    1    1    2    0  502  0.81234114051E+02 -0.38537272023E+02 -0.27360392662E+02  0.93982411691E+02  0.00000000000E+00 0. -1.
<mgrwt>
<rscale>  1 0.65373020E+03</rscale>
<asrwt>0</asrwt>
<pdfrwt beam="1">  1       21 0.22623487E-01 0.65373020E+03</pdfrwt>
<pdfrwt beam="2">0</pdfrwt>
<totfact> 0.17690559E+03</totfact>
</mgrwt>
</event>
<event>
 6    1  0.1439793E-004  0.6481811E+03  0.7818608E-02  0.9810198E-01
         21   -1    0    0  501  502  0.00000000000E+00  0.00000000000E+00  0.19551062802E+03  0.19551062802E+03  0.00000000000E+00 0.  1.
         13   -1    0    0    0    0 -0.00000000000E+00 -0.00000000000E+00 -0.10000000000E+04  0.10000000000E+04  0.00000000000E+00 0.  1.
    9000005    2    1    2  501    0 -0.29645957321E+02  0.23246819077E+02 -0.89061001589E+03  0.11015102946E+04  0.64708533536E+03 0.  0.
         13    1    3    3    0    0  0.12663231853E+03 -0.26346803459E+03 -0.58640545029E+03  0.65522706101E+03  0.00000000000E+00 0.  1.
          3    1    3    3  501    0 -0.15627827585E+03  0.28671485367E+03 -0.30420456560E+03  0.44628323355E+03  0.00000000000E+00 0.  1.
         -3    1    1    2    0  502  0.29645957321E+02 -0.23246819077E+02  0.86120643911E+02  0.94000333459E+02  0.00000000000E+00 0. -1.
<mgrwt>
<rscale>  1 0.64818109E+03</rscale>
<asrwt>0</asrwt>
<pdfrwt beam="1">  1       21 0.30078557E-01 0.64818109E+03</pdfrwt>
<pdfrwt beam="2">0</pdfrwt>
<totfact> 0.10096109E+03</totfact>
</mgrwt>
</event>
<event>
 6    1  0.1439793E-004  0.6828153E+03  0.7818608E-02  0.9747080E-01
         21   -1    0    0  501  502  0.00000000000E+00  0.00000000000E+00  0.18778152318E+03  0.18778152318E+03  0.00000000000E+00 0.  1.
         13   -1    0    0    0    0 -0.00000000000E+00 -0.00000000000E+00 -0.10000000000E+04  0.10000000000E+04  0.00000000000E+00 0.  1.
    9000005    2    1    2  501    0 -0.49466566425E+01 -0.18378134995E+03 -0.63735106832E+03  0.93405201257E+03  0.65759921221E+03 0.  0.
         13    1    3    3    0    0  0.32453324554E+03 -0.69805536111E+02 -0.34855879093E+03  0.48133966288E+03  0.00000000000E+00 0.  1.
          1    1    3    3  501    0 -0.32947990218E+03 -0.11397581384E+03 -0.28879227739E+03  0.45271234969E+03  0.00000000000E+00 0.  1.
         -3    1    1    2    0  502  0.49466566425E+01  0.18378134995E+03 -0.17486740850E+03  0.25372951061E+03  0.00000000000E+00 0. -1.
<mgrwt>
<rscale>  1 0.68281533E+03</rscale>
<asrwt>0</asrwt>
<pdfrwt beam="1">  1       21 0.28889464E-01 0.68281533E+03</pdfrwt>
<pdfrwt beam="2">0</pdfrwt>
<totfact> 0.10920885E+03</totfact>
</mgrwt>
</event>
<event>
 6    1  0.1439793E-004  0.6565731E+03  0.7818608E-02  0.9794523E-01
         21   -1    0    0  501  502  0.00000000000E+00  0.00000000000E+00  0.15299247846E+03  0.15299247846E+03  0.00000000000E+00 0.  1.
         13   -1    0    0    0    0 -0.00000000000E+00 -0.00000000000E+00 -0.10000000000E+04  0.10000000000E+04  0.00000000000E+00 0.  1.
    9000005    2    1    2  501    0  0.24325747854E+02  0.74978570497E+01 -0.88822362769E+03  0.11045494472E+04  0.65607949876E+03 0.  0.
         13    1    3    3    0    0  0.13464207623E+03  0.29693433070E+03 -0.59261966248E+03  0.67638491245E+03  0.00000000000E+00 0.  1.
          3    1    3    3  501    0 -0.11031632838E+03 -0.28943647365E+03 -0.29560396522E+03  0.42816453477E+03  0.00000000000E+00 0.  1.
         -3    1    1    2    0  502 -0.24325747854E+02 -0.74978570497E+01  0.41216106152E+02  0.48443031235E+02  0.00000000000E+00 0. -1.
<mgrwt>
<rscale>  1 0.65657313E+03</rscale>
<asrwt>0</asrwt>
<pdfrwt beam="1">  1       21 0.23537304E-01 0.65657313E+03</pdfrwt>
<pdfrwt beam="2">0</pdfrwt>
<totfact> 0.16377265E+03</totfact>
</mgrwt>
</event>
<event>
 6    1  0.1439793E-004  0.6609414E+03  0.7818608E-02  0.9786462E-01
         21   -1    0    0  501  502  0.00000000000E+00  0.00000000000E+00  0.15754132238E+03  0.15754132238E+03  0.00000000000E+00 0.  1.
         13   -1    0    0    0    0 -0.00000000000E+00 -0.00000000000E+00 -0.10000000000E+04  0.10000000000E+04  0.00000000000E+00 0.  1.
    9000005    2    1    2  501    0 -0.93243833267E+02  0.73306283867E+02 -0.78363128028E+03  0.10251446216E+04  0.65021172559E+03 0.  0.
         13    1    3    3    0    0  0.99959329420E+02  0.25021582666E+03 -0.70014242439E+03  0.75019946806E+03  0.00000000000E+00 0.  1.
          1    1    3    3  501    0 -0.19320316269E+03 -0.17690954279E+03 -0.83488855892E+02  0.27494515355E+03  0.00000000000E+00 0.  1.
         -3    1    1    2    0  502  0.93243833267E+02 -0.73306283867E+02 -0.58827397337E+02  0.13239670077E+03  0.00000000000E+00 0. -1.
<mgrwt>
<rscale>  1 0.66094138E+03</rscale>
<asrwt>0</asrwt>
<pdfrwt beam="1">  1       21 0.24237126E-01 0.66094138E+03</pdfrwt>
<pdfrwt beam="2">0</pdfrwt>
<totfact> 0.15463799E+03</totfact>
</mgrwt>
</event>
<event>
 6    1  0.1439793E-004  0.6542650E+03  0.7818608E-02  0.9798809E-01
         21   -1    0    0  501  502  0.00000000000E+00  0.00000000000E+00  0.14572673626E+03  0.14572673626E+03  0.00000000000E+00 0.  1.
         13   -1    0    0    0    0 -0.00000000000E+00 -0.00000000000E+00 -0.10000000000E+04  0.10000000000E+04  0.00000000000E+00 0.  1.
    9000005    2    1    2  501    0 -0.21735994300E+02 -0.91944843407E+02 -0.81044262654E+03  0.10415757284E+04  0.64740747559E+03 0.  0.
         13    1    3    3    0    0 -0.80507699724E+01  0.20379111368E+03 -0.69416747433E+03  0.72350819990E+03  0.00000000000E+00 0.  1.
          3    1    3    3  501    0 -0.13685224328E+02 -0.29573595709E+03 -0.11627515221E+03  0.31806752852E+03  0.00000000000E+00 0.  1.
         -1    1    1    2    0  502  0.21735994300E+02  0.91944843407E+02 -0.43830637197E+02  0.10415100784E+03  0.00000000000E+00 0. -1.
<mgrwt>
<rscale>  1 0.65426504E+03</rscale>
<asrwt>0</asrwt>
<pdfrwt beam="1">  1       21 0.22419497E-01 0.65426504E+03</pdfrwt>
<pdfrwt beam="2">0</pdfrwt>
<totfact> 0.18003700E+03</totfact>
</mgrwt>
</event>
<event>
 6    1  0.1439793E-004  0.6586986E+03  0.7818608E-02  0.9790592E-01
         21   -1    0    0  501  502  0.00000000000E+00  0.00000000000E+00  0.13924068633E+03  0.13924068633E+03  0.00000000000E+00 0.  1.
         13   -1    0    0    0    0 -0.00000000000E+00 -0.00000000000E+00 -0.10000000000E+04  0.10000000000E+04  0.00000000000E+00 0.  1.
    9000005    2    1    2  501    0  0.14674516181E+02  0.69332252540E+02 -0.83567053834E+03  0.10640625691E+04  0.65487525496E+03 0.  0.
         13    1    3    3    0    0 -0.25484879307E+03  0.27759411006E+01 -0.71916059808E+03  0.76298596253E+03  0.00000000000E+00 0.  1.
          3    1    3    3  501    0  0.26952330925E+03  0.66556311440E+02 -0.11650994026E+03  0.30107660654E+03  0.00000000000E+00 0.  1.
         -3    1    1    2    0  502 -0.14674516181E+02 -0.69332252540E+02 -0.25088775331E+02  0.75178117262E+02  0.00000000000E+00 0. -1.
<mgrwt>
<rscale>  1 0.65869864E+03</rscale>
<asrwt>0</asrwt>
<pdfrwt beam="1">  1       21 0.21421643E-01 0.65869864E+03</pdfrwt>
<pdfrwt beam="2">0</pdfrwt>
<totfact> 0.19657794E+03</totfact>
</mgrwt>
</event>
<event>
 6    1  0.1439793E-004  0.6587372E+03  0.7818608E-02  0.9790521E-01
         21   -1    0    0  501  502  0.00000000000E+00  0.00000000000E+00  0.15875620206E+03  0.15875620206E+03  0.00000000000E+00 0. -1.
         13   -1    0    0    0    0 -0.00000000000E+00 -0.00000000000E+00 -0.10000000000E+04  0.10000000000E+04  0.00000000000E+00 0.  1.
    9000005    2    1    2  501    0  0.18435407022E+02 -0.24095423377E+02 -0.88638872966E+03  0.11043639368E+04  0.65803819887E+03 0.  0.
         13    1    3    3    0    0  0.21713231795E+03  0.53281179956E+02 -0.34531746855E+02  0.22622504100E+03  0.00000000000E+00 0.  1.
          3    1    3    3  501    0 -0.19869691092E+03 -0.77376603333E+02 -0.85185698281E+03  0.87813889580E+03  0.00000000000E+00 0.  1.
         -1    1    1    2    0  502 -0.18435407022E+02  0.24095423377E+02  0.45144931724E+02  0.54392265260E+02  0.00000000000E+00 0. -1.
<mgrwt>
<rscale>  1 0.65873722E+03</rscale>
<asrwt>0</asrwt>
<pdfrwt beam="1">  1       21 0.24424030E-01 0.65873722E+03</pdfrwt>
<pdfrwt beam="2">0</pdfrwt>
<totfact> 0.15234931E+03</totfact>
</mgrwt>
</event>
<event>
 6    1  0.1439793E-004  0.6439713E+03  0.7818608E-02  0.9818158E-01
         21   -1    0    0  501  502  0.00000000000E+00  0.00000000000E+00  0.13527384161E+03  0.13527384161E+03  0.00000000000E+00 0.  1.
         13   -1    0    0    0    0 -0.00000000000E+00 -0.00000000000E+00 -0.10000000000E+04  0.10000000000E+04  0.00000000000E+00 0.  1.
    9000005    2    1    2  501    0 -0.69363700863E+02 -0.58611761273E+02 -0.77468723481E+03  0.10073923757E+04  0.63753621494E+03 0.  0.
         13    1    3    3    0    0 -0.98472091029E+02 -0.31724952088E+03 -0.62331393570E+03  0.70630324482E+03  0.00000000000E+00 0.  1.
          3    1    3    3  501    0  0.29108390166E+02  0.25863775960E+03 -0.15137329911E+03  0.30108913091E+03  0.00000000000E+00 0.  1.
         -1    1    1    2    0  502  0.69363700863E+02  0.58611761273E+02 -0.90038923578E+02  0.12788146588E+03  0.00000000000E+00 0. -1.
<mgrwt>
<rscale>  1 0.64397134E+03</rscale>
<asrwt>0</asrwt>
<pdfrwt beam="1">  1       21 0.20811360E-01 0.64397134E+03</pdfrwt>
<pdfrwt beam="2">0</pdfrwt>
<totfact> 0.20796994E+03</totfact>
</mgrwt>
</event>
<event>
 6    1  0.1439793E-004  0.6615315E+03  0.7818608E-02  0.9785379E-01
         21   -1    0    0  501  502  0.00000000000E+00  0.00000000000E+00  0.21847565634E+03  0.21847565634E+03  0.00000000000E+00 0.  1.
         13   -1    0    0    0    0 -0.00000000000E+00 -0.00000000000E+00 -0.10000000000E+04  0.10000000000E+04  0.00000000000E+00 0.  1.
    9000005    2    1    2  501    0 -0.70309913746E+01  0.98117515939E+02 -0.86534291858E+03  0.10892393020E+04  0.65417689395E+03 0.  0.
         13    1    3    3    0    0  0.38180116727E+02  0.31229550652E+03 -0.80177969289E+03  0.86129953015E+03  0.00000000000E+00 0.  1.
          1    1    3    3  501    0 -0.45211108101E+02 -0.21417799058E+03 -0.63563225695E+02  0.22793977188E+03  0.00000000000E+00 0.  1.
         -1    1    1    2    0  502  0.70309913746E+01 -0.98117515939E+02  0.83818574919E+02  0.12923635431E+03  0.00000000000E+00 0. -1.
<mgrwt>
<rscale>  1 0.66153147E+03</rscale>
<asrwt>0</asrwt>
<pdfrwt beam="1">  1       21 0.33611638E-01 0.66153147E+03</pdfrwt>
<pdfrwt beam="2">0</pdfrwt>
<totfact> 0.80637833E+02</totfact>
</mgrwt>
</event>
<event>
 6    1  0.1439793E-004  0.1128868E+04  0.7818608E-02  0.9177503E-01
         21   -1    0    0  501  502  0.00000000000E+00  0.00000000000E+00  0.10362266490E+04  0.10362266490E+04  0.00000000000E+00 0. -1.
         13   -1    0    0    0    0 -0.00000000000E+00 -0.00000000000E+00 -0.10000000000E+04  0.10000000000E+04  0.00000000000E+00 0.  1.
    9000005    2    1    2  501    0  0.52656526409E+03  0.71448147272E+03 -0.11927493269E+03  0.11351520160E+04  0.69755920018E+03 0.  0.
         13    1    3    3    0    0 -0.95890379297E+02 -0.76112098948E+02 -0.19886917781E+02  0.12403026222E+03  0.00000000000E+00 0.  1.
          1    1    3    3  501    0  0.62245564338E+03  0.79059357167E+03 -0.99388014905E+02  0.10111217538E+04  0.00000000000E+00 0.  1.
         -1    1    1    2    0  502 -0.52656526409E+03 -0.71448147272E+03  0.15550158165E+03  0.90107463292E+03  0.00000000000E+00 0. -1.
<mgrwt>
<rscale>  1 0.11288683E+04</rscale>
<asrwt>0</asrwt>
<pdfrwt beam="1">  1       21 0.15941948E+00 0.11288683E+04</pdfrwt>
<pdfrwt beam="2">0</pdfrwt>
<totfact> 0.19962062E+01</totfact>
</mgrwt>
</event>
<event>
 6    1  0.1439793E-004  0.6432635E+03  0.7818608E-02  0.9819502E-01
         21   -1    0    0  501  502  0.00000000000E+00  0.00000000000E+00  0.38175503152E+03  0.38175503152E+03  0.00000000000E+00 0. -1.
         13   -1    0    0    0    0 -0.00000000000E+00 -0.00000000000E+00 -0.10000000000E+04  0.10000000000E+04  0.00000000000E+00 0.  1.
    9000005    2    1    2  501    0 -0.26228903790E+02  0.32478921515E+02 -0.89482422401E+03  0.11020428217E+04  0.64190743355E+03 0.  0.
         13    1    3    3    0    0  0.46078899221E+02  0.30773301469E+03 -0.67217492867E+03  0.74070372486E+03  0.00000000000E+00 0.  1.
          1    1    3    3  501    0 -0.72307803011E+02 -0.27525409318E+03 -0.22264929534E+03  0.36133909684E+03  0.00000000000E+00 0.  1.
         -3    1    1    2    0  502  0.26228903790E+02 -0.32478921515E+02  0.27657925553E+03  0.27971220983E+03  0.00000000000E+00 0. -1.
<mgrwt>
<rscale>  1 0.64326355E+03</rscale>
<asrwt>0</asrwt>
<pdfrwt beam="1">  1       21 0.58731542E-01 0.64326355E+03</pdfrwt>
<pdfrwt beam="2">0</pdfrwt>
<totfact> 0.24886254E+02</totfact>
</mgrwt>
</event>
<event>
 6    1  0.1439793E-004  0.6496322E+03  0.7818608E-02  0.9807470E-01
         21   -1    0    0  501  502  0.00000000000E+00  0.00000000000E+00  0.13569720604E+03  0.13569720604E+03  0.00000000000E+00 0.  1.
         13   -1    0    0    0    0 -0.00000000000E+00 -0.00000000000E+00 -0.10000000000E+04  0.10000000000E+04  0.00000000000E+00 0.  1.
    9000005    2    1    2  501    0  0.51531278541E+01 -0.79250220422E+02 -0.81495529506E+03  0.10421967899E+04  0.64475953955E+03 0.  0.
         13    1    3    3    0    0  0.15518675826E+03 -0.31581071940E+03 -0.57108723326E+03  0.67079055480E+03  0.00000000000E+00 0.  1.
          1    1    3    3  501    0 -0.15003363040E+03  0.23656049898E+03 -0.24386806180E+03  0.37140623513E+03  0.00000000000E+00 0.  1.
         -1    1    1    2    0  502 -0.51531278541E+01  0.79250220422E+02 -0.49347498901E+02  0.93500416103E+02  0.00000000000E+00 0. -1.
<mgrwt>
<rscale>  1 0.64963222E+03</rscale>
<asrwt>0</asrwt>
<pdfrwt beam="1">  1       21 0.20876493E-01 0.64963222E+03</pdfrwt>
<pdfrwt beam="2">0</pdfrwt>
<totfact> 0.20667387E+03</totfact>
</mgrwt>
</event>
<event>
 6    1  0.1439793E-004  0.6659257E+03  0.7818608E-02  0.9777346E-01
         21   -1    0    0  501  502  0.00000000000E+00  0.00000000000E+00  0.15389049539E+03  0.15389049539E+03  0.00000000000E+00 0.  1.
         13   -1    0    0    0    0 -0.00000000000E+00 -0.00000000000E+00 -0.10000000000E+04  0.10000000000E+04  0.00000000000E+00 0.  1.
    9000005    2    1    2  501    0  0.30958427665E+02 -0.94464196003E+02 -0.80889699483E+03  0.10477458796E+04  0.65846425223E+03 0.  0.
         13    1    3    3    0    0  0.23402569977E+03 -0.15960143747E+02 -0.79578659829E+03  0.82963791160E+03  0.00000000000E+00 0.  1.
          3    1    3    3  501    0 -0.20306727211E+03 -0.78504052256E+02 -0.13110396538E+02  0.21810796803E+03  0.00000000000E+00 0.  1.
         -3    1    1    2    0  502 -0.30958427665E+02  0.94464196003E+02 -0.37212509786E+02  0.10614461576E+03  0.00000000000E+00 0. -1.
<mgrwt>
<rscale>  1 0.66592573E+03</rscale>
<asrwt>0</asrwt>
<pdfrwt beam="1">  1       21 0.23675460E-01 0.66592573E+03</pdfrwt>
<pdfrwt beam="2">0</pdfrwt>
<totfact> 0.16184222E+03</totfact>
</mgrwt>
</event>
<event>
 6    1  0.1439793E-004  0.6683505E+03  0.7818608E-02  0.9772942E-01
         21   -1    0    0  501  502  0.00000000000E+00  0.00000000000E+00  0.23651912553E+03  0.23651912553E+03  0.00000000000E+00 0.  1.
         13   -1    0    0    0    0 -0.00000000000E+00 -0.00000000000E+00 -0.10000000000E+04  0.10000000000E+04  0.00000000000E+00 0.  1.
    9000005    2    1    2  501    0 -0.12440562578E+03 -0.16244394702E+02 -0.85207959056E+03  0.10829275484E+04  0.65646919675E+03 0.  0.
         13    1    3    3    0    0  0.21484643320E+03  0.12344540424E+03 -0.56542446318E+03  0.61733506400E+03  0.00000000000E+00 0.  1.
          1    1    3    3  501    0 -0.33925205897E+03 -0.13968979894E+03 -0.28665512738E+03  0.46559248437E+03  0.00000000000E+00 0.  1.
         -3    1    1    2    0  502  0.12440562578E+03  0.16244394702E+02  0.88598716088E+02  0.15359157717E+03  0.00000000000E+00 0. -1.
<mgrwt>
<rscale>  1 0.66835054E+03</rscale>
<asrwt>0</asrwt>
<pdfrwt beam="1">  1       21 0.36387557E-01 0.66835054E+03</pdfrwt>
<pdfrwt beam="2">0</pdfrwt>
<totfact> 0.68553682E+02</totfact>
</mgrwt>
</event>
<event>
 6    1  0.1439793E-004  0.7283677E+03  0.7818608E-02  0.9669913E-01
         21   -1    0    0  501  502  0.00000000000E+00  0.00000000000E+00  0.31280643462E+03  0.31280643462E+03  0.00000000000E+00 0.  1.
         13   -1    0    0    0    0 -0.00000000000E+00 -0.00000000000E+00 -0.10000000000E+04  0.10000000000E+04  0.00000000000E+00 0.  1.
    9000005    2    1    2  501    0 -0.55225622067E+01 -0.32611397115E+03 -0.66436121713E+03  0.98584751212E+03  0.65125929510E+03 0.  0.
         13    1    3    3    0    0  0.55512877024E+02 -0.21485081013E+03 -0.78195709027E+03  0.81283420274E+03  0.00000000000E+00 0.  1.
          1    1    3    3  501    0 -0.61035439230E+02 -0.11126316103E+03  0.11759587314E+03  0.17301330938E+03  0.00000000000E+00 0.  1.
         -1    1    1    2    0  502  0.55225622067E+01  0.32611397115E+03 -0.22832348252E+02  0.32695892250E+03  0.00000000000E+00 0. -1.
<mgrwt>
<rscale>  1 0.72836769E+03</rscale>
<asrwt>0</asrwt>
<pdfrwt beam="1">  1       21 0.48124065E-01 0.72836769E+03</pdfrwt>
<pdfrwt beam="2">0</pdfrwt>
<totfact> 0.38013205E+02</totfact>
</mgrwt>
</event>
<event>
 6    1  0.1439793E-004  0.6593375E+03  0.7818608E-02  0.9789414E-01
         21   -1    0    0  501  502  0.00000000000E+00  0.00000000000E+00  0.30273288823E+03  0.30273288823E+03  0.00000000000E+00 0. -1.
         13   -1    0    0    0    0 -0.00000000000E+00 -0.00000000000E+00 -0.10000000000E+04  0.10000000000E+04  0.00000000000E+00 0.  1.
    9000005    2    1    2  501    0  0.10674519305E+03  0.53508878916E+02 -0.87069746161E+03  0.10921721545E+04  0.64843520028E+03 0.  0.
         13    1    3    3    0    0 -0.19723491703E+03 -0.17102172933E+03 -0.22801785097E+03  0.34661532678E+03  0.00000000000E+00 0.  1.
          1    1    3    3  501    0  0.30398011008E+03  0.22453060825E+03 -0.64267961064E+03  0.74555682767E+03  0.00000000000E+00 0.  1.
         -3    1    1    2    0  502 -0.10674519305E+03 -0.53508878916E+02  0.17343034983E+03  0.21056073377E+03  0.00000000000E+00 0. -1.
<mgrwt>
<rscale>  1 0.65933750E+03</rscale>
<asrwt>0</asrwt>
<pdfrwt beam="1">  1       21 0.46574289E-01 0.65933750E+03</pdfrwt>
<pdfrwt beam="2">0</pdfrwt>
<totfact> 0.41000918E+02</totfact>
</mgrwt>
</event>
<event>
 6    1  0.1439793E-004  0.6643641E+03  0.7818608E-02  0.9780193E-01
         21   -1    0    0  501  502  0.00000000000E+00  0.00000000000E+00  0.16135274689E+03  0.16135274689E+03  0.00000000000E+00 0.  1.
         13   -1    0    0    0    0 -0.00000000000E+00 -0.00000000000E+00 -0.10000000000E+04  0.10000000000E+04  0.00000000000E+00 0.  1.
    9000005    2    1    2  501    0 -0.62559505974E+01 -0.20016831205E+02 -0.88724983087E+03  0.11084186273E+04  0.66403296649E+03 0.  0.
         13    1    3    3    0    0  0.15431507683E+03  0.79143947259E+02  0.26450045427E+02  0.17543235799E+03  0.00000000000E+00 0.  1.
          1    1    3    3  501    0 -0.16057102743E+03 -0.99160778464E+02 -0.91369987629E+03  0.93298626934E+03  0.00000000000E+00 0.  1.
         -3    1    1    2    0  502  0.62559505974E+01  0.20016831205E+02  0.48602577752E+02  0.52934119560E+02  0.00000000000E+00 0. -1.
<mgrwt>
<rscale>  1 0.66436405E+03</rscale>
<asrwt>0</asrwt>
<pdfrwt beam="1">  1       21 0.24823499E-01 0.66436405E+03</pdfrwt>
<pdfrwt beam="2">0</pdfrwt>
<totfact> 0.14754463E+03</totfact>
</mgrwt>
</event>
<event>
 6    1  0.1439793E-004  0.6304777E+03  0.7818608E-02  0.9844117E-01
         21   -1    0    0  501  502  0.00000000000E+00  0.00000000000E+00  0.11443007710E+03  0.11443007710E+03  0.00000000000E+00 0.  1.
         13   -1    0    0    0    0 -0.00000000000E+00 -0.00000000000E+00 -0.10000000000E+04  0.10000000000E+04  0.00000000000E+00 0.  1.
    9000005    2    1    2  501    0 -0.11057618729E+02  0.20080835177E+02 -0.89038777160E+03  0.10910052497E+04  0.63006075910E+03 0.  0.
         13    1    3    3    0    0  0.23658526930E+02  0.48429720205E+02 -0.98491587905E+03  0.98638960482E+03  0.00000000000E+00 0.  1.
          1    1    3    3  501    0 -0.34716145659E+02 -0.28348885028E+02  0.94528107453E+02  0.10461564486E+03  0.00000000000E+00 0.  1.
         -1    1    1    2    0  502  0.11057618729E+02 -0.20080835177E+02  0.48178486937E+01  0.23424827414E+02  0.00000000000E+00 0. -1.
<mgrwt>
<rscale>  1 0.63047765E+03</rscale>
<asrwt>0</asrwt>
<pdfrwt beam="1">  1       21 0.17604627E-01 0.63047765E+03</pdfrwt>
<pdfrwt beam="2">0</pdfrwt>
<totfact> 0.28636618E+03</totfact>
</mgrwt>
</event>
<event>
 6    1  0.1439793E-004  0.6832162E+03  0.7818608E-02  0.9746373E-01
         21   -1    0    0  501  502  0.00000000000E+00  0.00000000000E+00  0.16045722627E+03  0.16045722627E+03  0.00000000000E+00 0.  1.
         13   -1    0    0    0    0 -0.00000000000E+00 -0.00000000000E+00 -0.10000000000E+04  0.10000000000E+04  0.00000000000E+00 0.  1.
    9000005    2    1    2  501    0 -0.43936675338E+02 -0.80103559790E+02 -0.81946553570E+03  0.10669152185E+04  0.67707998607E+03 0.  0.
         13    1    3    3    0    0  0.15148160422E+03 -0.23373673189E+03 -0.76265807981E+03  0.81192788038E+03  0.00000000000E+00 0.  1.
          3    1    3    3  501    0 -0.19541827956E+03  0.15363317210E+03 -0.56807455894E+02  0.25498733812E+03  0.00000000000E+00 0.  1.
         -3    1    1    2    0  502  0.43936675338E+02  0.80103559790E+02 -0.20077238030E+02  0.93542007770E+02  0.00000000000E+00 0. -1.
<mgrwt>
<rscale>  1 0.68321616E+03</rscale>
<asrwt>0</asrwt>
<pdfrwt beam="1">  1       21 0.24685726E-01 0.68321616E+03</pdfrwt>
<pdfrwt beam="2">0</pdfrwt>
<totfact> 0.14902273E+03</totfact>
</mgrwt>
</event>
<event>
 6    1  0.1439793E-004  0.6594139E+03  0.7818608E-02  0.9789273E-01
         21   -1    0    0  501  502  0.00000000000E+00  0.00000000000E+00  0.20343246886E+03  0.20343246886E+03  0.00000000000E+00 0.  1.
         13   -1    0    0    0    0 -0.00000000000E+00 -0.00000000000E+00 -0.10000000000E+04  0.10000000000E+04  0.00000000000E+00 0.  1.
    9000005    2    1    2  501    0 -0.27547722439E+02  0.74925118887E+02 -0.87223245638E+03  0.10934423267E+04  0.65456398732E+03 0.  0.
         13    1    3    3    0    0  0.14048634785E+03  0.17648223713E+03 -0.86823830701E+03  0.89706195534E+03  0.00000000000E+00 0.  1.
          3    1    3    3  501    0 -0.16803407029E+03 -0.10155711824E+03 -0.39941493705E+01  0.19638037141E+03  0.00000000000E+00 0.  1.
         -1    1    1    2    0  502  0.27547722439E+02 -0.74925118887E+02  0.75664925244E+02  0.10999014212E+03  0.00000000000E+00 0. -1.
<mgrwt>
<rscale>  1 0.65941388E+03</rscale>
<asrwt>0</asrwt>
<pdfrwt beam="1">  1       21 0.31297302E-01 0.65941388E+03</pdfrwt>
<pdfrwt beam="2">0</pdfrwt>
<totfact> 0.93156913E+02</totfact>
</mgrwt>
</event>
<event>
 6    1  0.1439793E-004  0.6503439E+03  0.7818608E-02  0.9806134E-01
         21   -1    0    0  501  502  0.00000000000E+00  0.00000000000E+00  0.36341360563E+03  0.36341360563E+03  0.00000000000E+00 0. -1.
         13   -1    0    0    0    0 -0.00000000000E+00 -0.00000000000E+00 -0.10000000000E+04  0.10000000000E+04  0.00000000000E+00 0.  1.
    9000005    2    1    2  501    0 -0.26122264904E+02 -0.11207549775E+03 -0.87996129986E+03  0.10942024719E+04  0.64008114350E+03 0.  0.
         13    1    3    3    0    0 -0.12727874144E+03 -0.32094751380E+03 -0.25995657010E+03  0.43218584310E+03  0.00000000000E+00 0.  1.
          3    1    3    3  501    0  0.10115647654E+03  0.20887201605E+03 -0.62000472976E+03  0.66201662877E+03  0.00000000000E+00 0.  1.
         -3    1    1    2    0  502  0.26122264904E+02  0.11207549775E+03  0.24337490549E+03  0.26921113376E+03  0.00000000000E+00 0. -1.
<mgrwt>
<rscale>  1 0.65034388E+03</rscale>
<asrwt>0</asrwt>
<pdfrwt beam="1">  1       21 0.55909784E-01 0.65034388E+03</pdfrwt>
<pdfrwt beam="2">0</pdfrwt>
<totfact> 0.27700837E+02</totfact>
</mgrwt>
</event>
<event>
 6    1  0.1439793E-004  0.6774621E+03  0.7818608E-02  0.9756571E-01
         21   -1    0    0  501  502  0.00000000000E+00  0.00000000000E+00  0.14103620774E+03  0.14103620774E+03  0.00000000000E+00 0.  1.
         13   -1    0    0    0    0 -0.00000000000E+00 -0.00000000000E+00 -0.10000000000E+04  0.10000000000E+04  0.00000000000E+00 0.  1.
    9000005    2    1    2  501    0 -0.49863658051E+02 -0.17463885764E+02 -0.85080403296E+03  0.10875763782E+04  0.67539877426E+03 0.  0.
         13    1    3    3    0    0  0.19529657689E+03 -0.12523919174E+03 -0.77539232694E+03  0.80935707124E+03  0.00000000000E+00 0.  1.
          3    1    3    3  501    0 -0.24516023494E+03  0.10777530597E+03 -0.75411706017E+02  0.27821930698E+03  0.00000000000E+00 0.  1.
         -1    1    1    2    0  502  0.49863658051E+02  0.17463885764E+02 -0.81597592998E+01  0.53459829518E+02  0.00000000000E+00 0. -1.
<mgrwt>
<rscale>  1 0.67746208E+03</rscale>
<asrwt>0</asrwt>
<pdfrwt beam="1">  1       21 0.21697877E-01 0.67746208E+03</pdfrwt>
<pdfrwt beam="2">0</pdfrwt>
<totfact> 0.19161820E+03</totfact>
</mgrwt>
</event>
<event>
 6    1  0.1439793E-004  0.6574254E+03  0.7818608E-02  0.9792945E-01
         21   -1    0    0  501  502  0.00000000000E+00  0.00000000000E+00  0.31911997627E+03  0.31911997627E+03  0.00000000000E+00 0. -1.
         13   -1    0    0    0    0 -0.00000000000E+00 -0.00000000000E+00 -0.10000000000E+04  0.10000000000E+04  0.00000000000E+00 0.  1.
    9000005    2    1    2  501    0  0.11080727413E+03 -0.21058779353E+02 -0.87509333882E+03  0.10945302705E+04  0.64767772630E+03 0.  0.
         13    1    3    3    0    0  0.25955440780E+03 -0.14730211000E+03 -0.13213548361E+03  0.32638349874E+03  0.00000000000E+00 0.  1.
          1    1    3    3  501    0 -0.14874713367E+03  0.12624333064E+03 -0.74295785521E+03  0.76814677174E+03  0.00000000000E+00 0.  1.
         -1    1    1    2    0  502 -0.11080727413E+03  0.21058779353E+02  0.19421331509E+03  0.22458970579E+03  0.00000000000E+00 0. -1.
<mgrwt>
<rscale>  1 0.65742540E+03</rscale>
<asrwt>0</asrwt>
<pdfrwt beam="1">  1       21 0.49095380E-01 0.65742540E+03</pdfrwt>
<pdfrwt beam="2">0</pdfrwt>
<totfact> 0.36651995E+02</totfact>
</mgrwt>
</event>
<event>
 6    1  0.1439793E-004  0.6834847E+03  0.7818608E-02  0.9745900E-01
         21   -1    0    0  501  502  0.00000000000E+00  0.00000000000E+00  0.21009514548E+03  0.21009514548E+03  0.00000000000E+00 0. -1.
         13   -1    0    0    0    0 -0.00000000000E+00 -0.00000000000E+00 -0.10000000000E+04  0.10000000000E+04  0.00000000000E+00 0.  1.
    9000005    2    1    2  501    0  0.12753011535E+02  0.54760077591E+02 -0.87364080859E+03  0.11092337782E+04  0.68116811943E+03 0.  0.
         13    1    3    3    0    0  0.28348013495E+03 -0.14314553907E+03 -0.58990564458E+03  0.66995544761E+03  0.00000000000E+00 0.  1.
          1    1    3    3  501    0 -0.27072712342E+03  0.19790561666E+03 -0.28373516401E+03  0.43927833062E+03  0.00000000000E+00 0.  1.
         -3    1    1    2    0  502 -0.12753011535E+02 -0.54760077591E+02  0.83735954063E+02  0.10086136725E+03  0.00000000000E+00 0. -1.
<mgrwt>
<rscale>  1 0.68348468E+03</rscale>
<asrwt>0</asrwt>
<pdfrwt beam="1">  1       21 0.32322329E-01 0.68348468E+03</pdfrwt>
<pdfrwt beam="2">0</pdfrwt>
<totfact> 0.87159116E+02</totfact>
</mgrwt>
</event>
<event>
 6    1  0.1439793E-004  0.6599032E+03  0.7818608E-02  0.9788372E-01
         21   -1    0    0  501  502  0.00000000000E+00  0.00000000000E+00  0.47003021021E+03  0.47003021021E+03  0.00000000000E+00 0. -1.
         13   -1    0    0    0    0 -0.00000000000E+00 -0.00000000000E+00 -0.10000000000E+04  0.10000000000E+04  0.00000000000E+00 0.  1.
    9000005    2    1    2  501    0  0.37258720389E+02 -0.40057491243E+02 -0.88883283411E+03  0.11070212579E+04  0.65763169305E+03 0.  0.
         13    1    3    3    0    0  0.65399998616E+02 -0.12755104410E+03 -0.97233595835E+03  0.98284466961E+03  0.00000000000E+00 0.  1.
          1    1    3    3  501    0 -0.28141278227E+02  0.87493552855E+02  0.83503124248E+02  0.12417658834E+03  0.00000000000E+00 0.  1.
         -3    1    1    2    0  502 -0.37258720389E+02  0.40057491243E+02  0.35886304431E+03  0.36300895226E+03  0.00000000000E+00 0. -1.
<mgrwt>
<rscale>  1 0.65990322E+03</rscale>
<asrwt>0</asrwt>
<pdfrwt beam="1">  1       21 0.72312338E-01 0.65990322E+03</pdfrwt>
<pdfrwt beam="2">0</pdfrwt>
<totfact> 0.15580420E+02</totfact>
</mgrwt>
</event>
<event>
 6    1  0.1439793E-004  0.6507086E+03  0.7818608E-02  0.9805450E-01
         21   -1    0    0  501  502  0.00000000000E+00  0.00000000000E+00  0.11798717665E+03  0.11798717665E+03  0.00000000000E+00 0.  1.
         13   -1    0    0    0    0 -0.00000000000E+00 -0.00000000000E+00 -0.10000000000E+04  0.10000000000E+04  0.00000000000E+00 0.  1.
    9000005    2    1    2  501    0  0.34808137316E+02 -0.52944176659E+01 -0.84934892698E+03  0.10699604403E+04  0.64975542067E+03 0.  0.
         13    1    3    3    0    0  0.16696184541E+03 -0.20063656406E+03 -0.92031701649E+02  0.27676907842E+03  0.00000000000E+00 0.  1.
          3    1    3    3  501    0 -0.13215370809E+03  0.19534214640E+03 -0.75731722533E+03  0.79319136184E+03  0.00000000000E+00 0.  1.
         -1    1    1    2    0  502 -0.34808137316E+02  0.52944176659E+01 -0.32663896375E+02  0.48026736389E+02  0.00000000000E+00 0. -1.
<mgrwt>
<rscale>  1 0.65070865E+03</rscale>
<asrwt>0</asrwt>
<pdfrwt beam="1">  1       21 0.18151873E-01 0.65070865E+03</pdfrwt>
<pdfrwt beam="2">0</pdfrwt>
<totfact> 0.27003740E+03</totfact>
</mgrwt>
</event>
<event>
 6    1  0.1439793E-004  0.6896153E+03  0.7818608E-02  0.9735158E-01
         21   -1    0    0  501  502  0.00000000000E+00  0.00000000000E+00  0.49481766189E+03  0.49481766189E+03  0.00000000000E+00 0. -1.
         13   -1    0    0    0    0 -0.00000000000E+00 -0.00000000000E+00 -0.10000000000E+04  0.10000000000E+04  0.00000000000E+00 0.  1.
    9000005    2    1    2  501    0  0.30218104579E+02  0.26522199355E+03 -0.82693491089E+03  0.10767500145E+04  0.63585643598E+03 0.  0.
         13    1    3    3    0    0 -0.20613533611E+03  0.30560611420E+03 -0.23262155521E+03  0.43588950639E+03  0.00000000000E+00 0.  1.
          1    1    3    3  501    0  0.23635344069E+03 -0.40384120655E+02 -0.59431335567E+03  0.64086050811E+03  0.00000000000E+00 0.  1.
         -3    1    1    2    0  502 -0.30218104579E+02 -0.26522199355E+03  0.32175257278E+03  0.41806764739E+03  0.00000000000E+00 0. -1.
<mgrwt>
<rscale>  1 0.68961529E+03</rscale>
<asrwt>0</asrwt>
<pdfrwt beam="1">  1       21 0.76125792E-01 0.68961529E+03</pdfrwt>
<pdfrwt beam="2">0</pdfrwt>
<totfact> 0.13795850E+02</totfact>
</mgrwt>
</event>
<event>
 6    1  0.1439793E-004  0.7475759E+03  0.7818608E-02  0.9639161E-01
         21   -1    0    0  501  502  0.00000000000E+00  0.00000000000E+00  0.59983580597E+03  0.59983580597E+03  0.00000000000E+00 0.  1.
         13   -1    0    0    0    0 -0.00000000000E+00 -0.00000000000E+00 -0.10000000000E+04  0.10000000000E+04  0.00000000000E+00 0.  1.
    9000005    2    1    2  501    0 -0.19744908346E+03  0.28894819240E+03 -0.78202396832E+03  0.10818646816E+04  0.66060010887E+03 0.  0.
         13    1    3    3    0    0 -0.38167548277E+03  0.13764636594E+03 -0.19884811533E+03  0.45184429750E+03  0.00000000000E+00 0.  1.
          1    1    3    3  501    0  0.18422639931E+03  0.15130182645E+03 -0.58317585299E+03  0.63002038412E+03  0.00000000000E+00 0.  1.
         -1    1    1    2    0  502  0.19744908346E+03 -0.28894819240E+03  0.38185977429E+03  0.51797112436E+03  0.00000000000E+00 0. -1.
<mgrwt>
<rscale>  1 0.74757588E+03</rscale>
<asrwt>0</asrwt>
<pdfrwt beam="1">  1       21 0.92282429E-01 0.74757588E+03</pdfrwt>
<pdfrwt beam="2">0</pdfrwt>
<totfact> 0.86992788E+01</totfact>
</mgrwt>
</event>
<event>
 6    1  0.1439793E-004  0.6586235E+03  0.7818608E-02  0.9790731E-01
         21   -1    0    0  501  502  0.00000000000E+00  0.00000000000E+00  0.16343589113E+03  0.16343589113E+03  0.00000000000E+00 0.  1.
         13   -1    0    0    0    0 -0.00000000000E+00 -0.00000000000E+00 -0.10000000000E+04  0.10000000000E+04  0.00000000000E+00 0.  1.
    9000005    2    1    2  501    0  0.14000050414E+02 -0.24153158569E+02 -0.88759692410E+03  0.11052660990E+04  0.65803151409E+03 0.  0.
         13    1    3    3    0    0 -0.19092682265E+03 -0.16033603676E+03 -0.81267297466E+02  0.26223094769E+03  0.00000000000E+00 0.  1.
          3    1    3    3  501    0  0.20492687306E+03  0.13618287819E+03 -0.80632962664E+03  0.84303515135E+03  0.00000000000E+00 0.  1.
         -1    1    1    2    0  502 -0.14000050414E+02  0.24153158569E+02  0.51032815232E+02  0.58169792083E+02  0.00000000000E+00 0. -1.
<mgrwt>
<rscale>  1 0.65862345E+03</rscale>
<asrwt>0</asrwt>
<pdfrwt beam="1">  1       21 0.25143983E-01 0.65862345E+03</pdfrwt>
<pdfrwt beam="2">0</pdfrwt>
<totfact> 0.14392210E+03</totfact>
</mgrwt>
</event>
<event>
 6    1  0.1439793E-004  0.6449795E+03  0.7818608E-02  0.9816246E-01
         21   -1    0    0  501  502  0.00000000000E+00  0.00000000000E+00  0.15232925635E+03  0.15232925635E+03  0.00000000000E+00 0. -1.
         13   -1    0    0    0    0 -0.00000000000E+00 -0.00000000000E+00 -0.10000000000E+04  0.10000000000E+04  0.00000000000E+00 0.  1.
    9000005    2    1    2  501    0 -0.12486581155E+03  0.14174611649E+02 -0.77064523845E+03  0.10049341446E+04  0.63261849562E+03 0.  0.
         13    1    3    3    0    0 -0.27381914001E+03 -0.48884212213E+02 -0.71320229934E+02  0.28714658772E+03  0.00000000000E+00 0.  1.
          3    1    3    3  501    0  0.14895332846E+03  0.63058823861E+02 -0.69932500852E+03  0.71778755692E+03  0.00000000000E+00 0.  1.
         -1    1    1    2    0  502  0.12486581155E+03 -0.14174611649E+02 -0.77025505197E+02  0.14739511172E+03  0.00000000000E+00 0. -1.
<mgrwt>
<rscale>  1 0.64497950E+03</rscale>
<asrwt>0</asrwt>
<pdfrwt beam="1">  1       21 0.23435270E-01 0.64497950E+03</pdfrwt>
<pdfrwt beam="2">0</pdfrwt>
<totfact> 0.16525708E+03</totfact>
</mgrwt>
</event>
<event>
 6    1  0.1439793E-004  0.6443790E+03  0.7818608E-02  0.9817384E-01
         21   -1    0    0  501  502  0.00000000000E+00  0.00000000000E+00  0.36469491110E+03  0.36469491110E+03  0.00000000000E+00 0. -1.
         13   -1    0    0    0    0 -0.00000000000E+00 -0.00000000000E+00 -0.10000000000E+04  0.10000000000E+04  0.00000000000E+00 0.  1.
    9000005    2    1    2  501    0  0.11063600602E+02 -0.19840674804E+02 -0.89564793398E+03  0.11033628376E+04  0.64397847339E+03 0.  0.
         13    1    3    3    0    0 -0.82801660433E+02 -0.31647277966E+03 -0.38297830066E+03  0.50367004478E+03  0.00000000000E+00 0.  1.
          1    1    3    3  501    0  0.93865261035E+02  0.29663210486E+03 -0.51266963333E+03  0.59969279285E+03  0.00000000000E+00 0.  1.
         -1    1    1    2    0  502 -0.11063600602E+02  0.19840674804E+02  0.26034284509E+03  0.26133207347E+03  0.00000000000E+00 0. -1.
<mgrwt>
<rscale>  1 0.64437903E+03</rscale>
<asrwt>0</asrwt>
<pdfrwt beam="1">  1       21 0.56106908E-01 0.64437903E+03</pdfrwt>
<pdfrwt beam="2">0</pdfrwt>
<totfact> 0.27505947E+02</totfact>
</mgrwt>
</event>
<event>
 6    1  0.1439793E-004  0.5975519E+03  0.7818608E-02  0.9910498E-01
         21   -1    0    0  501  502  0.00000000000E+00  0.00000000000E+00  0.10748678203E+03  0.10748678203E+03  0.00000000000E+00 0.  1.
         13   -1    0    0    0    0 -0.00000000000E+00 -0.00000000000E+00 -0.10000000000E+04  0.10000000000E+04  0.00000000000E+00 0.  1.
    9000005    2    1    2  501    0  0.47929318302E+02 -0.11370976749E+02 -0.86419615859E+03  0.10506679954E+04  0.59551802435E+03 0.  0.
         13    1    3    3    0    0  0.24472074427E+03 -0.17065062884E+03 -0.26063063751E+03  0.39615427425E+03  0.00000000000E+00 0.  1.
          3    1    3    3  501    0 -0.19679142596E+03  0.15927965209E+03 -0.60356552108E+03  0.65451372113E+03  0.00000000000E+00 0.  1.
         -3    1    1    2    0  502 -0.47929318302E+02  0.11370976749E+02 -0.28317059378E+02  0.56818786655E+02  0.00000000000E+00 0. -1.
<mgrwt>
<rscale>  1 0.59755187E+03</rscale>
<asrwt>0</asrwt>
<pdfrwt beam="1">  1       21 0.16536428E-01 0.59755187E+03</pdfrwt>
<pdfrwt beam="2">0</pdfrwt>
<totfact> 0.32260378E+03</totfact>
</mgrwt>
</event>
<event>
 6    1  0.1439793E-004  0.6304070E+03  0.7818608E-02  0.9844255E-01
         21   -1    0    0  501  502  0.00000000000E+00  0.00000000000E+00  0.11408177034E+03  0.11408177034E+03  0.00000000000E+00 0.  1.
         13   -1    0    0    0    0 -0.00000000000E+00 -0.00000000000E+00 -0.10000000000E+04  0.10000000000E+04  0.00000000000E+00 0.  1.
    9000005    2    1    2  501    0  0.16134932273E+02  0.25997709892E+02 -0.88065359836E+03  0.10830344951E+04  0.62966398996E+03 0.  0.
         13    1    3    3    0    0 -0.16409260145E+03  0.26953484275E+03 -0.34434322889E+03  0.46706281439E+03  0.00000000000E+00 0.  1.
          3    1    3    3  501    0  0.18022753373E+03 -0.24353713286E+03 -0.53631036947E+03  0.61597168068E+03  0.00000000000E+00 0.  1.
         -1    1    1    2    0  502 -0.16134932273E+02 -0.25997709892E+02 -0.52646312941E+01  0.31047275271E+02  0.00000000000E+00 0. -1.
<mgrwt>
<rscale>  1 0.63040698E+03</rscale>
<asrwt>0</asrwt>
<pdfrwt beam="1">  1       21 0.17551041E-01 0.63040698E+03</pdfrwt>
<pdfrwt beam="2">0</pdfrwt>
<totfact> 0.28802373E+03</totfact>
</mgrwt>
</event>
<event>
 6    1  0.1439793E-004  0.6513187E+03  0.7818608E-02  0.9804308E-01
         21   -1    0    0  501  502  0.00000000000E+00  0.00000000000E+00  0.16359198890E+03  0.16359198890E+03  0.00000000000E+00 0.  1.
         13   -1    0    0    0    0 -0.00000000000E+00 -0.00000000000E+00 -0.10000000000E+04  0.10000000000E+04  0.00000000000E+00 0.  1.
    9000005    2    1    2  501    0  0.19720852392E+02  0.82639942998E+02 -0.85676582790E+03  0.10762265901E+04  0.64575360412E+03 0.  0.
         13    1    3    3    0    0  0.43023585851E+02  0.29864954163E+03 -0.79503135044E+03  0.85036311411E+03  0.00000000000E+00 0.  1.
          1    1    3    3  501    0 -0.23302733459E+02 -0.21600959864E+03 -0.61734477458E+02  0.22586347601E+03  0.00000000000E+00 0.  1.
         -3    1    1    2    0  502 -0.19720852392E+02 -0.82639942998E+02  0.20357816796E+02  0.87365398771E+02  0.00000000000E+00 0. -1.
<mgrwt>
<rscale>  1 0.65131865E+03</rscale>
<asrwt>0</asrwt>
<pdfrwt beam="1">  1       21 0.25167998E-01 0.65131865E+03</pdfrwt>
<pdfrwt beam="2">0</pdfrwt>
<totfact> 0.14370746E+03</totfact>
</mgrwt>
</event>
<event>
 6    1  0.1439793E-004  0.6428646E+03  0.7818608E-02  0.9820261E-01
         21   -1    0    0  501  502  0.00000000000E+00  0.00000000000E+00  0.12446674501E+03  0.12446674501E+03  0.00000000000E+00 0.  1.
         13   -1    0    0    0    0 -0.00000000000E+00 -0.00000000000E+00 -0.10000000000E+04  0.10000000000E+04  0.00000000000E+00 0.  1.
    9000005    2    1    2  501    0  0.51032659024E+02 -0.76050977062E+01 -0.85310787896E+03  0.10682078143E+04  0.64079069246E+03 0.  0.
         13    1    3    3    0    0  0.30765074469E+03  0.10791453112E+02 -0.20222180634E+03  0.36831928422E+03  0.00000000000E+00 0.  1.
          1    1    3    3  501    0 -0.25661808567E+03 -0.18396550818E+02 -0.65088607262E+03  0.69988853005E+03  0.00000000000E+00 0.  1.
         -3    1    1    2    0  502 -0.51032659024E+02  0.76050977062E+01 -0.22425376028E+02  0.56258930741E+02  0.00000000000E+00 0. -1.
<mgrwt>
<rscale>  1 0.64286459E+03</rscale>
<asrwt>0</asrwt>
<pdfrwt beam="1">  1       21 0.19148729E-01 0.64286459E+03</pdfrwt>
<pdfrwt beam="2">0</pdfrwt>
<totfact> 0.24396985E+03</totfact>
</mgrwt>
</event>
<event>
 6    1  0.1439793E-004  0.6546361E+03  0.7818608E-02  0.9798119E-01
         21   -1    0    0  501  502  0.00000000000E+00  0.00000000000E+00  0.13196441841E+03  0.13196441841E+03  0.00000000000E+00 0.  1.
         13   -1    0    0    0    0 -0.00000000000E+00 -0.00000000000E+00 -0.10000000000E+04  0.10000000000E+04  0.00000000000E+00 0.  1.
    9000005    2    1    2  501    0 -0.16357934167E+02 -0.21575332240E+02 -0.88440331679E+03  0.11003261548E+04  0.65407594598E+03 0.  0.
         13    1    3    3    0    0 -0.71095085457E+02  0.10367160251E+03  0.64734943541E+02  0.14139634104E+03  0.00000000000E+00 0.  1.
          3    1    3    3  501    0  0.54737151290E+02 -0.12524693475E+03 -0.94913826034E+03  0.95892981371E+03  0.00000000000E+00 0.  1.
         -3    1    1    2    0  502  0.16357934167E+02  0.21575332240E+02  0.16367735202E+02  0.31638263655E+02  0.00000000000E+00 0. -1.
<mgrwt>
<rscale>  1 0.65463610E+03</rscale>
<asrwt>0</asrwt>
<pdfrwt beam="1">  1       21 0.20302218E-01 0.65463610E+03</pdfrwt>
<pdfrwt beam="2">0</pdfrwt>
<totfact> 0.21801795E+03</totfact>
</mgrwt>
</event>
<event>
 6    1  0.1439793E-004  0.6409035E+03  0.7818608E-02  0.9823999E-01
         21   -1    0    0  501  502  0.00000000000E+00  0.00000000000E+00  0.12353519600E+03  0.12353519600E+03  0.00000000000E+00 0.  1.
         13   -1    0    0    0    0 -0.00000000000E+00 -0.00000000000E+00 -0.10000000000E+04  0.10000000000E+04  0.00000000000E+00 0.  1.
    9000005    2    1    2  501    0 -0.23413413358E+02 -0.96075589708E+00 -0.88979019810E+03  0.10965782469E+04  0.64047493624E+03 0.  0.
         13    1    3    3    0    0 -0.33129131189E+03 -0.22113545986E+02 -0.47708846182E+03  0.58125411195E+03  0.00000000000E+00 0.  1.
          3    1    3    3  501    0  0.30787789853E+03  0.21152790089E+02 -0.41270173628E+03  0.51532413495E+03  0.00000000000E+00 0.  1.
         -1    1    1    2    0  502  0.23413413358E+02  0.96075589708E+00  0.13325394094E+02  0.26956949099E+02  0.00000000000E+00 0. -1.
<mgrwt>
<rscale>  1 0.64090347E+03</rscale>
<asrwt>0</asrwt>
<pdfrwt beam="1">  1       21 0.19005414E-01 0.64090347E+03</pdfrwt>
<pdfrwt beam="2">0</pdfrwt>
<totfact> 0.24751129E+03</totfact>
</mgrwt>
</event>
<event>
 6    1  0.1439793E-004  0.6567451E+03  0.7818608E-02  0.9794204E-01
         21   -1    0    0  501  502  0.00000000000E+00  0.00000000000E+00  0.20335652400E+03  0.20335652400E+03  0.00000000000E+00 0.  1.
         13   -1    0    0    0    0 -0.00000000000E+00 -0.00000000000E+00 -0.10000000000E+04  0.10000000000E+04  0.00000000000E+00 0.  1.
    9000005    2    1    2  501    0  0.33280960431E+00  0.20388062097E+02 -0.89096440916E+03  0.11068566677E+04  0.65642845808E+03 0.  0.
         13    1    3    3    0    0  0.17963081895E+03 -0.22538011201E+03 -0.19689626127E+03  0.34904378480E+03  0.00000000000E+00 0.  1.
          3    1    3    3  501    0 -0.17929800934E+03  0.24576817410E+03 -0.69406814788E+03  0.75781288288E+03  0.00000000000E+00 0.  1.
         -3    1    1    2    0  502 -0.33280960431E+00 -0.20388062097E+02  0.94320933157E+02  0.96499856321E+02  0.00000000000E+00 0. -1.
<mgrwt>
<rscale>  1 0.65674508E+03</rscale>
<asrwt>0</asrwt>
<pdfrwt beam="1">  1       21 0.31285618E-01 0.65674508E+03</pdfrwt>
<pdfrwt beam="2">0</pdfrwt>
<totfact> 0.93243044E+02</totfact>
</mgrwt>
</event>
<event>
 6    1  0.1439793E-004  0.5962724E+03  0.7818608E-02  0.9913170E-01
         21   -1    0    0  501  502  0.00000000000E+00  0.00000000000E+00  0.20970111429E+03  0.20970111429E+03  0.00000000000E+00 0. -1.
         13   -1    0    0    0    0 -0.00000000000E+00 -0.00000000000E+00 -0.10000000000E+04  0.10000000000E+04  0.00000000000E+00 0.  1.
    9000005    2    1    2  501    0  0.43801117496E+02  0.65181145200E+01 -0.90668144442E+03  0.10851783305E+04  0.59462571725E+03 0.  0.
         13    1    3    3    0    0  0.31207368118E+03 -0.29232068443E+01 -0.36211197301E+03  0.47804142982E+03  0.00000000000E+00 0.  1.
          3    1    3    3  501    0 -0.26827256368E+03  0.94413213643E+01 -0.54456947141E+03  0.60713690068E+03  0.00000000000E+00 0.  1.
         -3    1    1    2    0  502 -0.43801117496E+02 -0.65181145200E+01  0.11638255872E+03  0.12452278380E+03  0.00000000000E+00 0. -1.
<mgrwt>
<rscale>  1 0.59627239E+03</rscale>
<asrwt>0</asrwt>
<pdfrwt beam="1">  1       21 0.32261709E-01 0.59627239E+03</pdfrwt>
<pdfrwt beam="2">0</pdfrwt>
<totfact> 0.88014786E+02</totfact>
</mgrwt>
</event>
<event>
 6    1  0.1439793E-004  0.6508184E+03  0.7818608E-02  0.9805245E-01
         21   -1    0    0  501  502  0.00000000000E+00  0.00000000000E+00  0.15118984740E+03  0.15118984740E+03  0.00000000000E+00 0.  1.
         13   -1    0    0    0    0 -0.00000000000E+00 -0.00000000000E+00 -0.10000000000E+04  0.10000000000E+04  0.00000000000E+00 0.  1.
    9000005    2    1    2  501    0 -0.29788388883E+02 -0.65586300622E+02 -0.85977959809E+03  0.10783253178E+04  0.64681962149E+03 0.  0.
         13    1    3    3    0    0 -0.21339796858E+03  0.21281038388E+03 -0.29070287290E+03  0.41873035810E+03  0.00000000000E+00 0.  1.
          1    1    3    3  501    0  0.18360957970E+03 -0.27839668450E+03 -0.56907672519E+03  0.65959495969E+03  0.00000000000E+00 0.  1.
         -3    1    1    2    0  502  0.29788388883E+02  0.65586300622E+02  0.10969445492E+02  0.72864529615E+02  0.00000000000E+00 0. -1.
<mgrwt>
<rscale>  1 0.65081836E+03</rscale>
<asrwt>0</asrwt>
<pdfrwt beam="1">  1       21 0.23259976E-01 0.65081836E+03</pdfrwt>
<pdfrwt beam="2">0</pdfrwt>
<totfact> 0.16764267E+03</totfact>
</mgrwt>
</event>
<event>
 6    1  0.1439793E-004  0.7636264E+03  0.7818608E-02  0.9614212E-01
         21   -1    0    0  501  502  0.00000000000E+00  0.00000000000E+00  0.35322825411E+03  0.35322825411E+03  0.00000000000E+00 0. -1.
         13   -1    0    0    0    0 -0.00000000000E+00 -0.00000000000E+00 -0.10000000000E+04  0.10000000000E+04  0.00000000000E+00 0.  1.
    9000005    2    1    2  501    0  0.10214053728E+03  0.38464486407E+03 -0.55718616478E+03  0.94529451297E+03  0.65172151508E+03 0.  0.
         13    1    3    3    0    0  0.28372193111E+03  0.46651134708E+03 -0.31012044226E+03  0.62793762417E+03  0.00000000000E+00 0.  1.
          3    1    3    3  501    0 -0.18158139383E+03 -0.81866483004E+02 -0.24706572252E+03  0.31735688880E+03  0.00000000000E+00 0.  1.
         -3    1    1    2    0  502 -0.10214053728E+03 -0.38464486407E+03 -0.89585581114E+02  0.40793374113E+03  0.00000000000E+00 0. -1.
<mgrwt>
<rscale>  1 0.76362641E+03</rscale>
<asrwt>0</asrwt>
<pdfrwt beam="1">  1       21 0.54342807E-01 0.76362641E+03</pdfrwt>
<pdfrwt beam="2">0</pdfrwt>
<totfact> 0.29159807E+02</totfact>
</mgrwt>
</event>
<event>
 6    1  0.1439793E-004  0.6819504E+03  0.7818608E-02  0.9748607E-01
         21   -1    0    0  501  502  0.00000000000E+00  0.00000000000E+00  0.23153489885E+03  0.23153489885E+03  0.00000000000E+00 0.  1.
         13   -1    0    0    0    0 -0.00000000000E+00 -0.00000000000E+00 -0.10000000000E+04  0.10000000000E+04  0.00000000000E+00 0.  1.
    9000005    2    1    2  501    0 -0.15295116224E+03 -0.14357898863E+03 -0.76067380987E+03  0.10216070822E+04  0.64888165429E+03 0.  0.
         13    1    3    3    0    0  0.24568616245E+03 -0.77098002263E+01 -0.38761230460E+03  0.45898194966E+03  0.00000000000E+00 0.  1.
          1    1    3    3  501    0 -0.39863732469E+03 -0.13586918840E+03 -0.37306150527E+03  0.56262513249E+03  0.00000000000E+00 0.  1.
         -3    1    1    2    0  502  0.15295116224E+03  0.14357898863E+03 -0.77912912730E+01  0.20992781670E+03  0.00000000000E+00 0. -1.
<mgrwt>
<rscale>  1 0.68195043E+03</rscale>
<asrwt>0</asrwt>
<pdfrwt beam="1">  1       21 0.35620753E-01 0.68195043E+03</pdfrwt>
<pdfrwt beam="2">0</pdfrwt>
<totfact> 0.71540131E+02</totfact>
</mgrwt>
</event>
<event>
 6    1  0.1439793E-004  0.6595679E+03  0.7818608E-02  0.9788990E-01
         21   -1    0    0  501  502  0.00000000000E+00  0.00000000000E+00  0.14045716328E+03  0.14045716328E+03  0.00000000000E+00 0.  1.
         13   -1    0    0    0    0 -0.00000000000E+00 -0.00000000000E+00 -0.10000000000E+04  0.10000000000E+04  0.00000000000E+00 0.  1.
    9000005    2    1    2  501    0  0.23137985584E+02 -0.12926042469E+02 -0.88497457797E+03  0.11037254003E+04  0.65903513305E+03 0.  0.
         13    1    3    3    0    0  0.67006260899E+02 -0.32763397790E+03 -0.37112545543E+03  0.49956777933E+03  0.00000000000E+00 0.  1.
          1    1    3    3  501    0 -0.43868275315E+02  0.31470793543E+03 -0.51384912254E+03  0.60415762094E+03  0.00000000000E+00 0.  1.
         -1    1    1    2    0  502 -0.23137985584E+02  0.12926042469E+02  0.25431741254E+02  0.36731763012E+02  0.00000000000E+00 0. -1.
<mgrwt>
<rscale>  1 0.65956786E+03</rscale>
<asrwt>0</asrwt>
<pdfrwt beam="1">  1       21 0.21608794E-01 0.65956786E+03</pdfrwt>
<pdfrwt beam="2">0</pdfrwt>
<totfact> 0.19329553E+03</totfact>
</mgrwt>
</event>
<event>
 6    1  0.1439793E-004  0.6440415E+03  0.7818608E-02  0.9818025E-01
         21   -1    0    0  501  502  0.00000000000E+00  0.00000000000E+00  0.20720652845E+03  0.20720652845E+03  0.00000000000E+00 0.  1.
         13   -1    0    0    0    0 -0.00000000000E+00 -0.00000000000E+00 -0.10000000000E+04  0.10000000000E+04  0.00000000000E+00 0.  1.
    9000005    2    1    2  501    0 -0.22565152880E+02 -0.66764224734E+02 -0.88288246075E+03  0.10928270119E+04  0.64017403151E+03 0.  0.
         13    1    3    3    0    0  0.43288367815E+01  0.25566306486E+03 -0.16208558955E+03  0.30274424833E+03  0.00000000000E+00 0.  1.
          1    1    3    3  501    0 -0.26893989662E+02 -0.32242728959E+03 -0.72079687121E+03  0.79008276357E+03  0.00000000000E+00 0.  1.
         -1    1    1    2    0  502  0.22565152880E+02  0.66764224734E+02  0.90088989198E+02  0.11437951654E+03  0.00000000000E+00 0. -1.
<mgrwt>
<rscale>  1 0.64404149E+03</rscale>
<asrwt>0</asrwt>
<pdfrwt beam="1">  1       21 0.31877927E-01 0.64404149E+03</pdfrwt>
<pdfrwt beam="2">0</pdfrwt>
<totfact> 0.89862109E+02</totfact>
</mgrwt>
</event>
<event>
 6    1  0.1439793E-004  0.6773887E+03  0.7818608E-02  0.9756701E-01
         21   -1    0    0  501  502  0.00000000000E+00  0.00000000000E+00  0.26188415094E+03  0.26188415094E+03  0.00000000000E+00 0. -1.
         13   -1    0    0    0    0 -0.00000000000E+00 -0.00000000000E+00 -0.10000000000E+04  0.10000000000E+04  0.00000000000E+00 0.  1.
    9000005    2    1    2  501    0  0.96755810565E+01  0.41677405570E+02 -0.88181010798E+03  0.11119552910E+04  0.67603615259E+03 0.  0.
         13    1    3    3    0    0 -0.12341145476E+03  0.32749121006E+03 -0.35845002742E+03  0.50096636812E+03  0.00000000000E+00 0.  1.
          3    1    3    3  501    0  0.13308703582E+03 -0.28581380449E+03 -0.52336008056E+03  0.61098892286E+03  0.00000000000E+00 0.  1.
         -3    1    1    2    0  502 -0.96755810565E+01 -0.41677405570E+02  0.14369425892E+03  0.14992885996E+03  0.00000000000E+00 0. -1.
<mgrwt>
<rscale>  1 0.67738874E+03</rscale>
<asrwt>0</asrwt>
<pdfrwt beam="1">  1       21 0.40289868E-01 0.67738874E+03</pdfrwt>
<pdfrwt beam="2">0</pdfrwt>
<totfact> 0.55513400E+02</totfact>
</mgrwt>
</event>
<event>
 6    1  0.1439793E-004  0.6367368E+03  0.7818608E-02  0.9831990E-01
         21   -1    0    0  501  502  0.00000000000E+00  0.00000000000E+00  0.19591067191E+03  0.19591067191E+03  0.00000000000E+00 0. -1.
         13   -1    0    0    0    0 -0.00000000000E+00 -0.00000000000E+00 -0.10000000000E+04  0.10000000000E+04  0.00000000000E+00 0.  1.
    9000005    2    1    2  501    0 -0.13958777810E+03  0.51335797323E+02 -0.82879088770E+03  0.10451450295E+04  0.61912331993E+03 0.  0.
         13    1    3    3    0    0  0.20803150220E+03  0.12058078506E+03 -0.52836634981E+03  0.58050652989E+03  0.00000000000E+00 0.  1.
          1    1    3    3  501    0 -0.34761928030E+03 -0.69244987734E+02 -0.30042453789E+03  0.46463849962E+03  0.00000000000E+00 0.  1.
         -1    1    1    2    0  502  0.13958777810E+03 -0.51335797323E+02  0.24701559618E+02  0.15076564240E+03  0.00000000000E+00 0. -1.
<mgrwt>
<rscale>  1 0.63673684E+03</rscale>
<asrwt>0</asrwt>
<pdfrwt beam="1">  1       21 0.30140103E-01 0.63673684E+03</pdfrwt>
<pdfrwt beam="2">0</pdfrwt>
<totfact> 0.10062226E+03</totfact>
</mgrwt>
</event>
<event>
 6    1  0.1439793E-004  0.6516413E+03  0.7818608E-02  0.9803704E-01
         21   -1    0    0  501  502  0.00000000000E+00  0.00000000000E+00  0.40991322808E+03  0.40991322808E+03  0.00000000000E+00 0. -1.
         13   -1    0    0    0    0 -0.00000000000E+00 -0.00000000000E+00 -0.10000000000E+04  0.10000000000E+04  0.00000000000E+00 0.  1.
    9000005    2    1    2  501    0 -0.30186124658E+02 -0.88717550005E+02 -0.88581965856E+03  0.10996875908E+04  0.64486767947E+03 0.  0.
         13    1    3    3    0    0 -0.30661795894E+03 -0.13108585912E+02 -0.22853403125E+03  0.38264109973E+03  0.00000000000E+00 0.  1.
          1    1    3    3  501    0  0.27643183428E+03 -0.75608964094E+02 -0.65728562731E+03  0.71704649104E+03  0.00000000000E+00 0.  1.
         -1    1    1    2    0  502  0.30186124658E+02  0.88717550005E+02  0.29573288664E+03  0.31022563730E+03  0.00000000000E+00 0. -1.
<mgrwt>
<rscale>  1 0.65164126E+03</rscale>
<asrwt>0</asrwt>
<pdfrwt beam="1">  1       21 0.63063572E-01 0.65164126E+03</pdfrwt>
<pdfrwt beam="2">0</pdfrwt>
<totfact> 0.21237678E+02</totfact>
</mgrwt>
</event>
<event>
 6    1  0.1439793E-004  0.6694003E+03  0.7818608E-02  0.9771042E-01
         21   -1    0    0  501  502  0.00000000000E+00  0.00000000000E+00  0.13844368333E+03  0.13844368333E+03  0.00000000000E+00 0.  1.
         13   -1    0    0    0    0 -0.00000000000E+00 -0.00000000000E+00 -0.10000000000E+04  0.10000000000E+04  0.00000000000E+00 0.  1.
    9000005    2    1    2  501    0 -0.15230625363E+02  0.20548741740E+02 -0.88089483644E+03  0.11063781086E+04  0.66891149159E+03 0.  0.
         13    1    3    3    0    0 -0.10648557280E+03  0.39049404963E+02  0.81388899946E+02  0.13960009411E+03  0.00000000000E+00 0.  1.
          3    1    3    3  501    0  0.91254947436E+02 -0.18500663222E+02 -0.96228373639E+03  0.96677801448E+03  0.00000000000E+00 0.  1.
         -3    1    1    2    0  502  0.15230625363E+02 -0.20548741740E+02  0.19338519772E+02  0.32065574734E+02  0.00000000000E+00 0. -1.
<mgrwt>
<rscale>  1 0.66940033E+03</rscale>
<asrwt>0</asrwt>
<pdfrwt beam="1">  1       21 0.21299028E-01 0.66940033E+03</pdfrwt>
<pdfrwt beam="2">0</pdfrwt>
<totfact> 0.19867894E+03</totfact>
</mgrwt>
</event>
<event>
 6    1  0.1439793E-004  0.7014070E+03  0.7818608E-02  0.9714829E-01
         21   -1    0    0  501  502  0.00000000000E+00  0.00000000000E+00  0.31003865733E+03  0.31003865733E+03  0.00000000000E+00 0.  1.
         13   -1    0    0    0    0 -0.00000000000E+00 -0.00000000000E+00 -0.10000000000E+04  0.10000000000E+04  0.00000000000E+00 0.  1.
    9000005    2    1    2  501    0 -0.80074150651E+02  0.27088148481E+03 -0.74394155310E+03  0.10224582137E+04  0.64201488768E+03 0.  0.
         13    1    3    3    0    0 -0.20901692006E+03  0.40991599370E+03 -0.68251969465E+03  0.82313566825E+03  0.00000000000E+00 0.  1.
          1    1    3    3  501    0  0.12894276941E+03 -0.13903450889E+03 -0.61421858451E+02  0.19932254549E+03  0.00000000000E+00 0.  1.
         -3    1    1    2    0  502  0.80074150651E+02 -0.27088148481E+03  0.53980210427E+02  0.28758044359E+03  0.00000000000E+00 0. -1.
<mgrwt>
<rscale>  1 0.70140699E+03</rscale>
<asrwt>0</asrwt>
<pdfrwt beam="1">  1       21 0.47698254E-01 0.70140699E+03</pdfrwt>
<pdfrwt beam="2">0</pdfrwt>
<totfact> 0.38829343E+02</totfact>
</mgrwt>
</event>
<event>
 6    1  0.1439793E-004  0.6452033E+03  0.7818608E-02  0.9815822E-01
         21   -1    0    0  501  502  0.00000000000E+00  0.00000000000E+00  0.52848270932E+03  0.52848270932E+03  0.00000000000E+00 0. -1.
         13   -1    0    0    0    0 -0.00000000000E+00 -0.00000000000E+00 -0.10000000000E+04  0.10000000000E+04  0.00000000000E+00 0.  1.
    9000005    2    1    2  501    0  0.28241014183E+02  0.10716618502E+01 -0.89540865600E+03  0.11036502801E+04  0.64458403342E+03 0.  0.
         13    1    3    3    0    0  0.27126298482E+03 -0.19401276321E+03 -0.45517901181E+03  0.56428050827E+03  0.00000000000E+00 0.  1.
          3    1    3    3  501    0 -0.24302197064E+03  0.19508442506E+03 -0.44022964419E+03  0.53936977181E+03  0.00000000000E+00 0.  1.
         -3    1    1    2    0  502 -0.28241014183E+02 -0.10716618502E+01  0.42389136532E+03  0.42483242924E+03  0.00000000000E+00 0. -1.
<mgrwt>
<rscale>  1 0.64520329E+03</rscale>
<asrwt>0</asrwt>
<pdfrwt beam="1">  1       21 0.81305030E-01 0.64520329E+03</pdfrwt>
<pdfrwt beam="2">0</pdfrwt>
<totfact> 0.11905580E+02</totfact>
</mgrwt>
</event>
<event>
 6    1  0.1439793E-004  0.6477911E+03  0.7818608E-02  0.9810933E-01
         21   -1    0    0  501  502  0.00000000000E+00  0.00000000000E+00  0.18323069810E+03  0.18323069810E+03  0.00000000000E+00 0.  1.
         13   -1    0    0    0    0 -0.00000000000E+00 -0.00000000000E+00 -0.10000000000E+04  0.10000000000E+04  0.00000000000E+00 0.  1.
    9000005    2    1    2  501    0  0.12514775023E+02  0.26269832446E+02 -0.89209376771E+03  0.11024810923E+04  0.64713719160E+03 0.  0.
         13    1    3    3    0    0  0.15417610103E+03 -0.26988575323E+03 -0.34427624531E+03  0.46382617758E+03  0.00000000000E+00 0.  1.
          3    1    3    3  501    0 -0.14166132601E+03  0.29615558567E+03 -0.54781752240E+03  0.63865491469E+03  0.00000000000E+00 0.  1.
         -1    1    1    2    0  502 -0.12514775023E+02 -0.26269832446E+02  0.75324465816E+02  0.80749605827E+02  0.00000000000E+00 0. -1.
<mgrwt>
<rscale>  1 0.64779107E+03</rscale>
<asrwt>0</asrwt>
<pdfrwt beam="1">  1       21 0.28189337E-01 0.64779107E+03</pdfrwt>
<pdfrwt beam="2">0</pdfrwt>
<totfact> 0.11491253E+03</totfact>
</mgrwt>
</event>
<event>
 6    1  0.1439793E-004  0.6433198E+03  0.7818608E-02  0.9819395E-01
         21   -1    0    0  501  502  0.00000000000E+00  0.00000000000E+00  0.12626321334E+03  0.12626321334E+03  0.00000000000E+00 0.  1.
         13   -1    0    0    0    0 -0.00000000000E+00 -0.00000000000E+00 -0.10000000000E+04  0.10000000000E+04  0.00000000000E+00 0.  1.
    9000005    2    1    2  501    0 -0.19004845093E+02  0.36607690937E+02 -0.87372765379E+03  0.10850163073E+04  0.64199615806E+03 0.  0.
         13    1    3    3    0    0  0.23710420350E+03 -0.12481996493E+03 -0.16586823775E+03  0.31513600121E+03  0.00000000000E+00 0.  1.
          1    1    3    3  501    0 -0.25610904859E+03  0.16142765587E+03 -0.70785941604E+03  0.76988030611E+03  0.00000000000E+00 0.  1.
         -3    1    1    2    0  502  0.19004845093E+02 -0.36607690937E+02 -0.91328703618E-02  0.41246906019E+02  0.00000000000E+00 0. -1.
<mgrwt>
<rscale>  1 0.64331981E+03</rscale>
<asrwt>0</asrwt>
<pdfrwt beam="1">  1       21 0.19425109E-01 0.64331981E+03</pdfrwt>
<pdfrwt beam="2">0</pdfrwt>
<totfact> 0.23737636E+03</totfact>
</mgrwt>
</event>
<event>
 6    1  0.1439793E-004  0.6566104E+03  0.7818608E-02  0.9794454E-01
         21   -1    0    0  501  502  0.00000000000E+00  0.00000000000E+00  0.24415746926E+03  0.24415746926E+03  0.00000000000E+00 0. -1.
         13   -1    0    0    0    0 -0.00000000000E+00 -0.00000000000E+00 -0.10000000000E+04  0.10000000000E+04  0.00000000000E+00 0.  1.
    9000005    2    1    2  501    0  0.13209880752E+02 -0.52786727080E+02 -0.88617324012E+03  0.11029235027E+04  0.65435181805E+03 0.  0.
         13    1    3    3    0    0 -0.15431617275E+03 -0.13218937442E+03 -0.89455636959E+03  0.91734323470E+03  0.00000000000E+00 0.  1.
          1    1    3    3  501    0  0.16752605350E+03  0.79402647337E+02  0.83831294732E+01  0.18558026799E+03  0.00000000000E+00 0.  1.
         -1    1    1    2    0  502 -0.13209880752E+02  0.52786727080E+02  0.13033070938E+03  0.14123396657E+03  0.00000000000E+00 0. -1.
<mgrwt>
<rscale>  1 0.65661042E+03</rscale>
<asrwt>0</asrwt>
<pdfrwt beam="1">  1       21 0.37562687E-01 0.65661042E+03</pdfrwt>
<pdfrwt beam="2">0</pdfrwt>
<totfact> 0.64277494E+02</totfact>
</mgrwt>
</event>
<event>
 6    1  0.1439793E-004  0.6565730E+03  0.7818608E-02  0.9794523E-01
         21   -1    0    0  501  502  0.00000000000E+00  0.00000000000E+00  0.14722261541E+03  0.14722261541E+03  0.00000000000E+00 0. -1.
         13   -1    0    0    0    0 -0.00000000000E+00 -0.00000000000E+00 -0.10000000000E+04  0.10000000000E+04  0.00000000000E+00 0.  1.
    9000005    2    1    2  501    0  0.22246236319E+02  0.50431659973E+02 -0.86956596930E+03  0.10896022723E+04  0.65425521747E+03 0.  0.
         13    1    3    3    0    0 -0.17687984949E+03  0.14781042779E+03 -0.83379703016E+03  0.86507334442E+03  0.00000000000E+00 0.  1.
          1    1    3    3  501    0  0.19912608581E+03 -0.97378767815E+02 -0.35768939139E+02  0.22452892793E+03  0.00000000000E+00 0.  1.
         -3    1    1    2    0  502 -0.22246236319E+02 -0.50431659973E+02  0.16788584709E+02  0.57620343061E+02  0.00000000000E+00 0. -1.
<mgrwt>
<rscale>  1 0.65657302E+03</rscale>
<asrwt>0</asrwt>
<pdfrwt beam="1">  1       21 0.22649632E-01 0.65657302E+03</pdfrwt>
<pdfrwt beam="2">0</pdfrwt>
<totfact> 0.17648640E+03</totfact>
</mgrwt>
</event>
<event>
 6    1  0.1439793E-004  0.6619321E+03  0.7818608E-02  0.9784644E-01
         21   -1    0    0  501  502  0.00000000000E+00  0.00000000000E+00  0.18189421684E+04  0.18189421684E+04  0.00000000000E+00 0. -1.
         13   -1    0    0    0    0 -0.00000000000E+00 -0.00000000000E+00 -0.10000000000E+04  0.10000000000E+04  0.00000000000E+00 0.  1.
    9000005    2    1    2  501    0 -0.30199848674E+01 -0.44796974025E+02 -0.89013435026E+03  0.11092759917E+04  0.66040758248E+03 0.  0.
         13    1    3    3    0    0  0.24033934223E+03  0.15892793611E+03 -0.20322936322E+03  0.35259504020E+03  0.00000000000E+00 0.  1.
          1    1    3    3  501    0 -0.24335932710E+03 -0.20372491014E+03 -0.68690498705E+03  0.75668095147E+03  0.00000000000E+00 0.  1.
         -1    1    1    2    0  502  0.30199848674E+01  0.44796974025E+02  0.17090765187E+04  0.17096661767E+04  0.00000000000E+00 0. -1.
<mgrwt>
<rscale>  1 0.66193207E+03</rscale>
<asrwt>0</asrwt>
<pdfrwt beam="1">  1       21 0.27983725E+00 0.66193207E+03</pdfrwt>
<pdfrwt beam="2">0</pdfrwt>
<totfact> 0.33967077E+00</totfact>
</mgrwt>
</event>
<event>
 6    1  0.1439793E-004  0.6749604E+03  0.7818608E-02  0.9761038E-01
         21   -1    0    0  501  502  0.00000000000E+00  0.00000000000E+00  0.31848813929E+03  0.31848813929E+03  0.00000000000E+00 0. -1.
         13   -1    0    0    0    0 -0.00000000000E+00 -0.00000000000E+00 -0.10000000000E+04  0.10000000000E+04  0.00000000000E+00 0.  1.
    9000005    2    1    2  501    0 -0.28205277582E+01 -0.44656588286E+02 -0.88337757361E+03  0.11117227353E+04  0.67347556475E+03 0.  0.
         13    1    3    3    0    0 -0.28150875660E+02  0.30245793007E+03 -0.26966693527E+03  0.40619395273E+03  0.00000000000E+00 0.  1.
          3    1    3    3  501    0  0.25330347902E+02 -0.34711451835E+03 -0.61371063834E+03  0.70552878254E+03  0.00000000000E+00 0.  1.
         -1    1    1    2    0  502  0.28205277582E+01  0.44656588286E+02  0.20186571290E+03  0.20676540402E+03  0.00000000000E+00 0. -1.
<mgrwt>
<rscale>  1 0.67496037E+03</rscale>
<asrwt>0</asrwt>
<pdfrwt beam="1">  1       21 0.48998174E-01 0.67496037E+03</pdfrwt>
<pdfrwt beam="2">0</pdfrwt>
<totfact> 0.36748276E+02</totfact>
</mgrwt>
</event>
<event>
 6    1  0.1439793E-004  0.6391521E+03  0.7818608E-02  0.9827350E-01
         21   -1    0    0  501  502  0.00000000000E+00  0.00000000000E+00  0.16782045950E+03  0.16782045950E+03  0.00000000000E+00 0.  1.
         13   -1    0    0    0    0 -0.00000000000E+00 -0.00000000000E+00 -0.10000000000E+04  0.10000000000E+04  0.00000000000E+00 0.  1.
    9000005    2    1    2  501    0 -0.28407039487E+02  0.60380080816E+01 -0.89431462828E+03  0.10992333866E+04  0.63849194704E+03 0.  0.
         13    1    3    3    0    0 -0.19712191198E+03  0.34569740964E+02 -0.12010643592E+02  0.20049032578E+03  0.00000000000E+00 0.  1.
          1    1    3    3  501    0  0.16871487249E+03 -0.28531732883E+02 -0.88230398469E+03  0.89874306083E+03  0.00000000000E+00 0.  1.
         -3    1    1    2    0  502  0.28407039487E+02 -0.60380080816E+01  0.62135087781E+02  0.68587072890E+02  0.00000000000E+00 0. -1.
<mgrwt>
<rscale>  1 0.63915208E+03</rscale>
<asrwt>0</asrwt>
<pdfrwt beam="1">  1       21 0.25818531E-01 0.63915208E+03</pdfrwt>
<pdfrwt beam="2">0</pdfrwt>
<totfact> 0.13677180E+03</totfact>
</mgrwt>
</event>
<event>
 6    1  0.1439793E-004  0.6520205E+03  0.7818608E-02  0.9802995E-01
         21   -1    0    0  501  502  0.00000000000E+00  0.00000000000E+00  0.55907077111E+03  0.55907077111E+03  0.00000000000E+00 0. -1.
         13   -1    0    0    0    0 -0.00000000000E+00 -0.00000000000E+00 -0.10000000000E+04  0.10000000000E+04  0.00000000000E+00 0.  1.
    9000005    2    1    2  501    0  0.44052518569E+02 -0.13400870364E+02 -0.89242175863E+03  0.11052363166E+04  0.65039258334E+03 0.  0.
         13    1    3    3    0    0  0.80808680883E+02  0.16478754689E+03  0.10819366051E+02  0.18385330347E+03  0.00000000000E+00 0.  1.
          3    1    3    3  501    0 -0.36756162314E+02 -0.17818841725E+03 -0.90324112468E+03  0.92138301310E+03  0.00000000000E+00 0.  1.
         -1    1    1    2    0  502 -0.44052518569E+02  0.13400870364E+02  0.45149252974E+03  0.45383445454E+03  0.00000000000E+00 0. -1.
<mgrwt>
<rscale>  1 0.65202049E+03</rscale>
<asrwt>0</asrwt>
<pdfrwt beam="1">  1       21 0.86010885E-01 0.65202049E+03</pdfrwt>
<pdfrwt beam="2">0</pdfrwt>
<totfact> 0.10420126E+02</totfact>
</mgrwt>
</event>
<event>
 6    1  0.1439793E-004  0.6569780E+03  0.7818608E-02  0.9793773E-01
         21   -1    0    0  501  502  0.00000000000E+00  0.00000000000E+00  0.12674968873E+03  0.12674968873E+03  0.00000000000E+00 0.  1.
         13   -1    0    0    0    0 -0.00000000000E+00 -0.00000000000E+00 -0.10000000000E+04  0.10000000000E+04  0.00000000000E+00 0.  1.
    9000005    2    1    2  501    0 -0.30728896613E+02 -0.39675453238E+02 -0.84060614018E+03  0.10668827648E+04  0.65505858075E+03 0.  0.
         13    1    3    3    0    0  0.13778884302E+03  0.10026447033E+03  0.26572280149E+02  0.17246685288E+03  0.00000000000E+00 0.  1.
          1    1    3    3  501    0 -0.16851773963E+03 -0.13993992357E+03 -0.86717842033E+03  0.89441591191E+03  0.00000000000E+00 0.  1.
         -1    1    1    2    0  502  0.30728896613E+02  0.39675453238E+02 -0.32644171084E+02  0.59866923943E+02  0.00000000000E+00 0. -1.
<mgrwt>
<rscale>  1 0.65697804E+03</rscale>
<asrwt>0</asrwt>
<pdfrwt beam="1">  1       21 0.19499952E-01 0.65697804E+03</pdfrwt>
<pdfrwt beam="2">0</pdfrwt>
<totfact> 0.23551565E+03</totfact>
</mgrwt>
</event>
<event>
 6    1  0.1439793E-004  0.6583280E+03  0.7818608E-02  0.9791277E-01
         21   -1    0    0  501  502  0.00000000000E+00  0.00000000000E+00  0.24273991434E+03  0.24273991434E+03  0.00000000000E+00 0. -1.
         13   -1    0    0    0    0 -0.00000000000E+00 -0.00000000000E+00 -0.10000000000E+04  0.10000000000E+04  0.00000000000E+00 0.  1.
    9000005    2    1    2  501    0  0.39383988941E+02  0.76540569387E+01 -0.88832316727E+03  0.11056734541E+04  0.65710429486E+03 0.  0.
         13    1    3    3    0    0  0.23660006085E+03  0.55001056368E+01 -0.46671564486E+02  0.24122204478E+03  0.00000000000E+00 0.  1.
          1    1    3    3  501    0 -0.19721607191E+03  0.21539513020E+01 -0.84165160279E+03  0.86445140928E+03  0.00000000000E+00 0.  1.
         -3    1    1    2    0  502 -0.39383988941E+02 -0.76540569387E+01  0.13106308161E+03  0.13706646028E+03  0.00000000000E+00 0. -1.
<mgrwt>
<rscale>  1 0.65832799E+03</rscale>
<asrwt>0</asrwt>
<pdfrwt beam="1">  1       21 0.37344601E-01 0.65832799E+03</pdfrwt>
<pdfrwt beam="2">0</pdfrwt>
<totfact> 0.65043542E+02</totfact>
</mgrwt>
</event>
<event>
 6    1  0.1439793E-004  0.7090726E+03  0.7818608E-02  0.9701841E-01
         21   -1    0    0  501  502  0.00000000000E+00  0.00000000000E+00  0.24638314214E+03  0.24638314214E+03  0.00000000000E+00 0.  1.
         13   -1    0    0    0    0 -0.00000000000E+00 -0.00000000000E+00 -0.10000000000E+04  0.10000000000E+04  0.00000000000E+00 0.  1.
    9000005    2    1    2  501    0 -0.27251046807E+03  0.68299201854E+02 -0.58052210995E+03  0.91640052452E+03  0.65104321287E+03 0.  0.
         13    1    3    3    0    0  0.40539295299E+02  0.55218174513E+02 -0.59864727273E+03  0.60255376391E+03  0.00000000000E+00 0.  1.
          1    1    3    3  501    0 -0.31304976337E+03  0.13081027341E+02  0.18125162773E+02  0.31384676061E+03  0.00000000000E+00 0.  1.
         -3    1    1    2    0  502  0.27251046807E+03 -0.68299201854E+02 -0.17309474790E+03  0.32998261762E+03  0.00000000000E+00 0. -1.
<mgrwt>
<rscale>  1 0.70907263E+03</rscale>
<asrwt>0</asrwt>
<pdfrwt beam="1">  1       21 0.37905098E-01 0.70907263E+03</pdfrwt>
<pdfrwt beam="2">0</pdfrwt>
<totfact> 0.62843555E+02</totfact>
</mgrwt>
</event>
<event>
 6    1  0.1439793E-004  0.6495811E+03  0.7818608E-02  0.9807565E-01
         21   -1    0    0  501  502  0.00000000000E+00  0.00000000000E+00  0.12454828816E+03  0.12454828816E+03  0.00000000000E+00 0.  1.
         13   -1    0    0    0    0 -0.00000000000E+00 -0.00000000000E+00 -0.10000000000E+04  0.10000000000E+04  0.00000000000E+00 0.  1.
    9000005    2    1    2  501    0 -0.26532051870E+02  0.10067802934E+02 -0.88203337231E+03  0.10954170560E+04  0.64896097440E+03 0.  0.
         13    1    3    3    0    0 -0.32992485524E+03 -0.19373112147E+02 -0.57214883402E+03  0.66074201913E+03  0.00000000000E+00 0.  1.
          1    1    3    3  501    0  0.30339280337E+03  0.29440915081E+02 -0.30988453829E+03  0.43467503688E+03  0.00000000000E+00 0.  1.
         -3    1    1    2    0  502  0.26532051870E+02 -0.10067802934E+02  0.65816604687E+01  0.29131232155E+02  0.00000000000E+00 0. -1.
<mgrwt>
<rscale>  1 0.64958114E+03</rscale>
<asrwt>0</asrwt>
<pdfrwt beam="1">  1       21 0.19161275E-01 0.64958114E+03</pdfrwt>
<pdfrwt beam="2">0</pdfrwt>
<totfact> 0.24360443E+03</totfact>
</mgrwt>
</event>
<event>
 6    1  0.1439793E-004  0.6468768E+03  0.7818608E-02  0.9812657E-01
         21   -1    0    0  501  502  0.00000000000E+00  0.00000000000E+00  0.31029316217E+03  0.31029316217E+03  0.00000000000E+00 0.  1.
         13   -1    0    0    0    0 -0.00000000000E+00 -0.00000000000E+00 -0.10000000000E+04  0.10000000000E+04  0.00000000000E+00 0.  1.
    9000005    2    1    2  501    0  0.24673156298E+02  0.11285554876E+02 -0.89439871650E+03  0.11038109751E+04  0.64630757092E+03 0.  0.
         13    1    3    3    0    0  0.10844251053E+03 -0.30285241317E+03 -0.45347366500E+03  0.55598356730E+03  0.00000000000E+00 0.  1.
          3    1    3    3  501    0 -0.83769354236E+02  0.31413796805E+03 -0.44092505150E+03  0.54782740778E+03  0.00000000000E+00 0.  1.
         -3    1    1    2    0  502 -0.24673156298E+02 -0.11285554876E+02  0.20469187867E+03  0.20648218709E+03  0.00000000000E+00 0. -1.
<mgrwt>
<rscale>  1 0.64687681E+03</rscale>
<asrwt>0</asrwt>
<pdfrwt beam="1">  1       21 0.47737408E-01 0.64687681E+03</pdfrwt>
<pdfrwt beam="2">0</pdfrwt>
<totfact> 0.38950855E+02</totfact>
</mgrwt>
</event>
<event>
 6    1  0.1439793E-004  0.6469542E+03  0.7818608E-02  0.9812511E-01
         21   -1    0    0  501  502  0.00000000000E+00  0.00000000000E+00  0.16621414846E+03  0.16621414846E+03  0.00000000000E+00 0.  1.
         13   -1    0    0    0    0 -0.00000000000E+00 -0.00000000000E+00 -0.10000000000E+04  0.10000000000E+04  0.00000000000E+00 0.  1.
    9000005    2    1    2  501    0  0.85243244634E+01  0.19697781365E+02 -0.89328956390E+03  0.11029578564E+04  0.64659811427E+03 0.  0.
         13    1    3    3    0    0 -0.18980960683E+03  0.23545324265E+03 -0.23708733620E+03  0.38428676962E+03  0.00000000000E+00 0.  1.
          3    1    3    3  501    0  0.19833393129E+03 -0.21575546128E+03 -0.65620222769E+03  0.71867108680E+03  0.00000000000E+00 0.  1.
         -1    1    1    2    0  502 -0.85243244634E+01 -0.19697781365E+02  0.59503712351E+02  0.63256292033E+02  0.00000000000E+00 0. -1.
<mgrwt>
<rscale>  1 0.64695424E+03</rscale>
<asrwt>0</asrwt>
<pdfrwt beam="1">  1       21 0.25571407E-01 0.64695424E+03</pdfrwt>
<pdfrwt beam="2">0</pdfrwt>
<totfact> 0.13932281E+03</totfact>
</mgrwt>
</event>
<event>
 6    1  0.1439793E-004  0.6290593E+03  0.7818608E-02  0.9846886E-01
         21   -1    0    0  501  502  0.00000000000E+00  0.00000000000E+00  0.25529985313E+03  0.25529985313E+03  0.00000000000E+00 0. -1.
         13   -1    0    0    0    0 -0.00000000000E+00 -0.00000000000E+00 -0.10000000000E+04  0.10000000000E+04  0.00000000000E+00 0.  1.
    9000005    2    1    2  501    0  0.43114179499E+02  0.35112588836E+02 -0.89561955256E+03  0.10944633107E+04  0.62659702293E+03 0.  0.
         13    1    3    3    0    0 -0.96599767864E+02  0.16744783442E+03 -0.15927952918E+02  0.19396904930E+03  0.00000000000E+00 0.  1.
          1    1    3    3  501    0  0.13971394736E+03 -0.13233524558E+03 -0.87969159965E+03  0.90049426139E+03  0.00000000000E+00 0.  1.
         -3    1    1    2    0  502 -0.43114179499E+02 -0.35112588836E+02  0.15091940570E+03  0.16083654244E+03  0.00000000000E+00 0. -1.
<mgrwt>
<rscale>  1 0.62905926E+03</rscale>
<asrwt>0</asrwt>
<pdfrwt beam="1">  1       21 0.39276899E-01 0.62905926E+03</pdfrwt>
<pdfrwt beam="2">0</pdfrwt>
<totfact> 0.58752496E+02</totfact>
</mgrwt>
</event>
<event>
 6    1  0.1439793E-004  0.6592485E+03  0.7818608E-02  0.9789578E-01
         21   -1    0    0  501  502  0.00000000000E+00  0.00000000000E+00  0.16196553881E+03  0.16196553881E+03  0.00000000000E+00 0.  1.
         13   -1    0    0    0    0 -0.00000000000E+00 -0.00000000000E+00 -0.10000000000E+04  0.10000000000E+04  0.00000000000E+00 0.  1.
    9000005    2    1    2  501    0 -0.10148192465E+03  0.40786812769E+02 -0.81831231949E+03  0.10508299999E+04  0.65011267594E+03 0.  0.
         13    1    3    3    0    0 -0.24876833273E+03  0.28176842082E+03 -0.43916042744E+03  0.57804931223E+03  0.00000000000E+00 0.  1.
          3    1    3    3  501    0  0.14728640808E+03 -0.24098160805E+03 -0.37915189205E+03  0.47278068771E+03  0.00000000000E+00 0.  1.
         -1    1    1    2    0  502  0.10148192465E+03 -0.40786812769E+02 -0.19722141700E+02  0.11113553887E+03  0.00000000000E+00 0. -1.
<mgrwt>
<rscale>  1 0.65924854E+03</rscale>
<asrwt>0</asrwt>
<pdfrwt beam="1">  1       21 0.24917774E-01 0.65924854E+03</pdfrwt>
<pdfrwt beam="2">0</pdfrwt>
<totfact> 0.14649070E+03</totfact>
</mgrwt>
</event>
<event>
 6    1  0.1439793E-004  0.6459556E+03  0.7818608E-02  0.9814398E-01
         21   -1    0    0  501  502  0.00000000000E+00  0.00000000000E+00  0.83791721725E+03  0.83791721725E+03  0.00000000000E+00 0. -1.
         13   -1    0    0    0    0 -0.00000000000E+00 -0.00000000000E+00 -0.10000000000E+04  0.10000000000E+04  0.00000000000E+00 0.  1.
    9000005    2    1    2  501    0 -0.19867808592E+02 -0.58686500661E+02 -0.89424022253E+03  0.11031428629E+04  0.64297726648E+03 0.  0.
         13    1    3    3    0    0  0.21555160209E+03 -0.25618286577E+03 -0.52623418746E+03  0.62371032854E+03  0.00000000000E+00 0.  1.
          1    1    3    3  501    0 -0.23541941068E+03  0.19749636511E+03 -0.36800603507E+03  0.47943253436E+03  0.00000000000E+00 0.  1.
         -3    1    1    2    0  502  0.19867808592E+02  0.58686500661E+02  0.73215743978E+03  0.73477435434E+03  0.00000000000E+00 0. -1.
<mgrwt>
<rscale>  1 0.64595557E+03</rscale>
<asrwt>0</asrwt>
<pdfrwt beam="1">  1       21 0.12891034E+00 0.64595557E+03</pdfrwt>
<pdfrwt beam="2">0</pdfrwt>
<totfact> 0.38159215E+01</totfact>
</mgrwt>
</event>
<event>
 6    1  0.1439793E-004  0.6790404E+03  0.7818608E-02  0.9753763E-01
         21   -1    0    0  501  502  0.00000000000E+00  0.00000000000E+00  0.17263902869E+03  0.17263902869E+03  0.00000000000E+00 0.  1.
         13   -1    0    0    0    0 -0.00000000000E+00 -0.00000000000E+00 -0.10000000000E+04  0.10000000000E+04  0.00000000000E+00 0.  1.
    9000005    2    1    2  501    0 -0.13376135011E+03  0.43690770616E+02 -0.75125782786E+03  0.10126619345E+04  0.66430029914E+03 0.  0.
         13    1    3    3    0    0 -0.28649591113E+03 -0.22619976971E+03 -0.35181956105E+03  0.50697460138E+03  0.00000000000E+00 0.  1.
          1    1    3    3  501    0  0.15273456102E+03  0.26989054032E+03 -0.39943826681E+03  0.50568733312E+03  0.00000000000E+00 0.  1.
         -3    1    1    2    0  502  0.13376135011E+03 -0.43690770616E+02 -0.76103143450E+02  0.15997709419E+03  0.00000000000E+00 0. -1.
<mgrwt>
<rscale>  1 0.67904040E+03</rscale>
<asrwt>0</asrwt>
<pdfrwt beam="1">  1       21 0.26559850E-01 0.67904040E+03</pdfrwt>
<pdfrwt beam="2">0</pdfrwt>
<totfact> 0.12907317E+03</totfact>
</mgrwt>
</event>
<event>
 6    1  0.1439793E-004  0.6536809E+03  0.7818608E-02  0.9799897E-01
         21   -1    0    0  501  502  0.00000000000E+00  0.00000000000E+00  0.11551945389E+03  0.11551945389E+03  0.00000000000E+00 0.  1.
         13   -1    0    0    0    0 -0.00000000000E+00 -0.00000000000E+00 -0.10000000000E+04  0.10000000000E+04  0.00000000000E+00 0.  1.
    9000005    2    1    2  501    0 -0.20472972431E+02 -0.77776244142E+01 -0.87353162905E+03  0.10910345029E+04  0.65331397159E+03 0.  0.
         13    1    3    3    0    0  0.28407366947E+03  0.65711725350E+02 -0.21659979953E+03  0.36322355883E+03  0.00000000000E+00 0.  1.
          1    1    3    3  501    0 -0.30454664191E+03 -0.73489349764E+02 -0.65693182952E+03  0.72781094404E+03  0.00000000000E+00 0.  1.
         -3    1    1    2    0  502  0.20472972431E+02  0.77776244142E+01 -0.10948917062E+02  0.24484951022E+02  0.00000000000E+00 0. -1.
<mgrwt>
<rscale>  1 0.65368095E+03</rscale>
<asrwt>0</asrwt>
<pdfrwt beam="1">  1       21 0.17772223E-01 0.65368095E+03</pdfrwt>
<pdfrwt beam="2">0</pdfrwt>
<totfact> 0.28105926E+03</totfact>
</mgrwt>
</event>
<event>
 6    1  0.1439793E-004  0.6591602E+03  0.7818608E-02  0.9789741E-01
         21   -1    0    0  501  502  0.00000000000E+00  0.00000000000E+00  0.24979358071E+03  0.24979358071E+03  0.00000000000E+00 0. -1.
         13   -1    0    0    0    0 -0.00000000000E+00 -0.00000000000E+00 -0.10000000000E+04  0.10000000000E+04  0.00000000000E+00 0.  1.
    9000005    2    1    2  501    0 -0.23248769693E+02  0.43611622213E+01 -0.89027749767E+03  0.11077392530E+04  0.65873568654E+03 0.  0.
         13    1    3    3    0    0  0.13706285630E+02 -0.31085951060E+03 -0.60797535352E+03  0.68297549596E+03  0.00000000000E+00 0.  1.
          3    1    3    3  501    0 -0.36955055323E+02  0.31522067283E+03 -0.28230214415E+03  0.42476375703E+03  0.00000000000E+00 0.  1.
         -3    1    1    2    0  502  0.23248769693E+02 -0.43611622213E+01  0.14007107838E+03  0.14205432773E+03  0.00000000000E+00 0. -1.
<mgrwt>
<rscale>  1 0.65916025E+03</rscale>
<asrwt>0</asrwt>
<pdfrwt beam="1">  1       21 0.38429781E-01 0.65916025E+03</pdfrwt>
<pdfrwt beam="2">0</pdfrwt>
<totfact> 0.61312404E+02</totfact>
</mgrwt>
</event>
<event>
 6    1  0.1439793E-004  0.6442547E+03  0.7818608E-02  0.9817620E-01
         21   -1    0    0  501  502  0.00000000000E+00  0.00000000000E+00  0.15344938900E+03  0.15344938900E+03  0.00000000000E+00 0.  1.
         13   -1    0    0    0    0 -0.00000000000E+00 -0.00000000000E+00 -0.10000000000E+04  0.10000000000E+04  0.00000000000E+00 0.  1.
    9000005    2    1    2  501    0  0.38212953430E+02  0.66280823156E+02 -0.86123892205E+03  0.10755448076E+04  0.63969584560E+03 0.  0.
         13    1    3    3    0    0 -0.30038642228E+02 -0.27032785091E+02  0.99750865274E+02  0.10762586408E+03  0.00000000000E+00 0.  1.
          1    1    3    3  501    0  0.68251595658E+02  0.93313608247E+02 -0.96098978733E+03  0.96791894348E+03  0.00000000000E+00 0.  1.
         -3    1    1    2    0  502 -0.38212953430E+02 -0.66280823156E+02  0.14688311059E+02  0.77904581444E+02  0.00000000000E+00 0. -1.
<mgrwt>
<rscale>  1 0.64425473E+03</rscale>
<asrwt>0</asrwt>
<pdfrwt beam="1">  1       21 0.23607598E-01 0.64425473E+03</pdfrwt>
<pdfrwt beam="2">0</pdfrwt>
<totfact> 0.16292138E+03</totfact>
</mgrwt>
</event>
<event>
 6    1  0.1439793E-004  0.6627893E+03  0.7818608E-02  0.9783073E-01
         21   -1    0    0  501  502  0.00000000000E+00  0.00000000000E+00  0.16202877686E+03  0.16202877686E+03  0.00000000000E+00 0.  1.
         13   -1    0    0    0    0 -0.00000000000E+00 -0.00000000000E+00 -0.10000000000E+04  0.10000000000E+04  0.00000000000E+00 0.  1.
    9000005    2    1    2  501    0 -0.35406893340E+02  0.11243248108E+03 -0.79846880523E+03  0.10377100256E+04  0.65222308559E+03 0.  0.
         13    1    3    3    0    0 -0.19510239609E+01 -0.16642452581E+03  0.24414745273E+02  0.16821714857E+03  0.00000000000E+00 0.  1.
          3    1    3    3  501    0 -0.33455869379E+02  0.27885700689E+03 -0.82288355050E+03  0.86949287701E+03  0.00000000000E+00 0.  1.
         -1    1    1    2    0  502  0.35406893340E+02 -0.11243248108E+03 -0.39502417914E+02  0.12431875128E+03  0.00000000000E+00 0. -1.
<mgrwt>
<rscale>  1 0.66278931E+03</rscale>
<asrwt>0</asrwt>
<pdfrwt beam="1">  1       21 0.24927503E-01 0.66278931E+03</pdfrwt>
<pdfrwt beam="2">0</pdfrwt>
<totfact> 0.14635218E+03</totfact>
</mgrwt>
</event>
<event>
 6    1  0.1439793E-004  0.6571600E+03  0.7818608E-02  0.9793436E-01
         21   -1    0    0  501  502  0.00000000000E+00  0.00000000000E+00  0.17088712930E+03  0.17088712930E+03  0.00000000000E+00 0.  1.
         13   -1    0    0    0    0 -0.00000000000E+00 -0.00000000000E+00 -0.10000000000E+04  0.10000000000E+04  0.00000000000E+00 0.  1.
    9000005    2    1    2  501    0  0.17080247669E+02 -0.23396392927E+02 -0.88831859197E+03  0.11049747367E+04  0.65652122731E+03 0.  0.
         13    1    3    3    0    0 -0.18032893151E+03  0.11978216104E+02 -0.88616857523E+03  0.90440961125E+03  0.00000000000E+00 0.  1.
          3    1    3    3  501    0  0.19740917918E+03 -0.35374609031E+02 -0.21500167436E+01  0.20056512548E+03  0.00000000000E+00 0.  1.
         -3    1    1    2    0  502 -0.17080247669E+02  0.23396392927E+02  0.59205721276E+02  0.65912392569E+02  0.00000000000E+00 0. -1.
<mgrwt>
<rscale>  1 0.65715999E+03</rscale>
<asrwt>0</asrwt>
<pdfrwt beam="1">  1       21 0.26290327E-01 0.65715999E+03</pdfrwt>
<pdfrwt beam="2">0</pdfrwt>
<totfact> 0.13185204E+03</totfact>
</mgrwt>
</event>
<event>
 6    1  0.1439793E-004  0.8054440E+03  0.7818608E-02  0.9552170E-01
         21   -1    0    0  501  502  0.00000000000E+00  0.00000000000E+00  0.53560975582E+03  0.53560975582E+03  0.00000000000E+00 0. -1.
         13   -1    0    0    0    0 -0.00000000000E+00 -0.00000000000E+00 -0.10000000000E+04  0.10000000000E+04  0.00000000000E+00 0.  1.
    9000005    2    1    2  501    0  0.49869646712E+02  0.49741259555E+03 -0.61512933169E+03  0.10134713217E+04  0.63153286007E+03 0.  0.
         13    1    3    3    0    0  0.31975153465E+03  0.20071006830E+03 -0.16921349271E+03  0.41371340508E+03  0.00000000000E+00 0.  1.
          3    1    3    3  501    0 -0.26988188793E+03  0.29670252725E+03 -0.44591583897E+03  0.59975791663E+03  0.00000000000E+00 0.  1.
         -3    1    1    2    0  502 -0.49869646712E+02 -0.49741259555E+03  0.15073908751E+03  0.52213843411E+03  0.00000000000E+00 0. -1.
<mgrwt>
<rscale>  1 0.80544399E+03</rscale>
<asrwt>0</asrwt>
<pdfrwt beam="1">  1       21 0.82401499E-01 0.80544399E+03</pdfrwt>
<pdfrwt beam="2">0</pdfrwt>
<totfact> 0.11320784E+02</totfact>
</mgrwt>
</event>
<event>
 6    1  0.1439793E-004  0.6632626E+03  0.7818608E-02  0.9782206E-01
         21   -1    0    0  501  502  0.00000000000E+00  0.00000000000E+00  0.12144997838E+03  0.12144997838E+03  0.00000000000E+00 0.  1.
         13   -1    0    0    0    0 -0.00000000000E+00 -0.00000000000E+00 -0.10000000000E+04  0.10000000000E+04  0.00000000000E+00 0.  1.
    9000005    2    1    2  501    0 -0.22274500642E+01  0.27910428800E+02 -0.86587916059E+03  0.10907171899E+04  0.66267134689E+03 0.  0.
         13    1    3    3    0    0 -0.19064522413E+02 -0.13154779264E+03 -0.91375919595E+03  0.92337649198E+03  0.00000000000E+00 0.  1.
          3    1    3    3  501    0  0.16837072349E+02  0.15945822144E+03  0.47880035352E+02  0.16734069791E+03  0.00000000000E+00 0.  1.
         -3    1    1    2    0  502  0.22274500642E+01 -0.27910428800E+02 -0.12670861027E+02  0.30732788496E+02  0.00000000000E+00 0. -1.
<mgrwt>
<rscale>  1 0.66326259E+03</rscale>
<asrwt>0</asrwt>
<pdfrwt beam="1">  1       21 0.18684612E-01 0.66326259E+03</pdfrwt>
<pdfrwt beam="2">0</pdfrwt>
<totfact> 0.25547352E+03</totfact>
</mgrwt>
</event>
<event>
 6    1  0.1439793E-004  0.6102943E+03  0.7818608E-02  0.9884276E-01
         21   -1    0    0  501  502  0.00000000000E+00  0.00000000000E+00  0.24440294001E+03  0.24440294001E+03  0.00000000000E+00 0. -1.
         13   -1    0    0    0    0 -0.00000000000E+00 -0.00000000000E+00 -0.10000000000E+04  0.10000000000E+04  0.00000000000E+00 0.  1.
    9000005    2    1    2  501    0 -0.17968108381E+02  0.13065100052E+02 -0.90599319324E+03  0.10923748286E+04  0.60988978530E+03 0.  0.
         13    1    3    3    0    0  0.35331989035E+01 -0.86414106552E+02  0.69891874664E+02  0.11119692194E+03  0.00000000000E+00 0.  1.
          1    1    3    3  501    0 -0.21501307284E+02  0.99479206603E+02 -0.97588506791E+03  0.98117790667E+03  0.00000000000E+00 0.  1.
         -1    1    1    2    0  502  0.17968108381E+02 -0.13065100052E+02  0.15039613325E+03  0.15202811140E+03  0.00000000000E+00 0. -1.
<mgrwt>
<rscale>  1 0.61029427E+03</rscale>
<asrwt>0</asrwt>
<pdfrwt beam="1">  1       21 0.37600451E-01 0.61029427E+03</pdfrwt>
<pdfrwt beam="2">0</pdfrwt>
<totfact> 0.64379394E+02</totfact>
</mgrwt>
</event>
<event>
 6    1  0.1439793E-004  0.6568861E+03  0.7818608E-02  0.9793943E-01
         21   -1    0    0  501  502  0.00000000000E+00  0.00000000000E+00  0.14486152960E+03  0.14486152960E+03  0.00000000000E+00 0.  1.
         13   -1    0    0    0    0 -0.00000000000E+00 -0.00000000000E+00 -0.10000000000E+04  0.10000000000E+04  0.00000000000E+00 0.  1.
    9000005    2    1    2  501    0 -0.14186964325E+01  0.23007417163E+02 -0.88810204699E+03  0.11046377639E+04  0.65648152270E+03 0.  0.
         13    1    3    3    0    0 -0.23401435969E+03  0.22193900021E+03 -0.29437028384E+03  0.43666177342E+03  0.00000000000E+00 0.  1.
          1    1    3    3  501    0  0.23259566326E+03 -0.19893158305E+03 -0.59373176316E+03  0.66797599050E+03  0.00000000000E+00 0.  1.
         -1    1    1    2    0  502  0.14186964325E+01 -0.23007417163E+02  0.32963576590E+02  0.40223765683E+02  0.00000000000E+00 0. -1.
<mgrwt>
<rscale>  1 0.65688610E+03</rscale>
<asrwt>0</asrwt>
<pdfrwt beam="1">  1       21 0.22286389E-01 0.65688610E+03</pdfrwt>
<pdfrwt beam="2">0</pdfrwt>
<totfact> 0.18210576E+03</totfact>
</mgrwt>
</event>
<event>
 6    1  0.1439793E-004  0.6552550E+03  0.7818608E-02  0.9796968E-01
         21   -1    0    0  501  502  0.00000000000E+00  0.00000000000E+00  0.13932019541E+03  0.13932019541E+03  0.00000000000E+00 0.  1.
         13   -1    0    0    0    0 -0.00000000000E+00 -0.00000000000E+00 -0.10000000000E+04  0.10000000000E+04  0.00000000000E+00 0.  1.
    9000005    2    1    2  501    0  0.19838527223E+02  0.87848239712E+02 -0.77669941677E+03  0.10161796825E+04  0.64903642634E+03 0.  0.
         13    1    3    3    0    0  0.19946321825E+03  0.30902427320E+03 -0.48144725753E+03  0.60586552852E+03  0.00000000000E+00 0.  1.
          3    1    3    3  501    0 -0.17962469103E+03 -0.22117603349E+03 -0.29525215924E+03  0.41031415398E+03  0.00000000000E+00 0.  1.
         -3    1    1    2    0  502 -0.19838527223E+02 -0.87848239712E+02 -0.83980387817E+02  0.12314051291E+03  0.00000000000E+00 0. -1.
<mgrwt>
<rscale>  1 0.65525504E+03</rscale>
<asrwt>0</asrwt>
<pdfrwt beam="1">  1       21 0.21433876E-01 0.65525504E+03</pdfrwt>
<pdfrwt beam="2">0</pdfrwt>
<totfact> 0.19639028E+03</totfact>
</mgrwt>
</event>
<event>
 6    1  0.1439793E-004  0.6587052E+03  0.7818608E-02  0.9790580E-01
         21   -1    0    0  501  502  0.00000000000E+00  0.00000000000E+00  0.23598808485E+03  0.23598808485E+03  0.00000000000E+00 0. -1.
         13   -1    0    0    0    0 -0.00000000000E+00 -0.00000000000E+00 -0.10000000000E+04  0.10000000000E+04  0.00000000000E+00 0.  1.
    9000005    2    1    2  501    0 -0.34337642748E+02 -0.24056294391E+02 -0.88769422020E+03  0.11053929410E+04  0.65736956614E+03 0.  0.
         13    1    3    3    0    0  0.66305652105E+02  0.20126808047E+03 -0.82360155163E+03  0.85042624346E+03  0.00000000000E+00 0.  1.
          1    1    3    3  501    0 -0.10064329485E+03 -0.22532437486E+03 -0.64092668564E+02  0.25496669756E+03  0.00000000000E+00 0.  1.
         -3    1    1    2    0  502  0.34337642748E+02  0.24056294391E+02  0.12368230505E+03  0.13059514383E+03  0.00000000000E+00 0. -1.
<mgrwt>
<rscale>  1 0.65870519E+03</rscale>
<asrwt>0</asrwt>
<pdfrwt beam="1">  1       21 0.36305858E-01 0.65870519E+03</pdfrwt>
<pdfrwt beam="2">0</pdfrwt>
<totfact> 0.68918957E+02</totfact>
</mgrwt>
</event>
<event>
 6    1  0.1439793E-004  0.6670011E+03  0.7818608E-02  0.9775391E-01
         21   -1    0    0  501  502  0.00000000000E+00  0.00000000000E+00  0.13568097787E+03  0.13568097787E+03  0.00000000000E+00 0.  1.
         13   -1    0    0    0    0 -0.00000000000E+00 -0.00000000000E+00 -0.10000000000E+04  0.10000000000E+04  0.00000000000E+00 0.  1.
    9000005    2    1    2  501    0 -0.20773456216E+02 -0.40213981256E+01 -0.88357870682E+03  0.11070690297E+04  0.66666543120E+03 0.  0.
         13    1    3    3    0    0  0.11715312559E+03  0.30358836671E+03 -0.37007659134E+03  0.49279553031E+03  0.00000000000E+00 0.  1.
          3    1    3    3  501    0 -0.13792658181E+03 -0.30760976484E+03 -0.51350211548E+03  0.61427349935E+03  0.00000000000E+00 0.  1.
         -3    1    1    2    0  502  0.20773456216E+02  0.40213981256E+01  0.19259684689E+02  0.28611948210E+02  0.00000000000E+00 0. -1.
<mgrwt>
<rscale>  1 0.66700113E+03</rscale>
<asrwt>0</asrwt>
<pdfrwt beam="1">  1       21 0.20873996E-01 0.66700113E+03</pdfrwt>
<pdfrwt beam="2">0</pdfrwt>
<totfact> 0.20657382E+03</totfact>
</mgrwt>
</event>
<event>
 6    1  0.1439793E-004  0.6665237E+03  0.7818608E-02  0.9776258E-01
         21   -1    0    0  501  502  0.00000000000E+00  0.00000000000E+00  0.20884672727E+03  0.20884672727E+03  0.00000000000E+00 0.  1.
         13   -1    0    0    0    0 -0.00000000000E+00 -0.00000000000E+00 -0.10000000000E+04  0.10000000000E+04  0.00000000000E+00 0.  1.
    9000005    2    1    2  501    0 -0.15813777446E+03  0.42055856870E+02 -0.80442062417E+03  0.10446752516E+04  0.64612505749E+03 0.  0.
         13    1    3    3    0    0  0.10743941360E+03 -0.24964243700E+03 -0.31392570803E+03  0.41522755702E+03  0.00000000000E+00 0.  1.
          3    1    3    3  501    0 -0.26557718805E+03  0.29169829387E+03 -0.49049491614E+03  0.62944769459E+03  0.00000000000E+00 0.  1.
         -3    1    1    2    0  502  0.15813777446E+03 -0.42055856870E+02  0.13267351441E+02  0.16417147566E+03  0.00000000000E+00 0. -1.
<mgrwt>
<rscale>  1 0.66652370E+03</rscale>
<asrwt>0</asrwt>
<pdfrwt beam="1">  1       21 0.32130265E-01 0.66652370E+03</pdfrwt>
<pdfrwt beam="2">0</pdfrwt>
<totfact> 0.88312116E+02</totfact>
</mgrwt>
</event>
<event>
 6    1  0.1439793E-004  0.6838716E+03  0.7818608E-02  0.9745218E-01
         21   -1    0    0  501  502  0.00000000000E+00  0.00000000000E+00  0.27277683867E+03  0.27277683867E+03  0.00000000000E+00 0. -1.
         13   -1    0    0    0    0 -0.00000000000E+00 -0.00000000000E+00 -0.10000000000E+04  0.10000000000E+04  0.00000000000E+00 0.  1.
    9000005    2    1    2  501    0 -0.75097944373E+02  0.11040684846E+03 -0.85029498698E+03  0.10911837559E+04  0.67070936392E+03 0.  0.
         13    1    3    3    0    0 -0.34782313366E+03  0.19293937181E+03 -0.46356037518E+03  0.61081482868E+03  0.00000000000E+00 0.  1.
          1    1    3    3  501    0  0.27272518929E+03 -0.82532523350E+02 -0.38673461180E+03  0.48036892723E+03  0.00000000000E+00 0.  1.
         -3    1    1    2    0  502  0.75097944373E+02 -0.11040684846E+03  0.12307182565E+03  0.18159308275E+03  0.00000000000E+00 0. -1.
<mgrwt>
<rscale>  1 0.68387164E+03</rscale>
<asrwt>0</asrwt>
<pdfrwt beam="1">  1       21 0.41965666E-01 0.68387164E+03</pdfrwt>
<pdfrwt beam="2">0</pdfrwt>
<totfact> 0.50962093E+02</totfact>
</mgrwt>
</event>
<event>
 6    1  0.1439793E-004  0.7129734E+03  0.7818608E-02  0.9695300E-01
         21   -1    0    0  501  502  0.00000000000E+00  0.00000000000E+00  0.61992515102E+03  0.61992515102E+03  0.00000000000E+00 0. -1.
         13   -1    0    0    0    0 -0.00000000000E+00 -0.00000000000E+00 -0.10000000000E+04  0.10000000000E+04  0.00000000000E+00 0.  1.
    9000005    2    1    2  501    0 -0.30028258632E+02  0.83086894099E+01 -0.87236212537E+03  0.11266529208E+04  0.71229235254E+03 0.  0.
         13    1    3    3    0    0  0.20724759090E+03  0.72171711080E+02  0.92303065803E+00  0.21945653738E+03  0.00000000000E+00 0.  1.
          3    1    3    3  501    0 -0.23727584953E+03 -0.63863021670E+02 -0.87328515602E+03  0.90719638339E+03  0.00000000000E+00 0.  1.
         -1    1    1    2    0  502  0.30028258632E+02 -0.83086894099E+01  0.49228727638E+03  0.49327223024E+03  0.00000000000E+00 0. -1.
<mgrwt>
<rscale>  1 0.71297344E+03</rscale>
<asrwt>0</asrwt>
<pdfrwt beam="1">  1       21 0.95373097E-01 0.71297344E+03</pdfrwt>
<pdfrwt beam="2">0</pdfrwt>
<totfact> 0.80680835E+01</totfact>
</mgrwt>
</event>
<event>
 6    1  0.1439793E-004  0.6389026E+03  0.7818608E-02  0.9827828E-01
         21   -1    0    0  501  502  0.00000000000E+00  0.00000000000E+00  0.40638758895E+03  0.40638758895E+03  0.00000000000E+00 0.  1.
         13   -1    0    0    0    0 -0.00000000000E+00 -0.00000000000E+00 -0.10000000000E+04  0.10000000000E+04  0.00000000000E+00 0.  1.
    9000005    2    1    2  501    0  0.39121860487E+02  0.30527216624E+02 -0.89571971935E+03  0.11002319804E+04  0.63697265570E+03 0.  0.
         13    1    3    3    0    0 -0.26428374644E+03  0.10310896575E+03 -0.62814519518E+03  0.68923417187E+03  0.00000000000E+00 0.  1.
          1    1    3    3  501    0  0.30340560692E+03 -0.72581749128E+02 -0.26757452418E+03  0.41099780852E+03  0.00000000000E+00 0.  1.
         -3    1    1    2    0  502 -0.39121860487E+02 -0.30527216624E+02  0.30210730831E+03  0.30615560857E+03  0.00000000000E+00 0. -1.
<mgrwt>
<rscale>  1 0.63890265E+03</rscale>
<asrwt>0</asrwt>
<pdfrwt beam="1">  1       21 0.62521166E-01 0.63890265E+03</pdfrwt>
<pdfrwt beam="2">0</pdfrwt>
<totfact> 0.21681103E+02</totfact>
</mgrwt>
</event>
<event>
 6    1  0.1439793E-004  0.6187232E+03  0.7818608E-02  0.9867305E-01
         21   -1    0    0  501  502  0.00000000000E+00  0.00000000000E+00  0.99234519350E+03  0.99234519350E+03  0.00000000000E+00 0. -1.
         13   -1    0    0    0    0 -0.00000000000E+00 -0.00000000000E+00 -0.10000000000E+04  0.10000000000E+04  0.00000000000E+00 0.  1.
    9000005    2    1    2  501    0  0.33531838877E+02  0.22260497364E+01 -0.90395035993E+03  0.10954198574E+04  0.61780989888E+03 0.  0.
         13    1    3    3    0    0 -0.52528317138E+02 -0.17989994171E+03 -0.19618003864E+02  0.18843587558E+03  0.00000000000E+00 0.  1.
          1    1    3    3  501    0  0.86060156015E+02  0.18212599145E+03 -0.88433235607E+03  0.90698398178E+03  0.00000000000E+00 0.  1.
         -3    1    1    2    0  502 -0.33531838877E+02 -0.22260497364E+01  0.89629555343E+03  0.89692533614E+03  0.00000000000E+00 0. -1.
<mgrwt>
<rscale>  1 0.61872321E+03</rscale>
<asrwt>0</asrwt>
<pdfrwt beam="1">  1       21 0.15266849E+00 0.61872321E+03</pdfrwt>
<pdfrwt beam="2">0</pdfrwt>
<totfact> 0.24346653E+01</totfact>
</mgrwt>
</event>
<event>
 6    1  0.1439793E-004  0.6660775E+03  0.7818608E-02  0.9777070E-01
         21   -1    0    0  501  502  0.00000000000E+00  0.00000000000E+00  0.12086817156E+04  0.12086817156E+04  0.00000000000E+00 0. -1.
         13   -1    0    0    0    0 -0.00000000000E+00 -0.00000000000E+00 -0.10000000000E+04  0.10000000000E+04  0.00000000000E+00 0.  1.
    9000005    2    1    2  501    0 -0.90322942088E+02  0.11924050203E+03 -0.88341823893E+03  0.11063846405E+04  0.64906290647E+03 0.  0.
         13    1    3    3    0    0  0.19470575375E+03 -0.37793236849E+02 -0.39959373508E+02  0.20232501285E+03  0.00000000000E+00 0.  1.
          1    1    3    3  501    0 -0.28502869583E+03  0.15703373888E+03 -0.84345886542E+03  0.90405962760E+03  0.00000000000E+00 0.  1.
         -1    1    1    2    0  502  0.90322942088E+02 -0.11924050203E+03  0.10920999546E+04  0.11022970752E+04  0.00000000000E+00 0. -1.
<mgrwt>
<rscale>  1 0.66607746E+03</rscale>
<asrwt>0</asrwt>
<pdfrwt beam="1">  1       21 0.18595103E+00 0.66607746E+03</pdfrwt>
<pdfrwt beam="2">0</pdfrwt>
<totfact> 0.13656655E+01</totfact>
</mgrwt>
</event>
<event>
 6    1  0.1439793E-004  0.6485498E+03  0.7818608E-02  0.9809504E-01
         21   -1    0    0  501  502  0.00000000000E+00  0.00000000000E+00  0.52599061572E+03  0.52599061572E+03  0.00000000000E+00 0. -1.
         13   -1    0    0    0    0 -0.00000000000E+00 -0.00000000000E+00 -0.10000000000E+04  0.10000000000E+04  0.00000000000E+00 0.  1.
    9000005    2    1    2  501    0  0.73710349216E+02  0.75521423348E+02 -0.88751745253E+03  0.10992288280E+04  0.63990631093E+03 0.  0.
         13    1    3    3    0    0 -0.73365312898E+02 -0.12146134651E+03  0.33640422058E+02  0.14583211522E+03  0.00000000000E+00 0.  1.
          1    1    3    3  501    0  0.14707566211E+03  0.19698276986E+03 -0.92115787458E+03  0.95339671277E+03  0.00000000000E+00 0.  1.
         -3    1    1    2    0  502 -0.73710349216E+02 -0.75521423348E+02  0.41350806824E+03  0.42676178773E+03  0.00000000000E+00 0. -1.
<mgrwt>
<rscale>  1 0.64854976E+03</rscale>
<asrwt>0</asrwt>
<pdfrwt beam="1">  1       21 0.80921631E-01 0.64854976E+03</pdfrwt>
<pdfrwt beam="2">0</pdfrwt>
<totfact> 0.12032479E+02</totfact>
</mgrwt>
</event>
<event>
 6    1  0.1439793E-004  0.6511483E+03  0.7818608E-02  0.9804627E-01
         21   -1    0    0  501  502  0.00000000000E+00  0.00000000000E+00  0.67916784431E+03  0.67916784431E+03  0.00000000000E+00 0. -1.
         13   -1    0    0    0    0 -0.00000000000E+00 -0.00000000000E+00 -0.10000000000E+04  0.10000000000E+04  0.00000000000E+00 0.  1.
    9000005    2    1    2  501    0 -0.22985332580E+02  0.29564668399E+02 -0.89332484567E+03  0.11054516469E+04  0.65007051042E+03 0.  0.
         13    1    3    3    0    0 -0.11872516802E+03 -0.95464723399E+02  0.41146599592E+02  0.15780437761E+03  0.00000000000E+00 0.  1.
          1    1    3    3  501    0  0.95739835441E+02  0.12502939180E+03 -0.93447144526E+03  0.94764726925E+03  0.00000000000E+00 0.  1.
         -3    1    1    2    0  502  0.22985332580E+02 -0.29564668399E+02  0.57249268999E+03  0.57371619745E+03  0.00000000000E+00 0. -1.
<mgrwt>
<rscale>  1 0.65114827E+03</rscale>
<asrwt>0</asrwt>
<pdfrwt beam="1">  1       21 0.10448736E+00 0.65114827E+03</pdfrwt>
<pdfrwt beam="2">0</pdfrwt>
<totfact> 0.65056500E+01</totfact>
</mgrwt>
</event>
<event>
 6    1  0.1439793E-004  0.7497768E+03  0.7818608E-02  0.9635701E-01
         21   -1    0    0  501  502  0.00000000000E+00  0.00000000000E+00  0.75198773273E+03  0.75198773273E+03  0.00000000000E+00 0. -1.
         13   -1    0    0    0    0 -0.00000000000E+00 -0.00000000000E+00 -0.10000000000E+04  0.10000000000E+04  0.00000000000E+00 0.  1.
    9000005    2    1    2  501    0 -0.33002411399E+03  0.13199751610E+03 -0.79937981008E+03  0.10959805473E+04  0.66017120446E+03 0.  0.
         13    1    3    3    0    0 -0.17389490699E+02  0.32536739536E+03 -0.17100837860E+03  0.36798125211E+03  0.00000000000E+00 0.  1.
          3    1    3    3  501    0 -0.31263462330E+03 -0.19336987926E+03 -0.62837143149E+03  0.72799929519E+03  0.00000000000E+00 0.  1.
         -3    1    1    2    0  502  0.33002411399E+03 -0.13199751610E+03  0.55136754282E+03  0.65600718544E+03  0.00000000000E+00 0. -1.
<mgrwt>
<rscale>  1 0.74977682E+03</rscale>
<asrwt>0</asrwt>
<pdfrwt beam="1">  1       21 0.11569042E+00 0.74977682E+03</pdfrwt>
<pdfrwt beam="2">0</pdfrwt>
<totfact> 0.49649837E+01</totfact>
</mgrwt>
</event>
<event>
 6    1  0.1439793E-004  0.6663593E+03  0.7818608E-02  0.9776557E-01
         21   -1    0    0  501  502  0.00000000000E+00  0.00000000000E+00  0.14853871789E+03  0.14853871789E+03  0.00000000000E+00 0.  1.
         13   -1    0    0    0    0 -0.00000000000E+00 -0.00000000000E+00 -0.10000000000E+04  0.10000000000E+04  0.00000000000E+00 0.  1.
    9000005    2    1    2  501    0  0.34623146755E+02 -0.93752471927E+02 -0.77882834715E+03  0.10249918380E+04  0.65882196793E+03 0.  0.
         13    1    3    3    0    0 -0.78473555287E+02  0.96333365779E+02  0.73546635311E+02  0.14438602359E+03  0.00000000000E+00 0.  1.
          1    1    3    3  501    0  0.11309670204E+03 -0.19008583771E+03 -0.85237498246E+03  0.88060581444E+03  0.00000000000E+00 0.  1.
         -3    1    1    2    0  502 -0.34623146755E+02  0.93752471927E+02 -0.72632934959E+02  0.12354687987E+03  0.00000000000E+00 0. -1.
<mgrwt>
<rscale>  1 0.66635927E+03</rscale>
<asrwt>0</asrwt>
<pdfrwt beam="1">  1       21 0.22852110E-01 0.66635927E+03</pdfrwt>
<pdfrwt beam="2">0</pdfrwt>
<totfact> 0.17338418E+03</totfact>
</mgrwt>
</event>
<event>
 6    1  0.1439793E-004  0.6619570E+03  0.7818608E-02  0.9784598E-01
         21   -1    0    0  501  502  0.00000000000E+00  0.00000000000E+00  0.20659837075E+03  0.20659837075E+03  0.00000000000E+00 0.  1.
         13   -1    0    0    0    0 -0.00000000000E+00 -0.00000000000E+00 -0.10000000000E+04  0.10000000000E+04  0.00000000000E+00 0.  1.
    9000005    2    1    2  501    0  0.62162979006E+01  0.20500226319E+02 -0.88913973520E+03  0.11084928838E+04  0.66161023502E+03 0.  0.
         13    1    3    3    0    0 -0.95232740886E+02  0.25831206464E+03 -0.12604815380E+03  0.30279123956E+03  0.00000000000E+00 0.  1.
          1    1    3    3  501    0  0.10144903879E+03 -0.23781183833E+03 -0.76309158141E+03  0.80570164424E+03  0.00000000000E+00 0.  1.
         -3    1    1    2    0  502 -0.62162979006E+01 -0.20500226319E+02  0.95738105950E+02  0.98105486949E+02  0.00000000000E+00 0. -1.
<mgrwt>
<rscale>  1 0.66195695E+03</rscale>
<asrwt>0</asrwt>
<pdfrwt beam="1">  1       21 0.31784364E-01 0.66195695E+03</pdfrwt>
<pdfrwt beam="2">0</pdfrwt>
<totfact> 0.90288907E+02</totfact>
</mgrwt>
</event>
<event>
 6    1  0.1439793E-004  0.6503812E+03  0.7818608E-02  0.9806064E-01
         21   -1    0    0  501  502  0.00000000000E+00  0.00000000000E+00  0.32747351975E+03  0.32747351975E+03  0.00000000000E+00 0. -1.
         13   -1    0    0    0    0 -0.00000000000E+00 -0.00000000000E+00 -0.10000000000E+04  0.10000000000E+04  0.00000000000E+00 0.  1.
    9000005    2    1    2  501    0  0.37762865710E+02  0.21002364625E+02 -0.89192038489E+03  0.11038648912E+04  0.64894421316E+03 0.  0.
         13    1    3    3    0    0  0.27588800223E+03 -0.89035505230E+02 -0.75332912720E+03  0.80718417035E+03  0.00000000000E+00 0.  1.
          1    1    3    3  501    0 -0.23812513652E+03  0.11003786986E+03 -0.13859125769E+03  0.29668072090E+03  0.00000000000E+00 0.  1.
         -3    1    1    2    0  502 -0.37762865710E+02 -0.21002364625E+02  0.21939390464E+03  0.22360862850E+03  0.00000000000E+00 0. -1.
<mgrwt>
<rscale>  1 0.65038122E+03</rscale>
<asrwt>0</asrwt>
<pdfrwt beam="1">  1       21 0.50380540E-01 0.65038122E+03</pdfrwt>
<pdfrwt beam="2">0</pdfrwt>
<totfact> 0.34701190E+02</totfact>
</mgrwt>
</event>
<event>
 6    1  0.1439793E-004  0.6731108E+03  0.7818608E-02  0.9764354E-01
         21   -1    0    0  501  502  0.00000000000E+00  0.00000000000E+00  0.20948124426E+03  0.20948124426E+03  0.00000000000E+00 0. -1.
         13   -1    0    0    0    0 -0.00000000000E+00 -0.00000000000E+00 -0.10000000000E+04  0.10000000000E+04  0.00000000000E+00 0.  1.
    9000005    2    1    2  501    0 -0.19107340446E+02  0.10536404452E+03 -0.85215165710E+03  0.10859284747E+04  0.66453858663E+03 0.  0.
         13    1    3    3    0    0 -0.12543321511E+03  0.36116149069E+03 -0.59929823277E+03  0.71086530764E+03  0.00000000000E+00 0.  1.
          1    1    3    3  501    0  0.10632587466E+03 -0.25579744616E+03 -0.25285342433E+03  0.37506316705E+03  0.00000000000E+00 0.  1.
         -3    1    1    2    0  502  0.19107340446E+02 -0.10536404452E+03  0.61632901362E+02  0.12355276956E+03  0.00000000000E+00 0. -1.
<mgrwt>
<rscale>  1 0.67311084E+03</rscale>
<asrwt>0</asrwt>
<pdfrwt beam="1">  1       21 0.32227883E-01 0.67311084E+03</pdfrwt>
<pdfrwt beam="2">0</pdfrwt>
<totfact> 0.87734950E+02</totfact>
</mgrwt>
</event>
<event>
 6    1  0.1439793E-004  0.6597968E+03  0.7818608E-02  0.9788568E-01
         21   -1    0    0  501  502  0.00000000000E+00  0.00000000000E+00  0.14722724517E+03  0.14722724517E+03  0.00000000000E+00 0.  1.
         13   -1    0    0    0    0 -0.00000000000E+00 -0.00000000000E+00 -0.10000000000E+04  0.10000000000E+04  0.00000000000E+00 0.  1.
    9000005    2    1    2  501    0  0.20452886131E+02 -0.16651670910E+02 -0.88607599242E+03  0.11047454334E+04  0.65926945147E+03 0.  0.
         13    1    3    3    0    0 -0.23908179763E+03  0.20243644336E+03 -0.34602386172E+03  0.46676882119E+03  0.00000000000E+00 0.  1.
          3    1    3    3  501    0  0.25953468376E+03 -0.21908811427E+03 -0.54005213070E+03  0.63797661224E+03  0.00000000000E+00 0.  1.
         -1    1    1    2    0  502 -0.20452886131E+02  0.16651670910E+02  0.33303237585E+02  0.42481811742E+02  0.00000000000E+00 0. -1.
<mgrwt>
<rscale>  1 0.65979679E+03</rscale>
<asrwt>0</asrwt>
<pdfrwt beam="1">  1       21 0.22650345E-01 0.65979679E+03</pdfrwt>
<pdfrwt beam="2">0</pdfrwt>
<totfact> 0.17644958E+03</totfact>
</mgrwt>
</event>
<event>
 6    1  0.1439793E-004  0.6726121E+03  0.7818608E-02  0.9765251E-01
         21   -1    0    0  501  502  0.00000000000E+00  0.00000000000E+00  0.29516985519E+03  0.29516985519E+03  0.00000000000E+00 0. -1.
         13   -1    0    0    0    0 -0.00000000000E+00 -0.00000000000E+00 -0.10000000000E+04  0.10000000000E+04  0.00000000000E+00 0.  1.
    9000005    2    1    2  501    0  0.17291492860E+03 -0.29651896294E+02 -0.83826447221E+03  0.10747531425E+04  0.64932902641E+03 0.  0.
         13    1    3    3    0    0  0.28987335277E+02 -0.33235069902E+03 -0.36093315070E+03  0.49149770297E+03  0.00000000000E+00 0.  1.
          1    1    3    3  501    0  0.14392759332E+03  0.30269880273E+03 -0.47733132151E+03  0.58325543957E+03  0.00000000000E+00 0.  1.
         -3    1    1    2    0  502 -0.17291492860E+03  0.29651896294E+02  0.13343432740E+03  0.22041671265E+03  0.00000000000E+00 0. -1.
<mgrwt>
<rscale>  1 0.67261207E+03</rscale>
<asrwt>0</asrwt>
<pdfrwt beam="1">  1       21 0.45410746E-01 0.67261207E+03</pdfrwt>
<pdfrwt beam="2">0</pdfrwt>
<totfact> 0.43208200E+02</totfact>
</mgrwt>
</event>
<event>
 6    1  0.1439793E-004  0.6515315E+03  0.7818608E-02  0.9803910E-01
         21   -1    0    0  501  502  0.00000000000E+00  0.00000000000E+00  0.20933422687E+03  0.20933422687E+03  0.00000000000E+00 0. -1.
         13   -1    0    0    0    0 -0.00000000000E+00 -0.00000000000E+00 -0.10000000000E+04  0.10000000000E+04  0.00000000000E+00 0.  1.
    9000005    2    1    2  501    0  0.32290838899E+02  0.10768857041E+02 -0.89076241807E+03  0.11036081426E+04  0.65064166826E+03 0.  0.
         13    1    3    3    0    0  0.34156621035E+03  0.18471652066E+02 -0.45832280610E+03  0.57189900557E+03  0.00000000000E+00 0.  1.
          1    1    3    3  501    0 -0.30927537145E+03 -0.77027950250E+01 -0.43243961197E+03  0.53170913707E+03  0.00000000000E+00 0.  1.
         -1    1    1    2    0  502 -0.32290838899E+02 -0.10768857041E+02  0.10009664494E+03  0.10572608423E+03  0.00000000000E+00 0. -1.
<mgrwt>
<rscale>  1 0.65153146E+03</rscale>
<asrwt>0</asrwt>
<pdfrwt beam="1">  1       21 0.32205265E-01 0.65153146E+03</pdfrwt>
<pdfrwt beam="2">0</pdfrwt>
<totfact> 0.87984865E+02</totfact>
</mgrwt>
</event>
<event>
 6    1  0.1439793E-004  0.6478678E+03  0.7818608E-02  0.9810788E-01
         21   -1    0    0  501  502  0.00000000000E+00  0.00000000000E+00  0.22231672293E+03  0.22231672293E+03  0.00000000000E+00 0.  1.
         13   -1    0    0    0    0 -0.00000000000E+00 -0.00000000000E+00 -0.10000000000E+04  0.10000000000E+04  0.00000000000E+00 0.  1.
    9000005    2    1    2  501    0  0.27376551507E+02 -0.54319804245E+02 -0.88629011966E+03  0.10978355478E+04  0.64500588918E+03 0.  0.
         13    1    3    3    0    0  0.29467168951E+03 -0.12379865607E+03 -0.68559476039E+03  0.75643749729E+03  0.00000000000E+00 0.  1.
          3    1    3    3  501    0 -0.26729513800E+03  0.69478851827E+02 -0.20069535928E+03  0.34139805050E+03  0.00000000000E+00 0.  1.
         -3    1    1    2    0  502 -0.27376551507E+02  0.54319804245E+02  0.10860684260E+03  0.12448117514E+03  0.00000000000E+00 0. -1.
<mgrwt>
<rscale>  1 0.64786782E+03</rscale>
<asrwt>0</asrwt>
<pdfrwt beam="1">  1       21 0.34202572E-01 0.64786782E+03</pdfrwt>
<pdfrwt beam="2">0</pdfrwt>
<totfact> 0.77907314E+02</totfact>
</mgrwt>
</event>
<event>
 6    1  0.1439793E-004  0.6440206E+03  0.7818608E-02  0.9818064E-01
         21   -1    0    0  501  502  0.00000000000E+00  0.00000000000E+00  0.25861215188E+03  0.25861215188E+03  0.00000000000E+00 0. -1.
         13   -1    0    0    0    0 -0.00000000000E+00 -0.00000000000E+00 -0.10000000000E+04  0.10000000000E+04  0.00000000000E+00 0.  1.
    9000005    2    1    2  501    0 -0.27548196547E+02  0.39187901558E+02 -0.89221092913E+03  0.11003648880E+04  0.64223667750E+03 0.  0.
         13    1    3    3    0    0 -0.15295704865E+02  0.46445878973E+02  0.98279195500E+02  0.10977239420E+03  0.00000000000E+00 0.  1.
          1    1    3    3  501    0 -0.12252491683E+02 -0.72579774149E+01 -0.99049012462E+03  0.99059249380E+03  0.00000000000E+00 0.  1.
         -1    1    1    2    0  502  0.27548196547E+02 -0.39187901558E+02  0.15082308100E+03  0.15824726388E+03  0.00000000000E+00 0. -1.
<mgrwt>
<rscale>  1 0.64402061E+03</rscale>
<asrwt>0</asrwt>
<pdfrwt beam="1">  1       21 0.39786484E-01 0.64402061E+03</pdfrwt>
<pdfrwt beam="2">0</pdfrwt>
<totfact> 0.57134301E+02</totfact>
</mgrwt>
</event>
<event>
 6    1  0.1439793E-004  0.6187236E+03  0.7818608E-02  0.9867304E-01
         21   -1    0    0  501  502  0.00000000000E+00  0.00000000000E+00  0.36321595366E+03  0.36321595366E+03  0.00000000000E+00 0. -1.
         13   -1    0    0    0    0 -0.00000000000E+00 -0.00000000000E+00 -0.10000000000E+04  0.10000000000E+04  0.00000000000E+00 0.  1.
    9000005    2    1    2  501    0 -0.38399411805E+02 -0.11669957905E+02 -0.90264484936E+03  0.10943429923E+04  0.61742056823E+03 0.  0.
         13    1    3    3    0    0  0.82657310065E+02  0.17414634685E+03 -0.31390202179E+02  0.19530623600E+03  0.00000000000E+00 0.  1.
          1    1    3    3  501    0 -0.12105672187E+03 -0.18581630476E+03 -0.87125464718E+03  0.89903675634E+03  0.00000000000E+00 0.  1.
         -1    1    1    2    0  502  0.38399411805E+02  0.11669957905E+02  0.26586080301E+03  0.26887296131E+03  0.00000000000E+00 0. -1.
<mgrwt>
<rscale>  1 0.61872357E+03</rscale>
<asrwt>0</asrwt>
<pdfrwt beam="1">  1       21 0.55879376E-01 0.61872357E+03</pdfrwt>
<pdfrwt beam="2">0</pdfrwt>
<totfact> 0.27826466E+02</totfact>
</mgrwt>
</event>
<event>
 6    1  0.1439793E-004  0.6439109E+03  0.7818608E-02  0.9818272E-01
         21   -1    0    0  501  502  0.00000000000E+00  0.00000000000E+00  0.11765566107E+03  0.11765566107E+03  0.00000000000E+00 0.  1.
         13   -1    0    0    0    0 -0.00000000000E+00 -0.00000000000E+00 -0.10000000000E+04  0.10000000000E+04  0.00000000000E+00 0.  1.
    9000005    2    1    2  501    0 -0.13989992754E+02  0.21914186881E+02 -0.88151221179E+03  0.10916432809E+04  0.64338582655E+03 0.  0.
         13    1    3    3    0    0 -0.18707343363E+03 -0.42553978583E+02 -0.88635434940E+03  0.90688000494E+03  0.00000000000E+00 0.  1.
          1    1    3    3  501    0  0.17308344087E+03  0.64468165464E+02  0.48421376107E+01  0.18476327600E+03  0.00000000000E+00 0.  1.
         -1    1    1    2    0  502  0.13989992754E+02 -0.21914186881E+02 -0.83212714227E+00  0.26012380120E+02  0.00000000000E+00 0. -1.
<mgrwt>
<rscale>  1 0.64391092E+03</rscale>
<asrwt>0</asrwt>
<pdfrwt beam="1">  1       21 0.18100870E-01 0.64391092E+03</pdfrwt>
<pdfrwt beam="2">0</pdfrwt>
<totfact> 0.27154618E+03</totfact>
</mgrwt>
</event>
<event>
 6    1  0.1439793E-004  0.6555530E+03  0.7818608E-02  0.9796415E-01
         21   -1    0    0  501  502  0.00000000000E+00  0.00000000000E+00  0.24157195165E+03  0.24157195165E+03  0.00000000000E+00 0. -1.
         13   -1    0    0    0    0 -0.00000000000E+00 -0.00000000000E+00 -0.10000000000E+04  0.10000000000E+04  0.00000000000E+00 0.  1.
    9000005    2    1    2  501    0 -0.81313148270E+01  0.42094934838E+02 -0.88875686368E+03  0.11043724548E+04  0.65414956580E+03 0.  0.
         13    1    3    3    0    0  0.27069923195E+03  0.19859223912E+03 -0.46345071157E+03  0.57227922702E+03  0.00000000000E+00 0.  1.
          1    1    3    3  501    0 -0.27883054678E+03 -0.15649730428E+03 -0.42530615211E+03  0.53209322782E+03  0.00000000000E+00 0.  1.
         -1    1    1    2    0  502  0.81313148270E+01 -0.42094934838E+02  0.13032881533E+03  0.13719949681E+03  0.00000000000E+00 0. -1.
<mgrwt>
<rscale>  1 0.65555302E+03</rscale>
<asrwt>0</asrwt>
<pdfrwt beam="1">  1       21 0.37164915E-01 0.65555302E+03</pdfrwt>
<pdfrwt beam="2">0</pdfrwt>
<totfact> 0.65705395E+02</totfact>
</mgrwt>
</event>
<event>
 6    1  0.1439793E-004  0.6547533E+03  0.7818608E-02  0.9797901E-01
         21   -1    0    0  501  502  0.00000000000E+00  0.00000000000E+00  0.18587158485E+03  0.18587158485E+03  0.00000000000E+00 0.  1.
         13   -1    0    0    0    0 -0.00000000000E+00 -0.00000000000E+00 -0.10000000000E+04  0.10000000000E+04  0.00000000000E+00 0.  1.
    9000005    2    1    2  501    0  0.29222240143E+02  0.17767289356E+02 -0.88868810364E+03  0.11038425471E+04  0.65385947062E+03 0.  0.
         13    1    3    3    0    0  0.32295301511E+03  0.11875346591E+03 -0.47407677546E+03  0.58578991513E+03  0.00000000000E+00 0.  1.
          3    1    3    3  501    0 -0.29373077497E+03 -0.10098617656E+03 -0.41461132818E+03  0.51805263196E+03  0.00000000000E+00 0.  1.
         -3    1    1    2    0  502 -0.29222240143E+02 -0.17767289356E+02  0.74559688489E+02  0.82029037771E+02  0.00000000000E+00 0. -1.
<mgrwt>
<rscale>  1 0.65475325E+03</rscale>
<asrwt>0</asrwt>
<pdfrwt beam="1">  1       21 0.28595628E-01 0.65475325E+03</pdfrwt>
<pdfrwt beam="2">0</pdfrwt>
<totfact> 0.11164093E+03</totfact>
</mgrwt>
</event>
<event>
 6    1  0.1439793E-004  0.6550295E+03  0.7818608E-02  0.9797387E-01
         21   -1    0    0  501  502  0.00000000000E+00  0.00000000000E+00  0.13834633898E+03  0.13834633898E+03  0.00000000000E+00 0. -1.
         13   -1    0    0    0    0 -0.00000000000E+00 -0.00000000000E+00 -0.10000000000E+04  0.10000000000E+04  0.00000000000E+00 0.  1.
    9000005    2    1    2  501    0  0.52099225815E+02 -0.49124262985E+01 -0.86601040408E+03  0.10858349833E+04  0.65293577768E+03 0.  0.
         13    1    3    3    0    0 -0.29943271299E+03  0.15643248257E+02 -0.45081479481E+03  0.54142279232E+03  0.00000000000E+00 0.  1.
          3    1    3    3  501    0  0.35153193881E+03 -0.20555674556E+02 -0.41519560926E+03  0.54441219100E+03  0.00000000000E+00 0.  1.
         -3    1    1    2    0  502 -0.52099225815E+02  0.49124262985E+01  0.43567430523E+01  0.52511355655E+02  0.00000000000E+00 0. -1.
<mgrwt>
<rscale>  1 0.65502946E+03</rscale>
<asrwt>0</asrwt>
<pdfrwt beam="1">  1       21 0.21284052E-01 0.65502946E+03</pdfrwt>
<pdfrwt beam="2">0</pdfrwt>
<totfact> 0.19906896E+03</totfact>
</mgrwt>
</event>
<event>
 6    1  0.1439793E-004  0.6530130E+03  0.7818608E-02  0.9801142E-01
         21   -1    0    0  501  502  0.00000000000E+00  0.00000000000E+00  0.19140043661E+03  0.19140043661E+03  0.00000000000E+00 0.  1.
         13   -1    0    0    0    0 -0.00000000000E+00 -0.00000000000E+00 -0.10000000000E+04  0.10000000000E+04  0.00000000000E+00 0.  1.
    9000005    2    1    2  501    0 -0.19684594383E+02  0.13304507620E+02 -0.89154759917E+03  0.11051167776E+04  0.65258062895E+03 0.  0.
         13    1    3    3    0    0  0.62536709089E+02 -0.22573801249E+03 -0.80426967145E+03  0.83768621493E+03  0.00000000000E+00 0.  1.
          1    1    3    3  501    0 -0.82221303472E+02  0.23904252011E+03 -0.87277927722E+02  0.26743056263E+03  0.00000000000E+00 0.  1.
         -3    1    1    2    0  502  0.19684594383E+02 -0.13304507620E+02  0.82948035778E+02  0.86283659047E+02  0.00000000000E+00 0. -1.
<mgrwt>
<rscale>  1 0.65301299E+03</rscale>
<asrwt>0</asrwt>
<pdfrwt beam="1">  1       21 0.29446220E-01 0.65301299E+03</pdfrwt>
<pdfrwt beam="2">0</pdfrwt>
<totfact> 0.10531227E+03</totfact>
</mgrwt>
</event>
<event>
 6    1  0.1439793E-004  0.6342588E+03  0.7818608E-02  0.9836773E-01
         21   -1    0    0  501  502  0.00000000000E+00  0.00000000000E+00  0.11153821500E+03  0.11153821500E+03  0.00000000000E+00 0.  1.
         13   -1    0    0    0    0 -0.00000000000E+00 -0.00000000000E+00 -0.10000000000E+04  0.10000000000E+04  0.00000000000E+00 0.  1.
    9000005    2    1    2  501    0  0.46976384208E+01 -0.29219503891E+02 -0.87001092687E+03  0.10766629891E+04  0.63356793800E+03 0.  0.
         13    1    3    3    0    0 -0.28507534569E+03 -0.81072950423E+02 -0.24034970787E+03  0.38158715660E+03  0.00000000000E+00 0.  1.
          3    1    3    3  501    0  0.28977298411E+03  0.51853446532E+02 -0.62966121900E+03  0.69507583252E+03  0.00000000000E+00 0.  1.
         -3    1    1    2    0  502 -0.46976384208E+01  0.29219503891E+02 -0.18450858130E+02  0.34875225879E+02  0.00000000000E+00 0. -1.
<mgrwt>
<rscale>  1 0.63425876E+03</rscale>
<asrwt>0</asrwt>
<pdfrwt beam="1">  1       21 0.17159725E-01 0.63425876E+03</pdfrwt>
<pdfrwt beam="2">0</pdfrwt>
<totfact> 0.30052967E+03</totfact>
</mgrwt>
</event>
<event>
 6    1  0.1439793E-004  0.6387804E+03  0.7818608E-02  0.9828063E-01
         21   -1    0    0  501  502  0.00000000000E+00  0.00000000000E+00  0.12828602243E+03  0.12828602243E+03  0.00000000000E+00 0.  1.
         13   -1    0    0    0    0 -0.00000000000E+00 -0.00000000000E+00 -0.10000000000E+04  0.10000000000E+04  0.00000000000E+00 0.  1.
    9000005    2    1    2  501    0 -0.41041976513E+02 -0.16213163831E+01 -0.87897880032E+03  0.10865745114E+04  0.63745852013E+03 0.  0.
         13    1    3    3    0    0  0.64936328005E+02  0.30312360403E+03 -0.35578544179E+03  0.47189397814E+03  0.00000000000E+00 0.  1.
          1    1    3    3  501    0 -0.10597830452E+03 -0.30474492041E+03 -0.52319335853E+03  0.61468053325E+03  0.00000000000E+00 0.  1.
         -1    1    1    2    0  502  0.41041976513E+02  0.16213163831E+01  0.72648227499E+01  0.41711511031E+02  0.00000000000E+00 0. -1.
<mgrwt>
<rscale>  1 0.63878043E+03</rscale>
<asrwt>0</asrwt>
<pdfrwt beam="1">  1       21 0.19736311E-01 0.63878043E+03</pdfrwt>
<pdfrwt beam="2">0</pdfrwt>
<totfact> 0.23030690E+03</totfact>
</mgrwt>
</event>
<event>
 6    1  0.1439793E-004  0.6389153E+03  0.7818608E-02  0.9827804E-01
         21   -1    0    0  501  502  0.00000000000E+00  0.00000000000E+00  0.24070936232E+03  0.24070936232E+03  0.00000000000E+00 0.  1.
         13   -1    0    0    0    0 -0.00000000000E+00 -0.00000000000E+00 -0.10000000000E+04  0.10000000000E+04  0.00000000000E+00 0.  1.
    9000005    2    1    2  501    0  0.22994308086E+02 -0.30413221934E+02 -0.89505194983E+03  0.10996957596E+04  0.63777666039E+03 0.  0.
         13    1    3    3    0    0 -0.15016033435E+03 -0.11028647571E+03 -0.88963031805E+03  0.90892977481E+03  0.00000000000E+00 0.  1.
          1    1    3    3  501    0  0.17315464244E+03  0.79873253772E+02 -0.54216317734E+01  0.19076598480E+03  0.00000000000E+00 0.  1.
         -3    1    1    2    0  502 -0.22994308086E+02  0.30413221934E+02  0.13576131215E+03  0.14101360271E+03  0.00000000000E+00 0. -1.
<mgrwt>
<rscale>  1 0.63891531E+03</rscale>
<asrwt>0</asrwt>
<pdfrwt beam="1">  1       21 0.37032209E-01 0.63891531E+03</pdfrwt>
<pdfrwt beam="2">0</pdfrwt>
<totfact> 0.66274067E+02</totfact>
</mgrwt>
</event>
<event>
 6    1  0.1439793E-004  0.6347674E+03  0.7818608E-02  0.9835790E-01
         21   -1    0    0  501  502  0.00000000000E+00  0.00000000000E+00  0.38523450058E+03  0.38523450058E+03  0.00000000000E+00 0. -1.
         13   -1    0    0    0    0 -0.00000000000E+00 -0.00000000000E+00 -0.10000000000E+04  0.10000000000E+04  0.00000000000E+00 0.  1.
    9000005    2    1    2  501    0 -0.36940651506E+02  0.30550354367E+02 -0.89704292590E+03  0.10989156549E+04  0.63295471387E+03 0.  0.
         13    1    3    3    0    0 -0.32123432979E+02  0.74757976475E+01  0.98098787103E+02  0.10349480435E+03  0.00000000000E+00 0.  1.
          3    1    3    3  501    0 -0.48172185269E+01  0.23074556720E+02 -0.99514171300E+03  0.99542085056E+03  0.00000000000E+00 0.  1.
         -1    1    1    2    0  502  0.36940651506E+02 -0.30550354367E+02  0.28227742648E+03  0.28631884567E+03  0.00000000000E+00 0. -1.
<mgrwt>
<rscale>  1 0.63476736E+03</rscale>
<asrwt>0</asrwt>
<pdfrwt beam="1">  1       21 0.59266845E-01 0.63476736E+03</pdfrwt>
<pdfrwt beam="2">0</pdfrwt>
<totfact> 0.24416426E+02</totfact>
</mgrwt>
</event>
<event>
 6    1  0.1439793E-004  0.8790806E+03  0.7818608E-02  0.9452116E-01
         21   -1    0    0  501  502  0.00000000000E+00  0.00000000000E+00  0.87427551415E+03  0.87427551415E+03  0.00000000000E+00 0. -1.
         13   -1    0    0    0    0 -0.00000000000E+00 -0.00000000000E+00 -0.10000000000E+04  0.10000000000E+04  0.00000000000E+00 0.  1.
    9000005    2    1    2  501    0  0.26403034066E+03  0.49834664357E+03 -0.65856340037E+03  0.10984026465E+04  0.67433020365E+03 0.  0.
         13    1    3    3    0    0  0.22554812067E+03  0.25685170234E+03  0.53073745349E+02  0.34592134102E+03  0.00000000000E+00 0.  1.
          1    1    3    3  501    0  0.38482219993E+02  0.24149494123E+03 -0.71163714572E+03  0.75248130546E+03  0.00000000000E+00 0.  1.
         -1    1    1    2    0  502 -0.26403034066E+03 -0.49834664357E+03  0.53283891453E+03  0.77587286767E+03  0.00000000000E+00 0. -1.
<mgrwt>
<rscale>  1 0.87908055E+03</rscale>
<asrwt>0</asrwt>
<pdfrwt beam="1">  1       21 0.13450392E+00 0.87908055E+03</pdfrwt>
<pdfrwt beam="2">0</pdfrwt>
<totfact> 0.32919157E+01</totfact>
</mgrwt>
</event>
