<event>
 6    1  0.9843879E-012  0.3000000E+03  0.7818608E-02  0.1093470E+00
          1   -1    0    0  502    0  0.00000000000E+00  0.00000000000E+00  0.24337542776E+03  0.24337542776E+03  0.00000000000E+00 0.  1.
         13   -1    0    0    0    0 -0.00000000000E+00 -0.00000000000E+00 -0.27500000000E+03  0.27500000000E+03  0.00000000000E+00 0.  1.
    9000005    2    1    2  501    0 -0.18399101897E+02  0.37164444894E+02 -0.39525405839E+02  0.47615995564E+03  0.47270109237E+03 0.  0.
         13    1    3    3    0    0 -0.24504259502E+02 -0.11374341005E+03 -0.21510661843E+03  0.24455853973E+03  0.00000000000E+00 0.  1.
          3    1    3    3  501    0  0.61051576047E+01  0.15090785494E+03  0.17558121259E+03  0.23160141590E+03  0.00000000000E+00 0.  1.
         21    1    1    2  502  501  0.18399101897E+02 -0.37164444894E+02  0.79008335964E+01  0.42215472122E+02  0.00000000000E+00 0.  1.
<scales pt_clust_4="550.00000" pt_clust_5="550.00000" pt_clust_6="41.46954"></scales>
<mgrwt>
<rscale>  0 0.30000000E+03</rscale>
<asrwt>  1 0.41469542E+02</asrwt>
<pdfrwt beam="1">  1        1 0.88500156E+00 0.30000000E+03</pdfrwt>
<pdfrwt beam="2">0</pdfrwt>
<totfact> 0.16448165E-04</totfact>
</mgrwt>
<clustering>
<clus scale="   41.470">  1  6  2 -1</clus>
<clus scale="  472.701">  4  5 -1 -1</clus>
<clus scale="  300.000">  1  4  2 -1</clus>
</clustering>
</event>
<event>
 6    1  0.9843879E-012  0.3000000E+03  0.7818608E-02  0.1093470E+00
          1   -1    0    0  502    0  0.00000000000E+00  0.00000000000E+00  0.24220772696E+03  0.24220772696E+03  0.00000000000E+00 0.  1.
         13   -1    0    0    0    0 -0.00000000000E+00 -0.00000000000E+00 -0.27500000000E+03  0.27500000000E+03  0.00000000000E+00 0.  1.
    9000005    2    1    2  501    0  0.26015374059E+02 -0.17423503859E+02 -0.69932123092E+02  0.46863050353E+03  0.46232420316E+03 0.  0.
         13    1    3    3    0    0  0.18979821266E+03 -0.36520097798E+02 -0.18500776920E+03  0.26755364646E+03  0.00000000000E+00 0.  1.
          3    1    3    3  501    0 -0.16378283860E+03  0.19096593939E+02  0.11507564611E+03  0.20107685707E+03  0.00000000000E+00 0.  1.
         21    1    1    2  502  501 -0.26015374059E+02  0.17423503859E+02  0.37139850049E+02  0.48577223427E+02  0.00000000000E+00 0.  1.
<scales pt_clust_4="550.00000" pt_clust_5="550.00000" pt_clust_6="31.31099"></scales>
<mgrwt>
<rscale>  0 0.30000000E+03</rscale>
<asrwt>  1 0.31310991E+02</asrwt>
<pdfrwt beam="1">  1        1 0.88075537E+00 0.30000000E+03</pdfrwt>
<pdfrwt beam="2">0</pdfrwt>
<totfact> 0.19725175E-04</totfact>
</mgrwt>
<clustering>
<clus scale="   31.311">  1  6  2 -1</clus>
<clus scale="  462.324">  4  5 -1 -1</clus>
<clus scale="  300.000">  1  4  2 -1</clus>
</clustering>
</event>
<event>
 6    1  0.9843879E-012  0.3000000E+03  0.7818608E-02  0.1093470E+00
          1   -1    0    0  502    0  0.00000000000E+00  0.00000000000E+00  0.22771257311E+03  0.22771257311E+03  0.00000000000E+00 0.  1.
         13   -1    0    0    0    0 -0.00000000000E+00 -0.00000000000E+00 -0.27500000000E+03  0.27500000000E+03  0.00000000000E+00 0.  1.
    9000005    2    1    2  501    0 -0.68276917774E+01 -0.30985678037E+02 -0.61154604073E+02  0.46808558622E+03  0.46298758170E+03 0.  0.
         13    1    3    3    0    0 -0.16803625047E+03  0.12125386430E+03  0.59582833824E+02  0.21561260438E+03  0.00000000000E+00 0.  1.
          3    1    3    3  501    0  0.16120855869E+03 -0.15223954234E+03 -0.12073743790E+03  0.25247298184E+03  0.00000000000E+00 0.  1.
         21    1    1    2  502  501  0.68276917774E+01  0.30985678037E+02  0.13867177185E+02  0.34626986896E+02  0.00000000000E+00 0.  1.
<scales pt_clust_4="550.00000" pt_clust_5="550.00000" pt_clust_6="31.72900"></scales>
<mgrwt>
<rscale>  0 0.30000000E+03</rscale>
<asrwt>  1 0.31729003E+02</asrwt>
<pdfrwt beam="1">  1        1 0.82804572E+00 0.30000000E+03</pdfrwt>
<pdfrwt beam="2">0</pdfrwt>
<totfact> 0.62546164E-04</totfact>
</mgrwt>
<clustering>
<clus scale="   31.729">  1  6  2 -1</clus>
<clus scale="  462.988">  4  5 -1 -1</clus>
<clus scale="  300.000">  1  4  2 -1</clus>
</clustering>
</event>
<event>
 6    1  0.9843879E-012  0.3000000E+03  0.7818608E-02  0.1093470E+00
          1   -1    0    0  502    0  0.00000000000E+00  0.00000000000E+00  0.25084254849E+03  0.25084254849E+03  0.00000000000E+00 0.  1.
         13   -1    0    0    0    0 -0.00000000000E+00 -0.00000000000E+00 -0.27500000000E+03  0.27500000000E+03  0.00000000000E+00 0.  1.
    9000005    2    1    2  501    0 -0.17012181976E+02 -0.25346430894E+02 -0.29688183108E+02  0.49481925262E+03  0.49298361905E+03 0.  0.
         13    1    3    3    0    0 -0.77015917427E+02  0.22341705968E+03 -0.34817157158E+02  0.23886998248E+03  0.00000000000E+00 0.  1.
          3    1    3    3  501    0  0.60003735451E+02 -0.24876349058E+03  0.51289740502E+01  0.25594927015E+03  0.00000000000E+00 0.  1.
         21    1    1    2  502  501  0.17012181976E+02  0.25346430894E+02  0.55307315996E+01  0.31023295871E+02  0.00000000000E+00 0. -1.
<scales pt_clust_4="550.00000" pt_clust_5="550.00000" pt_clust_6="30.52631"></scales>
<mgrwt>
<rscale>  0 0.30000000E+03</rscale>
<asrwt>  1 0.30526315E+02</asrwt>
<pdfrwt beam="1">  1        1 0.91215472E+00 0.30000000E+03</pdfrwt>
<pdfrwt beam="2">0</pdfrwt>
<totfact> 0.65206518E-05</totfact>
</mgrwt>
<clustering>
<clus scale="   30.526">  1  6  2 -1</clus>
<clus scale="  492.984">  4  5 -1 -1</clus>
<clus scale="  300.000">  1  4  2 -1</clus>
</clustering>
</event>
<event>
 6    1  0.9843879E-012  0.3000000E+03  0.7818608E-02  0.1093470E+00
          1   -1    0    0  502    0  0.00000000000E+00  0.00000000000E+00  0.25882359265E+03  0.25882359265E+03  0.00000000000E+00 0.  1.
         13   -1    0    0    0    0 -0.00000000000E+00 -0.00000000000E+00 -0.27500000000E+03  0.27500000000E+03  0.00000000000E+00 0.  1.
    9000005    2    1    2  501    0  0.11516532476E+02 -0.41688781719E+02 -0.28594102666E+02  0.48882599051E+03  0.48606855612E+03 0.  0.
         13    1    3    3    0    0  0.95160268509E+02 -0.50997568919E+02 -0.23897749759E+03  0.26223362312E+03  0.00000000000E+00 0.  1.
          3    1    3    3  501    0 -0.83643736033E+02  0.93087872000E+01  0.21038339493E+03  0.22659236739E+03  0.00000000000E+00 0.  1.
         21    1    1    2  502  501 -0.11516532476E+02  0.41688781719E+02  0.12417695314E+02  0.44997602140E+02  0.00000000000E+00 0. -1.
<scales pt_clust_4="550.00000" pt_clust_5="550.00000" pt_clust_6="43.25026"></scales>
<mgrwt>
<rscale>  0 0.30000000E+03</rscale>
<asrwt>  1 0.43250261E+02</asrwt>
<pdfrwt beam="1">  1        1 0.94117670E+00 0.30000000E+03</pdfrwt>
<pdfrwt beam="2">0</pdfrwt>
<totfact> 0.17589963E-05</totfact>
</mgrwt>
<clustering>
<clus scale="   43.250">  1  6  2 -1</clus>
<clus scale="  486.069">  4  5 -1 -1</clus>
<clus scale="  300.000">  1  4  2 -1</clus>
</clustering>
</event>
<event>
 6    1  0.9843879E-012  0.3000000E+03  0.7818608E-02  0.1093470E+00
          1   -1    0    0  502    0  0.00000000000E+00  0.00000000000E+00  0.23626720378E+03  0.23626720378E+03  0.00000000000E+00 0.  1.
         13   -1    0    0    0    0 -0.00000000000E+00 -0.00000000000E+00 -0.27500000000E+03  0.27500000000E+03  0.00000000000E+00 0.  1.
    9000005    2    1    2  501    0  0.26057041294E+02 -0.23626039109E+02 -0.47304694997E+02  0.47506448878E+03  0.47139301565E+03 0.  0.
         13    1    3    3    0    0 -0.67893542940E+02 -0.45754056860E+02  0.19648653132E+03  0.21286127850E+03  0.00000000000E+00 0.  1.
          1    1    3    3  501    0  0.93950584235E+02  0.22128017751E+02 -0.24379122632E+03  0.26220321028E+03  0.00000000000E+00 0.  1.
         21    1    1    2  502  501 -0.26057041294E+02  0.23626039109E+02  0.85718987758E+01  0.36202715003E+02  0.00000000000E+00 0.  1.
<scales pt_clust_4="550.00000" pt_clust_5="550.00000" pt_clust_6="35.17327"></scales>
<mgrwt>
<rscale>  0 0.30000000E+03</rscale>
<asrwt>  1 0.35173273E+02</asrwt>
<pdfrwt beam="1">  1        1 0.85915347E+00 0.30000000E+03</pdfrwt>
<pdfrwt beam="2">0</pdfrwt>
<totfact> 0.32992848E-04</totfact>
</mgrwt>
<clustering>
<clus scale="   35.173">  1  6  2 -1</clus>
<clus scale="  471.393">  4  5 -1 -1</clus>
<clus scale="  300.000">  1  4  2 -1</clus>
</clustering>
</event>
<event>
 6    1  0.9843879E-012  0.3000000E+03  0.7818608E-02  0.1093470E+00
          1   -1    0    0  502    0  0.00000000000E+00  0.00000000000E+00  0.23332131271E+03  0.23332131271E+03  0.00000000000E+00 0.  1.
         13   -1    0    0    0    0 -0.00000000000E+00 -0.00000000000E+00 -0.27500000000E+03  0.27500000000E+03  0.00000000000E+00 0.  1.
    9000005    2    1    2  501    0  0.17775538137E+02  0.34321520966E+02 -0.62412610319E+02  0.46445980200E+03  0.45862145304E+03 0.  0.
         13    1    3    3    0    0 -0.70147965940E+02  0.10957549093E+03 -0.22795720696E+03  0.26247288154E+03  0.00000000000E+00 0.  1.
          3    1    3    3  501    0  0.87923504077E+02 -0.75253969963E+02  0.16554459664E+03  0.20198692047E+03  0.00000000000E+00 0.  1.
         21    1    1    2  502  501 -0.17775538137E+02 -0.34321520966E+02  0.20733923033E+02  0.43861510711E+02  0.00000000000E+00 0. -1.
<scales pt_clust_4="550.00000" pt_clust_5="550.00000" pt_clust_6="38.65148"></scales>
<mgrwt>
<rscale>  0 0.30000000E+03</rscale>
<asrwt>  1 0.38651475E+02</asrwt>
<pdfrwt beam="1">  1        1 0.84844114E+00 0.30000000E+03</pdfrwt>
<pdfrwt beam="2">0</pdfrwt>
<totfact> 0.41312608E-04</totfact>
</mgrwt>
<clustering>
<clus scale="   38.651">  1  6  2 -1</clus>
<clus scale="  458.621">  4  5 -1 -1</clus>
<clus scale="  300.000">  1  4  2 -1</clus>
</clustering>
</event>
<event>
 6    1  0.9843879E-012  0.3000000E+03  0.7818608E-02  0.1093470E+00
          1   -1    0    0  502    0  0.00000000000E+00  0.00000000000E+00  0.24354505412E+03  0.24354505412E+03  0.00000000000E+00 0.  1.
         13   -1    0    0    0    0 -0.00000000000E+00 -0.00000000000E+00 -0.27500000000E+03  0.27500000000E+03  0.00000000000E+00 0.  1.
    9000005    2    1    2  501    0 -0.34996462722E+02  0.20868119834E+02 -0.49030633987E+02  0.47417011028E+03  0.46986493760E+03 0.  0.
         13    1    3    3    0    0 -0.61387151805E+02  0.16935535869E+03 -0.19416955528E+03  0.26486116386E+03  0.00000000000E+00 0.  1.
          3    1    3    3  501    0  0.26390689082E+02 -0.14848723886E+03  0.14513892130E+03  0.20930894642E+03  0.00000000000E+00 0.  1.
         21    1    1    2  502  501  0.34996462722E+02 -0.20868119834E+02  0.17575688109E+02  0.44374943842E+02  0.00000000000E+00 0. -1.
<scales pt_clust_4="550.00000" pt_clust_5="550.00000" pt_clust_6="40.74593"></scales>
<mgrwt>
<rscale>  0 0.30000000E+03</rscale>
<asrwt>  1 0.40745930E+02</asrwt>
<pdfrwt beam="1">  1        1 0.88561838E+00 0.30000000E+03</pdfrwt>
<pdfrwt beam="2">0</pdfrwt>
<totfact> 0.16182024E-04</totfact>
</mgrwt>
<clustering>
<clus scale="   40.746">  1  6  2 -1</clus>
<clus scale="  469.865">  4  5 -1 -1</clus>
<clus scale="  300.000">  1  4  2 -1</clus>
</clustering>
</event>
<event>
 6    1  0.9843879E-012  0.3000000E+03  0.7818608E-02  0.1093470E+00
          1   -1    0    0  502    0  0.00000000000E+00  0.00000000000E+00  0.24225147717E+03  0.24225147717E+03  0.00000000000E+00 0.  1.
         13   -1    0    0    0    0 -0.00000000000E+00 -0.00000000000E+00 -0.27500000000E+03  0.27500000000E+03  0.00000000000E+00 0.  1.
    9000005    2    1    2  501    0  0.28313645075E+02  0.22892005866E+02 -0.47861399630E+02  0.47782933269E+03  0.47403001084E+03 0.  0.
         13    1    3    3    0    0  0.23113685374E+03  0.10813010178E+03 -0.33283641342E+02  0.25734056199E+03  0.00000000000E+00 0.  1.
          3    1    3    3  501    0 -0.20282320866E+03 -0.85238095911E+02 -0.14577758287E+02  0.22048877070E+03  0.00000000000E+00 0.  1.
         21    1    1    2  502  501 -0.28313645075E+02 -0.22892005866E+02  0.15112876800E+02  0.39422144477E+02  0.00000000000E+00 0.  1.
<scales pt_clust_4="550.00000" pt_clust_5="550.00000" pt_clust_6="36.41025"></scales>
<mgrwt>
<rscale>  0 0.30000000E+03</rscale>
<asrwt>  1 0.36410252E+02</asrwt>
<pdfrwt beam="1">  1        1 0.88091446E+00 0.30000000E+03</pdfrwt>
<pdfrwt beam="2">0</pdfrwt>
<totfact> 0.19084108E-04</totfact>
</mgrwt>
<clustering>
<clus scale="   36.410">  1  6  2 -1</clus>
<clus scale="  474.030">  4  5 -1 -1</clus>
<clus scale="  300.000">  1  4  2 -1</clus>
</clustering>
</event>
<event>
 6    1  0.9843879E-012  0.3000000E+03  0.7818608E-02  0.1093470E+00
          1   -1    0    0  502    0  0.00000000000E+00  0.00000000000E+00  0.24727294615E+03  0.24727294615E+03  0.00000000000E+00 0.  1.
         13   -1    0    0    0    0 -0.00000000000E+00 -0.00000000000E+00 -0.27500000000E+03  0.27500000000E+03  0.00000000000E+00 0.  1.
    9000005    2    1    2  501    0 -0.36009225466E+02  0.35952735658E+02 -0.27025919418E+02  0.47138330959E+03  0.46784886525E+03 0.  0.
         13    1    3    3    0    0 -0.52824952115E+02  0.24486295564E+03 -0.64043376238E+02  0.25855346961E+03  0.00000000000E+00 0.  1.
          3    1    3    3  501    0  0.16815726648E+02 -0.20891021998E+03  0.37017456819E+02  0.21282983997E+03  0.00000000000E+00 0.  1.
         21    1    1    2  502  501  0.36009225466E+02 -0.35952735658E+02 -0.70113443149E+00  0.50889636563E+02  0.00000000000E+00 0.  1.
<scales pt_clust_4="550.00000" pt_clust_5="550.00000" pt_clust_6="50.88481"></scales>
<mgrwt>
<rscale>  0 0.30000000E+03</rscale>
<asrwt>  1 0.50884806E+02</asrwt>
<pdfrwt beam="1">  1        1 0.89917435E+00 0.30000000E+03</pdfrwt>
<pdfrwt beam="2">0</pdfrwt>
<totfact> 0.10565364E-04</totfact>
</mgrwt>
<clustering>
<clus scale="   50.885">  1  6  2 -1</clus>
<clus scale="  467.849">  4  5 -1 -1</clus>
<clus scale="  300.000">  1  4  2 -1</clus>
</clustering>
</event>
<event>
 6    1  0.9843879E-012  0.3000000E+03  0.7818608E-02  0.1093470E+00
          1   -1    0    0  502    0  0.00000000000E+00  0.00000000000E+00  0.22600965387E+03  0.22600965387E+03  0.00000000000E+00 0.  1.
         13   -1    0    0    0    0 -0.00000000000E+00 -0.00000000000E+00 -0.27500000000E+03  0.27500000000E+03  0.00000000000E+00 0.  1.
    9000005    2    1    2  501    0  0.18565102931E+02  0.27592406602E+02 -0.35390093998E+02  0.46507957167E+03  0.46253707450E+03 0.  0.
         13    1    3    3    0    0  0.88457692464E+02  0.73357048055E+02  0.19147952404E+03  0.22331687796E+03  0.00000000000E+00 0.  1.
          1    1    3    3  501    0 -0.69892589534E+02 -0.45764641454E+02 -0.22686961804E+03  0.24176269371E+03  0.00000000000E+00 0.  1.
         21    1    1    2  502  501 -0.18565102931E+02 -0.27592406602E+02 -0.13600252129E+02  0.35930082200E+02  0.00000000000E+00 0.  1.
<scales pt_clust_4="550.00000" pt_clust_5="550.00000" pt_clust_6="33.25665"></scales>
<mgrwt>
<rscale>  0 0.30000000E+03</rscale>
<asrwt>  1 0.33256654E+02</asrwt>
<pdfrwt beam="1">  1        1 0.82185329E+00 0.30000000E+03</pdfrwt>
<pdfrwt beam="2">0</pdfrwt>
<totfact> 0.70347134E-04</totfact>
</mgrwt>
<clustering>
<clus scale="   33.257">  1  6  2 -1</clus>
<clus scale="  462.537">  4  5 -1 -1</clus>
<clus scale="  300.000">  1  4  2 -1</clus>
</clustering>
</event>
<event>
 6    1  0.9843879E-012  0.3000000E+03  0.7818608E-02  0.1093470E+00
          1   -1    0    0  502    0  0.00000000000E+00  0.00000000000E+00  0.23887928188E+03  0.23887928188E+03  0.00000000000E+00 0.  1.
         13   -1    0    0    0    0 -0.00000000000E+00 -0.00000000000E+00 -0.27500000000E+03  0.27500000000E+03  0.00000000000E+00 0.  1.
    9000005    2    1    2  501    0 -0.38095324402E+02  0.75204937743E+01 -0.57396916883E+02  0.46960188131E+03  0.46446066495E+03 0.  0.
         13    1    3    3    0    0  0.16918431615E+03 -0.66111940416E+02 -0.14541193960E+03  0.23267735962E+03  0.00000000000E+00 0.  1.
          1    1    3    3  501    0 -0.20727964056E+03  0.73632434190E+02  0.88015022722E+02  0.23692452169E+03  0.00000000000E+00 0.  1.
         21    1    1    2  502  501  0.38095324402E+02 -0.75204937743E+01  0.21276198763E+02  0.44277400575E+02  0.00000000000E+00 0. -1.
<scales pt_clust_4="550.00000" pt_clust_5="550.00000" pt_clust_6="38.83055"></scales>
<mgrwt>
<rscale>  0 0.30000000E+03</rscale>
<asrwt>  1 0.38830549E+02</asrwt>
<pdfrwt beam="1">  1        1 0.86865193E+00 0.30000000E+03</pdfrwt>
<pdfrwt beam="2">0</pdfrwt>
<totfact> 0.25647013E-04</totfact>
</mgrwt>
<clustering>
<clus scale="   38.831">  1  6  2 -1</clus>
<clus scale="  464.461">  4  5 -1 -1</clus>
<clus scale="  300.000">  1  4  2 -1</clus>
</clustering>
</event>
<event>
 6    1  0.9843879E-012  0.3000000E+03  0.7818608E-02  0.1093470E+00
          1   -1    0    0  502    0  0.00000000000E+00  0.00000000000E+00  0.23903699554E+03  0.23903699554E+03  0.00000000000E+00 0.  1.
         13   -1    0    0    0    0 -0.00000000000E+00 -0.00000000000E+00 -0.27500000000E+03  0.27500000000E+03  0.00000000000E+00 0.  1.
    9000005    2    1    2  501    0 -0.30580388308E+02 -0.16547952966E+02 -0.68466284228E+02  0.46644016695E+03  0.46007586588E+03 0.  0.
         13    1    3    3    0    0 -0.87669442900E+02 -0.21401295729E+03 -0.11100333260E+03  0.25653307185E+03  0.00000000000E+00 0.  1.
          1    1    3    3  501    0  0.57089054592E+02  0.19746500432E+03  0.42537048371E+02  0.20990709509E+03  0.00000000000E+00 0.  1.
         21    1    1    2  502  501  0.30580388308E+02  0.16547952966E+02  0.32503279765E+02  0.47596828591E+02  0.00000000000E+00 0.  1.
<scales pt_clust_4="550.00000" pt_clust_5="550.00000" pt_clust_6="34.77060"></scales>
<mgrwt>
<rscale>  0 0.30000000E+03</rscale>
<asrwt>  1 0.34770604E+02</asrwt>
<pdfrwt beam="1">  1        1 0.86922544E+00 0.30000000E+03</pdfrwt>
<pdfrwt beam="2">0</pdfrwt>
<totfact> 0.25824024E-04</totfact>
</mgrwt>
<clustering>
<clus scale="   34.771">  1  6  2 -1</clus>
<clus scale="  460.076">  4  5 -1 -1</clus>
<clus scale="  300.000">  1  4  2 -1</clus>
</clustering>
</event>
<event>
 6    1  0.9843879E-012  0.3000000E+03  0.7818608E-02  0.1093470E+00
          1   -1    0    0  502    0  0.00000000000E+00  0.00000000000E+00  0.23104493095E+03  0.23104493095E+03  0.00000000000E+00 0.  1.
         13   -1    0    0    0    0 -0.00000000000E+00 -0.00000000000E+00 -0.27500000000E+03  0.27500000000E+03  0.00000000000E+00 0.  1.
    9000005    2    1    2  501    0  0.31030496643E+02  0.88436341291E+01 -0.63094555545E+02  0.46852931381E+03  0.46313895687E+03 0.  0.
         13    1    3    3    0    0  0.38945597277E+02 -0.50930175688E+01  0.20056922670E+03  0.20437884694E+03  0.00000000000E+00 0.  1.
          3    1    3    3  501    0 -0.79151006346E+01  0.13936651698E+02 -0.26366378225E+03  0.26415046687E+03  0.00000000000E+00 0.  1.
         21    1    1    2  502  501 -0.31030496643E+02 -0.88436341291E+01  0.19139486496E+02  0.37515617146E+02  0.00000000000E+00 0.  1.
<scales pt_clust_4="550.00000" pt_clust_5="550.00000" pt_clust_6="32.26611"></scales>
<mgrwt>
<rscale>  0 0.30000000E+03</rscale>
<asrwt>  1 0.32266106E+02</asrwt>
<pdfrwt beam="1">  1        1 0.84016339E+00 0.30000000E+03</pdfrwt>
<pdfrwt beam="2">0</pdfrwt>
<totfact> 0.50326045E-04</totfact>
</mgrwt>
<clustering>
<clus scale="   32.266">  1  6  2 -1</clus>
<clus scale="  463.139">  4  5 -1 -1</clus>
<clus scale="  300.000">  1  4  2 -1</clus>
</clustering>
</event>
<event>
 6    1  0.9843879E-012  0.3000000E+03  0.7818608E-02  0.1093470E+00
          1   -1    0    0  502    0  0.00000000000E+00  0.00000000000E+00  0.23214174597E+03  0.23214174597E+03  0.00000000000E+00 0.  1.
         13   -1    0    0    0    0 -0.00000000000E+00 -0.00000000000E+00 -0.27500000000E+03  0.27500000000E+03  0.00000000000E+00 0.  1.
    9000005    2    1    2  501    0 -0.29367536906E+02  0.30343809774E+02 -0.53581494204E+02  0.46357355924E+03  0.45852619259E+03 0.  0.
         13    1    3    3    0    0  0.15075598956E+03 -0.40086293120E+02  0.12533237913E+03  0.20010618317E+03  0.00000000000E+00 0.  1.
          3    1    3    3  501    0 -0.18012352647E+03  0.70430102895E+02 -0.17891387333E+03  0.26346737607E+03  0.00000000000E+00 0.  1.
         21    1    1    2  502  501  0.29367536906E+02 -0.30343809774E+02  0.10723240179E+02  0.43568186736E+02  0.00000000000E+00 0. -1.
<scales pt_clust_4="550.00000" pt_clust_5="550.00000" pt_clust_6="42.22794"></scales>
<mgrwt>
<rscale>  0 0.30000000E+03</rscale>
<asrwt>  1 0.42227941E+02</asrwt>
<pdfrwt beam="1">  1        1 0.84415180E+00 0.30000000E+03</pdfrwt>
<pdfrwt beam="2">0</pdfrwt>
<totfact> 0.44395529E-04</totfact>
</mgrwt>
<clustering>
<clus scale="   42.228">  1  6  2 -1</clus>
<clus scale="  458.526">  4  5 -1 -1</clus>
<clus scale="  300.000">  1  4  2 -1</clus>
</clustering>
</event>
<event>
 6    1  0.9843879E-012  0.3000000E+03  0.7818608E-02  0.1093470E+00
          1   -1    0    0  502    0  0.00000000000E+00  0.00000000000E+00  0.26030074312E+03  0.26030074312E+03  0.00000000000E+00 0.  1.
         13   -1    0    0    0    0 -0.00000000000E+00 -0.00000000000E+00 -0.27500000000E+03  0.27500000000E+03  0.00000000000E+00 0.  1.
    9000005    2    1    2  501    0  0.83263007649E+00 -0.37259052724E+02 -0.13986396807E+02  0.49802557106E+03  0.49643219059E+03 0.  0.
         13    1    3    3    0    0 -0.13423307771E+02  0.17730555261E+03  0.14594226432E+03  0.23003605955E+03  0.00000000000E+00 0.  1.
          3    1    3    3  501    0  0.14255937847E+02 -0.21456460534E+03 -0.15992866113E+03  0.26798951151E+03  0.00000000000E+00 0.  1.
         21    1    1    2  502  501 -0.83263007649E+00  0.37259052724E+02 -0.71286007267E+00  0.37275172062E+02  0.00000000000E+00 0. -1.
<scales pt_clust_4="550.00000" pt_clust_5="550.00000" pt_clust_6="37.26835"></scales>
<mgrwt>
<rscale>  0 0.30000000E+03</rscale>
<asrwt>  1 0.37268355E+02</asrwt>
<pdfrwt beam="1">  1        1 0.94654816E+00 0.30000000E+03</pdfrwt>
<pdfrwt beam="2">0</pdfrwt>
<totfact> 0.14330289E-05</totfact>
</mgrwt>
<clustering>
<clus scale="   37.268">  1  6  2 -1</clus>
<clus scale="  496.432">  4  5 -1 -1</clus>
<clus scale="  300.000">  1  4  2 -1</clus>
</clustering>
</event>
<event>
 6    1  0.9843879E-012  0.3000000E+03  0.7818608E-02  0.1093470E+00
          1   -1    0    0  502    0  0.00000000000E+00  0.00000000000E+00  0.26678594537E+03  0.26678594537E+03  0.00000000000E+00 0.  1.
         13   -1    0    0    0    0 -0.00000000000E+00 -0.00000000000E+00 -0.27500000000E+03  0.27500000000E+03  0.00000000000E+00 0.  1.
    9000005    2    1    2  501    0  0.34359833406E+02 -0.14820635746E+02 -0.81763872482E+01  0.50436602000E+03  0.50290951415E+03 0.  0.
         13    1    3    3    0    0  0.86135210775E+01 -0.22932768421E+03 -0.12228494364E+03  0.26003651077E+03  0.00000000000E+00 0.  1.
          3    1    3    3  501    0  0.25746312329E+02  0.21450704846E+03  0.11410855639E+03  0.24432950923E+03  0.00000000000E+00 0.  1.
         21    1    1    2  502  501 -0.34359833406E+02  0.14820635746E+02 -0.37667383998E-01  0.37419925367E+02  0.00000000000E+00 0.  1.
<scales pt_clust_4="550.00000" pt_clust_5="550.00000" pt_clust_6="37.41991"></scales>
<mgrwt>
<rscale>  0 0.30000000E+03</rscale>
<asrwt>  1 0.37419906E+02</asrwt>
<pdfrwt beam="1">  1        1 0.97013071E+00 0.30000000E+03</pdfrwt>
<pdfrwt beam="2">0</pdfrwt>
<totfact> 0.48701283E-06</totfact>
</mgrwt>
<clustering>
<clus scale="   37.420">  1  6  2 -1</clus>
<clus scale="  502.910">  4  5 -1 -1</clus>
<clus scale="  300.000">  1  4  2 -1</clus>
</clustering>
</event>
<event>
 6    1  0.9843879E-012  0.3000000E+03  0.7818608E-02  0.1093470E+00
          1   -1    0    0  502    0  0.00000000000E+00  0.00000000000E+00  0.23484158375E+03  0.23484158375E+03  0.00000000000E+00 0.  1.
         13   -1    0    0    0    0 -0.00000000000E+00 -0.00000000000E+00 -0.27500000000E+03  0.27500000000E+03  0.00000000000E+00 0.  1.
    9000005    2    1    2  501    0 -0.38733913967E+02 -0.10770242491E+02 -0.36470872236E+02  0.46946941270E+03  0.46632080237E+03 0.  0.
         13    1    3    3    0    0 -0.19515884916E+03  0.13654677442E+03 -0.77974598944E+02  0.25062329518E+03  0.00000000000E+00 0.  1.
          1    1    3    3  501    0  0.15642493519E+03 -0.14731701691E+03  0.41503726708E+02  0.21884611751E+03  0.00000000000E+00 0.  1.
         21    1    1    2  502  501  0.38733913967E+02  0.10770242491E+02 -0.36875440136E+01  0.40372171051E+02  0.00000000000E+00 0. -1.
<scales pt_clust_4="550.00000" pt_clust_5="550.00000" pt_clust_6="40.20343"></scales>
<mgrwt>
<rscale>  0 0.30000000E+03</rscale>
<asrwt>  1 0.40203431E+02</asrwt>
<pdfrwt beam="1">  1        1 0.85396940E+00 0.30000000E+03</pdfrwt>
<pdfrwt beam="2">0</pdfrwt>
<totfact> 0.36349411E-04</totfact>
</mgrwt>
<clustering>
<clus scale="   40.203">  1  6  2 -1</clus>
<clus scale="  466.321">  4  5 -1 -1</clus>
<clus scale="  300.000">  1  4  2 -1</clus>
</clustering>
</event>
<event>
 6    1  0.9843879E-012  0.3000000E+03  0.7818608E-02  0.1093470E+00
          1   -1    0    0  502    0  0.00000000000E+00  0.00000000000E+00  0.23720835324E+03  0.23720835324E+03  0.00000000000E+00 0.  1.
         13   -1    0    0    0    0 -0.00000000000E+00 -0.00000000000E+00 -0.27500000000E+03  0.27500000000E+03  0.00000000000E+00 0.  1.
    9000005    2    1    2  501    0 -0.35742616416E+02 -0.67429699887E+00 -0.18238582956E+02  0.47146143177E+03  0.46975019578E+03 0.  0.
         13    1    3    3    0    0  0.29049470307E+02  0.50469831024E+02 -0.23363869703E+03  0.24078645377E+03  0.00000000000E+00 0.  1.
          1    1    3    3  501    0 -0.64792086723E+02 -0.51144128023E+02  0.21540011407E+03  0.23067497800E+03  0.00000000000E+00 0.  1.
         21    1    1    2  502  501  0.35742616416E+02  0.67429699887E+00 -0.19553063808E+02  0.40746921466E+02  0.00000000000E+00 0. -1.
<scales pt_clust_4="550.00000" pt_clust_5="550.00000" pt_clust_6="35.74899"></scales>
<mgrwt>
<rscale>  0 0.30000000E+03</rscale>
<asrwt>  1 0.35748994E+02</asrwt>
<pdfrwt beam="1">  1        1 0.86257583E+00 0.30000000E+03</pdfrwt>
<pdfrwt beam="2">0</pdfrwt>
<totfact> 0.30226937E-04</totfact>
</mgrwt>
<clustering>
<clus scale="   35.749">  1  6  2 -1</clus>
<clus scale="  469.750">  4  5 -1 -1</clus>
<clus scale="  300.000">  1  4  2 -1</clus>
</clustering>
</event>
<event>
 6    1  0.9843879E-012  0.3000000E+03  0.7818608E-02  0.1093470E+00
          1   -1    0    0  502    0  0.00000000000E+00  0.00000000000E+00  0.23776966409E+03  0.23776966409E+03  0.00000000000E+00 0.  1.
         13   -1    0    0    0    0 -0.00000000000E+00 -0.00000000000E+00 -0.27500000000E+03  0.27500000000E+03  0.00000000000E+00 0.  1.
    9000005    2    1    2  501    0  0.16035465132E+02 -0.26254330578E+02 -0.69412811452E+02  0.46824845849E+03  0.46205200407E+03 0.  0.
         13    1    3    3    0    0 -0.74341154191E+02 -0.19528415338E+03 -0.15316100029E+03  0.25907682215E+03  0.00000000000E+00 0.  1.
          1    1    3    3  501    0  0.90376619323E+02  0.16902982280E+03  0.83748188834E+02  0.20917163634E+03  0.00000000000E+00 0.  1.
         21    1    1    2  502  501 -0.16035465132E+02  0.26254330578E+02  0.32182475538E+02  0.44521205597E+02  0.00000000000E+00 0. -1.
<scales pt_clust_4="550.00000" pt_clust_5="550.00000" pt_clust_6="30.76404"></scales>
<mgrwt>
<rscale>  0 0.30000000E+03</rscale>
<asrwt>  1 0.30764038E+02</asrwt>
<pdfrwt beam="1">  1        1 0.86461696E+00 0.30000000E+03</pdfrwt>
<pdfrwt beam="2">0</pdfrwt>
<totfact> 0.29555949E-04</totfact>
</mgrwt>
<clustering>
<clus scale="   30.764">  1  6  2 -1</clus>
<clus scale="  462.052">  4  5 -1 -1</clus>
<clus scale="  300.000">  1  4  2 -1</clus>
</clustering>
</event>
<event>
 6    1  0.9843879E-012  0.3000000E+03  0.7818608E-02  0.1093470E+00
          1   -1    0    0  502    0  0.00000000000E+00  0.00000000000E+00  0.23046276283E+03  0.23046276283E+03  0.00000000000E+00 0.  1.
         13   -1    0    0    0    0 -0.00000000000E+00 -0.00000000000E+00 -0.27500000000E+03  0.27500000000E+03  0.00000000000E+00 0.  1.
    9000005    2    1    2  501    0 -0.32686190015E+02  0.82046851198E+01 -0.64216499016E+02  0.46643742206E+03  0.46076502262E+03 0.  0.
         13    1    3    3    0    0 -0.15588619968E+03  0.18385785352E+03  0.46857068778E+01  0.24109370253E+03  0.00000000000E+00 0.  1.
          1    1    3    3  501    0  0.12320000966E+03 -0.17565316840E+03 -0.68902205894E+02  0.22534371952E+03  0.00000000000E+00 0.  1.
         21    1    1    2  502  501  0.32686190015E+02 -0.82046851198E+01  0.19679261844E+02  0.39025340772E+02  0.00000000000E+00 0.  1.
<scales pt_clust_4="550.00000" pt_clust_5="550.00000" pt_clust_6="33.70021"></scales>
<mgrwt>
<rscale>  0 0.30000000E+03</rscale>
<asrwt>  1 0.33700206E+02</asrwt>
<pdfrwt beam="1">  1        1 0.83804641E+00 0.30000000E+03</pdfrwt>
<pdfrwt beam="2">0</pdfrwt>
<totfact> 0.51773183E-04</totfact>
</mgrwt>
<clustering>
<clus scale="   33.700">  1  6  2 -1</clus>
<clus scale="  460.765">  4  5 -1 -1</clus>
<clus scale="  300.000">  1  4  2 -1</clus>
</clustering>
</event>
<event>
 6    1  0.9843879E-012  0.3000000E+03  0.7818608E-02  0.1093470E+00
          1   -1    0    0  502    0  0.00000000000E+00  0.00000000000E+00  0.23475346705E+03  0.23475346705E+03  0.00000000000E+00 0.  1.
         13   -1    0    0    0    0 -0.00000000000E+00 -0.00000000000E+00 -0.27500000000E+03  0.27500000000E+03  0.00000000000E+00 0.  1.
    9000005    2    1    2  501    0  0.34816662041E+02 -0.17782317577E+01 -0.61838260591E+02  0.46874658023E+03  0.46334007375E+03 0.  0.
         13    1    3    3    0    0  0.22970453094E+03  0.22233008541E+02  0.58976924531E+02  0.23819478548E+03  0.00000000000E+00 0.  1.
          1    1    3    3  501    0 -0.19488786890E+03 -0.24011240298E+02 -0.12081518512E+03  0.23055179475E+03  0.00000000000E+00 0.  1.
         21    1    1    2  502  501 -0.34816662041E+02  0.17782317577E+01  0.21591727637E+02  0.41006886814E+02  0.00000000000E+00 0. -1.
<scales pt_clust_4="550.00000" pt_clust_5="550.00000" pt_clust_6="34.86204"></scales>
<mgrwt>
<rscale>  0 0.30000000E+03</rscale>
<asrwt>  1 0.34862043E+02</asrwt>
<pdfrwt beam="1">  1        1 0.85364897E+00 0.30000000E+03</pdfrwt>
<pdfrwt beam="2">0</pdfrwt>
<totfact> 0.37587599E-04</totfact>
</mgrwt>
<clustering>
<clus scale="   34.862">  1  6  2 -1</clus>
<clus scale="  463.340">  4  5 -1 -1</clus>
<clus scale="  300.000">  1  4  2 -1</clus>
</clustering>
</event>
<event>
 6    1  0.9843879E-012  0.3000000E+03  0.7818608E-02  0.1093470E+00
          1   -1    0    0  502    0  0.00000000000E+00  0.00000000000E+00  0.24167984195E+03  0.24167984195E+03  0.00000000000E+00 0.  1.
         13   -1    0    0    0    0 -0.00000000000E+00 -0.00000000000E+00 -0.27500000000E+03  0.27500000000E+03  0.00000000000E+00 0.  1.
    9000005    2    1    2  501    0 -0.33731422122E+02 -0.12747155457E+02 -0.41003916707E+02  0.47981062773E+03  0.47669342190E+03 0.  0.
         13    1    3    3    0    0 -0.65015287976E+02 -0.13911030470E+03  0.17175395433E+03  0.23038681684E+03  0.00000000000E+00 0.  1.
          3    1    3    3  501    0  0.31283865853E+02  0.12636314924E+03 -0.21275787104E+03  0.24942381089E+03  0.00000000000E+00 0.  1.
         21    1    1    2  502  501  0.33731422122E+02  0.12747155457E+02  0.76837586601E+01  0.36869214228E+02  0.00000000000E+00 0.  1.
<scales pt_clust_4="550.00000" pt_clust_5="550.00000" pt_clust_6="36.05966"></scales>
<mgrwt>
<rscale>  0 0.30000000E+03</rscale>
<asrwt>  1 0.36059656E+02</asrwt>
<pdfrwt beam="1">  1        1 0.87883579E+00 0.30000000E+03</pdfrwt>
<pdfrwt beam="2">0</pdfrwt>
<totfact> 0.20274508E-04</totfact>
</mgrwt>
<clustering>
<clus scale="   36.060">  1  6  2 -1</clus>
<clus scale="  476.693">  4  5 -1 -1</clus>
<clus scale="  300.000">  1  4  2 -1</clus>
</clustering>
</event>
<event>
 6    1  0.9843879E-012  0.3000000E+03  0.7818608E-02  0.1093470E+00
          1   -1    0    0  502    0  0.00000000000E+00  0.00000000000E+00  0.24873341590E+03  0.24873341590E+03  0.00000000000E+00 0.  1.
         13   -1    0    0    0    0 -0.00000000000E+00 -0.00000000000E+00 -0.27500000000E+03  0.27500000000E+03  0.00000000000E+00 0.  1.
    9000005    2    1    2  501    0 -0.25074498036E+02  0.21963932179E+02 -0.19677000623E+02  0.48975449039E+03  0.48822242035E+03 0.  0.
         13    1    3    3    0    0 -0.62528840456E+02 -0.22584962244E+03 -0.42205718311E+02  0.23811600220E+03  0.00000000000E+00 0.  1.
          3    1    3    3  501    0  0.37454342420E+02  0.24781355462E+03  0.22528717688E+02  0.25163848819E+03  0.00000000000E+00 0.  1.
         21    1    1    2  502  501  0.25074498036E+02 -0.21963932179E+02 -0.65895834783E+01  0.33978925512E+02  0.00000000000E+00 0.  1.
<scales pt_clust_4="550.00000" pt_clust_5="550.00000" pt_clust_6="33.33385"></scales>
<mgrwt>
<rscale>  0 0.30000000E+03</rscale>
<asrwt>  1 0.33333855E+02</asrwt>
<pdfrwt beam="1">  1        1 0.90448515E+00 0.30000000E+03</pdfrwt>
<pdfrwt beam="2">0</pdfrwt>
<totfact> 0.95390305E-05</totfact>
</mgrwt>
<clustering>
<clus scale="   33.334">  1  6  2 -1</clus>
<clus scale="  488.222">  4  5 -1 -1</clus>
<clus scale="  300.000">  1  4  2 -1</clus>
</clustering>
</event>
<event>
 6    1  0.9843879E-012  0.3000000E+03  0.7818608E-02  0.1093470E+00
          1   -1    0    0  502    0  0.00000000000E+00  0.00000000000E+00  0.23933771319E+03  0.23933771319E+03  0.00000000000E+00 0.  1.
         13   -1    0    0    0    0 -0.00000000000E+00 -0.00000000000E+00 -0.27500000000E+03  0.27500000000E+03  0.00000000000E+00 0.  1.
    9000005    2    1    2  501    0  0.13412229377E+02 -0.34285708988E+02 -0.51996177680E+02  0.47406124700E+03  0.46976064722E+03 0.  0.
         13    1    3    3    0    0  0.75523324810E+02  0.17058750697E+03  0.99847550744E+02  0.21159726727E+03  0.00000000000E+00 0.  1.
          1    1    3    3  501    0 -0.62111095433E+02 -0.20487321596E+03 -0.15184372842E+03  0.26246397973E+03  0.00000000000E+00 0.  1.
         21    1    1    2  502  501 -0.13412229377E+02  0.34285708988E+02  0.16333890866E+02  0.40276466187E+02  0.00000000000E+00 0.  1.
<scales pt_clust_4="550.00000" pt_clust_5="550.00000" pt_clust_6="36.81573"></scales>
<mgrwt>
<rscale>  0 0.30000000E+03</rscale>
<asrwt>  1 0.36815727E+02</asrwt>
<pdfrwt beam="1">  1        1 0.87031896E+00 0.30000000E+03</pdfrwt>
<pdfrwt beam="2">0</pdfrwt>
<totfact> 0.24900114E-04</totfact>
</mgrwt>
<clustering>
<clus scale="   36.816">  1  6  2 -1</clus>
<clus scale="  469.761">  4  5 -1 -1</clus>
<clus scale="  300.000">  1  4  2 -1</clus>
</clustering>
</event>
<event>
 6    1  0.9843879E-012  0.3000000E+03  0.7818608E-02  0.1093470E+00
          1   -1    0    0  502    0  0.00000000000E+00  0.00000000000E+00  0.24192932419E+03  0.24192932419E+03  0.00000000000E+00 0.  1.
         13   -1    0    0    0    0 -0.00000000000E+00 -0.00000000000E+00 -0.27500000000E+03  0.27500000000E+03  0.00000000000E+00 0.  1.
    9000005    2    1    2  501    0 -0.38399134468E+02  0.28271722789E+02 -0.50924032905E+02  0.46601246847E+03  0.46076087052E+03 0.  0.
         13    1    3    3    0    0 -0.77019109109E+02  0.23635190870E+03 -0.10730230676E+01  0.24858664343E+03  0.00000000000E+00 0.  1.
          3    1    3    3  501    0  0.38619974641E+02 -0.20808018591E+03 -0.49851009837E+02  0.21742582504E+03  0.00000000000E+00 0.  1.
         21    1    1    2  502  501  0.38399134468E+02 -0.28271722789E+02  0.17853357099E+02  0.50916855726E+02  0.00000000000E+00 0.  1.
<scales pt_clust_4="550.00000" pt_clust_5="550.00000" pt_clust_6="47.68421"></scales>
<mgrwt>
<rscale>  0 0.30000000E+03</rscale>
<asrwt>  1 0.47684210E+02</asrwt>
<pdfrwt beam="1">  1        1 0.87974300E+00 0.30000000E+03</pdfrwt>
<pdfrwt beam="2">0</pdfrwt>
<totfact> 0.18794394E-04</totfact>
</mgrwt>
<clustering>
<clus scale="   47.684">  1  6  2 -1</clus>
<clus scale="  460.761">  4  5 -1 -1</clus>
<clus scale="  300.000">  1  4  2 -1</clus>
</clustering>
</event>
<event>
 6    1  0.9843879E-012  0.3000000E+03  0.7818608E-02  0.1093470E+00
          1   -1    0    0  502    0  0.00000000000E+00  0.00000000000E+00  0.25045914979E+03  0.25045914979E+03  0.00000000000E+00 0.  1.
         13   -1    0    0    0    0 -0.00000000000E+00 -0.00000000000E+00 -0.27500000000E+03  0.27500000000E+03  0.00000000000E+00 0.  1.
    9000005    2    1    2  501    0  0.52173854106E+02 -0.21835959095E+01 -0.25506204878E+02  0.47323069918E+03  0.46964864422E+03 0.  0.
         13    1    3    3    0    0  0.21520365052E+02  0.21795905309E+03  0.71954022132E+02  0.23053558562E+03  0.00000000000E+00 0.  1.
          3    1    3    3  501    0  0.30653489055E+02 -0.22014264900E+03 -0.97460227010E+02  0.24269511356E+03  0.00000000000E+00 0.  1.
         21    1    1    2  502  501 -0.52173854106E+02  0.21835959095E+01  0.96535466552E+00  0.52228450609E+02  0.00000000000E+00 0. -1.
<scales pt_clust_4="550.00000" pt_clust_5="550.00000" pt_clust_6="52.21953"></scales>
<mgrwt>
<rscale>  0 0.30000000E+03</rscale>
<asrwt>  1 0.52219528E+02</asrwt>
<pdfrwt beam="1">  1        1 0.91076054E+00 0.30000000E+03</pdfrwt>
<pdfrwt beam="2">0</pdfrwt>
<totfact> 0.64043746E-05</totfact>
</mgrwt>
<clustering>
<clus scale="   52.220">  1  6  2 -1</clus>
<clus scale="  469.649">  4  5 -1 -1</clus>
<clus scale="  300.000">  1  4  2 -1</clus>
</clustering>
</event>
<event>
 6    1  0.9843879E-012  0.3000000E+03  0.7818608E-02  0.1093470E+00
          1   -1    0    0  502    0  0.00000000000E+00  0.00000000000E+00  0.24332262590E+03  0.24332262590E+03  0.00000000000E+00 0.  1.
         13   -1    0    0    0    0 -0.00000000000E+00 -0.00000000000E+00 -0.27500000000E+03  0.27500000000E+03  0.00000000000E+00 0.  1.
    9000005    2    1    2  501    0  0.36788002377E+02  0.24911184206E+02 -0.34086281672E+02  0.47382850209E+03  0.47050786452E+03 0.  0.
         13    1    3    3    0    0 -0.20739982193E+03  0.68953887380E+02 -0.53270290046E+02  0.22496010429E+03  0.00000000000E+00 0.  1.
          3    1    3    3  501    0  0.24418782431E+03 -0.44042703174E+02  0.19184008375E+02  0.24886839780E+03  0.00000000000E+00 0.  1.
         21    1    1    2  502  501 -0.36788002377E+02 -0.24911184206E+02  0.24089075671E+01  0.44494123805E+02  0.00000000000E+00 0.  1.
<scales pt_clust_4="550.00000" pt_clust_5="550.00000" pt_clust_6="44.42887"></scales>
<mgrwt>
<rscale>  0 0.30000000E+03</rscale>
<asrwt>  1 0.44428867E+02</asrwt>
<pdfrwt beam="1">  1        1 0.88480955E+00 0.30000000E+03</pdfrwt>
<pdfrwt beam="2">0</pdfrwt>
<totfact> 0.16343752E-04</totfact>
</mgrwt>
<clustering>
<clus scale="   44.429">  1  6  2 -1</clus>
<clus scale="  470.508">  4  5 -1 -1</clus>
<clus scale="  300.000">  1  4  2 -1</clus>
</clustering>
</event>
<event>
 6    1  0.9843879E-012  0.3000000E+03  0.7818608E-02  0.1093470E+00
          1   -1    0    0  502    0  0.00000000000E+00  0.00000000000E+00  0.22703028741E+03  0.22703028741E+03  0.00000000000E+00 0.  1.
         13   -1    0    0    0    0 -0.00000000000E+00 -0.00000000000E+00 -0.27500000000E+03  0.27500000000E+03  0.00000000000E+00 0.  1.
    9000005    2    1    2  501    0  0.35814047255E+02  0.14312119117E+02 -0.43279454341E+02  0.46317824426E+03  0.45953617056E+03 0.  0.
         13    1    3    3    0    0 -0.92631648718E+02  0.14238409687E+03  0.12878435896E+03  0.21316487632E+03  0.00000000000E+00 0.  1.
          3    1    3    3  501    0  0.12844569597E+03 -0.12807197775E+03 -0.17206381330E+03  0.25001336793E+03  0.00000000000E+00 0.  1.
         21    1    1    2  502  501 -0.35814047255E+02 -0.14312119117E+02 -0.46902582532E+01  0.38852043149E+02  0.00000000000E+00 0.  1.
<scales pt_clust_4="550.00000" pt_clust_5="550.00000" pt_clust_6="38.56792"></scales>
<mgrwt>
<rscale>  0 0.30000000E+03</rscale>
<asrwt>  1 0.38567917E+02</asrwt>
<pdfrwt beam="1">  1        1 0.82556468E+00 0.30000000E+03</pdfrwt>
<pdfrwt beam="2">0</pdfrwt>
<totfact> 0.63412812E-04</totfact>
</mgrwt>
<clustering>
<clus scale="   38.568">  1  6  2 -1</clus>
<clus scale="  459.536">  4  5 -1 -1</clus>
<clus scale="  300.000">  1  4  2 -1</clus>
</clustering>
</event>
<event>
 6    1  0.9843879E-012  0.3000000E+03  0.7818608E-02  0.1093470E+00
          1   -1    0    0  502    0  0.00000000000E+00  0.00000000000E+00  0.22802541769E+03  0.22802541769E+03  0.00000000000E+00 0.  1.
         13   -1    0    0    0    0 -0.00000000000E+00 -0.00000000000E+00 -0.27500000000E+03  0.27500000000E+03  0.00000000000E+00 0.  1.
    9000005    2    1    2  501    0  0.17531199810E+02  0.28378877238E+02 -0.27188621371E+02  0.46424155648E+03  0.46224268301E+03 0.  0.
         13    1    3    3    0    0  0.15052371534E+03  0.50291551490E+02 -0.19344344069E+03  0.25021389606E+03  0.00000000000E+00 0.  1.
          3    1    3    3  501    0 -0.13299251553E+03 -0.21912674252E+02  0.16625481932E+03  0.21402766043E+03  0.00000000000E+00 0.  1.
         21    1    1    2  502  501 -0.17531199810E+02 -0.28378877238E+02 -0.19785960936E+02  0.38783861208E+02  0.00000000000E+00 0.  1.
<scales pt_clust_4="550.00000" pt_clust_5="550.00000" pt_clust_6="33.35723"></scales>
<mgrwt>
<rscale>  0 0.30000000E+03</rscale>
<asrwt>  1 0.33357229E+02</asrwt>
<pdfrwt beam="1">  1        1 0.82918334E+00 0.30000000E+03</pdfrwt>
<pdfrwt beam="2">0</pdfrwt>
<totfact> 0.60582077E-04</totfact>
</mgrwt>
<clustering>
<clus scale="   33.357">  1  6  2 -1</clus>
<clus scale="  462.243">  4  5 -1 -1</clus>
<clus scale="  300.000">  1  4  2 -1</clus>
</clustering>
</event>
<event>
 6    1  0.9843879E-012  0.3000000E+03  0.7818608E-02  0.1093470E+00
          1   -1    0    0  502    0  0.00000000000E+00  0.00000000000E+00  0.22497342192E+03  0.22497342192E+03  0.00000000000E+00 0.  1.
         13   -1    0    0    0    0 -0.00000000000E+00 -0.00000000000E+00 -0.27500000000E+03  0.27500000000E+03  0.00000000000E+00 0.  1.
    9000005    2    1    2  501    0 -0.12415885527E+02  0.28320396634E+02 -0.64438320248E+02  0.46585748149E+03  0.46034193473E+03 0.  0.
         13    1    3    3    0    0 -0.17998970432E+03 -0.90567272092E+02  0.77771771491E+02  0.21597956588E+03  0.00000000000E+00 0.  1.
          3    1    3    3  501    0  0.16757381879E+03  0.11888766873E+03 -0.14221009174E+03  0.24987791562E+03  0.00000000000E+00 0.  1.
         21    1    1    2  502  501  0.12415885527E+02 -0.28320396634E+02  0.14411742166E+02  0.34115940427E+02  0.00000000000E+00 0.  1.
<scales pt_clust_4="550.00000" pt_clust_5="550.00000" pt_clust_6="30.92247"></scales>
<mgrwt>
<rscale>  0 0.30000000E+03</rscale>
<asrwt>  1 0.30922469E+02</asrwt>
<pdfrwt beam="1">  1        1 0.81808517E+00 0.30000000E+03</pdfrwt>
<pdfrwt beam="2">0</pdfrwt>
<totfact> 0.76879379E-04</totfact>
</mgrwt>
<clustering>
<clus scale="   30.922">  1  6  2 -1</clus>
<clus scale="  460.342">  4  5 -1 -1</clus>
<clus scale="  300.000">  1  4  2 -1</clus>
</clustering>
</event>
<event>
 6    1  0.9843879E-012  0.3000000E+03  0.7818608E-02  0.1093470E+00
          1   -1    0    0  502    0  0.00000000000E+00  0.00000000000E+00  0.24784903227E+03  0.24784903227E+03  0.00000000000E+00 0.  1.
         13   -1    0    0    0    0 -0.00000000000E+00 -0.00000000000E+00 -0.27500000000E+03  0.27500000000E+03  0.00000000000E+00 0.  1.
    9000005    2    1    2  501    0  0.99120573230E+01  0.30626567873E+02 -0.50403728360E+02  0.48313849945E+03  0.47942260927E+03 0.  0.
         13    1    3    3    0    0 -0.76837193553E+02  0.45599110108E+02 -0.24973300411E+03  0.26523537942E+03  0.00000000000E+00 0.  1.
          1    1    3    3  501    0  0.86749250876E+02 -0.14972542236E+02  0.19932927575E+03  0.21790312003E+03  0.00000000000E+00 0.  1.
         21    1    1    2  502  501 -0.99120573230E+01 -0.30626567873E+02  0.23252760632E+02  0.39710532822E+02  0.00000000000E+00 0.  1.
<scales pt_clust_4="550.00000" pt_clust_5="550.00000" pt_clust_6="32.19061"></scales>
<mgrwt>
<rscale>  0 0.30000000E+03</rscale>
<asrwt>  1 0.32190613E+02</asrwt>
<pdfrwt beam="1">  1        1 0.90126921E+00 0.30000000E+03</pdfrwt>
<pdfrwt beam="2">0</pdfrwt>
<totfact> 0.10798324E-04</totfact>
</mgrwt>
<clustering>
<clus scale="   32.191">  1  6  2 -1</clus>
<clus scale="  479.423">  4  5 -1 -1</clus>
<clus scale="  300.000">  1  4  2 -1</clus>
</clustering>
</event>
<event>
 6    1  0.9843879E-012  0.3000000E+03  0.7818608E-02  0.1093470E+00
          1   -1    0    0  502    0  0.00000000000E+00  0.00000000000E+00  0.23431749129E+03  0.23431749129E+03  0.00000000000E+00 0.  1.
         13   -1    0    0    0    0 -0.00000000000E+00 -0.00000000000E+00 -0.27500000000E+03  0.27500000000E+03  0.00000000000E+00 0.  1.
    9000005    2    1    2  501    0  0.21457131894E+02 -0.40219082664E+02 -0.46198277376E+02  0.46340009999E+03  0.45883263694E+03 0.  0.
         13    1    3    3    0    0 -0.21394557504E+02 -0.23067317089E+03 -0.11210126984E+03  0.25736070710E+03  0.00000000000E+00 0.  1.
          1    1    3    3  501    0  0.42851689398E+02  0.19045408823E+03  0.65902992462E+02  0.20603939289E+03  0.00000000000E+00 0.  1.
         21    1    1    2  502  501 -0.21457131894E+02  0.40219082664E+02  0.55157686654E+01  0.45917391296E+02  0.00000000000E+00 0.  1.
<scales pt_clust_4="550.00000" pt_clust_5="550.00000" pt_clust_6="45.58490"></scales>
<mgrwt>
<rscale>  0 0.30000000E+03</rscale>
<asrwt>  1 0.45584900E+02</asrwt>
<pdfrwt beam="1">  1        1 0.85206360E+00 0.30000000E+03</pdfrwt>
<pdfrwt beam="2">0</pdfrwt>
<totfact> 0.37072830E-04</totfact>
</mgrwt>
<clustering>
<clus scale="   45.585">  1  6  2 -1</clus>
<clus scale="  458.833">  4  5 -1 -1</clus>
<clus scale="  300.000">  1  4  2 -1</clus>
</clustering>
</event>
<event>
 6    1  0.9843879E-012  0.3000000E+03  0.7818608E-02  0.1093470E+00
          1   -1    0    0  502    0  0.00000000000E+00  0.00000000000E+00  0.23442811426E+03  0.23442811426E+03  0.00000000000E+00 0.  1.
         13   -1    0    0    0    0 -0.00000000000E+00 -0.00000000000E+00 -0.27500000000E+03  0.27500000000E+03  0.00000000000E+00 0.  1.
    9000005    2    1    2  501    0  0.18195747671E+02 -0.27886339361E+02 -0.58700310452E+02  0.47151541271E+03  0.46666082418E+03 0.  0.
         13    1    3    3    0    0 -0.13602155681E+03 -0.18799575183E+03  0.26274560959E+02  0.23352648496E+03  0.00000000000E+00 0.  1.
          3    1    3    3  501    0  0.15421730448E+03  0.16010941247E+03 -0.84974871411E+02  0.23798892775E+03  0.00000000000E+00 0.  1.
         21    1    1    2  502  501 -0.18195747671E+02  0.27886339361E+02  0.18128424714E+02  0.37912701551E+02  0.00000000000E+00 0. -1.
<scales pt_clust_4="550.00000" pt_clust_5="550.00000" pt_clust_6="33.29764"></scales>
<mgrwt>
<rscale>  0 0.30000000E+03</rscale>
<asrwt>  1 0.33297645E+02</asrwt>
<pdfrwt beam="1">  1        1 0.85246587E+00 0.30000000E+03</pdfrwt>
<pdfrwt beam="2">0</pdfrwt>
<totfact> 0.38923797E-04</totfact>
</mgrwt>
<clustering>
<clus scale="   33.298">  1  6  2 -1</clus>
<clus scale="  466.661">  4  5 -1 -1</clus>
<clus scale="  300.000">  1  4  2 -1</clus>
</clustering>
</event>
<event>
 6    1  0.9843879E-012  0.3000000E+03  0.7818608E-02  0.1093470E+00
          1   -1    0    0  502    0  0.00000000000E+00  0.00000000000E+00  0.24114303484E+03  0.24114303484E+03  0.00000000000E+00 0.  1.
         13   -1    0    0    0    0 -0.00000000000E+00 -0.00000000000E+00 -0.27500000000E+03  0.27500000000E+03  0.00000000000E+00 0.  1.
    9000005    2    1    2  501    0  0.24995927251E+02  0.18758188690E+02 -0.51425406838E+02  0.48029172852E+03  0.47650698420E+03 0.  0.
         13    1    3    3    0    0  0.20198609169E+03  0.12915744481E+03 -0.10977375470E+03  0.26368599508E+03  0.00000000000E+00 0.  1.
          1    1    3    3  501    0 -0.17699016444E+03 -0.11039925612E+03  0.58348347859E+02  0.21660573343E+03  0.00000000000E+00 0.  1.
         21    1    1    2  502  501 -0.24995927251E+02 -0.18758188690E+02  0.17568441679E+02  0.35851306323E+02  0.00000000000E+00 0.  1.
<scales pt_clust_4="550.00000" pt_clust_5="550.00000" pt_clust_6="31.25166"></scales>
<mgrwt>
<rscale>  0 0.30000000E+03</rscale>
<asrwt>  1 0.31251656E+02</asrwt>
<pdfrwt beam="1">  1        1 0.87688376E+00 0.30000000E+03</pdfrwt>
<pdfrwt beam="2">0</pdfrwt>
<totfact> 0.21927230E-04</totfact>
</mgrwt>
<clustering>
<clus scale="   31.252">  1  6  2 -1</clus>
<clus scale="  476.507">  4  5 -1 -1</clus>
<clus scale="  300.000">  1  4  2 -1</clus>
</clustering>
</event>
<event>
 6    1  0.9843879E-012  0.3000000E+03  0.7818608E-02  0.1093470E+00
          1   -1    0    0  502    0  0.00000000000E+00  0.00000000000E+00  0.23282942292E+03  0.23282942292E+03  0.00000000000E+00 0.  1.
         13   -1    0    0    0    0 -0.00000000000E+00 -0.00000000000E+00 -0.27500000000E+03  0.27500000000E+03  0.00000000000E+00 0.  1.
    9000005    2    1    2  501    0 -0.28014568734E+02  0.15880787482E+02 -0.63289460352E+02  0.46931938912E+03  0.46391606756E+03 0.  0.
         13    1    3    3    0    0  0.84505557897E+02  0.21731070162E+03 -0.15371929362E+02  0.23366948146E+03  0.00000000000E+00 0.  1.
          1    1    3    3  501    0 -0.11252012663E+03 -0.20142991414E+03 -0.47917530990E+02  0.23564990766E+03  0.00000000000E+00 0.  1.
         21    1    1    2  502  501  0.28014568734E+02 -0.15880787482E+02  0.21118883269E+02  0.38510033795E+02  0.00000000000E+00 0.  1.
<scales pt_clust_4="550.00000" pt_clust_5="550.00000" pt_clust_6="32.20272"></scales>
<mgrwt>
<rscale>  0 0.30000000E+03</rscale>
<asrwt>  1 0.32202725E+02</asrwt>
<pdfrwt beam="1">  1        1 0.84665245E+00 0.30000000E+03</pdfrwt>
<pdfrwt beam="2">0</pdfrwt>
<totfact> 0.44376321E-04</totfact>
</mgrwt>
<clustering>
<clus scale="   32.203">  1  6  2 -1</clus>
<clus scale="  463.916">  4  5 -1 -1</clus>
<clus scale="  300.000">  1  4  2 -1</clus>
</clustering>
</event>
<event>
 6    1  0.9843879E-012  0.3000000E+03  0.7818608E-02  0.1093470E+00
          1   -1    0    0  502    0  0.00000000000E+00  0.00000000000E+00  0.23211385057E+03  0.23211385057E+03  0.00000000000E+00 0.  1.
         13   -1    0    0    0    0 -0.00000000000E+00 -0.00000000000E+00 -0.27500000000E+03  0.27500000000E+03  0.00000000000E+00 0.  1.
    9000005    2    1    2  501    0 -0.36060631348E+02 -0.19038579665E+02 -0.61950402150E+02  0.46209960415E+03  0.45610892907E+03 0.  0.
         13    1    3    3    0    0 -0.22234288199E+03 -0.80972530442E+02  0.41439666532E+02  0.24022937752E+03  0.00000000000E+00 0.  1.
          3    1    3    3  501    0  0.18628225065E+03  0.61933950778E+02 -0.10339006868E+03  0.22187022663E+03  0.00000000000E+00 0.  1.
         21    1    1    2  502  501  0.36060631348E+02  0.19038579665E+02  0.19064252716E+02  0.45014246417E+02  0.00000000000E+00 0. -1.
<scales pt_clust_4="550.00000" pt_clust_5="550.00000" pt_clust_6="40.77789"></scales>
<mgrwt>
<rscale>  0 0.30000000E+03</rscale>
<asrwt>  1 0.40777894E+02</asrwt>
<pdfrwt beam="1">  1        1 0.84405037E+00 0.30000000E+03</pdfrwt>
<pdfrwt beam="2">0</pdfrwt>
<totfact> 0.44767392E-04</totfact>
</mgrwt>
<clustering>
<clus scale="   40.778">  1  6  2 -1</clus>
<clus scale="  456.109">  4  5 -1 -1</clus>
<clus scale="  300.000">  1  4  2 -1</clus>
</clustering>
</event>
<event>
 6    1  0.9843879E-012  0.3000000E+03  0.7818608E-02  0.1093470E+00
          1   -1    0    0  502    0  0.00000000000E+00  0.00000000000E+00  0.26042905769E+03  0.26042905769E+03  0.00000000000E+00 0.  1.
         13   -1    0    0    0    0 -0.00000000000E+00 -0.00000000000E+00 -0.27500000000E+03  0.27500000000E+03  0.00000000000E+00 0.  1.
    9000005    2    1    2  501    0  0.52265804246E+02  0.18493332631E+02 -0.27358200701E+02  0.47853238272E+03  0.47452191996E+03 0.  0.
         13    1    3    3    0    0  0.16707721307E+03 -0.64084226527E+02 -0.19134771290E+03  0.26198383624E+03  0.00000000000E+00 0.  1.
          3    1    3    3  501    0 -0.11481140882E+03  0.82577559158E+02  0.16398951220E+03  0.21654854648E+03  0.00000000000E+00 0.  1.
         21    1    1    2  502  501 -0.52265804246E+02 -0.18493332631E+02  0.12787258387E+02  0.56896674968E+02  0.00000000000E+00 0. -1.
<scales pt_clust_4="550.00000" pt_clust_5="550.00000" pt_clust_6="55.44112"></scales>
<mgrwt>
<rscale>  0 0.30000000E+03</rscale>
<asrwt>  1 0.55441119E+02</asrwt>
<pdfrwt beam="1">  1        1 0.94701476E+00 0.30000000E+03</pdfrwt>
<pdfrwt beam="2">0</pdfrwt>
<totfact> 0.13066899E-05</totfact>
</mgrwt>
<clustering>
<clus scale="   55.441">  1  6  2 -1</clus>
<clus scale="  474.522">  4  5 -1 -1</clus>
<clus scale="  300.000">  1  4  2 -1</clus>
</clustering>
</event>
<event>
 6    1  0.9843879E-012  0.3000000E+03  0.7818608E-02  0.1093470E+00
          1   -1    0    0  502    0  0.00000000000E+00  0.00000000000E+00  0.22595621923E+03  0.22595621923E+03  0.00000000000E+00 0.  1.
         13   -1    0    0    0    0 -0.00000000000E+00 -0.00000000000E+00 -0.27500000000E+03  0.27500000000E+03  0.00000000000E+00 0.  1.
    9000005    2    1    2  501    0  0.31174372042E+02 -0.24088738035E+02 -0.52287194113E+02  0.46142612307E+03  0.45675815002E+03 0.  0.
         13    1    3    3    0    0 -0.89130603639E+02 -0.18670654988E+03 -0.13043377855E+03  0.24457426451E+03  0.00000000000E+00 0.  1.
          1    1    3    3  501    0  0.12030497568E+03  0.16261781184E+03  0.78146584435E+02  0.21685185856E+03  0.00000000000E+00 0.  1.
         21    1    1    2  502  501 -0.31174372042E+02  0.24088738035E+02  0.32434133412E+01  0.39530096160E+02  0.00000000000E+00 0.  1.
<scales pt_clust_4="550.00000" pt_clust_5="550.00000" pt_clust_6="39.39681"></scales>
<mgrwt>
<rscale>  0 0.30000000E+03</rscale>
<asrwt>  1 0.39396812E+02</asrwt>
<pdfrwt beam="1">  1        1 0.82165898E+00 0.30000000E+03</pdfrwt>
<pdfrwt beam="2">0</pdfrwt>
<totfact> 0.68436132E-04</totfact>
</mgrwt>
<clustering>
<clus scale="   39.397">  1  6  2 -1</clus>
<clus scale="  456.758">  4  5 -1 -1</clus>
<clus scale="  300.000">  1  4  2 -1</clus>
</clustering>
</event>
<event>
 6    1  0.9843879E-012  0.3000000E+03  0.7818608E-02  0.1093470E+00
          1   -1    0    0  502    0  0.00000000000E+00  0.00000000000E+00  0.22292709185E+03  0.22292709185E+03  0.00000000000E+00 0.  1.
         13   -1    0    0    0    0 -0.00000000000E+00 -0.00000000000E+00 -0.27500000000E+03  0.27500000000E+03  0.00000000000E+00 0.  1.
    9000005    2    1    2  501    0  0.18361359280E+02  0.32024460941E+02 -0.53429154792E+02  0.46098734336E+03  0.45639012976E+03 0.  0.
         13    1    3    3    0    0  0.22262561512E+02  0.20629773133E+02 -0.25613348789E+03  0.25792551794E+03  0.00000000000E+00 0.  1.
          3    1    3    3  501    0 -0.39012022323E+01  0.11394687808E+02  0.20270433310E+03  0.20306182543E+03  0.00000000000E+00 0.  1.
         21    1    1    2  502  501 -0.18361359280E+02 -0.32024460941E+02  0.13562466370E+01  0.36939748485E+02  0.00000000000E+00 0.  1.
<scales pt_clust_4="550.00000" pt_clust_5="550.00000" pt_clust_6="36.91484"></scales>
<mgrwt>
<rscale>  0 0.30000000E+03</rscale>
<asrwt>  1 0.36914843E+02</asrwt>
<pdfrwt beam="1">  1        1 0.81064397E+00 0.30000000E+03</pdfrwt>
<pdfrwt beam="2">0</pdfrwt>
<totfact> 0.85359516E-04</totfact>
</mgrwt>
<clustering>
<clus scale="   36.915">  1  6  2 -1</clus>
<clus scale="  456.390">  4  5 -1 -1</clus>
<clus scale="  300.000">  1  4  2 -1</clus>
</clustering>
</event>
<event>
 6    1  0.9843879E-012  0.3000000E+03  0.7818608E-02  0.1093470E+00
          1   -1    0    0  502    0  0.00000000000E+00  0.00000000000E+00  0.23758275786E+03  0.23758275786E+03  0.00000000000E+00 0.  1.
         13   -1    0    0    0    0 -0.00000000000E+00 -0.00000000000E+00 -0.27500000000E+03  0.27500000000E+03  0.00000000000E+00 0.  1.
    9000005    2    1    2  501    0 -0.28363490550E+02  0.35957835354E+02 -0.31743011213E+02  0.46643462229E+03  0.46309414226E+03 0.  0.
         13    1    3    3    0    0  0.17641013560E+03 -0.10369549764E+03 -0.68654998437E+02  0.21583975765E+03  0.00000000000E+00 0.  1.
          3    1    3    3  501    0 -0.20477362615E+03  0.13965333299E+03  0.36911987225E+02  0.25059486464E+03  0.00000000000E+00 0.  1.
         21    1    1    2  502  501  0.28363490550E+02 -0.35957835354E+02 -0.56742309286E+01  0.46148135566E+02  0.00000000000E+00 0.  1.
<scales pt_clust_4="550.00000" pt_clust_5="550.00000" pt_clust_6="45.79799"></scales>
<mgrwt>
<rscale>  0 0.30000000E+03</rscale>
<asrwt>  1 0.45797987E+02</asrwt>
<pdfrwt beam="1">  1        1 0.86393730E+00 0.30000000E+03</pdfrwt>
<pdfrwt beam="2">0</pdfrwt>
<totfact> 0.27929744E-04</totfact>
</mgrwt>
<clustering>
<clus scale="   45.798">  1  6  2 -1</clus>
<clus scale="  463.094">  4  5 -1 -1</clus>
<clus scale="  300.000">  1  4  2 -1</clus>
</clustering>
</event>
<event>
 6    1  0.9843879E-012  0.3000000E+03  0.7818608E-02  0.1093470E+00
          1   -1    0    0  502    0  0.00000000000E+00  0.00000000000E+00  0.23691098851E+03  0.23691098851E+03  0.00000000000E+00 0.  1.
         13   -1    0    0    0    0 -0.00000000000E+00 -0.00000000000E+00 -0.27500000000E+03  0.27500000000E+03  0.00000000000E+00 0.  1.
    9000005    2    1    2  501    0  0.34762663275E+02 -0.33680056388E+00 -0.18524813372E+02  0.47201971076E+03  0.47037313108E+03 0.  0.
         13    1    3    3    0    0  0.22484208494E+03 -0.15861998522E+02 -0.12067641916E+03  0.25567237688E+03  0.00000000000E+00 0.  1.
          1    1    3    3  501    0 -0.19007942167E+03  0.15525197958E+02  0.10215160579E+03  0.21634733388E+03  0.00000000000E+00 0.  1.
         21    1    1    2  502  501 -0.34762663275E+02  0.33680056388E+00 -0.19564198117E+02  0.39891277750E+02  0.00000000000E+00 0. -1.
<scales pt_clust_4="550.00000" pt_clust_5="550.00000" pt_clust_6="34.76431"></scales>
<mgrwt>
<rscale>  0 0.30000000E+03</rscale>
<asrwt>  1 0.34764312E+02</asrwt>
<pdfrwt beam="1">  1        1 0.86149450E+00 0.30000000E+03</pdfrwt>
<pdfrwt beam="2">0</pdfrwt>
<totfact> 0.31213332E-04</totfact>
</mgrwt>
<clustering>
<clus scale="   34.764">  1  6  2 -1</clus>
<clus scale="  470.373">  4  5 -1 -1</clus>
<clus scale="  300.000">  1  4  2 -1</clus>
</clustering>
</event>
<event>
 6    1  0.9843879E-012  0.3000000E+03  0.7818608E-02  0.1093470E+00
          1   -1    0    0  502    0  0.00000000000E+00  0.00000000000E+00  0.24552855959E+03  0.24552855959E+03  0.00000000000E+00 0.  1.
         13   -1    0    0    0    0 -0.00000000000E+00 -0.00000000000E+00 -0.27500000000E+03  0.27500000000E+03  0.00000000000E+00 0.  1.
    9000005    2    1    2  501    0 -0.11117316301E+02 -0.37297485065E+02 -0.35722557101E+02  0.48111062492E+03  0.47820145881E+03 0.  0.
         13    1    3    3    0    0  0.57857335019E+02 -0.23619330417E+03  0.59052977380E+02  0.25024388561E+03  0.00000000000E+00 0.  1.
          1    1    3    3  501    0 -0.68974651320E+02  0.19889581910E+03 -0.94775534481E+02  0.23086673931E+03  0.00000000000E+00 0.  1.
         21    1    1    2  502  501  0.11117316301E+02  0.37297485065E+02  0.62511166928E+01  0.39417934672E+02  0.00000000000E+00 0.  1.
<scales pt_clust_4="550.00000" pt_clust_5="550.00000" pt_clust_6="38.91911"></scales>
<mgrwt>
<rscale>  0 0.30000000E+03</rscale>
<asrwt>  1 0.38919110E+02</asrwt>
<pdfrwt beam="1">  1        1 0.89283113E+00 0.30000000E+03</pdfrwt>
<pdfrwt beam="2">0</pdfrwt>
<totfact> 0.13093828E-04</totfact>
</mgrwt>
<clustering>
<clus scale="   38.919">  1  6  2 -1</clus>
<clus scale="  478.201">  4  5 -1 -1</clus>
<clus scale="  300.000">  1  4  2 -1</clus>
</clustering>
</event>
<event>
 6    1  0.9843879E-012  0.3000000E+03  0.7818608E-02  0.1093470E+00
          1   -1    0    0  502    0  0.00000000000E+00  0.00000000000E+00  0.23987824687E+03  0.23987824687E+03  0.00000000000E+00 0.  1.
         13   -1    0    0    0    0 -0.00000000000E+00 -0.00000000000E+00 -0.27500000000E+03  0.27500000000E+03  0.00000000000E+00 0.  1.
    9000005    2    1    2  501    0 -0.20979532058E+02  0.27125121313E+02 -0.25082085082E+02  0.47914719727E+03  0.47725990056E+03 0.  0.
         13    1    3    3    0    0  0.12050927455E+03 -0.49557259647E+02 -0.20174925425E+03  0.24016904219E+03  0.00000000000E+00 0.  1.
          3    1    3    3  501    0 -0.14148880661E+03  0.76682380960E+02  0.17666716916E+03  0.23897815508E+03  0.00000000000E+00 0.  1.
         21    1    1    2  502  501  0.20979532058E+02 -0.27125121313E+02 -0.10039668043E+02  0.35731049607E+02  0.00000000000E+00 0.  1.
<scales pt_clust_4="550.00000" pt_clust_5="550.00000" pt_clust_6="34.29160"></scales>
<mgrwt>
<rscale>  0 0.30000000E+03</rscale>
<asrwt>  1 0.34291605E+02</asrwt>
<pdfrwt beam="1">  1        1 0.87228453E+00 0.30000000E+03</pdfrwt>
<pdfrwt beam="2">0</pdfrwt>
<totfact> 0.24092510E-04</totfact>
</mgrwt>
<clustering>
<clus scale="   34.292">  1  6  2 -1</clus>
<clus scale="  477.260">  4  5 -1 -1</clus>
<clus scale="  300.000">  1  4  2 -1</clus>
</clustering>
</event>
<event>
 6    1  0.9843879E-012  0.3000000E+03  0.7818608E-02  0.1093470E+00
          1   -1    0    0  502    0  0.00000000000E+00  0.00000000000E+00  0.22674647677E+03  0.22674647677E+03  0.00000000000E+00 0.  1.
         13   -1    0    0    0    0 -0.00000000000E+00 -0.00000000000E+00 -0.27500000000E+03  0.27500000000E+03  0.00000000000E+00 0.  1.
    9000005    2    1    2  501    0  0.35713875024E+02  0.16606114810E+02 -0.37098402635E+02  0.46081139849E+03  0.45762387348E+03 0.  0.
         13    1    3    3    0    0 -0.14316229203E+03  0.18757360077E+02 -0.18078155259E+03  0.23136389125E+03  0.00000000000E+00 0.  1.
          1    1    3    3  501    0  0.17887616706E+03 -0.21512452672E+01  0.14368314996E+03  0.22944750724E+03  0.00000000000E+00 0.  1.
         21    1    1    2  502  501 -0.35713875024E+02 -0.16606114810E+02 -0.11155120595E+02  0.40935078280E+02  0.00000000000E+00 0.  1.
<scales pt_clust_4="550.00000" pt_clust_5="550.00000" pt_clust_6="39.38585"></scales>
<mgrwt>
<rscale>  0 0.30000000E+03</rscale>
<asrwt>  1 0.39385854E+02</asrwt>
<pdfrwt beam="1">  1        1 0.82453264E+00 0.30000000E+03</pdfrwt>
<pdfrwt beam="2">0</pdfrwt>
<totfact> 0.64523068E-04</totfact>
</mgrwt>
<clustering>
<clus scale="   39.386">  1  6  2 -1</clus>
<clus scale="  457.624">  4  5 -1 -1</clus>
<clus scale="  300.000">  1  4  2 -1</clus>
</clustering>
</event>
<event>
 6    1  0.9843879E-012  0.3000000E+03  0.7818608E-02  0.1093470E+00
          1   -1    0    0  502    0  0.00000000000E+00  0.00000000000E+00  0.25300299969E+03  0.25300299969E+03  0.00000000000E+00 0.  1.
         13   -1    0    0    0    0 -0.00000000000E+00 -0.00000000000E+00 -0.27500000000E+03  0.27500000000E+03  0.00000000000E+00 0.  1.
    9000005    2    1    2  501    0  0.13814108737E+01 -0.54273035347E+02 -0.36137411142E+02  0.47190111130E+03  0.46737273744E+03 0.  0.
         13    1    3    3    0    0 -0.99069851318E+02  0.17824631272E+03 -0.71618380410E+02  0.21613832573E+03  0.00000000000E+00 0.  1.
          3    1    3    3  501    0  0.10045126219E+03 -0.23251934807E+03  0.35480969269E+02  0.25576278557E+03  0.00000000000E+00 0.  1.
         21    1    1    2  502  501 -0.13814108737E+01  0.54273035347E+02  0.14140410828E+02  0.56101888384E+02  0.00000000000E+00 0.  1.
<scales pt_clust_4="550.00000" pt_clust_5="550.00000" pt_clust_6="54.29061"></scales>
<mgrwt>
<rscale>  0 0.30000000E+03</rscale>
<asrwt>  1 0.54290613E+02</asrwt>
<pdfrwt beam="1">  1        1 0.92001091E+00 0.30000000E+03</pdfrwt>
<pdfrwt beam="2">0</pdfrwt>
<totfact> 0.38607329E-05</totfact>
</mgrwt>
<clustering>
<clus scale="   54.291">  1  6  2 -1</clus>
<clus scale="  467.373">  4  5 -1 -1</clus>
<clus scale="  300.000">  1  4  2 -1</clus>
</clustering>
</event>
<event>
 6    1  0.9843879E-012  0.3000000E+03  0.7818608E-02  0.1093470E+00
          1   -1    0    0  502    0  0.00000000000E+00  0.00000000000E+00  0.24959458876E+03  0.24959458876E+03  0.00000000000E+00 0.  1.
         13   -1    0    0    0    0 -0.00000000000E+00 -0.00000000000E+00 -0.27500000000E+03  0.27500000000E+03  0.00000000000E+00 0.  1.
    9000005    2    1    2  501    0  0.46919443034E+02 -0.14377635403E+02 -0.30827288754E+02  0.47522306569E+03  0.47167625539E+03 0.  0.
         13    1    3    3    0    0 -0.13077189784E+03  0.10880111380E+03 -0.15134360351E+03  0.22769246354E+03  0.00000000000E+00 0.  1.
          3    1    3    3  501    0  0.17769134088E+03 -0.12317874921E+03  0.12051631475E+03  0.24753060215E+03  0.00000000000E+00 0.  1.
         21    1    1    2  502  501 -0.46919443034E+02  0.14377635403E+02  0.54218775140E+01  0.49371523070E+02  0.00000000000E+00 0.  1.
<scales pt_clust_4="550.00000" pt_clust_5="550.00000" pt_clust_6="49.07291"></scales>
<mgrwt>
<rscale>  0 0.30000000E+03</rscale>
<asrwt>  1 0.49072910E+02</asrwt>
<pdfrwt beam="1">  1        1 0.90761669E+00 0.30000000E+03</pdfrwt>
<pdfrwt beam="2">0</pdfrwt>
<totfact> 0.76816824E-05</totfact>
</mgrwt>
<clustering>
<clus scale="   49.073">  1  6  2 -1</clus>
<clus scale="  471.676">  4  5 -1 -1</clus>
<clus scale="  300.000">  1  4  2 -1</clus>
</clustering>
</event>
<event>
 6    1  0.9843879E-012  0.3000000E+03  0.7818608E-02  0.1093470E+00
          1   -1    0    0  502    0  0.00000000000E+00  0.00000000000E+00  0.24272444403E+03  0.24272444403E+03  0.00000000000E+00 0.  1.
         13   -1    0    0    0    0 -0.00000000000E+00 -0.00000000000E+00 -0.27500000000E+03  0.27500000000E+03  0.00000000000E+00 0.  1.
    9000005    2    1    2  501    0 -0.96295096296E+01 -0.49449831141E+02 -0.50174788100E+02  0.46426047704E+03  0.45878346518E+03 0.  0.
         13    1    3    3    0    0 -0.51217272695E+02  0.99921449310E+02  0.16467018906E+03  0.19930824423E+03  0.00000000000E+00 0.  1.
          3    1    3    3  501    0  0.41587763066E+02 -0.14937128045E+03 -0.21484497716E+03  0.26495223281E+03  0.00000000000E+00 0.  1.
         21    1    1    2  502  501  0.96295096296E+01  0.49449831141E+02  0.17899232131E+02  0.53463966992E+02  0.00000000000E+00 0.  1.
<scales pt_clust_4="550.00000" pt_clust_5="550.00000" pt_clust_6="50.37870"></scales>
<mgrwt>
<rscale>  0 0.30000000E+03</rscale>
<asrwt>  1 0.50378698E+02</asrwt>
<pdfrwt beam="1">  1        1 0.88263434E+00 0.30000000E+03</pdfrwt>
<pdfrwt beam="2">0</pdfrwt>
<totfact> 0.17099215E-04</totfact>
</mgrwt>
<clustering>
<clus scale="   50.379">  1  6  2 -1</clus>
<clus scale="  458.783">  4  5 -1 -1</clus>
<clus scale="  300.000">  1  4  2 -1</clus>
</clustering>
</event>
<event>
 6    1  0.9843879E-012  0.3000000E+03  0.7818608E-02  0.1093470E+00
          1   -1    0    0  502    0  0.00000000000E+00  0.00000000000E+00  0.23446844498E+03  0.23446844498E+03  0.00000000000E+00 0.  1.
         13   -1    0    0    0    0 -0.00000000000E+00 -0.00000000000E+00 -0.27500000000E+03  0.27500000000E+03  0.00000000000E+00 0.  1.
    9000005    2    1    2  501    0 -0.26200997091E+02 -0.21218595556E+02 -0.59684565490E+02  0.47069269411E+03  0.46567439685E+03 0.  0.
         13    1    3    3    0    0 -0.16904093713E+01  0.38838540811E+02 -0.25858053736E+03  0.26148648921E+03  0.00000000000E+00 0.  1.
          1    1    3    3  501    0 -0.24510587720E+02 -0.60057136368E+02  0.19889597187E+03  0.20920620490E+03  0.00000000000E+00 0.  1.
         21    1    1    2  502  501  0.26200997091E+02  0.21218595556E+02  0.19153010474E+02  0.38775750879E+02  0.00000000000E+00 0. -1.
<scales pt_clust_4="550.00000" pt_clust_5="550.00000" pt_clust_6="33.71529"></scales>
<mgrwt>
<rscale>  0 0.30000000E+03</rscale>
<asrwt>  1 0.33715294E+02</asrwt>
<pdfrwt beam="1">  1        1 0.85261253E+00 0.30000000E+03</pdfrwt>
<pdfrwt beam="2">0</pdfrwt>
<totfact> 0.38706523E-04</totfact>
</mgrwt>
<clustering>
<clus scale="   33.715">  1  6  2 -1</clus>
<clus scale="  465.674">  4  5 -1 -1</clus>
<clus scale="  300.000">  1  4  2 -1</clus>
</clustering>
</event>
<event>
 6    1  0.9843879E-012  0.3000000E+03  0.7818608E-02  0.1093470E+00
          1   -1    0    0  502    0  0.00000000000E+00  0.00000000000E+00  0.22626704573E+03  0.22626704573E+03  0.00000000000E+00 0.  1.
         13   -1    0    0    0    0 -0.00000000000E+00 -0.00000000000E+00 -0.27500000000E+03  0.27500000000E+03  0.00000000000E+00 0.  1.
    9000005    2    1    2  501    0 -0.21798055156E+02  0.22071549185E+02 -0.35591605346E+02  0.46757723209E+03  0.46518748597E+03 0.  0.
         13    1    3    3    0    0 -0.85988684163E+01  0.11335842820E+03 -0.22768409661E+03  0.25448795969E+03  0.00000000000E+00 0.  1.
          1    1    3    3  501    0 -0.13199186740E+02 -0.91286879010E+02  0.19209249126E+03  0.21308927239E+03  0.00000000000E+00 0.  1.
         21    1    1    2  502  501  0.21798055156E+02 -0.22071549185E+02 -0.13141348919E+02  0.33689813645E+02  0.00000000000E+00 0.  1.
<scales pt_clust_4="550.00000" pt_clust_5="550.00000" pt_clust_6="31.02111"></scales>
<mgrwt>
<rscale>  0 0.30000000E+03</rscale>
<asrwt>  1 0.31021113E+02</asrwt>
<pdfrwt beam="1">  1        1 0.82278926E+00 0.30000000E+03</pdfrwt>
<pdfrwt beam="2">0</pdfrwt>
<totfact> 0.69932835E-04</totfact>
</mgrwt>
<clustering>
<clus scale="   31.021">  1  6  2 -1</clus>
<clus scale="  465.187">  4  5 -1 -1</clus>
<clus scale="  300.000">  1  4  2 -1</clus>
</clustering>
</event>
<event>
 6    1  0.9843879E-012  0.3000000E+03  0.7818608E-02  0.1093470E+00
          1   -1    0    0  502    0  0.00000000000E+00  0.00000000000E+00  0.22318273904E+03  0.22318273904E+03  0.00000000000E+00 0.  1.
         13   -1    0    0    0    0 -0.00000000000E+00 -0.00000000000E+00 -0.27500000000E+03  0.27500000000E+03  0.00000000000E+00 0.  1.
    9000005    2    1    2  501    0 -0.29469172612E+01  0.31583134036E+02 -0.57829377287E+02  0.46589769266E+03  0.46120520864E+03 0.  0.
         13    1    3    3    0    0 -0.16824624483E+03  0.14793946769E+03 -0.12033464200E+03  0.25430947892E+03  0.00000000000E+00 0.  1.
          1    1    3    3  501    0  0.16529932757E+03 -0.11635633366E+03  0.62505264711E+02  0.21158821374E+03  0.00000000000E+00 0.  1.
         21    1    1    2  502  501  0.29469172612E+01 -0.31583134036E+02  0.60121163238E+01  0.32285046377E+02  0.00000000000E+00 0.  1.
<scales pt_clust_4="550.00000" pt_clust_5="550.00000" pt_clust_6="31.72032"></scales>
<mgrwt>
<rscale>  0 0.30000000E+03</rscale>
<asrwt>  1 0.31720320E+02</asrwt>
<pdfrwt beam="1">  1        1 0.81157360E+00 0.30000000E+03</pdfrwt>
<pdfrwt beam="2">0</pdfrwt>
<totfact> 0.86362383E-04</totfact>
</mgrwt>
<clustering>
<clus scale="   31.720">  1  6  2 -1</clus>
<clus scale="  461.205">  4  5 -1 -1</clus>
<clus scale="  300.000">  1  4  2 -1</clus>
</clustering>
</event>
<event>
 6    1  0.9843879E-012  0.3000000E+03  0.7818608E-02  0.1093470E+00
          1   -1    0    0  502    0  0.00000000000E+00  0.00000000000E+00  0.24614148310E+03  0.24614148310E+03  0.00000000000E+00 0.  1.
         13   -1    0    0    0    0 -0.00000000000E+00 -0.00000000000E+00 -0.27500000000E+03  0.27500000000E+03  0.00000000000E+00 0.  1.
    9000005    2    1    2  501    0  0.12958761379E+02 -0.34009617635E+02 -0.63251184862E+02  0.47106714638E+03  0.46538044698E+03 0.  0.
         13    1    3    3    0    0  0.42298336244E+02 -0.18603627112E+03 -0.19127851891E+03  0.27015942556E+03  0.00000000000E+00 0.  1.
          3    1    3    3  501    0 -0.29339574865E+02  0.15202665349E+03  0.12802733405E+03  0.20090772082E+03  0.00000000000E+00 0.  1.
         21    1    1    2  502  501 -0.12958761379E+02  0.34009617635E+02  0.34392667965E+02  0.50074336720E+02  0.00000000000E+00 0.  1.
<scales pt_clust_4="550.00000" pt_clust_5="550.00000" pt_clust_6="36.39483"></scales>
<mgrwt>
<rscale>  0 0.30000000E+03</rscale>
<asrwt>  1 0.36394829E+02</asrwt>
<pdfrwt beam="1">  1        1 0.89505994E+00 0.30000000E+03</pdfrwt>
<pdfrwt beam="2">0</pdfrwt>
<totfact> 0.12498372E-04</totfact>
</mgrwt>
<clustering>
<clus scale="   36.395">  1  6  2 -1</clus>
<clus scale="  465.380">  4  5 -1 -1</clus>
<clus scale="  300.000">  1  4  2 -1</clus>
</clustering>
</event>
<event>
 6    1  0.9843879E-012  0.3000000E+03  0.7818608E-02  0.1093470E+00
          1   -1    0    0  502    0  0.00000000000E+00  0.00000000000E+00  0.25387656003E+03  0.25387656003E+03  0.00000000000E+00 0.  1.
         13   -1    0    0    0    0 -0.00000000000E+00 -0.00000000000E+00 -0.27500000000E+03  0.27500000000E+03  0.00000000000E+00 0.  1.
    9000005    2    1    2  501    0 -0.19204527163E+02 -0.23770388227E+02 -0.52564609476E+02  0.48503146498E+03  0.48120540171E+03 0.  0.
         13    1    3    3    0    0  0.34859355344E+02  0.21990218230E+03  0.24040779368E+02  0.22394218787E+03  0.00000000000E+00 0.  1.
          3    1    3    3  501    0 -0.54063882507E+02 -0.24367257053E+03 -0.76605388844E+02  0.26108927711E+03  0.00000000000E+00 0.  1.
         21    1    1    2  502  501  0.19204527163E+02  0.23770388227E+02  0.31441169506E+02  0.43845095050E+02  0.00000000000E+00 0.  1.
<scales pt_clust_4="550.00000" pt_clust_5="550.00000" pt_clust_6="30.55888"></scales>
<mgrwt>
<rscale>  0 0.30000000E+03</rscale>
<asrwt>  1 0.30558881E+02</asrwt>
<pdfrwt beam="1">  1        1 0.92318749E+00 0.30000000E+03</pdfrwt>
<pdfrwt beam="2">0</pdfrwt>
<totfact> 0.36690352E-05</totfact>
</mgrwt>
<clustering>
<clus scale="   30.559">  1  6  2 -1</clus>
<clus scale="  481.205">  4  5 -1 -1</clus>
<clus scale="  300.000">  1  4  2 -1</clus>
</clustering>
</event>
<event>
 6    1  0.9843879E-012  0.3000000E+03  0.7818608E-02  0.1093470E+00
          1   -1    0    0  502    0  0.00000000000E+00  0.00000000000E+00  0.23769656635E+03  0.23769656635E+03  0.00000000000E+00 0.  1.
         13   -1    0    0    0    0 -0.00000000000E+00 -0.00000000000E+00 -0.27500000000E+03  0.27500000000E+03  0.00000000000E+00 0.  1.
    9000005    2    1    2  501    0  0.11820182881E+02  0.28057875672E+02 -0.68912875162E+02  0.46880900657E+03  0.46271582982E+03 0.  0.
         13    1    3    3    0    0 -0.92999458611E+02  0.96376524294E+02  0.15956080832E+03  0.20831943090E+03  0.00000000000E+00 0.  1.
          3    1    3    3  501    0  0.10481964149E+03 -0.68318648623E+02 -0.22847368348E+03  0.26048957568E+03  0.00000000000E+00 0.  1.
         21    1    1    2  502  501 -0.11820182881E+02 -0.28057875672E+02  0.31609441508E+02  0.43887559775E+02  0.00000000000E+00 0.  1.
<scales pt_clust_4="550.00000" pt_clust_5="550.00000" pt_clust_6="30.44604"></scales>
<mgrwt>
<rscale>  0 0.30000000E+03</rscale>
<asrwt>  1 0.30446036E+02</asrwt>
<pdfrwt beam="1">  1        1 0.86435115E+00 0.30000000E+03</pdfrwt>
<pdfrwt beam="2">0</pdfrwt>
<totfact> 0.29811185E-04</totfact>
</mgrwt>
<clustering>
<clus scale="   30.446">  1  6  2 -1</clus>
<clus scale="  462.716">  4  5 -1 -1</clus>
<clus scale="  300.000">  1  4  2 -1</clus>
</clustering>
</event>
<event>
 6    1  0.9843879E-012  0.3000000E+03  0.7818608E-02  0.1093470E+00
          1   -1    0    0  502    0  0.00000000000E+00  0.00000000000E+00  0.23584652982E+03  0.23584652982E+03  0.00000000000E+00 0.  1.
         13   -1    0    0    0    0 -0.00000000000E+00 -0.00000000000E+00 -0.27500000000E+03  0.27500000000E+03  0.00000000000E+00 0.  1.
    9000005    2    1    2  501    0  0.18261330955E+02 -0.25899803107E+02 -0.19823994148E+02  0.47372639171E+03  0.47224932763E+03 0.  0.
         13    1    3    3    0    0  0.98948420443E+02  0.15253870483E+03 -0.15239459643E+03  0.23724029885E+03  0.00000000000E+00 0.  1.
          3    1    3    3  501    0 -0.80687089488E+02 -0.17843850794E+03  0.13257060228E+03  0.23648609286E+03  0.00000000000E+00 0.  1.
         21    1    1    2  502  501 -0.18261330955E+02  0.25899803107E+02 -0.19329476034E+02  0.37120138106E+02  0.00000000000E+00 0.  1.
<scales pt_clust_4="550.00000" pt_clust_5="550.00000" pt_clust_6="31.69033"></scales>
<mgrwt>
<rscale>  0 0.30000000E+03</rscale>
<asrwt>  1 0.31690330E+02</asrwt>
<pdfrwt beam="1">  1        1 0.85762374E+00 0.30000000E+03</pdfrwt>
<pdfrwt beam="2">0</pdfrwt>
<totfact> 0.34913934E-04</totfact>
</mgrwt>
<clustering>
<clus scale="   31.690">  1  6  2 -1</clus>
<clus scale="  472.249">  4  5 -1 -1</clus>
<clus scale="  300.000">  1  4  2 -1</clus>
</clustering>
</event>
<event>
 6    1  0.9843879E-012  0.3000000E+03  0.7818608E-02  0.1093470E+00
          1   -1    0    0  502    0  0.00000000000E+00  0.00000000000E+00  0.24408140695E+03  0.24408140695E+03  0.00000000000E+00 0.  1.
         13   -1    0    0    0    0 -0.00000000000E+00 -0.00000000000E+00 -0.27500000000E+03  0.27500000000E+03  0.00000000000E+00 0.  1.
    9000005    2    1    2  501    0  0.36355721553E+02  0.10667072106E+01 -0.56062145974E+02  0.47486518133E+03  0.47013944727E+03 0.  0.
         13    1    3    3    0    0  0.24181845950E+03  0.64865550252E+02 -0.67864068640E+02  0.25940169386E+03  0.00000000000E+00 0.  1.
          3    1    3    3  501    0 -0.20546273795E+03 -0.63798843042E+02  0.11801922666E+02  0.21546348748E+03  0.00000000000E+00 0.  1.
         21    1    1    2  502  501 -0.36355721553E+02 -0.10667072106E+01  0.25143552921E+02  0.44216225612E+02  0.00000000000E+00 0.  1.
<scales pt_clust_4="550.00000" pt_clust_5="550.00000" pt_clust_6="36.37137"></scales>
<mgrwt>
<rscale>  0 0.30000000E+03</rscale>
<asrwt>  1 0.36371367E+02</asrwt>
<pdfrwt beam="1">  1        1 0.88756875E+00 0.30000000E+03</pdfrwt>
<pdfrwt beam="2">0</pdfrwt>
<totfact> 0.15530236E-04</totfact>
</mgrwt>
<clustering>
<clus scale="   36.371">  1  6  2 -1</clus>
<clus scale="  470.139">  4  5 -1 -1</clus>
<clus scale="  300.000">  1  4  2 -1</clus>
</clustering>
</event>
<event>
 6    1  0.9843879E-012  0.3000000E+03  0.7818608E-02  0.1093470E+00
          1   -1    0    0  502    0  0.00000000000E+00  0.00000000000E+00  0.25527407338E+03  0.25527407338E+03  0.00000000000E+00 0.  1.
         13   -1    0    0    0    0 -0.00000000000E+00 -0.00000000000E+00 -0.27500000000E+03  0.27500000000E+03  0.00000000000E+00 0.  1.
    9000005    2    1    2  501    0 -0.31960300057E+02 -0.25986829327E+02 -0.36606481539E+02  0.48575745611E+03  0.48262148274E+03 0.  0.
         13    1    3    3    0    0 -0.88466609113E+02 -0.81956070101E+02 -0.23932698044E+03  0.26799354829E+03  0.00000000000E+00 0.  1.
          3    1    3    3  501    0  0.56506309056E+02  0.55969240774E+02  0.20272049891E+03  0.21776390783E+03  0.00000000000E+00 0.  1.
         21    1    1    2  502  501  0.31960300057E+02  0.25986829327E+02  0.16880554914E+02  0.44516617262E+02  0.00000000000E+00 0. -1.
<scales pt_clust_4="550.00000" pt_clust_5="550.00000" pt_clust_6="41.19194"></scales>
<mgrwt>
<rscale>  0 0.30000000E+03</rscale>
<asrwt>  1 0.41191942E+02</asrwt>
<pdfrwt beam="1">  1        1 0.92826936E+00 0.30000000E+03</pdfrwt>
<pdfrwt beam="2">0</pdfrwt>
<totfact> 0.27327238E-05</totfact>
</mgrwt>
<clustering>
<clus scale="   41.192">  1  6  2 -1</clus>
<clus scale="  482.621">  4  5 -1 -1</clus>
<clus scale="  300.000">  1  4  2 -1</clus>
</clustering>
</event>
<event>
 6    1  0.9843879E-012  0.3000000E+03  0.7818608E-02  0.1093470E+00
          1   -1    0    0  502    0  0.00000000000E+00  0.00000000000E+00  0.22319320478E+03  0.22319320478E+03  0.00000000000E+00 0.  1.
         13   -1    0    0    0    0 -0.00000000000E+00 -0.00000000000E+00 -0.27500000000E+03  0.27500000000E+03  0.00000000000E+00 0.  1.
    9000005    2    1    2  501    0 -0.24781705638E+02 -0.19207342282E+02 -0.57894996542E+02  0.46625386967E+03  0.46158182961E+03 0.  0.
         13    1    3    3    0    0 -0.92572447459E+02  0.14662953547E+03 -0.17961239283E+03  0.24966075053E+03  0.00000000000E+00 0.  1.
          1    1    3    3  501    0  0.67790741821E+02 -0.16583687775E+03  0.12171739629E+03  0.21659311914E+03  0.00000000000E+00 0.  1.
         21    1    1    2  502  501  0.24781705638E+02  0.19207342282E+02  0.60882013216E+01  0.31939335109E+02  0.00000000000E+00 0.  1.
<scales pt_clust_4="550.00000" pt_clust_5="550.00000" pt_clust_6="31.35371"></scales>
<mgrwt>
<rscale>  0 0.30000000E+03</rscale>
<asrwt>  1 0.31353707E+02</asrwt>
<pdfrwt beam="1">  1        1 0.81161165E+00 0.30000000E+03</pdfrwt>
<pdfrwt beam="2">0</pdfrwt>
<totfact> 0.86494386E-04</totfact>
</mgrwt>
<clustering>
<clus scale="   31.354">  1  6  2 -1</clus>
<clus scale="  461.582">  4  5 -1 -1</clus>
<clus scale="  300.000">  1  4  2 -1</clus>
</clustering>
</event>
<event>
 6    1  0.9843879E-012  0.3000000E+03  0.7818608E-02  0.1093470E+00
          1   -1    0    0  502    0  0.00000000000E+00  0.00000000000E+00  0.23685144758E+03  0.23685144758E+03  0.00000000000E+00 0.  1.
         13   -1    0    0    0    0 -0.00000000000E+00 -0.00000000000E+00 -0.27500000000E+03  0.27500000000E+03  0.00000000000E+00 0.  1.
    9000005    2    1    2  501    0  0.10733466695E+00  0.31480223677E+02 -0.41693754694E+02  0.48017204635E+03  0.47732149429E+03 0.  0.
         13    1    3    3    0    0  0.17112896692E+03 -0.47304157468E+02 -0.17513277438E+03  0.24938784111E+03  0.00000000000E+00 0.  1.
          3    1    3    3  501    0 -0.17102163225E+03  0.78784381145E+02  0.13343901969E+03  0.23078420523E+03  0.00000000000E+00 0.  1.
         21    1    1    2  502  501 -0.10733466695E+00 -0.31480223677E+02  0.35452022789E+01  0.31679401236E+02  0.00000000000E+00 0.  1.
<scales pt_clust_4="550.00000" pt_clust_5="550.00000" pt_clust_6="31.48041"></scales>
<mgrwt>
<rscale>  0 0.30000000E+03</rscale>
<asrwt>  1 0.31480407E+02</asrwt>
<pdfrwt beam="1">  1        1 0.86127799E+00 0.30000000E+03</pdfrwt>
<pdfrwt beam="2">0</pdfrwt>
<totfact> 0.31975482E-04</totfact>
</mgrwt>
<clustering>
<clus scale="   31.480">  1  6  2 -1</clus>
<clus scale="  477.321">  4  5 -1 -1</clus>
<clus scale="  300.000">  1  4  2 -1</clus>
</clustering>
</event>
<event>
 6    1  0.9843879E-012  0.3000000E+03  0.7818608E-02  0.1093470E+00
          1   -1    0    0  502    0  0.00000000000E+00  0.00000000000E+00  0.23545348630E+03  0.23545348630E+03  0.00000000000E+00 0.  1.
         13   -1    0    0    0    0 -0.00000000000E+00 -0.00000000000E+00 -0.27500000000E+03  0.27500000000E+03  0.00000000000E+00 0.  1.
    9000005    2    1    2  501    0 -0.31366611267E+02  0.21767528226E+02 -0.63884998210E+02  0.46517599282E+03  0.45918375593E+03 0.  0.
         13    1    3    3    0    0  0.12252707184E+03  0.12955542891E+03  0.10971398796E+03  0.20936726499E+03  0.00000000000E+00 0.  1.
          1    1    3    3  501    0 -0.15389368310E+03 -0.10778790069E+03 -0.17359898617E+03  0.25580872783E+03  0.00000000000E+00 0.  1.
         21    1    1    2  502  501  0.31366611267E+02 -0.21767528226E+02  0.24338484508E+02  0.45277493478E+02  0.00000000000E+00 0.  1.
<scales pt_clust_4="550.00000" pt_clust_5="550.00000" pt_clust_6="38.17970"></scales>
<mgrwt>
<rscale>  0 0.30000000E+03</rscale>
<asrwt>  1 0.38179701E+02</asrwt>
<pdfrwt beam="1">  1        1 0.85619450E+00 0.30000000E+03</pdfrwt>
<pdfrwt beam="2">0</pdfrwt>
<totfact> 0.34874963E-04</totfact>
</mgrwt>
<clustering>
<clus scale="   38.180">  1  6  2 -1</clus>
<clus scale="  459.184">  4  5 -1 -1</clus>
<clus scale="  300.000">  1  4  2 -1</clus>
</clustering>
</event>
<event>
 6    1  0.9843879E-012  0.3000000E+03  0.7818608E-02  0.1093470E+00
          1   -1    0    0  502    0  0.00000000000E+00  0.00000000000E+00  0.23674778832E+03  0.23674778832E+03  0.00000000000E+00 0.  1.
         13   -1    0    0    0    0 -0.00000000000E+00 -0.00000000000E+00 -0.27500000000E+03  0.27500000000E+03  0.00000000000E+00 0.  1.
    9000005    2    1    2  501    0 -0.18807010201E+02  0.42629022377E+02 -0.47923441063E+02  0.46416134215E+03  0.45932358764E+03 0.  0.
         13    1    3    3    0    0 -0.55425734718E+02 -0.93068960644E+02  0.17193667408E+03  0.20321432873E+03  0.00000000000E+00 0.  1.
          3    1    3    3  501    0  0.36618724517E+02  0.13569798302E+03 -0.21986011515E+03  0.26094701342E+03  0.00000000000E+00 0.  1.
         21    1    1    2  502  501  0.18807010201E+02 -0.42629022377E+02  0.96712293805E+01  0.47586446171E+02  0.00000000000E+00 0. -1.
<scales pt_clust_4="550.00000" pt_clust_5="550.00000" pt_clust_6="46.59332"></scales>
<mgrwt>
<rscale>  0 0.30000000E+03</rscale>
<asrwt>  1 0.46593317E+02</asrwt>
<pdfrwt beam="1">  1        1 0.86090105E+00 0.30000000E+03</pdfrwt>
<pdfrwt beam="2">0</pdfrwt>
<totfact> 0.30028645E-04</totfact>
</mgrwt>
<clustering>
<clus scale="   46.593">  1  6  2 -1</clus>
<clus scale="  459.324">  4  5 -1 -1</clus>
<clus scale="  300.000">  1  4  2 -1</clus>
</clustering>
</event>
<event>
 6    1  0.9843879E-012  0.3000000E+03  0.7818608E-02  0.1093470E+00
          1   -1    0    0  502    0  0.00000000000E+00  0.00000000000E+00  0.21909955775E+03  0.21909955775E+03  0.00000000000E+00 0.  1.
         13   -1    0    0    0    0 -0.00000000000E+00 -0.00000000000E+00 -0.27500000000E+03  0.27500000000E+03  0.00000000000E+00 0.  1.
    9000005    2    1    2  501    0 -0.21273445993E+02 -0.21563146915E+02 -0.57811096718E+02  0.46374862020E+03  0.45913302106E+03 0.  0.
         13    1    3    3    0    0 -0.22296179067E+03  0.41328043018E+02  0.41133268835E+02  0.23046022009E+03  0.00000000000E+00 0.  1.
          1    1    3    3  501    0  0.20168834468E+03 -0.62891189933E+02 -0.98944365553E+02  0.23328840011E+03  0.00000000000E+00 0.  1.
         21    1    1    2  502  501  0.21273445993E+02  0.21563146915E+02  0.19106544646E+01  0.30350937544E+02  0.00000000000E+00 0.  1.
<scales pt_clust_4="550.00000" pt_clust_5="550.00000" pt_clust_6="30.29074"></scales>
<mgrwt>
<rscale>  0 0.30000000E+03</rscale>
<asrwt>  1 0.30290738E+02</asrwt>
<pdfrwt beam="1">  1        1 0.79672566E+00 0.30000000E+03</pdfrwt>
<pdfrwt beam="2">0</pdfrwt>
<totfact> 0.11258359E-03</totfact>
</mgrwt>
<clustering>
<clus scale="   30.291">  1  6  2 -1</clus>
<clus scale="  459.133">  4  5 -1 -1</clus>
<clus scale="  300.000">  1  4  2 -1</clus>
</clustering>
</event>
<event>
 6    1  0.9843879E-012  0.3000000E+03  0.7818608E-02  0.1093470E+00
          1   -1    0    0  502    0  0.00000000000E+00  0.00000000000E+00  0.25758023781E+03  0.25758023781E+03  0.00000000000E+00 0.  1.
         13   -1    0    0    0    0 -0.00000000000E+00 -0.00000000000E+00 -0.27500000000E+03  0.27500000000E+03  0.00000000000E+00 0.  1.
    9000005    2    1    2  501    0 -0.32838278332E+02 -0.21416814839E+02 -0.48602035315E+02  0.48248665899E+03  0.47842887223E+03 0.  0.
         13    1    3    3    0    0  0.16855888491E+03  0.27522017091E+02 -0.17108439838E+03  0.24174248794E+03  0.00000000000E+00 0.  1.
          1    1    3    3  501    0 -0.20139716324E+03 -0.48938831929E+02  0.12248236306E+03  0.24074417105E+03  0.00000000000E+00 0.  1.
         21    1    1    2  502  501  0.32838278332E+02  0.21416814839E+02  0.31182273124E+02  0.50093578818E+02  0.00000000000E+00 0. -1.
<scales pt_clust_4="550.00000" pt_clust_5="550.00000" pt_clust_6="39.20501"></scales>
<mgrwt>
<rscale>  0 0.30000000E+03</rscale>
<asrwt>  1 0.39205006E+02</asrwt>
<pdfrwt beam="1">  1        1 0.93665541E+00 0.30000000E+03</pdfrwt>
<pdfrwt beam="2">0</pdfrwt>
<totfact> 0.21039476E-05</totfact>
</mgrwt>
<clustering>
<clus scale="   39.205">  1  6  2 -1</clus>
<clus scale="  478.429">  4  5 -1 -1</clus>
<clus scale="  300.000">  1  4  2 -1</clus>
</clustering>
</event>
<event>
 6    1  0.9843879E-012  0.3000000E+03  0.7818608E-02  0.1093470E+00
          1   -1    0    0  502    0  0.00000000000E+00  0.00000000000E+00  0.22579559340E+03  0.22579559340E+03  0.00000000000E+00 0.  1.
         13   -1    0    0    0    0 -0.00000000000E+00 -0.00000000000E+00 -0.27500000000E+03  0.27500000000E+03  0.00000000000E+00 0.  1.
    9000005    2    1    2  501    0  0.29825828932E+02  0.10710494781E+02 -0.69620893583E+02  0.46309774584E+03  0.45673642137E+03 0.  0.
         13    1    3    3    0    0 -0.17630384646E+03  0.11005577177E+03 -0.10282588655E+03  0.23188031853E+03  0.00000000000E+00 0.  1.
          3    1    3    3  501    0  0.20612967539E+03 -0.99345276985E+02  0.33204992969E+02  0.23121742731E+03  0.00000000000E+00 0.  1.
         21    1    1    2  502  501 -0.29825828932E+02 -0.10710494781E+02  0.20416486985E+02  0.37697847561E+02  0.00000000000E+00 0.  1.
<scales pt_clust_4="550.00000" pt_clust_5="550.00000" pt_clust_6="31.69061"></scales>
<mgrwt>
<rscale>  0 0.30000000E+03</rscale>
<asrwt>  1 0.31690610E+02</asrwt>
<pdfrwt beam="1">  1        1 0.82107489E+00 0.30000000E+03</pdfrwt>
<pdfrwt beam="2">0</pdfrwt>
<totfact> 0.72124180E-04</totfact>
</mgrwt>
<clustering>
<clus scale="   31.691">  1  6  2 -1</clus>
<clus scale="  456.736">  4  5 -1 -1</clus>
<clus scale="  300.000">  1  4  2 -1</clus>
</clustering>
</event>
<event>
 6    1  0.9843879E-012  0.3000000E+03  0.7818608E-02  0.1093470E+00
          1   -1    0    0  502    0  0.00000000000E+00  0.00000000000E+00  0.23104461293E+03  0.23104461293E+03  0.00000000000E+00 0.  1.
         13   -1    0    0    0    0 -0.00000000000E+00 -0.00000000000E+00 -0.27500000000E+03  0.27500000000E+03  0.00000000000E+00 0.  1.
    9000005    2    1    2  501    0 -0.81756845905E+01  0.39423456954E+02 -0.51587303930E+02  0.46506538732E+03  0.46043839304E+03 0.  0.
         13    1    3    3    0    0  0.11344818778E+03 -0.44323305559E+02  0.16367552590E+03  0.20402138247E+03  0.00000000000E+00 0.  1.
          1    1    3    3  501    0 -0.12162387237E+03  0.83746762514E+02 -0.21526282983E+03  0.26104400485E+03  0.00000000000E+00 0.  1.
         21    1    1    2  502  501  0.81756845905E+01 -0.39423456954E+02  0.76319168645E+01  0.40979225612E+02  0.00000000000E+00 0. -1.
<scales pt_clust_4="550.00000" pt_clust_5="550.00000" pt_clust_6="40.26227"></scales>
<mgrwt>
<rscale>  0 0.30000000E+03</rscale>
<asrwt>  1 0.40262275E+02</asrwt>
<pdfrwt beam="1">  1        1 0.84016223E+00 0.30000000E+03</pdfrwt>
<pdfrwt beam="2">0</pdfrwt>
<totfact> 0.48296301E-04</totfact>
</mgrwt>
<clustering>
<clus scale="   40.262">  1  6  2 -1</clus>
<clus scale="  460.438">  4  5 -1 -1</clus>
<clus scale="  300.000">  1  4  2 -1</clus>
</clustering>
</event>
<event>
 6    1  0.9843879E-012  0.3000000E+03  0.7818608E-02  0.1093470E+00
          1   -1    0    0  502    0  0.00000000000E+00  0.00000000000E+00  0.22363496210E+03  0.22363496210E+03  0.00000000000E+00 0.  1.
         13   -1    0    0    0    0 -0.00000000000E+00 -0.00000000000E+00 -0.27500000000E+03  0.27500000000E+03  0.00000000000E+00 0.  1.
    9000005    2    1    2  501    0  0.30455998873E+02 -0.93525302381E+01 -0.48018463643E+02  0.46660002417E+03  0.46302783071E+03 0.  0.
         13    1    3    3    0    0  0.15722627976E+03  0.15887043760E+03  0.57804938409E+02  0.23087080780E+03  0.00000000000E+00 0.  1.
          3    1    3    3  501    0 -0.12677028089E+03 -0.16822296784E+03 -0.10582340205E+03  0.23572921636E+03  0.00000000000E+00 0.  1.
         21    1    1    2  502  501 -0.30455998873E+02  0.93525302381E+01 -0.33465742573E+01  0.32034937934E+02  0.00000000000E+00 0.  1.
<scales pt_clust_4="550.00000" pt_clust_5="550.00000" pt_clust_6="31.85967"></scales>
<mgrwt>
<rscale>  0 0.30000000E+03</rscale>
<asrwt>  1 0.31859672E+02</asrwt>
<pdfrwt beam="1">  1        1 0.81321804E+00 0.30000000E+03</pdfrwt>
<pdfrwt beam="2">0</pdfrwt>
<totfact> 0.83740819E-04</totfact>
</mgrwt>
<clustering>
<clus scale="   31.860">  1  6  2 -1</clus>
<clus scale="  463.028">  4  5 -1 -1</clus>
<clus scale="  300.000">  1  4  2 -1</clus>
</clustering>
</event>
<event>
 6    1  0.9843879E-012  0.3000000E+03  0.7818608E-02  0.1093470E+00
          1   -1    0    0  502    0  0.00000000000E+00  0.00000000000E+00  0.23340618366E+03  0.23340618366E+03  0.00000000000E+00 0.  1.
         13   -1    0    0    0    0 -0.00000000000E+00 -0.00000000000E+00 -0.27500000000E+03  0.27500000000E+03  0.00000000000E+00 0.  1.
    9000005    2    1    2  501    0  0.11975371794E+02  0.39892577971E+02 -0.44378062653E+02  0.46666197048E+03  0.46267607993E+03 0.  0.
         13    1    3    3    0    0  0.13198096775E+03 -0.16032737590E+03 -0.94111768271E+02  0.22799313200E+03  0.00000000000E+00 0.  1.
          3    1    3    3  501    0 -0.12000559596E+03  0.20021995387E+03  0.49733705618E+02  0.23866883848E+03  0.00000000000E+00 0.  1.
         21    1    1    2  502  501 -0.11975371794E+02 -0.39892577971E+02  0.27842463121E+01  0.41744213183E+02  0.00000000000E+00 0. -1.
<scales pt_clust_4="550.00000" pt_clust_5="550.00000" pt_clust_6="41.65126"></scales>
<mgrwt>
<rscale>  0 0.30000000E+03</rscale>
<asrwt>  1 0.41651258E+02</asrwt>
<pdfrwt beam="1">  1        1 0.84874976E+00 0.30000000E+03</pdfrwt>
<pdfrwt beam="2">0</pdfrwt>
<totfact> 0.40487139E-04</totfact>
</mgrwt>
<clustering>
<clus scale="   41.651">  1  6  2 -1</clus>
<clus scale="  462.676">  4  5 -1 -1</clus>
<clus scale="  300.000">  1  4  2 -1</clus>
</clustering>
</event>
<event>
 6    1  0.9843879E-012  0.3000000E+03  0.7818608E-02  0.1093470E+00
          1   -1    0    0  502    0  0.00000000000E+00  0.00000000000E+00  0.23127189997E+03  0.23127189997E+03  0.00000000000E+00 0.  1.
         13   -1    0    0    0    0 -0.00000000000E+00 -0.00000000000E+00 -0.27500000000E+03  0.27500000000E+03  0.00000000000E+00 0.  1.
    9000005    2    1    2  501    0  0.39423180676E+02 -0.15260773484E+02 -0.49084306956E+02  0.46366007844E+03  0.45911253606E+03 0.  0.
         13    1    3    3    0    0  0.51299907128E+02 -0.81028386360E+02 -0.24156582274E+03  0.25990638042E+03  0.00000000000E+00 0.  1.
          3    1    3    3  501    0 -0.11876726452E+02  0.65767612875E+02  0.19248151579E+03  0.20375369801E+03  0.00000000000E+00 0.  1.
         21    1    1    2  502  501 -0.39423180676E+02  0.15260773484E+02  0.53562069305E+01  0.42611821536E+02  0.00000000000E+00 0.  1.
<scales pt_clust_4="550.00000" pt_clust_5="550.00000" pt_clust_6="42.27385"></scales>
<mgrwt>
<rscale>  0 0.30000000E+03</rscale>
<asrwt>  1 0.42273850E+02</asrwt>
<pdfrwt beam="1">  1        1 0.84098873E+00 0.30000000E+03</pdfrwt>
<pdfrwt beam="2">0</pdfrwt>
<totfact> 0.47163808E-04</totfact>
</mgrwt>
<clustering>
<clus scale="   42.274">  1  6  2 -1</clus>
<clus scale="  459.113">  4  5 -1 -1</clus>
<clus scale="  300.000">  1  4  2 -1</clus>
</clustering>
</event>
<event>
 6    1  0.9843879E-012  0.3000000E+03  0.7818608E-02  0.1093470E+00
          1   -1    0    0  502    0  0.00000000000E+00  0.00000000000E+00  0.24018298119E+03  0.24018298119E+03  0.00000000000E+00 0.  1.
         13   -1    0    0    0    0 -0.00000000000E+00 -0.00000000000E+00 -0.27500000000E+03  0.27500000000E+03  0.00000000000E+00 0.  1.
    9000005    2    1    2  501    0 -0.44181317131E+01 -0.33755814713E+02 -0.69620885594E+02  0.46649741805E+03  0.46001499804E+03 0.  0.
         13    1    3    3    0    0  0.51386798790E+02 -0.86426537341E+02 -0.25054736377E+03  0.26997061125E+03  0.00000000000E+00 0.  1.
          3    1    3    3  501    0 -0.55804930503E+02  0.52670722627E+02  0.18092647817E+03  0.19652680681E+03  0.00000000000E+00 0.  1.
         21    1    1    2  502  501  0.44181317131E+01  0.33755814713E+02  0.34803866785E+02  0.48685563138E+02  0.00000000000E+00 0. -1.
<scales pt_clust_4="550.00000" pt_clust_5="550.00000" pt_clust_6="34.04372"></scales>
<mgrwt>
<rscale>  0 0.30000000E+03</rscale>
<asrwt>  1 0.34043721E+02</asrwt>
<pdfrwt beam="1">  1        1 0.87339266E+00 0.30000000E+03</pdfrwt>
<pdfrwt beam="2">0</pdfrwt>
<totfact> 0.23500854E-04</totfact>
</mgrwt>
<clustering>
<clus scale="   34.044">  1  6  2 -1</clus>
<clus scale="  460.015">  4  5 -1 -1</clus>
<clus scale="  300.000">  1  4  2 -1</clus>
</clustering>
</event>
<event>
 6    1  0.9843879E-012  0.3000000E+03  0.7818608E-02  0.1093470E+00
          1   -1    0    0  502    0  0.00000000000E+00  0.00000000000E+00  0.23223055277E+03  0.23223055277E+03  0.00000000000E+00 0.  1.
         13   -1    0    0    0    0 -0.00000000000E+00 -0.00000000000E+00 -0.27500000000E+03  0.27500000000E+03  0.00000000000E+00 0.  1.
    9000005    2    1    2  501    0  0.18556604947E+02  0.23878664917E+02 -0.57476377939E+02  0.47360270663E+03  0.46912839551E+03 0.  0.
         13    1    3    3    0    0  0.10992481223E+03 -0.62208346072E+02  0.17119071552E+03  0.21274304629E+03  0.00000000000E+00 0.  1.
          1    1    3    3  501    0 -0.91368207279E+02  0.86087010989E+02 -0.22866709346E+03  0.26085966034E+03  0.00000000000E+00 0.  1.
         21    1    1    2  502  501 -0.18556604947E+02 -0.23878664917E+02  0.14706930710E+02  0.33627846144E+02  0.00000000000E+00 0.  1.
<scales pt_clust_4="550.00000" pt_clust_5="550.00000" pt_clust_6="30.24133"></scales>
<mgrwt>
<rscale>  0 0.30000000E+03</rscale>
<asrwt>  1 0.30241333E+02</asrwt>
<pdfrwt beam="1">  1        1 0.84447474E+00 0.30000000E+03</pdfrwt>
<pdfrwt beam="2">0</pdfrwt>
<totfact> 0.46943348E-04</totfact>
</mgrwt>
<clustering>
<clus scale="   30.241">  1  6  2 -1</clus>
<clus scale="  469.128">  4  5 -1 -1</clus>
<clus scale="  300.000">  1  4  2 -1</clus>
</clustering>
</event>
<event>
 6    1  0.9843879E-012  0.3000000E+03  0.7818608E-02  0.1093470E+00
          1   -1    0    0  502    0  0.00000000000E+00  0.00000000000E+00  0.25336440250E+03  0.25336440250E+03  0.00000000000E+00 0.  1.
         13   -1    0    0    0    0 -0.00000000000E+00 -0.00000000000E+00 -0.27500000000E+03  0.27500000000E+03  0.00000000000E+00 0.  1.
    9000005    2    1    2  501    0  0.30798048868E+02 -0.17020825444E+02 -0.62349850725E+02  0.47455103308E+03  0.46911933535E+03 0.  0.
         13    1    3    3    0    0 -0.70309482409E+02 -0.12680731410E+03  0.15412715948E+03  0.21160978124E+03  0.00000000000E+00 0.  1.
          3    1    3    3  501    0  0.10110753128E+03  0.10978648866E+03 -0.21647701021E+03  0.26294125184E+03  0.00000000000E+00 0.  1.
         21    1    1    2  502  501 -0.30798048868E+02  0.17020825444E+02  0.40714253224E+02  0.53813369421E+02  0.00000000000E+00 0. -1.
<scales pt_clust_4="550.00000" pt_clust_5="550.00000" pt_clust_6="35.18847"></scales>
<mgrwt>
<rscale>  0 0.30000000E+03</rscale>
<asrwt>  1 0.35188468E+02</asrwt>
<pdfrwt beam="1">  1        1 0.92132510E+00 0.30000000E+03</pdfrwt>
<pdfrwt beam="2">0</pdfrwt>
<totfact> 0.39105322E-05</totfact>
</mgrwt>
<clustering>
<clus scale="   35.188">  1  6  2 -1</clus>
<clus scale="  469.119">  4  5 -1 -1</clus>
<clus scale="  300.000">  1  4  2 -1</clus>
</clustering>
</event>
<event>
 6    1  0.9843879E-012  0.3000000E+03  0.7818608E-02  0.1093470E+00
          1   -1    0    0  502    0  0.00000000000E+00  0.00000000000E+00  0.24562499409E+03  0.24562499409E+03  0.00000000000E+00 0.  1.
         13   -1    0    0    0    0 -0.00000000000E+00 -0.00000000000E+00 -0.27500000000E+03  0.27500000000E+03  0.00000000000E+00 0.  1.
    9000005    2    1    2  501    0  0.25793237435E+02  0.19733063849E+02 -0.60841711226E+02  0.47540510411E+03  0.47037603498E+03 0.  0.
         13    1    3    3    0    0 -0.22023636085E+03 -0.66519080888E+01 -0.58431783345E+02  0.22795301232E+03  0.00000000000E+00 0.  1.
          3    1    3    3  501    0  0.24602959829E+03  0.26384971938E+02 -0.24099278813E+01  0.24745209179E+03  0.00000000000E+00 0.  1.
         21    1    1    2  502  501 -0.25793237435E+02 -0.19733063849E+02  0.31466705320E+02  0.45219889982E+02  0.00000000000E+00 0. -1.
<scales pt_clust_4="550.00000" pt_clust_5="550.00000" pt_clust_6="32.47591"></scales>
<mgrwt>
<rscale>  0 0.30000000E+03</rscale>
<asrwt>  1 0.32475913E+02</asrwt>
<pdfrwt beam="1">  1        1 0.89318180E+00 0.30000000E+03</pdfrwt>
<pdfrwt beam="2">0</pdfrwt>
<totfact> 0.13415108E-04</totfact>
</mgrwt>
<clustering>
<clus scale="   32.476">  1  6  2 -1</clus>
<clus scale="  470.376">  4  5 -1 -1</clus>
<clus scale="  300.000">  1  4  2 -1</clus>
</clustering>
</event>
<event>
 6    1  0.9843879E-012  0.3000000E+03  0.7818608E-02  0.1093470E+00
          1   -1    0    0  502    0  0.00000000000E+00  0.00000000000E+00  0.25720703211E+03  0.25720703211E+03  0.00000000000E+00 0.  1.
         13   -1    0    0    0    0 -0.00000000000E+00 -0.00000000000E+00 -0.27500000000E+03  0.27500000000E+03  0.00000000000E+00 0.  1.
    9000005    2    1    2  501    0  0.60933615666E+02  0.14445790303E+02 -0.33663054898E+02  0.46760481824E+03  0.46216823603E+03 0.  0.
         13    1    3    3    0    0  0.22954228206E+03 -0.91568903437E+02  0.49034617091E+02  0.25195022723E+03  0.00000000000E+00 0.  1.
          1    1    3    3  501    0 -0.16860866639E+03  0.10601469374E+03 -0.82697671988E+02  0.21565459101E+03  0.00000000000E+00 0.  1.
         21    1    1    2  502  501 -0.60933615666E+02 -0.14445790303E+02  0.15870087009E+02  0.64602213873E+02  0.00000000000E+00 0.  1.
<scales pt_clust_4="550.00000" pt_clust_5="550.00000" pt_clust_6="62.62257"></scales>
<mgrwt>
<rscale>  0 0.30000000E+03</rscale>
<asrwt>  1 0.62622571E+02</asrwt>
<pdfrwt beam="1">  1        1 0.93529830E+00 0.30000000E+03</pdfrwt>
<pdfrwt beam="2">0</pdfrwt>
<totfact> 0.20145625E-05</totfact>
</mgrwt>
<clustering>
<clus scale="   62.623">  1  6  2 -1</clus>
<clus scale="  462.168">  4  5 -1 -1</clus>
<clus scale="  300.000">  1  4  2 -1</clus>
</clustering>
</event>
<event>
 6    1  0.9843879E-012  0.3000000E+03  0.7818608E-02  0.1093470E+00
          1   -1    0    0  502    0  0.00000000000E+00  0.00000000000E+00  0.23179200173E+03  0.23179200173E+03  0.00000000000E+00 0.  1.
         13   -1    0    0    0    0 -0.00000000000E+00 -0.00000000000E+00 -0.27500000000E+03  0.27500000000E+03  0.00000000000E+00 0.  1.
    9000005    2    1    2  501    0 -0.47768926650E+01 -0.31639639816E+02 -0.51784991668E+02  0.47366421389E+03  0.46973632673E+03 0.  0.
         13    1    3    3    0    0  0.11445549461E+03  0.68868530627E+02 -0.21168827578E+03  0.25030953010E+03  0.00000000000E+00 0.  1.
          3    1    3    3  501    0 -0.11923238728E+03 -0.10050817044E+03  0.15990328411E+03  0.22335468379E+03  0.00000000000E+00 0.  1.
         21    1    1    2  502  501  0.47768926650E+01  0.31639639816E+02  0.85769933939E+01  0.33127787835E+02  0.00000000000E+00 0. -1.
<scales pt_clust_4="550.00000" pt_clust_5="550.00000" pt_clust_6="31.99821"></scales>
<mgrwt>
<rscale>  0 0.30000000E+03</rscale>
<asrwt>  1 0.31998211E+02</asrwt>
<pdfrwt beam="1">  1        1 0.84288001E+00 0.30000000E+03</pdfrwt>
<pdfrwt beam="2">0</pdfrwt>
<totfact> 0.47917446E-04</totfact>
</mgrwt>
<clustering>
<clus scale="   31.998">  1  6  2 -1</clus>
<clus scale="  469.736">  4  5 -1 -1</clus>
<clus scale="  300.000">  1  4  2 -1</clus>
</clustering>
</event>
<event>
 6    1  0.9843879E-012  0.3000000E+03  0.7818608E-02  0.1093470E+00
          1   -1    0    0  502    0  0.00000000000E+00  0.00000000000E+00  0.23713328913E+03  0.23713328913E+03  0.00000000000E+00 0.  1.
         13   -1    0    0    0    0 -0.00000000000E+00 -0.00000000000E+00 -0.27500000000E+03  0.27500000000E+03  0.00000000000E+00 0.  1.
    9000005    2    1    2  501    0 -0.28719872688E+02 -0.17164869067E+02 -0.30948944043E+02  0.47796723412E+03  0.47578921377E+03 0.  0.
         13    1    3    3    0    0  0.12232916179E+03 -0.19706781572E+03  0.33561591395E+02  0.23436409331E+03  0.00000000000E+00 0.  1.
          1    1    3    3  501    0 -0.15104903447E+03  0.17990294665E+03 -0.64510535438E+02  0.24360314081E+03  0.00000000000E+00 0.  1.
         21    1    1    2  502  501  0.28719872688E+02  0.17164869067E+02 -0.69177668240E+01  0.34166055013E+02  0.00000000000E+00 0. -1.
<scales pt_clust_4="550.00000" pt_clust_5="550.00000" pt_clust_6="33.45841"></scales>
<mgrwt>
<rscale>  0 0.30000000E+03</rscale>
<asrwt>  1 0.33458406E+02</asrwt>
<pdfrwt beam="1">  1        1 0.86230287E+00 0.30000000E+03</pdfrwt>
<pdfrwt beam="2">0</pdfrwt>
<totfact> 0.30813187E-04</totfact>
</mgrwt>
<clustering>
<clus scale="   33.458">  1  6  2 -1</clus>
<clus scale="  475.789">  4  5 -1 -1</clus>
<clus scale="  300.000">  1  4  2 -1</clus>
</clustering>
</event>
<event>
 6    1  0.9843879E-012  0.3000000E+03  0.7818608E-02  0.1093470E+00
          1   -1    0    0  502    0  0.00000000000E+00  0.00000000000E+00  0.25079898034E+03  0.25079898034E+03  0.00000000000E+00 0.  1.
         13   -1    0    0    0    0 -0.00000000000E+00 -0.00000000000E+00 -0.27500000000E+03  0.27500000000E+03  0.00000000000E+00 0.  1.
    9000005    2    1    2  501    0  0.16637919685E+01  0.33831387109E+02 -0.23310030163E+02  0.49191498973E+03  0.49019350124E+03 0.  0.
         13    1    3    3    0    0  0.41237530248E+02 -0.42201191440E+01  0.22949949607E+03  0.23321312571E+03  0.00000000000E+00 0.  1.
          1    1    3    3  501    0 -0.39573738279E+02  0.38051506253E+02 -0.25280952624E+03  0.25870186402E+03  0.00000000000E+00 0.  1.
         21    1    1    2  502  501 -0.16637919685E+01 -0.33831387109E+02 -0.89098949819E+00  0.33883990611E+02  0.00000000000E+00 0. -1.
<scales pt_clust_4="550.00000" pt_clust_5="550.00000" pt_clust_6="33.87227"></scales>
<mgrwt>
<rscale>  0 0.30000000E+03</rscale>
<asrwt>  1 0.33872274E+02</asrwt>
<pdfrwt beam="1">  1        1 0.91199629E+00 0.30000000E+03</pdfrwt>
<pdfrwt beam="2">0</pdfrwt>
<totfact> 0.64517247E-05</totfact>
</mgrwt>
<clustering>
<clus scale="   33.872">  1  6  2 -1</clus>
<clus scale="  490.194">  4  5 -1 -1</clus>
<clus scale="  300.000">  1  4  2 -1</clus>
</clustering>
</event>
<event>
 6    1  0.9843879E-012  0.3000000E+03  0.7818608E-02  0.1093470E+00
          1   -1    0    0  502    0  0.00000000000E+00  0.00000000000E+00  0.22753488001E+03  0.22753488001E+03  0.00000000000E+00 0.  1.
         13   -1    0    0    0    0 -0.00000000000E+00 -0.00000000000E+00 -0.27500000000E+03  0.27500000000E+03  0.00000000000E+00 0.  1.
    9000005    2    1    2  501    0 -0.35898718329E+02 -0.31172544004E+00 -0.60963526522E+02  0.46418097370E+03  0.45875768073E+03 0.  0.
         13    1    3    3    0    0 -0.10484052078E+03 -0.21015412104E+03 -0.63507753372E+02  0.24328897247E+03  0.00000000000E+00 0.  1.
          3    1    3    3  501    0  0.68941802456E+02  0.20984239560E+03  0.25442268494E+01  0.22089200123E+03  0.00000000000E+00 0.  1.
         21    1    1    2  502  501  0.35898718329E+02  0.31172544004E+00  0.13498406529E+02  0.38353906310E+02  0.00000000000E+00 0. -1.
<scales pt_clust_4="550.00000" pt_clust_5="550.00000" pt_clust_6="35.90007"></scales>
<mgrwt>
<rscale>  0 0.30000000E+03</rscale>
<asrwt>  1 0.35900072E+02</asrwt>
<pdfrwt beam="1">  1        1 0.82739956E+00 0.30000000E+03</pdfrwt>
<pdfrwt beam="2">0</pdfrwt>
<totfact> 0.61904629E-04</totfact>
</mgrwt>
<clustering>
<clus scale="   35.900">  1  6  2 -1</clus>
<clus scale="  458.758">  4  5 -1 -1</clus>
<clus scale="  300.000">  1  4  2 -1</clus>
</clustering>
</event>
<event>
 6    1  0.9843879E-012  0.3000000E+03  0.7818608E-02  0.1093470E+00
          1   -1    0    0  502    0  0.00000000000E+00  0.00000000000E+00  0.23804113414E+03  0.23804113414E+03  0.00000000000E+00 0.  1.
         13   -1    0    0    0    0 -0.00000000000E+00 -0.00000000000E+00 -0.27500000000E+03  0.27500000000E+03  0.00000000000E+00 0.  1.
    9000005    2    1    2  501    0  0.47162479585E+01  0.30288828032E+02 -0.29418914073E+02  0.48147363548E+03  0.47959538474E+03 0.  0.
         13    1    3    3    0    0 -0.20952423068E+03  0.12737539619E+03 -0.88433594818E+01  0.24536319977E+03  0.00000000000E+00 0.  1.
          1    1    3    3  501    0  0.21424047864E+03 -0.97086568156E+02 -0.20575554591E+02  0.23611043571E+03  0.00000000000E+00 0.  1.
         21    1    1    2  502  501 -0.47162479585E+01 -0.30288828032E+02 -0.75399517905E+01  0.31567498655E+02  0.00000000000E+00 0.  1.
<scales pt_clust_4="550.00000" pt_clust_5="550.00000" pt_clust_6="30.65383"></scales>
<mgrwt>
<rscale>  0 0.30000000E+03</rscale>
<asrwt>  1 0.30653826E+02</asrwt>
<pdfrwt beam="1">  1        1 0.86560412E+00 0.30000000E+03</pdfrwt>
<pdfrwt beam="2">0</pdfrwt>
<totfact> 0.28862322E-04</totfact>
</mgrwt>
<clustering>
<clus scale="   30.654">  1  6  2 -1</clus>
<clus scale="  479.595">  4  5 -1 -1</clus>
<clus scale="  300.000">  1  4  2 -1</clus>
</clustering>
</event>
<event>
 6    1  0.9843879E-012  0.3000000E+03  0.7818608E-02  0.1093470E+00
          1   -1    0    0  502    0  0.00000000000E+00  0.00000000000E+00  0.25639687957E+03  0.25639687957E+03  0.00000000000E+00 0.  1.
         13   -1    0    0    0    0 -0.00000000000E+00 -0.00000000000E+00 -0.27500000000E+03  0.27500000000E+03  0.00000000000E+00 0.  1.
    9000005    2    1    2  501    0  0.14337023902E+02 -0.32384988194E+02 -0.59705550785E+02  0.47714056661E+03  0.47206358660E+03 0.  0.
         13    1    3    3    0    0  0.57341497311E+02 -0.24721037232E+03 -0.43285279703E+02  0.25743859643E+03  0.00000000000E+00 0.  1.
          1    1    3    3  501    0 -0.43004473409E+02  0.21482538412E+03 -0.16420271083E+02  0.21970197018E+03  0.00000000000E+00 0.  1.
         21    1    1    2  502  501 -0.14337023902E+02  0.32384988194E+02  0.41102430355E+02  0.54256312958E+02  0.00000000000E+00 0. -1.
<scales pt_clust_4="550.00000" pt_clust_5="550.00000" pt_clust_6="35.41663"></scales>
<mgrwt>
<rscale>  0 0.30000000E+03</rscale>
<asrwt>  1 0.35416630E+02</asrwt>
<pdfrwt beam="1">  1        1 0.93235229E+00 0.30000000E+03</pdfrwt>
<pdfrwt beam="2">0</pdfrwt>
<totfact> 0.24255633E-05</totfact>
</mgrwt>
<clustering>
<clus scale="   35.417">  1  6  2 -1</clus>
<clus scale="  472.064">  4  5 -1 -1</clus>
<clus scale="  300.000">  1  4  2 -1</clus>
</clustering>
</event>
<event>
 6    1  0.9843879E-012  0.3000000E+03  0.7818608E-02  0.1093470E+00
          1   -1    0    0  502    0  0.00000000000E+00  0.00000000000E+00  0.24568924502E+03  0.24568924502E+03  0.00000000000E+00 0.  1.
         13   -1    0    0    0    0 -0.00000000000E+00 -0.00000000000E+00 -0.27500000000E+03  0.27500000000E+03  0.00000000000E+00 0.  1.
    9000005    2    1    2  501    0 -0.40008593416E+02  0.12119585648E+02 -0.35035746726E+02  0.47849508151E+03  0.47537613274E+03 0.  0.
         13    1    3    3    0    0 -0.22842885188E+03 -0.91110104400E+02 -0.80738078755E+02  0.25884247885E+03  0.00000000000E+00 0.  1.
          1    1    3    3  501    0  0.18842025846E+03  0.10322969005E+03  0.45702332029E+02  0.21965260267E+03  0.00000000000E+00 0.  1.
         21    1    1    2  502  501  0.40008593416E+02 -0.12119585648E+02  0.57249917439E+01  0.42194163505E+02  0.00000000000E+00 0. -1.
<scales pt_clust_4="550.00000" pt_clust_5="550.00000" pt_clust_6="41.80397"></scales>
<mgrwt>
<rscale>  0 0.30000000E+03</rscale>
<asrwt>  1 0.41803970E+02</asrwt>
<pdfrwt beam="1">  1        1 0.89341544E+00 0.30000000E+03</pdfrwt>
<pdfrwt beam="2">0</pdfrwt>
<totfact> 0.12721851E-04</totfact>
</mgrwt>
<clustering>
<clus scale="   41.804">  1  6  2 -1</clus>
<clus scale="  475.376">  4  5 -1 -1</clus>
<clus scale="  300.000">  1  4  2 -1</clus>
</clustering>
</event>
<event>
 6    1  0.9843879E-012  0.3000000E+03  0.7818608E-02  0.1093470E+00
          1   -1    0    0  502    0  0.00000000000E+00  0.00000000000E+00  0.23931681857E+03  0.23931681857E+03  0.00000000000E+00 0.  1.
         13   -1    0    0    0    0 -0.00000000000E+00 -0.00000000000E+00 -0.27500000000E+03  0.27500000000E+03  0.00000000000E+00 0.  1.
    9000005    2    1    2  501    0  0.42979119695E+02 -0.42348966351E+00 -0.47123301765E+02  0.46983917895E+03  0.46548991872E+03 0.  0.
         13    1    3    3    0    0  0.36646725311E+02 -0.19475388935E+03 -0.15123404705E+03  0.24928657582E+03  0.00000000000E+00 0.  1.
          3    1    3    3  501    0  0.63323943839E+01  0.19433039969E+03  0.10411074529E+03  0.22055260313E+03  0.00000000000E+00 0.  1.
         21    1    1    2  502  501 -0.42979119695E+02  0.42348966351E+00  0.11440120339E+02  0.44477639625E+02  0.00000000000E+00 0.  1.
<scales pt_clust_4="550.00000" pt_clust_5="550.00000" pt_clust_6="42.98121"></scales>
<mgrwt>
<rscale>  0 0.30000000E+03</rscale>
<asrwt>  1 0.42981206E+02</asrwt>
<pdfrwt beam="1">  1        1 0.87024298E+00 0.30000000E+03</pdfrwt>
<pdfrwt beam="2">0</pdfrwt>
<totfact> 0.24249042E-04</totfact>
</mgrwt>
<clustering>
<clus scale="   42.981">  1  6  2 -1</clus>
<clus scale="  465.490">  4  5 -1 -1</clus>
<clus scale="  300.000">  1  4  2 -1</clus>
</clustering>
</event>
<event>
 6    1  0.9843879E-012  0.3000000E+03  0.7818608E-02  0.1093470E+00
          1   -1    0    0  502    0  0.00000000000E+00  0.00000000000E+00  0.23405099010E+03  0.23405099010E+03  0.00000000000E+00 0.  1.
         13   -1    0    0    0    0 -0.00000000000E+00 -0.00000000000E+00 -0.27500000000E+03  0.27500000000E+03  0.00000000000E+00 0.  1.
    9000005    2    1    2  501    0  0.21676235897E+02 -0.21661422362E+02 -0.50460062352E+02  0.47696459828E+03  0.47329687691E+03 0.  0.
         13    1    3    3    0    0 -0.94313603775E+02 -0.20796702403E+03  0.52869821702E+02  0.23439402080E+03  0.00000000000E+00 0.  1.
          1    1    3    3  501    0  0.11598983967E+03  0.18630560167E+03 -0.10332988405E+03  0.24257057748E+03  0.00000000000E+00 0.  1.
         21    1    1    2  502  501 -0.21676235897E+02  0.21661422362E+02  0.95110524484E+01  0.32086391821E+02  0.00000000000E+00 0.  1.
<scales pt_clust_4="550.00000" pt_clust_5="550.00000" pt_clust_6="30.64435"></scales>
<mgrwt>
<rscale>  0 0.30000000E+03</rscale>
<asrwt>  1 0.30644354E+02</asrwt>
<pdfrwt beam="1">  1        1 0.85109451E+00 0.30000000E+03</pdfrwt>
<pdfrwt beam="2">0</pdfrwt>
<totfact> 0.40754896E-04</totfact>
</mgrwt>
<clustering>
<clus scale="   30.644">  1  6  2 -1</clus>
<clus scale="  473.297">  4  5 -1 -1</clus>
<clus scale="  300.000">  1  4  2 -1</clus>
</clustering>
</event>
<event>
 6    1  0.9843879E-012  0.3000000E+03  0.7818608E-02  0.1093470E+00
          1   -1    0    0  502    0  0.00000000000E+00  0.00000000000E+00  0.24369965775E+03  0.24369965775E+03  0.00000000000E+00 0.  1.
         13   -1    0    0    0    0 -0.00000000000E+00 -0.00000000000E+00 -0.27500000000E+03  0.27500000000E+03  0.00000000000E+00 0.  1.
    9000005    2    1    2  501    0  0.40365251652E+02 -0.22959438948E+01 -0.51611469987E+02  0.47345403024E+03  0.46889268496E+03 0.  0.
         13    1    3    3    0    0  0.13883549945E+03 -0.83083410383E+02 -0.21323781303E+03  0.26767240032E+03  0.00000000000E+00 0.  1.
          3    1    3    3  501    0 -0.98470247799E+02  0.80787466488E+02  0.16162634304E+03  0.20578162991E+03  0.00000000000E+00 0.  1.
         21    1    1    2  502  501 -0.40365251652E+02  0.22959438948E+01  0.20311127740E+02  0.45245627517E+02  0.00000000000E+00 0. -1.
<scales pt_clust_4="550.00000" pt_clust_5="550.00000" pt_clust_6="40.43049"></scales>
<mgrwt>
<rscale>  0 0.30000000E+03</rscale>
<asrwt>  1 0.40430495E+02</asrwt>
<pdfrwt beam="1">  1        1 0.88618057E+00 0.30000000E+03</pdfrwt>
<pdfrwt beam="2">0</pdfrwt>
<totfact> 0.15918259E-04</totfact>
</mgrwt>
<clustering>
<clus scale="   40.430">  1  6  2 -1</clus>
<clus scale="  468.893">  4  5 -1 -1</clus>
<clus scale="  300.000">  1  4  2 -1</clus>
</clustering>
</event>
<event>
 6    1  0.9843879E-012  0.3000000E+03  0.7818608E-02  0.1093470E+00
          1   -1    0    0  502    0  0.00000000000E+00  0.00000000000E+00  0.23191108849E+03  0.23191108849E+03  0.00000000000E+00 0.  1.
         13   -1    0    0    0    0 -0.00000000000E+00 -0.00000000000E+00 -0.27500000000E+03  0.27500000000E+03  0.00000000000E+00 0.  1.
    9000005    2    1    2  501    0 -0.33813304359E+02 -0.14605639147E+01 -0.65965994568E+02  0.46605972710E+03  0.46012463962E+03 0.  0.
         13    1    3    3    0    0 -0.15922746278E+03 -0.17797020144E+03  0.29754505148E+01  0.23882133659E+03  0.00000000000E+00 0.  1.
          3    1    3    3  501    0  0.12541415842E+03  0.17650963752E+03 -0.68941445082E+02  0.22723839051E+03  0.00000000000E+00 0.  1.
         21    1    1    2  502  501  0.33813304359E+02  0.14605639147E+01  0.22877083062E+02  0.40851361398E+02  0.00000000000E+00 0.  1.
<scales pt_clust_4="550.00000" pt_clust_5="550.00000" pt_clust_6="33.84483"></scales>
<mgrwt>
<rscale>  0 0.30000000E+03</rscale>
<asrwt>  1 0.33844834E+02</asrwt>
<pdfrwt beam="1">  1        1 0.84331305E+00 0.30000000E+03</pdfrwt>
<pdfrwt beam="2">0</pdfrwt>
<totfact> 0.47014079E-04</totfact>
</mgrwt>
<clustering>
<clus scale="   33.845">  1  6  2 -1</clus>
<clus scale="  460.125">  4  5 -1 -1</clus>
<clus scale="  300.000">  1  4  2 -1</clus>
</clustering>
</event>
<event>
 6    1  0.9843879E-012  0.3000000E+03  0.7818608E-02  0.1093470E+00
          1   -1    0    0  502    0  0.00000000000E+00  0.00000000000E+00  0.22469921228E+03  0.22469921228E+03  0.00000000000E+00 0.  1.
         13   -1    0    0    0    0 -0.00000000000E+00 -0.00000000000E+00 -0.27500000000E+03  0.27500000000E+03  0.00000000000E+00 0.  1.
    9000005    2    1    2  501    0 -0.10109959207E+01 -0.34322991768E+02 -0.59230356460E+02  0.46421925915E+03  0.45914289231E+03 0.  0.
         13    1    3    3    0    0  0.16026796346E+03 -0.18132509049E+03 -0.38019708997E+02  0.24496960388E+03  0.00000000000E+00 0.  1.
          1    1    3    3  501    0 -0.16127895938E+03  0.14700209873E+03 -0.21210647464E+02  0.21924965527E+03  0.00000000000E+00 0.  1.
         21    1    1    2  502  501  0.10109959207E+01  0.34322991768E+02  0.89295687432E+01  0.35479953137E+02  0.00000000000E+00 0.  1.
<scales pt_clust_4="550.00000" pt_clust_5="550.00000" pt_clust_6="34.33788"></scales>
<mgrwt>
<rscale>  0 0.30000000E+03</rscale>
<asrwt>  1 0.34337878E+02</asrwt>
<pdfrwt beam="1">  1        1 0.81708804E+00 0.30000000E+03</pdfrwt>
<pdfrwt beam="2">0</pdfrwt>
<totfact> 0.76816512E-04</totfact>
</mgrwt>
<clustering>
<clus scale="   34.338">  1  6  2 -1</clus>
<clus scale="  459.143">  4  5 -1 -1</clus>
<clus scale="  300.000">  1  4  2 -1</clus>
</clustering>
</event>
<event>
 6    1  0.9843879E-012  0.3000000E+03  0.7818608E-02  0.1093470E+00
          1   -1    0    0  502    0  0.00000000000E+00  0.00000000000E+00  0.23327924209E+03  0.23327924209E+03  0.00000000000E+00 0.  1.
         13   -1    0    0    0    0 -0.00000000000E+00 -0.00000000000E+00 -0.27500000000E+03  0.27500000000E+03  0.00000000000E+00 0.  1.
    9000005    2    1    2  501    0 -0.27463963087E+02 -0.26568155297E+02 -0.57560979469E+02  0.46691441690E+03  0.46177447981E+03 0.  0.
         13    1    3    3    0    0 -0.27459508417E+02  0.21195353544E+02  0.20100384437E+03  0.20397503049E+03  0.00000000000E+00 0.  1.
          1    1    3    3  501    0 -0.44546694167E-02 -0.47763508841E+02 -0.25856482384E+03  0.26293938640E+03  0.00000000000E+00 0.  1.
         21    1    1    2  502  501  0.27463963087E+02  0.26568155297E+02  0.15840221559E+02  0.41364825195E+02  0.00000000000E+00 0. -1.
<scales pt_clust_4="550.00000" pt_clust_5="550.00000" pt_clust_6="38.21173"></scales>
<mgrwt>
<rscale>  0 0.30000000E+03</rscale>
<asrwt>  1 0.38211728E+02</asrwt>
<pdfrwt beam="1">  1        1 0.84828815E+00 0.30000000E+03</pdfrwt>
<pdfrwt beam="2">0</pdfrwt>
<totfact> 0.41533912E-04</totfact>
</mgrwt>
<clustering>
<clus scale="   38.212">  1  6  2 -1</clus>
<clus scale="  461.774">  4  5 -1 -1</clus>
<clus scale="  300.000">  1  4  2 -1</clus>
</clustering>
</event>
<event>
 6    1  0.9843879E-012  0.3000000E+03  0.7818608E-02  0.1093470E+00
          1   -1    0    0  502    0  0.00000000000E+00  0.00000000000E+00  0.24786438872E+03  0.24786438872E+03  0.00000000000E+00 0.  1.
         13   -1    0    0    0    0 -0.00000000000E+00 -0.00000000000E+00 -0.27500000000E+03  0.27500000000E+03  0.00000000000E+00 0.  1.
    9000005    2    1    2  501    0  0.21645996120E+02  0.26520751517E+02 -0.69198277592E+02  0.46863185875E+03  0.46222885891E+03 0.  0.
         13    1    3    3    0    0  0.79954093518E+02 -0.20740415327E+03 -0.27634838514E+02  0.22399291097E+03  0.00000000000E+00 0.  1.
          3    1    3    3  501    0 -0.58308097399E+02  0.23392490479E+03 -0.41563439078E+02  0.24463894778E+03  0.00000000000E+00 0.  1.
         21    1    1    2  502  501 -0.21645996120E+02 -0.26520751517E+02  0.42062666309E+02  0.54232529962E+02  0.00000000000E+00 0.  1.
<scales pt_clust_4="550.00000" pt_clust_5="550.00000" pt_clust_6="34.23302"></scales>
<mgrwt>
<rscale>  0 0.30000000E+03</rscale>
<asrwt>  1 0.34233016E+02</asrwt>
<pdfrwt beam="1">  1        1 0.90132505E+00 0.30000000E+03</pdfrwt>
<pdfrwt beam="2">0</pdfrwt>
<totfact> 0.10654754E-04</totfact>
</mgrwt>
<clustering>
<clus scale="   34.233">  1  6  2 -1</clus>
<clus scale="  462.229">  4  5 -1 -1</clus>
<clus scale="  300.000">  1  4  2 -1</clus>
</clustering>
</event>
<event>
 6    1  0.9843879E-012  0.3000000E+03  0.7818608E-02  0.1093470E+00
          1   -1    0    0  502    0  0.00000000000E+00  0.00000000000E+00  0.22797944145E+03  0.22797944145E+03  0.00000000000E+00 0.  1.
         13   -1    0    0    0    0 -0.00000000000E+00 -0.00000000000E+00 -0.27500000000E+03  0.27500000000E+03  0.00000000000E+00 0.  1.
    9000005    2    1    2  501    0  0.10243321009E+02  0.31973056380E+02 -0.37875611880E+02  0.46818242995E+03  0.46543852847E+03 0.  0.
         13    1    3    3    0    0  0.56083068077E+02 -0.20685001582E+03 -0.63823467787E+02  0.22361948621E+03  0.00000000000E+00 0.  1.
          3    1    3    3  501    0 -0.45839747068E+02  0.23882307220E+03  0.25947855906E+02  0.24456294375E+03  0.00000000000E+00 0.  1.
         21    1    1    2  502  501 -0.10243321009E+02 -0.31973056380E+02 -0.91449466692E+01  0.34797011497E+02  0.00000000000E+00 0. -1.
<scales pt_clust_4="550.00000" pt_clust_5="550.00000" pt_clust_6="33.57385"></scales>
<mgrwt>
<rscale>  0 0.30000000E+03</rscale>
<asrwt>  1 0.33573845E+02</asrwt>
<pdfrwt beam="1">  1        1 0.82901615E+00 0.30000000E+03</pdfrwt>
<pdfrwt beam="2">0</pdfrwt>
<totfact> 0.60705761E-04</totfact>
</mgrwt>
<clustering>
<clus scale="   33.574">  1  6  2 -1</clus>
<clus scale="  465.439">  4  5 -1 -1</clus>
<clus scale="  300.000">  1  4  2 -1</clus>
</clustering>
</event>
<event>
 6    1  0.9843879E-012  0.3000000E+03  0.7818608E-02  0.1093470E+00
          1   -1    0    0  502    0  0.00000000000E+00  0.00000000000E+00  0.23542474402E+03  0.23542474402E+03  0.00000000000E+00 0.  1.
         13   -1    0    0    0    0 -0.00000000000E+00 -0.00000000000E+00 -0.27500000000E+03  0.27500000000E+03  0.00000000000E+00 0.  1.
    9000005    2    1    2  501    0  0.16408304752E+01  0.35118493378E+02 -0.38022198169E+02  0.47523365295E+03  0.47240378538E+03 0.  0.
         13    1    3    3    0    0  0.99749485254E+02  0.15357375031E+03 -0.18655435634E+03  0.26141420096E+03  0.00000000000E+00 0.  1.
          1    1    3    3  501    0 -0.98108654779E+02 -0.11845525693E+03  0.14853215817E+03  0.21381945199E+03  0.00000000000E+00 0.  1.
         21    1    1    2  502  501 -0.16408304752E+01 -0.35118493378E+02 -0.15530578128E+01  0.35191091066E+02  0.00000000000E+00 0.  1.
<scales pt_clust_4="550.00000" pt_clust_5="550.00000" pt_clust_6="35.15680"></scales>
<mgrwt>
<rscale>  0 0.30000000E+03</rscale>
<asrwt>  1 0.35156804E+02</asrwt>
<pdfrwt beam="1">  1        1 0.85608998E+00 0.30000000E+03</pdfrwt>
<pdfrwt beam="2">0</pdfrwt>
<totfact> 0.35499170E-04</totfact>
</mgrwt>
<clustering>
<clus scale="   35.157">  1  6  2 -1</clus>
<clus scale="  472.404">  4  5 -1 -1</clus>
<clus scale="  300.000">  1  4  2 -1</clus>
</clustering>
</event>
<event>
 6    1  0.9843879E-012  0.3000000E+03  0.7818608E-02  0.1093470E+00
          1   -1    0    0  502    0  0.00000000000E+00  0.00000000000E+00  0.22644424588E+03  0.22644424588E+03  0.00000000000E+00 0.  1.
         13   -1    0    0    0    0 -0.00000000000E+00 -0.00000000000E+00 -0.27500000000E+03  0.27500000000E+03  0.00000000000E+00 0.  1.
    9000005    2    1    2  501    0 -0.52549361276E+01  0.32180730218E+02 -0.59188636818E+02  0.46714742467E+03  0.46223393200E+03 0.  0.
         13    1    3    3    0    0 -0.16267582865E+02  0.21588031458E+03  0.85789690015E+02  0.23287081266E+03  0.00000000000E+00 0.  1.
          3    1    3    3  501    0  0.11012646737E+02 -0.18369958436E+03 -0.14497832683E+03  0.23427661201E+03  0.00000000000E+00 0.  1.
         21    1    1    2  502  501  0.52549361276E+01 -0.32180730218E+02  0.10632882702E+02  0.34296821218E+02  0.00000000000E+00 0. -1.
<scales pt_clust_4="550.00000" pt_clust_5="550.00000" pt_clust_6="32.60696"></scales>
<mgrwt>
<rscale>  0 0.30000000E+03</rscale>
<asrwt>  1 0.32606959E+02</asrwt>
<pdfrwt beam="1">  1        1 0.82343362E+00 0.30000000E+03</pdfrwt>
<pdfrwt beam="2">0</pdfrwt>
<totfact> 0.68361540E-04</totfact>
</mgrwt>
<clustering>
<clus scale="   32.607">  1  6  2 -1</clus>
<clus scale="  462.234">  4  5 -1 -1</clus>
<clus scale="  300.000">  1  4  2 -1</clus>
</clustering>
</event>
<event>
 6    1  0.9843879E-012  0.3000000E+03  0.7818608E-02  0.1093470E+00
          1   -1    0    0  502    0  0.00000000000E+00  0.00000000000E+00  0.24399218170E+03  0.24399218170E+03  0.00000000000E+00 0.  1.
         13   -1    0    0    0    0 -0.00000000000E+00 -0.00000000000E+00 -0.27500000000E+03  0.27500000000E+03  0.00000000000E+00 0.  1.
    9000005    2    1    2  501    0 -0.37656804063E+02 -0.79623278138E+01 -0.68680907772E+02  0.46513407900E+03  0.45842252431E+03 0.  0.
         13    1    3    3    0    0  0.85972697981E+02 -0.41322278555E+02  0.16962354708E+03  0.19460468449E+03  0.00000000000E+00 0.  1.
          1    1    3    3  501    0 -0.12362950204E+03  0.33359950741E+02 -0.23830445485E+03  0.27052939450E+03  0.00000000000E+00 0.  1.
         21    1    1    2  502  501  0.37656804063E+02  0.79623278138E+01  0.37673089468E+02  0.53858102701E+02  0.00000000000E+00 0. -1.
<scales pt_clust_4="550.00000" pt_clust_5="550.00000" pt_clust_6="38.48940"></scales>
<mgrwt>
<rscale>  0 0.30000000E+03</rscale>
<asrwt>  1 0.38489395E+02</asrwt>
<pdfrwt beam="1">  1        1 0.88724430E+00 0.30000000E+03</pdfrwt>
<pdfrwt beam="2">0</pdfrwt>
<totfact> 0.15527861E-04</totfact>
</mgrwt>
<clustering>
<clus scale="   38.489">  1  6  2 -1</clus>
<clus scale="  458.423">  4  5 -1 -1</clus>
<clus scale="  300.000">  1  4  2 -1</clus>
</clustering>
</event>
<event>
 6    1  0.9843879E-012  0.3000000E+03  0.7818608E-02  0.1093470E+00
          1   -1    0    0  502    0  0.00000000000E+00  0.00000000000E+00  0.23970833402E+03  0.23970833402E+03  0.00000000000E+00 0.  1.
         13   -1    0    0    0    0 -0.00000000000E+00 -0.00000000000E+00 -0.27500000000E+03  0.27500000000E+03  0.00000000000E+00 0.  1.
    9000005    2    1    2  501    0  0.15178462839E+02 -0.33692866093E+02 -0.64334081599E+02  0.46770772908E+03  0.46178571960E+03 0.  0.
         13    1    3    3    0    0  0.10732128883E+03 -0.10245241348E+03 -0.22537994835E+03  0.26983416608E+03  0.00000000000E+00 0.  1.
          1    1    3    3  501    0 -0.92142825993E+02  0.68759547384E+02  0.16104586675E+03  0.19787356300E+03  0.00000000000E+00 0.  1.
         21    1    1    2  502  501 -0.15178462839E+02  0.33692866093E+02  0.29042415617E+02  0.47000604938E+02  0.00000000000E+00 0.  1.
<scales pt_clust_4="550.00000" pt_clust_5="550.00000" pt_clust_6="36.95396"></scales>
<mgrwt>
<rscale>  0 0.30000000E+03</rscale>
<asrwt>  1 0.36953957E+02</asrwt>
<pdfrwt beam="1">  1        1 0.87166667E+00 0.30000000E+03</pdfrwt>
<pdfrwt beam="2">0</pdfrwt>
<totfact> 0.24106998E-04</totfact>
</mgrwt>
<clustering>
<clus scale="   36.954">  1  6  2 -1</clus>
<clus scale="  461.786">  4  5 -1 -1</clus>
<clus scale="  300.000">  1  4  2 -1</clus>
</clustering>
</event>
<event>
 6    1  0.9843879E-012  0.3000000E+03  0.7818608E-02  0.1093470E+00
          1   -1    0    0  502    0  0.00000000000E+00  0.00000000000E+00  0.23819760030E+03  0.23819760030E+03  0.00000000000E+00 0.  1.
         13   -1    0    0    0    0 -0.00000000000E+00 -0.00000000000E+00 -0.27500000000E+03  0.27500000000E+03  0.00000000000E+00 0.  1.
    9000005    2    1    2  501    0  0.32928539005E+02 -0.26099067485E+02 -0.57265160550E+02  0.46646244666E+03  0.46102328089E+03 0.  0.
         13    1    3    3    0    0 -0.13157325765E+03 -0.69811708156E+02  0.14103886672E+03  0.20512717677E+03  0.00000000000E+00 0.  1.
          1    1    3    3  501    0  0.16450179666E+03  0.43712640671E+02 -0.19830402727E+03  0.26133526989E+03  0.00000000000E+00 0.  1.
         21    1    1    2  502  501 -0.32928539005E+02  0.26099067485E+02  0.20462760854E+02  0.46735153646E+02  0.00000000000E+00 0. -1.
<scales pt_clust_4="550.00000" pt_clust_5="550.00000" pt_clust_6="42.01726"></scales>
<mgrwt>
<rscale>  0 0.30000000E+03</rscale>
<asrwt>  1 0.42017258E+02</asrwt>
<pdfrwt beam="1">  1        1 0.86617309E+00 0.30000000E+03</pdfrwt>
<pdfrwt beam="2">0</pdfrwt>
<totfact> 0.26838222E-04</totfact>
</mgrwt>
<clustering>
<clus scale="   42.017">  1  6  2 -1</clus>
<clus scale="  461.023">  4  5 -1 -1</clus>
<clus scale="  300.000">  1  4  2 -1</clus>
</clustering>
</event>
<event>
 6    1  0.9843879E-012  0.3000000E+03  0.7818608E-02  0.1093470E+00
          1   -1    0    0  502    0  0.00000000000E+00  0.00000000000E+00  0.22763340005E+03  0.22763340005E+03  0.00000000000E+00 0.  1.
         13   -1    0    0    0    0 -0.00000000000E+00 -0.00000000000E+00 -0.27500000000E+03  0.27500000000E+03  0.00000000000E+00 0.  1.
    9000005    2    1    2  501    0 -0.30187409010E+02 -0.13500883117E+02 -0.62155328917E+02  0.46640827048E+03  0.46106380942E+03 0.  0.
         13    1    3    3    0    0 -0.15426560693E+03 -0.13963240615E+03  0.95946421330E+02  0.22913053505E+03  0.00000000000E+00 0.  1.
          3    1    3    3  501    0  0.12407819792E+03  0.12613152303E+03 -0.15810175025E+03  0.23727773543E+03  0.00000000000E+00 0.  1.
         21    1    1    2  502  501  0.30187409010E+02  0.13500883117E+02  0.14788728964E+02  0.36225129565E+02  0.00000000000E+00 0.  1.
<scales pt_clust_4="550.00000" pt_clust_5="550.00000" pt_clust_6="33.06892"></scales>
<mgrwt>
<rscale>  0 0.30000000E+03</rscale>
<asrwt>  1 0.33068921E+02</asrwt>
<pdfrwt beam="1">  1        1 0.82775782E+00 0.30000000E+03</pdfrwt>
<pdfrwt beam="2">0</pdfrwt>
<totfact> 0.62415165E-04</totfact>
</mgrwt>
<clustering>
<clus scale="   33.069">  1  6  2 -1</clus>
<clus scale="  461.064">  4  5 -1 -1</clus>
<clus scale="  300.000">  1  4  2 -1</clus>
</clustering>
</event>
<event>
 6    1  0.9843879E-012  0.3000000E+03  0.7818608E-02  0.1093470E+00
          1   -1    0    0  502    0  0.00000000000E+00  0.00000000000E+00  0.24360608803E+03  0.24360608803E+03  0.00000000000E+00 0.  1.
         13   -1    0    0    0    0 -0.00000000000E+00 -0.00000000000E+00 -0.27500000000E+03  0.27500000000E+03  0.00000000000E+00 0.  1.
    9000005    2    1    2  501    0  0.12415077341E+02  0.33965699741E+02 -0.28125540401E+02  0.48229513711E+03  0.48011430967E+03 0.  0.
         13    1    3    3    0    0  0.16375708364E+03 -0.30242537108E+02 -0.18926314708E+03  0.25209429255E+03  0.00000000000E+00 0.  1.
          1    1    3    3  501    0 -0.15134200630E+03  0.64208236849E+02  0.16113760668E+03  0.23020084456E+03  0.00000000000E+00 0.  1.
         21    1    1    2  502  501 -0.12415077341E+02 -0.33965699741E+02 -0.32683715688E+01  0.36310950924E+02  0.00000000000E+00 0.  1.
<scales pt_clust_4="550.00000" pt_clust_5="550.00000" pt_clust_6="36.16358"></scales>
<mgrwt>
<rscale>  0 0.30000000E+03</rscale>
<asrwt>  1 0.36163576E+02</asrwt>
<pdfrwt beam="1">  1        1 0.88584032E+00 0.30000000E+03</pdfrwt>
<pdfrwt beam="2">0</pdfrwt>
<totfact> 0.16424895E-04</totfact>
</mgrwt>
<clustering>
<clus scale="   36.164">  1  6  2 -1</clus>
<clus scale="  480.114">  4  5 -1 -1</clus>
<clus scale="  300.000">  1  4  2 -1</clus>
</clustering>
</event>
<event>
 6    1  0.9843879E-012  0.3000000E+03  0.7818608E-02  0.1093470E+00
          1   -1    0    0  502    0  0.00000000000E+00  0.00000000000E+00  0.25925019029E+03  0.25925019029E+03  0.00000000000E+00 0.  1.
         13   -1    0    0    0    0 -0.00000000000E+00 -0.00000000000E+00 -0.27500000000E+03  0.27500000000E+03  0.00000000000E+00 0.  1.
    9000005    2    1    2  501    0 -0.38008282716E+02 -0.17132558660E+01 -0.19645156350E+02  0.49600442548E+03  0.49415270224E+03 0.  0.
         13    1    3    3    0    0  0.26795133313E+02  0.25017274420E+02 -0.25130814448E+03  0.25396776700E+03  0.00000000000E+00 0.  1.
          1    1    3    3  501    0 -0.64803416029E+02 -0.26730530286E+02  0.23166298813E+03  0.24203665848E+03  0.00000000000E+00 0.  1.
         21    1    1    2  502  501  0.38008282716E+02  0.17132558660E+01  0.38953466426E+01  0.38245764813E+02  0.00000000000E+00 0.  1.
<scales pt_clust_4="550.00000" pt_clust_5="550.00000" pt_clust_6="38.04688"></scales>
<mgrwt>
<rscale>  0 0.30000000E+03</rscale>
<asrwt>  1 0.38046876E+02</asrwt>
<pdfrwt beam="1">  1        1 0.94272796E+00 0.30000000E+03</pdfrwt>
<pdfrwt beam="2">0</pdfrwt>
<totfact> 0.16890909E-05</totfact>
</mgrwt>
<clustering>
<clus scale="   38.047">  1  6  2 -1</clus>
<clus scale="  494.153">  4  5 -1 -1</clus>
<clus scale="  300.000">  1  4  2 -1</clus>
</clustering>
</event>
<event>
 6    1  0.9843879E-012  0.3000000E+03  0.7818608E-02  0.1093470E+00
          1   -1    0    0  502    0  0.00000000000E+00  0.00000000000E+00  0.24900735685E+03  0.24900735685E+03  0.00000000000E+00 0.  1.
         13   -1    0    0    0    0 -0.00000000000E+00 -0.00000000000E+00 -0.27500000000E+03  0.27500000000E+03  0.00000000000E+00 0.  1.
    9000005    2    1    2  501    0  0.35203912863E+02 -0.36141314937E+01 -0.10981538881E+02  0.48556635428E+03  0.48415050634E+03 0.  0.
         13    1    3    3    0    0  0.22195073622E+03  0.11485334250E+03  0.52748990852E+02  0.25541314694E+03  0.00000000000E+00 0.  1.
          1    1    3    3  501    0 -0.18674682336E+03 -0.11846747399E+03 -0.63730529733E+02  0.23015320734E+03  0.00000000000E+00 0.  1.
         21    1    1    2  502  501 -0.35203912863E+02  0.36141314937E+01 -0.15011104266E+02  0.38441002570E+02  0.00000000000E+00 0.  1.
<scales pt_clust_4="550.00000" pt_clust_5="550.00000" pt_clust_6="35.38896"></scales>
<mgrwt>
<rscale>  0 0.30000000E+03</rscale>
<asrwt>  1 0.35388963E+02</asrwt>
<pdfrwt beam="1">  1        1 0.90548130E+00 0.30000000E+03</pdfrwt>
<pdfrwt beam="2">0</pdfrwt>
<totfact> 0.90328426E-05</totfact>
</mgrwt>
<clustering>
<clus scale="   35.389">  1  6  2 -1</clus>
<clus scale="  484.151">  4  5 -1 -1</clus>
<clus scale="  300.000">  1  4  2 -1</clus>
</clustering>
</event>
<event>
 6    1  0.9843879E-012  0.3000000E+03  0.7818608E-02  0.1093470E+00
          1   -1    0    0  502    0  0.00000000000E+00  0.00000000000E+00  0.26283744894E+03  0.26283744894E+03  0.00000000000E+00 0.  1.
         13   -1    0    0    0    0 -0.00000000000E+00 -0.00000000000E+00 -0.27500000000E+03  0.27500000000E+03  0.00000000000E+00 0.  1.
    9000005    2    1    2  501    0 -0.30363344901E+02  0.49658587090E+01 -0.28217901875E+02  0.50313346133E+03  0.50139848170E+03 0.  0.
         13    1    3    3    0    0 -0.22910925683E+03 -0.57874708703E+02 -0.13157966016E+03  0.27046948153E+03  0.00000000000E+00 0.  1.
          1    1    3    3  501    0  0.19874591192E+03  0.62840567412E+02  0.10336175829E+03  0.23266397980E+03  0.00000000000E+00 0.  1.
         21    1    1    2  502  501  0.30363344901E+02 -0.49658587090E+01  0.16055350813E+02  0.34703987610E+02  0.00000000000E+00 0. -1.
<scales pt_clust_4="550.00000" pt_clust_5="550.00000" pt_clust_6="30.76674"></scales>
<mgrwt>
<rscale>  0 0.30000000E+03</rscale>
<asrwt>  1 0.30766743E+02</asrwt>
<pdfrwt beam="1">  1        1 0.95577254E+00 0.30000000E+03</pdfrwt>
<pdfrwt beam="2">0</pdfrwt>
<totfact> 0.95785075E-06</totfact>
</mgrwt>
<clustering>
<clus scale="   30.767">  1  6  2 -1</clus>
<clus scale="  501.398">  4  5 -1 -1</clus>
<clus scale="  300.000">  1  4  2 -1</clus>
</clustering>
</event>
<event>
 6    1  0.9843879E-012  0.3000000E+03  0.7818608E-02  0.1093470E+00
          1   -1    0    0  502    0  0.00000000000E+00  0.00000000000E+00  0.24902508784E+03  0.24902508784E+03  0.00000000000E+00 0.  1.
         13   -1    0    0    0    0 -0.00000000000E+00 -0.00000000000E+00 -0.27500000000E+03  0.27500000000E+03  0.00000000000E+00 0.  1.
    9000005    2    1    2  501    0 -0.27666619820E+02 -0.20536200785E+02 -0.40538906500E+02  0.48661803869E+03  0.48370087373E+03 0.  0.
         13    1    3    3    0    0  0.76815945909E+02 -0.68486828720E+02 -0.23734475814E+03  0.25869609481E+03  0.00000000000E+00 0.  1.
          3    1    3    3  501    0 -0.10448256573E+03  0.47950627935E+02  0.19680585164E+03  0.22792194388E+03  0.00000000000E+00 0.  1.
         21    1    1    2  502  501  0.27666619820E+02  0.20536200785E+02  0.14563994342E+02  0.37407049151E+02  0.00000000000E+00 0.  1.
<scales pt_clust_4="550.00000" pt_clust_5="550.00000" pt_clust_6="34.45544"></scales>
<mgrwt>
<rscale>  0 0.30000000E+03</rscale>
<asrwt>  1 0.34455441E+02</asrwt>
<pdfrwt beam="1">  1        1 0.90554577E+00 0.30000000E+03</pdfrwt>
<pdfrwt beam="2">0</pdfrwt>
<totfact> 0.90517607E-05</totfact>
</mgrwt>
<clustering>
<clus scale="   34.455">  1  6  2 -1</clus>
<clus scale="  483.701">  4  5 -1 -1</clus>
<clus scale="  300.000">  1  4  2 -1</clus>
</clustering>
</event>
<event>
 6    1  0.9843879E-012  0.3000000E+03  0.7818608E-02  0.1093470E+00
          1   -1    0    0  502    0  0.00000000000E+00  0.00000000000E+00  0.24160197128E+03  0.24160197128E+03  0.00000000000E+00 0.  1.
         13   -1    0    0    0    0 -0.00000000000E+00 -0.00000000000E+00 -0.27500000000E+03  0.27500000000E+03  0.00000000000E+00 0.  1.
    9000005    2    1    2  501    0  0.79588979422E+01 -0.32759985413E+02 -0.61709674070E+02  0.47257800096E+03  0.46731715399E+03 0.  0.
         13    1    3    3    0    0  0.13264711220E+03 -0.10296409534E+03 -0.20841409639E+03  0.26764397412E+03  0.00000000000E+00 0.  1.
          3    1    3    3  501    0 -0.12468821426E+03  0.70204109929E+02  0.14670442232E+03  0.20493402684E+03  0.00000000000E+00 0.  1.
         21    1    1    2  502  501 -0.79588979422E+01  0.32759985413E+02  0.28311645351E+02  0.44023970325E+02  0.00000000000E+00 0.  1.
<scales pt_clust_4="550.00000" pt_clust_5="550.00000" pt_clust_6="33.71292"></scales>
<mgrwt>
<rscale>  0 0.30000000E+03</rscale>
<asrwt>  1 0.33712916E+02</asrwt>
<pdfrwt beam="1">  1        1 0.87855262E+00 0.30000000E+03</pdfrwt>
<pdfrwt beam="2">0</pdfrwt>
<totfact> 0.20689750E-04</totfact>
</mgrwt>
<clustering>
<clus scale="   33.713">  1  6  2 -1</clus>
<clus scale="  467.317">  4  5 -1 -1</clus>
<clus scale="  300.000">  1  4  2 -1</clus>
</clustering>
</event>
<event>
 6    1  0.9843879E-012  0.3000000E+03  0.7818608E-02  0.1093470E+00
          1   -1    0    0  502    0  0.00000000000E+00  0.00000000000E+00  0.23556514820E+03  0.23556514820E+03  0.00000000000E+00 0.  1.
         13   -1    0    0    0    0 -0.00000000000E+00 -0.00000000000E+00 -0.27500000000E+03  0.27500000000E+03  0.00000000000E+00 0.  1.
    9000005    2    1    2  501    0  0.32392944791E+02 -0.12222948599E+02 -0.21106191367E+02  0.47139062665E+03  0.46964342670E+03 0.  0.
         13    1    3    3    0    0  0.15809923939E+03 -0.10655724176E+03 -0.16959660056E+03  0.25517214227E+03  0.00000000000E+00 0.  1.
          3    1    3    3  501    0 -0.12570629460E+03  0.94334293160E+02  0.14849040919E+03  0.21621848439E+03  0.00000000000E+00 0.  1.
         21    1    1    2  502  501 -0.32392944791E+02  0.12222948599E+02 -0.18328660437E+02  0.39174521542E+02  0.00000000000E+00 0.  1.
<scales pt_clust_4="550.00000" pt_clust_5="550.00000" pt_clust_6="34.62231"></scales>
<mgrwt>
<rscale>  0 0.30000000E+03</rscale>
<asrwt>  1 0.34622313E+02</asrwt>
<pdfrwt beam="1">  1        1 0.85660054E+00 0.30000000E+03</pdfrwt>
<pdfrwt beam="2">0</pdfrwt>
<totfact> 0.35178088E-04</totfact>
</mgrwt>
<clustering>
<clus scale="   34.622">  1  6  2 -1</clus>
<clus scale="  469.643">  4  5 -1 -1</clus>
<clus scale="  300.000">  1  4  2 -1</clus>
</clustering>
</event>
<event>
 6    1  0.9843879E-012  0.3000000E+03  0.7818608E-02  0.1093470E+00
          1   -1    0    0  502    0  0.00000000000E+00  0.00000000000E+00  0.22467171134E+03  0.22467171134E+03  0.00000000000E+00 0.  1.
         13   -1    0    0    0    0 -0.00000000000E+00 -0.00000000000E+00 -0.27500000000E+03  0.27500000000E+03  0.00000000000E+00 0.  1.
    9000005    2    1    2  501    0 -0.35957898547E+02 -0.13987474938E+01 -0.40003644097E+02  0.46223476104E+03  0.45909231730E+03 0.  0.
         13    1    3    3    0    0  0.18672630053E+03  0.87772205963E+02  0.38405429010E+02  0.20987055160E+03  0.00000000000E+00 0.  1.
          3    1    3    3  501    0 -0.22268419908E+03 -0.89170953457E+02 -0.78409073108E+02  0.25236420944E+03  0.00000000000E+00 0.  1.
         21    1    1    2  502  501  0.35957898547E+02  0.13987474938E+01 -0.10324644565E+02  0.37436950301E+02  0.00000000000E+00 0. -1.
<scales pt_clust_4="550.00000" pt_clust_5="550.00000" pt_clust_6="35.98511"></scales>
<mgrwt>
<rscale>  0 0.30000000E+03</rscale>
<asrwt>  1 0.35985112E+02</asrwt>
<pdfrwt beam="1">  1        1 0.81698804E+00 0.30000000E+03</pdfrwt>
<pdfrwt beam="2">0</pdfrwt>
<totfact> 0.76291296E-04</totfact>
</mgrwt>
<clustering>
<clus scale="   35.985">  1  6  2 -1</clus>
<clus scale="  459.092">  4  5 -1 -1</clus>
<clus scale="  300.000">  1  4  2 -1</clus>
</clustering>
</event>
<event>
 6    1  0.9843879E-012  0.3000000E+03  0.7818608E-02  0.1093470E+00
          1   -1    0    0  502    0  0.00000000000E+00  0.00000000000E+00  0.24480226747E+03  0.24480226747E+03  0.00000000000E+00 0.  1.
         13   -1    0    0    0    0 -0.00000000000E+00 -0.00000000000E+00 -0.27500000000E+03  0.27500000000E+03  0.00000000000E+00 0.  1.
    9000005    2    1    2  501    0  0.30654080654E+01  0.34579505272E+02 -0.12424638321E+02  0.48080198812E+03  0.47938610872E+03 0.  0.
         13    1    3    3    0    0 -0.15753932550E+03  0.43479196260E+01 -0.18506567902E+03  0.24307786619E+03  0.00000000000E+00 0.  1.
          1    1    3    3  501    0  0.16060473356E+03  0.30231585646E+02  0.17264104069E+03  0.23772412193E+03  0.00000000000E+00 0.  1.
         21    1    1    2  502  501 -0.30654080654E+01 -0.34579505272E+02 -0.17773094210E+02  0.39000279349E+02  0.00000000000E+00 0. -1.
<scales pt_clust_4="550.00000" pt_clust_5="550.00000" pt_clust_6="34.71513"></scales>
<mgrwt>
<rscale>  0 0.30000000E+03</rscale>
<asrwt>  1 0.34715128E+02</asrwt>
<pdfrwt beam="1">  1        1 0.89019006E+00 0.30000000E+03</pdfrwt>
<pdfrwt beam="2">0</pdfrwt>
<totfact> 0.14433743E-04</totfact>
</mgrwt>
<clustering>
<clus scale="   34.715">  1  6  2 -1</clus>
<clus scale="  479.386">  4  5 -1 -1</clus>
<clus scale="  300.000">  1  4  2 -1</clus>
</clustering>
</event>
<event>
 6    1  0.9843879E-012  0.3000000E+03  0.7818608E-02  0.1093470E+00
          1   -1    0    0  502    0  0.00000000000E+00  0.00000000000E+00  0.22353910798E+03  0.22353910798E+03  0.00000000000E+00 0.  1.
         13   -1    0    0    0    0 -0.00000000000E+00 -0.00000000000E+00 -0.27500000000E+03  0.27500000000E+03  0.00000000000E+00 0.  1.
    9000005    2    1    2  501    0 -0.32111659212E+02  0.14734865037E+02 -0.52889085599E+02  0.46317931950E+03  0.45879140329E+03 0.  0.
         13    1    3    3    0    0  0.11578201333E+02  0.22799317518E+03 -0.84059576273E+02  0.24327136091E+03  0.00000000000E+00 0.  1.
          3    1    3    3  501    0 -0.43689860545E+02 -0.21325831015E+03  0.31170490674E+02  0.21990795859E+03  0.00000000000E+00 0.  1.
         21    1    1    2  502  501  0.32111659212E+02 -0.14734865037E+02  0.14281935828E+01  0.35359788488E+02  0.00000000000E+00 0.  1.
<scales pt_clust_4="550.00000" pt_clust_5="550.00000" pt_clust_6="35.33093"></scales>
<mgrwt>
<rscale>  0 0.30000000E+03</rscale>
<asrwt>  1 0.35330934E+02</asrwt>
<pdfrwt beam="1">  1        1 0.81286948E+00 0.30000000E+03</pdfrwt>
<pdfrwt beam="2">0</pdfrwt>
<totfact> 0.82650369E-04</totfact>
</mgrwt>
<clustering>
<clus scale="   35.331">  1  6  2 -1</clus>
<clus scale="  458.791">  4  5 -1 -1</clus>
<clus scale="  300.000">  1  4  2 -1</clus>
</clustering>
</event>
<event>
 6    1  0.9843879E-012  0.3000000E+03  0.7818608E-02  0.1093470E+00
          1   -1    0    0  502    0  0.00000000000E+00  0.00000000000E+00  0.24537326240E+03  0.24537326240E+03  0.00000000000E+00 0.  1.
         13   -1    0    0    0    0 -0.00000000000E+00 -0.00000000000E+00 -0.27500000000E+03  0.27500000000E+03  0.00000000000E+00 0.  1.
    9000005    2    1    2  501    0 -0.71057163597E+01 -0.37741530457E+02 -0.22022268393E+02  0.48122300980E+03  0.47918231450E+03 0.  0.
         13    1    3    3    0    0  0.54181181287E+02 -0.23631366937E+03  0.72312037066E+02  0.25299956806E+03  0.00000000000E+00 0.  1.
          1    1    3    3  501    0 -0.61286897647E+02  0.19857213891E+03 -0.94334305460E+02  0.22822344174E+03  0.00000000000E+00 0.  1.
         21    1    1    2  502  501  0.71057163597E+01  0.37741530457E+02 -0.76044692096E+01  0.39150252594E+02  0.00000000000E+00 0.  1.
<scales pt_clust_4="550.00000" pt_clust_5="550.00000" pt_clust_6="38.40463"></scales>
<mgrwt>
<rscale>  0 0.30000000E+03</rscale>
<asrwt>  1 0.38404633E+02</asrwt>
<pdfrwt beam="1">  1        1 0.89226641E+00 0.30000000E+03</pdfrwt>
<pdfrwt beam="2">0</pdfrwt>
<totfact> 0.13332010E-04</totfact>
</mgrwt>
<clustering>
<clus scale="   38.405">  1  6  2 -1</clus>
<clus scale="  479.182">  4  5 -1 -1</clus>
<clus scale="  300.000">  1  4  2 -1</clus>
</clustering>
</event>
<event>
 6    1  0.9843879E-012  0.3000000E+03  0.7818608E-02  0.1093470E+00
          1   -1    0    0  502    0  0.00000000000E+00  0.00000000000E+00  0.25027575861E+03  0.25027575861E+03  0.00000000000E+00 0.  1.
         13   -1    0    0    0    0 -0.00000000000E+00 -0.00000000000E+00 -0.27500000000E+03  0.27500000000E+03  0.00000000000E+00 0.  1.
    9000005    2    1    2  501    0 -0.44320215626E+02 -0.30766557057E+01  0.46211614363E+01  0.47203197971E+03  0.46991391490E+03 0.  0.
         13    1    3    3    0    0 -0.11022398156E+03 -0.52574974142E+02  0.21434544763E+03  0.24669297707E+03  0.00000000000E+00 0.  1.
          1    1    3    3  501    0  0.65903765933E+02  0.49498318437E+02 -0.20972428619E+03  0.22533900264E+03  0.00000000000E+00 0.  1.
         21    1    1    2  502  501  0.44320215626E+02  0.30766557057E+01 -0.29345402831E+02  0.53243778893E+02  0.00000000000E+00 0. -1.
<scales pt_clust_4="550.00000" pt_clust_5="550.00000" pt_clust_6="44.42690"></scales>
<mgrwt>
<rscale>  0 0.30000000E+03</rscale>
<asrwt>  1 0.44426898E+02</asrwt>
<pdfrwt beam="1">  1        1 0.91009367E+00 0.30000000E+03</pdfrwt>
<pdfrwt beam="2">0</pdfrwt>
<totfact> 0.68429588E-05</totfact>
</mgrwt>
<clustering>
<clus scale="   44.427">  1  6  2 -1</clus>
<clus scale="  469.914">  4  5 -1 -1</clus>
<clus scale="  300.000">  1  4  2 -1</clus>
</clustering>
</event>
<event>
 6    1  0.9843879E-012  0.3000000E+03  0.7818608E-02  0.1093470E+00
          1   -1    0    0  502    0  0.00000000000E+00  0.00000000000E+00  0.23346083383E+03  0.23346083383E+03  0.00000000000E+00 0.  1.
         13   -1    0    0    0    0 -0.00000000000E+00 -0.00000000000E+00 -0.27500000000E+03  0.27500000000E+03  0.00000000000E+00 0.  1.
    9000005    2    1    2  501    0  0.32660557596E+02  0.44750723340E+01 -0.42950314707E+02  0.47546493052E+03  0.47237213331E+03 0.  0.
         13    1    3    3    0    0  0.19448905577E+03 -0.10144526496E+03  0.93824028031E+02  0.23857930093E+03  0.00000000000E+00 0.  1.
          3    1    3    3  501    0 -0.16182849817E+03  0.10592033730E+03 -0.13677434274E+03  0.23688562959E+03  0.00000000000E+00 0.  1.
         21    1    1    2  502  501 -0.32660557596E+02 -0.44750723340E+01  0.14111485340E+01  0.32995903307E+02  0.00000000000E+00 0.  1.
<scales pt_clust_4="550.00000" pt_clust_5="550.00000" pt_clust_6="32.96571"></scales>
<mgrwt>
<rscale>  0 0.30000000E+03</rscale>
<asrwt>  1 0.32965714E+02</asrwt>
<pdfrwt beam="1">  1        1 0.84894849E+00 0.30000000E+03</pdfrwt>
<pdfrwt beam="2">0</pdfrwt>
<totfact> 0.42099440E-04</totfact>
</mgrwt>
<clustering>
<clus scale="   32.966">  1  6  2 -1</clus>
<clus scale="  472.372">  4  5 -1 -1</clus>
<clus scale="  300.000">  1  4  2 -1</clus>
</clustering>
</event>
<event>
 6    1  0.9843879E-012  0.3000000E+03  0.7818608E-02  0.1093470E+00
          1   -1    0    0  502    0  0.00000000000E+00  0.00000000000E+00  0.26245350913E+03  0.26245350913E+03  0.00000000000E+00 0.  1.
         13   -1    0    0    0    0 -0.00000000000E+00 -0.00000000000E+00 -0.27500000000E+03  0.27500000000E+03  0.00000000000E+00 0.  1.
    9000005    2    1    2  501    0 -0.34126600753E+02 -0.97567900959E+00 -0.39849567096E+02  0.49373812511E+03  0.49094171890E+03 0.  0.
         13    1    3    3    0    0 -0.13722898537E+03  0.16683604906E+03  0.11359193172E+03  0.24406800004E+03  0.00000000000E+00 0.  1.
          3    1    3    3  501    0  0.10310238462E+03 -0.16781172807E+03 -0.15344149881E+03  0.24967012507E+03  0.00000000000E+00 0.  1.
         21    1    1    2  502  501  0.34126600753E+02  0.97567900959E+00  0.27303076222E+02  0.43715384016E+02  0.00000000000E+00 0.  1.
<scales pt_clust_4="550.00000" pt_clust_5="550.00000" pt_clust_6="34.14055"></scales>
<mgrwt>
<rscale>  0 0.30000000E+03</rscale>
<asrwt>  1 0.34140545E+02</asrwt>
<pdfrwt beam="1">  1        1 0.95437640E+00 0.30000000E+03</pdfrwt>
<pdfrwt beam="2">0</pdfrwt>
<totfact> 0.10053429E-05</totfact>
</mgrwt>
<clustering>
<clus scale="   34.141">  1  6  2 -1</clus>
<clus scale="  490.942">  4  5 -1 -1</clus>
<clus scale="  300.000">  1  4  2 -1</clus>
</clustering>
</event>
<event>
 6    1  0.9843879E-012  0.3000000E+03  0.7818608E-02  0.1093470E+00
          1   -1    0    0  502    0  0.00000000000E+00  0.00000000000E+00  0.23195737166E+03  0.23195737166E+03  0.00000000000E+00 0.  1.
         13   -1    0    0    0    0 -0.00000000000E+00 -0.00000000000E+00 -0.27500000000E+03  0.27500000000E+03  0.00000000000E+00 0.  1.
    9000005    2    1    2  501    0 -0.31627426499E+02 -0.24745601611E+02 -0.20823602389E+02  0.46106266586E+03  0.45883822914E+03 0.  0.
         13    1    3    3    0    0 -0.22025783326E+03  0.48273882297E+02  0.74475249422E+02  0.23746672104E+03  0.00000000000E+00 0.  1.
          3    1    3    3  501    0  0.18863040676E+03 -0.73019483908E+02 -0.95298851811E+02  0.22359594482E+03  0.00000000000E+00 0.  1.
         21    1    1    2  502  501  0.31627426499E+02  0.24745601611E+02 -0.22219025955E+02  0.45894705800E+02  0.00000000000E+00 0.  1.
<scales pt_clust_4="550.00000" pt_clust_5="550.00000" pt_clust_6="40.15770"></scales>
<mgrwt>
<rscale>  0 0.30000000E+03</rscale>
<asrwt>  1 0.40157696E+02</asrwt>
<pdfrwt beam="1">  1        1 0.84348135E+00 0.30000000E+03</pdfrwt>
<pdfrwt beam="2">0</pdfrwt>
<totfact> 0.45398151E-04</totfact>
</mgrwt>
<clustering>
<clus scale="   40.158">  1  6  2 -1</clus>
<clus scale="  458.838">  4  5 -1 -1</clus>
<clus scale="  300.000">  1  4  2 -1</clus>
</clustering>
</event>
<event>
 6    1  0.9843879E-012  0.3000000E+03  0.7818608E-02  0.1093470E+00
          1   -1    0    0  502    0  0.00000000000E+00  0.00000000000E+00  0.22678766201E+03  0.22678766201E+03  0.00000000000E+00 0.  1.
         13   -1    0    0    0    0 -0.00000000000E+00 -0.00000000000E+00 -0.27500000000E+03  0.27500000000E+03  0.00000000000E+00 0.  1.
    9000005    2    1    2  501    0 -0.15889829629E+02 -0.29552408909E+02 -0.51512892639E+02  0.46807230617E+03  0.46401753646E+03 0.  0.
         13    1    3    3    0    0  0.60457593423E+02 -0.70299513660E+02  0.19005741467E+03  0.21146858654E+03  0.00000000000E+00 0.  1.
          1    1    3    3  501    0 -0.76347423052E+02  0.40747104751E+02 -0.24157030731E+03  0.25660371963E+03  0.00000000000E+00 0.  1.
         21    1    1    2  502  501  0.15889829629E+02  0.29552408909E+02  0.33005546443E+01  0.33715355833E+02  0.00000000000E+00 0. -1.
<scales pt_clust_4="550.00000" pt_clust_5="550.00000" pt_clust_6="33.55341"></scales>
<mgrwt>
<rscale>  0 0.30000000E+03</rscale>
<asrwt>  1 0.33553414E+02</asrwt>
<pdfrwt beam="1">  1        1 0.82468241E+00 0.30000000E+03</pdfrwt>
<pdfrwt beam="2">0</pdfrwt>
<totfact> 0.66268266E-04</totfact>
</mgrwt>
<clustering>
<clus scale="   33.553">  1  6  2 -1</clus>
<clus scale="  464.018">  4  5 -1 -1</clus>
<clus scale="  300.000">  1  4  2 -1</clus>
</clustering>
</event>
<event>
 6    1  0.9843879E-012  0.3000000E+03  0.7818608E-02  0.1093470E+00
          1   -1    0    0  502    0  0.00000000000E+00  0.00000000000E+00  0.21872525557E+03  0.21872525557E+03  0.00000000000E+00 0.  1.
         13   -1    0    0    0    0 -0.00000000000E+00 -0.00000000000E+00 -0.27500000000E+03  0.27500000000E+03  0.00000000000E+00 0.  1.
    9000005    2    1    2  501    0  0.24459970726E+02 -0.20805673878E+02 -0.56149910728E+02  0.46161323575E+03  0.45705885914E+03 0.  0.
         13    1    3    3    0    0 -0.15540666582E+03 -0.14549997414E+03 -0.10498707360E+03  0.23736840540E+03  0.00000000000E+00 0.  1.
          1    1    3    3  501    0  0.17986663655E+03  0.12469430027E+03  0.48837162874E+02  0.22424483035E+03  0.00000000000E+00 0.  1.
         21    1    1    2  502  501 -0.24459970726E+02  0.20805673878E+02 -0.12483369998E+00  0.32112019819E+02  0.00000000000E+00 0.  1.
<scales pt_clust_4="550.00000" pt_clust_5="550.00000" pt_clust_6="32.11178"></scales>
<mgrwt>
<rscale>  0 0.30000000E+03</rscale>
<asrwt>  1 0.32111777E+02</asrwt>
<pdfrwt beam="1">  1        1 0.79536457E+00 0.30000000E+03</pdfrwt>
<pdfrwt beam="2">0</pdfrwt>
<totfact> 0.11394093E-03</totfact>
</mgrwt>
<clustering>
<clus scale="   32.112">  1  6  2 -1</clus>
<clus scale="  457.059">  4  5 -1 -1</clus>
<clus scale="  300.000">  1  4  2 -1</clus>
</clustering>
</event>
<event>
 6    1  0.9843879E-012  0.3000000E+03  0.7818608E-02  0.1093470E+00
          1   -1    0    0  502    0  0.00000000000E+00  0.00000000000E+00  0.23761122759E+03  0.23761122759E+03  0.00000000000E+00 0.  1.
         13   -1    0    0    0    0 -0.00000000000E+00 -0.00000000000E+00 -0.27500000000E+03  0.27500000000E+03  0.00000000000E+00 0.  1.
    9000005    2    1    2  501    0  0.41880922364E+02  0.10634344638E+02 -0.17129422545E+02  0.46488762546E+03  0.46255808959E+03 0.  0.
         13    1    3    3    0    0  0.25009582832E+03  0.56678191839E+01 -0.46832647206E+02  0.25450607923E+03  0.00000000000E+00 0.  1.
          1    1    3    3  501    0 -0.20821490596E+03  0.49665254546E+01  0.29703224661E+02  0.21038154623E+03  0.00000000000E+00 0.  1.
         21    1    1    2  502  501 -0.41880922364E+02 -0.10634344638E+02 -0.20259349860E+02  0.47723602135E+02  0.00000000000E+00 0.  1.
<scales pt_clust_4="550.00000" pt_clust_5="550.00000" pt_clust_6="43.20999"></scales>
<mgrwt>
<rscale>  0 0.30000000E+03</rscale>
<asrwt>  1 0.43209985E+02</asrwt>
<pdfrwt beam="1">  1        1 0.86404083E+00 0.30000000E+03</pdfrwt>
<pdfrwt beam="2">0</pdfrwt>
<totfact> 0.28149564E-04</totfact>
</mgrwt>
<clustering>
<clus scale="   43.210">  1  6  2 -1</clus>
<clus scale="  462.558">  4  5 -1 -1</clus>
<clus scale="  300.000">  1  4  2 -1</clus>
</clustering>
</event>
<event>
 6    1  0.9843879E-012  0.3000000E+03  0.7818608E-02  0.1093470E+00
          1   -1    0    0  502    0  0.00000000000E+00  0.00000000000E+00  0.23011405057E+03  0.23011405057E+03  0.00000000000E+00 0.  1.
         13   -1    0    0    0    0 -0.00000000000E+00 -0.00000000000E+00 -0.27500000000E+03  0.27500000000E+03  0.00000000000E+00 0.  1.
    9000005    2    1    2  501    0 -0.34236028485E+02 -0.16769129885E+02 -0.36617483563E+02  0.46610537344E+03  0.46309833695E+03 0.  0.
         13    1    3    3    0    0  0.80089971639E+02  0.18612312059E+03  0.63889532679E+02  0.21245727091E+03  0.00000000000E+00 0.  1.
          3    1    3    3  501    0 -0.11432600012E+03 -0.20289225047E+03 -0.10050701624E+03  0.25364810254E+03  0.00000000000E+00 0.  1.
         21    1    1    2  502  501  0.34236028485E+02  0.16769129885E+02 -0.82684658651E+01  0.39008677129E+02  0.00000000000E+00 0.  1.
<scales pt_clust_4="550.00000" pt_clust_5="550.00000" pt_clust_6="38.12231"></scales>
<mgrwt>
<rscale>  0 0.30000000E+03</rscale>
<asrwt>  1 0.38122314E+02</asrwt>
<pdfrwt beam="1">  1        1 0.83677837E+00 0.30000000E+03</pdfrwt>
<pdfrwt beam="2">0</pdfrwt>
<totfact> 0.51686986E-04</totfact>
</mgrwt>
<clustering>
<clus scale="   38.122">  1  6  2 -1</clus>
<clus scale="  463.098">  4  5 -1 -1</clus>
<clus scale="  300.000">  1  4  2 -1</clus>
</clustering>
</event>
<event>
 6    1  0.9843879E-012  0.3000000E+03  0.7818608E-02  0.1093470E+00
          1   -1    0    0  502    0  0.00000000000E+00  0.00000000000E+00  0.24137374340E+03  0.24137374340E+03  0.00000000000E+00 0.  1.
         13   -1    0    0    0    0 -0.00000000000E+00 -0.00000000000E+00 -0.27500000000E+03  0.27500000000E+03  0.00000000000E+00 0.  1.
    9000005    2    1    2  501    0 -0.38472340107E+02 -0.24346746447E+02 -0.40566218910E+02  0.47031890552E+03  0.46634897851E+03 0.  0.
         13    1    3    3    0    0  0.13506229810E+03 -0.46429242185E+02 -0.19176022040E+03  0.23910140323E+03  0.00000000000E+00 0.  1.
          1    1    3    3  501    0 -0.17353463821E+03  0.22082495738E+02  0.15119400149E+03  0.23121750229E+03  0.00000000000E+00 0.  1.
         21    1    1    2  502  501  0.38472340107E+02  0.24346746447E+02  0.69399623132E+01  0.46054837887E+02  0.00000000000E+00 0.  1.
<scales pt_clust_4="550.00000" pt_clust_5="550.00000" pt_clust_6="45.52895"></scales>
<mgrwt>
<rscale>  0 0.30000000E+03</rscale>
<asrwt>  1 0.45528947E+02</asrwt>
<pdfrwt beam="1">  1        1 0.87772270E+00 0.30000000E+03</pdfrwt>
<pdfrwt beam="2">0</pdfrwt>
<totfact> 0.20017974E-04</totfact>
</mgrwt>
<clustering>
<clus scale="   45.529">  1  6  2 -1</clus>
<clus scale="  466.349">  4  5 -1 -1</clus>
<clus scale="  300.000">  1  4  2 -1</clus>
</clustering>
</event>
<event>
 6    1  0.9843879E-012  0.3000000E+03  0.7818608E-02  0.1093470E+00
          1   -1    0    0  502    0  0.00000000000E+00  0.00000000000E+00  0.24710326809E+03  0.24710326809E+03  0.00000000000E+00 0.  1.
         13   -1    0    0    0    0 -0.00000000000E+00 -0.00000000000E+00 -0.27500000000E+03  0.27500000000E+03  0.00000000000E+00 0.  1.
    9000005    2    1    2  501    0  0.66516870897E+01  0.30025865447E+02 -0.42218258546E+02  0.48817829702E+03  0.48537600970E+03 0.  0.
         13    1    3    3    0    0 -0.67147556818E+02  0.79570409572E+02  0.20256490205E+03  0.22775597469E+03  0.00000000000E+00 0.  1.
          1    1    3    3  501    0  0.73799243908E+02 -0.49544544124E+02 -0.24478316060E+03  0.26042232232E+03  0.00000000000E+00 0.  1.
         21    1    1    2  502  501 -0.66516870897E+01 -0.30025865447E+02  0.14321526635E+02  0.33924971071E+02  0.00000000000E+00 0. -1.
<scales pt_clust_4="550.00000" pt_clust_5="550.00000" pt_clust_6="30.75382"></scales>
<mgrwt>
<rscale>  0 0.30000000E+03</rscale>
<asrwt>  1 0.30753822E+02</asrwt>
<pdfrwt beam="1">  1        1 0.89855734E+00 0.30000000E+03</pdfrwt>
<pdfrwt beam="2">0</pdfrwt>
<totfact> 0.11781651E-04</totfact>
</mgrwt>
<clustering>
<clus scale="   30.754">  1  6  2 -1</clus>
<clus scale="  485.376">  4  5 -1 -1</clus>
<clus scale="  300.000">  1  4  2 -1</clus>
</clustering>
</event>
<event>
 6    1  0.9843879E-012  0.3000000E+03  0.7818608E-02  0.1093470E+00
          1   -1    0    0  502    0  0.00000000000E+00  0.00000000000E+00  0.23006059982E+03  0.23006059982E+03  0.00000000000E+00 0.  1.
         13   -1    0    0    0    0 -0.00000000000E+00 -0.00000000000E+00 -0.27500000000E+03  0.27500000000E+03  0.00000000000E+00 0.  1.
    9000005    2    1    2  501    0  0.10813062629E+02 -0.34024901991E+02 -0.40871150969E+02  0.46912778848E+03  0.46597834141E+03 0.  0.
         13    1    3    3    0    0 -0.35833082015E+01 -0.21980779936E+03 -0.13742684354E+03  0.25925748992E+03  0.00000000000E+00 0.  1.
          1    1    3    3  501    0  0.14396370830E+02  0.18578289737E+03  0.96555692569E+02  0.20987029855E+03  0.00000000000E+00 0.  1.
         21    1    1    2  502  501 -0.10813062629E+02  0.34024901991E+02 -0.40682492145E+01  0.35932811337E+02  0.00000000000E+00 0.  1.
<scales pt_clust_4="550.00000" pt_clust_5="550.00000" pt_clust_6="35.70179"></scales>
<mgrwt>
<rscale>  0 0.30000000E+03</rscale>
<asrwt>  1 0.35701786E+02</asrwt>
<pdfrwt beam="1">  1        1 0.83658400E+00 0.30000000E+03</pdfrwt>
<pdfrwt beam="2">0</pdfrwt>
<totfact> 0.52489249E-04</totfact>
</mgrwt>
<clustering>
<clus scale="   35.702">  1  6  2 -1</clus>
<clus scale="  465.978">  4  5 -1 -1</clus>
<clus scale="  300.000">  1  4  2 -1</clus>
</clustering>
</event>
<event>
 6    1  0.9843879E-012  0.3000000E+03  0.7818608E-02  0.1093470E+00
          1   -1    0    0  502    0  0.00000000000E+00  0.00000000000E+00  0.22754560781E+03  0.22754560781E+03  0.00000000000E+00 0.  1.
         13   -1    0    0    0    0 -0.00000000000E+00 -0.00000000000E+00 -0.27500000000E+03  0.27500000000E+03  0.00000000000E+00 0.  1.
    9000005    2    1    2  501    0  0.19514009631E+02 -0.27500957294E+02 -0.36844150036E+02  0.46719484456E+03  0.46451741858E+03 0.  0.
         13    1    3    3    0    0 -0.69685977995E+02 -0.18847417986E+03  0.11240519870E+03  0.23024678216E+03  0.00000000000E+00 0.  1.
          3    1    3    3  501    0  0.89199987627E+02  0.16097322257E+03 -0.14924934873E+03  0.23694806240E+03  0.00000000000E+00 0.  1.
         21    1    1    2  502  501 -0.19514009631E+02  0.27500957294E+02 -0.10610242151E+02  0.35350763252E+02  0.00000000000E+00 0. -1.
<scales pt_clust_4="550.00000" pt_clust_5="550.00000" pt_clust_6="33.72092"></scales>
<mgrwt>
<rscale>  0 0.30000000E+03</rscale>
<asrwt>  1 0.33720919E+02</asrwt>
<pdfrwt beam="1">  1        1 0.82743857E+00 0.30000000E+03</pdfrwt>
<pdfrwt beam="2">0</pdfrwt>
<totfact> 0.62585547E-04</totfact>
</mgrwt>
<clustering>
<clus scale="   33.721">  1  6  2 -1</clus>
<clus scale="  464.517">  4  5 -1 -1</clus>
<clus scale="  300.000">  1  4  2 -1</clus>
</clustering>
</event>
<event>
 6    1  0.9843879E-012  0.3000000E+03  0.7818608E-02  0.1093470E+00
          1   -1    0    0  502    0  0.00000000000E+00  0.00000000000E+00  0.24522015058E+03  0.24522015058E+03  0.00000000000E+00 0.  1.
         13   -1    0    0    0    0 -0.00000000000E+00 -0.00000000000E+00 -0.27500000000E+03  0.27500000000E+03  0.00000000000E+00 0.  1.
    9000005    2    1    2  501    0 -0.40778283490E+02 -0.18092576268E+02 -0.49035909856E+02  0.47162997067E+03  0.46694764059E+03 0.  0.
         13    1    3    3    0    0  0.10879256888E+03 -0.92377912658E+02 -0.20054248743E+03  0.24614384220E+03  0.00000000000E+00 0.  1.
          1    1    3    3  501    0 -0.14957085237E+03  0.74285336390E+02  0.15150657757E+03  0.22548612846E+03  0.00000000000E+00 0.  1.
         21    1    1    2  502  501  0.40778283490E+02  0.18092576268E+02  0.19256060436E+02  0.48590179913E+02  0.00000000000E+00 0.  1.
<scales pt_clust_4="550.00000" pt_clust_5="550.00000" pt_clust_6="44.61177"></scales>
<mgrwt>
<rscale>  0 0.30000000E+03</rscale>
<asrwt>  1 0.44611767E+02</asrwt>
<pdfrwt beam="1">  1        1 0.89170964E+00 0.30000000E+03</pdfrwt>
<pdfrwt beam="2">0</pdfrwt>
<totfact> 0.13180188E-04</totfact>
</mgrwt>
<clustering>
<clus scale="   44.612">  1  6  2 -1</clus>
<clus scale="  466.948">  4  5 -1 -1</clus>
<clus scale="  300.000">  1  4  2 -1</clus>
</clustering>
</event>
<event>
 6    1  0.9843879E-012  0.3000000E+03  0.7818608E-02  0.1093470E+00
          1   -1    0    0  502    0  0.00000000000E+00  0.00000000000E+00  0.24041781464E+03  0.24041781464E+03  0.00000000000E+00 0.  1.
         13   -1    0    0    0    0 -0.00000000000E+00 -0.00000000000E+00 -0.27500000000E+03  0.27500000000E+03  0.00000000000E+00 0.  1.
    9000005    2    1    2  501    0  0.35398103924E+02 -0.34004223413E+02 -0.62128915967E+01  0.45872451874E+03  0.45604854029E+03 0.  0.
         13    1    3    3    0    0  0.34683410312E+02  0.20507995193E+03 -0.54050546318E+02  0.21490041227E+03  0.00000000000E+00 0.  1.
          3    1    3    3  501    0  0.71469361225E+00 -0.23908417535E+03  0.47837654722E+02  0.24382410647E+03  0.00000000000E+00 0.  1.
         21    1    1    2  502  501 -0.35398103924E+02  0.34004223413E+02 -0.28369293761E+02  0.56693295898E+02  0.00000000000E+00 0. -1.
<scales pt_clust_4="550.00000" pt_clust_5="550.00000" pt_clust_6="49.08478"></scales>
<mgrwt>
<rscale>  0 0.30000000E+03</rscale>
<asrwt>  1 0.49084777E+02</asrwt>
<pdfrwt beam="1">  1        1 0.87424660E+00 0.30000000E+03</pdfrwt>
<pdfrwt beam="2">0</pdfrwt>
<totfact> 0.21543739E-04</totfact>
</mgrwt>
<clustering>
<clus scale="   49.085">  1  6  2 -1</clus>
<clus scale="  456.049">  4  5 -1 -1</clus>
<clus scale="  300.000">  1  4  2 -1</clus>
</clustering>
</event>
<event>
 6    1  0.9843879E-012  0.3000000E+03  0.7818608E-02  0.1093470E+00
          1   -1    0    0  502    0  0.00000000000E+00  0.00000000000E+00  0.22542672994E+03  0.22542672994E+03  0.00000000000E+00 0.  1.
         13   -1    0    0    0    0 -0.00000000000E+00 -0.00000000000E+00 -0.27500000000E+03  0.27500000000E+03  0.00000000000E+00 0.  1.
    9000005    2    1    2  501    0  0.29611704722E+02  0.14041086566E+02 -0.58967810613E+02  0.46633475786E+03  0.46142919124E+03 0.  0.
         13    1    3    3    0    0  0.18933743130E+03  0.10712055951E+03  0.83423011770E+02  0.23298685812E+03  0.00000000000E+00 0.  1.
          1    1    3    3  501    0 -0.15972572658E+03 -0.93079472943E+02 -0.14239082238E+03  0.23334789974E+03  0.00000000000E+00 0.  1.
         21    1    1    2  502  501 -0.29611704722E+02 -0.14041086566E+02  0.93945405558E+01  0.34091972086E+02  0.00000000000E+00 0. -1.
<scales pt_clust_4="550.00000" pt_clust_5="550.00000" pt_clust_6="32.77202"></scales>
<mgrwt>
<rscale>  0 0.30000000E+03</rscale>
<asrwt>  1 0.32772018E+02</asrwt>
<pdfrwt beam="1">  1        1 0.81973356E+00 0.30000000E+03</pdfrwt>
<pdfrwt beam="2">0</pdfrwt>
<totfact> 0.73619062E-04</totfact>
</mgrwt>
<clustering>
<clus scale="   32.772">  1  6  2 -1</clus>
<clus scale="  461.429">  4  5 -1 -1</clus>
<clus scale="  300.000">  1  4  2 -1</clus>
</clustering>
</event>
<event>
 6    1  0.9843879E-012  0.3000000E+03  0.7818608E-02  0.1093470E+00
          1   -1    0    0  502    0  0.00000000000E+00  0.00000000000E+00  0.25290683660E+03  0.25290683660E+03  0.00000000000E+00 0.  1.
         13   -1    0    0    0    0 -0.00000000000E+00 -0.00000000000E+00 -0.27500000000E+03  0.27500000000E+03  0.00000000000E+00 0.  1.
    9000005    2    1    2  501    0 -0.26995585335E+02  0.18227970808E+02 -0.70165123128E+02  0.46983848154E+03  0.46342640590E+03 0.  0.
         13    1    3    3    0    0  0.47560610353E+02  0.23220170893E+03 -0.50931927180E+02  0.24243289070E+03  0.00000000000E+00 0.  1.
          3    1    3    3  501    0 -0.74556195688E+02 -0.21397373812E+03 -0.19233195948E+02  0.22740559084E+03  0.00000000000E+00 0.  1.
         21    1    1    2  502  501  0.26995585335E+02 -0.18227970808E+02  0.48071959727E+02  0.58068355060E+02  0.00000000000E+00 0.  1.
<scales pt_clust_4="550.00000" pt_clust_5="550.00000" pt_clust_6="32.57331"></scales>
<mgrwt>
<rscale>  0 0.30000000E+03</rscale>
<asrwt>  1 0.32573310E+02</asrwt>
<pdfrwt beam="1">  1        1 0.91966122E+00 0.30000000E+03</pdfrwt>
<pdfrwt beam="2">0</pdfrwt>
<totfact> 0.43094740E-05</totfact>
</mgrwt>
<clustering>
<clus scale="   32.573">  1  6  2 -1</clus>
<clus scale="  463.426">  4  5 -1 -1</clus>
<clus scale="  300.000">  1  4  2 -1</clus>
</clustering>
</event>
<event>
 6    1  0.9843879E-012  0.3000000E+03  0.7818608E-02  0.1093470E+00
          1   -1    0    0  502    0  0.00000000000E+00  0.00000000000E+00  0.23137292384E+03  0.23137292384E+03  0.00000000000E+00 0.  1.
         13   -1    0    0    0    0 -0.00000000000E+00 -0.00000000000E+00 -0.27500000000E+03  0.27500000000E+03  0.00000000000E+00 0.  1.
    9000005    2    1    2  501    0 -0.22485057333E+02  0.22996239572E+02 -0.50750180102E+02  0.47343140827E+03  0.46960335681E+03 0.  0.
         13    1    3    3    0    0 -0.35522645114E+02  0.24515060633E+03 -0.37132433614E+02  0.25047853347E+03  0.00000000000E+00 0.  1.
          3    1    3    3  501    0  0.13037587781E+02 -0.22215436676E+03 -0.13617746488E+02  0.22295287481E+03  0.00000000000E+00 0.  1.
         21    1    1    2  502  501  0.22485057333E+02 -0.22996239572E+02  0.71231039376E+01  0.32941515561E+02  0.00000000000E+00 0. -1.
<scales pt_clust_4="550.00000" pt_clust_5="550.00000" pt_clust_6="32.16216"></scales>
<mgrwt>
<rscale>  0 0.30000000E+03</rscale>
<asrwt>  1 0.32162165E+02</asrwt>
<pdfrwt beam="1">  1        1 0.84135609E+00 0.30000000E+03</pdfrwt>
<pdfrwt beam="2">0</pdfrwt>
<totfact> 0.49279509E-04</totfact>
</mgrwt>
<clustering>
<clus scale="   32.162">  1  6  2 -1</clus>
<clus scale="  469.603">  4  5 -1 -1</clus>
<clus scale="  300.000">  1  4  2 -1</clus>
</clustering>
</event>
<event>
 6    1  0.9843879E-012  0.3000000E+03  0.7818608E-02  0.1093470E+00
          1   -1    0    0  502    0  0.00000000000E+00  0.00000000000E+00  0.25963500381E+03  0.25963500381E+03  0.00000000000E+00 0.  1.
         13   -1    0    0    0    0 -0.00000000000E+00 -0.00000000000E+00 -0.27500000000E+03  0.27500000000E+03  0.00000000000E+00 0.  1.
    9000005    2    1    2  501    0 -0.64851273570E+01  0.41345664980E+02 -0.32809570914E+02  0.48929369729E+03  0.48639524399E+03 0.  0.
         13    1    3    3    0    0 -0.14841531886E+03  0.19272992574E+03  0.76177478827E+02  0.25490182312E+03  0.00000000000E+00 0.  1.
          3    1    3    3  501    0  0.14193019151E+03 -0.15138426076E+03 -0.10898704974E+03  0.23439187417E+03  0.00000000000E+00 0.  1.
         21    1    1    2  502  501  0.64851273570E+01 -0.41345664980E+02  0.17444574719E+02  0.45341306516E+02  0.00000000000E+00 0.  1.
<scales pt_clust_4="550.00000" pt_clust_5="550.00000" pt_clust_6="41.85118"></scales>
<mgrwt>
<rscale>  0 0.30000000E+03</rscale>
<asrwt>  1 0.41851175E+02</asrwt>
<pdfrwt beam="1">  1        1 0.94412729E+00 0.30000000E+03</pdfrwt>
<pdfrwt beam="2">0</pdfrwt>
<totfact> 0.15633892E-05</totfact>
</mgrwt>
<clustering>
<clus scale="   41.851">  1  6  2 -1</clus>
<clus scale="  486.395">  4  5 -1 -1</clus>
<clus scale="  300.000">  1  4  2 -1</clus>
</clustering>
</event>
<event>
 6    1  0.9843879E-012  0.3000000E+03  0.7818608E-02  0.1093470E+00
          1   -1    0    0  502    0  0.00000000000E+00  0.00000000000E+00  0.23913381212E+03  0.23913381212E+03  0.00000000000E+00 0.  1.
         13   -1    0    0    0    0 -0.00000000000E+00 -0.00000000000E+00 -0.27500000000E+03  0.27500000000E+03  0.00000000000E+00 0.  1.
    9000005    2    1    2  501    0 -0.23773322103E+01  0.37672103208E+02 -0.60586656090E+02  0.46901241346E+03  0.46354833838E+03 0.  0.
         13    1    3    3    0    0  0.14852039787E+03  0.53047074213E+02 -0.20563056652E+03  0.25914519203E+03  0.00000000000E+00 0.  1.
          1    1    3    3  501    0 -0.15089773008E+03 -0.15374971005E+02  0.14504391043E+03  0.20986722143E+03  0.00000000000E+00 0.  1.
         21    1    1    2  502  501  0.23773322103E+01 -0.37672103208E+02  0.24720468213E+02  0.45121398662E+02  0.00000000000E+00 0.  1.
<scales pt_clust_4="550.00000" pt_clust_5="550.00000" pt_clust_6="37.74704"></scales>
<mgrwt>
<rscale>  0 0.30000000E+03</rscale>
<asrwt>  1 0.37747041E+02</asrwt>
<pdfrwt beam="1">  1        1 0.86957750E+00 0.30000000E+03</pdfrwt>
<pdfrwt beam="2">0</pdfrwt>
<totfact> 0.25222065E-04</totfact>
</mgrwt>
<clustering>
<clus scale="   37.747">  1  6  2 -1</clus>
<clus scale="  463.548">  4  5 -1 -1</clus>
<clus scale="  300.000">  1  4  2 -1</clus>
</clustering>
</event>
<event>
 6    1  0.9843879E-012  0.3000000E+03  0.7818608E-02  0.1093470E+00
          1   -1    0    0  502    0  0.00000000000E+00  0.00000000000E+00  0.22618098186E+03  0.22618098186E+03  0.00000000000E+00 0.  1.
         13   -1    0    0    0    0 -0.00000000000E+00 -0.00000000000E+00 -0.27500000000E+03  0.27500000000E+03  0.00000000000E+00 0.  1.
    9000005    2    1    2  501    0 -0.35500505510E+02  0.16095737155E+02 -0.41715097218E+02  0.46155997306E+03  0.45801539357E+03 0.  0.
         13    1    3    3    0    0  0.19623629010E+02  0.21317286207E+03 -0.11645220638E+03  0.24369832234E+03  0.00000000000E+00 0.  1.
          3    1    3    3  501    0 -0.55124134521E+02 -0.19707712492E+03  0.74737109160E+02  0.21786165073E+03  0.00000000000E+00 0.  1.
         21    1    1    2  502  501  0.35500505510E+02 -0.16095737155E+02 -0.71039209185E+01  0.39621008802E+02  0.00000000000E+00 0. -1.
<scales pt_clust_4="550.00000" pt_clust_5="550.00000" pt_clust_6="38.97897"></scales>
<mgrwt>
<rscale>  0 0.30000000E+03</rscale>
<asrwt>  1 0.38978971E+02</asrwt>
<pdfrwt beam="1">  1        1 0.82247630E+00 0.30000000E+03</pdfrwt>
<pdfrwt beam="2">0</pdfrwt>
<totfact> 0.67435838E-04</totfact>
</mgrwt>
<clustering>
<clus scale="   38.979">  1  6  2 -1</clus>
<clus scale="  458.015">  4  5 -1 -1</clus>
<clus scale="  300.000">  1  4  2 -1</clus>
</clustering>
</event>
<event>
 6    1  0.9843879E-012  0.3000000E+03  0.7818608E-02  0.1093470E+00
          1   -1    0    0  502    0  0.00000000000E+00  0.00000000000E+00  0.25019389758E+03  0.25019389758E+03  0.00000000000E+00 0.  1.
         13   -1    0    0    0    0 -0.00000000000E+00 -0.00000000000E+00 -0.27500000000E+03  0.27500000000E+03  0.00000000000E+00 0.  1.
    9000005    2    1    2  501    0 -0.22387679507E+02  0.20582026775E+02 -0.35132443701E+02  0.49307752568E+03  0.49088321392E+03 0.  0.
         13    1    3    3    0    0 -0.95546180350E+02 -0.21980200882E+03 -0.31920530606E+02  0.24178692259E+03  0.00000000000E+00 0.  1.
          3    1    3    3  501    0  0.73158500843E+02  0.24038403560E+03 -0.32119130955E+01  0.25129060309E+03  0.00000000000E+00 0.  1.
         21    1    1    2  502  501  0.22387679507E+02 -0.20582026775E+02  0.10326341279E+02  0.32116371901E+02  0.00000000000E+00 0.  1.
<scales pt_clust_4="550.00000" pt_clust_5="550.00000" pt_clust_6="30.41099"></scales>
<mgrwt>
<rscale>  0 0.30000000E+03</rscale>
<asrwt>  1 0.30410985E+02</asrwt>
<pdfrwt beam="1">  1        1 0.90979599E+00 0.30000000E+03</pdfrwt>
<pdfrwt beam="2">0</pdfrwt>
<totfact> 0.74643312E-05</totfact>
</mgrwt>
<clustering>
<clus scale="   30.411">  1  6  2 -1</clus>
<clus scale="  490.883">  4  5 -1 -1</clus>
<clus scale="  300.000">  1  4  2 -1</clus>
</clustering>
</event>
<event>
 6    1  0.9843879E-012  0.3000000E+03  0.7818608E-02  0.1093470E+00
          1   -1    0    0  502    0  0.00000000000E+00  0.00000000000E+00  0.21920241812E+03  0.21920241812E+03  0.00000000000E+00 0.  1.
         13   -1    0    0    0    0 -0.00000000000E+00 -0.00000000000E+00 -0.27500000000E+03  0.27500000000E+03  0.00000000000E+00 0.  1.
    9000005    2    1    2  501    0 -0.10532366801E+02  0.28586952459E+02 -0.47377904089E+02  0.46259489409E+03  0.45915272583E+03 0.  0.
         13    1    3    3    0    0  0.18097307361E+03  0.11059874419E+03  0.70161808322E+02  0.22339654191E+03  0.00000000000E+00 0.  1.
          3    1    3    3  501    0 -0.19150544042E+03 -0.82011791734E+02 -0.11753971241E+03  0.23919835218E+03  0.00000000000E+00 0.  1.
         21    1    1    2  502  501  0.10532366801E+02 -0.28586952459E+02 -0.84196777892E+01  0.31607524031E+02  0.00000000000E+00 0.  1.
<scales pt_clust_4="550.00000" pt_clust_5="550.00000" pt_clust_6="30.46548"></scales>
<mgrwt>
<rscale>  0 0.30000000E+03</rscale>
<asrwt>  1 0.30465481E+02</asrwt>
<pdfrwt beam="1">  1        1 0.79709970E+00 0.30000000E+03</pdfrwt>
<pdfrwt beam="2">0</pdfrwt>
<totfact> 0.11175209E-03</totfact>
</mgrwt>
<clustering>
<clus scale="   30.465">  1  6  2 -1</clus>
<clus scale="  459.153">  4  5 -1 -1</clus>
<clus scale="  300.000">  1  4  2 -1</clus>
</clustering>
</event>
<event>
 6    1  0.9843879E-012  0.3000000E+03  0.7818608E-02  0.1093470E+00
          1   -1    0    0  502    0  0.00000000000E+00  0.00000000000E+00  0.22719560486E+03  0.22719560486E+03  0.00000000000E+00 0.  1.
         13   -1    0    0    0    0 -0.00000000000E+00 -0.00000000000E+00 -0.27500000000E+03  0.27500000000E+03  0.00000000000E+00 0.  1.
    9000005    2    1    2  501    0 -0.11788477000E+02  0.32863195456E+02 -0.64833553305E+02  0.46335039880E+03  0.45746174117E+03 0.  0.
         13    1    3    3    0    0 -0.12046167679E+03 -0.17995096455E+03 -0.58498091535E+02  0.22431092691E+03  0.00000000000E+00 0.  1.
          1    1    3    3  501    0  0.10867319979E+03  0.21281416000E+03 -0.63354617699E+01  0.23903947190E+03  0.00000000000E+00 0.  1.
         21    1    1    2  502  501  0.11788477000E+02 -0.32863195456E+02  0.17029158162E+02  0.38845206053E+02  0.00000000000E+00 0.  1.
<scales pt_clust_4="550.00000" pt_clust_5="550.00000" pt_clust_6="34.91358"></scales>
<mgrwt>
<rscale>  0 0.30000000E+03</rscale>
<asrwt>  1 0.34913576E+02</asrwt>
<pdfrwt beam="1">  1        1 0.82616584E+00 0.30000000E+03</pdfrwt>
<pdfrwt beam="2">0</pdfrwt>
<totfact> 0.63804618E-04</totfact>
</mgrwt>
<clustering>
<clus scale="   34.914">  1  6  2 -1</clus>
<clus scale="  457.462">  4  5 -1 -1</clus>
<clus scale="  300.000">  1  4  2 -1</clus>
</clustering>
</event>
<event>
 6    1  0.9843879E-012  0.3000000E+03  0.7818608E-02  0.1093470E+00
          1   -1    0    0  502    0  0.00000000000E+00  0.00000000000E+00  0.25462164328E+03  0.25462164328E+03  0.00000000000E+00 0.  1.
         13   -1    0    0    0    0 -0.00000000000E+00 -0.00000000000E+00 -0.27500000000E+03  0.27500000000E+03  0.00000000000E+00 0.  1.
    9000005    2    1    2  501    0 -0.92125766433E+01 -0.33095289923E+02 -0.59421953440E+02  0.47761614138E+03  0.47265848154E+03 0.  0.
         13    1    3    3    0    0  0.21156819129E+03 -0.10634462590E+03  0.28559308802E+01  0.23680885829E+03  0.00000000000E+00 0.  1.
          1    1    3    3  501    0 -0.22078076793E+03  0.73249335981E+02 -0.62277884321E+02  0.24080728308E+03  0.00000000000E+00 0.  1.
         21    1    1    2  502  501  0.92125766433E+01  0.33095289923E+02  0.39043596724E+02  0.52005501907E+02  0.00000000000E+00 0.  1.
<scales pt_clust_4="550.00000" pt_clust_5="550.00000" pt_clust_6="34.35360"></scales>
<mgrwt>
<rscale>  0 0.30000000E+03</rscale>
<asrwt>  1 0.34353599E+02</asrwt>
<pdfrwt beam="1">  1        1 0.92589688E+00 0.30000000E+03</pdfrwt>
<pdfrwt beam="2">0</pdfrwt>
<totfact> 0.31537690E-05</totfact>
</mgrwt>
<clustering>
<clus scale="   34.354">  1  6  2 -1</clus>
<clus scale="  472.658">  4  5 -1 -1</clus>
<clus scale="  300.000">  1  4  2 -1</clus>
</clustering>
</event>
<event>
 6    1  0.9843879E-012  0.3000000E+03  0.7818608E-02  0.1093470E+00
          1   -1    0    0  502    0  0.00000000000E+00  0.00000000000E+00  0.22622733255E+03  0.22622733255E+03  0.00000000000E+00 0.  1.
         13   -1    0    0    0    0 -0.00000000000E+00 -0.00000000000E+00 -0.27500000000E+03  0.27500000000E+03  0.00000000000E+00 0.  1.
    9000005    2    1    2  501    0  0.35378134416E+01 -0.32396424241E+02 -0.55553117705E+02  0.46794041420E+03  0.46348682606E+03 0.  0.
         13    1    3    3    0    0  0.13580385039E+03  0.69109687556E+02  0.14279411026E+03  0.20882766248E+03  0.00000000000E+00 0.  1.
          3    1    3    3  501    0 -0.13226603694E+03 -0.10150611180E+03 -0.19834722796E+03  0.25911275172E+03  0.00000000000E+00 0.  1.
         21    1    1    2  502  501 -0.35378134416E+01  0.32396424241E+02  0.67804502541E+01  0.33286918349E+02  0.00000000000E+00 0. -1.
<scales pt_clust_4="550.00000" pt_clust_5="550.00000" pt_clust_6="32.58902"></scales>
<mgrwt>
<rscale>  0 0.30000000E+03</rscale>
<asrwt>  1 0.32589023E+02</asrwt>
<pdfrwt beam="1">  1        1 0.82264485E+00 0.30000000E+03</pdfrwt>
<pdfrwt beam="2">0</pdfrwt>
<totfact> 0.69484559E-04</totfact>
</mgrwt>
<clustering>
<clus scale="   32.589">  1  6  2 -1</clus>
<clus scale="  463.487">  4  5 -1 -1</clus>
<clus scale="  300.000">  1  4  2 -1</clus>
</clustering>
</event>
<event>
 6    1  0.9843879E-012  0.3000000E+03  0.7818608E-02  0.1093470E+00
          1   -1    0    0  502    0  0.00000000000E+00  0.00000000000E+00  0.24234677838E+03  0.24234677838E+03  0.00000000000E+00 0.  1.
         13   -1    0    0    0    0 -0.00000000000E+00 -0.00000000000E+00 -0.27500000000E+03  0.27500000000E+03  0.00000000000E+00 0.  1.
    9000005    2    1    2  501    0  0.55591781896E+01 -0.41500937926E+02 -0.22722672608E+02  0.47431367351E+03  0.47191514992E+03 0.  0.
         13    1    3    3    0    0  0.11176124686E+02 -0.25659479482E+03 -0.32722831278E+02  0.25891422938E+03  0.00000000000E+00 0.  1.
          3    1    3    3  501    0 -0.56169464965E+01  0.21509385689E+03  0.10000158669E+02  0.21539944413E+03  0.00000000000E+00 0.  1.
         21    1    1    2  502  501 -0.55591781896E+01  0.41500937926E+02 -0.99305490096E+01  0.43033104867E+02  0.00000000000E+00 0.  1.
<scales pt_clust_4="550.00000" pt_clust_5="550.00000" pt_clust_6="41.87164"></scales>
<mgrwt>
<rscale>  0 0.30000000E+03</rscale>
<asrwt>  1 0.41871638E+02</asrwt>
<pdfrwt beam="1">  1        1 0.88126101E+00 0.30000000E+03</pdfrwt>
<pdfrwt beam="2">0</pdfrwt>
<totfact> 0.18413507E-04</totfact>
</mgrwt>
<clustering>
<clus scale="   41.872">  1  6  2 -1</clus>
<clus scale="  471.915">  4  5 -1 -1</clus>
<clus scale="  300.000">  1  4  2 -1</clus>
</clustering>
</event>
<event>
 6    1  0.9843879E-012  0.3000000E+03  0.7818608E-02  0.1093470E+00
          1   -1    0    0  502    0  0.00000000000E+00  0.00000000000E+00  0.24105828605E+03  0.24105828605E+03  0.00000000000E+00 0.  1.
         13   -1    0    0    0    0 -0.00000000000E+00 -0.00000000000E+00 -0.27500000000E+03  0.27500000000E+03  0.00000000000E+00 0.  1.
    9000005    2    1    2  501    0  0.12391377875E+02 -0.35309826245E+02 -0.34391198752E+02  0.47863460222E+03  0.47592856377E+03 0.  0.
         13    1    3    3    0    0  0.10736626150E+03 -0.22824592065E+03 -0.67359438779E+02  0.26107663318E+03  0.00000000000E+00 0.  1.
          1    1    3    3  501    0 -0.94974883625E+02  0.19293609440E+03  0.32968240027E+02  0.21755796904E+03  0.00000000000E+00 0.  1.
         21    1    1    2  502  501 -0.12391377875E+02  0.35309826245E+02  0.44948480569E+00  0.37423683834E+02  0.00000000000E+00 0. -1.
<scales pt_clust_4="550.00000" pt_clust_5="550.00000" pt_clust_6="37.42098"></scales>
<mgrwt>
<rscale>  0 0.30000000E+03</rscale>
<asrwt>  1 0.37420984E+02</asrwt>
<pdfrwt beam="1">  1        1 0.87657559E+00 0.30000000E+03</pdfrwt>
<pdfrwt beam="2">0</pdfrwt>
<totfact> 0.21363944E-04</totfact>
</mgrwt>
<clustering>
<clus scale="   37.421">  1  6  2 -1</clus>
<clus scale="  475.929">  4  5 -1 -1</clus>
<clus scale="  300.000">  1  4  2 -1</clus>
</clustering>
</event>
<event>
 6    1  0.9843879E-012  0.3000000E+03  0.7818608E-02  0.1093470E+00
          1   -1    0    0  502    0  0.00000000000E+00  0.00000000000E+00  0.25177047671E+03  0.25177047671E+03  0.00000000000E+00 0.  1.
         13   -1    0    0    0    0 -0.00000000000E+00 -0.00000000000E+00 -0.27500000000E+03  0.27500000000E+03  0.00000000000E+00 0.  1.
    9000005    2    1    2  501    0  0.33140004763E+02 -0.12961292197E+02 -0.25540413014E+02  0.49111104286E+03  0.48915384974E+03 0.  0.
         13    1    3    3    0    0  0.15911052940E+03 -0.15016726931E+03 -0.15162226866E+03  0.26618730566E+03  0.00000000000E+00 0.  1.
          3    1    3    3  501    0 -0.12597052464E+03  0.13720597711E+03  0.12608185565E+03  0.22492373720E+03  0.00000000000E+00 0.  1.
         21    1    1    2  502  501 -0.33140004763E+02  0.12961292197E+02  0.23108897243E+01  0.35659433849E+02  0.00000000000E+00 0.  1.
<scales pt_clust_4="550.00000" pt_clust_5="550.00000" pt_clust_6="35.58448"></scales>
<mgrwt>
<rscale>  0 0.30000000E+03</rscale>
<asrwt>  1 0.35584477E+02</asrwt>
<pdfrwt beam="1">  1        1 0.91552901E+00 0.30000000E+03</pdfrwt>
<pdfrwt beam="2">0</pdfrwt>
<totfact> 0.52477890E-05</totfact>
</mgrwt>
<clustering>
<clus scale="   35.584">  1  6  2 -1</clus>
<clus scale="  489.154">  4  5 -1 -1</clus>
<clus scale="  300.000">  1  4  2 -1</clus>
</clustering>
</event>
<event>
 6    1  0.9843879E-012  0.3000000E+03  0.7818608E-02  0.1093470E+00
          1   -1    0    0  502    0  0.00000000000E+00  0.00000000000E+00  0.23376804301E+03  0.23376804301E+03  0.00000000000E+00 0.  1.
         13   -1    0    0    0    0 -0.00000000000E+00 -0.00000000000E+00 -0.27500000000E+03  0.27500000000E+03  0.00000000000E+00 0.  1.
    9000005    2    1    2  501    0  0.10311906044E+02 -0.45323190138E+02 -0.47677974022E+02  0.46184173795E+03  0.45701649285E+03 0.  0.
         13    1    3    3    0    0  0.10544003444E+03 -0.22193187033E+03  0.28312657107E+02  0.24733168516E+03  0.00000000000E+00 0.  1.
          3    1    3    3  501    0 -0.95128128395E+02  0.17660868019E+03 -0.75990631129E+02  0.21451005280E+03  0.00000000000E+00 0.  1.
         21    1    1    2  502  501 -0.10311906044E+02  0.45323190138E+02  0.64460170328E+01  0.46926305055E+02  0.00000000000E+00 0.  1.
<scales pt_clust_4="550.00000" pt_clust_5="550.00000" pt_clust_6="46.48147"></scales>
<mgrwt>
<rscale>  0 0.30000000E+03</rscale>
<asrwt>  1 0.46481469E+02</asrwt>
<pdfrwt beam="1">  1        1 0.85006561E+00 0.30000000E+03</pdfrwt>
<pdfrwt beam="2">0</pdfrwt>
<totfact> 0.38592969E-04</totfact>
</mgrwt>
<clustering>
<clus scale="   46.481">  1  6  2 -1</clus>
<clus scale="  457.016">  4  5 -1 -1</clus>
<clus scale="  300.000">  1  4  2 -1</clus>
</clustering>
</event>
<event>
 6    1  0.9843879E-012  0.3000000E+03  0.7818608E-02  0.1093470E+00
          1   -1    0    0  502    0  0.00000000000E+00  0.00000000000E+00  0.24125998130E+03  0.24125998130E+03  0.00000000000E+00 0.  1.
         13   -1    0    0    0    0 -0.00000000000E+00 -0.00000000000E+00 -0.27500000000E+03  0.27500000000E+03  0.00000000000E+00 0.  1.
    9000005    2    1    2  501    0 -0.11185719733E+02  0.52287630250E+02 -0.15176133886E+02  0.45965844049E+03  0.45628549207E+03 0.  0.
         13    1    3    3    0    0  0.20466671104E+03 -0.58579663974E+02 -0.36779387514E+02  0.21603879972E+03  0.00000000000E+00 0.  1.
          3    1    3    3  501    0 -0.21585243078E+03  0.11086729422E+03  0.21603253628E+02  0.24361964077E+03  0.00000000000E+00 0.  1.
         21    1    1    2  502  501  0.11185719733E+02 -0.52287630250E+02 -0.18563884809E+02  0.56601540812E+02  0.00000000000E+00 0. -1.
<scales pt_clust_4="550.00000" pt_clust_5="550.00000" pt_clust_6="53.47073"></scales>
<mgrwt>
<rscale>  0 0.30000000E+03</rscale>
<asrwt>  1 0.53470735E+02</asrwt>
<pdfrwt beam="1">  1        1 0.87730902E+00 0.30000000E+03</pdfrwt>
<pdfrwt beam="2">0</pdfrwt>
<totfact> 0.19670671E-04</totfact>
</mgrwt>
<clustering>
<clus scale="   53.471">  1  6  2 -1</clus>
<clus scale="  456.285">  4  5 -1 -1</clus>
<clus scale="  300.000">  1  4  2 -1</clus>
</clustering>
</event>
<event>
 6    1  0.9843879E-012  0.3000000E+03  0.7818608E-02  0.1093470E+00
          1   -1    0    0  502    0  0.00000000000E+00  0.00000000000E+00  0.23990527941E+03  0.23990527941E+03  0.00000000000E+00 0.  1.
         13   -1    0    0    0    0 -0.00000000000E+00 -0.00000000000E+00 -0.27500000000E+03  0.27500000000E+03  0.00000000000E+00 0.  1.
    9000005    2    1    2  501    0  0.14277327820E+02  0.45503150246E+02 -0.32617638254E+02  0.46715054447E+03  0.46356374114E+03 0.  0.
         13    1    3    3    0    0  0.15551640757E+03  0.79847107348E+02 -0.18639631925E+03  0.25554745431E+03  0.00000000000E+00 0.  1.
          1    1    3    3  501    0 -0.14123907975E+03 -0.34343957102E+02  0.15377868100E+03  0.21160309016E+03  0.00000000000E+00 0.  1.
         21    1    1    2  502  501 -0.14277327820E+02 -0.45503150246E+02 -0.24770823367E+01  0.47754734937E+02  0.00000000000E+00 0. -1.
<scales pt_clust_4="550.00000" pt_clust_5="550.00000" pt_clust_6="47.69045"></scales>
<mgrwt>
<rscale>  0 0.30000000E+03</rscale>
<asrwt>  1 0.47690447E+02</asrwt>
<pdfrwt beam="1">  1        1 0.87238283E+00 0.30000000E+03</pdfrwt>
<pdfrwt beam="2">0</pdfrwt>
<totfact> 0.22634914E-04</totfact>
</mgrwt>
<clustering>
<clus scale="   47.690">  1  6  2 -1</clus>
<clus scale="  463.564">  4  5 -1 -1</clus>
<clus scale="  300.000">  1  4  2 -1</clus>
</clustering>
</event>
<event>
 6    1  0.9843879E-012  0.3000000E+03  0.7818608E-02  0.1093470E+00
          1   -1    0    0  502    0  0.00000000000E+00  0.00000000000E+00  0.22489041377E+03  0.22489041377E+03  0.00000000000E+00 0.  1.
         13   -1    0    0    0    0 -0.00000000000E+00 -0.00000000000E+00 -0.27500000000E+03  0.27500000000E+03  0.00000000000E+00 0.  1.
    9000005    2    1    2  501    0 -0.24245116239E+02 -0.24997212001E+02 -0.59320520784E+02  0.46386920356E+03  0.45874069752E+03 0.  0.
         13    1    3    3    0    0  0.20308681773E+03  0.66412228234E+02 -0.45484161535E+02  0.21845742959E+03  0.00000000000E+00 0.  1.
          1    1    3    3  501    0 -0.22733193397E+03 -0.91409440235E+02 -0.13836359249E+02  0.24541177397E+03  0.00000000000E+00 0.  1.
         21    1    1    2  502  501  0.24245116239E+02  0.24997212001E+02  0.92109345534E+01  0.36021210204E+02  0.00000000000E+00 0. -1.
<scales pt_clust_4="550.00000" pt_clust_5="550.00000" pt_clust_6="34.82365"></scales>
<mgrwt>
<rscale>  0 0.30000000E+03</rscale>
<asrwt>  1 0.34823645E+02</asrwt>
<pdfrwt beam="1">  1        1 0.81778332E+00 0.30000000E+03</pdfrwt>
<pdfrwt beam="2">0</pdfrwt>
<totfact> 0.75606793E-04</totfact>
</mgrwt>
<clustering>
<clus scale="   34.824">  1  6  2 -1</clus>
<clus scale="  458.741">  4  5 -1 -1</clus>
<clus scale="  300.000">  1  4  2 -1</clus>
</clustering>
</event>
<event>
 6    1  0.9843879E-012  0.3000000E+03  0.7818608E-02  0.1093470E+00
          1   -1    0    0  502    0  0.00000000000E+00  0.00000000000E+00  0.22624082420E+03  0.22624082420E+03  0.00000000000E+00 0.  1.
         13   -1    0    0    0    0 -0.00000000000E+00 -0.00000000000E+00 -0.27500000000E+03  0.27500000000E+03  0.00000000000E+00 0.  1.
    9000005    2    1    2  501    0  0.25655116706E+02  0.19723948425E+02 -0.56384057373E+02  0.46799389992E+03  0.46345648046E+03 0.  0.
         13    1    3    3    0    0  0.17196662586E+03 -0.13295064105E+03 -0.11853564057E+03  0.24758653326E+03  0.00000000000E+00 0.  1.
          1    1    3    3  501    0 -0.14631150916E+03  0.15267458948E+03  0.62151583197E+02  0.22040736666E+03  0.00000000000E+00 0.  1.
         21    1    1    2  502  501 -0.25655116706E+02 -0.19723948425E+02  0.76248815678E+01  0.33246924273E+02  0.00000000000E+00 0. -1.
<scales pt_clust_4="550.00000" pt_clust_5="550.00000" pt_clust_6="32.36077"></scales>
<mgrwt>
<rscale>  0 0.30000000E+03</rscale>
<asrwt>  1 0.32360766E+02</asrwt>
<pdfrwt beam="1">  1        1 0.82269391E+00 0.30000000E+03</pdfrwt>
<pdfrwt beam="2">0</pdfrwt>
<totfact> 0.69507339E-04</totfact>
</mgrwt>
<clustering>
<clus scale="   32.361">  1  6  2 -1</clus>
<clus scale="  463.456">  4  5 -1 -1</clus>
<clus scale="  300.000">  1  4  2 -1</clus>
</clustering>
</event>
<event>
 6    1  0.9843879E-012  0.3000000E+03  0.7818608E-02  0.1093470E+00
          1   -1    0    0  502    0  0.00000000000E+00  0.00000000000E+00  0.22224171684E+03  0.22224171684E+03  0.00000000000E+00 0.  1.
         13   -1    0    0    0    0 -0.00000000000E+00 -0.00000000000E+00 -0.27500000000E+03  0.27500000000E+03  0.00000000000E+00 0.  1.
    9000005    2    1    2  501    0 -0.62854075545E+01 -0.31874613077E+02 -0.59032096575E+02  0.46415307768E+03  0.45923609808E+03 0.  0.
         13    1    3    3    0    0 -0.16977161545E+03  0.12411707820E+03  0.45515781096E+02  0.21517234219E+03  0.00000000000E+00 0.  1.
          3    1    3    3  501    0  0.16348620790E+03 -0.15599169128E+03 -0.10454787767E+03  0.24898073549E+03  0.00000000000E+00 0.  1.
         21    1    1    2  502  501  0.62854075545E+01  0.31874613077E+02  0.62738134145E+01  0.33088639163E+02  0.00000000000E+00 0.  1.
<scales pt_clust_4="550.00000" pt_clust_5="550.00000" pt_clust_6="32.48842"></scales>
<mgrwt>
<rscale>  0 0.30000000E+03</rscale>
<asrwt>  1 0.32488418E+02</asrwt>
<pdfrwt beam="1">  1        1 0.80815170E+00 0.30000000E+03</pdfrwt>
<pdfrwt beam="2">0</pdfrwt>
<totfact> 0.91414876E-04</totfact>
</mgrwt>
<clustering>
<clus scale="   32.488">  1  6  2 -1</clus>
<clus scale="  459.236">  4  5 -1 -1</clus>
<clus scale="  300.000">  1  4  2 -1</clus>
</clustering>
</event>
<event>
 6    1  0.9843879E-012  0.3000000E+03  0.7818608E-02  0.1093470E+00
          1   -1    0    0  502    0  0.00000000000E+00  0.00000000000E+00  0.27371279351E+03  0.27371279351E+03  0.00000000000E+00 0.  1.
         13   -1    0    0    0    0 -0.00000000000E+00 -0.00000000000E+00 -0.27500000000E+03  0.27500000000E+03  0.00000000000E+00 0.  1.
    9000005    2    1    2  501    0  0.60848141235E+01 -0.32690655169E+02 -0.17249302677E+01  0.51545778636E+03  0.51438123045E+03 0.  0.
         13    1    3    3    0    0  0.54770750338E+02 -0.26291710304E+03 -0.55116434185E+02  0.27415882164E+03  0.00000000000E+00 0.  1.
          1    1    3    3  501    0 -0.48685936215E+02  0.23022644787E+03  0.53391503917E+02  0.24129896472E+03  0.00000000000E+00 0.  1.
         21    1    1    2  502  501 -0.60848141235E+01  0.32690655169E+02  0.43772377560E+00  0.33255007148E+02  0.00000000000E+00 0. -1.
<scales pt_clust_4="550.00000" pt_clust_5="550.00000" pt_clust_6="33.25213"></scales>
<mgrwt>
<rscale>  0 0.30000000E+03</rscale>
<asrwt>  1 0.33252126E+02</asrwt>
<pdfrwt beam="1">  1        1 0.99531925E+00 0.30000000E+03</pdfrwt>
<pdfrwt beam="2">0</pdfrwt>
<totfact> 0.32105995E-07</totfact>
</mgrwt>
<clustering>
<clus scale="   33.252">  1  6  2 -1</clus>
<clus scale="  514.381">  4  5 -1 -1</clus>
<clus scale="  300.000">  1  4  2 -1</clus>
</clustering>
</event>
<event>
 6    1  0.9843879E-012  0.3000000E+03  0.7818608E-02  0.1093470E+00
          1   -1    0    0  502    0  0.00000000000E+00  0.00000000000E+00  0.23172720982E+03  0.23172720982E+03  0.00000000000E+00 0.  1.
         13   -1    0    0    0    0 -0.00000000000E+00 -0.00000000000E+00 -0.27500000000E+03  0.27500000000E+03  0.00000000000E+00 0.  1.
    9000005    2    1    2  501    0 -0.32006165903E+02  0.20566682502E+02 -0.65096469260E+02  0.46286770625E+03  0.45668542794E+03 0.  0.
         13    1    3    3    0    0  0.13627591784E+03  0.21037734905E+00 -0.20289645839E+03  0.24441387618E+03  0.00000000000E+00 0.  1.
          3    1    3    3  501    0 -0.16828208374E+03  0.20356305153E+02  0.13779998913E+03  0.21845383007E+03  0.00000000000E+00 0.  1.
         21    1    1    2  502  501  0.32006165903E+02 -0.20566682502E+02  0.21823679076E+02  0.43859503569E+02  0.00000000000E+00 0.  1.
<scales pt_clust_4="550.00000" pt_clust_5="550.00000" pt_clust_6="38.04449"></scales>
<mgrwt>
<rscale>  0 0.30000000E+03</rscale>
<asrwt>  1 0.38044488E+02</asrwt>
<pdfrwt beam="1">  1        1 0.84264440E+00 0.30000000E+03</pdfrwt>
<pdfrwt beam="2">0</pdfrwt>
<totfact> 0.46601693E-04</totfact>
</mgrwt>
<clustering>
<clus scale="   38.044">  1  6  2 -1</clus>
<clus scale="  456.685">  4  5 -1 -1</clus>
<clus scale="  300.000">  1  4  2 -1</clus>
</clustering>
</event>
<event>
 6    1  0.9843879E-012  0.3000000E+03  0.7818608E-02  0.1093470E+00
          1   -1    0    0  502    0  0.00000000000E+00  0.00000000000E+00  0.24242677744E+03  0.24242677744E+03  0.00000000000E+00 0.  1.
         13   -1    0    0    0    0 -0.00000000000E+00 -0.00000000000E+00 -0.27500000000E+03  0.27500000000E+03  0.00000000000E+00 0.  1.
    9000005    2    1    2  501    0 -0.17297890286E+02 -0.36865994829E+02 -0.67944002721E+01  0.46923065455E+03  0.46741087355E+03 0.  0.
         13    1    3    3    0    0 -0.23093865832E+03 -0.46521551200E+02 -0.70821228426E+02  0.24599301825E+03  0.00000000000E+00 0.  1.
          3    1    3    3  501    0  0.21364076804E+03  0.96555563710E+01  0.64026828154E+02  0.22323763630E+03  0.00000000000E+00 0.  1.
         21    1    1    2  502  501  0.17297890286E+02  0.36865994829E+02 -0.25778822287E+02  0.48196122889E+02  0.00000000000E+00 0.  1.
<scales pt_clust_4="550.00000" pt_clust_5="550.00000" pt_clust_6="40.72248"></scales>
<mgrwt>
<rscale>  0 0.30000000E+03</rscale>
<asrwt>  1 0.40722478E+02</asrwt>
<pdfrwt beam="1">  1        1 0.88155192E+00 0.30000000E+03</pdfrwt>
<pdfrwt beam="2">0</pdfrwt>
<totfact> 0.18348257E-04</totfact>
</mgrwt>
<clustering>
<clus scale="   40.722">  1  6  2 -1</clus>
<clus scale="  467.411">  4  5 -1 -1</clus>
<clus scale="  300.000">  1  4  2 -1</clus>
</clustering>
</event>
<event>
 6    1  0.9843879E-012  0.3000000E+03  0.7818608E-02  0.1093470E+00
          1   -1    0    0  502    0  0.00000000000E+00  0.00000000000E+00  0.23249705059E+03  0.23249705059E+03  0.00000000000E+00 0.  1.
         13   -1    0    0    0    0 -0.00000000000E+00 -0.00000000000E+00 -0.27500000000E+03  0.27500000000E+03  0.00000000000E+00 0.  1.
    9000005    2    1    2  501    0  0.17628951273E+02  0.36917825443E+02 -0.55500561831E+02  0.46457102484E+03  0.45942596683E+03 0.  0.
         13    1    3    3    0    0 -0.25040966886E+02  0.15350759996E+03  0.15538423776E+03  0.21985425766E+03  0.00000000000E+00 0.  1.
          1    1    3    3  501    0  0.42669918159E+02 -0.11658977452E+03 -0.21088479959E+03  0.24471676717E+03  0.00000000000E+00 0.  1.
         21    1    1    2  502  501 -0.17628951273E+02 -0.36917825443E+02  0.12997612425E+02  0.42926025756E+02  0.00000000000E+00 0. -1.
<scales pt_clust_4="550.00000" pt_clust_5="550.00000" pt_clust_6="40.91095"></scales>
<mgrwt>
<rscale>  0 0.30000000E+03</rscale>
<asrwt>  1 0.40910949E+02</asrwt>
<pdfrwt beam="1">  1        1 0.84544382E+00 0.30000000E+03</pdfrwt>
<pdfrwt beam="2">0</pdfrwt>
<totfact> 0.43509316E-04</totfact>
</mgrwt>
<clustering>
<clus scale="   40.911">  1  6  2 -1</clus>
<clus scale="  459.426">  4  5 -1 -1</clus>
<clus scale="  300.000">  1  4  2 -1</clus>
</clustering>
</event>
<event>
 6    1  0.9843879E-012  0.3000000E+03  0.7818608E-02  0.1093470E+00
          1   -1    0    0  502    0  0.00000000000E+00  0.00000000000E+00  0.23102710804E+03  0.23102710804E+03  0.00000000000E+00 0.  1.
         13   -1    0    0    0    0 -0.00000000000E+00 -0.00000000000E+00 -0.27500000000E+03  0.27500000000E+03  0.00000000000E+00 0.  1.
    9000005    2    1    2  501    0  0.30717117279E+02  0.11986450993E+02 -0.53431049938E+02  0.47172443972E+03  0.46752738276E+03 0.  0.
         13    1    3    3    0    0  0.92507608247E+02  0.14899015203E+03 -0.19708818504E+03  0.26381712542E+03  0.00000000000E+00 0.  1.
          3    1    3    3  501    0 -0.61790490968E+02 -0.13700370104E+03  0.14365713510E+03  0.20790731430E+03  0.00000000000E+00 0.  1.
         21    1    1    2  502  501 -0.30717117279E+02 -0.11986450993E+02  0.94581579738E+01  0.34302668316E+02  0.00000000000E+00 0.  1.
<scales pt_clust_4="550.00000" pt_clust_5="550.00000" pt_clust_6="32.97296"></scales>
<mgrwt>
<rscale>  0 0.30000000E+03</rscale>
<asrwt>  1 0.32972963E+02</asrwt>
<pdfrwt beam="1">  1        1 0.84009857E+00 0.30000000E+03</pdfrwt>
<pdfrwt beam="2">0</pdfrwt>
<totfact> 0.50177465E-04</totfact>
</mgrwt>
<clustering>
<clus scale="   32.973">  1  6  2 -1</clus>
<clus scale="  467.527">  4  5 -1 -1</clus>
<clus scale="  300.000">  1  4  2 -1</clus>
</clustering>
</event>
<event>
 6    1  0.9843879E-012  0.3000000E+03  0.7818608E-02  0.1093470E+00
          1   -1    0    0  502    0  0.00000000000E+00  0.00000000000E+00  0.23214527599E+03  0.23214527599E+03  0.00000000000E+00 0.  1.
         13   -1    0    0    0    0 -0.00000000000E+00 -0.00000000000E+00 -0.27500000000E+03  0.27500000000E+03  0.00000000000E+00 0.  1.
    9000005    2    1    2  501    0  0.36849581170E+02  0.17894568346E+02 -0.60350415027E+02  0.46260084410E+03  0.45681425236E+03 0.  0.
         13    1    3    3    0    0  0.16113583347E+02 -0.13836053493E+03 -0.20554265296E+03  0.24829632977E+03  0.00000000000E+00 0.  1.
          1    1    3    3  501    0  0.20735997823E+02  0.15625510328E+03  0.14519223793E+03  0.21430451432E+03  0.00000000000E+00 0.  1.
         21    1    1    2  502  501 -0.36849581170E+02 -0.17894568346E+02  0.17495691021E+02  0.44544431897E+02  0.00000000000E+00 0.  1.
<scales pt_clust_4="550.00000" pt_clust_5="550.00000" pt_clust_6="40.96471"></scales>
<mgrwt>
<rscale>  0 0.30000000E+03</rscale>
<asrwt>  1 0.40964707E+02</asrwt>
<pdfrwt beam="1">  1        1 0.84416464E+00 0.30000000E+03</pdfrwt>
<pdfrwt beam="2">0</pdfrwt>
<totfact> 0.44629090E-04</totfact>
</mgrwt>
<clustering>
<clus scale="   40.965">  1  6  2 -1</clus>
<clus scale="  456.814">  4  5 -1 -1</clus>
<clus scale="  300.000">  1  4  2 -1</clus>
</clustering>
</event>
<event>
 6    1  0.9843879E-012  0.3000000E+03  0.7818608E-02  0.1093470E+00
          1   -1    0    0  502    0  0.00000000000E+00  0.00000000000E+00  0.23945460738E+03  0.23945460738E+03  0.00000000000E+00 0.  1.
         13   -1    0    0    0    0 -0.00000000000E+00 -0.00000000000E+00 -0.27500000000E+03  0.27500000000E+03  0.00000000000E+00 0.  1.
    9000005    2    1    2  501    0 -0.48107102516E+01  0.34391112119E+02 -0.42598284161E+02  0.47901966975E+03  0.47585642652E+03 0.  0.
         13    1    3    3    0    0  0.62638167092E+02  0.24442469654E+03  0.89391666780E+01  0.25248144675E+03  0.00000000000E+00 0.  1.
          1    1    3    3  501    0 -0.67448877344E+02 -0.21003358442E+03 -0.51537450839E+02  0.22653822299E+03  0.00000000000E+00 0.  1.
         21    1    1    2  502  501  0.48107102516E+01 -0.34391112119E+02  0.70528915374E+01  0.35434937631E+02  0.00000000000E+00 0.  1.
<scales pt_clust_4="550.00000" pt_clust_5="550.00000" pt_clust_6="34.72595"></scales>
<mgrwt>
<rscale>  0 0.30000000E+03</rscale>
<asrwt>  1 0.34725949E+02</asrwt>
<pdfrwt beam="1">  1        1 0.87074403E+00 0.30000000E+03</pdfrwt>
<pdfrwt beam="2">0</pdfrwt>
<totfact> 0.24922433E-04</totfact>
</mgrwt>
<clustering>
<clus scale="   34.726">  1  6  2 -1</clus>
<clus scale="  475.856">  4  5 -1 -1</clus>
<clus scale="  300.000">  1  4  2 -1</clus>
</clustering>
</event>
<event>
 6    1  0.9843879E-012  0.3000000E+03  0.7818608E-02  0.1093470E+00
          1   -1    0    0  502    0  0.00000000000E+00  0.00000000000E+00  0.23037539490E+03  0.23037539490E+03  0.00000000000E+00 0.  1.
         13   -1    0    0    0    0 -0.00000000000E+00 -0.00000000000E+00 -0.27500000000E+03  0.27500000000E+03  0.00000000000E+00 0.  1.
    9000005    2    1    2  501    0 -0.24899796131E+02 -0.27554133895E+02 -0.58045967819E+02  0.46588662283E+03  0.46076217381E+03 0.  0.
         13    1    3    3    0    0 -0.76745041210E+02  0.18049989634E+03  0.78961424079E+02  0.21143538120E+03  0.00000000000E+00 0.  1.
          3    1    3    3  501    0  0.51845245079E+02 -0.20805403024E+03 -0.13700739190E+03  0.25445124164E+03  0.00000000000E+00 0.  1.
         21    1    1    2  502  501  0.24899796131E+02  0.27554133895E+02  0.13421362719E+02  0.39488772067E+02  0.00000000000E+00 0.  1.
<scales pt_clust_4="550.00000" pt_clust_5="550.00000" pt_clust_6="37.13799"></scales>
<mgrwt>
<rscale>  0 0.30000000E+03</rscale>
<asrwt>  1 0.37137988E+02</asrwt>
<pdfrwt beam="1">  1        1 0.83772871E+00 0.30000000E+03</pdfrwt>
<pdfrwt beam="2">0</pdfrwt>
<totfact> 0.51116066E-04</totfact>
</mgrwt>
<clustering>
<clus scale="   37.138">  1  6  2 -1</clus>
<clus scale="  460.762">  4  5 -1 -1</clus>
<clus scale="  300.000">  1  4  2 -1</clus>
</clustering>
</event>
<event>
 6    1  0.9843879E-012  0.3000000E+03  0.7818608E-02  0.1093470E+00
          1   -1    0    0  502    0  0.00000000000E+00  0.00000000000E+00  0.23325529999E+03  0.23325529999E+03  0.00000000000E+00 0.  1.
         13   -1    0    0    0    0 -0.00000000000E+00 -0.00000000000E+00 -0.27500000000E+03  0.27500000000E+03  0.00000000000E+00 0.  1.
    9000005    2    1    2  501    0  0.17411932009E+01  0.32666125577E+02 -0.64968142251E+02  0.46813752608E+03  0.46245191783E+03 0.  0.
         13    1    3    3    0    0 -0.15572020542E+03  0.18177243594E+03  0.75631732595E+01  0.23947275928E+03  0.00000000000E+00 0.  1.
          1    1    3    3  501    0  0.15746139862E+03 -0.14910631037E+03 -0.72531315511E+02  0.22866476680E+03  0.00000000000E+00 0.  1.
         21    1    1    2  502  501 -0.17411932009E+01 -0.32666125577E+02  0.23223442246E+02  0.40117773913E+02  0.00000000000E+00 0. -1.
<scales pt_clust_4="550.00000" pt_clust_5="550.00000" pt_clust_6="32.71250"></scales>
<mgrwt>
<rscale>  0 0.30000000E+03</rscale>
<asrwt>  1 0.32712498E+02</asrwt>
<pdfrwt beam="1">  1        1 0.84820109E+00 0.30000000E+03</pdfrwt>
<pdfrwt beam="2">0</pdfrwt>
<totfact> 0.42835285E-04</totfact>
</mgrwt>
<clustering>
<clus scale="   32.712">  1  6  2 -1</clus>
<clus scale="  462.452">  4  5 -1 -1</clus>
<clus scale="  300.000">  1  4  2 -1</clus>
</clustering>
</event>
<event>
 6    1  0.9843879E-012  0.3000000E+03  0.7818608E-02  0.1093470E+00
          1   -1    0    0  502    0  0.00000000000E+00  0.00000000000E+00  0.25140647689E+03  0.25140647689E+03  0.00000000000E+00 0.  1.
         13   -1    0    0    0    0 -0.00000000000E+00 -0.00000000000E+00 -0.27500000000E+03  0.27500000000E+03  0.00000000000E+00 0.  1.
    9000005    2    1    2  501    0 -0.70746690543E+01  0.58669447327E+02 -0.42352292934E+02  0.46440610240E+03  0.45867979707E+03 0.  0.
         13    1    3    3    0    0  0.20703544897E+02 -0.19514798175E+03 -0.68228083397E+02  0.20776535543E+03  0.00000000000E+00 0.  1.
          3    1    3    3  501    0 -0.27778213951E+02  0.25381742908E+03  0.25875790463E+02  0.25664074697E+03  0.00000000000E+00 0.  1.
         21    1    1    2  502  501  0.70746690543E+01 -0.58669447327E+02  0.18758769828E+02  0.62000374494E+02  0.00000000000E+00 0. -1.
<scales pt_clust_4="550.00000" pt_clust_5="550.00000" pt_clust_6="59.09446"></scales>
<mgrwt>
<rscale>  0 0.30000000E+03</rscale>
<asrwt>  1 0.59094458E+02</asrwt>
<pdfrwt beam="1">  1        1 0.91420537E+00 0.30000000E+03</pdfrwt>
<pdfrwt beam="2">0</pdfrwt>
<totfact> 0.51492322E-05</totfact>
</mgrwt>
<clustering>
<clus scale="   59.094">  1  6  2 -1</clus>
<clus scale="  458.680">  4  5 -1 -1</clus>
<clus scale="  300.000">  1  4  2 -1</clus>
</clustering>
</event>
<event>
 6    1  0.9843879E-012  0.3000000E+03  0.7818608E-02  0.1093470E+00
          1   -1    0    0  502    0  0.00000000000E+00  0.00000000000E+00  0.24484702293E+03  0.24484702293E+03  0.00000000000E+00 0.  1.
         13   -1    0    0    0    0 -0.00000000000E+00 -0.00000000000E+00 -0.27500000000E+03  0.27500000000E+03  0.00000000000E+00 0.  1.
    9000005    2    1    2  501    0  0.20732274965E+02 -0.33805271806E+02 -0.62786341138E+02  0.46848984157E+03  0.46256673399E+03 0.  0.
         13    1    3    3    0    0  0.63802638730E+02  0.17414518561E+03 -0.15037949864E+03  0.23877042529E+03  0.00000000000E+00 0.  1.
          3    1    3    3  501    0 -0.43070363765E+02 -0.20795045742E+03  0.87593157504E+02  0.22971941628E+03  0.00000000000E+00 0.  1.
         21    1    1    2  502  501 -0.20732274965E+02  0.33805271806E+02  0.32633364071E+02  0.51357181364E+02  0.00000000000E+00 0. -1.
<scales pt_clust_4="550.00000" pt_clust_5="550.00000" pt_clust_6="39.65632"></scales>
<mgrwt>
<rscale>  0 0.30000000E+03</rscale>
<asrwt>  1 0.39656319E+02</asrwt>
<pdfrwt beam="1">  1        1 0.89035281E+00 0.30000000E+03</pdfrwt>
<pdfrwt beam="2">0</pdfrwt>
<totfact> 0.14013117E-04</totfact>
</mgrwt>
<clustering>
<clus scale="   39.656">  1  6  2 -1</clus>
<clus scale="  462.567">  4  5 -1 -1</clus>
<clus scale="  300.000">  1  4  2 -1</clus>
</clustering>
</event>
<event>
 6    1  0.9843879E-012  0.3000000E+03  0.7818608E-02  0.1093470E+00
          1   -1    0    0  502    0  0.00000000000E+00  0.00000000000E+00  0.23059051307E+03  0.23059051307E+03  0.00000000000E+00 0.  1.
         13   -1    0    0    0    0 -0.00000000000E+00 -0.00000000000E+00 -0.27500000000E+03  0.27500000000E+03  0.00000000000E+00 0.  1.
    9000005    2    1    2  501    0 -0.25555393161E+02 -0.21451541288E+02 -0.28287284204E+02  0.46853417537E+03  0.46648778794E+03 0.  0.
         13    1    3    3    0    0  0.49360894775E+02  0.13502311619E+03  0.15824485627E+03  0.21379704014E+03  0.00000000000E+00 0.  1.
          1    1    3    3  501    0 -0.74916287936E+02 -0.15647465747E+03 -0.18653214048E+03  0.25473713522E+03  0.00000000000E+00 0.  1.
         21    1    1    2  502  501  0.25555393161E+02  0.21451541288E+02 -0.16122202726E+02  0.37056337704E+02  0.00000000000E+00 0.  1.
<scales pt_clust_4="550.00000" pt_clust_5="550.00000" pt_clust_6="33.36537"></scales>
<mgrwt>
<rscale>  0 0.30000000E+03</rscale>
<asrwt>  1 0.33365369E+02</asrwt>
<pdfrwt beam="1">  1        1 0.83851096E+00 0.30000000E+03</pdfrwt>
<pdfrwt beam="2">0</pdfrwt>
<totfact> 0.51463392E-04</totfact>
</mgrwt>
<clustering>
<clus scale="   33.365">  1  6  2 -1</clus>
<clus scale="  466.488">  4  5 -1 -1</clus>
<clus scale="  300.000">  1  4  2 -1</clus>
</clustering>
</event>
<event>
 6    1  0.9843879E-012  0.3000000E+03  0.7818608E-02  0.1093470E+00
          1   -1    0    0  502    0  0.00000000000E+00  0.00000000000E+00  0.22724540166E+03  0.22724540166E+03  0.00000000000E+00 0.  1.
         13   -1    0    0    0    0 -0.00000000000E+00 -0.00000000000E+00 -0.27500000000E+03  0.27500000000E+03  0.00000000000E+00 0.  1.
    9000005    2    1    2  501    0 -0.29685126882E+02  0.11545171409E+02 -0.62050696909E+02  0.46733299448E+03  0.46209884332E+03 0.  0.
         13    1    3    3    0    0 -0.46939346388E+02 -0.14175732775E+03 -0.20727407380E+03  0.25546229444E+03  0.00000000000E+00 0.  1.
          1    1    3    3  501    0  0.17254219506E+02  0.15330249916E+03  0.14522337689E+03  0.21187070004E+03  0.00000000000E+00 0.  1.
         21    1    1    2  502  501  0.29685126882E+02 -0.11545171409E+02  0.14296098569E+02  0.34912407181E+02  0.00000000000E+00 0. -1.
<scales pt_clust_4="550.00000" pt_clust_5="550.00000" pt_clust_6="31.85118"></scales>
<mgrwt>
<rscale>  0 0.30000000E+03</rscale>
<asrwt>  1 0.31851181E+02</asrwt>
<pdfrwt beam="1">  1        1 0.82634692E+00 0.30000000E+03</pdfrwt>
<pdfrwt beam="2">0</pdfrwt>
<totfact> 0.64680189E-04</totfact>
</mgrwt>
<clustering>
<clus scale="   31.851">  1  6  2 -1</clus>
<clus scale="  462.099">  4  5 -1 -1</clus>
<clus scale="  300.000">  1  4  2 -1</clus>
</clustering>
</event>
<event>
 6    1  0.9843879E-012  0.3000000E+03  0.7818608E-02  0.1093470E+00
          1   -1    0    0  502    0  0.00000000000E+00  0.00000000000E+00  0.23099201428E+03  0.23099201428E+03  0.00000000000E+00 0.  1.
         13   -1    0    0    0    0 -0.00000000000E+00 -0.00000000000E+00 -0.27500000000E+03  0.27500000000E+03  0.00000000000E+00 0.  1.
    9000005    2    1    2  501    0 -0.31217311335E+02 -0.55666738158E+01 -0.59489414907E+02  0.47070486316E+03  0.46585251887E+03 0.  0.
         13    1    3    3    0    0  0.91269502384E+02 -0.20539471299E+03 -0.71943558906E+02  0.23599361402E+03  0.00000000000E+00 0.  1.
          3    1    3    3  501    0 -0.12248681372E+03  0.19982803917E+03  0.12454143999E+02  0.23471124915E+03  0.00000000000E+00 0.  1.
         21    1    1    2  502  501  0.31217311335E+02  0.55666738158E+01  0.15481429187E+02  0.35287151118E+02  0.00000000000E+00 0.  1.
<scales pt_clust_4="550.00000" pt_clust_5="550.00000" pt_clust_6="31.70975"></scales>
<mgrwt>
<rscale>  0 0.30000000E+03</rscale>
<asrwt>  1 0.31709752E+02</asrwt>
<pdfrwt beam="1">  1        1 0.83997096E+00 0.30000000E+03</pdfrwt>
<pdfrwt beam="2">0</pdfrwt>
<totfact> 0.50665117E-04</totfact>
</mgrwt>
<clustering>
<clus scale="   31.710">  1  6  2 -1</clus>
<clus scale="  465.853">  4  5 -1 -1</clus>
<clus scale="  300.000">  1  4  2 -1</clus>
</clustering>
</event>
<event>
 6    1  0.9843879E-012  0.3000000E+03  0.7818608E-02  0.1093470E+00
          1   -1    0    0  502    0  0.00000000000E+00  0.00000000000E+00  0.22873890348E+03  0.22873890348E+03  0.00000000000E+00 0.  1.
         13   -1    0    0    0    0 -0.00000000000E+00 -0.00000000000E+00 -0.27500000000E+03  0.27500000000E+03  0.00000000000E+00 0.  1.
    9000005    2    1    2  501    0  0.33510201614E+02  0.93690155581E+01 -0.34280342045E+02  0.46693876024E+03  0.46437695022E+03 0.  0.
         13    1    3    3    0    0  0.19989798471E+03  0.11572007199E+03 -0.10950905735E+03  0.25562193371E+03  0.00000000000E+00 0.  1.
          3    1    3    3  501    0 -0.16638778309E+03 -0.10635105644E+03  0.75228715309E+02  0.21131682653E+03  0.00000000000E+00 0.  1.
         21    1    1    2  502  501 -0.33510201614E+02 -0.93690155581E+01 -0.11980754476E+02  0.36800143241E+02  0.00000000000E+00 0. -1.
<scales pt_clust_4="550.00000" pt_clust_5="550.00000" pt_clust_6="34.79531"></scales>
<mgrwt>
<rscale>  0 0.30000000E+03</rscale>
<asrwt>  1 0.34795305E+02</asrwt>
<pdfrwt beam="1">  1        1 0.83177783E+00 0.30000000E+03</pdfrwt>
<pdfrwt beam="2">0</pdfrwt>
<totfact> 0.57257993E-04</totfact>
</mgrwt>
<clustering>
<clus scale="   34.795">  1  6  2 -1</clus>
<clus scale="  464.377">  4  5 -1 -1</clus>
<clus scale="  300.000">  1  4  2 -1</clus>
</clustering>
</event>
<event>
 6    1  0.9843879E-012  0.3000000E+03  0.7818608E-02  0.1093470E+00
          1   -1    0    0  502    0  0.00000000000E+00  0.00000000000E+00  0.22586478207E+03  0.22586478207E+03  0.00000000000E+00 0.  1.
         13   -1    0    0    0    0 -0.00000000000E+00 -0.00000000000E+00 -0.27500000000E+03  0.27500000000E+03  0.00000000000E+00 0.  1.
    9000005    2    1    2  501    0  0.33721528182E+02  0.32741517050E+01 -0.45757552592E+02  0.46681672552E+03  0.46333167393E+03 0.  0.
         13    1    3    3    0    0  0.81318475308E+02  0.12972721495E+03  0.15949171545E+03  0.22108697841E+03  0.00000000000E+00 0.  1.
          1    1    3    3  501    0 -0.47596947126E+02 -0.12645306324E+03 -0.20524926805E+03  0.24572974711E+03  0.00000000000E+00 0.  1.
         21    1    1    2  502  501 -0.33721528182E+02 -0.32741517050E+01 -0.33776653328E+01  0.34048056558E+02  0.00000000000E+00 0. -1.
<scales pt_clust_4="550.00000" pt_clust_5="550.00000" pt_clust_6="33.88012"></scales>
<mgrwt>
<rscale>  0 0.30000000E+03</rscale>
<asrwt>  1 0.33880122E+02</asrwt>
<pdfrwt beam="1">  1        1 0.82132648E+00 0.30000000E+03</pdfrwt>
<pdfrwt beam="2">0</pdfrwt>
<totfact> 0.70855848E-04</totfact>
</mgrwt>
<clustering>
<clus scale="   33.880">  1  6  2 -1</clus>
<clus scale="  463.332">  4  5 -1 -1</clus>
<clus scale="  300.000">  1  4  2 -1</clus>
</clustering>
</event>
<event>
 6    1  0.9843879E-012  0.3000000E+03  0.7818608E-02  0.1093470E+00
          1   -1    0    0  502    0  0.00000000000E+00  0.00000000000E+00  0.23763250237E+03  0.23763250237E+03  0.00000000000E+00 0.  1.
         13   -1    0    0    0    0 -0.00000000000E+00 -0.00000000000E+00 -0.27500000000E+03  0.27500000000E+03  0.00000000000E+00 0.  1.
    9000005    2    1    2  501    0 -0.30546524475E+02  0.60122368974E+01 -0.26893760908E+02  0.47978533642E+03  0.47801826065E+03 0.  0.
         13    1    3    3    0    0 -0.17271780158E+03 -0.17390843555E+03  0.19316965584E+02  0.24586323047E+03  0.00000000000E+00 0.  1.
          1    1    3    3  501    0  0.14217127711E+03  0.17992067244E+03 -0.46210726491E+02  0.23392210595E+03  0.00000000000E+00 0.  1.
         21    1    1    2  502  501  0.30546524475E+02 -0.60122368974E+01 -0.10473736725E+02  0.32847165950E+02  0.00000000000E+00 0. -1.
<scales pt_clust_4="550.00000" pt_clust_5="550.00000" pt_clust_6="31.13259"></scales>
<mgrwt>
<rscale>  0 0.30000000E+03</rscale>
<asrwt>  1 0.31132589E+02</asrwt>
<pdfrwt beam="1">  1        1 0.86411819E+00 0.30000000E+03</pdfrwt>
<pdfrwt beam="2">0</pdfrwt>
<totfact> 0.29856521E-04</totfact>
</mgrwt>
<clustering>
<clus scale="   31.133">  1  6  2 -1</clus>
<clus scale="  478.018">  4  5 -1 -1</clus>
<clus scale="  300.000">  1  4  2 -1</clus>
</clustering>
</event>
<event>
 6    1  0.9843879E-012  0.3000000E+03  0.7818608E-02  0.1093470E+00
          1   -1    0    0  502    0  0.00000000000E+00  0.00000000000E+00  0.22172106890E+03  0.22172106890E+03  0.00000000000E+00 0.  1.
         13   -1    0    0    0    0 -0.00000000000E+00 -0.00000000000E+00 -0.27500000000E+03  0.27500000000E+03  0.00000000000E+00 0.  1.
    9000005    2    1    2  501    0 -0.11209189031E+02  0.29314667534E+02 -0.56554838530E+02  0.46516592319E+03  0.46064725190E+03 0.  0.
         13    1    3    3    0    0 -0.62251361177E+02 -0.17495544786E+03 -0.14618066156E+03  0.23633329541E+03  0.00000000000E+00 0.  1.
          1    1    3    3  501    0  0.51042172146E+02  0.20427011540E+03  0.89625823030E+02  0.22883262778E+03  0.00000000000E+00 0.  1.
         21    1    1    2  502  501  0.11209189031E+02 -0.29314667534E+02  0.32759074262E+01  0.31555145711E+02  0.00000000000E+00 0. -1.
<scales pt_clust_4="550.00000" pt_clust_5="550.00000" pt_clust_6="31.38464"></scales>
<mgrwt>
<rscale>  0 0.30000000E+03</rscale>
<asrwt>  1 0.31384640E+02</asrwt>
<pdfrwt beam="1">  1        1 0.80625843E+00 0.30000000E+03</pdfrwt>
<pdfrwt beam="2">0</pdfrwt>
<totfact> 0.95152686E-04</totfact>
</mgrwt>
<clustering>
<clus scale="   31.385">  1  6  2 -1</clus>
<clus scale="  460.647">  4  5 -1 -1</clus>
<clus scale="  300.000">  1  4  2 -1</clus>
</clustering>
</event>
<event>
 6    1  0.9843879E-012  0.3000000E+03  0.7818608E-02  0.1093470E+00
          1   -1    0    0  502    0  0.00000000000E+00  0.00000000000E+00  0.21893729095E+03  0.21893729095E+03  0.00000000000E+00 0.  1.
         13   -1    0    0    0    0 -0.00000000000E+00 -0.00000000000E+00 -0.27500000000E+03  0.27500000000E+03  0.00000000000E+00 0.  1.
    9000005    2    1    2  501    0 -0.73048214424E+01 -0.31086011862E+02 -0.57735675740E+02  0.46196074693E+03  0.45722491501E+03 0.  0.
         13    1    3    3    0    0  0.69404921737E+02  0.18426541034E+03 -0.11265285481E+03  0.22685116333E+03  0.00000000000E+00 0.  1.
          3    1    3    3  501    0 -0.76709743179E+02 -0.21535142220E+03  0.54917179065E+02  0.23510958360E+03  0.00000000000E+00 0.  1.
         21    1    1    2  502  501  0.73048214424E+01  0.31086011862E+02  0.16729666890E+01  0.31976544018E+02  0.00000000000E+00 0. -1.
<scales pt_clust_4="550.00000" pt_clust_5="550.00000" pt_clust_6="31.93275"></scales>
<mgrwt>
<rscale>  0 0.30000000E+03</rscale>
<asrwt>  1 0.31932750E+02</asrwt>
<pdfrwt beam="1">  1        1 0.79613560E+00 0.30000000E+03</pdfrwt>
<pdfrwt beam="2">0</pdfrwt>
<totfact> 0.11257179E-03</totfact>
</mgrwt>
<clustering>
<clus scale="   31.933">  1  6  2 -1</clus>
<clus scale="  457.225">  4  5 -1 -1</clus>
<clus scale="  300.000">  1  4  2 -1</clus>
</clustering>
</event>
<event>
 6    1  0.9843879E-012  0.3000000E+03  0.7818608E-02  0.1093470E+00
          1   -1    0    0  502    0  0.00000000000E+00  0.00000000000E+00  0.24426873403E+03  0.24426873403E+03  0.00000000000E+00 0.  1.
         13   -1    0    0    0    0 -0.00000000000E+00 -0.00000000000E+00 -0.27500000000E+03  0.27500000000E+03  0.00000000000E+00 0.  1.
    9000005    2    1    2  501    0  0.24052608225E+02  0.21519267628E+02 -0.43535212512E+02  0.48454773334E+03  0.48150761605E+03 0.  0.
         13    1    3    3    0    0  0.22907942196E+01 -0.17789332330E+02  0.21822427368E+03  0.21896013726E+03  0.00000000000E+00 0.  1.
          1    1    3    3  501    0  0.21761814006E+02  0.39308599958E+02 -0.26175948620E+03  0.26558759608E+03  0.00000000000E+00 0.  1.
         21    1    1    2  502  501 -0.24052608225E+02 -0.21519267628E+02  0.12803946540E+02  0.34721000687E+02  0.00000000000E+00 0.  1.
<scales pt_clust_4="550.00000" pt_clust_5="550.00000" pt_clust_6="32.27393"></scales>
<mgrwt>
<rscale>  0 0.30000000E+03</rscale>
<asrwt>  1 0.32273934E+02</asrwt>
<pdfrwt beam="1">  1        1 0.88824994E+00 0.30000000E+03</pdfrwt>
<pdfrwt beam="2">0</pdfrwt>
<totfact> 0.15543819E-04</totfact>
</mgrwt>
<clustering>
<clus scale="   32.274">  1  6  2 -1</clus>
<clus scale="  481.508">  4  5 -1 -1</clus>
<clus scale="  300.000">  1  4  2 -1</clus>
</clustering>
</event>
<event>
 6    1  0.9843879E-012  0.3000000E+03  0.7818608E-02  0.1093470E+00
          1   -1    0    0  502    0  0.00000000000E+00  0.00000000000E+00  0.24265875899E+03  0.24265875899E+03  0.00000000000E+00 0.  1.
         13   -1    0    0    0    0 -0.00000000000E+00 -0.00000000000E+00 -0.27500000000E+03  0.27500000000E+03  0.00000000000E+00 0.  1.
    9000005    2    1    2  501    0  0.24458323731E+02  0.31623387401E+02 -0.62934883792E+02  0.46731772991E+03  0.46133156499E+03 0.  0.
         13    1    3    3    0    0  0.53060732992E+02  0.25085286497E+02  0.19708971063E+03  0.20564305731E+03  0.00000000000E+00 0.  1.
          1    1    3    3  501    0 -0.28602409261E+02  0.65381009037E+01 -0.26002459442E+03  0.26167467260E+03  0.00000000000E+00 0.  1.
         21    1    1    2  502  501 -0.24458323731E+02 -0.31623387401E+02  0.30593642786E+02  0.50341029085E+02  0.00000000000E+00 0. -1.
<scales pt_clust_4="550.00000" pt_clust_5="550.00000" pt_clust_6="39.97810"></scales>
<mgrwt>
<rscale>  0 0.30000000E+03</rscale>
<asrwt>  1 0.39978097E+02</asrwt>
<pdfrwt beam="1">  1        1 0.88239549E+00 0.30000000E+03</pdfrwt>
<pdfrwt beam="2">0</pdfrwt>
<totfact> 0.17950402E-04</totfact>
</mgrwt>
<clustering>
<clus scale="   39.978">  1  6  2 -1</clus>
<clus scale="  461.332">  4  5 -1 -1</clus>
<clus scale="  300.000">  1  4  2 -1</clus>
</clustering>
</event>
<event>
 6    1  0.9843879E-012  0.3000000E+03  0.7818608E-02  0.1093470E+00
          1   -1    0    0  502    0  0.00000000000E+00  0.00000000000E+00  0.23345133789E+03  0.23345133789E+03  0.00000000000E+00 0.  1.
         13   -1    0    0    0    0 -0.00000000000E+00 -0.00000000000E+00 -0.27500000000E+03  0.27500000000E+03  0.00000000000E+00 0.  1.
    9000005    2    1    2  501    0  0.16837213849E+02 -0.37002816195E+02 -0.52203250487E+02  0.46642491252E+03  0.46170804571E+03 0.  0.
         13    1    3    3    0    0  0.56497391442E+02 -0.15674379501E+03  0.15257200694E+03  0.22591766159E+03  0.00000000000E+00 0.  1.
          3    1    3    3  501    0 -0.39660177593E+02  0.11974097882E+03 -0.20477525743E+03  0.24050725093E+03  0.00000000000E+00 0.  1.
         21    1    1    2  502  501 -0.16837213849E+02  0.37002816195E+02  0.10654588381E+02  0.42026425379E+02  0.00000000000E+00 0. -1.
<scales pt_clust_4="550.00000" pt_clust_5="550.00000" pt_clust_6="40.65342"></scales>
<mgrwt>
<rscale>  0 0.30000000E+03</rscale>
<asrwt>  1 0.40653415E+02</asrwt>
<pdfrwt beam="1">  1        1 0.84891396E+00 0.30000000E+03</pdfrwt>
<pdfrwt beam="2">0</pdfrwt>
<totfact> 0.40523718E-04</totfact>
</mgrwt>
<clustering>
<clus scale="   40.653">  1  6  2 -1</clus>
<clus scale="  461.708">  4  5 -1 -1</clus>
<clus scale="  300.000">  1  4  2 -1</clus>
</clustering>
</event>
<event>
 6    1  0.9843879E-012  0.3000000E+03  0.7818608E-02  0.1093470E+00
          1   -1    0    0  502    0  0.00000000000E+00  0.00000000000E+00  0.23102887986E+03  0.23102887986E+03  0.00000000000E+00 0.  1.
         13   -1    0    0    0    0 -0.00000000000E+00 -0.00000000000E+00 -0.27500000000E+03  0.27500000000E+03  0.00000000000E+00 0.  1.
    9000005    2    1    2  501    0 -0.34038301508E+02  0.12310101253E+02 -0.49507502549E+02  0.46941199724E+03  0.46538853207E+03 0.  0.
         13    1    3    3    0    0  0.10894559054E+03 -0.12672210799E+03  0.12156785541E+03  0.20665521485E+03  0.00000000000E+00 0.  1.
          1    1    3    3  501    0 -0.14298389205E+03  0.13903220925E+03 -0.17107535796E+03  0.26275678240E+03  0.00000000000E+00 0.  1.
         21    1    1    2  502  501  0.34038301508E+02 -0.12310101253E+02  0.55363824097E+01  0.36616882618E+02  0.00000000000E+00 0. -1.
<scales pt_clust_4="550.00000" pt_clust_5="550.00000" pt_clust_6="36.19592"></scales>
<mgrwt>
<rscale>  0 0.30000000E+03</rscale>
<asrwt>  1 0.36195919E+02</asrwt>
<pdfrwt beam="1">  1        1 0.84010502E+00 0.30000000E+03</pdfrwt>
<pdfrwt beam="2">0</pdfrwt>
<totfact> 0.49302145E-04</totfact>
</mgrwt>
<clustering>
<clus scale="   36.196">  1  6  2 -1</clus>
<clus scale="  465.389">  4  5 -1 -1</clus>
<clus scale="  300.000">  1  4  2 -1</clus>
</clustering>
</event>
<event>
 6    1  0.9843879E-012  0.3000000E+03  0.7818608E-02  0.1093470E+00
          1   -1    0    0  502    0  0.00000000000E+00  0.00000000000E+00  0.23758829302E+03  0.23758829302E+03  0.00000000000E+00 0.  1.
         13   -1    0    0    0    0 -0.00000000000E+00 -0.00000000000E+00 -0.27500000000E+03  0.27500000000E+03  0.00000000000E+00 0.  1.
    9000005    2    1    2  501    0 -0.25866875757E+02 -0.30076482248E+02 -0.44527501132E+02  0.47228538280E+03  0.46850517009E+03 0.  0.
         13    1    3    3    0    0  0.65697271159E+01  0.20416975095E+03  0.61198965680E+02  0.21324577819E+03  0.00000000000E+00 0.  1.
          1    1    3    3  501    0 -0.32436602873E+02 -0.23424623320E+03 -0.10572646681E+03  0.25903960461E+03  0.00000000000E+00 0.  1.
         21    1    1    2  502  501  0.25866875757E+02  0.30076482248E+02  0.71157941547E+01  0.40302910221E+02  0.00000000000E+00 0.  1.
<scales pt_clust_4="550.00000" pt_clust_5="550.00000" pt_clust_6="39.66976"></scales>
<mgrwt>
<rscale>  0 0.30000000E+03</rscale>
<asrwt>  1 0.39669762E+02</asrwt>
<pdfrwt beam="1">  1        1 0.86395743E+00 0.30000000E+03</pdfrwt>
<pdfrwt beam="2">0</pdfrwt>
<totfact> 0.28648645E-04</totfact>
</mgrwt>
<clustering>
<clus scale="   39.670">  1  6  2 -1</clus>
<clus scale="  468.505">  4  5 -1 -1</clus>
<clus scale="  300.000">  1  4  2 -1</clus>
</clustering>
</event>
<event>
 6    1  0.9843879E-012  0.3000000E+03  0.7818608E-02  0.1093470E+00
          1   -1    0    0  502    0  0.00000000000E+00  0.00000000000E+00  0.23807203559E+03  0.23807203559E+03  0.00000000000E+00 0.  1.
         13   -1    0    0    0    0 -0.00000000000E+00 -0.00000000000E+00 -0.27500000000E+03  0.27500000000E+03  0.00000000000E+00 0.  1.
    9000005    2    1    2  501    0 -0.45880724020E+01 -0.29727080377E+02 -0.76480344601E+02  0.46338158887E+03  0.45603563905E+03 0.  0.
         13    1    3    3    0    0  0.21358756867E+03 -0.26493052530E+02 -0.11149650371E+03  0.24239018475E+03  0.00000000000E+00 0.  1.
          3    1    3    3  501    0 -0.21817564108E+03 -0.32340278466E+01  0.35016159114E+02  0.22099140412E+03  0.00000000000E+00 0.  1.
         21    1    1    2  502  501  0.45880724020E+01  0.29727080377E+02  0.39552380186E+02  0.49690446712E+02  0.00000000000E+00 0.  1.
<scales pt_clust_4="550.00000" pt_clust_5="550.00000" pt_clust_6="30.07906"></scales>
<mgrwt>
<rscale>  0 0.30000000E+03</rscale>
<asrwt>  1 0.30079058E+02</asrwt>
<pdfrwt beam="1">  1        1 0.86571649E+00 0.30000000E+03</pdfrwt>
<pdfrwt beam="2">0</pdfrwt>
<totfact> 0.28887410E-04</totfact>
</mgrwt>
<clustering>
<clus scale="   30.079">  1  6  2 -1</clus>
<clus scale="  456.036">  4  5 -1 -1</clus>
<clus scale="  300.000">  1  4  2 -1</clus>
</clustering>
</event>
<event>
 6    1  0.9843879E-012  0.3000000E+03  0.7818608E-02  0.1093470E+00
          1   -1    0    0  502    0  0.00000000000E+00  0.00000000000E+00  0.24254113039E+03  0.24254113039E+03  0.00000000000E+00 0.  1.
         13   -1    0    0    0    0 -0.00000000000E+00 -0.00000000000E+00 -0.27500000000E+03  0.27500000000E+03  0.00000000000E+00 0.  1.
    9000005    2    1    2  501    0  0.14530420993E+01 -0.38503581493E+02 -0.66781085267E+02  0.46594024273E+03  0.45951709362E+03 0.  0.
         13    1    3    3    0    0 -0.13317293532E+03 -0.11211706477E+03  0.12938014912E+03  0.21689741792E+03  0.00000000000E+00 0.  1.
          1    1    3    3  501    0  0.13462597742E+03  0.73613483274E+02 -0.19616123439E+03  0.24904282482E+03  0.00000000000E+00 0.  1.
         21    1    1    2  502  501 -0.14530420993E+01  0.38503581493E+02  0.34322215656E+02  0.51600887654E+02  0.00000000000E+00 0.  1.
<scales pt_clust_4="550.00000" pt_clust_5="550.00000" pt_clust_6="38.53099"></scales>
<mgrwt>
<rscale>  0 0.30000000E+03</rscale>
<asrwt>  1 0.38530989E+02</asrwt>
<pdfrwt beam="1">  1        1 0.88196775E+00 0.30000000E+03</pdfrwt>
<pdfrwt beam="2">0</pdfrwt>
<totfact> 0.18306297E-04</totfact>
</mgrwt>
<clustering>
<clus scale="   38.531">  1  6  2 -1</clus>
<clus scale="  459.517">  4  5 -1 -1</clus>
<clus scale="  300.000">  1  4  2 -1</clus>
</clustering>
</event>
<event>
 6    1  0.9843879E-012  0.3000000E+03  0.7818608E-02  0.1093470E+00
          1   -1    0    0  502    0  0.00000000000E+00  0.00000000000E+00  0.24400817150E+03  0.24400817150E+03  0.00000000000E+00 0.  1.
         13   -1    0    0    0    0 -0.00000000000E+00 -0.00000000000E+00 -0.27500000000E+03  0.27500000000E+03  0.00000000000E+00 0.  1.
    9000005    2    1    2  501    0  0.43919552663E+02  0.31156614264E+02 -0.45940413543E+02  0.46312327271E+03  0.45768218494E+03 0.  0.
         13    1    3    3    0    0 -0.54911802891E+02  0.67881593458E+02 -0.23276468451E+03  0.24860131774E+03  0.00000000000E+00 0.  1.
          3    1    3    3  501    0  0.98831355554E+02 -0.36724979194E+02  0.18682427097E+03  0.21452195496E+03  0.00000000000E+00 0.  1.
         21    1    1    2  502  501 -0.43919552663E+02 -0.31156614264E+02  0.14948585044E+02  0.55884898795E+02  0.00000000000E+00 0.  1.
<scales pt_clust_4="550.00000" pt_clust_5="550.00000" pt_clust_6="53.84851"></scales>
<mgrwt>
<rscale>  0 0.30000000E+03</rscale>
<asrwt>  1 0.53848507E+02</asrwt>
<pdfrwt beam="1">  1        1 0.88730244E+00 0.30000000E+03</pdfrwt>
<pdfrwt beam="2">0</pdfrwt>
<totfact> 0.14598402E-04</totfact>
</mgrwt>
<clustering>
<clus scale="   53.849">  1  6  2 -1</clus>
<clus scale="  457.682">  4  5 -1 -1</clus>
<clus scale="  300.000">  1  4  2 -1</clus>
</clustering>
</event>
<event>
 6    1  0.9843879E-012  0.3000000E+03  0.7818608E-02  0.1093470E+00
          1   -1    0    0  502    0  0.00000000000E+00  0.00000000000E+00  0.24110244865E+03  0.24110244865E+03  0.00000000000E+00 0.  1.
         13   -1    0    0    0    0 -0.00000000000E+00 -0.00000000000E+00 -0.27500000000E+03  0.27500000000E+03  0.00000000000E+00 0.  1.
    9000005    2    1    2  501    0  0.76343775798E+01  0.31166173648E+02 -0.60906757595E+02  0.47416068757E+03  0.46913655838E+03 0.  0.
         13    1    3    3    0    0  0.18817984888E+03  0.34505315923E+02  0.11404761757E+03  0.22273107422E+03  0.00000000000E+00 0.  1.
          3    1    3    3  501    0 -0.18054547130E+03 -0.33391422752E+01 -0.17495437516E+03  0.25142961334E+03  0.00000000000E+00 0.  1.
         21    1    1    2  502  501 -0.76343775798E+01 -0.31166173648E+02  0.27009206245E+02  0.41941761085E+02  0.00000000000E+00 0.  1.
<scales pt_clust_4="550.00000" pt_clust_5="550.00000" pt_clust_6="32.08760"></scales>
<mgrwt>
<rscale>  0 0.30000000E+03</rscale>
<asrwt>  1 0.32087600E+02</asrwt>
<pdfrwt beam="1">  1        1 0.87673618E+00 0.30000000E+03</pdfrwt>
<pdfrwt beam="2">0</pdfrwt>
<totfact> 0.21899250E-04</totfact>
</mgrwt>
<clustering>
<clus scale="   32.088">  1  6  2 -1</clus>
<clus scale="  469.137">  4  5 -1 -1</clus>
<clus scale="  300.000">  1  4  2 -1</clus>
</clustering>
</event>
<event>
 6    1  0.9843879E-012  0.3000000E+03  0.7818608E-02  0.1093470E+00
          1   -1    0    0  502    0  0.00000000000E+00  0.00000000000E+00  0.22287122966E+03  0.22287122966E+03  0.00000000000E+00 0.  1.
         13   -1    0    0    0    0 -0.00000000000E+00 -0.00000000000E+00 -0.27500000000E+03  0.27500000000E+03  0.00000000000E+00 0.  1.
    9000005    2    1    2  501    0 -0.68217221791E+01  0.31371492051E+02 -0.40570123433E+02  0.46374926129E+03  0.46085435446E+03 0.  0.
         13    1    3    3    0    0  0.18795127521E+03  0.98153332091E+02 -0.11931483125E+03  0.24330184424E+03  0.00000000000E+00 0.  1.
          3    1    3    3  501    0 -0.19477299739E+03 -0.66781840039E+02  0.78744707821E+02  0.22044741705E+03  0.00000000000E+00 0.  1.
         21    1    1    2  502  501  0.68217221791E+01 -0.31371492051E+02 -0.11558646908E+02  0.34121968369E+02  0.00000000000E+00 0.  1.
<scales pt_clust_4="550.00000" pt_clust_5="550.00000" pt_clust_6="32.10463"></scales>
<mgrwt>
<rscale>  0 0.30000000E+03</rscale>
<asrwt>  1 0.32104633E+02</asrwt>
<pdfrwt beam="1">  1        1 0.81044084E+00 0.30000000E+03</pdfrwt>
<pdfrwt beam="2">0</pdfrwt>
<totfact> 0.87946235E-04</totfact>
</mgrwt>
<clustering>
<clus scale="   32.105">  1  6  2 -1</clus>
<clus scale="  460.854">  4  5 -1 -1</clus>
<clus scale="  300.000">  1  4  2 -1</clus>
</clustering>
</event>
<event>
 6    1  0.9843879E-012  0.3000000E+03  0.7818608E-02  0.1093470E+00
          1   -1    0    0  502    0  0.00000000000E+00  0.00000000000E+00  0.22533318063E+03  0.22533318063E+03  0.00000000000E+00 0.  1.
         13   -1    0    0    0    0 -0.00000000000E+00 -0.00000000000E+00 -0.27500000000E+03  0.27500000000E+03  0.00000000000E+00 0.  1.
    9000005    2    1    2  501    0 -0.31200272369E+02  0.15623257099E+02 -0.53352128641E+02  0.46524579454E+03  0.46085752305E+03 0.  0.
         13    1    3    3    0    0  0.12738919594E+03 -0.83337343258E+02 -0.18278793215E+03  0.23787506839E+03  0.00000000000E+00 0.  1.
          1    1    3    3  501    0 -0.15858946831E+03  0.98960600357E+02  0.12943580350E+03  0.22737072615E+03  0.00000000000E+00 0.  1.
         21    1    1    2  502  501  0.31200272369E+02 -0.15623257099E+02  0.36853092747E+01  0.35087386091E+02  0.00000000000E+00 0. -1.
<scales pt_clust_4="550.00000" pt_clust_5="550.00000" pt_clust_6="34.89331"></scales>
<mgrwt>
<rscale>  0 0.30000000E+03</rscale>
<asrwt>  1 0.34893311E+02</asrwt>
<pdfrwt beam="1">  1        1 0.81939338E+00 0.30000000E+03</pdfrwt>
<pdfrwt beam="2">0</pdfrwt>
<totfact> 0.73246959E-04</totfact>
</mgrwt>
<clustering>
<clus scale="   34.893">  1  6  2 -1</clus>
<clus scale="  460.858">  4  5 -1 -1</clus>
<clus scale="  300.000">  1  4  2 -1</clus>
</clustering>
</event>
<event>
 6    1  0.9843879E-012  0.3000000E+03  0.7818608E-02  0.1093470E+00
          1   -1    0    0  502    0  0.00000000000E+00  0.00000000000E+00  0.22831751906E+03  0.22831751906E+03  0.00000000000E+00 0.  1.
         13   -1    0    0    0    0 -0.00000000000E+00 -0.00000000000E+00 -0.27500000000E+03  0.27500000000E+03  0.00000000000E+00 0.  1.
    9000005    2    1    2  501    0  0.22016313690E+02 -0.23875200667E+02 -0.40872005840E+02  0.47032502149E+03  0.46741882899E+03 0.  0.
         13    1    3    3    0    0 -0.15127414129E+03 -0.82807938840E+02 -0.17323670108E+03  0.24444217140E+03  0.00000000000E+00 0.  1.
          3    1    3    3  501    0  0.17329045498E+03  0.58932738173E+02  0.13236469524E+03  0.22588285008E+03  0.00000000000E+00 0.  1.
         21    1    1    2  502  501 -0.22016313690E+02  0.23875200667E+02 -0.58104750994E+01  0.32992497575E+02  0.00000000000E+00 0.  1.
<scales pt_clust_4="550.00000" pt_clust_5="550.00000" pt_clust_6="32.47683"></scales>
<mgrwt>
<rscale>  0 0.30000000E+03</rscale>
<asrwt>  1 0.32476828E+02</asrwt>
<pdfrwt beam="1">  1        1 0.83024552E+00 0.30000000E+03</pdfrwt>
<pdfrwt beam="2">0</pdfrwt>
<totfact> 0.59661998E-04</totfact>
</mgrwt>
<clustering>
<clus scale="   32.477">  1  6  2 -1</clus>
<clus scale="  467.419">  4  5 -1 -1</clus>
<clus scale="  300.000">  1  4  2 -1</clus>
</clustering>
</event>
<event>
 6    1  0.9843879E-012  0.3000000E+03  0.7818608E-02  0.1093470E+00
          1   -1    0    0  502    0  0.00000000000E+00  0.00000000000E+00  0.24840576557E+03  0.24840576557E+03  0.00000000000E+00 0.  1.
         13   -1    0    0    0    0 -0.00000000000E+00 -0.00000000000E+00 -0.27500000000E+03  0.27500000000E+03  0.00000000000E+00 0.  1.
    9000005    2    1    2  501    0 -0.32669768705E+02 -0.70375259539E+00 -0.85934226723E+01  0.48609841671E+03  0.48492268947E+03 0.  0.
         13    1    3    3    0    0 -0.32234398918E+02  0.22206254664E+03  0.90926243935E+02  0.24211239731E+03  0.00000000000E+00 0.  1.
          1    1    3    3  501    0 -0.43536978657E+00 -0.22276629923E+03 -0.99519666607E+02  0.24398601940E+03  0.00000000000E+00 0.  1.
         21    1    1    2  502  501  0.32669768705E+02  0.70375259539E+00 -0.18000811760E+02  0.37307348860E+02  0.00000000000E+00 0. -1.
<scales pt_clust_4="550.00000" pt_clust_5="550.00000" pt_clust_6="32.67736"></scales>
<mgrwt>
<rscale>  0 0.30000000E+03</rscale>
<asrwt>  1 0.32677364E+02</asrwt>
<pdfrwt beam="1">  1        1 0.90329369E+00 0.30000000E+03</pdfrwt>
<pdfrwt beam="2">0</pdfrwt>
<totfact> 0.10040934E-04</totfact>
</mgrwt>
<clustering>
<clus scale="   32.677">  1  6  2 -1</clus>
<clus scale="  484.923">  4  5 -1 -1</clus>
<clus scale="  300.000">  1  4  2 -1</clus>
</clustering>
</event>
<event>
 6    1  0.9843879E-012  0.3000000E+03  0.7818608E-02  0.1093470E+00
          1   -1    0    0  502    0  0.00000000000E+00  0.00000000000E+00  0.26151927864E+03  0.26151927864E+03  0.00000000000E+00 0.  1.
         13   -1    0    0    0    0 -0.00000000000E+00 -0.00000000000E+00 -0.27500000000E+03  0.27500000000E+03  0.00000000000E+00 0.  1.
    9000005    2    1    2  501    0 -0.15267604466E+02  0.31859367256E+02 -0.33678067639E+02  0.49582466199E+03  0.49341642065E+03 0.  0.
         13    1    3    3    0    0  0.79729195556E+02 -0.14932292275E+03  0.14600472415E+03  0.22354296982E+03  0.00000000000E+00 0.  1.
          1    1    3    3  501    0 -0.94996800021E+02  0.18118229000E+03 -0.17968279179E+03  0.27228169217E+03  0.00000000000E+00 0.  1.
         21    1    1    2  502  501  0.15267604466E+02 -0.31859367256E+02  0.20197346283E+02  0.40694616658E+02  0.00000000000E+00 0.  1.
<scales pt_clust_4="550.00000" pt_clust_5="550.00000" pt_clust_6="35.32873"></scales>
<mgrwt>
<rscale>  0 0.30000000E+03</rscale>
<asrwt>  1 0.35328728E+02</asrwt>
<pdfrwt beam="1">  1        1 0.95097920E+00 0.30000000E+03</pdfrwt>
<pdfrwt beam="2">0</pdfrwt>
<totfact> 0.11755509E-05</totfact>
</mgrwt>
<clustering>
<clus scale="   35.329">  1  6  2 -1</clus>
<clus scale="  493.416">  4  5 -1 -1</clus>
<clus scale="  300.000">  1  4  2 -1</clus>
</clustering>
</event>
<event>
 6    1  0.9843879E-012  0.3000000E+03  0.7818608E-02  0.1093470E+00
          1   -1    0    0  502    0  0.00000000000E+00  0.00000000000E+00  0.22193203179E+03  0.22193203179E+03  0.00000000000E+00 0.  1.
         13   -1    0    0    0    0 -0.00000000000E+00 -0.00000000000E+00 -0.27500000000E+03  0.27500000000E+03  0.00000000000E+00 0.  1.
    9000005    2    1    2  501    0 -0.71748810276E+01 -0.29552396282E+02 -0.67803970219E+02  0.46313894376E+03  0.45713835958E+03 0.  0.
         13    1    3    3    0    0  0.86618461556E+00  0.63892946349E+02  0.18381679135E+03  0.19460645326E+03  0.00000000000E+00 0.  1.
          3    1    3    3  501    0 -0.80410656431E+01 -0.93445342631E+02 -0.25162076157E+03  0.26853249049E+03  0.00000000000E+00 0.  1.
         21    1    1    2  502  501  0.71748810276E+01  0.29552396282E+02  0.14736002012E+02  0.33793088037E+02  0.00000000000E+00 0. -1.
<scales pt_clust_4="550.00000" pt_clust_5="550.00000" pt_clust_6="30.41090"></scales>
<mgrwt>
<rscale>  0 0.30000000E+03</rscale>
<asrwt>  1 0.30410903E+02</asrwt>
<pdfrwt beam="1">  1        1 0.80702557E+00 0.30000000E+03</pdfrwt>
<pdfrwt beam="2">0</pdfrwt>
<totfact> 0.94441680E-04</totfact>
</mgrwt>
<clustering>
<clus scale="   30.411">  1  6  2 -1</clus>
<clus scale="  457.138">  4  5 -1 -1</clus>
<clus scale="  300.000">  1  4  2 -1</clus>
</clustering>
</event>
<event>
 6    1  0.9843879E-012  0.3000000E+03  0.7818608E-02  0.1093470E+00
          1   -1    0    0  502    0  0.00000000000E+00  0.00000000000E+00  0.22601600092E+03  0.22601600092E+03  0.00000000000E+00 0.  1.
         13   -1    0    0    0    0 -0.00000000000E+00 -0.00000000000E+00 -0.27500000000E+03  0.27500000000E+03  0.00000000000E+00 0.  1.
    9000005    2    1    2  501    0  0.11892820489E+02 -0.29857823224E+02 -0.50940377363E+02  0.46881730214E+03  0.46493205090E+03 0.  0.
         13    1    3    3    0    0  0.15066271951E+03  0.34730039004E+02 -0.20158820517E+03  0.25405360679E+03  0.00000000000E+00 0.  1.
          1    1    3    3  501    0 -0.13876989902E+03 -0.64587862227E+02  0.15064782780E+03  0.21476369535E+03  0.00000000000E+00 0.  1.
         21    1    1    2  502  501 -0.11892820489E+02  0.29857823224E+02  0.19563782788E+01  0.32198698775E+02  0.00000000000E+00 0.  1.
<scales pt_clust_4="550.00000" pt_clust_5="550.00000" pt_clust_6="32.13921"></scales>
<mgrwt>
<rscale>  0 0.30000000E+03</rscale>
<asrwt>  1 0.32139209E+02</asrwt>
<pdfrwt beam="1">  1        1 0.82187637E+00 0.30000000E+03</pdfrwt>
<pdfrwt beam="2">0</pdfrwt>
<totfact> 0.70770720E-04</totfact>
</mgrwt>
<clustering>
<clus scale="   32.139">  1  6  2 -1</clus>
<clus scale="  464.932">  4  5 -1 -1</clus>
<clus scale="  300.000">  1  4  2 -1</clus>
</clustering>
</event>
<event>
 6    1  0.9843879E-012  0.3000000E+03  0.7818608E-02  0.1093470E+00
          1   -1    0    0  502    0  0.00000000000E+00  0.00000000000E+00  0.26784600201E+03  0.26784600201E+03  0.00000000000E+00 0.  1.
         13   -1    0    0    0    0 -0.00000000000E+00 -0.00000000000E+00 -0.27500000000E+03  0.27500000000E+03  0.00000000000E+00 0.  1.
    9000005    2    1    2  501    0 -0.33580697562E+02  0.21257397519E+02 -0.26763089617E+02  0.49852832300E+03  0.49622040030E+03 0.  0.
         13    1    3    3    0    0  0.18392939877E+03 -0.12664638824E+03 -0.65351068065E+02  0.23268023870E+03  0.00000000000E+00 0.  1.
          3    1    3    3  501    0 -0.21751009633E+03  0.14790378576E+03  0.38587978448E+02  0.26584808430E+03  0.00000000000E+00 0.  1.
         21    1    1    2  502  501  0.33580697562E+02 -0.21257397519E+02  0.19609091629E+02  0.44317679007E+02  0.00000000000E+00 0. -1.
<scales pt_clust_4="550.00000" pt_clust_5="550.00000" pt_clust_6="39.74343"></scales>
<mgrwt>
<rscale>  0 0.30000000E+03</rscale>
<asrwt>  1 0.39743430E+02</asrwt>
<pdfrwt beam="1">  1        1 0.97398546E+00 0.30000000E+03</pdfrwt>
<pdfrwt beam="2">0</pdfrwt>
<totfact> 0.41793654E-06</totfact>
</mgrwt>
<clustering>
<clus scale="   39.743">  1  6  2 -1</clus>
<clus scale="  496.220">  4  5 -1 -1</clus>
<clus scale="  300.000">  1  4  2 -1</clus>
</clustering>
</event>
<event>
 6    1  0.9843879E-012  0.3000000E+03  0.7818608E-02  0.1093470E+00
          1   -1    0    0  502    0  0.00000000000E+00  0.00000000000E+00  0.23219184931E+03  0.23219184931E+03  0.00000000000E+00 0.  1.
         13   -1    0    0    0    0 -0.00000000000E+00 -0.00000000000E+00 -0.27500000000E+03  0.27500000000E+03  0.00000000000E+00 0.  1.
    9000005    2    1    2  501    0  0.42846534132E+02 -0.15325291414E+01 -0.53588781027E+02  0.46298329671E+03  0.45786854167E+03 0.  0.
         13    1    3    3    0    0 -0.28609114159E+02 -0.19112968835E+03 -0.14410238074E+03  0.24106956531E+03  0.00000000000E+00 0.  1.
          3    1    3    3  501    0  0.71455648290E+02  0.18959715921E+03  0.90513599711E+02  0.22191373140E+03  0.00000000000E+00 0.  1.
         21    1    1    2  502  501 -0.42846534132E+02  0.15325291414E+01  0.10780630340E+02  0.44208552602E+02  0.00000000000E+00 0. -1.
<scales pt_clust_4="550.00000" pt_clust_5="550.00000" pt_clust_6="42.87393"></scales>
<mgrwt>
<rscale>  0 0.30000000E+03</rscale>
<asrwt>  1 0.42873933E+02</asrwt>
<pdfrwt beam="1">  1        1 0.84433400E+00 0.30000000E+03</pdfrwt>
<pdfrwt beam="2">0</pdfrwt>
<totfact> 0.44114205E-04</totfact>
</mgrwt>
<clustering>
<clus scale="   42.874">  1  6  2 -1</clus>
<clus scale="  457.869">  4  5 -1 -1</clus>
<clus scale="  300.000">  1  4  2 -1</clus>
</clustering>
</event>
<event>
 6    1  0.9843879E-012  0.3000000E+03  0.7818608E-02  0.1093470E+00
          1   -1    0    0  502    0  0.00000000000E+00  0.00000000000E+00  0.24163024741E+03  0.24163024741E+03  0.00000000000E+00 0.  1.
         13   -1    0    0    0    0 -0.00000000000E+00 -0.00000000000E+00 -0.27500000000E+03  0.27500000000E+03  0.00000000000E+00 0.  1.
    9000005    2    1    2  501    0 -0.14314746749E+01  0.30634523998E+02 -0.60838035598E+02  0.47545950839E+03  0.47055281782E+03 0.  0.
         13    1    3    3    0    0 -0.14199551640E+03  0.18636652072E+03 -0.11174995796E+03  0.25958285734E+03  0.00000000000E+00 0.  1.
          1    1    3    3  501    0  0.14056404173E+03 -0.15573199672E+03  0.50911922358E+02  0.21587665105E+03  0.00000000000E+00 0.  1.
         21    1    1    2  502  501  0.14314746749E+01 -0.30634523998E+02  0.27468283013E+02  0.41170739027E+02  0.00000000000E+00 0.  1.
<scales pt_clust_4="550.00000" pt_clust_5="550.00000" pt_clust_6="30.66795"></scales>
<mgrwt>
<rscale>  0 0.30000000E+03</rscale>
<asrwt>  1 0.30667950E+02</asrwt>
<pdfrwt beam="1">  1        1 0.87865545E+00 0.30000000E+03</pdfrwt>
<pdfrwt beam="2">0</pdfrwt>
<totfact> 0.21006854E-04</totfact>
</mgrwt>
<clustering>
<clus scale="   30.668">  1  6  2 -1</clus>
<clus scale="  470.553">  4  5 -1 -1</clus>
<clus scale="  300.000">  1  4  2 -1</clus>
</clustering>
</event>
<event>
 6    1  0.9843879E-012  0.3000000E+03  0.7818608E-02  0.1093470E+00
          1   -1    0    0  502    0  0.00000000000E+00  0.00000000000E+00  0.23812317480E+03  0.23812317480E+03  0.00000000000E+00 0.  1.
         13   -1    0    0    0    0 -0.00000000000E+00 -0.00000000000E+00 -0.27500000000E+03  0.27500000000E+03  0.00000000000E+00 0.  1.
    9000005    2    1    2  501    0  0.29176349286E+02  0.14713201066E+02 -0.56398364873E+02  0.47505969947E+03  0.47056689732E+03 0.  0.
         13    1    3    3    0    0  0.88564292174E+02 -0.13172698293E+03  0.14777884712E+03  0.21687374100E+03  0.00000000000E+00 0.  1.
          1    1    3    3  501    0 -0.59387942888E+02  0.14644018400E+03 -0.20417721199E+03  0.25818595846E+03  0.00000000000E+00 0.  1.
         21    1    1    2  502  501 -0.29176349286E+02 -0.14713201066E+02  0.19521539674E+02  0.38063475334E+02  0.00000000000E+00 0. -1.
<scales pt_clust_4="550.00000" pt_clust_5="550.00000" pt_clust_6="32.67626"></scales>
<mgrwt>
<rscale>  0 0.30000000E+03</rscale>
<asrwt>  1 0.32676255E+02</asrwt>
<pdfrwt beam="1">  1        1 0.86590245E+00 0.30000000E+03</pdfrwt>
<pdfrwt beam="2">0</pdfrwt>
<totfact> 0.28304205E-04</totfact>
</mgrwt>
<clustering>
<clus scale="   32.676">  1  6  2 -1</clus>
<clus scale="  470.567">  4  5 -1 -1</clus>
<clus scale="  300.000">  1  4  2 -1</clus>
</clustering>
</event>
<event>
 6    1  0.9843879E-012  0.3000000E+03  0.7818608E-02  0.1093470E+00
          1   -1    0    0  502    0  0.00000000000E+00  0.00000000000E+00  0.23716320208E+03  0.23716320208E+03  0.00000000000E+00 0.  1.
         13   -1    0    0    0    0 -0.00000000000E+00 -0.00000000000E+00 -0.27500000000E+03  0.27500000000E+03  0.00000000000E+00 0.  1.
    9000005    2    1    2  501    0 -0.26648642299E+02 -0.30566092431E+02 -0.51847628213E+02  0.46925936183E+03  0.46461999093E+03 0.  0.
         13    1    3    3    0    0  0.10302510232E+03 -0.63697978768E+02 -0.22192910043E+03  0.25283221675E+03  0.00000000000E+00 0.  1.
          3    1    3    3  501    0 -0.12967374462E+03  0.33131886337E+02  0.17008147222E+03  0.21642714508E+03  0.00000000000E+00 0.  1.
         21    1    1    2  502  501  0.26648642299E+02  0.30566092431E+02  0.14010830297E+02  0.42903840254E+02  0.00000000000E+00 0.  1.
<scales pt_clust_4="550.00000" pt_clust_5="550.00000" pt_clust_6="40.55165"></scales>
<mgrwt>
<rscale>  0 0.30000000E+03</rscale>
<asrwt>  1 0.40551648E+02</asrwt>
<pdfrwt beam="1">  1        1 0.86241164E+00 0.30000000E+03</pdfrwt>
<pdfrwt beam="2">0</pdfrwt>
<totfact> 0.29654333E-04</totfact>
</mgrwt>
<clustering>
<clus scale="   40.552">  1  6  2 -1</clus>
<clus scale="  464.620">  4  5 -1 -1</clus>
<clus scale="  300.000">  1  4  2 -1</clus>
</clustering>
</event>
<event>
 6    1  0.9843879E-012  0.3000000E+03  0.7818608E-02  0.1093470E+00
          1   -1    0    0  502    0  0.00000000000E+00  0.00000000000E+00  0.25423828333E+03  0.25423828333E+03  0.00000000000E+00 0.  1.
         13   -1    0    0    0    0 -0.00000000000E+00 -0.00000000000E+00 -0.27500000000E+03  0.27500000000E+03  0.00000000000E+00 0.  1.
    9000005    2    1    2  501    0  0.26713183670E+02  0.13880292990E+02 -0.32552867252E+02  0.49690737015E+03  0.49492523539E+03 0.  0.
         13    1    3    3    0    0 -0.13912046507E+03 -0.11051354337E+03 -0.17182315842E+03  0.24716582458E+03  0.00000000000E+00 0.  1.
          3    1    3    3  501    0  0.16583364874E+03  0.12439383636E+03  0.13927029117E+03  0.24974154557E+03  0.00000000000E+00 0.  1.
         21    1    1    2  502  501 -0.26713183670E+02 -0.13880292990E+02  0.11791150581E+02  0.32330913183E+02  0.00000000000E+00 0.  1.
<scales pt_clust_4="550.00000" pt_clust_5="550.00000" pt_clust_6="30.10410"></scales>
<mgrwt>
<rscale>  0 0.30000000E+03</rscale>
<asrwt>  1 0.30104098E+02</asrwt>
<pdfrwt beam="1">  1        1 0.92450285E+00 0.30000000E+03</pdfrwt>
<pdfrwt beam="2">0</pdfrwt>
<totfact> 0.34552642E-05</totfact>
</mgrwt>
<clustering>
<clus scale="   30.104">  1  6  2 -1</clus>
<clus scale="  494.925">  4  5 -1 -1</clus>
<clus scale="  300.000">  1  4  2 -1</clus>
</clustering>
</event>
<event>
 6    1  0.9843879E-012  0.3000000E+03  0.7818608E-02  0.1093470E+00
          1   -1    0    0  502    0  0.00000000000E+00  0.00000000000E+00  0.23647341789E+03  0.23647341789E+03  0.00000000000E+00 0.  1.
         13   -1    0    0    0    0 -0.00000000000E+00 -0.00000000000E+00 -0.27500000000E+03  0.27500000000E+03  0.00000000000E+00 0.  1.
    9000005    2    1    2  501    0  0.31138139341E+02  0.11014468631E+02 -0.64066216104E+02  0.46972206886E+03  0.46415885179E+03 0.  0.
         13    1    3    3    0    0  0.12610509434E+03  0.19189389692E+03  0.51049942513E+02  0.23522724996E+03  0.00000000000E+00 0.  1.
          3    1    3    3  501    0 -0.94966954996E+02 -0.18087942829E+03 -0.11511615862E+03  0.23449481891E+03  0.00000000000E+00 0.  1.
         21    1    1    2  502  501 -0.31138139341E+02 -0.11014468631E+02  0.25539633993E+02  0.41751349024E+02  0.00000000000E+00 0.  1.
<scales pt_clust_4="550.00000" pt_clust_5="550.00000" pt_clust_6="33.02881"></scales>
<mgrwt>
<rscale>  0 0.30000000E+03</rscale>
<asrwt>  1 0.33028809E+02</asrwt>
<pdfrwt beam="1">  1        1 0.85990334E+00 0.30000000E+03</pdfrwt>
<pdfrwt beam="2">0</pdfrwt>
<totfact> 0.32778560E-04</totfact>
</mgrwt>
<clustering>
<clus scale="   33.029">  1  6  2 -1</clus>
<clus scale="  464.159">  4  5 -1 -1</clus>
<clus scale="  300.000">  1  4  2 -1</clus>
</clustering>
</event>
<event>
 6    1  0.9843879E-012  0.3000000E+03  0.7818608E-02  0.1093470E+00
          1   -1    0    0  502    0  0.00000000000E+00  0.00000000000E+00  0.24507137817E+03  0.24507137817E+03  0.00000000000E+00 0.  1.
         13   -1    0    0    0    0 -0.00000000000E+00 -0.00000000000E+00 -0.27500000000E+03  0.27500000000E+03  0.00000000000E+00 0.  1.
    9000005    2    1    2  501    0 -0.19078039789E+02  0.28783808232E+02 -0.49652003433E+02  0.48030341367E+03  0.47648039679E+03 0.  0.
         13    1    3    3    0    0 -0.16966312916E+03  0.19092425410E+03 -0.10858011925E+02  0.25564730513E+03  0.00000000000E+00 0.  1.
          1    1    3    3  501    0  0.15058508937E+03 -0.16214044587E+03 -0.38793991508E+02  0.22465610854E+03  0.00000000000E+00 0.  1.
         21    1    1    2  502  501  0.19078039789E+02 -0.28783808232E+02  0.19723381605E+02  0.39767964500E+02  0.00000000000E+00 0.  1.
<scales pt_clust_4="550.00000" pt_clust_5="550.00000" pt_clust_6="34.53229"></scales>
<mgrwt>
<rscale>  0 0.30000000E+03</rscale>
<asrwt>  1 0.34532292E+02</asrwt>
<pdfrwt beam="1">  1        1 0.89116865E+00 0.30000000E+03</pdfrwt>
<pdfrwt beam="2">0</pdfrwt>
<totfact> 0.14030909E-04</totfact>
</mgrwt>
<clustering>
<clus scale="   34.532">  1  6  2 -1</clus>
<clus scale="  476.480">  4  5 -1 -1</clus>
<clus scale="  300.000">  1  4  2 -1</clus>
</clustering>
</event>
<event>
 6    1  0.9843879E-012  0.3000000E+03  0.7818608E-02  0.1093470E+00
          1   -1    0    0  502    0  0.00000000000E+00  0.00000000000E+00  0.22593774510E+03  0.22593774510E+03  0.00000000000E+00 0.  1.
         13   -1    0    0    0    0 -0.00000000000E+00 -0.00000000000E+00 -0.27500000000E+03  0.27500000000E+03  0.00000000000E+00 0.  1.
    9000005    2    1    2  501    0 -0.21340075482E+02  0.29442615300E+02 -0.56986918725E+02  0.46372126066E+03  0.45876751440E+03 0.  0.
         13    1    3    3    0    0 -0.12127016381E+03  0.99690185461E+02  0.15400983730E+03  0.21991729285E+03  0.00000000000E+00 0.  1.
          3    1    3    3  501    0  0.99930088332E+02 -0.70247570161E+02 -0.21099675603E+03  0.24380396781E+03  0.00000000000E+00 0.  1.
         21    1    1    2  502  501  0.21340075482E+02 -0.29442615300E+02  0.79246638267E+01  0.37216484440E+02  0.00000000000E+00 0.  1.
<scales pt_clust_4="550.00000" pt_clust_5="550.00000" pt_clust_6="36.36298"></scales>
<mgrwt>
<rscale>  0 0.30000000E+03</rscale>
<asrwt>  1 0.36362981E+02</asrwt>
<pdfrwt beam="1">  1        1 0.82159180E+00 0.30000000E+03</pdfrwt>
<pdfrwt beam="2">0</pdfrwt>
<totfact> 0.69549661E-04</totfact>
</mgrwt>
<clustering>
<clus scale="   36.363">  1  6  2 -1</clus>
<clus scale="  458.768">  4  5 -1 -1</clus>
<clus scale="  300.000">  1  4  2 -1</clus>
</clustering>
</event>
<event>
 6    1  0.9843879E-012  0.3000000E+03  0.7818608E-02  0.1093470E+00
          1   -1    0    0  502    0  0.00000000000E+00  0.00000000000E+00  0.23211687620E+03  0.23211687620E+03  0.00000000000E+00 0.  1.
         13   -1    0    0    0    0 -0.00000000000E+00 -0.00000000000E+00 -0.27500000000E+03  0.27500000000E+03  0.00000000000E+00 0.  1.
    9000005    2    1    2  501    0  0.34016158160E+02 -0.18648305627E+02 -0.60498590894E+02  0.46451214642E+03  0.45891894312E+03 0.  0.
         13    1    3    3    0    0  0.19480386319E+03  0.11832849756E+03  0.38643883626E+02  0.23117856343E+03  0.00000000000E+00 0.  1.
          3    1    3    3  501    0 -0.16078770503E+03 -0.13697680318E+03 -0.99142474519E+02  0.23333358299E+03  0.00000000000E+00 0.  1.
         21    1    1    2  502  501 -0.34016158160E+02  0.18648305627E+02  0.17615467093E+02  0.42604729780E+02  0.00000000000E+00 0. -1.
<scales pt_clust_4="550.00000" pt_clust_5="550.00000" pt_clust_6="38.79250"></scales>
<mgrwt>
<rscale>  0 0.30000000E+03</rscale>
<asrwt>  1 0.38792503E+02</asrwt>
<pdfrwt beam="1">  1        1 0.84406137E+00 0.30000000E+03</pdfrwt>
<pdfrwt beam="2">0</pdfrwt>
<totfact> 0.45167495E-04</totfact>
</mgrwt>
<clustering>
<clus scale="   38.793">  1  6  2 -1</clus>
<clus scale="  458.919">  4  5 -1 -1</clus>
<clus scale="  300.000">  1  4  2 -1</clus>
</clustering>
</event>
<event>
 6    1  0.9843879E-012  0.3000000E+03  0.7818608E-02  0.1093470E+00
          1   -1    0    0  502    0  0.00000000000E+00  0.00000000000E+00  0.23784076281E+03  0.23784076281E+03  0.00000000000E+00 0.  1.
         13   -1    0    0    0    0 -0.00000000000E+00 -0.00000000000E+00 -0.27500000000E+03  0.27500000000E+03  0.00000000000E+00 0.  1.
    9000005    2    1    2  501    0 -0.43081585914E+02 -0.92179802993E+01 -0.46833728857E+02  0.46773433317E+03  0.46329365856E+03 0.  0.
         13    1    3    3    0    0 -0.23668793672E+03 -0.23248738982E+01  0.63128399941E+02  0.24497301751E+03  0.00000000000E+00 0.  1.
          3    1    3    3  501    0  0.19360635080E+03 -0.68931064011E+01 -0.10996212880E+03  0.22276131567E+03  0.00000000000E+00 0.  1.
         21    1    1    2  502  501  0.43081585914E+02  0.92179802993E+01  0.96744916661E+01  0.45106429637E+02  0.00000000000E+00 0. -1.
<scales pt_clust_4="550.00000" pt_clust_5="550.00000" pt_clust_6="44.05672"></scales>
<mgrwt>
<rscale>  0 0.30000000E+03</rscale>
<asrwt>  1 0.44056716E+02</asrwt>
<pdfrwt beam="1">  1        1 0.86487550E+00 0.30000000E+03</pdfrwt>
<pdfrwt beam="2">0</pdfrwt>
<totfact> 0.27475814E-04</totfact>
</mgrwt>
<clustering>
<clus scale="   44.057">  1  6  2 -1</clus>
<clus scale="  463.294">  4  5 -1 -1</clus>
<clus scale="  300.000">  1  4  2 -1</clus>
</clustering>
</event>
<event>
 6    1  0.9843879E-012  0.3000000E+03  0.7818608E-02  0.1093470E+00
          1   -1    0    0  502    0  0.00000000000E+00  0.00000000000E+00  0.25013050255E+03  0.25013050255E+03  0.00000000000E+00 0.  1.
         13   -1    0    0    0    0 -0.00000000000E+00 -0.00000000000E+00 -0.27500000000E+03  0.27500000000E+03  0.00000000000E+00 0.  1.
    9000005    2    1    2  501    0 -0.40826697057E+02 -0.22436710406E+02 -0.97360404862E+01  0.47614839678E+03  0.47376394977E+03 0.  0.
         13    1    3    3    0    0 -0.19142593412E+03 -0.17665947118E+03 -0.40536117393E+01  0.26051658062E+03  0.00000000000E+00 0.  1.
          1    1    3    3  501    0  0.15059923706E+03  0.15422276077E+03 -0.56824287470E+01  0.21563181616E+03  0.00000000000E+00 0.  1.
         21    1    1    2  502  501  0.40826697057E+02  0.22436710406E+02 -0.15133456961E+02  0.48982105774E+02  0.00000000000E+00 0. -1.
<scales pt_clust_4="550.00000" pt_clust_5="550.00000" pt_clust_6="46.58570"></scales>
<mgrwt>
<rscale>  0 0.30000000E+03</rscale>
<asrwt>  1 0.46585699E+02</asrwt>
<pdfrwt beam="1">  1        1 0.90956546E+00 0.30000000E+03</pdfrwt>
<pdfrwt beam="2">0</pdfrwt>
<totfact> 0.69878987E-05</totfact>
</mgrwt>
<clustering>
<clus scale="   46.586">  1  6  2 -1</clus>
<clus scale="  473.764">  4  5 -1 -1</clus>
<clus scale="  300.000">  1  4  2 -1</clus>
</clustering>
</event>
<event>
 6    1  0.9843879E-012  0.3000000E+03  0.7818608E-02  0.1093470E+00
          1   -1    0    0  502    0  0.00000000000E+00  0.00000000000E+00  0.22945963830E+03  0.22945963830E+03  0.00000000000E+00 0.  1.
         13   -1    0    0    0    0 -0.00000000000E+00 -0.00000000000E+00 -0.27500000000E+03  0.27500000000E+03  0.00000000000E+00 0.  1.
    9000005    2    1    2  501    0  0.10905289459E+02  0.28045797282E+02 -0.58568089098E+02  0.47166918596E+03  0.46705043394E+03 0.  0.
         13    1    3    3    0    0  0.20610664310E+03  0.47498143136E+02 -0.14589019622E+03  0.25694351769E+03  0.00000000000E+00 0.  1.
          1    1    3    3  501    0 -0.19520135364E+03 -0.19452345855E+02  0.87322107119E+02  0.21472566827E+03  0.00000000000E+00 0.  1.
         21    1    1    2  502  501 -0.10905289459E+02 -0.28045797282E+02  0.13027727394E+02  0.32790452336E+02  0.00000000000E+00 0.  1.
<scales pt_clust_4="550.00000" pt_clust_5="550.00000" pt_clust_6="30.09140"></scales>
<mgrwt>
<rscale>  0 0.30000000E+03</rscale>
<asrwt>  1 0.30091396E+02</asrwt>
<pdfrwt beam="1">  1        1 0.83439868E+00 0.30000000E+03</pdfrwt>
<pdfrwt beam="2">0</pdfrwt>
<totfact> 0.56239876E-04</totfact>
</mgrwt>
<clustering>
<clus scale="   30.091">  1  6  2 -1</clus>
<clus scale="  467.050">  4  5 -1 -1</clus>
<clus scale="  300.000">  1  4  2 -1</clus>
</clustering>
</event>
<event>
 6    1  0.9843879E-012  0.3000000E+03  0.7818608E-02  0.1093470E+00
          1   -1    0    0  502    0  0.00000000000E+00  0.00000000000E+00  0.22191042332E+03  0.22191042332E+03  0.00000000000E+00 0.  1.
         13   -1    0    0    0    0 -0.00000000000E+00 -0.00000000000E+00 -0.27500000000E+03  0.27500000000E+03  0.00000000000E+00 0.  1.
    9000005    2    1    2  501    0 -0.17446527068E+02 -0.24817026692E+02 -0.34125308965E+02  0.46113459950E+03  0.45886851714E+03 0.  0.
         13    1    3    3    0    0 -0.17237211128E+03  0.34482054268E+02 -0.17162200678E+03  0.24567309585E+03  0.00000000000E+00 0.  1.
          1    1    3    3  501    0  0.15492558421E+03 -0.59299080959E+02  0.13749669782E+03  0.21546150365E+03  0.00000000000E+00 0.  1.
         21    1    1    2  502  501  0.17446527068E+02  0.24817026692E+02 -0.18964267711E+02  0.35775823825E+02  0.00000000000E+00 0.  1.
<scales pt_clust_4="550.00000" pt_clust_5="550.00000" pt_clust_6="30.33590"></scales>
<mgrwt>
<rscale>  0 0.30000000E+03</rscale>
<asrwt>  1 0.30335903E+02</asrwt>
<pdfrwt beam="1">  1        1 0.80694699E+00 0.30000000E+03</pdfrwt>
<pdfrwt beam="2">0</pdfrwt>
<totfact> 0.94617828E-04</totfact>
</mgrwt>
<clustering>
<clus scale="   30.336">  1  6  2 -1</clus>
<clus scale="  458.869">  4  5 -1 -1</clus>
<clus scale="  300.000">  1  4  2 -1</clus>
</clustering>
</event>
<event>
 6    1  0.9843879E-012  0.3000000E+03  0.7818608E-02  0.1093470E+00
          1   -1    0    0  502    0  0.00000000000E+00  0.00000000000E+00  0.23848300441E+03  0.23848300441E+03  0.00000000000E+00 0.  1.
         13   -1    0    0    0    0 -0.00000000000E+00 -0.00000000000E+00 -0.27500000000E+03  0.27500000000E+03  0.00000000000E+00 0.  1.
    9000005    2    1    2  501    0  0.39364931516E+02 -0.80458028846E+01 -0.53246899655E+02  0.46996033827E+03  0.46520227262E+03 0.  0.
         13    1    3    3    0    0  0.44688384185E+02  0.22357869343E+03 -0.67655286100E+02  0.23782708335E+03  0.00000000000E+00 0.  1.
          3    1    3    3  501    0 -0.53234526693E+01 -0.23162449632E+03  0.14408386445E+02  0.23213325492E+03  0.00000000000E+00 0.  1.
         21    1    1    2  502  501 -0.39364931516E+02  0.80458028846E+01  0.16729904060E+02  0.43522666131E+02  0.00000000000E+00 0. -1.
<scales pt_clust_4="550.00000" pt_clust_5="550.00000" pt_clust_6="40.17876"></scales>
<mgrwt>
<rscale>  0 0.30000000E+03</rscale>
<asrwt>  1 0.40178760E+02</asrwt>
<pdfrwt beam="1">  1        1 0.86721093E+00 0.30000000E+03</pdfrwt>
<pdfrwt beam="2">0</pdfrwt>
<totfact> 0.26382303E-04</totfact>
</mgrwt>
<clustering>
<clus scale="   40.179">  1  6  2 -1</clus>
<clus scale="  465.202">  4  5 -1 -1</clus>
<clus scale="  300.000">  1  4  2 -1</clus>
</clustering>
</event>
<event>
 6    1  0.9843879E-012  0.3000000E+03  0.7818608E-02  0.1093470E+00
          1   -1    0    0  502    0  0.00000000000E+00  0.00000000000E+00  0.22417921323E+03  0.22417921323E+03  0.00000000000E+00 0.  1.
         13   -1    0    0    0    0 -0.00000000000E+00 -0.00000000000E+00 -0.27500000000E+03  0.27500000000E+03  0.00000000000E+00 0.  1.
    9000005    2    1    2  501    0 -0.32616787809E+02  0.11748675936E+02 -0.59043052537E+02  0.46354928357E+03  0.45846479692E+03 0.  0.
         13    1    3    3    0    0 -0.14372277121E+03 -0.15172842161E+03  0.77951474738E+02  0.22305645317E+03  0.00000000000E+00 0.  1.
          1    1    3    3  501    0  0.11110598340E+03  0.16347709755E+03 -0.13699452727E+03  0.24049283040E+03  0.00000000000E+00 0.  1.
         21    1    1    2  502  501  0.32616787809E+02 -0.11748675936E+02  0.82222657693E+01  0.35629929660E+02  0.00000000000E+00 0.  1.
<scales pt_clust_4="550.00000" pt_clust_5="550.00000" pt_clust_6="34.66823"></scales>
<mgrwt>
<rscale>  0 0.30000000E+03</rscale>
<asrwt>  1 0.34668231E+02</asrwt>
<pdfrwt beam="1">  1        1 0.81519714E+00 0.30000000E+03</pdfrwt>
<pdfrwt beam="2">0</pdfrwt>
<totfact> 0.79454030E-04</totfact>
</mgrwt>
<clustering>
<clus scale="   34.668">  1  6  2 -1</clus>
<clus scale="  458.465">  4  5 -1 -1</clus>
<clus scale="  300.000">  1  4  2 -1</clus>
</clustering>
</event>
<event>
 6    1  0.9843879E-012  0.3000000E+03  0.7818608E-02  0.1093470E+00
          1   -1    0    0  502    0  0.00000000000E+00  0.00000000000E+00  0.22807604515E+03  0.22807604515E+03  0.00000000000E+00 0.  1.
         13   -1    0    0    0    0 -0.00000000000E+00 -0.00000000000E+00 -0.27500000000E+03  0.27500000000E+03  0.00000000000E+00 0.  1.
    9000005    2    1    2  501    0  0.47295197255E+01  0.30626159167E+02 -0.59212704599E+02  0.46973922838E+03  0.46496071695E+03 0.  0.
         13    1    3    3    0    0 -0.13792558550E+03  0.11732159941E+03 -0.18640289745E+03  0.25987278618E+03  0.00000000000E+00 0.  1.
          3    1    3    3  501    0  0.14265510522E+03 -0.86695440239E+02  0.12719019285E+03  0.20986644220E+03  0.00000000000E+00 0.  1.
         21    1    1    2  502  501 -0.47295197255E+01 -0.30626159167E+02  0.12288749753E+02  0.33336816774E+02  0.00000000000E+00 0.  1.
<scales pt_clust_4="550.00000" pt_clust_5="550.00000" pt_clust_6="30.98919"></scales>
<mgrwt>
<rscale>  0 0.30000000E+03</rscale>
<asrwt>  1 0.30989191E+02</asrwt>
<pdfrwt beam="1">  1        1 0.82936744E+00 0.30000000E+03</pdfrwt>
<pdfrwt beam="2">0</pdfrwt>
<totfact> 0.61216562E-04</totfact>
</mgrwt>
<clustering>
<clus scale="   30.989">  1  6  2 -1</clus>
<clus scale="  464.961">  4  5 -1 -1</clus>
<clus scale="  300.000">  1  4  2 -1</clus>
</clustering>
</event>
<event>
 6    1  0.9843879E-012  0.3000000E+03  0.7818608E-02  0.1093470E+00
          1   -1    0    0  502    0  0.00000000000E+00  0.00000000000E+00  0.24194044117E+03  0.24194044117E+03  0.00000000000E+00 0.  1.
         13   -1    0    0    0    0 -0.00000000000E+00 -0.00000000000E+00 -0.27500000000E+03  0.27500000000E+03  0.00000000000E+00 0.  1.
    9000005    2    1    2  501    0  0.13101736707E+02  0.51340981965E+02 -0.38991444157E+02  0.46362309692E+03  0.45893190273E+03 0.  0.
         13    1    3    3    0    0  0.13938667199E+03 -0.60145333791E+02 -0.18596794390E+03  0.24006287023E+03  0.00000000000E+00 0.  1.
          1    1    3    3  501    0 -0.12628493528E+03  0.11148631576E+03  0.14697649974E+03  0.22356022669E+03  0.00000000000E+00 0.  1.
         21    1    1    2  502  501 -0.13101736707E+02 -0.51340981965E+02  0.59318853231E+01  0.53317344246E+02  0.00000000000E+00 0. -1.
<scales pt_clust_4="550.00000" pt_clust_5="550.00000" pt_clust_6="52.98634"></scales>
<mgrwt>
<rscale>  0 0.30000000E+03</rscale>
<asrwt>  1 0.52986337E+02</asrwt>
<pdfrwt beam="1">  1        1 0.87978342E+00 0.30000000E+03</pdfrwt>
<pdfrwt beam="2">0</pdfrwt>
<totfact> 0.18429532E-04</totfact>
</mgrwt>
<clustering>
<clus scale="   52.986">  1  6  2 -1</clus>
<clus scale="  458.932">  4  5 -1 -1</clus>
<clus scale="  300.000">  1  4  2 -1</clus>
</clustering>
</event>
<event>
 6    1  0.9843879E-012  0.3000000E+03  0.7818608E-02  0.1093470E+00
          1   -1    0    0  502    0  0.00000000000E+00  0.00000000000E+00  0.23277977723E+03  0.23277977723E+03  0.00000000000E+00 0.  1.
         13   -1    0    0    0    0 -0.00000000000E+00 -0.00000000000E+00 -0.27500000000E+03  0.27500000000E+03  0.00000000000E+00 0.  1.
    9000005    2    1    2  501    0 -0.30095220714E+02  0.24759451861E+02 -0.38986109903E+02  0.46867463367E+03  0.46542157526E+03 0.  0.
         13    1    3    3    0    0  0.10117242757E+03  0.46401190381E+01  0.18348523016E+03  0.20958105948E+03  0.00000000000E+00 0.  1.
          3    1    3    3  501    0 -0.13126764828E+03  0.20119332823E+02 -0.22247134006E+03  0.25909357419E+03  0.00000000000E+00 0.  1.
         21    1    1    2  502  501  0.30095220714E+02 -0.24759451861E+02 -0.32341128705E+01  0.39105143553E+02  0.00000000000E+00 0.  1.
<scales pt_clust_4="550.00000" pt_clust_5="550.00000" pt_clust_6="38.97118"></scales>
<mgrwt>
<rscale>  0 0.30000000E+03</rscale>
<asrwt>  1 0.38971179E+02</asrwt>
<pdfrwt beam="1">  1        1 0.84647192E+00 0.30000000E+03</pdfrwt>
<pdfrwt beam="2">0</pdfrwt>
<totfact> 0.42983919E-04</totfact>
</mgrwt>
<clustering>
<clus scale="   38.971">  1  6  2 -1</clus>
<clus scale="  465.422">  4  5 -1 -1</clus>
<clus scale="  300.000">  1  4  2 -1</clus>
</clustering>
</event>
<event>
 6    1  0.9843879E-012  0.3000000E+03  0.7818608E-02  0.1093470E+00
          1   -1    0    0  502    0  0.00000000000E+00  0.00000000000E+00  0.23507095596E+03  0.23507095596E+03  0.00000000000E+00 0.  1.
         13   -1    0    0    0    0 -0.00000000000E+00 -0.00000000000E+00 -0.27500000000E+03  0.27500000000E+03  0.00000000000E+00 0.  1.
    9000005    2    1    2  501    0  0.64860270268E+01 -0.34327539255E+02 -0.49393163843E+02  0.47387678430E+03  0.46999901444E+03 0.  0.
         13    1    3    3    0    0 -0.15423451155E+03 -0.19116334159E+03 -0.95808303040E+01  0.24581192003E+03  0.00000000000E+00 0.  1.
          1    1    3    3  501    0  0.16072053858E+03  0.15683580233E+03 -0.39812333539E+02  0.22806486427E+03  0.00000000000E+00 0.  1.
         21    1    1    2  502  501 -0.64860270268E+01  0.34327539255E+02  0.94641197984E+01  0.36194171650E+02  0.00000000000E+00 0. -1.
<scales pt_clust_4="550.00000" pt_clust_5="550.00000" pt_clust_6="34.93492"></scales>
<mgrwt>
<rscale>  0 0.30000000E+03</rscale>
<asrwt>  1 0.34934918E+02</asrwt>
<pdfrwt beam="1">  1        1 0.85480348E+00 0.30000000E+03</pdfrwt>
<pdfrwt beam="2">0</pdfrwt>
<totfact> 0.36609952E-04</totfact>
</mgrwt>
<clustering>
<clus scale="   34.935">  1  6  2 -1</clus>
<clus scale="  469.999">  4  5 -1 -1</clus>
<clus scale="  300.000">  1  4  2 -1</clus>
</clustering>
</event>
<event>
 6    1  0.9843879E-012  0.3000000E+03  0.7818608E-02  0.1093470E+00
          1   -1    0    0  502    0  0.00000000000E+00  0.00000000000E+00  0.23048797417E+03  0.23048797417E+03  0.00000000000E+00 0.  1.
         13   -1    0    0    0    0 -0.00000000000E+00 -0.00000000000E+00 -0.27500000000E+03  0.27500000000E+03  0.00000000000E+00 0.  1.
    9000005    2    1    2  501    0  0.31409320278E+02  0.11978340607E+02 -0.63854446529E+02  0.46670453334E+03  0.46109186184E+03 0.  0.
         13    1    3    3    0    0  0.16842303143E+03  0.25005308414E+02 -0.20706420968E+03  0.26808052876E+03  0.00000000000E+00 0.  1.
          1    1    3    3  501    0 -0.13701371116E+03 -0.13026967807E+02  0.14320976315E+03  0.19862400459E+03  0.00000000000E+00 0.  1.
         21    1    1    2  502  501 -0.31409320278E+02 -0.11978340607E+02  0.19342420700E+02  0.38783440830E+02  0.00000000000E+00 0.  1.
<scales pt_clust_4="550.00000" pt_clust_5="550.00000" pt_clust_6="33.61586"></scales>
<mgrwt>
<rscale>  0 0.30000000E+03</rscale>
<asrwt>  1 0.33615860E+02</asrwt>
<pdfrwt beam="1">  1        1 0.83813809E+00 0.30000000E+03</pdfrwt>
<pdfrwt beam="2">0</pdfrwt>
<totfact> 0.51717337E-04</totfact>
</mgrwt>
<clustering>
<clus scale="   33.616">  1  6  2 -1</clus>
<clus scale="  461.092">  4  5 -1 -1</clus>
<clus scale="  300.000">  1  4  2 -1</clus>
</clustering>
</event>
<event>
 6    1  0.9843879E-012  0.3000000E+03  0.7818608E-02  0.1093470E+00
          1   -1    0    0  502    0  0.00000000000E+00  0.00000000000E+00  0.23265783717E+03  0.23265783717E+03  0.00000000000E+00 0.  1.
         13   -1    0    0    0    0 -0.00000000000E+00 -0.00000000000E+00 -0.27500000000E+03  0.27500000000E+03  0.00000000000E+00 0.  1.
    9000005    2    1    2  501    0 -0.17299885945E+01  0.34085514959E+02 -0.62569205863E+02  0.46798481787E+03  0.46252574960E+03 0.  0.
         13    1    3    3    0    0 -0.14419330206E+03 -0.16490311060E+03 -0.29667355903E+02  0.22105405730E+03  0.00000000000E+00 0.  1.
          1    1    3    3  501    0  0.14246331346E+03  0.19898862556E+03 -0.32901849960E+02  0.24693076057E+03  0.00000000000E+00 0.  1.
         21    1    1    2  502  501  0.17299885945E+01 -0.34085514959E+02  0.20227043037E+02  0.39673019303E+02  0.00000000000E+00 0.  1.
<scales pt_clust_4="550.00000" pt_clust_5="550.00000" pt_clust_6="34.12939"></scales>
<mgrwt>
<rscale>  0 0.30000000E+03</rscale>
<asrwt>  1 0.34129389E+02</asrwt>
<pdfrwt beam="1">  1        1 0.84602850E+00 0.30000000E+03</pdfrwt>
<pdfrwt beam="2">0</pdfrwt>
<totfact> 0.44458658E-04</totfact>
</mgrwt>
<clustering>
<clus scale="   34.129">  1  6  2 -1</clus>
<clus scale="  462.526">  4  5 -1 -1</clus>
<clus scale="  300.000">  1  4  2 -1</clus>
</clustering>
</event>
<event>
 6    1  0.9843879E-012  0.3000000E+03  0.7818608E-02  0.1093470E+00
          1   -1    0    0  502    0  0.00000000000E+00  0.00000000000E+00  0.24082282172E+03  0.24082282172E+03  0.00000000000E+00 0.  1.
         13   -1    0    0    0    0 -0.00000000000E+00 -0.00000000000E+00 -0.27500000000E+03  0.27500000000E+03  0.00000000000E+00 0.  1.
    9000005    2    1    2  501    0  0.49816437211E+02 -0.46432170582E+01 -0.52367177125E+02  0.46258643436E+03  0.45688144100E+03 0.  0.
         13    1    3    3    0    0  0.23226395674E+03 -0.35247346146E+02 -0.12225308441E+03  0.26482963894E+03  0.00000000000E+00 0.  1.
          3    1    3    3  501    0 -0.18244751953E+03  0.30604129088E+02  0.69885907284E+02  0.19775679543E+03  0.00000000000E+00 0.  1.
         21    1    1    2  502  501 -0.49816437211E+02  0.46432170582E+01  0.18189998846E+02  0.53236387359E+02  0.00000000000E+00 0. -1.
<scales pt_clust_4="550.00000" pt_clust_5="550.00000" pt_clust_6="50.03236"></scales>
<mgrwt>
<rscale>  0 0.30000000E+03</rscale>
<asrwt>  1 0.50032358E+02</asrwt>
<pdfrwt beam="1">  1        1 0.87571935E+00 0.30000000E+03</pdfrwt>
<pdfrwt beam="2">0</pdfrwt>
<totfact> 0.20714694E-04</totfact>
</mgrwt>
<clustering>
<clus scale="   50.032">  1  6  2 -1</clus>
<clus scale="  456.881">  4  5 -1 -1</clus>
<clus scale="  300.000">  1  4  2 -1</clus>
</clustering>
</event>
<event>
 6    1  0.9843879E-012  0.3000000E+03  0.7818608E-02  0.1093470E+00
          1   -1    0    0  502    0  0.00000000000E+00  0.00000000000E+00  0.23773973162E+03  0.23773973162E+03  0.00000000000E+00 0.  1.
         13   -1    0    0    0    0 -0.00000000000E+00 -0.00000000000E+00 -0.27500000000E+03  0.27500000000E+03  0.00000000000E+00 0.  1.
    9000005    2    1    2  501    0  0.25898979738E+02  0.31668791347E+02 -0.39929925065E+02  0.47174221262E+03  0.46826557290E+03 0.  0.
         13    1    3    3    0    0  0.65343251986E+02  0.16126156174E+03 -0.19798660484E+03  0.26357869331E+03  0.00000000000E+00 0.  1.
          3    1    3    3  501    0 -0.39444272248E+02 -0.12959277039E+03  0.15805667978E+03  0.20816351931E+03  0.00000000000E+00 0.  1.
         21    1    1    2  502  501 -0.25898979738E+02 -0.31668791347E+02  0.26696566836E+01  0.40997518994E+02  0.00000000000E+00 0. -1.
<scales pt_clust_4="550.00000" pt_clust_5="550.00000" pt_clust_6="40.91051"></scales>
<mgrwt>
<rscale>  0 0.30000000E+03</rscale>
<asrwt>  1 0.40910506E+02</asrwt>
<pdfrwt beam="1">  1        1 0.86450811E+00 0.30000000E+03</pdfrwt>
<pdfrwt beam="2">0</pdfrwt>
<totfact> 0.28100823E-04</totfact>
</mgrwt>
<clustering>
<clus scale="   40.911">  1  6  2 -1</clus>
<clus scale="  468.266">  4  5 -1 -1</clus>
<clus scale="  300.000">  1  4  2 -1</clus>
</clustering>
</event>
<event>
 6    1  0.9843879E-012  0.3000000E+03  0.7818608E-02  0.1093470E+00
          1   -1    0    0  502    0  0.00000000000E+00  0.00000000000E+00  0.23138913195E+03  0.23138913195E+03  0.00000000000E+00 0.  1.
         13   -1    0    0    0    0 -0.00000000000E+00 -0.00000000000E+00 -0.27500000000E+03  0.27500000000E+03  0.00000000000E+00 0.  1.
    9000005    2    1    2  501    0 -0.25853482096E+02  0.28343404050E+02 -0.54926418584E+02  0.46639172236E+03  0.46155452131E+03 0.  0.
         13    1    3    3    0    0 -0.34126379049E+02 -0.19452395016E+03 -0.12366547447E+03  0.23301786736E+03  0.00000000000E+00 0.  1.
          3    1    3    3  501    0  0.82728969537E+01  0.22286735421E+03  0.68739055886E+02  0.23337385500E+03  0.00000000000E+00 0.  1.
         21    1    1    2  502  501  0.25853482096E+02 -0.28343404050E+02  0.11315550529E+02  0.39997409583E+02  0.00000000000E+00 0.  1.
<scales pt_clust_4="550.00000" pt_clust_5="550.00000" pt_clust_6="38.36341"></scales>
<mgrwt>
<rscale>  0 0.30000000E+03</rscale>
<asrwt>  1 0.38363408E+02</asrwt>
<pdfrwt beam="1">  1        1 0.84141503E+00 0.30000000E+03</pdfrwt>
<pdfrwt beam="2">0</pdfrwt>
<totfact> 0.47629632E-04</totfact>
</mgrwt>
<clustering>
<clus scale="   38.363">  1  6  2 -1</clus>
<clus scale="  461.555">  4  5 -1 -1</clus>
<clus scale="  300.000">  1  4  2 -1</clus>
</clustering>
</event>
<event>
 6    1  0.9843879E-012  0.3000000E+03  0.7818608E-02  0.1093470E+00
          1   -1    0    0  502    0  0.00000000000E+00  0.00000000000E+00  0.23786080628E+03  0.23786080628E+03  0.00000000000E+00 0.  1.
         13   -1    0    0    0    0 -0.00000000000E+00 -0.00000000000E+00 -0.27500000000E+03  0.27500000000E+03  0.00000000000E+00 0.  1.
    9000005    2    1    2  501    0  0.24033078638E+02  0.21614109847E+02 -0.28718694675E+02  0.47945925815E+03  0.47750566299E+03 0.  0.
         13    1    3    3    0    0 -0.20961508439E+03  0.50360893889E+02 -0.93974686721E+02  0.23517216030E+03  0.00000000000E+00 0.  1.
          3    1    3    3  501    0  0.23364816302E+03 -0.28746784042E+02  0.65255992046E+02  0.24428709785E+03  0.00000000000E+00 0.  1.
         21    1    1    2  502  501 -0.24033078638E+02 -0.21614109847E+02 -0.84204990461E+01  0.33401548130E+02  0.00000000000E+00 0.  1.
<scales pt_clust_4="550.00000" pt_clust_5="550.00000" pt_clust_6="32.32274"></scales>
<mgrwt>
<rscale>  0 0.30000000E+03</rscale>
<asrwt>  1 0.32322742E+02</asrwt>
<pdfrwt beam="1">  1        1 0.86494839E+00 0.30000000E+03</pdfrwt>
<pdfrwt beam="2">0</pdfrwt>
<totfact> 0.29038851E-04</totfact>
</mgrwt>
<clustering>
<clus scale="   32.323">  1  6  2 -1</clus>
<clus scale="  477.506">  4  5 -1 -1</clus>
<clus scale="  300.000">  1  4  2 -1</clus>
</clustering>
</event>
<event>
 6    1  0.9843879E-012  0.3000000E+03  0.7818608E-02  0.1093470E+00
          1   -1    0    0  502    0  0.00000000000E+00  0.00000000000E+00  0.24772872719E+03  0.24772872719E+03  0.00000000000E+00 0.  1.
         13   -1    0    0    0    0 -0.00000000000E+00 -0.00000000000E+00 -0.27500000000E+03  0.27500000000E+03  0.00000000000E+00 0.  1.
    9000005    2    1    2  501    0 -0.29232288317E+02  0.10863912571E+02 -0.61202301743E+02  0.47664330649E+03  0.47166785836E+03 0.  0.
         13    1    3    3    0    0 -0.20603937855E+03 -0.92126139319E+02  0.66692553651E+02  0.23534516730E+03  0.00000000000E+00 0.  1.
          3    1    3    3  501    0  0.17680709023E+03  0.10299005189E+03 -0.12789485539E+03  0.24129813920E+03  0.00000000000E+00 0.  1.
         21    1    1    2  502  501  0.29232288317E+02 -0.10863912571E+02  0.33931028937E+02  0.46085420703E+02  0.00000000000E+00 0.  1.
<scales pt_clust_4="550.00000" pt_clust_5="550.00000" pt_clust_6="31.18575"></scales>
<mgrwt>
<rscale>  0 0.30000000E+03</rscale>
<asrwt>  1 0.31185754E+02</asrwt>
<pdfrwt beam="1">  1        1 0.90083174E+00 0.30000000E+03</pdfrwt>
<pdfrwt beam="2">0</pdfrwt>
<totfact> 0.11012375E-04</totfact>
</mgrwt>
<clustering>
<clus scale="   31.186">  1  6  2 -1</clus>
<clus scale="  471.668">  4  5 -1 -1</clus>
<clus scale="  300.000">  1  4  2 -1</clus>
</clustering>
</event>
<event>
 6    1  0.9843879E-012  0.3000000E+03  0.7818608E-02  0.1093470E+00
          1   -1    0    0  502    0  0.00000000000E+00  0.00000000000E+00  0.22747715099E+03  0.22747715099E+03  0.00000000000E+00 0.  1.
         13   -1    0    0    0    0 -0.00000000000E+00 -0.00000000000E+00 -0.27500000000E+03  0.27500000000E+03  0.00000000000E+00 0.  1.
    9000005    2    1    2  501    0  0.22340947570E+02  0.22472181639E+02 -0.45901201090E+02  0.47074788016E+03  0.46743184479E+03 0.  0.
         13    1    3    3    0    0 -0.63828661761E+02  0.70637080191E+02 -0.23713802550E+03  0.25553500406E+03  0.00000000000E+00 0.  1.
          3    1    3    3  501    0  0.86169609331E+02 -0.48164898551E+02  0.19123682441E+03  0.21521287609E+03  0.00000000000E+00 0.  1.
         21    1    1    2  502  501 -0.22340947570E+02 -0.22472181639E+02 -0.16216479164E+01  0.31729270838E+02  0.00000000000E+00 0.  1.
<scales pt_clust_4="550.00000" pt_clust_5="550.00000" pt_clust_6="31.68780"></scales>
<mgrwt>
<rscale>  0 0.30000000E+03</rscale>
<asrwt>  1 0.31687803E+02</asrwt>
<pdfrwt beam="1">  1        1 0.82718964E+00 0.30000000E+03</pdfrwt>
<pdfrwt beam="2">0</pdfrwt>
<totfact> 0.63645707E-04</totfact>
</mgrwt>
<clustering>
<clus scale="   31.688">  1  6  2 -1</clus>
<clus scale="  467.432">  4  5 -1 -1</clus>
<clus scale="  300.000">  1  4  2 -1</clus>
</clustering>
</event>
<event>
 6    1  0.9843879E-012  0.3000000E+03  0.7818608E-02  0.1093470E+00
          1   -1    0    0  502    0  0.00000000000E+00  0.00000000000E+00  0.22559028907E+03  0.22559028907E+03  0.00000000000E+00 0.  1.
         13   -1    0    0    0    0 -0.00000000000E+00 -0.00000000000E+00 -0.27500000000E+03  0.27500000000E+03  0.00000000000E+00 0.  1.
    9000005    2    1    2  501    0 -0.13560818739E+01  0.36838534579E+02 -0.58306306745E+02  0.46266844833E+03  0.45749705036E+03 0.  0.
         13    1    3    3    0    0  0.19122555324E+03  0.51455164574E+02 -0.15043221097E+03  0.24868593903E+03  0.00000000000E+00 0.  1.
          3    1    3    3  501    0 -0.19258163511E+03 -0.14616629994E+02  0.92125904229E+02  0.21398250930E+03  0.00000000000E+00 0.  1.
         21    1    1    2  502  501  0.13560818739E+01 -0.36838534579E+02  0.88965958112E+01  0.37921840739E+02  0.00000000000E+00 0.  1.
<scales pt_clust_4="550.00000" pt_clust_5="550.00000" pt_clust_6="36.86349"></scales>
<mgrwt>
<rscale>  0 0.30000000E+03</rscale>
<asrwt>  1 0.36863486E+02</asrwt>
<pdfrwt beam="1">  1        1 0.82032832E+00 0.30000000E+03</pdfrwt>
<pdfrwt beam="2">0</pdfrwt>
<totfact> 0.71165453E-04</totfact>
</mgrwt>
<clustering>
<clus scale="   36.863">  1  6  2 -1</clus>
<clus scale="  457.497">  4  5 -1 -1</clus>
<clus scale="  300.000">  1  4  2 -1</clus>
</clustering>
</event>
<event>
 6    1  0.9843879E-012  0.3000000E+03  0.7818608E-02  0.1093470E+00
          1   -1    0    0  502    0  0.00000000000E+00  0.00000000000E+00  0.24086313560E+03  0.24086313560E+03  0.00000000000E+00 0.  1.
         13   -1    0    0    0    0 -0.00000000000E+00 -0.00000000000E+00 -0.27500000000E+03  0.27500000000E+03  0.00000000000E+00 0.  1.
    9000005    2    1    2  501    0  0.88597437643E+01  0.31319704040E+02 -0.37476847629E+02  0.48314350221E+03  0.48058683992E+03 0.  0.
         13    1    3    3    0    0 -0.21665038503E+03  0.88992449691E+01 -0.11268817128E+03  0.24436695734E+03  0.00000000000E+00 0.  1.
          1    1    3    3  501    0  0.22551012879E+03  0.22420459071E+02  0.75211323655E+02  0.23877654487E+03  0.00000000000E+00 0.  1.
         21    1    1    2  502  501 -0.88597437643E+01 -0.31319704040E+02  0.33399832236E+01  0.32719633382E+02  0.00000000000E+00 0. -1.
<scales pt_clust_4="550.00000" pt_clust_5="550.00000" pt_clust_6="32.54872"></scales>
<mgrwt>
<rscale>  0 0.30000000E+03</rscale>
<asrwt>  1 0.32548716E+02</asrwt>
<pdfrwt beam="1">  1        1 0.87586595E+00 0.30000000E+03</pdfrwt>
<pdfrwt beam="2">0</pdfrwt>
<totfact> 0.22322128E-04</totfact>
</mgrwt>
<clustering>
<clus scale="   32.549">  1  6  2 -1</clus>
<clus scale="  480.587">  4  5 -1 -1</clus>
<clus scale="  300.000">  1  4  2 -1</clus>
</clustering>
</event>
<event>
 6    1  0.9843879E-012  0.3000000E+03  0.7818608E-02  0.1093470E+00
          1   -1    0    0  502    0  0.00000000000E+00  0.00000000000E+00  0.22559437568E+03  0.22559437568E+03  0.00000000000E+00 0.  1.
         13   -1    0    0    0    0 -0.00000000000E+00 -0.00000000000E+00 -0.27500000000E+03  0.27500000000E+03  0.00000000000E+00 0.  1.
    9000005    2    1    2  501    0 -0.34059337842E+02 -0.14133679861E+02 -0.32298649576E+02  0.45994406220E+03  0.45732432495E+03 0.  0.
         13    1    3    3    0    0 -0.87805821125E+01  0.89478325236E+02 -0.22355734533E+03  0.24095924128E+03  0.00000000000E+00 0.  1.
          1    1    3    3  501    0 -0.25278755730E+02 -0.10361200510E+03  0.19125869575E+03  0.21898482092E+03  0.00000000000E+00 0.  1.
         21    1    1    2  502  501  0.34059337842E+02  0.14133679861E+02 -0.17106974749E+02  0.40650313476E+02  0.00000000000E+00 0.  1.
<scales pt_clust_4="550.00000" pt_clust_5="550.00000" pt_clust_6="36.87548"></scales>
<mgrwt>
<rscale>  0 0.30000000E+03</rscale>
<asrwt>  1 0.36875476E+02</asrwt>
<pdfrwt beam="1">  1        1 0.82034318E+00 0.30000000E+03</pdfrwt>
<pdfrwt beam="2">0</pdfrwt>
<totfact> 0.71139983E-04</totfact>
</mgrwt>
<clustering>
<clus scale="   36.875">  1  6  2 -1</clus>
<clus scale="  457.324">  4  5 -1 -1</clus>
<clus scale="  300.000">  1  4  2 -1</clus>
</clustering>
</event>
<event>
 6    1  0.9843879E-012  0.3000000E+03  0.7818608E-02  0.1093470E+00
          1   -1    0    0  502    0  0.00000000000E+00  0.00000000000E+00  0.24080195927E+03  0.24080195927E+03  0.00000000000E+00 0.  1.
         13   -1    0    0    0    0 -0.00000000000E+00 -0.00000000000E+00 -0.27500000000E+03  0.27500000000E+03  0.00000000000E+00 0.  1.
    9000005    2    1    2  501    0 -0.46207881980E+01 -0.29712039454E+02 -0.44621686587E+02  0.48397729329E+03  0.48097688981E+03 0.  0.
         13    1    3    3    0    0 -0.12369043722E+02  0.22165831921E+03  0.23991502565E+02  0.22329575883E+03  0.00000000000E+00 0.  1.
          1    1    3    3  501    0  0.77482555242E+01 -0.25137035867E+03 -0.68613189152E+02  0.26068153445E+03  0.00000000000E+00 0.  1.
         21    1    1    2  502  501  0.46207881980E+01  0.29712039454E+02  0.10423645862E+02  0.31824665986E+02  0.00000000000E+00 0.  1.
<scales pt_clust_4="550.00000" pt_clust_5="550.00000" pt_clust_6="30.06920"></scales>
<mgrwt>
<rscale>  0 0.30000000E+03</rscale>
<asrwt>  1 0.30069203E+02</asrwt>
<pdfrwt beam="1">  1        1 0.87564349E+00 0.30000000E+03</pdfrwt>
<pdfrwt beam="2">0</pdfrwt>
<totfact> 0.22787788E-04</totfact>
</mgrwt>
<clustering>
<clus scale="   30.069">  1  6  2 -1</clus>
<clus scale="  480.977">  4  5 -1 -1</clus>
<clus scale="  300.000">  1  4  2 -1</clus>
</clustering>
</event>
<event>
 6    1  0.9843879E-012  0.3000000E+03  0.7818608E-02  0.1093470E+00
          1   -1    0    0  502    0  0.00000000000E+00  0.00000000000E+00  0.24076790385E+03  0.24076790385E+03  0.00000000000E+00 0.  1.
         13   -1    0    0    0    0 -0.00000000000E+00 -0.00000000000E+00 -0.27500000000E+03  0.27500000000E+03  0.00000000000E+00 0.  1.
    9000005    2    1    2  501    0  0.38221770402E+02 -0.91528345361E+01 -0.24268484208E+02  0.47522222991E+03  0.47297201858E+03 0.  0.
         13    1    3    3    0    0  0.10778189526E+03 -0.21413133411E+03 -0.78173937338E+02  0.25215140228E+03  0.00000000000E+00 0.  1.
          3    1    3    3  501    0 -0.69560124863E+02  0.20497849958E+03  0.53905453130E+02  0.22307082762E+03  0.00000000000E+00 0.  1.
         21    1    1    2  502  501 -0.38221770402E+02  0.91528345361E+01 -0.99636119403E+01  0.40545673944E+02  0.00000000000E+00 0.  1.
<scales pt_clust_4="550.00000" pt_clust_5="550.00000" pt_clust_6="39.30241"></scales>
<mgrwt>
<rscale>  0 0.30000000E+03</rscale>
<asrwt>  1 0.39302413E+02</asrwt>
<pdfrwt beam="1">  1        1 0.87551965E+00 0.30000000E+03</pdfrwt>
<pdfrwt beam="2">0</pdfrwt>
<totfact> 0.21736884E-04</totfact>
</mgrwt>
<clustering>
<clus scale="   39.302">  1  6  2 -1</clus>
<clus scale="  472.972">  4  5 -1 -1</clus>
<clus scale="  300.000">  1  4  2 -1</clus>
</clustering>
</event>
<event>
 6    1  0.9843879E-012  0.3000000E+03  0.7818608E-02  0.1093470E+00
          1   -1    0    0  502    0  0.00000000000E+00  0.00000000000E+00  0.24021476058E+03  0.24021476058E+03  0.00000000000E+00 0.  1.
         13   -1    0    0    0    0 -0.00000000000E+00 -0.00000000000E+00 -0.27500000000E+03  0.27500000000E+03  0.00000000000E+00 0.  1.
    9000005    2    1    2  501    0  0.22126479205E+02 -0.29487427774E+02 -0.64262067225E+02  0.46801335323E+03  0.46211231972E+03 0.  0.
         13    1    3    3    0    0 -0.21584574606E+03  0.16164345908E+02 -0.63957538175E+02  0.22570165897E+03  0.00000000000E+00 0.  1.
          1    1    3    3  501    0  0.23797222526E+03 -0.45651773682E+02 -0.30452905001E+00  0.24231169426E+03  0.00000000000E+00 0.  1.
         21    1    1    2  502  501 -0.22126479205E+02  0.29487427774E+02  0.29476827807E+02  0.47201407355E+02  0.00000000000E+00 0.  1.
<scales pt_clust_4="550.00000" pt_clust_5="550.00000" pt_clust_6="36.86583"></scales>
<mgrwt>
<rscale>  0 0.30000000E+03</rscale>
<asrwt>  1 0.36865831E+02</asrwt>
<pdfrwt beam="1">  1        1 0.87350822E+00 0.30000000E+03</pdfrwt>
<pdfrwt beam="2">0</pdfrwt>
<totfact> 0.23090521E-04</totfact>
</mgrwt>
<clustering>
<clus scale="   36.866">  1  6  2 -1</clus>
<clus scale="  462.112">  4  5 -1 -1</clus>
<clus scale="  300.000">  1  4  2 -1</clus>
</clustering>
</event>
<event>
 6    1  0.9843879E-012  0.3000000E+03  0.7818608E-02  0.1093470E+00
          1   -1    0    0  502    0  0.00000000000E+00  0.00000000000E+00  0.22201069738E+03  0.22201069738E+03  0.00000000000E+00 0.  1.
         13   -1    0    0    0    0 -0.00000000000E+00 -0.00000000000E+00 -0.27500000000E+03  0.27500000000E+03  0.00000000000E+00 0.  1.
    9000005    2    1    2  501    0  0.73619863975E+01  0.35045041876E+02 -0.56683510106E+02  0.46101068387E+03  0.45610906209E+03 0.  0.
         13    1    3    3    0    0  0.13071941307E+03 -0.15826085253E+03  0.45038760765E+02  0.21014888144E+03  0.00000000000E+00 0.  1.
          1    1    3    3  501    0 -0.12335742668E+03  0.19330589441E+03 -0.10172227087E+03  0.25086180243E+03  0.00000000000E+00 0.  1.
         21    1    1    2  502  501 -0.73619863975E+01 -0.35045041876E+02  0.36942074843E+01  0.36000013511E+02  0.00000000000E+00 0.  1.
<scales pt_clust_4="550.00000" pt_clust_5="550.00000" pt_clust_6="35.80997"></scales>
<mgrwt>
<rscale>  0 0.30000000E+03</rscale>
<asrwt>  1 0.35809968E+02</asrwt>
<pdfrwt beam="1">  1        1 0.80731163E+00 0.30000000E+03</pdfrwt>
<pdfrwt beam="2">0</pdfrwt>
<totfact> 0.91105272E-04</totfact>
</mgrwt>
<clustering>
<clus scale="   35.810">  1  6  2 -1</clus>
<clus scale="  456.109">  4  5 -1 -1</clus>
<clus scale="  300.000">  1  4  2 -1</clus>
</clustering>
</event>
<event>
 6    1  0.9843879E-012  0.3000000E+03  0.7818608E-02  0.1093470E+00
          1   -1    0    0  502    0  0.00000000000E+00  0.00000000000E+00  0.22796985894E+03  0.22796985894E+03  0.00000000000E+00 0.  1.
         13   -1    0    0    0    0 -0.00000000000E+00 -0.00000000000E+00 -0.27500000000E+03  0.27500000000E+03  0.00000000000E+00 0.  1.
    9000005    2    1    2  501    0 -0.49561869835E+00 -0.34128155999E+02 -0.57740548980E+02  0.46719711083E+03  0.46235721331E+03 0.  0.
         13    1    3    3    0    0  0.10532828214E+03 -0.75641985546E+02  0.16931916666E+03  0.21327151051E+03  0.00000000000E+00 0.  1.
          3    1    3    3  501    0 -0.10582390084E+03  0.41513829547E+02 -0.22705971564E+03  0.25392560032E+03  0.00000000000E+00 0.  1.
         21    1    1    2  502  501  0.49561869835E+00  0.34128155999E+02  0.10710407921E+02  0.35772748113E+02  0.00000000000E+00 0. -1.
<scales pt_clust_4="550.00000" pt_clust_5="550.00000" pt_clust_6="34.13175"></scales>
<mgrwt>
<rscale>  0 0.30000000E+03</rscale>
<asrwt>  1 0.34131755E+02</asrwt>
<pdfrwt beam="1">  1        1 0.82898131E+00 0.30000000E+03</pdfrwt>
<pdfrwt beam="2">0</pdfrwt>
<totfact> 0.60559034E-04</totfact>
</mgrwt>
<clustering>
<clus scale="   34.132">  1  6  2 -1</clus>
<clus scale="  462.357">  4  5 -1 -1</clus>
<clus scale="  300.000">  1  4  2 -1</clus>
</clustering>
</event>
<event>
 6    1  0.9843879E-012  0.3000000E+03  0.7818608E-02  0.1093470E+00
          1   -1    0    0  502    0  0.00000000000E+00  0.00000000000E+00  0.22592326996E+03  0.22592326996E+03  0.00000000000E+00 0.  1.
         13   -1    0    0    0    0 -0.00000000000E+00 -0.00000000000E+00 -0.27500000000E+03  0.27500000000E+03  0.00000000000E+00 0.  1.
    9000005    2    1    2  501    0  0.24575381116E+02 -0.20584262740E+02 -0.64821595256E+02  0.46520825897E+03  0.45955328719E+03 0.  0.
         13    1    3    3    0    0 -0.10554675912E+02  0.20060067064E+03 -0.12074477719E+03  0.23437434045E+03  0.00000000000E+00 0.  1.
          1    1    3    3  501    0  0.35130057028E+02 -0.22118493338E+03  0.55923181932E+02  0.23083391852E+03  0.00000000000E+00 0.  1.
         21    1    1    2  502  501 -0.24575381116E+02  0.20584262740E+02  0.15744865216E+02  0.35715010993E+02  0.00000000000E+00 0.  1.
<scales pt_clust_4="550.00000" pt_clust_5="550.00000" pt_clust_6="32.05716"></scales>
<mgrwt>
<rscale>  0 0.30000000E+03</rscale>
<asrwt>  1 0.32057156E+02</asrwt>
<pdfrwt beam="1">  1        1 0.82153916E+00 0.30000000E+03</pdfrwt>
<pdfrwt beam="2">0</pdfrwt>
<totfact> 0.71292528E-04</totfact>
</mgrwt>
<clustering>
<clus scale="   32.057">  1  6  2 -1</clus>
<clus scale="  459.553">  4  5 -1 -1</clus>
<clus scale="  300.000">  1  4  2 -1</clus>
</clustering>
</event>
<event>
 6    1  0.9843879E-012  0.3000000E+03  0.7818608E-02  0.1093470E+00
          1   -1    0    0  502    0  0.00000000000E+00  0.00000000000E+00  0.23878574085E+03  0.23878574085E+03  0.00000000000E+00 0.  1.
         13   -1    0    0    0    0 -0.00000000000E+00 -0.00000000000E+00 -0.27500000000E+03  0.27500000000E+03  0.00000000000E+00 0.  1.
    9000005    2    1    2  501    0  0.78155790886E+01  0.34996943521E+02 -0.37058710120E+02  0.47791677892E+03  0.47512654130E+03 0.  0.
         13    1    3    3    0    0  0.33294931242E+02  0.24368283225E+03  0.48945453859E+02  0.25076987984E+03  0.00000000000E+00 0.  1.
          3    1    3    3  501    0 -0.25479352153E+02 -0.20868588873E+03 -0.86004163978E+02  0.22714689908E+03  0.00000000000E+00 0.  1.
         21    1    1    2  502  501 -0.78155790886E+01 -0.34996943521E+02  0.84445096910E+00  0.35868961927E+02  0.00000000000E+00 0. -1.
<scales pt_clust_4="550.00000" pt_clust_5="550.00000" pt_clust_6="35.85902"></scales>
<mgrwt>
<rscale>  0 0.30000000E+03</rscale>
<asrwt>  1 0.35859020E+02</asrwt>
<pdfrwt beam="1">  1        1 0.86831178E+00 0.30000000E+03</pdfrwt>
<pdfrwt beam="2">0</pdfrwt>
<totfact> 0.26238868E-04</totfact>
</mgrwt>
<clustering>
<clus scale="   35.859">  1  6  2 -1</clus>
<clus scale="  475.127">  4  5 -1 -1</clus>
<clus scale="  300.000">  1  4  2 -1</clus>
</clustering>
</event>
<event>
 6    1  0.9843879E-012  0.3000000E+03  0.7818608E-02  0.1093470E+00
          1   -1    0    0  502    0  0.00000000000E+00  0.00000000000E+00  0.23572063518E+03  0.23572063518E+03  0.00000000000E+00 0.  1.
         13   -1    0    0    0    0 -0.00000000000E+00 -0.00000000000E+00 -0.27500000000E+03  0.27500000000E+03  0.00000000000E+00 0.  1.
    9000005    2    1    2  501    0  0.11694006598E+02  0.30463662223E+02 -0.42714958845E+02  0.47790923758E+03  0.47487670731E+03 0.  0.
         13    1    3    3    0    0  0.67137686444E+02 -0.71021028903E+02 -0.23444734696E+03  0.25400199602E+03  0.00000000000E+00 0.  1.
          1    1    3    3  501    0 -0.55443679846E+02  0.10148469113E+03  0.19173238811E+03  0.22390724155E+03  0.00000000000E+00 0.  1.
         21    1    1    2  502  501 -0.11694006598E+02 -0.30463662223E+02  0.34355940263E+01  0.32811397603E+02  0.00000000000E+00 0. -1.
<scales pt_clust_4="550.00000" pt_clust_5="550.00000" pt_clust_6="32.63104"></scales>
<mgrwt>
<rscale>  0 0.30000000E+03</rscale>
<asrwt>  1 0.32631036E+02</asrwt>
<pdfrwt beam="1">  1        1 0.85716595E+00 0.30000000E+03</pdfrwt>
<pdfrwt beam="2">0</pdfrwt>
<totfact> 0.35100946E-04</totfact>
</mgrwt>
<clustering>
<clus scale="   32.631">  1  6  2 -1</clus>
<clus scale="  474.877">  4  5 -1 -1</clus>
<clus scale="  300.000">  1  4  2 -1</clus>
</clustering>
</event>
<event>
 6    1  0.9843879E-012  0.3000000E+03  0.7818608E-02  0.1093470E+00
          1   -1    0    0  502    0  0.00000000000E+00  0.00000000000E+00  0.25745036358E+03  0.25745036358E+03  0.00000000000E+00 0.  1.
         13   -1    0    0    0    0 -0.00000000000E+00 -0.00000000000E+00 -0.27500000000E+03  0.27500000000E+03  0.00000000000E+00 0.  1.
    9000005    2    1    2  501    0  0.33143066724E+02  0.15536396318E+02 -0.26102666920E+02  0.49486051371E+03  0.49281409916E+03 0.  0.
         13    1    3    3    0    0  0.59668748795E+02 -0.23160824469E+03 -0.52604431033E+02  0.24488765741E+03  0.00000000000E+00 0.  1.
          1    1    3    3  501    0 -0.26525682071E+02  0.24714464100E+03  0.26501764114E+02  0.24997285630E+03  0.00000000000E+00 0.  1.
         21    1    1    2  502  501 -0.33143066724E+02 -0.15536396318E+02  0.85530305040E+01  0.37589849870E+02  0.00000000000E+00 0.  1.
<scales pt_clust_4="550.00000" pt_clust_5="550.00000" pt_clust_6="36.60386"></scales>
<mgrwt>
<rscale>  0 0.30000000E+03</rscale>
<asrwt>  1 0.36603859E+02</asrwt>
<pdfrwt beam="1">  1        1 0.93618314E+00 0.30000000E+03</pdfrwt>
<pdfrwt beam="2">0</pdfrwt>
<totfact> 0.21602797E-05</totfact>
</mgrwt>
<clustering>
<clus scale="   36.604">  1  6  2 -1</clus>
<clus scale="  492.814">  4  5 -1 -1</clus>
<clus scale="  300.000">  1  4  2 -1</clus>
</clustering>
</event>
<event>
 6    1  0.9843879E-012  0.3000000E+03  0.7818608E-02  0.1093470E+00
          1   -1    0    0  502    0  0.00000000000E+00  0.00000000000E+00  0.22483317259E+03  0.22483317259E+03  0.00000000000E+00 0.  1.
         13   -1    0    0    0    0 -0.00000000000E+00 -0.00000000000E+00 -0.27500000000E+03  0.27500000000E+03  0.00000000000E+00 0.  1.
    9000005    2    1    2  501    0  0.91472724125E+01 -0.37146186658E+02 -0.45876395920E+02  0.46133746402E+03  0.45745393236E+03 0.  0.
         13    1    3    3    0    0  0.15841036403E+03  0.37734156724E+02  0.13763681114E+03  0.21321726430E+03  0.00000000000E+00 0.  1.
          3    1    3    3  501    0 -0.14926309162E+03 -0.74880343382E+02 -0.18351320706E+03  0.24812019972E+03  0.00000000000E+00 0.  1.
         21    1    1    2  502  501 -0.91472724125E+01  0.37146186658E+02 -0.42904314907E+01  0.38495708569E+02  0.00000000000E+00 0. -1.
<scales pt_clust_4="550.00000" pt_clust_5="550.00000" pt_clust_6="38.25589"></scales>
<mgrwt>
<rscale>  0 0.30000000E+03</rscale>
<asrwt>  1 0.38255892E+02</asrwt>
<pdfrwt beam="1">  1        1 0.81757517E+00 0.30000000E+03</pdfrwt>
<pdfrwt beam="2">0</pdfrwt>
<totfact> 0.74595025E-04</totfact>
</mgrwt>
<clustering>
<clus scale="   38.256">  1  6  2 -1</clus>
<clus scale="  457.454">  4  5 -1 -1</clus>
<clus scale="  300.000">  1  4  2 -1</clus>
</clustering>
</event>
<event>
 6    1  0.9843879E-012  0.3000000E+03  0.7818608E-02  0.1093470E+00
          1   -1    0    0  502    0  0.00000000000E+00  0.00000000000E+00  0.23261910963E+03  0.23261910963E+03  0.00000000000E+00 0.  1.
         13   -1    0    0    0    0 -0.00000000000E+00 -0.00000000000E+00 -0.27500000000E+03  0.27500000000E+03  0.00000000000E+00 0.  1.
    9000005    2    1    2  501    0  0.25664832829E+02 -0.19425065232E+02 -0.59722361568E+02  0.47105760766E+03  0.46614642813E+03 0.  0.
         13    1    3    3    0    0 -0.11440411851E+03 -0.20222746244E+03 -0.63014319836E+02  0.24073855820E+03  0.00000000000E+00 0.  1.
          1    1    3    3  501    0  0.14006895134E+03  0.18280239721E+03  0.32919582680E+01  0.23031904946E+03  0.00000000000E+00 0.  1.
         21    1    1    2  502  501 -0.25664832829E+02  0.19425065232E+02  0.17341471202E+02  0.36561501977E+02  0.00000000000E+00 0. -1.
<scales pt_clust_4="550.00000" pt_clust_5="550.00000" pt_clust_6="32.18721"></scales>
<mgrwt>
<rscale>  0 0.30000000E+03</rscale>
<asrwt>  1 0.32187215E+02</asrwt>
<pdfrwt beam="1">  1        1 0.84588767E+00 0.30000000E+03</pdfrwt>
<pdfrwt beam="2">0</pdfrwt>
<totfact> 0.45083063E-04</totfact>
</mgrwt>
<clustering>
<clus scale="   32.187">  1  6  2 -1</clus>
<clus scale="  466.146">  4  5 -1 -1</clus>
<clus scale="  300.000">  1  4  2 -1</clus>
</clustering>
</event>
<event>
 6    1  0.9843879E-012  0.3000000E+03  0.7818608E-02  0.1093470E+00
          1   -1    0    0  502    0  0.00000000000E+00  0.00000000000E+00  0.23518185636E+03  0.23518185636E+03  0.00000000000E+00 0.  1.
         13   -1    0    0    0    0 -0.00000000000E+00 -0.00000000000E+00 -0.27500000000E+03  0.27500000000E+03  0.00000000000E+00 0.  1.
    9000005    2    1    2  501    0  0.43425000942E+02  0.64953024495E+01 -0.27907757221E+02  0.46468705484E+03  0.46176541270E+03 0.  0.
         13    1    3    3    0    0 -0.91829802976E+02 -0.15550230589E+03  0.11105419787E+03  0.21200640253E+03  0.00000000000E+00 0.  1.
          1    1    3    3  501    0  0.13525480392E+03  0.16199760834E+03 -0.13896195509E+03  0.25268065231E+03  0.00000000000E+00 0.  1.
         21    1    1    2  502  501 -0.43425000942E+02 -0.64953024495E+01 -0.11910386415E+02  0.45494801519E+02  0.00000000000E+00 0. -1.
<scales pt_clust_4="550.00000" pt_clust_5="550.00000" pt_clust_6="43.90810"></scales>
<mgrwt>
<rscale>  0 0.30000000E+03</rscale>
<asrwt>  1 0.43908104E+02</asrwt>
<pdfrwt beam="1">  1        1 0.85520675E+00 0.30000000E+03</pdfrwt>
<pdfrwt beam="2">0</pdfrwt>
<totfact> 0.34786422E-04</totfact>
</mgrwt>
<clustering>
<clus scale="   43.908">  1  6  2 -1</clus>
<clus scale="  461.765">  4  5 -1 -1</clus>
<clus scale="  300.000">  1  4  2 -1</clus>
</clustering>
</event>
<event>
 6    1  0.9843879E-012  0.3000000E+03  0.7818608E-02  0.1093470E+00
          1   -1    0    0  502    0  0.00000000000E+00  0.00000000000E+00  0.22263938416E+03  0.22263938416E+03  0.00000000000E+00 0.  1.
         13   -1    0    0    0    0 -0.00000000000E+00 -0.00000000000E+00 -0.27500000000E+03  0.27500000000E+03  0.00000000000E+00 0.  1.
    9000005    2    1    2  501    0 -0.30371731704E+02 -0.89797717728E+01 -0.61275998156E+02  0.46473706769E+03  0.45958972545E+03 0.  0.
         13    1    3    3    0    0  0.26474577236E+02  0.15494561863E+03  0.13181661317E+03  0.20514547882E+03  0.00000000000E+00 0.  1.
          3    1    3    3  501    0 -0.56846308940E+02 -0.16392539041E+03 -0.19309261133E+03  0.25959158886E+03  0.00000000000E+00 0.  1.
         21    1    1    2  502  501  0.30371731704E+02  0.89797717728E+01  0.89153823213E+01  0.32902316479E+02  0.00000000000E+00 0. -1.
<scales pt_clust_4="550.00000" pt_clust_5="550.00000" pt_clust_6="31.67141"></scales>
<mgrwt>
<rscale>  0 0.30000000E+03</rscale>
<asrwt>  1 0.31671413E+02</asrwt>
<pdfrwt beam="1">  1        1 0.80959776E+00 0.30000000E+03</pdfrwt>
<pdfrwt beam="2">0</pdfrwt>
<totfact> 0.89518953E-04</totfact>
</mgrwt>
<clustering>
<clus scale="   31.671">  1  6  2 -1</clus>
<clus scale="  459.590">  4  5 -1 -1</clus>
<clus scale="  300.000">  1  4  2 -1</clus>
</clustering>
</event>
<event>
 6    1  0.9843879E-012  0.3000000E+03  0.7818608E-02  0.1093470E+00
          1   -1    0    0  502    0  0.00000000000E+00  0.00000000000E+00  0.23677285385E+03  0.23677285385E+03  0.00000000000E+00 0.  1.
         13   -1    0    0    0    0 -0.00000000000E+00 -0.00000000000E+00 -0.27500000000E+03  0.27500000000E+03  0.00000000000E+00 0.  1.
    9000005    2    1    2  501    0  0.22355445101E+02  0.31751620395E+02 -0.61821506132E+02  0.46633470747E+03  0.46058466046E+03 0.  0.
         13    1    3    3    0    0  0.33772305068E+02 -0.18423341942E+03 -0.14264927376E+03  0.23543860500E+03  0.00000000000E+00 0.  1.
          3    1    3    3  501    0 -0.11416859966E+02  0.21598503981E+03  0.80827767632E+02  0.23089610247E+03  0.00000000000E+00 0.  1.
         21    1    1    2  502  501 -0.22355445101E+02 -0.31751620395E+02  0.23594359985E+02  0.45438146381E+02  0.00000000000E+00 0.  1.
<scales pt_clust_4="550.00000" pt_clust_5="550.00000" pt_clust_6="38.83209"></scales>
<mgrwt>
<rscale>  0 0.30000000E+03</rscale>
<asrwt>  1 0.38832091E+02</asrwt>
<pdfrwt beam="1">  1        1 0.86099220E+00 0.30000000E+03</pdfrwt>
<pdfrwt beam="2">0</pdfrwt>
<totfact> 0.30962618E-04</totfact>
</mgrwt>
<clustering>
<clus scale="   38.832">  1  6  2 -1</clus>
<clus scale="  460.585">  4  5 -1 -1</clus>
<clus scale="  300.000">  1  4  2 -1</clus>
</clustering>
</event>
<event>
 6    1  0.9843879E-012  0.3000000E+03  0.7818608E-02  0.1093470E+00
          1   -1    0    0  502    0  0.00000000000E+00  0.00000000000E+00  0.23782506023E+03  0.23782506023E+03  0.00000000000E+00 0.  1.
         13   -1    0    0    0    0 -0.00000000000E+00 -0.00000000000E+00 -0.27500000000E+03  0.27500000000E+03  0.00000000000E+00 0.  1.
    9000005    2    1    2  501    0  0.11156917982E+02 -0.30749181152E+02 -0.73589519367E+02  0.46387599928E+03  0.45683206585E+03 0.  0.
         13    1    3    3    0    0  0.18575296434E+03  0.11484181906E+03  0.17245857284E+02  0.21906671760E+03  0.00000000000E+00 0.  1.
          3    1    3    3  501    0 -0.17459604636E+03 -0.14559100021E+03 -0.90835376652E+02  0.24480928168E+03  0.00000000000E+00 0.  1.
         21    1    1    2  502  501 -0.11156917982E+02  0.30749181152E+02  0.36414579598E+02  0.48949060948E+02  0.00000000000E+00 0. -1.
<scales pt_clust_4="550.00000" pt_clust_5="550.00000" pt_clust_6="32.71069"></scales>
<mgrwt>
<rscale>  0 0.30000000E+03</rscale>
<asrwt>  1 0.32710686E+02</asrwt>
<pdfrwt beam="1">  1        1 0.86481840E+00 0.30000000E+03</pdfrwt>
<pdfrwt beam="2">0</pdfrwt>
<totfact> 0.29066764E-04</totfact>
</mgrwt>
<clustering>
<clus scale="   32.711">  1  6  2 -1</clus>
<clus scale="  456.832">  4  5 -1 -1</clus>
<clus scale="  300.000">  1  4  2 -1</clus>
</clustering>
</event>
<event>
 6    1  0.9843879E-012  0.3000000E+03  0.7818608E-02  0.1093470E+00
          1   -1    0    0  502    0  0.00000000000E+00  0.00000000000E+00  0.25208445255E+03  0.25208445255E+03  0.00000000000E+00 0.  1.
         13   -1    0    0    0    0 -0.00000000000E+00 -0.00000000000E+00 -0.27500000000E+03  0.27500000000E+03  0.00000000000E+00 0.  1.
    9000005    2    1    2  501    0 -0.15226432949E+02 -0.37101671732E+02 -0.46260283248E+02  0.48068019633E+03  0.47676520326E+03 0.  0.
         13    1    3    3    0    0  0.12453627622E+03 -0.20824155666E+02 -0.22209434362E+03  0.25547764486E+03  0.00000000000E+00 0.  1.
          3    1    3    3  501    0 -0.13976270916E+03 -0.16277516066E+02  0.17583406038E+03  0.22520255147E+03  0.00000000000E+00 0.  1.
         21    1    1    2  502  501  0.15226432949E+02  0.37101671732E+02  0.23344735801E+02  0.46404256220E+02  0.00000000000E+00 0.  1.
<scales pt_clust_4="550.00000" pt_clust_5="550.00000" pt_clust_6="40.10459"></scales>
<mgrwt>
<rscale>  0 0.30000000E+03</rscale>
<asrwt>  1 0.40104592E+02</asrwt>
<pdfrwt beam="1">  1        1 0.91667074E+00 0.30000000E+03</pdfrwt>
<pdfrwt beam="2">0</pdfrwt>
<totfact> 0.48332502E-05</totfact>
</mgrwt>
<clustering>
<clus scale="   40.105">  1  6  2 -1</clus>
<clus scale="  476.765">  4  5 -1 -1</clus>
<clus scale="  300.000">  1  4  2 -1</clus>
</clustering>
</event>
<event>
 6    1  0.9843879E-012  0.3000000E+03  0.7818608E-02  0.1093470E+00
          1   -1    0    0  502    0  0.00000000000E+00  0.00000000000E+00  0.22857860531E+03  0.22857860531E+03  0.00000000000E+00 0.  1.
         13   -1    0    0    0    0 -0.00000000000E+00 -0.00000000000E+00 -0.27500000000E+03  0.27500000000E+03  0.00000000000E+00 0.  1.
    9000005    2    1    2  501    0 -0.31428009080E+02 -0.45261354252E+00 -0.24445562258E+02  0.46522678886E+03  0.46351963814E+03 0.  0.
         13    1    3    3    0    0  0.83298024576E+02 -0.68837787661E+02  0.18650538267E+03  0.21554920476E+03  0.00000000000E+00 0.  1.
          3    1    3    3  501    0 -0.11472603366E+03  0.68385174118E+02 -0.21095094493E+03  0.24967758410E+03  0.00000000000E+00 0.  1.
         21    1    1    2  502  501  0.31428009080E+02  0.45261354252E+00 -0.21975832433E+02  0.38351816448E+02  0.00000000000E+00 0. -1.
<scales pt_clust_4="550.00000" pt_clust_5="550.00000" pt_clust_6="31.43128"></scales>
<mgrwt>
<rscale>  0 0.30000000E+03</rscale>
<asrwt>  1 0.31431284E+02</asrwt>
<pdfrwt beam="1">  1        1 0.83119493E+00 0.30000000E+03</pdfrwt>
<pdfrwt beam="2">0</pdfrwt>
<totfact> 0.58987541E-04</totfact>
</mgrwt>
<clustering>
<clus scale="   31.431">  1  6  2 -1</clus>
<clus scale="  463.520">  4  5 -1 -1</clus>
<clus scale="  300.000">  1  4  2 -1</clus>
</clustering>
</event>
<event>
 6    1  0.9843879E-012  0.3000000E+03  0.7818608E-02  0.1093470E+00
          1   -1    0    0  502    0  0.00000000000E+00  0.00000000000E+00  0.23902916260E+03  0.23902916260E+03  0.00000000000E+00 0.  1.
         13   -1    0    0    0    0 -0.00000000000E+00 -0.00000000000E+00 -0.27500000000E+03  0.27500000000E+03  0.00000000000E+00 0.  1.
    9000005    2    1    2  501    0  0.39891761659E+01 -0.36041048929E+02 -0.65033003926E+02  0.46755895432E+03  0.46159204221E+03 0.  0.
         13    1    3    3    0    0 -0.65476861612E+02 -0.20248552665E+03  0.88716458033E+02  0.23056065977E+03  0.00000000000E+00 0.  1.
          3    1    3    3  501    0  0.69466037778E+02  0.16644447772E+03 -0.15374946196E+03  0.23699829455E+03  0.00000000000E+00 0.  1.
         21    1    1    2  502  501 -0.39891761659E+01  0.36041048929E+02  0.29062166524E+02  0.46470208278E+02  0.00000000000E+00 0. -1.
<scales pt_clust_4="550.00000" pt_clust_5="550.00000" pt_clust_6="36.26115"></scales>
<mgrwt>
<rscale>  0 0.30000000E+03</rscale>
<asrwt>  1 0.36261146E+02</asrwt>
<pdfrwt beam="1">  1        1 0.86919695E+00 0.30000000E+03</pdfrwt>
<pdfrwt beam="2">0</pdfrwt>
<totfact> 0.25639862E-04</totfact>
</mgrwt>
<clustering>
<clus scale="   36.261">  1  6  2 -1</clus>
<clus scale="  461.592">  4  5 -1 -1</clus>
<clus scale="  300.000">  1  4  2 -1</clus>
</clustering>
</event>
<event>
 6    1  0.9843879E-012  0.3000000E+03  0.7818608E-02  0.1093470E+00
          1   -1    0    0  502    0  0.00000000000E+00  0.00000000000E+00  0.22880783912E+03  0.22880783912E+03  0.00000000000E+00 0.  1.
         13   -1    0    0    0    0 -0.00000000000E+00 -0.00000000000E+00 -0.27500000000E+03  0.27500000000E+03  0.00000000000E+00 0.  1.
    9000005    2    1    2  501    0  0.16049623690E+02 -0.34582413888E+02 -0.41269040036E+02  0.46536605339E+03  0.46196200733E+03 0.  0.
         13    1    3    3    0    0  0.20064374425E+03  0.98118047098E+02 -0.74848333930E+02  0.23555750118E+03  0.00000000000E+00 0.  1.
          3    1    3    3  501    0 -0.18459412056E+03 -0.13270046099E+03  0.33579293894E+02  0.22980855221E+03  0.00000000000E+00 0.  1.
         21    1    1    2  502  501 -0.16049623690E+02  0.34582413888E+02 -0.49231208448E+01  0.38441785726E+02  0.00000000000E+00 0. -1.
<scales pt_clust_4="550.00000" pt_clust_5="550.00000" pt_clust_6="38.12526"></scales>
<mgrwt>
<rscale>  0 0.30000000E+03</rscale>
<asrwt>  1 0.38125257E+02</asrwt>
<pdfrwt beam="1">  1        1 0.83202851E+00 0.30000000E+03</pdfrwt>
<pdfrwt beam="2">0</pdfrwt>
<totfact> 0.56042874E-04</totfact>
</mgrwt>
<clustering>
<clus scale="   38.125">  1  6  2 -1</clus>
<clus scale="  461.962">  4  5 -1 -1</clus>
<clus scale="  300.000">  1  4  2 -1</clus>
</clustering>
</event>
<event>
 6    1  0.9843879E-012  0.3000000E+03  0.7818608E-02  0.1093470E+00
          1   -1    0    0  502    0  0.00000000000E+00  0.00000000000E+00  0.23400734652E+03  0.23400734652E+03  0.00000000000E+00 0.  1.
         13   -1    0    0    0    0 -0.00000000000E+00 -0.00000000000E+00 -0.27500000000E+03  0.27500000000E+03  0.00000000000E+00 0.  1.
    9000005    2    1    2  501    0 -0.21622739520E+02  0.21619611402E+02 -0.58607941900E+02  0.47371926287E+03  0.46908431939E+03 0.  0.
         13    1    3    3    0    0 -0.37972825635E+02  0.92562788209E+02 -0.24982381620E+03  0.26911288410E+03  0.00000000000E+00 0.  1.
          3    1    3    3  501    0  0.16350086115E+02 -0.70943176808E+02  0.19121587430E+03  0.20460637877E+03  0.00000000000E+00 0.  1.
         21    1    1    2  502  501  0.21622739520E+02 -0.21619611402E+02  0.17615288418E+02  0.35288083649E+02  0.00000000000E+00 0. -1.
<scales pt_clust_4="550.00000" pt_clust_5="550.00000" pt_clust_6="30.57696"></scales>
<mgrwt>
<rscale>  0 0.30000000E+03</rscale>
<asrwt>  1 0.30576960E+02</asrwt>
<pdfrwt beam="1">  1        1 0.85093581E+00 0.30000000E+03</pdfrwt>
<pdfrwt beam="2">0</pdfrwt>
<totfact> 0.40913694E-04</totfact>
</mgrwt>
<clustering>
<clus scale="   30.577">  1  6  2 -1</clus>
<clus scale="  469.084">  4  5 -1 -1</clus>
<clus scale="  300.000">  1  4  2 -1</clus>
</clustering>
</event>
<event>
 6    1  0.9843879E-012  0.3000000E+03  0.7818608E-02  0.1093470E+00
          1   -1    0    0  502    0  0.00000000000E+00  0.00000000000E+00  0.23007444703E+03  0.23007444703E+03  0.00000000000E+00 0.  1.
         13   -1    0    0    0    0 -0.00000000000E+00 -0.00000000000E+00 -0.27500000000E+03  0.27500000000E+03  0.00000000000E+00 0.  1.
    9000005    2    1    2  501    0 -0.85302605983E+01 -0.40236801048E+02 -0.52370307169E+02  0.46327504668E+03  0.45846412542E+03 0.  0.
         13    1    3    3    0    0 -0.15351548043E+03 -0.16179382696E+03 -0.13069148093E+03  0.25850436817E+03  0.00000000000E+00 0.  1.
          1    1    3    3  501    0  0.14498521983E+03  0.12155702591E+03  0.78321173765E+02  0.20477067851E+03  0.00000000000E+00 0.  1.
         21    1    1    2  502  501  0.85302605983E+01  0.40236801048E+02  0.74447541980E+01  0.41799400349E+02  0.00000000000E+00 0.  1.
<scales pt_clust_4="550.00000" pt_clust_5="550.00000" pt_clust_6="41.13108"></scales>
<mgrwt>
<rscale>  0 0.30000000E+03</rscale>
<asrwt>  1 0.41131077E+02</asrwt>
<pdfrwt beam="1">  1        1 0.83663435E+00 0.30000000E+03</pdfrwt>
<pdfrwt beam="2">0</pdfrwt>
<totfact> 0.51097114E-04</totfact>
</mgrwt>
<clustering>
<clus scale="   41.131">  1  6  2 -1</clus>
<clus scale="  458.464">  4  5 -1 -1</clus>
<clus scale="  300.000">  1  4  2 -1</clus>
</clustering>
</event>
<event>
 6    1  0.9843879E-012  0.3000000E+03  0.7818608E-02  0.1093470E+00
          1   -1    0    0  502    0  0.00000000000E+00  0.00000000000E+00  0.22998325084E+03  0.22998325084E+03  0.00000000000E+00 0.  1.
         13   -1    0    0    0    0 -0.00000000000E+00 -0.00000000000E+00 -0.27500000000E+03  0.27500000000E+03  0.00000000000E+00 0.  1.
    9000005    2    1    2  501    0  0.22512286268E+02 -0.27713165241E+02 -0.63324611127E+02  0.46485844093E+03  0.45913891271E+03 0.  0.
         13    1    3    3    0    0  0.22441309428E+03  0.29194757687E+02 -0.10742241062E+03  0.25050577850E+03  0.00000000000E+00 0.  1.
          1    1    3    3  501    0 -0.20190080801E+03 -0.56907922928E+02  0.44097799497E+02  0.21435266242E+03  0.00000000000E+00 0.  1.
         21    1    1    2  502  501 -0.22512286268E+02  0.27713165241E+02  0.18307861965E+02  0.40124809911E+02  0.00000000000E+00 0. -1.
<scales pt_clust_4="550.00000" pt_clust_5="550.00000" pt_clust_6="35.70466"></scales>
<mgrwt>
<rscale>  0 0.30000000E+03</rscale>
<asrwt>  1 0.35704657E+02</asrwt>
<pdfrwt beam="1">  1        1 0.83630273E+00 0.30000000E+03</pdfrwt>
<pdfrwt beam="2">0</pdfrwt>
<totfact> 0.52735641E-04</totfact>
</mgrwt>
<clustering>
<clus scale="   35.705">  1  6  2 -1</clus>
<clus scale="  459.139">  4  5 -1 -1</clus>
<clus scale="  300.000">  1  4  2 -1</clus>
</clustering>
</event>
<event>
 6    1  0.9843879E-012  0.3000000E+03  0.7818608E-02  0.1093470E+00
          1   -1    0    0  502    0  0.00000000000E+00  0.00000000000E+00  0.24124745548E+03  0.24124745548E+03  0.00000000000E+00 0.  1.
         13   -1    0    0    0    0 -0.00000000000E+00 -0.00000000000E+00 -0.27500000000E+03  0.27500000000E+03  0.00000000000E+00 0.  1.
    9000005    2    1    2  501    0 -0.91005892804E+01  0.35880601373E+02 -0.56823543497E+02  0.47262969220E+03  0.46773889358E+03 0.  0.
         13    1    3    3    0    0  0.94859690112E+02  0.20392061629E+03 -0.13250285820E+03  0.26103445364E+03  0.00000000000E+00 0.  1.
          1    1    3    3  501    0 -0.10396027939E+03 -0.16804001492E+03  0.75679314705E+02  0.21159523855E+03  0.00000000000E+00 0.  1.
         21    1    1    2  502  501  0.91005892804E+01 -0.35880601373E+02  0.23070998976E+02  0.43617763284E+02  0.00000000000E+00 0.  1.
<scales pt_clust_4="550.00000" pt_clust_5="550.00000" pt_clust_6="37.01673"></scales>
<mgrwt>
<rscale>  0 0.30000000E+03</rscale>
<asrwt>  1 0.37016730E+02</asrwt>
<pdfrwt beam="1">  1        1 0.87726347E+00 0.30000000E+03</pdfrwt>
<pdfrwt beam="2">0</pdfrwt>
<totfact> 0.21034353E-04</totfact>
</mgrwt>
<clustering>
<clus scale="   37.017">  1  6  2 -1</clus>
<clus scale="  467.739">  4  5 -1 -1</clus>
<clus scale="  300.000">  1  4  2 -1</clus>
</clustering>
</event>
<event>
 6    1  0.9843879E-012  0.3000000E+03  0.7818608E-02  0.1093470E+00
          1   -1    0    0  502    0  0.00000000000E+00  0.00000000000E+00  0.25482239402E+03  0.25482239402E+03  0.00000000000E+00 0.  1.
         13   -1    0    0    0    0 -0.00000000000E+00 -0.00000000000E+00 -0.27500000000E+03  0.27500000000E+03  0.00000000000E+00 0.  1.
    9000005    2    1    2  501    0 -0.51592289250E+02 -0.31112341537E+02 -0.30013684948E+02  0.46877740606E+03  0.46391992093E+03 0.  0.
         13    1    3    3    0    0 -0.66653783385E+02 -0.17546290550E+03 -0.18000700720E+03  0.26006245536E+03  0.00000000000E+00 0.  1.
          1    1    3    3  501    0  0.15061494135E+02  0.14435056397E+03  0.14999332225E+03  0.20871495070E+03  0.00000000000E+00 0.  1.
         21    1    1    2  502  501  0.51592289250E+02  0.31112341537E+02  0.98360789680E+01  0.61044987963E+02  0.00000000000E+00 0. -1.
<scales pt_clust_4="550.00000" pt_clust_5="550.00000" pt_clust_6="60.24734"></scales>
<mgrwt>
<rscale>  0 0.30000000E+03</rscale>
<asrwt>  1 0.60247341E+02</asrwt>
<pdfrwt beam="1">  1        1 0.92662689E+00 0.30000000E+03</pdfrwt>
<pdfrwt beam="2">0</pdfrwt>
<totfact> 0.27558040E-05</totfact>
</mgrwt>
<clustering>
<clus scale="   60.247">  1  6  2 -1</clus>
<clus scale="  463.920">  4  5 -1 -1</clus>
<clus scale="  300.000">  1  4  2 -1</clus>
</clustering>
</event>
<event>
 6    1  0.9843879E-012  0.3000000E+03  0.7818608E-02  0.1093470E+00
          1   -1    0    0  502    0  0.00000000000E+00  0.00000000000E+00  0.22063957009E+03  0.22063957009E+03  0.00000000000E+00 0.  1.
         13   -1    0    0    0    0 -0.00000000000E+00 -0.00000000000E+00 -0.27500000000E+03  0.27500000000E+03  0.00000000000E+00 0.  1.
    9000005    2    1    2  501    0  0.29863529217E+02  0.44469159447E+01 -0.63901658363E+02  0.46397507137E+03  0.45856061701E+03 0.  0.
         13    1    3    3    0    0 -0.60013216576E+02  0.15393605568E+02 -0.24970992644E+03  0.25728116258E+03  0.00000000000E+00 0.  1.
          1    1    3    3  501    0  0.89876745793E+02 -0.10946689623E+02  0.18580826807E+03  0.20669390879E+03  0.00000000000E+00 0.  1.
         21    1    1    2  502  501 -0.29863529217E+02 -0.44469159447E+01  0.95412284530E+01  0.31664498719E+02  0.00000000000E+00 0. -1.
<scales pt_clust_4="550.00000" pt_clust_5="550.00000" pt_clust_6="30.19280"></scales>
<mgrwt>
<rscale>  0 0.30000000E+03</rscale>
<asrwt>  1 0.30192804E+02</asrwt>
<pdfrwt beam="1">  1        1 0.80232571E+00 0.30000000E+03</pdfrwt>
<pdfrwt beam="2">0</pdfrwt>
<totfact> 0.10258413E-03</totfact>
</mgrwt>
<clustering>
<clus scale="   30.193">  1  6  2 -1</clus>
<clus scale="  458.561">  4  5 -1 -1</clus>
<clus scale="  300.000">  1  4  2 -1</clus>
</clustering>
</event>
<event>
 6    1  0.9843879E-012  0.3000000E+03  0.7818608E-02  0.1093470E+00
          1   -1    0    0  502    0  0.00000000000E+00  0.00000000000E+00  0.22151186785E+03  0.22151186785E+03  0.00000000000E+00 0.  1.
         13   -1    0    0    0    0 -0.00000000000E+00 -0.00000000000E+00 -0.27500000000E+03  0.27500000000E+03  0.00000000000E+00 0.  1.
    9000005    2    1    2  501    0 -0.24137522707E+02 -0.23260747055E+02 -0.54997795641E+02  0.46295651895E+03  0.45845424914E+03 0.  0.
         13    1    3    3    0    0  0.11651150962E+03  0.17882401298E+03 -0.28372088670E+02  0.21530892900E+03  0.00000000000E+00 0.  1.
          1    1    3    3  501    0 -0.14064903233E+03 -0.20208476003E+03 -0.26625706971E+02  0.24764758995E+03  0.00000000000E+00 0.  1.
         21    1    1    2  502  501  0.24137522707E+02  0.23260747055E+02  0.15096634914E+01  0.33555348901E+02  0.00000000000E+00 0. -1.
<scales pt_clust_4="550.00000" pt_clust_5="550.00000" pt_clust_6="33.52137"></scales>
<mgrwt>
<rscale>  0 0.30000000E+03</rscale>
<asrwt>  1 0.33521372E+02</asrwt>
<pdfrwt beam="1">  1        1 0.80549770E+00 0.30000000E+03</pdfrwt>
<pdfrwt beam="2">0</pdfrwt>
<totfact> 0.95237049E-04</totfact>
</mgrwt>
<clustering>
<clus scale="   33.521">  1  6  2 -1</clus>
<clus scale="  458.454">  4  5 -1 -1</clus>
<clus scale="  300.000">  1  4  2 -1</clus>
</clustering>
</event>
<event>
 6    1  0.9843879E-012  0.3000000E+03  0.7818608E-02  0.1093470E+00
          1   -1    0    0  502    0  0.00000000000E+00  0.00000000000E+00  0.22394095190E+03  0.22394095190E+03  0.00000000000E+00 0.  1.
         13   -1    0    0    0    0 -0.00000000000E+00 -0.00000000000E+00 -0.27500000000E+03  0.27500000000E+03  0.00000000000E+00 0.  1.
    9000005    2    1    2  501    0  0.17918345117E+02  0.27340267410E+02 -0.65408806166E+02  0.46324119181E+03  0.45743363732E+03 0.  0.
         13    1    3    3    0    0  0.11255569409E+03  0.15579932835E+03 -0.18272414176E+03  0.26519865567E+03  0.00000000000E+00 0.  1.
          3    1    3    3  501    0 -0.94637348977E+02 -0.12845906094E+03  0.11731533559E+03  0.19804253615E+03  0.00000000000E+00 0.  1.
         21    1    1    2  502  501 -0.17918345117E+02 -0.27340267410E+02  0.14349758066E+02  0.35699760088E+02  0.00000000000E+00 0. -1.
<scales pt_clust_4="550.00000" pt_clust_5="550.00000" pt_clust_6="32.68879"></scales>
<mgrwt>
<rscale>  0 0.30000000E+03</rscale>
<asrwt>  1 0.32688795E+02</asrwt>
<pdfrwt beam="1">  1        1 0.81433073E+00 0.30000000E+03</pdfrwt>
<pdfrwt beam="2">0</pdfrwt>
<totfact> 0.81642155E-04</totfact>
</mgrwt>
<clustering>
<clus scale="   32.689">  1  6  2 -1</clus>
<clus scale="  457.434">  4  5 -1 -1</clus>
<clus scale="  300.000">  1  4  2 -1</clus>
</clustering>
</event>
<event>
 6    1  0.9843879E-012  0.3000000E+03  0.7818608E-02  0.1093470E+00
          1   -1    0    0  502    0  0.00000000000E+00  0.00000000000E+00  0.23595847071E+03  0.23595847071E+03  0.00000000000E+00 0.  1.
         13   -1    0    0    0    0 -0.00000000000E+00 -0.00000000000E+00 -0.27500000000E+03  0.27500000000E+03  0.00000000000E+00 0.  1.
    9000005    2    1    2  501    0  0.23670017875E+02 -0.23857659952E+02 -0.52533684164E+02  0.47474388901E+03  0.47062991245E+03 0.  0.
         13    1    3    3    0    0 -0.20399044866E+02 -0.24490884767E+03 -0.40033919623E+02  0.24899634418E+03  0.00000000000E+00 0.  1.
          3    1    3    3  501    0  0.44069062741E+02  0.22105118771E+03 -0.12499764540E+02  0.22574754482E+03  0.00000000000E+00 0.  1.
         21    1    1    2  502  501 -0.23670017875E+02  0.23857659952E+02  0.13492154873E+02  0.36214581700E+02  0.00000000000E+00 0. -1.
<scales pt_clust_4="550.00000" pt_clust_5="550.00000" pt_clust_6="33.60741"></scales>
<mgrwt>
<rscale>  0 0.30000000E+03</rscale>
<asrwt>  1 0.33607405E+02</asrwt>
<pdfrwt beam="1">  1        1 0.85803080E+00 0.30000000E+03</pdfrwt>
<pdfrwt beam="2">0</pdfrwt>
<totfact> 0.34192417E-04</totfact>
</mgrwt>
<clustering>
<clus scale="   33.607">  1  6  2 -1</clus>
<clus scale="  470.630">  4  5 -1 -1</clus>
<clus scale="  300.000">  1  4  2 -1</clus>
</clustering>
</event>
<event>
 6    1  0.9843879E-012  0.3000000E+03  0.7818608E-02  0.1093470E+00
          1   -1    0    0  502    0  0.00000000000E+00  0.00000000000E+00  0.24172933633E+03  0.24172933633E+03  0.00000000000E+00 0.  1.
         13   -1    0    0    0    0 -0.00000000000E+00 -0.00000000000E+00 -0.27500000000E+03  0.27500000000E+03  0.00000000000E+00 0.  1.
    9000005    2    1    2  501    0 -0.22752486978E+02  0.30803803495E+02 -0.51540763870E+02  0.47429884571E+03  0.46993232994E+03 0.  0.
         13    1    3    3    0    0 -0.15392712152E+03 -0.92918780883E+02  0.12732544736E+03  0.22031620033E+03  0.00000000000E+00 0.  1.
          3    1    3    3  501    0  0.13117463455E+03  0.12372258438E+03 -0.17886621123E+03  0.25398264538E+03  0.00000000000E+00 0.  1.
         21    1    1    2  502  501  0.22752486978E+02 -0.30803803495E+02  0.18270100201E+02  0.42430490626E+02  0.00000000000E+00 0.  1.
<scales pt_clust_4="550.00000" pt_clust_5="550.00000" pt_clust_6="38.29556"></scales>
<mgrwt>
<rscale>  0 0.30000000E+03</rscale>
<asrwt>  1 0.38295561E+02</asrwt>
<pdfrwt beam="1">  1        1 0.87901577E+00 0.30000000E+03</pdfrwt>
<pdfrwt beam="2">0</pdfrwt>
<totfact> 0.19951623E-04</totfact>
</mgrwt>
<clustering>
<clus scale="   38.296">  1  6  2 -1</clus>
<clus scale="  469.932">  4  5 -1 -1</clus>
<clus scale="  300.000">  1  4  2 -1</clus>
</clustering>
</event>
<event>
 6    1  0.9843879E-012  0.3000000E+03  0.7818608E-02  0.1093470E+00
          1   -1    0    0  502    0  0.00000000000E+00  0.00000000000E+00  0.22262040476E+03  0.22262040476E+03  0.00000000000E+00 0.  1.
         13   -1    0    0    0    0 -0.00000000000E+00 -0.00000000000E+00 -0.27500000000E+03  0.27500000000E+03  0.00000000000E+00 0.  1.
    9000005    2    1    2  501    0 -0.25587442114E+02  0.15707198758E+02 -0.68279287968E+02  0.46364639240E+03  0.45760734559E+03 0.  0.
         13    1    3    3    0    0  0.10782339213E+03 -0.18639128539E+03 -0.16140223673E+02  0.21593541159E+03  0.00000000000E+00 0.  1.
          3    1    3    3  501    0 -0.13341083424E+03  0.20209848415E+03 -0.52139064295E+02  0.24771098081E+03  0.00000000000E+00 0.  1.
         21    1    1    2  502  501  0.25587442114E+02 -0.15707198758E+02  0.15899692730E+02  0.33974012357E+02  0.00000000000E+00 0.  1.
<scales pt_clust_4="550.00000" pt_clust_5="550.00000" pt_clust_6="30.02388"></scales>
<mgrwt>
<rscale>  0 0.30000000E+03</rscale>
<asrwt>  1 0.30023879E+02</asrwt>
<pdfrwt beam="1">  1        1 0.80952874E+00 0.30000000E+03</pdfrwt>
<pdfrwt beam="2">0</pdfrwt>
<totfact> 0.90551929E-04</totfact>
</mgrwt>
<clustering>
<clus scale="   30.024">  1  6  2 -1</clus>
<clus scale="  457.607">  4  5 -1 -1</clus>
<clus scale="  300.000">  1  4  2 -1</clus>
</clustering>
</event>
<event>
 6    1  0.9843879E-012  0.3000000E+03  0.7818608E-02  0.1093470E+00
          1   -1    0    0  502    0  0.00000000000E+00  0.00000000000E+00  0.22393527083E+03  0.22393527083E+03  0.00000000000E+00 0.  1.
         13   -1    0    0    0    0 -0.00000000000E+00 -0.00000000000E+00 -0.27500000000E+03  0.27500000000E+03  0.00000000000E+00 0.  1.
    9000005    2    1    2  501    0  0.24563128569E+02  0.29620205249E+02 -0.50624020691E+02  0.46045283239E+03  0.45604091433E+03 0.  0.
         13    1    3    3    0    0 -0.20215047180E+03 -0.29563686163E+02  0.41868356737E+02  0.20854683906E+03  0.00000000000E+00 0.  1.
          1    1    3    3  501    0  0.22671360036E+03  0.59183891412E+02 -0.92492377428E+02  0.25190599333E+03  0.00000000000E+00 0.  1.
         21    1    1    2  502  501 -0.24563128569E+02 -0.29620205249E+02 -0.44070848060E+00  0.38482438438E+02  0.00000000000E+00 0. -1.
<scales pt_clust_4="550.00000" pt_clust_5="550.00000" pt_clust_6="38.47991"></scales>
<mgrwt>
<rscale>  0 0.30000000E+03</rscale>
<asrwt>  1 0.38479915E+02</asrwt>
<pdfrwt beam="1">  1        1 0.81431008E+00 0.30000000E+03</pdfrwt>
<pdfrwt beam="2">0</pdfrwt>
<totfact> 0.79225098E-04</totfact>
</mgrwt>
<clustering>
<clus scale="   38.480">  1  6  2 -1</clus>
<clus scale="  456.041">  4  5 -1 -1</clus>
<clus scale="  300.000">  1  4  2 -1</clus>
</clustering>
</event>
<event>
 6    1  0.9843879E-012  0.3000000E+03  0.7818608E-02  0.1093470E+00
          1   -1    0    0  502    0  0.00000000000E+00  0.00000000000E+00  0.23471794770E+03  0.23471794770E+03  0.00000000000E+00 0.  1.
         13   -1    0    0    0    0 -0.00000000000E+00 -0.00000000000E+00 -0.27500000000E+03  0.27500000000E+03  0.00000000000E+00 0.  1.
    9000005    2    1    2  501    0  0.32214470803E+02  0.64607135590E+01 -0.48407035859E+02  0.47587229352E+03  0.47226230600E+03 0.  0.
         13    1    3    3    0    0  0.20737334681E+03 -0.60393301242E+02 -0.14968120674E+03  0.26278416896E+03  0.00000000000E+00 0.  1.
          1    1    3    3  501    0 -0.17515887601E+03  0.66854014801E+02  0.10127417089E+03  0.21308812456E+03  0.00000000000E+00 0.  1.
         21    1    1    2  502  501 -0.32214470803E+02 -0.64607135590E+01  0.81249835574E+01  0.33845654177E+02  0.00000000000E+00 0.  1.
<scales pt_clust_4="550.00000" pt_clust_5="550.00000" pt_clust_6="32.85594"></scales>
<mgrwt>
<rscale>  0 0.30000000E+03</rscale>
<asrwt>  1 0.32855942E+02</asrwt>
<pdfrwt beam="1">  1        1 0.85351981E+00 0.30000000E+03</pdfrwt>
<pdfrwt beam="2">0</pdfrwt>
<totfact> 0.38118848E-04</totfact>
</mgrwt>
<clustering>
<clus scale="   32.856">  1  6  2 -1</clus>
<clus scale="  472.262">  4  5 -1 -1</clus>
<clus scale="  300.000">  1  4  2 -1</clus>
</clustering>
</event>
<event>
 6    1  0.9843879E-012  0.3000000E+03  0.7818608E-02  0.1093470E+00
          1   -1    0    0  502    0  0.00000000000E+00  0.00000000000E+00  0.24662884699E+03  0.24662884699E+03  0.00000000000E+00 0.  1.
         13   -1    0    0    0    0 -0.00000000000E+00 -0.00000000000E+00 -0.27500000000E+03  0.27500000000E+03  0.00000000000E+00 0.  1.
    9000005    2    1    2  501    0 -0.56395575716E+02 -0.71984403290E+01 -0.44251070258E+02  0.46259961461E+03  0.45695510471E+03 0.  0.
         13    1    3    3    0    0 -0.73817532803E+02 -0.11831490331E+03  0.17044596607E+03  0.22022550225E+03  0.00000000000E+00 0.  1.
          1    1    3    3  501    0  0.17421957087E+02  0.11111646298E+03 -0.21469703633E+03  0.24237411236E+03  0.00000000000E+00 0.  1.
         21    1    1    2  502  501  0.56395575716E+02  0.71984403290E+01  0.15879917251E+02  0.59029232380E+02  0.00000000000E+00 0.  1.
<scales pt_clust_4="550.00000" pt_clust_5="550.00000" pt_clust_6="56.85313"></scales>
<mgrwt>
<rscale>  0 0.30000000E+03</rscale>
<asrwt>  1 0.56853131E+02</asrwt>
<pdfrwt beam="1">  1        1 0.89683217E+00 0.30000000E+03</pdfrwt>
<pdfrwt beam="2">0</pdfrwt>
<totfact> 0.11028444E-04</totfact>
</mgrwt>
<clustering>
<clus scale="   56.853">  1  6  2 -1</clus>
<clus scale="  456.955">  4  5 -1 -1</clus>
<clus scale="  300.000">  1  4  2 -1</clus>
</clustering>
</event>
<event>
 6    1  0.9843879E-012  0.3000000E+03  0.7818608E-02  0.1093470E+00
          1   -1    0    0  502    0  0.00000000000E+00  0.00000000000E+00  0.23021647371E+03  0.23021647371E+03  0.00000000000E+00 0.  1.
         13   -1    0    0    0    0 -0.00000000000E+00 -0.00000000000E+00 -0.27500000000E+03  0.27500000000E+03  0.00000000000E+00 0.  1.
    9000005    2    1    2  501    0 -0.33248755264E+02 -0.40698896841E+01 -0.63804914573E+02  0.46669561000E+03  0.46109834260E+03 0.  0.
         13    1    3    3    0    0  0.51358017525E+02 -0.14109933162E+03  0.14112041351E+03  0.20606221987E+03  0.00000000000E+00 0.  1.
          1    1    3    3  501    0 -0.84606772789E+02  0.13702944194E+03 -0.20492532809E+03  0.26063339013E+03  0.00000000000E+00 0.  1.
         21    1    1    2  502  501  0.33248755264E+02  0.40698896841E+01  0.19021388287E+02  0.38520863711E+02  0.00000000000E+00 0. -1.
<scales pt_clust_4="550.00000" pt_clust_5="550.00000" pt_clust_6="33.49692"></scales>
<mgrwt>
<rscale>  0 0.30000000E+03</rscale>
<asrwt>  1 0.33496921E+02</asrwt>
<pdfrwt beam="1">  1        1 0.83715081E+00 0.30000000E+03</pdfrwt>
<pdfrwt beam="2">0</pdfrwt>
<totfact> 0.52618981E-04</totfact>
</mgrwt>
<clustering>
<clus scale="   33.497">  1  6  2 -1</clus>
<clus scale="  461.098">  4  5 -1 -1</clus>
<clus scale="  300.000">  1  4  2 -1</clus>
</clustering>
</event>
<event>
 6    1  0.9843879E-012  0.3000000E+03  0.7818608E-02  0.1093470E+00
          1   -1    0    0  502    0  0.00000000000E+00  0.00000000000E+00  0.22314731990E+03  0.22314731990E+03  0.00000000000E+00 0.  1.
         13   -1    0    0    0    0 -0.00000000000E+00 -0.00000000000E+00 -0.27500000000E+03  0.27500000000E+03  0.00000000000E+00 0.  1.
    9000005    2    1    2  501    0 -0.27940391102E+02  0.11237010872E+02 -0.42236392075E+02  0.46653389137E+03  0.46364104986E+03 0.  0.
         13    1    3    3    0    0  0.17352240721E+03  0.63997467086E+02  0.10388604063E+03  0.21212734627E+03  0.00000000000E+00 0.  1.
          1    1    3    3  501    0 -0.20146279832E+03 -0.52760456214E+02 -0.14612243271E+03  0.25440654509E+03  0.00000000000E+00 0.  1.
         21    1    1    2  502  501  0.27940391102E+02 -0.11237010872E+02 -0.96162880237E+01  0.31613428533E+02  0.00000000000E+00 0.  1.
<scales pt_clust_4="550.00000" pt_clust_5="550.00000" pt_clust_6="30.11539"></scales>
<mgrwt>
<rscale>  0 0.30000000E+03</rscale>
<asrwt>  1 0.30115391E+02</asrwt>
<pdfrwt beam="1">  1        1 0.81144480E+00 0.30000000E+03</pdfrwt>
<pdfrwt beam="2">0</pdfrwt>
<totfact> 0.87429405E-04</totfact>
</mgrwt>
<clustering>
<clus scale="   30.115">  1  6  2 -1</clus>
<clus scale="  463.641">  4  5 -1 -1</clus>
<clus scale="  300.000">  1  4  2 -1</clus>
</clustering>
</event>
<event>
 6    1  0.9843879E-012  0.3000000E+03  0.7818608E-02  0.1093470E+00
          1   -1    0    0  502    0  0.00000000000E+00  0.00000000000E+00  0.22406256188E+03  0.22406256188E+03  0.00000000000E+00 0.  1.
         13   -1    0    0    0    0 -0.00000000000E+00 -0.00000000000E+00 -0.27500000000E+03  0.27500000000E+03  0.00000000000E+00 0.  1.
    9000005    2    1    2  501    0 -0.31170476194E+02  0.20087331134E+02 -0.55384142935E+02  0.46171456806E+03  0.45687836413E+03 0.  0.
         13    1    3    3    0    0  0.76548387534E+01 -0.20000927010E+03 -0.11442277701E+03  0.23055341373E+03  0.00000000000E+00 0.  1.
          1    1    3    3  501    0 -0.38825314947E+02  0.22009660124E+03  0.59038634079E+02  0.23116115433E+03  0.00000000000E+00 0.  1.
         21    1    1    2  502  501  0.31170476194E+02 -0.20087331134E+02  0.44467048113E+01  0.37347993814E+02  0.00000000000E+00 0.  1.
<scales pt_clust_4="550.00000" pt_clust_5="550.00000" pt_clust_6="37.08233"></scales>
<mgrwt>
<rscale>  0 0.30000000E+03</rscale>
<asrwt>  1 0.37082334E+02</asrwt>
<pdfrwt beam="1">  1        1 0.81477295E+00 0.30000000E+03</pdfrwt>
<pdfrwt beam="2">0</pdfrwt>
<totfact> 0.79085919E-04</totfact>
</mgrwt>
<clustering>
<clus scale="   37.082">  1  6  2 -1</clus>
<clus scale="  456.878">  4  5 -1 -1</clus>
<clus scale="  300.000">  1  4  2 -1</clus>
</clustering>
</event>
<event>
 6    1  0.9843879E-012  0.3000000E+03  0.7818608E-02  0.1093470E+00
          1   -1    0    0  502    0  0.00000000000E+00  0.00000000000E+00  0.24835371760E+03  0.24835371760E+03  0.00000000000E+00 0.  1.
         13   -1    0    0    0    0 -0.00000000000E+00 -0.00000000000E+00 -0.27500000000E+03  0.27500000000E+03  0.00000000000E+00 0.  1.
    9000005    2    1    2  501    0 -0.49957404460E+01 -0.36646590452E+02 -0.43770914060E+02  0.48259610452E+03  0.47918177884E+03 0.  0.
         13    1    3    3    0    0 -0.21293114210E+03  0.93184635744E+02 -0.48394053974E+02  0.23741320956E+03  0.00000000000E+00 0.  1.
          1    1    3    3  501    0  0.20793540166E+03 -0.12983122620E+03  0.46231399139E+01  0.24518289496E+03  0.00000000000E+00 0.  1.
         21    1    1    2  502  501  0.49957404460E+01  0.36646590452E+02  0.17124631660E+02  0.40757613079E+02  0.00000000000E+00 0. -1.
<scales pt_clust_4="550.00000" pt_clust_5="550.00000" pt_clust_6="36.98554"></scales>
<mgrwt>
<rscale>  0 0.30000000E+03</rscale>
<asrwt>  1 0.36985538E+02</asrwt>
<pdfrwt beam="1">  1        1 0.90310443E+00 0.30000000E+03</pdfrwt>
<pdfrwt beam="2">0</pdfrwt>
<totfact> 0.98806575E-05</totfact>
</mgrwt>
<clustering>
<clus scale="   36.986">  1  6  2 -1</clus>
<clus scale="  479.182">  4  5 -1 -1</clus>
<clus scale="  300.000">  1  4  2 -1</clus>
</clustering>
</event>
<event>
 6    1  0.9843879E-012  0.3000000E+03  0.7818608E-02  0.1093470E+00
          1   -1    0    0  502    0  0.00000000000E+00  0.00000000000E+00  0.24466581353E+03  0.24466581353E+03  0.00000000000E+00 0.  1.
         13   -1    0    0    0    0 -0.00000000000E+00 -0.00000000000E+00 -0.27500000000E+03  0.27500000000E+03  0.00000000000E+00 0.  1.
    9000005    2    1    2  501    0 -0.29202085591E+02  0.36501892845E+02 -0.61285468252E+02  0.46360217266E+03  0.45714977402E+03 0.  0.
         13    1    3    3    0    0  0.40605409174E+02 -0.19201311130E+03  0.46161772465E+02  0.20161533524E+03  0.00000000000E+00 0.  1.
          3    1    3    3  501    0 -0.69807494765E+02  0.22851500414E+03 -0.10744724072E+03  0.26198683742E+03  0.00000000000E+00 0.  1.
         21    1    1    2  502  501  0.29202085591E+02 -0.36501892845E+02  0.30951281787E+02  0.56063640877E+02  0.00000000000E+00 0.  1.
<scales pt_clust_4="550.00000" pt_clust_5="550.00000" pt_clust_6="46.74559"></scales>
<mgrwt>
<rscale>  0 0.30000000E+03</rscale>
<asrwt>  1 0.46745588E+02</asrwt>
<pdfrwt beam="1">  1        1 0.88969387E+00 0.30000000E+03</pdfrwt>
<pdfrwt beam="2">0</pdfrwt>
<totfact> 0.13881304E-04</totfact>
</mgrwt>
<clustering>
<clus scale="   46.746">  1  6  2 -1</clus>
<clus scale="  457.150">  4  5 -1 -1</clus>
<clus scale="  300.000">  1  4  2 -1</clus>
</clustering>
</event>
<event>
 6    1  0.9843879E-012  0.3000000E+03  0.7818608E-02  0.1093470E+00
          1   -1    0    0  502    0  0.00000000000E+00  0.00000000000E+00  0.26488053337E+03  0.26488053337E+03  0.00000000000E+00 0.  1.
         13   -1    0    0    0    0 -0.00000000000E+00 -0.00000000000E+00 -0.27500000000E+03  0.27500000000E+03  0.00000000000E+00 0.  1.
    9000005    2    1    2  501    0 -0.20001954050E+02  0.31302201699E+02 -0.52085053021E+02  0.48383576164E+03  0.47958762025E+03 0.  0.
         13    1    3    3    0    0 -0.11408794476E+03 -0.16492927602E+03  0.94252930748E+02  0.22158822212E+03  0.00000000000E+00 0.  1.
          3    1    3    3  501    0  0.94085990705E+02  0.19623147772E+03 -0.14633798377E+03  0.26224753953E+03  0.00000000000E+00 0.  1.
         21    1    1    2  502  501  0.20001954050E+02 -0.31302201699E+02  0.41965586391E+02  0.56044771729E+02  0.00000000000E+00 0.  1.
<scales pt_clust_4="550.00000" pt_clust_5="550.00000" pt_clust_6="37.14709"></scales>
<mgrwt>
<rscale>  0 0.30000000E+03</rscale>
<asrwt>  1 0.37147086E+02</asrwt>
<pdfrwt beam="1">  1        1 0.96320194E+00 0.30000000E+03</pdfrwt>
<pdfrwt beam="2">0</pdfrwt>
<totfact> 0.64031362E-06</totfact>
</mgrwt>
<clustering>
<clus scale="   37.147">  1  6  2 -1</clus>
<clus scale="  479.588">  4  5 -1 -1</clus>
<clus scale="  300.000">  1  4  2 -1</clus>
</clustering>
</event>
<event>
 6    1  0.9843879E-012  0.3000000E+03  0.7818608E-02  0.1093470E+00
          1   -1    0    0  502    0  0.00000000000E+00  0.00000000000E+00  0.24467276788E+03  0.24467276788E+03  0.00000000000E+00 0.  1.
         13   -1    0    0    0    0 -0.00000000000E+00 -0.00000000000E+00 -0.27500000000E+03  0.27500000000E+03  0.00000000000E+00 0.  1.
    9000005    2    1    2  501    0 -0.32148324245E+02 -0.34173513242E+01 -0.53237633667E+02  0.48004853866E+03  0.47599071503E+03 0.  0.
         13    1    3    3    0    0 -0.20125977757E+03 -0.13003727719E+03 -0.10643884760E+03  0.26219157082E+03  0.00000000000E+00 0.  1.
          3    1    3    3  501    0  0.16911145333E+03  0.12661992587E+03  0.53201213935E+02  0.21785696784E+03  0.00000000000E+00 0.  1.
         21    1    1    2  502  501  0.32148324245E+02  0.34173513242E+01  0.22910401543E+02  0.39624229213E+02  0.00000000000E+00 0. -1.
<scales pt_clust_4="550.00000" pt_clust_5="550.00000" pt_clust_6="32.32945"></scales>
<mgrwt>
<rscale>  0 0.30000000E+03</rscale>
<asrwt>  1 0.32329445E+02</asrwt>
<pdfrwt beam="1">  1        1 0.88971916E+00 0.30000000E+03</pdfrwt>
<pdfrwt beam="2">0</pdfrwt>
<totfact> 0.14841539E-04</totfact>
</mgrwt>
<clustering>
<clus scale="   32.329">  1  6  2 -1</clus>
<clus scale="  475.991">  4  5 -1 -1</clus>
<clus scale="  300.000">  1  4  2 -1</clus>
</clustering>
</event>
<event>
 6    1  0.9843879E-012  0.3000000E+03  0.7818608E-02  0.1093470E+00
          1   -1    0    0  502    0  0.00000000000E+00  0.00000000000E+00  0.24834048364E+03  0.24834048364E+03  0.00000000000E+00 0.  1.
         13   -1    0    0    0    0 -0.00000000000E+00 -0.00000000000E+00 -0.27500000000E+03  0.27500000000E+03  0.00000000000E+00 0.  1.
    9000005    2    1    2  501    0 -0.44297873596E+02  0.29801657059E+02 -0.44527095332E+02  0.46704047701E+03  0.46183731397E+03 0.  0.
         13    1    3    3    0    0 -0.81053971221E+02  0.23893529497E+03 -0.16322571116E+02  0.25283640514E+03  0.00000000000E+00 0.  1.
          3    1    3    3  501    0  0.36756097626E+02 -0.20913363791E+03 -0.28204524217E+02  0.21420407187E+03  0.00000000000E+00 0.  1.
         21    1    1    2  502  501  0.44297873596E+02 -0.29801657059E+02  0.17867578973E+02  0.56300006633E+02  0.00000000000E+00 0.  1.
<scales pt_clust_4="550.00000" pt_clust_5="550.00000" pt_clust_6="53.38952"></scales>
<mgrwt>
<rscale>  0 0.30000000E+03</rscale>
<asrwt>  1 0.53389516E+02</asrwt>
<pdfrwt beam="1">  1        1 0.90305630E+00 0.30000000E+03</pdfrwt>
<pdfrwt beam="2">0</pdfrwt>
<totfact> 0.92684827E-05</totfact>
</mgrwt>
<clustering>
<clus scale="   53.390">  1  6  2 -1</clus>
<clus scale="  461.837">  4  5 -1 -1</clus>
<clus scale="  300.000">  1  4  2 -1</clus>
</clustering>
</event>
<event>
 6    1  0.9843879E-012  0.3000000E+03  0.7818608E-02  0.1093470E+00
          1   -1    0    0  502    0  0.00000000000E+00  0.00000000000E+00  0.24319412582E+03  0.24319412582E+03  0.00000000000E+00 0.  1.
         13   -1    0    0    0    0 -0.00000000000E+00 -0.00000000000E+00 -0.27500000000E+03  0.27500000000E+03  0.00000000000E+00 0.  1.
    9000005    2    1    2  501    0  0.72629224154E+01 -0.33995267596E+02 -0.68199355617E+02  0.46786606454E+03  0.46156156034E+03 0.  0.
         13    1    3    3    0    0  0.13463975099E+02 -0.40301947639E+02 -0.26624933862E+03  0.26961868616E+03  0.00000000000E+00 0.  1.
          1    1    3    3  501    0 -0.62010526836E+01  0.63066800436E+01  0.19804998301E+03  0.19824737838E+03  0.00000000000E+00 0.  1.
         21    1    1    2  502  501 -0.72629224154E+01  0.33995267596E+02  0.36393481438E+02  0.50328061279E+02  0.00000000000E+00 0.  1.
<scales pt_clust_4="550.00000" pt_clust_5="550.00000" pt_clust_6="34.76245"></scales>
<mgrwt>
<rscale>  0 0.30000000E+03</rscale>
<asrwt>  1 0.34762455E+02</asrwt>
<pdfrwt beam="1">  1        1 0.88434228E+00 0.30000000E+03</pdfrwt>
<pdfrwt beam="2">0</pdfrwt>
<totfact> 0.17347408E-04</totfact>
</mgrwt>
<clustering>
<clus scale="   34.762">  1  6  2 -1</clus>
<clus scale="  461.562">  4  5 -1 -1</clus>
<clus scale="  300.000">  1  4  2 -1</clus>
</clustering>
</event>
<event>
 6    1  0.9843879E-012  0.3000000E+03  0.7818608E-02  0.1093470E+00
          1   -1    0    0  502    0  0.00000000000E+00  0.00000000000E+00  0.23727026264E+03  0.23727026264E+03  0.00000000000E+00 0.  1.
         13   -1    0    0    0    0 -0.00000000000E+00 -0.00000000000E+00 -0.27500000000E+03  0.27500000000E+03  0.00000000000E+00 0.  1.
    9000005    2    1    2  501    0 -0.11439353799E+02 -0.43513229393E+02 -0.59733785391E+02  0.46218595295E+03  0.45609590005E+03 0.  0.
         13    1    3    3    0    0 -0.29382496337E+02  0.16459578602E+03 -0.15916802403E+03  0.23084532428E+03  0.00000000000E+00 0.  1.
          1    1    3    3  501    0  0.17943142538E+02 -0.20810901541E+03  0.99434238640E+02  0.23134062867E+03  0.00000000000E+00 0.  1.
         21    1    1    2  502  501  0.11439353799E+02  0.43513229393E+02  0.22004048035E+02  0.50084309694E+02  0.00000000000E+00 0.  1.
<scales pt_clust_4="550.00000" pt_clust_5="550.00000" pt_clust_6="44.99178"></scales>
<mgrwt>
<rscale>  0 0.30000000E+03</rscale>
<asrwt>  1 0.44991776E+02</asrwt>
<pdfrwt beam="1">  1        1 0.86280096E+00 0.30000000E+03</pdfrwt>
<pdfrwt beam="2">0</pdfrwt>
<totfact> 0.28822996E-04</totfact>
</mgrwt>
<clustering>
<clus scale="   44.992">  1  6  2 -1</clus>
<clus scale="  456.096">  4  5 -1 -1</clus>
<clus scale="  300.000">  1  4  2 -1</clus>
</clustering>
</event>
<event>
 6    1  0.9843879E-012  0.3000000E+03  0.7818608E-02  0.1093470E+00
          1   -1    0    0  502    0  0.00000000000E+00  0.00000000000E+00  0.24353227232E+03  0.24353227232E+03  0.00000000000E+00 0.  1.
         13   -1    0    0    0    0 -0.00000000000E+00 -0.00000000000E+00 -0.27500000000E+03  0.27500000000E+03  0.00000000000E+00 0.  1.
    9000005    2    1    2  501    0  0.35586429154E+02 -0.87432016998E+01 -0.69037442673E+02  0.46605064696E+03  0.45944988794E+03 0.  0.
         13    1    3    3    0    0  0.19819998364E+03 -0.13893165688E+03 -0.86442985146E+02  0.25701678637E+03  0.00000000000E+00 0.  1.
          1    1    3    3  501    0 -0.16261355448E+03  0.13018845518E+03  0.17405542473E+02  0.20903386059E+03  0.00000000000E+00 0.  1.
         21    1    1    2  502  501 -0.35586429154E+02  0.87432016998E+01  0.37569714992E+02  0.52481625361E+02  0.00000000000E+00 0. -1.
<scales pt_clust_4="550.00000" pt_clust_5="550.00000" pt_clust_6="36.64475"></scales>
<mgrwt>
<rscale>  0 0.30000000E+03</rscale>
<asrwt>  1 0.36644747E+02</asrwt>
<pdfrwt beam="1">  1        1 0.88557190E+00 0.30000000E+03</pdfrwt>
<pdfrwt beam="2">0</pdfrwt>
<totfact> 0.16524697E-04</totfact>
</mgrwt>
<clustering>
<clus scale="   36.645">  1  6  2 -1</clus>
<clus scale="  459.450">  4  5 -1 -1</clus>
<clus scale="  300.000">  1  4  2 -1</clus>
</clustering>
</event>
<event>
 6    1  0.9843879E-012  0.3000000E+03  0.7818608E-02  0.1093470E+00
          1   -1    0    0  502    0  0.00000000000E+00  0.00000000000E+00  0.23960935201E+03  0.23960935201E+03  0.00000000000E+00 0.  1.
         13   -1    0    0    0    0 -0.00000000000E+00 -0.00000000000E+00 -0.27500000000E+03  0.27500000000E+03  0.00000000000E+00 0.  1.
    9000005    2    1    2  501    0 -0.22335667165E+02 -0.48230832345E+02 -0.33208519687E+02  0.46141295270E+03  0.45713675407E+03 0.  0.
         13    1    3    3    0    0  0.20401775368E+03  0.18835903982E+02  0.50350385369E+02  0.21098150726E+03  0.00000000000E+00 0.  1.
          1    1    3    3  501    0 -0.22635342085E+03 -0.67066736327E+02 -0.83558905056E+02  0.25043144544E+03  0.00000000000E+00 0.  1.
         21    1    1    2  502  501  0.22335667165E+02  0.48230832345E+02 -0.21821282991E+01  0.53196399317E+02  0.00000000000E+00 0.  1.
<scales pt_clust_4="550.00000" pt_clust_5="550.00000" pt_clust_6="53.15162"></scales>
<mgrwt>
<rscale>  0 0.30000000E+03</rscale>
<asrwt>  1 0.53151625E+02</asrwt>
<pdfrwt beam="1">  1        1 0.87130673E+00 0.30000000E+03</pdfrwt>
<pdfrwt beam="2">0</pdfrwt>
<totfact> 0.22778873E-04</totfact>
</mgrwt>
<clustering>
<clus scale="   53.152">  1  6  2 -1</clus>
<clus scale="  457.137">  4  5 -1 -1</clus>
<clus scale="  300.000">  1  4  2 -1</clus>
</clustering>
</event>
<event>
 6    1  0.9843879E-012  0.3000000E+03  0.7818608E-02  0.1093470E+00
          1   -1    0    0  502    0  0.00000000000E+00  0.00000000000E+00  0.23848212601E+03  0.23848212601E+03  0.00000000000E+00 0.  1.
         13   -1    0    0    0    0 -0.00000000000E+00 -0.00000000000E+00 -0.27500000000E+03  0.27500000000E+03  0.00000000000E+00 0.  1.
    9000005    2    1    2  501    0  0.12843621525E+02 -0.41770341460E+02 -0.62701454011E+02  0.46253803997E+03  0.45618005880E+03 0.  0.
         13    1    3    3    0    0  0.14462349945E+03  0.39180732674E+01 -0.21300360897E+03  0.25749144709E+03  0.00000000000E+00 0.  1.
          3    1    3    3  501    0 -0.13177987793E+03 -0.45688414728E+02  0.15030215495E+03  0.20504659288E+03  0.00000000000E+00 0.  1.
         21    1    1    2  502  501 -0.12843621525E+02  0.41770341460E+02  0.26183580016E+02  0.50944086036E+02  0.00000000000E+00 0.  1.
<scales pt_clust_4="550.00000" pt_clust_5="550.00000" pt_clust_6="43.70034"></scales>
<mgrwt>
<rscale>  0 0.30000000E+03</rscale>
<asrwt>  1 0.43700344E+02</asrwt>
<pdfrwt beam="1">  1        1 0.86720773E+00 0.30000000E+03</pdfrwt>
<pdfrwt beam="2">0</pdfrwt>
<totfact> 0.25986316E-04</totfact>
</mgrwt>
<clustering>
<clus scale="   43.700">  1  6  2 -1</clus>
<clus scale="  456.180">  4  5 -1 -1</clus>
<clus scale="  300.000">  1  4  2 -1</clus>
</clustering>
</event>
<event>
 6    1  0.9843879E-012  0.3000000E+03  0.7818608E-02  0.1093470E+00
          1   -1    0    0  502    0  0.00000000000E+00  0.00000000000E+00  0.24424573687E+03  0.24424573687E+03  0.00000000000E+00 0.  1.
         13   -1    0    0    0    0 -0.00000000000E+00 -0.00000000000E+00 -0.27500000000E+03  0.27500000000E+03  0.00000000000E+00 0.  1.
    9000005    2    1    2  501    0 -0.27805147281E+02  0.44000993912E+02 -0.36552273173E+02  0.46687369661E+03  0.46252109815E+03 0.  0.
         13    1    3    3    0    0 -0.18997458359E+03  0.36182845642E+01 -0.16848599588E+03  0.25395071412E+03  0.00000000000E+00 0.  1.
          1    1    3    3  501    0  0.16216943631E+03  0.40382709348E+02  0.13193372271E+03  0.21292298249E+03  0.00000000000E+00 0.  1.
         21    1    1    2  502  501  0.27805147281E+02 -0.44000993912E+02  0.57980100418E+01  0.52372040260E+02  0.00000000000E+00 0. -1.
<scales pt_clust_4="550.00000" pt_clust_5="550.00000" pt_clust_6="52.05011"></scales>
<mgrwt>
<rscale>  0 0.30000000E+03</rscale>
<asrwt>  1 0.52050107E+02</asrwt>
<pdfrwt beam="1">  1        1 0.88816632E+00 0.30000000E+03</pdfrwt>
<pdfrwt beam="2">0</pdfrwt>
<totfact> 0.14288042E-04</totfact>
</mgrwt>
<clustering>
<clus scale="   52.050">  1  6  2 -1</clus>
<clus scale="  462.521">  4  5 -1 -1</clus>
<clus scale="  300.000">  1  4  2 -1</clus>
</clustering>
</event>
<event>
 6    1  0.9843879E-012  0.3000000E+03  0.7818608E-02  0.1093470E+00
          1   -1    0    0  502    0  0.00000000000E+00  0.00000000000E+00  0.24134725449E+03  0.24134725449E+03  0.00000000000E+00 0.  1.
         13   -1    0    0    0    0 -0.00000000000E+00 -0.00000000000E+00 -0.27500000000E+03  0.27500000000E+03  0.00000000000E+00 0.  1.
    9000005    2    1    2  501    0 -0.21492791732E+02 -0.38666062097E+02 -0.33288909665E+02  0.47210771526E+03  0.46885023072E+03 0.  0.
         13    1    3    3    0    0 -0.23384708265E+03 -0.93118341148E+02 -0.18625552206E+02  0.25239333335E+03  0.00000000000E+00 0.  1.
          3    1    3    3  501    0  0.21235429092E+03  0.54452279051E+02 -0.14663357459E+02  0.21971438191E+03  0.00000000000E+00 0.  1.
         21    1    1    2  502  501  0.21492791732E+02  0.38666062097E+02 -0.36383584787E+00  0.44239539228E+02  0.00000000000E+00 0.  1.
<scales pt_clust_4="550.00000" pt_clust_5="550.00000" pt_clust_6="44.23804"></scales>
<mgrwt>
<rscale>  0 0.30000000E+03</rscale>
<asrwt>  1 0.44238043E+02</asrwt>
<pdfrwt beam="1">  1        1 0.87762638E+00 0.30000000E+03</pdfrwt>
<pdfrwt beam="2">0</pdfrwt>
<totfact> 0.20171913E-04</totfact>
</mgrwt>
<clustering>
<clus scale="   44.238">  1  6  2 -1</clus>
<clus scale="  468.850">  4  5 -1 -1</clus>
<clus scale="  300.000">  1  4  2 -1</clus>
</clustering>
</event>
<event>
 6    1  0.9843879E-012  0.3000000E+03  0.7818608E-02  0.1093470E+00
          1   -1    0    0  502    0  0.00000000000E+00  0.00000000000E+00  0.24806906261E+03  0.24806906261E+03  0.00000000000E+00 0.  1.
         13   -1    0    0    0    0 -0.00000000000E+00 -0.00000000000E+00 -0.27500000000E+03  0.27500000000E+03  0.00000000000E+00 0.  1.
    9000005    2    1    2  501    0 -0.32746065081E+02 -0.76540191546E+01 -0.35656580583E+02  0.48832678812E+03  0.48586085608E+03 0.  0.
         13    1    3    3    0    0 -0.25388331029E+03  0.18635812944E+01 -0.72273111371E+02  0.26397653458E+03  0.00000000000E+00 0.  1.
          3    1    3    3  501    0  0.22113724521E+03 -0.95176004490E+01  0.36616530788E+02  0.22435025354E+03  0.00000000000E+00 0.  1.
         21    1    1    2  502  501  0.32746065081E+02  0.76540191546E+01  0.87256431958E+01  0.34742274489E+02  0.00000000000E+00 0. -1.
<scales pt_clust_4="550.00000" pt_clust_5="550.00000" pt_clust_6="33.62869"></scales>
<mgrwt>
<rscale>  0 0.30000000E+03</rscale>
<asrwt>  1 0.33628690E+02</asrwt>
<pdfrwt beam="1">  1        1 0.90206932E+00 0.30000000E+03</pdfrwt>
<pdfrwt beam="2">0</pdfrwt>
<totfact> 0.10433454E-04</totfact>
</mgrwt>
<clustering>
<clus scale="   33.629">  1  6  2 -1</clus>
<clus scale="  485.861">  4  5 -1 -1</clus>
<clus scale="  300.000">  1  4  2 -1</clus>
</clustering>
</event>
<event>
 6    1  0.9843879E-012  0.3000000E+03  0.7818608E-02  0.1093470E+00
          1   -1    0    0  502    0  0.00000000000E+00  0.00000000000E+00  0.23027726946E+03  0.23027726946E+03  0.00000000000E+00 0.  1.
         13   -1    0    0    0    0 -0.00000000000E+00 -0.00000000000E+00 -0.27500000000E+03  0.27500000000E+03  0.00000000000E+00 0.  1.
    9000005    2    1    2  501    0 -0.35420652885E+02  0.10858122374E+02 -0.40447375714E+02  0.46798383664E+03  0.46475838850E+03 0.  0.
         13    1    3    3    0    0  0.18477010039E+03  0.19018860950E+02  0.95723032991E+02  0.20896077650E+03  0.00000000000E+00 0.  1.
          1    1    3    3  501    0 -0.22019075327E+03 -0.81607385760E+01 -0.13617040871E+03  0.25902306015E+03  0.00000000000E+00 0.  1.
         21    1    1    2  502  501  0.35420652885E+02 -0.10858122374E+02 -0.42753548272E+01  0.37293432816E+02  0.00000000000E+00 0. -1.
<scales pt_clust_4="550.00000" pt_clust_5="550.00000" pt_clust_6="37.04758"></scales>
<mgrwt>
<rscale>  0 0.30000000E+03</rscale>
<asrwt>  1 0.37047575E+02</asrwt>
<pdfrwt beam="1">  1        1 0.83737189E+00 0.30000000E+03</pdfrwt>
<pdfrwt beam="2">0</pdfrwt>
<totfact> 0.51446764E-04</totfact>
</mgrwt>
<clustering>
<clus scale="   37.048">  1  6  2 -1</clus>
<clus scale="  464.758">  4  5 -1 -1</clus>
<clus scale="  300.000">  1  4  2 -1</clus>
</clustering>
</event>
<event>
 6    1  0.9843879E-012  0.3000000E+03  0.7818608E-02  0.1093470E+00
          1   -1    0    0  502    0  0.00000000000E+00  0.00000000000E+00  0.24586573553E+03  0.24586573553E+03  0.00000000000E+00 0.  1.
         13   -1    0    0    0    0 -0.00000000000E+00 -0.00000000000E+00 -0.27500000000E+03  0.27500000000E+03  0.00000000000E+00 0.  1.
    9000005    2    1    2  501    0  0.61928631293E+00  0.39859698210E+02 -0.60075939538E+02  0.47040222086E+03  0.46484400805E+03 0.  0.
         13    1    3    3    0    0 -0.19424027942E+03  0.14770306893E+02 -0.15805676203E+03  0.25085730633E+03  0.00000000000E+00 0.  1.
          3    1    3    3  501    0  0.19485956574E+03  0.25089391317E+02  0.97980822495E+02  0.21954491452E+03  0.00000000000E+00 0.  1.
         21    1    1    2  502  501 -0.61928631293E+00 -0.39859698210E+02  0.30941675064E+02  0.50463514668E+02  0.00000000000E+00 0. -1.
<scales pt_clust_4="550.00000" pt_clust_5="550.00000" pt_clust_6="39.86451"></scales>
<mgrwt>
<rscale>  0 0.30000000E+03</rscale>
<asrwt>  1 0.39864509E+02</asrwt>
<pdfrwt beam="1">  1        1 0.89405722E+00 0.30000000E+03</pdfrwt>
<pdfrwt beam="2">0</pdfrwt>
<totfact> 0.12615553E-04</totfact>
</mgrwt>
<clustering>
<clus scale="   39.865">  1  6  2 -1</clus>
<clus scale="  464.844">  4  5 -1 -1</clus>
<clus scale="  300.000">  1  4  2 -1</clus>
</clustering>
</event>
<event>
 6    1  0.9843879E-012  0.3000000E+03  0.7818608E-02  0.1093470E+00
          1   -1    0    0  502    0  0.00000000000E+00  0.00000000000E+00  0.24936934743E+03  0.24936934743E+03  0.00000000000E+00 0.  1.
         13   -1    0    0    0    0 -0.00000000000E+00 -0.00000000000E+00 -0.27500000000E+03  0.27500000000E+03  0.00000000000E+00 0.  1.
    9000005    2    1    2  501    0  0.40802403275E+02 -0.15961208162E+02 -0.17476073546E+02  0.47980373919E+03  0.47747944324E+03 0.  0.
         13    1    3    3    0    0  0.12107541156E+03  0.19665108185E+03  0.61887036786E+02  0.23908347622E+03  0.00000000000E+00 0.  1.
          3    1    3    3  501    0 -0.80273008283E+02 -0.21261229001E+03 -0.79363110332E+02  0.24072026297E+03  0.00000000000E+00 0.  1.
         21    1    1    2  502  501 -0.40802403275E+02  0.15961208162E+02 -0.81545790239E+01  0.44565608243E+02  0.00000000000E+00 0.  1.
<scales pt_clust_4="550.00000" pt_clust_5="550.00000" pt_clust_6="43.81322"></scales>
<mgrwt>
<rscale>  0 0.30000000E+03</rscale>
<asrwt>  1 0.43813219E+02</asrwt>
<pdfrwt beam="1">  1        1 0.90679763E+00 0.30000000E+03</pdfrwt>
<pdfrwt beam="2">0</pdfrwt>
<totfact> 0.81655853E-05</totfact>
</mgrwt>
<clustering>
<clus scale="   43.813">  1  6  2 -1</clus>
<clus scale="  477.479">  4  5 -1 -1</clus>
<clus scale="  300.000">  1  4  2 -1</clus>
</clustering>
</event>
<event>
 6    1  0.9843879E-012  0.3000000E+03  0.7818608E-02  0.1093470E+00
          1   -1    0    0  502    0  0.00000000000E+00  0.00000000000E+00  0.22718804162E+03  0.22718804162E+03  0.00000000000E+00 0.  1.
         13   -1    0    0    0    0 -0.00000000000E+00 -0.00000000000E+00 -0.27500000000E+03  0.27500000000E+03  0.00000000000E+00 0.  1.
    9000005    2    1    2  501    0  0.17184524414E+02 -0.32704578063E+02 -0.58025693331E+02  0.46385766611E+03  0.45872873903E+03 0.  0.
         13    1    3    3    0    0  0.20526942077E+03 -0.71964209646E+02 -0.13596089075E+03  0.25651461243E+03  0.00000000000E+00 0.  1.
          3    1    3    3  501    0 -0.18808489636E+03  0.39259631583E+02  0.77935197422E+02  0.20734305368E+03  0.00000000000E+00 0.  1.
         21    1    1    2  502  501 -0.17184524414E+02  0.32704578063E+02  0.10213734956E+02  0.38330375518E+02  0.00000000000E+00 0. -1.
<scales pt_clust_4="550.00000" pt_clust_5="550.00000" pt_clust_6="36.94452"></scales>
<mgrwt>
<rscale>  0 0.30000000E+03</rscale>
<asrwt>  1 0.36944517E+02</asrwt>
<pdfrwt beam="1">  1        1 0.82613833E+00 0.30000000E+03</pdfrwt>
<pdfrwt beam="2">0</pdfrwt>
<totfact> 0.63171894E-04</totfact>
</mgrwt>
<clustering>
<clus scale="   36.945">  1  6  2 -1</clus>
<clus scale="  458.729">  4  5 -1 -1</clus>
<clus scale="  300.000">  1  4  2 -1</clus>
</clustering>
</event>
<event>
 6    1  0.9843879E-012  0.3000000E+03  0.7818608E-02  0.1093470E+00
          1   -1    0    0  502    0  0.00000000000E+00  0.00000000000E+00  0.24069712418E+03  0.24069712418E+03  0.00000000000E+00 0.  1.
         13   -1    0    0    0    0 -0.00000000000E+00 -0.00000000000E+00 -0.27500000000E+03  0.27500000000E+03  0.00000000000E+00 0.  1.
    9000005    2    1    2  501    0  0.12389950346E+02 -0.42050000671E+02 -0.48347358635E+02  0.46966495148E+03  0.46510857457E+03 0.  0.
         13    1    3    3    0    0  0.14235015949E+03  0.15674880458E+03  0.41428885949E+02  0.21575474093E+03  0.00000000000E+00 0.  1.
          3    1    3    3  501    0 -0.12996020914E+03 -0.19879880525E+03 -0.89776244584E+02  0.25391021055E+03  0.00000000000E+00 0.  1.
         21    1    1    2  502  501 -0.12389950346E+02  0.42050000671E+02  0.14044482814E+02  0.46032172701E+02  0.00000000000E+00 0.  1.
<scales pt_clust_4="550.00000" pt_clust_5="550.00000" pt_clust_6="43.83735"></scales>
<mgrwt>
<rscale>  0 0.30000000E+03</rscale>
<asrwt>  1 0.43837352E+02</asrwt>
<pdfrwt beam="1">  1        1 0.87526227E+00 0.30000000E+03</pdfrwt>
<pdfrwt beam="2">0</pdfrwt>
<totfact> 0.21446032E-04</totfact>
</mgrwt>
<clustering>
<clus scale="   43.837">  1  6  2 -1</clus>
<clus scale="  465.109">  4  5 -1 -1</clus>
<clus scale="  300.000">  1  4  2 -1</clus>
</clustering>
</event>
<event>
 6    1  0.9843879E-012  0.3000000E+03  0.7818608E-02  0.1093470E+00
          1   -1    0    0  502    0  0.00000000000E+00  0.00000000000E+00  0.22809910155E+03  0.22809910155E+03  0.00000000000E+00 0.  1.
         13   -1    0    0    0    0 -0.00000000000E+00 -0.00000000000E+00 -0.27500000000E+03  0.27500000000E+03  0.00000000000E+00 0.  1.
    9000005    2    1    2  501    0  0.22878192449E+02  0.33970843171E+02 -0.42825545105E+02  0.46194040404E+03  0.45812386938E+03 0.  0.
         13    1    3    3    0    0 -0.15809016931E+03 -0.58547323242E+02 -0.15567469365E+03  0.22946655734E+03  0.00000000000E+00 0.  1.
          3    1    3    3  501    0  0.18096836176E+03  0.92518166414E+02  0.11284914855E+03  0.23247384671E+03  0.00000000000E+00 0.  1.
         21    1    1    2  502  501 -0.22878192449E+02 -0.33970843171E+02 -0.40753533457E+01  0.41158697506E+02  0.00000000000E+00 0.  1.
<scales pt_clust_4="550.00000" pt_clust_5="550.00000" pt_clust_6="40.95646"></scales>
<mgrwt>
<rscale>  0 0.30000000E+03</rscale>
<asrwt>  1 0.40956459E+02</asrwt>
<pdfrwt beam="1">  1        1 0.82945128E+00 0.30000000E+03</pdfrwt>
<pdfrwt beam="2">0</pdfrwt>
<totfact> 0.58020640E-04</totfact>
</mgrwt>
<clustering>
<clus scale="   40.956">  1  6  2 -1</clus>
<clus scale="  458.124">  4  5 -1 -1</clus>
<clus scale="  300.000">  1  4  2 -1</clus>
</clustering>
</event>
<event>
 6    1  0.9843879E-012  0.3000000E+03  0.7818608E-02  0.1093470E+00
          1   -1    0    0  502    0  0.00000000000E+00  0.00000000000E+00  0.24257915774E+03  0.24257915774E+03  0.00000000000E+00 0.  1.
         13   -1    0    0    0    0 -0.00000000000E+00 -0.00000000000E+00 -0.27500000000E+03  0.27500000000E+03  0.00000000000E+00 0.  1.
    9000005    2    1    2  501    0  0.17323359982E+02  0.35049134757E+02 -0.67147483581E+02  0.46528689956E+03  0.45875328195E+03 0.  0.
         13    1    3    3    0    0  0.46640078537E+02  0.23997598061E+03 -0.81715008420E+02  0.25776173261E+03  0.00000000000E+00 0.  1.
          3    1    3    3  501    0 -0.29316718556E+02 -0.20492684585E+03  0.14567524838E+02  0.20752516695E+03  0.00000000000E+00 0.  1.
         21    1    1    2  502  501 -0.17323359982E+02 -0.35049134757E+02  0.34726641318E+02  0.52292258179E+02  0.00000000000E+00 0.  1.
<scales pt_clust_4="550.00000" pt_clust_5="550.00000" pt_clust_6="39.09656"></scales>
<mgrwt>
<rscale>  0 0.30000000E+03</rscale>
<asrwt>  1 0.39096555E+02</asrwt>
<pdfrwt beam="1">  1        1 0.88210603E+00 0.30000000E+03</pdfrwt>
<pdfrwt beam="2">0</pdfrwt>
<totfact> 0.18181794E-04</totfact>
</mgrwt>
<clustering>
<clus scale="   39.097">  1  6  2 -1</clus>
<clus scale="  458.753">  4  5 -1 -1</clus>
<clus scale="  300.000">  1  4  2 -1</clus>
</clustering>
</event>
<event>
 6    1  0.9843879E-012  0.3000000E+03  0.7818608E-02  0.1093470E+00
          1   -1    0    0  502    0  0.00000000000E+00  0.00000000000E+00  0.22391469361E+03  0.22391469361E+03  0.00000000000E+00 0.  1.
         13   -1    0    0    0    0 -0.00000000000E+00 -0.00000000000E+00 -0.27500000000E+03  0.27500000000E+03  0.00000000000E+00 0.  1.
    9000005    2    1    2  501    0  0.29535532016E+02 -0.77949454980E+01 -0.27782512001E+02  0.46049426866E+03  0.45863928601E+03 0.  0.
         13    1    3    3    0    0  0.22845876398E+03 -0.60466929006E+02  0.48099659922E+02  0.24117054884E+03  0.00000000000E+00 0.  1.
          3    1    3    3  501    0 -0.19892323196E+03  0.52671983508E+02 -0.75882171923E+02  0.21932371982E+03  0.00000000000E+00 0.  1.
         21    1    1    2  502  501 -0.29535532016E+02  0.77949454980E+01 -0.23302794390E+02  0.38420424947E+02  0.00000000000E+00 0. -1.
<scales pt_clust_4="550.00000" pt_clust_5="550.00000" pt_clust_6="30.54685"></scales>
<mgrwt>
<rscale>  0 0.30000000E+03</rscale>
<asrwt>  1 0.30546845E+02</asrwt>
<pdfrwt beam="1">  1        1 0.81423525E+00 0.30000000E+03</pdfrwt>
<pdfrwt beam="2">0</pdfrwt>
<totfact> 0.82850282E-04</totfact>
</mgrwt>
<clustering>
<clus scale="   30.547">  1  6  2 -1</clus>
<clus scale="  458.639">  4  5 -1 -1</clus>
<clus scale="  300.000">  1  4  2 -1</clus>
</clustering>
</event>
<event>
 6    1  0.9843879E-012  0.3000000E+03  0.7818608E-02  0.1093470E+00
          1   -1    0    0  502    0  0.00000000000E+00  0.00000000000E+00  0.22231443211E+03  0.22231443211E+03  0.00000000000E+00 0.  1.
         13   -1    0    0    0    0 -0.00000000000E+00 -0.00000000000E+00 -0.27500000000E+03  0.27500000000E+03  0.00000000000E+00 0.  1.
    9000005    2    1    2  501    0 -0.29402756694E+02 -0.98199557632E+01 -0.62882055965E+02  0.46468128943E+03  0.45936216012E+03 0.  0.
         13    1    3    3    0    0  0.65271877866E+02 -0.26058303776E+02  0.18550237935E+03  0.19836982125E+03  0.00000000000E+00 0.  1.
          3    1    3    3  501    0 -0.94674634560E+02  0.16238348013E+02 -0.24838443532E+03  0.26631146818E+03  0.00000000000E+00 0.  1.
         21    1    1    2  502  501  0.29402756694E+02  0.98199557632E+01  0.10196488076E+02  0.32633142685E+02  0.00000000000E+00 0. -1.
<scales pt_clust_4="550.00000" pt_clust_5="550.00000" pt_clust_6="30.99925"></scales>
<mgrwt>
<rscale>  0 0.30000000E+03</rscale>
<asrwt>  1 0.30999252E+02</asrwt>
<pdfrwt beam="1">  1        1 0.80841612E+00 0.30000000E+03</pdfrwt>
<pdfrwt beam="2">0</pdfrwt>
<totfact> 0.91802967E-04</totfact>
</mgrwt>
<clustering>
<clus scale="   30.999">  1  6  2 -1</clus>
<clus scale="  459.362">  4  5 -1 -1</clus>
<clus scale="  300.000">  1  4  2 -1</clus>
</clustering>
</event>
<event>
 6    1  0.9843879E-012  0.3000000E+03  0.7818608E-02  0.1093470E+00
          1   -1    0    0  502    0  0.00000000000E+00  0.00000000000E+00  0.23436737914E+03  0.23436737914E+03  0.00000000000E+00 0.  1.
         13   -1    0    0    0    0 -0.00000000000E+00 -0.00000000000E+00 -0.27500000000E+03  0.27500000000E+03  0.00000000000E+00 0.  1.
    9000005    2    1    2  501    0  0.34922501980E+02 -0.25894719605E+02 -0.58295657309E+02  0.46244083543E+03  0.45668700985E+03 0.  0.
         13    1    3    3    0    0 -0.19910274811E+03 -0.48240124055E+02 -0.92675664256E+02  0.22485060066E+03  0.00000000000E+00 0.  1.
          3    1    3    3  501    0  0.23402525009E+03  0.22345404450E+02  0.34380006947E+02  0.23759023477E+03  0.00000000000E+00 0.  1.
         21    1    1    2  502  501 -0.34922501980E+02  0.25894719605E+02  0.17663036451E+02  0.46926543710E+02  0.00000000000E+00 0.  1.
<scales pt_clust_4="550.00000" pt_clust_5="550.00000" pt_clust_6="43.47548"></scales>
<mgrwt>
<rscale>  0 0.30000000E+03</rscale>
<asrwt>  1 0.43475483E+02</asrwt>
<pdfrwt beam="1">  1        1 0.85224502E+00 0.30000000E+03</pdfrwt>
<pdfrwt beam="2">0</pdfrwt>
<totfact> 0.37239257E-04</totfact>
</mgrwt>
<clustering>
<clus scale="   43.475">  1  6  2 -1</clus>
<clus scale="  456.687">  4  5 -1 -1</clus>
<clus scale="  300.000">  1  4  2 -1</clus>
</clustering>
</event>
<event>
 6    1  0.9843879E-012  0.3000000E+03  0.7818608E-02  0.1093470E+00
          1   -1    0    0  502    0  0.00000000000E+00  0.00000000000E+00  0.25032431123E+03  0.25032431123E+03  0.00000000000E+00 0.  1.
         13   -1    0    0    0    0 -0.00000000000E+00 -0.00000000000E+00 -0.27500000000E+03  0.27500000000E+03  0.00000000000E+00 0.  1.
    9000005    2    1    2  501    0 -0.36311433732E+01  0.30271161557E+02 -0.35730087805E+02  0.49289395258E+03  0.49065087474E+03 0.  0.
         13    1    3    3    0    0 -0.14741678581E+03 -0.20864505721E+02 -0.21243371823E+03  0.25941303163E+03  0.00000000000E+00 0.  1.
          3    1    3    3  501    0  0.14378564244E+03  0.51135667278E+02  0.17670363043E+03  0.23348092095E+03  0.00000000000E+00 0.  1.
         21    1    1    2  502  501  0.36311433732E+01 -0.30271161557E+02  0.11054399031E+02  0.32430358650E+02  0.00000000000E+00 0. -1.
<scales pt_clust_4="550.00000" pt_clust_5="550.00000" pt_clust_6="30.48817"></scales>
<mgrwt>
<rscale>  0 0.30000000E+03</rscale>
<asrwt>  1 0.30488169E+02</asrwt>
<pdfrwt beam="1">  1        1 0.91027022E+00 0.30000000E+03</pdfrwt>
<pdfrwt beam="2">0</pdfrwt>
<totfact> 0.72651080E-05</totfact>
</mgrwt>
<clustering>
<clus scale="   30.488">  1  6  2 -1</clus>
<clus scale="  490.651">  4  5 -1 -1</clus>
<clus scale="  300.000">  1  4  2 -1</clus>
</clustering>
</event>
<event>
 6    1  0.9843879E-012  0.3000000E+03  0.7818608E-02  0.1093470E+00
          1   -1    0    0  502    0  0.00000000000E+00  0.00000000000E+00  0.25352390824E+03  0.25352390824E+03  0.00000000000E+00 0.  1.
         13   -1    0    0    0    0 -0.00000000000E+00 -0.00000000000E+00 -0.27500000000E+03  0.27500000000E+03  0.00000000000E+00 0.  1.
    9000005    2    1    2  501    0 -0.17635819668E+01 -0.32875242054E+02 -0.20932752245E+02  0.49559691356E+03  0.49405893257E+03 0.  0.
         13    1    3    3    0    0 -0.26538330831E+02  0.14960778348E+03 -0.19158770669E+03  0.24452529774E+03  0.00000000000E+00 0.  1.
          3    1    3    3  501    0  0.24774748864E+02 -0.18248302554E+03  0.17065495444E+03  0.25107161581E+03  0.00000000000E+00 0.  1.
         21    1    1    2  502  501  0.17635819668E+01  0.32875242054E+02 -0.54333951110E+00  0.32926994689E+02  0.00000000000E+00 0.  1.
<scales pt_clust_4="550.00000" pt_clust_5="550.00000" pt_clust_6="32.92251"></scales>
<mgrwt>
<rscale>  0 0.30000000E+03</rscale>
<asrwt>  1 0.32922511E+02</asrwt>
<pdfrwt beam="1">  1        1 0.92190512E+00 0.30000000E+03</pdfrwt>
<pdfrwt beam="2">0</pdfrwt>
<totfact> 0.38489774E-05</totfact>
</mgrwt>
<clustering>
<clus scale="   32.923">  1  6  2 -1</clus>
<clus scale="  494.059">  4  5 -1 -1</clus>
<clus scale="  300.000">  1  4  2 -1</clus>
</clustering>
</event>
<event>
 6    1  0.9843879E-012  0.3000000E+03  0.7818608E-02  0.1093470E+00
          1   -1    0    0  502    0  0.00000000000E+00  0.00000000000E+00  0.24102366691E+03  0.24102366691E+03  0.00000000000E+00 0.  1.
         13   -1    0    0    0    0 -0.00000000000E+00 -0.00000000000E+00 -0.27500000000E+03  0.27500000000E+03  0.00000000000E+00 0.  1.
    9000005    2    1    2  501    0 -0.26088074746E+01 -0.43490922306E+02 -0.59410810496E+02  0.46557390140E+03  0.45970767566E+03 0.  0.
         13    1    3    3    0    0  0.18460861608E+03  0.10794719724E+03  0.12643819734E+02  0.21422605981E+03  0.00000000000E+00 0.  1.
          1    1    3    3  501    0 -0.18721742356E+03 -0.15143811954E+03 -0.72054630230E+02  0.25134784159E+03  0.00000000000E+00 0.  1.
         21    1    1    2  502  501  0.26088074746E+01  0.43490922306E+02  0.25434477406E+02  0.50449765514E+02  0.00000000000E+00 0. -1.
<scales pt_clust_4="550.00000" pt_clust_5="550.00000" pt_clust_6="43.56910"></scales>
<mgrwt>
<rscale>  0 0.30000000E+03</rscale>
<asrwt>  1 0.43569097E+02</asrwt>
<pdfrwt beam="1">  1        1 0.87644970E+00 0.30000000E+03</pdfrwt>
<pdfrwt beam="2">0</pdfrwt>
<totfact> 0.20846198E-04</totfact>
</mgrwt>
<clustering>
<clus scale="   43.569">  1  6  2 -1</clus>
<clus scale="  459.708">  4  5 -1 -1</clus>
<clus scale="  300.000">  1  4  2 -1</clus>
</clustering>
</event>
<event>
 6    1  0.9843879E-012  0.3000000E+03  0.7818608E-02  0.1093470E+00
          1   -1    0    0  502    0  0.00000000000E+00  0.00000000000E+00  0.22609469365E+03  0.22609469365E+03  0.00000000000E+00 0.  1.
         13   -1    0    0    0    0 -0.00000000000E+00 -0.00000000000E+00 -0.27500000000E+03  0.27500000000E+03  0.00000000000E+00 0.  1.
    9000005    2    1    2  501    0 -0.23765868019E+02 -0.22349249321E+02 -0.56354474437E+02  0.46763134754E+03  0.46307552838E+03 0.  0.
         13    1    3    3    0    0  0.69187938382E+02 -0.19194345402E+03 -0.14952941476E+03  0.25295909993E+03  0.00000000000E+00 0.  1.
          1    1    3    3  501    0 -0.92953806401E+02  0.16959420470E+03  0.93174940323E+02  0.21467224761E+03  0.00000000000E+00 0.  1.
         21    1    1    2  502  501  0.23765868019E+02  0.22349249321E+02  0.74491680895E+01  0.33463346114E+02  0.00000000000E+00 0. -1.
<scales pt_clust_4="550.00000" pt_clust_5="550.00000" pt_clust_6="32.62369"></scales>
<mgrwt>
<rscale>  0 0.30000000E+03</rscale>
<asrwt>  1 0.32623694E+02</asrwt>
<pdfrwt beam="1">  1        1 0.82216252E+00 0.30000000E+03</pdfrwt>
<pdfrwt beam="2">0</pdfrwt>
<totfact> 0.70159348E-04</totfact>
</mgrwt>
<clustering>
<clus scale="   32.624">  1  6  2 -1</clus>
<clus scale="  463.076">  4  5 -1 -1</clus>
<clus scale="  300.000">  1  4  2 -1</clus>
</clustering>
</event>
<event>
 6    1  0.9843879E-012  0.3000000E+03  0.7818608E-02  0.1093470E+00
          1   -1    0    0  502    0  0.00000000000E+00  0.00000000000E+00  0.23397358793E+03  0.23397358793E+03  0.00000000000E+00 0.  1.
         13   -1    0    0    0    0 -0.00000000000E+00 -0.00000000000E+00 -0.27500000000E+03  0.27500000000E+03  0.00000000000E+00 0.  1.
    9000005    2    1    2  501    0  0.63353400604E+01  0.33589680626E+02 -0.59162200580E+02  0.47027849776E+03  0.46528840121E+03 0.  0.
         13    1    3    3    0    0 -0.12577788849E+03  0.53988045666E+02  0.16185979698E+03  0.21197495179E+03  0.00000000000E+00 0.  1.
          3    1    3    3  501    0  0.13211322855E+03 -0.20398365040E+02 -0.22102199756E+03  0.25830354597E+03  0.00000000000E+00 0.  1.
         21    1    1    2  502  501 -0.63353400604E+01 -0.33589680626E+02  0.18135788506E+02  0.38695090166E+02  0.00000000000E+00 0. -1.
<scales pt_clust_4="550.00000" pt_clust_5="550.00000" pt_clust_6="34.18191"></scales>
<mgrwt>
<rscale>  0 0.30000000E+03</rscale>
<asrwt>  1 0.34181913E+02</asrwt>
<pdfrwt beam="1">  1        1 0.85081305E+00 0.30000000E+03</pdfrwt>
<pdfrwt beam="2">0</pdfrwt>
<totfact> 0.40164536E-04</totfact>
</mgrwt>
<clustering>
<clus scale="   34.182">  1  6  2 -1</clus>
<clus scale="  465.288">  4  5 -1 -1</clus>
<clus scale="  300.000">  1  4  2 -1</clus>
</clustering>
</event>
<event>
 6    1  0.9843879E-012  0.3000000E+03  0.7818608E-02  0.1093470E+00
          1   -1    0    0  502    0  0.00000000000E+00  0.00000000000E+00  0.23532273543E+03  0.23532273543E+03  0.00000000000E+00 0.  1.
         13   -1    0    0    0    0 -0.00000000000E+00 -0.00000000000E+00 -0.27500000000E+03  0.27500000000E+03  0.00000000000E+00 0.  1.
    9000005    2    1    2  501    0  0.26737329556E+02 -0.18997371245E+02 -0.56632194164E+02  0.47340045837E+03  0.46885499215E+03 0.  0.
         13    1    3    3    0    0 -0.14051060139E+03  0.15200494855E+03 -0.10067940523E+03  0.23018487379E+03  0.00000000000E+00 0.  1.
          1    1    3    3  501    0  0.16724793095E+03 -0.17100231979E+03  0.44047211062E+02  0.24321558458E+03  0.00000000000E+00 0.  1.
         21    1    1    2  502  501 -0.26737329556E+02  0.18997371245E+02  0.16954929597E+02  0.36922277065E+02  0.00000000000E+00 0.  1.
<scales pt_clust_4="550.00000" pt_clust_5="550.00000" pt_clust_6="32.79916"></scales>
<mgrwt>
<rscale>  0 0.30000000E+03</rscale>
<asrwt>  1 0.32799160E+02</asrwt>
<pdfrwt beam="1">  1        1 0.85571904E+00 0.30000000E+03</pdfrwt>
<pdfrwt beam="2">0</pdfrwt>
<totfact> 0.36276870E-04</totfact>
</mgrwt>
<clustering>
<clus scale="   32.799">  1  6  2 -1</clus>
<clus scale="  468.855">  4  5 -1 -1</clus>
<clus scale="  300.000">  1  4  2 -1</clus>
</clustering>
</event>
<event>
 6    1  0.9843879E-012  0.3000000E+03  0.7818608E-02  0.1093470E+00
          1   -1    0    0  502    0  0.00000000000E+00  0.00000000000E+00  0.22276628363E+03  0.22276628363E+03  0.00000000000E+00 0.  1.
         13   -1    0    0    0    0 -0.00000000000E+00 -0.00000000000E+00 -0.27500000000E+03  0.27500000000E+03  0.00000000000E+00 0.  1.
    9000005    2    1    2  501    0  0.23070430710E+02  0.21061348750E+02 -0.65661914029E+02  0.46376420021E+03  0.45802829745E+03 0.  0.
         13    1    3    3    0    0  0.19360432025E+03  0.10034223000E+02 -0.17477000738E+03  0.26101316811E+03  0.00000000000E+00 0.  1.
          3    1    3    3  501    0 -0.17053388954E+03  0.11027125750E+02  0.10910809335E+03  0.20275103210E+03  0.00000000000E+00 0.  1.
         21    1    1    2  502  501 -0.23070430710E+02 -0.21061348750E+02  0.13428197662E+02  0.34002083418E+02  0.00000000000E+00 0.  1.
<scales pt_clust_4="550.00000" pt_clust_5="550.00000" pt_clust_6="31.23820"></scales>
<mgrwt>
<rscale>  0 0.30000000E+03</rscale>
<asrwt>  1 0.31238201E+02</asrwt>
<pdfrwt beam="1">  1        1 0.81005921E+00 0.30000000E+03</pdfrwt>
<pdfrwt beam="2">0</pdfrwt>
<totfact> 0.89014754E-04</totfact>
</mgrwt>
<clustering>
<clus scale="   31.238">  1  6  2 -1</clus>
<clus scale="  458.028">  4  5 -1 -1</clus>
<clus scale="  300.000">  1  4  2 -1</clus>
</clustering>
</event>
<event>
 6    1  0.9843879E-012  0.3000000E+03  0.7818608E-02  0.1093470E+00
          1   -1    0    0  502    0  0.00000000000E+00  0.00000000000E+00  0.23202706986E+03  0.23202706986E+03  0.00000000000E+00 0.  1.
         13   -1    0    0    0    0 -0.00000000000E+00 -0.00000000000E+00 -0.27500000000E+03  0.27500000000E+03  0.00000000000E+00 0.  1.
    9000005    2    1    2  501    0 -0.26259999237E+02 -0.18836987217E+02 -0.37981627311E+02  0.47432641618E+03  0.47169749355E+03 0.  0.
         13    1    3    3    0    0  0.21329842125E+03  0.17836375467E+02 -0.79724825737E+02  0.22840840754E+03  0.00000000000E+00 0.  1.
          3    1    3    3  501    0 -0.23955842049E+03 -0.36673362684E+02  0.41743198426E+02  0.24591800864E+03  0.00000000000E+00 0.  1.
         21    1    1    2  502  501  0.26259999237E+02  0.18836987217E+02 -0.49913028279E+01  0.32700653683E+02  0.00000000000E+00 0. -1.
<scales pt_clust_4="550.00000" pt_clust_5="550.00000" pt_clust_6="32.31750"></scales>
<mgrwt>
<rscale>  0 0.30000000E+03</rscale>
<asrwt>  1 0.32317498E+02</asrwt>
<pdfrwt beam="1">  1        1 0.84373480E+00 0.30000000E+03</pdfrwt>
<pdfrwt beam="2">0</pdfrwt>
<totfact> 0.47035783E-04</totfact>
</mgrwt>
<clustering>
<clus scale="   32.317">  1  6  2 -1</clus>
<clus scale="  471.697">  4  5 -1 -1</clus>
<clus scale="  300.000">  1  4  2 -1</clus>
</clustering>
</event>
<event>
 6    1  0.9843879E-012  0.3000000E+03  0.7818608E-02  0.1093470E+00
          1   -1    0    0  502    0  0.00000000000E+00  0.00000000000E+00  0.23755859568E+03  0.23755859568E+03  0.00000000000E+00 0.  1.
         13   -1    0    0    0    0 -0.00000000000E+00 -0.00000000000E+00 -0.27500000000E+03  0.27500000000E+03  0.00000000000E+00 0.  1.
    9000005    2    1    2  501    0 -0.28971215936E+02 -0.89876030922E+01 -0.25761197574E+02  0.48005420225E+03  0.47840180752E+03 0.  0.
         13    1    3    3    0    0 -0.39649387892E+02  0.21668338364E+03  0.74973471564E+02  0.23269031812E+03  0.00000000000E+00 0.  1.
          1    1    3    3  501    0  0.10678171955E+02 -0.22567098673E+03 -0.10073466914E+03  0.24736388414E+03  0.00000000000E+00 0.  1.
         21    1    1    2  502  501  0.28971215936E+02  0.89876030922E+01 -0.11680206750E+02  0.32504393424E+02  0.00000000000E+00 0. -1.
<scales pt_clust_4="550.00000" pt_clust_5="550.00000" pt_clust_6="30.33330"></scales>
<mgrwt>
<rscale>  0 0.30000000E+03</rscale>
<asrwt>  1 0.30333303E+02</asrwt>
<pdfrwt beam="1">  1        1 0.86384944E+00 0.30000000E+03</pdfrwt>
<pdfrwt beam="2">0</pdfrwt>
<totfact> 0.30207209E-04</totfact>
</mgrwt>
<clustering>
<clus scale="   30.333">  1  6  2 -1</clus>
<clus scale="  478.402">  4  5 -1 -1</clus>
<clus scale="  300.000">  1  4  2 -1</clus>
</clustering>
</event>
<event>
 6    1  0.9843879E-012  0.3000000E+03  0.7818608E-02  0.1093470E+00
          1   -1    0    0  502    0  0.00000000000E+00  0.00000000000E+00  0.23442535962E+03  0.23442535962E+03  0.00000000000E+00 0.  1.
         13   -1    0    0    0    0 -0.00000000000E+00 -0.00000000000E+00 -0.27500000000E+03  0.27500000000E+03  0.00000000000E+00 0.  1.
    9000005    2    1    2  501    0  0.23668869873E+02 -0.23235685283E+02 -0.53931785876E+02  0.47366888038E+03  0.46941821252E+03 0.  0.
         13    1    3    3    0    0  0.20804175512E+03 -0.82407530612E+02 -0.13764369506E+03  0.26271307498E+03  0.00000000000E+00 0.  1.
          1    1    3    3  501    0 -0.18437288524E+03  0.59171845329E+02  0.83711909188E+02  0.21095580540E+03  0.00000000000E+00 0.  1.
         21    1    1    2  502  501 -0.23668869873E+02  0.23235685283E+02  0.13357145493E+02  0.35756479236E+02  0.00000000000E+00 0. -1.
<scales pt_clust_4="550.00000" pt_clust_5="550.00000" pt_clust_6="33.16794"></scales>
<mgrwt>
<rscale>  0 0.30000000E+03</rscale>
<asrwt>  1 0.33167943E+02</asrwt>
<pdfrwt beam="1">  1        1 0.85245585E+00 0.30000000E+03</pdfrwt>
<pdfrwt beam="2">0</pdfrwt>
<totfact> 0.38961127E-04</totfact>
</mgrwt>
<clustering>
<clus scale="   33.168">  1  6  2 -1</clus>
<clus scale="  469.418">  4  5 -1 -1</clus>
<clus scale="  300.000">  1  4  2 -1</clus>
</clustering>
</event>
<event>
 6    1  0.9843879E-012  0.3000000E+03  0.7818608E-02  0.1093470E+00
          1   -1    0    0  502    0  0.00000000000E+00  0.00000000000E+00  0.26303586666E+03  0.26303586666E+03  0.00000000000E+00 0.  1.
         13   -1    0    0    0    0 -0.00000000000E+00 -0.00000000000E+00 -0.27500000000E+03  0.27500000000E+03  0.00000000000E+00 0.  1.
    9000005    2    1    2  501    0 -0.31160052514E+02 -0.35427072429E+01 -0.40262219873E+02  0.49579511206E+03  0.49316148182E+03 0.  0.
         13    1    3    3    0    0 -0.22249730842E+03  0.11166517981E+03  0.51701403539E+02  0.25425813608E+03  0.00000000000E+00 0.  1.
          1    1    3    3  501    0  0.19133725590E+03 -0.11520788705E+03 -0.91963623412E+02  0.24153697598E+03  0.00000000000E+00 0.  1.
         21    1    1    2  502  501  0.31160052514E+02  0.35427072429E+01  0.28298086528E+02  0.42240754592E+02  0.00000000000E+00 0. -1.
<scales pt_clust_4="550.00000" pt_clust_5="550.00000" pt_clust_6="31.36080"></scales>
<mgrwt>
<rscale>  0 0.30000000E+03</rscale>
<asrwt>  1 0.31360798E+02</asrwt>
<pdfrwt beam="1">  1        1 0.95649406E+00 0.30000000E+03</pdfrwt>
<pdfrwt beam="2">0</pdfrwt>
<totfact> 0.92112450E-06</totfact>
</mgrwt>
<clustering>
<clus scale="   31.361">  1  6  2 -1</clus>
<clus scale="  493.161">  4  5 -1 -1</clus>
<clus scale="  300.000">  1  4  2 -1</clus>
</clustering>
</event>
<event>
 6    1  0.9843879E-012  0.3000000E+03  0.7818608E-02  0.1093470E+00
          1   -1    0    0  502    0  0.00000000000E+00  0.00000000000E+00  0.22542252238E+03  0.22542252238E+03  0.00000000000E+00 0.  1.
         13   -1    0    0    0    0 -0.00000000000E+00 -0.00000000000E+00 -0.27500000000E+03  0.27500000000E+03  0.00000000000E+00 0.  1.
    9000005    2    1    2  501    0 -0.15928880138E+02 -0.35245122431E+02 -0.43697520153E+02  0.46130063876E+03  0.45759464396E+03 0.  0.
         13    1    3    3    0    0  0.96115175866E+02 -0.19797470792E+03 -0.11861261604E+03  0.25000212937E+03  0.00000000000E+00 0.  1.
          3    1    3    3  501    0 -0.11204405600E+03  0.16272958549E+03  0.74915095890E+02  0.21129850939E+03  0.00000000000E+00 0.  1.
         21    1    1    2  502  501  0.15928880138E+02  0.35245122431E+02 -0.58799574692E+01  0.39121883614E+02  0.00000000000E+00 0.  1.
<scales pt_clust_4="550.00000" pt_clust_5="550.00000" pt_clust_6="38.67750"></scales>
<mgrwt>
<rscale>  0 0.30000000E+03</rscale>
<asrwt>  1 0.38677505E+02</asrwt>
<pdfrwt beam="1">  1        1 0.81971826E+00 0.30000000E+03</pdfrwt>
<pdfrwt beam="2">0</pdfrwt>
<totfact> 0.71401124E-04</totfact>
</mgrwt>
<clustering>
<clus scale="   38.678">  1  6  2 -1</clus>
<clus scale="  457.595">  4  5 -1 -1</clus>
<clus scale="  300.000">  1  4  2 -1</clus>
</clustering>
</event>
<event>
 6    1  0.9843879E-012  0.3000000E+03  0.7818608E-02  0.1093470E+00
          1   -1    0    0  502    0  0.00000000000E+00  0.00000000000E+00  0.23532819385E+03  0.23532819385E+03  0.00000000000E+00 0.  1.
         13   -1    0    0    0    0 -0.00000000000E+00 -0.00000000000E+00 -0.27500000000E+03  0.27500000000E+03  0.00000000000E+00 0.  1.
    9000005    2    1    2  501    0 -0.24771034487E+02  0.29871613076E+02 -0.46733719803E+02  0.47088471477E+03  0.46695016503E+03 0.  0.
         13    1    3    3    0    0 -0.46994914798E+02 -0.21412253878E+03 -0.54003114999E+02  0.22577271771E+03  0.00000000000E+00 0.  1.
          1    1    3    3  501    0  0.22223880311E+02  0.24399415186E+03  0.72693951956E+01  0.24511199706E+03  0.00000000000E+00 0.  1.
         21    1    1    2  502  501  0.24771034487E+02 -0.29871613076E+02  0.70619136509E+01  0.39443479077E+02  0.00000000000E+00 0.  1.
<scales pt_clust_4="550.00000" pt_clust_5="550.00000" pt_clust_6="38.80615"></scales>
<mgrwt>
<rscale>  0 0.30000000E+03</rscale>
<asrwt>  1 0.38806152E+02</asrwt>
<pdfrwt beam="1">  1        1 0.85573889E+00 0.30000000E+03</pdfrwt>
<pdfrwt beam="2">0</pdfrwt>
<totfact> 0.35141187E-04</totfact>
</mgrwt>
<clustering>
<clus scale="   38.806">  1  6  2 -1</clus>
<clus scale="  466.950">  4  5 -1 -1</clus>
<clus scale="  300.000">  1  4  2 -1</clus>
</clustering>
</event>
<event>
 6    1  0.9843879E-012  0.3000000E+03  0.7818608E-02  0.1093470E+00
          1   -1    0    0  502    0  0.00000000000E+00  0.00000000000E+00  0.22426083538E+03  0.22426083538E+03  0.00000000000E+00 0.  1.
         13   -1    0    0    0    0 -0.00000000000E+00 -0.00000000000E+00 -0.27500000000E+03  0.27500000000E+03  0.00000000000E+00 0.  1.
    9000005    2    1    2  501    0  0.20089208205E+02  0.32198510461E+02 -0.50839160727E+02  0.46130915081E+03  0.45692580579E+03 0.  0.
         13    1    3    3    0    0 -0.96900957106E+02  0.21757054008E+03 -0.10345364111E+02  0.23839832625E+03  0.00000000000E+00 0.  1.
          1    1    3    3  501    0  0.11699016531E+03 -0.18537202962E+03 -0.40493796616E+02  0.22291082457E+03  0.00000000000E+00 0.  1.
         21    1    1    2  502  501 -0.20089208205E+02 -0.32198510461E+02  0.99996106462E-01  0.37951684567E+02  0.00000000000E+00 0.  1.
<scales pt_clust_4="550.00000" pt_clust_5="550.00000" pt_clust_6="37.95155"></scales>
<mgrwt>
<rscale>  0 0.30000000E+03</rscale>
<asrwt>  1 0.37951553E+02</asrwt>
<pdfrwt beam="1">  1        1 0.81549395E+00 0.30000000E+03</pdfrwt>
<pdfrwt beam="2">0</pdfrwt>
<totfact> 0.77697374E-04</totfact>
</mgrwt>
<clustering>
<clus scale="   37.952">  1  6  2 -1</clus>
<clus scale="  456.926">  4  5 -1 -1</clus>
<clus scale="  300.000">  1  4  2 -1</clus>
</clustering>
</event>
<event>
 6    1  0.9843879E-012  0.3000000E+03  0.7818608E-02  0.1093470E+00
          1   -1    0    0  502    0  0.00000000000E+00  0.00000000000E+00  0.22915480463E+03  0.22915480463E+03  0.00000000000E+00 0.  1.
         13   -1    0    0    0    0 -0.00000000000E+00 -0.00000000000E+00 -0.27500000000E+03  0.27500000000E+03  0.00000000000E+00 0.  1.
    9000005    2    1    2  501    0 -0.90661510317E+00  0.30082389495E+02 -0.53639304267E+02  0.47306589596E+03  0.46905052484E+03 0.  0.
         13    1    3    3    0    0  0.70176935747E+02  0.58423426321E+02 -0.24794980863E+03  0.26422945834E+03  0.00000000000E+00 0.  1.
          3    1    3    3  501    0 -0.71083550850E+02 -0.28341036826E+02  0.19431050437E+03  0.20883643762E+03  0.00000000000E+00 0.  1.
         21    1    1    2  502  501  0.90661510317E+00 -0.30082389495E+02  0.77941088955E+01  0.31088908668E+02  0.00000000000E+00 0. -1.
<scales pt_clust_4="550.00000" pt_clust_5="550.00000" pt_clust_6="30.09605"></scales>
<mgrwt>
<rscale>  0 0.30000000E+03</rscale>
<asrwt>  1 0.30096048E+02</asrwt>
<pdfrwt beam="1">  1        1 0.83329020E+00 0.30000000E+03</pdfrwt>
<pdfrwt beam="2">0</pdfrwt>
<totfact> 0.57313225E-04</totfact>
</mgrwt>
<clustering>
<clus scale="   30.096">  1  6  2 -1</clus>
<clus scale="  469.051">  4  5 -1 -1</clus>
<clus scale="  300.000">  1  4  2 -1</clus>
</clustering>
</event>
<event>
 6    1  0.9843879E-012  0.3000000E+03  0.7818608E-02  0.1093470E+00
          1   -1    0    0  502    0  0.00000000000E+00  0.00000000000E+00  0.24631608078E+03  0.24631608078E+03  0.00000000000E+00 0.  1.
         13   -1    0    0    0    0 -0.00000000000E+00 -0.00000000000E+00 -0.27500000000E+03  0.27500000000E+03  0.00000000000E+00 0.  1.
    9000005    2    1    2  501    0  0.27579696584E+02 -0.19955003314E+02 -0.37321728573E+02  0.48619552311E+03  0.48356419785E+03 0.  0.
         13    1    3    3    0    0  0.13955941995E+03 -0.34833151213E+02  0.18647430371E+03  0.23550551175E+03  0.00000000000E+00 0.  1.
          1    1    3    3  501    0 -0.11197972337E+03  0.14878147899E+02 -0.22379603228E+03  0.25069001136E+03  0.00000000000E+00 0.  1.
         21    1    1    2  502  501 -0.27579696584E+02  0.19955003314E+02  0.86378093541E+01  0.35120557674E+02  0.00000000000E+00 0.  1.
<scales pt_clust_4="550.00000" pt_clust_5="550.00000" pt_clust_6="34.04177"></scales>
<mgrwt>
<rscale>  0 0.30000000E+03</rscale>
<asrwt>  1 0.34041766E+02</asrwt>
<pdfrwt beam="1">  1        1 0.89569484E+00 0.30000000E+03</pdfrwt>
<pdfrwt beam="2">0</pdfrwt>
<totfact> 0.12450385E-04</totfact>
</mgrwt>
<clustering>
<clus scale="   34.042">  1  6  2 -1</clus>
<clus scale="  483.564">  4  5 -1 -1</clus>
<clus scale="  300.000">  1  4  2 -1</clus>
</clustering>
</event>
<event>
 6    1  0.9843879E-012  0.3000000E+03  0.7818608E-02  0.1093470E+00
          1   -1    0    0  502    0  0.00000000000E+00  0.00000000000E+00  0.22256448087E+03  0.22256448087E+03  0.00000000000E+00 0.  1.
         13   -1    0    0    0    0 -0.00000000000E+00 -0.00000000000E+00 -0.27500000000E+03  0.27500000000E+03  0.00000000000E+00 0.  1.
    9000005    2    1    2  501    0 -0.29543269298E+02 -0.91441490068E+01 -0.37579852137E+02  0.46325542866E+03  0.46069179141E+03 0.  0.
         13    1    3    3    0    0  0.17074515751E+03  0.16444474587E+02  0.11812759433E+03  0.20827495793E+03  0.00000000000E+00 0.  1.
          1    1    3    3  501    0 -0.20028842681E+03 -0.25588623594E+02 -0.15570744647E+03  0.25498047073E+03  0.00000000000E+00 0.  1.
         21    1    1    2  502  501  0.29543269298E+02  0.91441490068E+01 -0.14855666991E+02  0.34309052211E+02  0.00000000000E+00 0.  1.
<scales pt_clust_4="550.00000" pt_clust_5="550.00000" pt_clust_6="30.92606"></scales>
<mgrwt>
<rscale>  0 0.30000000E+03</rscale>
<asrwt>  1 0.30926060E+02</asrwt>
<pdfrwt beam="1">  1        1 0.80932538E+00 0.30000000E+03</pdfrwt>
<pdfrwt beam="2">0</pdfrwt>
<totfact> 0.90366658E-04</totfact>
</mgrwt>
<clustering>
<clus scale="   30.926">  1  6  2 -1</clus>
<clus scale="  460.692">  4  5 -1 -1</clus>
<clus scale="  300.000">  1  4  2 -1</clus>
</clustering>
</event>
<event>
 6    1  0.9843879E-012  0.3000000E+03  0.7818608E-02  0.1093470E+00
          1   -1    0    0  502    0  0.00000000000E+00  0.00000000000E+00  0.24809468505E+03  0.24809468505E+03  0.00000000000E+00 0.  1.
         13   -1    0    0    0    0 -0.00000000000E+00 -0.00000000000E+00 -0.27500000000E+03  0.27500000000E+03  0.00000000000E+00 0.  1.
    9000005    2    1    2  501    0  0.19054513548E+02  0.32252337604E+02 -0.20432281452E+02  0.48507905761E+03  0.48319864056E+03 0.  0.
         13    1    3    3    0    0  0.35236162575E+02 -0.20892536216E+03  0.75631291459E+02  0.22496996767E+03  0.00000000000E+00 0.  1.
          3    1    3    3  501    0 -0.16181649027E+02  0.24117769976E+03 -0.96063572910E+02  0.26010908994E+03  0.00000000000E+00 0.  1.
         21    1    1    2  502  501 -0.19054513548E+02 -0.32252337604E+02 -0.64730334955E+01  0.38015627446E+02  0.00000000000E+00 0.  1.
<scales pt_clust_4="550.00000" pt_clust_5="550.00000" pt_clust_6="37.46050"></scales>
<mgrwt>
<rscale>  0 0.30000000E+03</rscale>
<asrwt>  1 0.37460501E+02</asrwt>
<pdfrwt beam="1">  1        1 0.90216249E+00 0.30000000E+03</pdfrwt>
<pdfrwt beam="2">0</pdfrwt>
<totfact> 0.10193258E-04</totfact>
</mgrwt>
<clustering>
<clus scale="   37.461">  1  6  2 -1</clus>
<clus scale="  483.199">  4  5 -1 -1</clus>
<clus scale="  300.000">  1  4  2 -1</clus>
</clustering>
</event>
<event>
 6    1  0.9843879E-012  0.3000000E+03  0.7818608E-02  0.1093470E+00
          1   -1    0    0  502    0  0.00000000000E+00  0.00000000000E+00  0.24883811047E+03  0.24883811047E+03  0.00000000000E+00 0.  1.
         13   -1    0    0    0    0 -0.00000000000E+00 -0.00000000000E+00 -0.27500000000E+03  0.27500000000E+03  0.00000000000E+00 0.  1.
    9000005    2    1    2  501    0 -0.42422724423E+02 -0.16956887461E+01 -0.43534222210E+02  0.47796479741E+03  0.47408074856E+03 0.  0.
         13    1    3    3    0    0 -0.14638843109E+03 -0.19729276469E+03 -0.68525586483E+02  0.25504855177E+03  0.00000000000E+00 0.  1.
          3    1    3    3  501    0  0.10396570667E+03  0.19559707595E+03  0.24991364273E+02  0.22291624564E+03  0.00000000000E+00 0.  1.
         21    1    1    2  502  501  0.42422724423E+02  0.16956887461E+01  0.17372332675E+02  0.45873313052E+02  0.00000000000E+00 0.  1.
<scales pt_clust_4="550.00000" pt_clust_5="550.00000" pt_clust_6="42.45660"></scales>
<mgrwt>
<rscale>  0 0.30000000E+03</rscale>
<asrwt>  1 0.42456600E+02</asrwt>
<pdfrwt beam="1">  1        1 0.90486586E+00 0.30000000E+03</pdfrwt>
<pdfrwt beam="2">0</pdfrwt>
<totfact> 0.89761251E-05</totfact>
</mgrwt>
<clustering>
<clus scale="   42.457">  1  6  2 -1</clus>
<clus scale="  474.081">  4  5 -1 -1</clus>
<clus scale="  300.000">  1  4  2 -1</clus>
</clustering>
</event>
<event>
 6    1  0.9843879E-012  0.3000000E+03  0.7818608E-02  0.1093470E+00
          1   -1    0    0  502    0  0.00000000000E+00  0.00000000000E+00  0.24692565617E+03  0.24692565617E+03  0.00000000000E+00 0.  1.
         13   -1    0    0    0    0 -0.00000000000E+00 -0.00000000000E+00 -0.27500000000E+03  0.27500000000E+03  0.00000000000E+00 0.  1.
    9000005    2    1    2  501    0  0.20667363568E+02  0.23697026486E+02 -0.52907436655E+02  0.48185856893E+03  0.47791191093E+03 0.  0.
         13    1    3    3    0    0 -0.93197363077E+02  0.19906105674E+03  0.80228047878E+02  0.23398203449E+03  0.00000000000E+00 0.  1.
          3    1    3    3  501    0  0.11386472665E+03 -0.17536403026E+03 -0.13313548453E+03  0.24787653444E+03  0.00000000000E+00 0.  1.
         21    1    1    2  502  501 -0.20667363568E+02 -0.23697026486E+02  0.24833092829E+02  0.40067087249E+02  0.00000000000E+00 0.  1.
<scales pt_clust_4="550.00000" pt_clust_5="550.00000" pt_clust_6="31.44343"></scales>
<mgrwt>
<rscale>  0 0.30000000E+03</rscale>
<asrwt>  1 0.31443425E+02</asrwt>
<pdfrwt beam="1">  1        1 0.89791148E+00 0.30000000E+03</pdfrwt>
<pdfrwt beam="2">0</pdfrwt>
<totfact> 0.11935200E-04</totfact>
</mgrwt>
<clustering>
<clus scale="   31.443">  1  6  2 -1</clus>
<clus scale="  477.912">  4  5 -1 -1</clus>
<clus scale="  300.000">  1  4  2 -1</clus>
</clustering>
</event>
<event>
 6    1  0.9843879E-012  0.3000000E+03  0.7818608E-02  0.1093470E+00
          1   -1    0    0  502    0  0.00000000000E+00  0.00000000000E+00  0.23085523418E+03  0.23085523418E+03  0.00000000000E+00 0.  1.
         13   -1    0    0    0    0 -0.00000000000E+00 -0.00000000000E+00 -0.27500000000E+03  0.27500000000E+03  0.00000000000E+00 0.  1.
    9000005    2    1    2  501    0  0.40632195008E+02 -0.17364327037E+02 -0.31406534312E+02  0.45986873979E+03  0.45666223000E+03 0.  0.
         13    1    3    3    0    0 -0.47755637257E+01 -0.16003327160E+03  0.15359937740E+03  0.22186983293E+03  0.00000000000E+00 0.  1.
          3    1    3    3  501    0  0.45407758734E+02  0.14266894456E+03 -0.18500591171E+03  0.23799890686E+03  0.00000000000E+00 0.  1.
         21    1    1    2  502  501 -0.40632195008E+02  0.17364327037E+02 -0.12738231507E+02  0.45986494393E+02  0.00000000000E+00 0.  1.
<scales pt_clust_4="550.00000" pt_clust_5="550.00000" pt_clust_6="44.18707"></scales>
<mgrwt>
<rscale>  0 0.30000000E+03</rscale>
<asrwt>  1 0.44187069E+02</asrwt>
<pdfrwt beam="1">  1        1 0.83947358E+00 0.30000000E+03</pdfrwt>
<pdfrwt beam="2">0</pdfrwt>
<totfact> 0.48069480E-04</totfact>
</mgrwt>
<clustering>
<clus scale="   44.187">  1  6  2 -1</clus>
<clus scale="  456.662">  4  5 -1 -1</clus>
<clus scale="  300.000">  1  4  2 -1</clus>
</clustering>
</event>
<event>
 6    1  0.9843879E-012  0.3000000E+03  0.7818608E-02  0.1093470E+00
          1   -1    0    0  502    0  0.00000000000E+00  0.00000000000E+00  0.23236628735E+03  0.23236628735E+03  0.00000000000E+00 0.  1.
         13   -1    0    0    0    0 -0.00000000000E+00 -0.00000000000E+00 -0.27500000000E+03  0.27500000000E+03  0.00000000000E+00 0.  1.
    9000005    2    1    2  501    0 -0.38348113768E+02 -0.71658266519E+01 -0.47537208342E+02  0.46804744745E+03  0.46398997833E+03 0.  0.
         13    1    3    3    0    0  0.21288008470E+03 -0.20014688626E+02 -0.29511501912E+02  0.21584588708E+03  0.00000000000E+00 0.  1.
          3    1    3    3  501    0 -0.25122819847E+03  0.12848861974E+02 -0.18025706430E+02  0.25220156037E+03  0.00000000000E+00 0.  1.
         21    1    1    2  502  501  0.38348113768E+02  0.71658266519E+01  0.49034956968E+01  0.39318839901E+02  0.00000000000E+00 0.  1.
<scales pt_clust_4="550.00000" pt_clust_5="550.00000" pt_clust_6="39.01188"></scales>
<mgrwt>
<rscale>  0 0.30000000E+03</rscale>
<asrwt>  1 0.39011882E+02</asrwt>
<pdfrwt beam="1">  1        1 0.84496832E+00 0.30000000E+03</pdfrwt>
<pdfrwt beam="2">0</pdfrwt>
<totfact> 0.44311695E-04</totfact>
</mgrwt>
<clustering>
<clus scale="   39.012">  1  6  2 -1</clus>
<clus scale="  463.990">  4  5 -1 -1</clus>
<clus scale="  300.000">  1  4  2 -1</clus>
</clustering>
</event>
<event>
 6    1  0.9843879E-012  0.3000000E+03  0.7818608E-02  0.1093470E+00
          1   -1    0    0  502    0  0.00000000000E+00  0.00000000000E+00  0.22390882335E+03  0.22390882335E+03  0.00000000000E+00 0.  1.
         13   -1    0    0    0    0 -0.00000000000E+00 -0.00000000000E+00 -0.27500000000E+03  0.27500000000E+03  0.00000000000E+00 0.  1.
    9000005    2    1    2  501    0  0.33741533019E+02 -0.48277027601E+00 -0.52011635574E+02  0.46515128549E+03  0.46100085037E+03 0.  0.
         13    1    3    3    0    0  0.10270712279E+03  0.71118216865E+02  0.17633478801E+03  0.21610301086E+03  0.00000000000E+00 0.  1.
          3    1    3    3  501    0 -0.68965589767E+02 -0.71600987141E+02 -0.22834642359E+03  0.24904827463E+03  0.00000000000E+00 0.  1.
         21    1    1    2  502  501 -0.33741533019E+02  0.48277027601E+00  0.92045892640E+00  0.33757537858E+02  0.00000000000E+00 0.  1.
<scales pt_clust_4="550.00000" pt_clust_5="550.00000" pt_clust_6="33.74499"></scales>
<mgrwt>
<rscale>  0 0.30000000E+03</rscale>
<asrwt>  1 0.33744987E+02</asrwt>
<pdfrwt beam="1">  1        1 0.81421390E+00 0.30000000E+03</pdfrwt>
<pdfrwt beam="2">0</pdfrwt>
<totfact> 0.81328957E-04</totfact>
</mgrwt>
<clustering>
<clus scale="   33.745">  1  6  2 -1</clus>
<clus scale="  461.001">  4  5 -1 -1</clus>
<clus scale="  300.000">  1  4  2 -1</clus>
</clustering>
</event>
<event>
 6    1  0.9843879E-012  0.3000000E+03  0.7818608E-02  0.1093470E+00
          1   -1    0    0  502    0  0.00000000000E+00  0.00000000000E+00  0.26057029050E+03  0.26057029050E+03  0.00000000000E+00 0.  1.
         13   -1    0    0    0    0 -0.00000000000E+00 -0.00000000000E+00 -0.27500000000E+03  0.27500000000E+03  0.00000000000E+00 0.  1.
    9000005    2    1    2  501    0 -0.46831402222E+02 -0.15307521432E+02 -0.12753446894E+02  0.48627211302E+03  0.48360150646E+03 0.  0.
         13    1    3    3    0    0  0.17457771576E+03  0.42632073118E+02  0.12522297345E+03  0.21903348050E+03  0.00000000000E+00 0.  1.
          1    1    3    3  501    0 -0.22140911799E+03 -0.57939594551E+02 -0.13797642034E+03  0.26723863253E+03  0.00000000000E+00 0.  1.
         21    1    1    2  502  501  0.46831402222E+02  0.15307521432E+02 -0.16762626052E+01  0.49298177480E+02  0.00000000000E+00 0. -1.
<scales pt_clust_4="550.00000" pt_clust_5="550.00000" pt_clust_6="49.26970"></scales>
<mgrwt>
<rscale>  0 0.30000000E+03</rscale>
<asrwt>  1 0.49269695E+02</asrwt>
<pdfrwt beam="1">  1        1 0.94752833E+00 0.30000000E+03</pdfrwt>
<pdfrwt beam="2">0</pdfrwt>
<totfact> 0.13024603E-05</totfact>
</mgrwt>
<clustering>
<clus scale="   49.270">  1  6  2 -1</clus>
<clus scale="  483.602">  4  5 -1 -1</clus>
<clus scale="  300.000">  1  4  2 -1</clus>
</clustering>
</event>
<event>
 6    1  0.9843879E-012  0.3000000E+03  0.7818608E-02  0.1093470E+00
          1   -1    0    0  502    0  0.00000000000E+00  0.00000000000E+00  0.22998097809E+03  0.22998097809E+03  0.00000000000E+00 0.  1.
         13   -1    0    0    0    0 -0.00000000000E+00 -0.00000000000E+00 -0.27500000000E+03  0.27500000000E+03  0.00000000000E+00 0.  1.
    9000005    2    1    2  501    0  0.55593515114E+01 -0.37564614737E+02 -0.44724120355E+02  0.46700607010E+03  0.46330596359E+03 0.  0.
         13    1    3    3    0    0  0.13834777749E+03  0.12982914232E+03  0.94525702206E+02  0.21196891779E+03  0.00000000000E+00 0.  1.
          3    1    3    3  501    0 -0.13278842597E+03 -0.16739375706E+03 -0.13924982256E+03  0.25503715231E+03  0.00000000000E+00 0.  1.
         21    1    1    2  502  501 -0.55593515114E+01  0.37564614737E+02 -0.29490155873E+00  0.37974907985E+02  0.00000000000E+00 0.  1.
<scales pt_clust_4="550.00000" pt_clust_5="550.00000" pt_clust_6="37.97376"></scales>
<mgrwt>
<rscale>  0 0.30000000E+03</rscale>
<asrwt>  1 0.37973763E+02</asrwt>
<pdfrwt beam="1">  1        1 0.83629447E+00 0.30000000E+03</pdfrwt>
<pdfrwt beam="2">0</pdfrwt>
<totfact> 0.52144017E-04</totfact>
</mgrwt>
<clustering>
<clus scale="   37.974">  1  6  2 -1</clus>
<clus scale="  463.306">  4  5 -1 -1</clus>
<clus scale="  300.000">  1  4  2 -1</clus>
</clustering>
</event>
<event>
 6    1  0.9843879E-012  0.3000000E+03  0.7818608E-02  0.1093470E+00
          1   -1    0    0  502    0  0.00000000000E+00  0.00000000000E+00  0.22551553671E+03  0.22551553671E+03  0.00000000000E+00 0.  1.
         13   -1    0    0    0    0 -0.00000000000E+00 -0.00000000000E+00 -0.27500000000E+03  0.27500000000E+03  0.00000000000E+00 0.  1.
    9000005    2    1    2  501    0  0.13885856872E+02  0.33923486256E+02 -0.38189288018E+02  0.46215929960E+03  0.45911782425E+03 0.  0.
         13    1    3    3    0    0 -0.65322643942E+02 -0.19565855055E+03  0.33409995632E+02  0.20896302071E+03  0.00000000000E+00 0.  1.
          1    1    3    3  501    0  0.79208500814E+02  0.22958203681E+03 -0.71599283650E+02  0.25319627889E+03  0.00000000000E+00 0.  1.
         21    1    1    2  502  501 -0.13885856872E+02 -0.33923486256E+02 -0.11295175273E+02  0.38356237110E+02  0.00000000000E+00 0. -1.
<scales pt_clust_4="550.00000" pt_clust_5="550.00000" pt_clust_6="36.65544"></scales>
<mgrwt>
<rscale>  0 0.30000000E+03</rscale>
<asrwt>  1 0.36655440E+02</asrwt>
<pdfrwt beam="1">  1        1 0.82005650E+00 0.30000000E+03</pdfrwt>
<pdfrwt beam="2">0</pdfrwt>
<totfact> 0.71628385E-04</totfact>
</mgrwt>
<clustering>
<clus scale="   36.655">  1  6  2 -1</clus>
<clus scale="  459.118">  4  5 -1 -1</clus>
<clus scale="  300.000">  1  4  2 -1</clus>
</clustering>
</event>
<event>
 6    1  0.9843879E-012  0.3000000E+03  0.7818608E-02  0.1093470E+00
          1   -1    0    0  502    0  0.00000000000E+00  0.00000000000E+00  0.22261397026E+03  0.22261397026E+03  0.00000000000E+00 0.  1.
         13   -1    0    0    0    0 -0.00000000000E+00 -0.00000000000E+00 -0.27500000000E+03  0.27500000000E+03  0.00000000000E+00 0.  1.
    9000005    2    1    2  501    0  0.92505601370E+01 -0.29090721562E+02 -0.56410183244E+02  0.46682376476E+03  0.46239644854E+03 0.  0.
         13    1    3    3    0    0 -0.77933663646E+02  0.14252383157E+03 -0.17655667509E+03  0.23991448062E+03  0.00000000000E+00 0.  1.
          1    1    3    3  501    0  0.87184223783E+02 -0.17161455313E+03  0.12014649185E+03  0.22690928413E+03  0.00000000000E+00 0.  1.
         21    1    1    2  502  501 -0.92505601370E+01  0.29090721562E+02  0.40241535086E+01  0.30790205510E+02  0.00000000000E+00 0.  1.
<scales pt_clust_4="550.00000" pt_clust_5="550.00000" pt_clust_6="30.52610"></scales>
<mgrwt>
<rscale>  0 0.30000000E+03</rscale>
<asrwt>  1 0.30526103E+02</asrwt>
<pdfrwt beam="1">  1        1 0.80950535E+00 0.30000000E+03</pdfrwt>
<pdfrwt beam="2">0</pdfrwt>
<totfact> 0.90301260E-04</totfact>
</mgrwt>
<clustering>
<clus scale="   30.526">  1  6  2 -1</clus>
<clus scale="  462.396">  4  5 -1 -1</clus>
<clus scale="  300.000">  1  4  2 -1</clus>
</clustering>
</event>
<event>
 6    1  0.9843879E-012  0.3000000E+03  0.7818608E-02  0.1093470E+00
          1   -1    0    0  502    0  0.00000000000E+00  0.00000000000E+00  0.23227876227E+03  0.23227876227E+03  0.00000000000E+00 0.  1.
         13   -1    0    0    0    0 -0.00000000000E+00 -0.00000000000E+00 -0.27500000000E+03  0.27500000000E+03  0.00000000000E+00 0.  1.
    9000005    2    1    2  501    0  0.34205127245E+02 -0.11342359692E+01 -0.58332341343E+02  0.46966249216E+03  0.46476759490E+03 0.  0.
         13    1    3    3    0    0 -0.69042473082E+02 -0.21004708371E+03  0.24249378773E+02  0.22242902876E+03  0.00000000000E+00 0.  1.
          3    1    3    3  501    0  0.10324760033E+03  0.20891284774E+03 -0.82581720116E+02  0.24723346340E+03  0.00000000000E+00 0.  1.
         21    1    1    2  502  501 -0.34205127245E+02  0.11342359692E+01  0.15611103611E+02  0.37616270110E+02  0.00000000000E+00 0.  1.
<scales pt_clust_4="550.00000" pt_clust_5="550.00000" pt_clust_6="34.22393"></scales>
<mgrwt>
<rscale>  0 0.30000000E+03</rscale>
<asrwt>  1 0.34223928E+02</asrwt>
<pdfrwt beam="1">  1        1 0.84465004E+00 0.30000000E+03</pdfrwt>
<pdfrwt beam="2">0</pdfrwt>
<totfact> 0.45692369E-04</totfact>
</mgrwt>
<clustering>
<clus scale="   34.224">  1  6  2 -1</clus>
<clus scale="  464.768">  4  5 -1 -1</clus>
<clus scale="  300.000">  1  4  2 -1</clus>
</clustering>
</event>
<event>
 6    1  0.9843879E-012  0.3000000E+03  0.7818608E-02  0.1093470E+00
          1   -1    0    0  502    0  0.00000000000E+00  0.00000000000E+00  0.23946853692E+03  0.23946853692E+03  0.00000000000E+00 0.  1.
         13   -1    0    0    0    0 -0.00000000000E+00 -0.00000000000E+00 -0.27500000000E+03  0.27500000000E+03  0.00000000000E+00 0.  1.
    9000005    2    1    2  501    0  0.36277038235E+02  0.58702691497E+01 -0.47201273777E+02  0.47591120241E+03  0.47213666323E+03 0.  0.
         13    1    3    3    0    0  0.11575416769E+03  0.95542420968E+02  0.17066072511E+03  0.22727178583E+03  0.00000000000E+00 0.  1.
          3    1    3    3  501    0 -0.79477129450E+02 -0.89672151818E+02 -0.21786199888E+03  0.24863941657E+03  0.00000000000E+00 0.  1.
         21    1    1    2  502  501 -0.36277038235E+02 -0.58702691497E+01  0.11669810694E+02  0.38557334512E+02  0.00000000000E+00 0.  1.
<scales pt_clust_4="550.00000" pt_clust_5="550.00000" pt_clust_6="36.74893"></scales>
<mgrwt>
<rscale>  0 0.30000000E+03</rscale>
<asrwt>  1 0.36748926E+02</asrwt>
<pdfrwt beam="1">  1        1 0.87079468E+00 0.30000000E+03</pdfrwt>
<pdfrwt beam="2">0</pdfrwt>
<totfact> 0.24631484E-04</totfact>
</mgrwt>
<clustering>
<clus scale="   36.749">  1  6  2 -1</clus>
<clus scale="  472.137">  4  5 -1 -1</clus>
<clus scale="  300.000">  1  4  2 -1</clus>
</clustering>
</event>
<event>
 6    1  0.9843879E-012  0.3000000E+03  0.7818608E-02  0.1093470E+00
          1   -1    0    0  502    0  0.00000000000E+00  0.00000000000E+00  0.24031394050E+03  0.24031394050E+03  0.00000000000E+00 0.  1.
         13   -1    0    0    0    0 -0.00000000000E+00 -0.00000000000E+00 -0.27500000000E+03  0.27500000000E+03  0.00000000000E+00 0.  1.
    9000005    2    1    2  501    0 -0.21146114230E+02  0.27495383888E+02 -0.55667335793E+02  0.47477546202E+03  0.47022306705E+03 0.  0.
         13    1    3    3    0    0 -0.20946981245E+03  0.51504370623E+02 -0.15004585763E+03  0.26276236776E+03  0.00000000000E+00 0.  1.
          3    1    3    3  501    0  0.18832369822E+03 -0.24008986735E+02  0.94378521837E+02  0.21201309426E+03  0.00000000000E+00 0.  1.
         21    1    1    2  502  501  0.21146114230E+02 -0.27495383888E+02  0.20981276288E+02  0.40538478472E+02  0.00000000000E+00 0. -1.
<scales pt_clust_4="550.00000" pt_clust_5="550.00000" pt_clust_6="34.68651"></scales>
<mgrwt>
<rscale>  0 0.30000000E+03</rscale>
<asrwt>  1 0.34686514E+02</asrwt>
<pdfrwt beam="1">  1        1 0.87386887E+00 0.30000000E+03</pdfrwt>
<pdfrwt beam="2">0</pdfrwt>
<totfact> 0.23154016E-04</totfact>
</mgrwt>
<clustering>
<clus scale="   34.687">  1  6  2 -1</clus>
<clus scale="  470.223">  4  5 -1 -1</clus>
<clus scale="  300.000">  1  4  2 -1</clus>
</clustering>
</event>
<event>
 6    1  0.9843879E-012  0.3000000E+03  0.7818608E-02  0.1093470E+00
          1   -1    0    0  502    0  0.00000000000E+00  0.00000000000E+00  0.22943141403E+03  0.22943141403E+03  0.00000000000E+00 0.  1.
         13   -1    0    0    0    0 -0.00000000000E+00 -0.00000000000E+00 -0.27500000000E+03  0.27500000000E+03  0.00000000000E+00 0.  1.
    9000005    2    1    2  501    0  0.31467671873E+02 -0.24844985566E+02 -0.35931192120E+02  0.46319590699E+03  0.46005642046E+03 0.  0.
         13    1    3    3    0    0 -0.12213759237E+03  0.11103866873E+03  0.12124416672E+03  0.20481046210E+03  0.00000000000E+00 0.  1.
          3    1    3    3  501    0  0.15360526424E+03 -0.13588365429E+03 -0.15717535883E+03  0.25838544489E+03  0.00000000000E+00 0.  1.
         21    1    1    2  502  501 -0.31467671873E+02  0.24844985566E+02 -0.96373938479E+01  0.41235507042E+02  0.00000000000E+00 0. -1.
<scales pt_clust_4="550.00000" pt_clust_5="550.00000" pt_clust_6="40.09351"></scales>
<mgrwt>
<rscale>  0 0.30000000E+03</rscale>
<asrwt>  1 0.40093507E+02</asrwt>
<pdfrwt beam="1">  1        1 0.83429605E+00 0.30000000E+03</pdfrwt>
<pdfrwt beam="2">0</pdfrwt>
<totfact> 0.53388676E-04</totfact>
</mgrwt>
<clustering>
<clus scale="   40.094">  1  6  2 -1</clus>
<clus scale="  460.056">  4  5 -1 -1</clus>
<clus scale="  300.000">  1  4  2 -1</clus>
</clustering>
</event>
<event>
 6    1  0.9843879E-012  0.3000000E+03  0.7818608E-02  0.1093470E+00
          1   -1    0    0  502    0  0.00000000000E+00  0.00000000000E+00  0.23737575167E+03  0.23737575167E+03  0.00000000000E+00 0.  1.
         13   -1    0    0    0    0 -0.00000000000E+00 -0.00000000000E+00 -0.27500000000E+03  0.27500000000E+03  0.00000000000E+00 0.  1.
    9000005    2    1    2  501    0  0.23951263702E+02 -0.20692314104E+02 -0.49243285712E+02  0.47865873927E+03  0.47506573502E+03 0.  0.
         13    1    3    3    0    0 -0.18942020146E+03  0.10480583861E+03 -0.76544255553E+02  0.22961554736E+03  0.00000000000E+00 0.  1.
          1    1    3    3  501    0  0.21337146517E+03 -0.12549815272E+03  0.27300969841E+02  0.24904319191E+03  0.00000000000E+00 0.  1.
         21    1    1    2  502  501 -0.23951263702E+02  0.20692314104E+02  0.11619037387E+02  0.33717012408E+02  0.00000000000E+00 0.  1.
<scales pt_clust_4="550.00000" pt_clust_5="550.00000" pt_clust_6="31.65178"></scales>
<mgrwt>
<rscale>  0 0.30000000E+03</rscale>
<asrwt>  1 0.31651776E+02</asrwt>
<pdfrwt beam="1">  1        1 0.86318455E+00 0.30000000E+03</pdfrwt>
<pdfrwt beam="2">0</pdfrwt>
<totfact> 0.30462623E-04</totfact>
</mgrwt>
<clustering>
<clus scale="   31.652">  1  6  2 -1</clus>
<clus scale="  475.066">  4  5 -1 -1</clus>
<clus scale="  300.000">  1  4  2 -1</clus>
</clustering>
</event>
<event>
 6    1  0.9843879E-012  0.3000000E+03  0.7818608E-02  0.1093470E+00
          1   -1    0    0  502    0  0.00000000000E+00  0.00000000000E+00  0.22690959190E+03  0.22690959190E+03  0.00000000000E+00 0.  1.
         13   -1    0    0    0    0 -0.00000000000E+00 -0.00000000000E+00 -0.27500000000E+03  0.27500000000E+03  0.00000000000E+00 0.  1.
    9000005    2    1    2  501    0 -0.15694764590E+02 -0.30531207712E+02 -0.57545135362E+02  0.46630239954E+03  0.46146289660E+03 0.  0.
         13    1    3    3    0    0  0.13791041464E+03  0.16070423285E+03 -0.63051651347E+02  0.22095394014E+03  0.00000000000E+00 0.  1.
          3    1    3    3  501    0 -0.15360517923E+03 -0.19123544057E+03  0.55065159854E+01  0.24534845941E+03  0.00000000000E+00 0.  1.
         21    1    1    2  502  501  0.15694764590E+02  0.30531207712E+02  0.94547272618E+01  0.35607192356E+02  0.00000000000E+00 0.  1.
<scales pt_clust_4="550.00000" pt_clust_5="550.00000" pt_clust_6="34.32900"></scales>
<mgrwt>
<rscale>  0 0.30000000E+03</rscale>
<asrwt>  1 0.34329001E+02</asrwt>
<pdfrwt beam="1">  1        1 0.82512579E+00 0.30000000E+03</pdfrwt>
<pdfrwt beam="2">0</pdfrwt>
<totfact> 0.65385350E-04</totfact>
</mgrwt>
<clustering>
<clus scale="   34.329">  1  6  2 -1</clus>
<clus scale="  461.463">  4  5 -1 -1</clus>
<clus scale="  300.000">  1  4  2 -1</clus>
</clustering>
</event>
<event>
 6    1  0.9843879E-012  0.3000000E+03  0.7818608E-02  0.1093470E+00
          1   -1    0    0  502    0  0.00000000000E+00  0.00000000000E+00  0.23977565497E+03  0.23977565497E+03  0.00000000000E+00 0.  1.
         13   -1    0    0    0    0 -0.00000000000E+00 -0.00000000000E+00 -0.27500000000E+03  0.27500000000E+03  0.00000000000E+00 0.  1.
    9000005    2    1    2  501    0  0.34748820671E+02  0.13735867383E+02 -0.11475622474E+02  0.47050200125E+03  0.46887555777E+03 0.  0.
         13    1    3    3    0    0  0.72505611080E+02 -0.23886636408E+02  0.22005240812E+03  0.23291779099E+03  0.00000000000E+00 0.  1.
          1    1    3    3  501    0 -0.37756790410E+02  0.37622503791E+02 -0.23152803060E+03  0.23758421026E+03  0.00000000000E+00 0.  1.
         21    1    1    2  502  501 -0.34748820671E+02 -0.13735867383E+02 -0.23748722555E+02  0.44273653721E+02  0.00000000000E+00 0.  1.
<scales pt_clust_4="550.00000" pt_clust_5="550.00000" pt_clust_6="37.36517"></scales>
<mgrwt>
<rscale>  0 0.30000000E+03</rscale>
<asrwt>  1 0.37365171E+02</asrwt>
<pdfrwt beam="1">  1        1 0.87191147E+00 0.30000000E+03</pdfrwt>
<pdfrwt beam="2">0</pdfrwt>
<totfact> 0.23919546E-04</totfact>
</mgrwt>
<clustering>
<clus scale="   37.365">  1  6  2 -1</clus>
<clus scale="  468.876">  4  5 -1 -1</clus>
<clus scale="  300.000">  1  4  2 -1</clus>
</clustering>
</event>
<event>
 6    1  0.9843879E-012  0.3000000E+03  0.7818608E-02  0.1093470E+00
          1   -1    0    0  502    0  0.00000000000E+00  0.00000000000E+00  0.23535206051E+03  0.23535206051E+03  0.00000000000E+00 0.  1.
         13   -1    0    0    0    0 -0.00000000000E+00 -0.00000000000E+00 -0.27500000000E+03  0.27500000000E+03  0.00000000000E+00 0.  1.
    9000005    2    1    2  501    0 -0.35147381210E+02  0.68891500820E+01 -0.64195548561E+02  0.46693105285E+03  0.46110816613E+03 0.  0.
         13    1    3    3    0    0 -0.14940438353E+03  0.15287055586E+02 -0.22437431588E+03  0.26999851391E+03  0.00000000000E+00 0.  1.
          3    1    3    3  501    0  0.11425700232E+03 -0.83979055041E+01  0.16017876732E+03  0.19693253895E+03  0.00000000000E+00 0.  1.
         21    1    1    2  502  501  0.35147381210E+02 -0.68891500820E+01  0.24547609069E+02  0.43421007655E+02  0.00000000000E+00 0. -1.
<scales pt_clust_4="550.00000" pt_clust_5="550.00000" pt_clust_6="35.81618"></scales>
<mgrwt>
<rscale>  0 0.30000000E+03</rscale>
<asrwt>  1 0.35816181E+02</asrwt>
<pdfrwt beam="1">  1        1 0.85582567E+00 0.30000000E+03</pdfrwt>
<pdfrwt beam="2">0</pdfrwt>
<totfact> 0.35594387E-04</totfact>
</mgrwt>
<clustering>
<clus scale="   35.816">  1  6  2 -1</clus>
<clus scale="  461.108">  4  5 -1 -1</clus>
<clus scale="  300.000">  1  4  2 -1</clus>
</clustering>
</event>
<event>
 6    1  0.9843879E-012  0.3000000E+03  0.7818608E-02  0.1093470E+00
          1   -1    0    0  502    0  0.00000000000E+00  0.00000000000E+00  0.22328250665E+03  0.22328250665E+03  0.00000000000E+00 0.  1.
         13   -1    0    0    0    0 -0.00000000000E+00 -0.00000000000E+00 -0.27500000000E+03  0.27500000000E+03  0.00000000000E+00 0.  1.
    9000005    2    1    2  501    0 -0.32801403093E+02  0.92985778662E+01 -0.54955949282E+02  0.46403512439E+03  0.45950630541E+03 0.  0.
         13    1    3    3    0    0 -0.61066061689E+02 -0.90936134707E+02  0.17791867845E+03  0.20893420167E+03  0.00000000000E+00 0.  1.
          1    1    3    3  501    0  0.28264658596E+02  0.10023471257E+03 -0.23287462773E+03  0.25510092272E+03  0.00000000000E+00 0.  1.
         21    1    1    2  502  501  0.32801403093E+02 -0.92985778662E+01  0.32384559353E+01  0.34247382266E+02  0.00000000000E+00 0.  1.
<scales pt_clust_4="550.00000" pt_clust_5="550.00000" pt_clust_6="34.09392"></scales>
<mgrwt>
<rscale>  0 0.30000000E+03</rscale>
<asrwt>  1 0.34093923E+02</asrwt>
<pdfrwt beam="1">  1        1 0.81193639E+00 0.30000000E+03</pdfrwt>
<pdfrwt beam="2">0</pdfrwt>
<totfact> 0.84632009E-04</totfact>
</mgrwt>
<clustering>
<clus scale="   34.094">  1  6  2 -1</clus>
<clus scale="  459.506">  4  5 -1 -1</clus>
<clus scale="  300.000">  1  4  2 -1</clus>
</clustering>
</event>
<event>
 6    1  0.9843879E-012  0.3000000E+03  0.7818608E-02  0.1093470E+00
          1   -1    0    0  502    0  0.00000000000E+00  0.00000000000E+00  0.23472988266E+03  0.23472988266E+03  0.00000000000E+00 0.  1.
         13   -1    0    0    0    0 -0.00000000000E+00 -0.00000000000E+00 -0.27500000000E+03  0.27500000000E+03  0.00000000000E+00 0.  1.
    9000005    2    1    2  501    0 -0.17583394580E+02  0.29323942866E+02 -0.22801648283E+02  0.47133435165E+03  0.46953922785E+03 0.  0.
         13    1    3    3    0    0 -0.10061383468E+03 -0.16678886595E+03  0.10668971635E+03  0.22209089380E+03  0.00000000000E+00 0.  1.
          1    1    3    3  501    0  0.83030440101E+02  0.19611280881E+03 -0.12949136463E+03  0.24924345785E+03  0.00000000000E+00 0.  1.
         21    1    1    2  502  501  0.17583394580E+02 -0.29323942866E+02 -0.17468469062E+02  0.38395531010E+02  0.00000000000E+00 0.  1.
<scales pt_clust_4="550.00000" pt_clust_5="550.00000" pt_clust_6="34.19167"></scales>
<mgrwt>
<rscale>  0 0.30000000E+03</rscale>
<asrwt>  1 0.34191674E+02</asrwt>
<pdfrwt beam="1">  1        1 0.85356321E+00 0.30000000E+03</pdfrwt>
<pdfrwt beam="2">0</pdfrwt>
<totfact> 0.37796955E-04</totfact>
</mgrwt>
<clustering>
<clus scale="   34.192">  1  6  2 -1</clus>
<clus scale="  469.539">  4  5 -1 -1</clus>
<clus scale="  300.000">  1  4  2 -1</clus>
</clustering>
</event>
<event>
 6    1  0.9843879E-012  0.3000000E+03  0.7818608E-02  0.1093470E+00
          1   -1    0    0  502    0  0.00000000000E+00  0.00000000000E+00  0.24391487427E+03  0.24391487427E+03  0.00000000000E+00 0.  1.
         13   -1    0    0    0    0 -0.00000000000E+00 -0.00000000000E+00 -0.27500000000E+03  0.27500000000E+03  0.00000000000E+00 0.  1.
    9000005    2    1    2  501    0 -0.18787749422E+02 -0.36932125382E+02 -0.59180794792E+02  0.46885163393E+03  0.46325212007E+03 0.  0.
         13    1    3    3    0    0  0.15152279950E+03  0.71515694655E+02 -0.16986558409E+03  0.23859582982E+03  0.00000000000E+00 0.  1.
          1    1    3    3  501    0 -0.17031054892E+03 -0.10844782004E+03  0.11068478930E+03  0.23025580411E+03  0.00000000000E+00 0.  1.
         21    1    1    2  502  501  0.18787749422E+02  0.36932125382E+02  0.28095669067E+02  0.50063240346E+02  0.00000000000E+00 0.  1.
<scales pt_clust_4="550.00000" pt_clust_5="550.00000" pt_clust_6="41.43623"></scales>
<mgrwt>
<rscale>  0 0.30000000E+03</rscale>
<asrwt>  1 0.41436233E+02</asrwt>
<pdfrwt beam="1">  1        1 0.88696318E+00 0.30000000E+03</pdfrwt>
<pdfrwt beam="2">0</pdfrwt>
<totfact> 0.15457768E-04</totfact>
</mgrwt>
<clustering>
<clus scale="   41.436">  1  6  2 -1</clus>
<clus scale="  463.252">  4  5 -1 -1</clus>
<clus scale="  300.000">  1  4  2 -1</clus>
</clustering>
</event>
<event>
 6    1  0.9843879E-012  0.3000000E+03  0.7818608E-02  0.1093470E+00
          1   -1    0    0  502    0  0.00000000000E+00  0.00000000000E+00  0.25200400518E+03  0.25200400518E+03  0.00000000000E+00 0.  1.
         13   -1    0    0    0    0 -0.00000000000E+00 -0.00000000000E+00 -0.27500000000E+03  0.27500000000E+03  0.00000000000E+00 0.  1.
    9000005    2    1    2  501    0 -0.10117374087E+02 -0.38689817793E+02 -0.33064957318E+02  0.48576510043E+03  0.48298569144E+03 0.  0.
         13    1    3    3    0    0  0.13735360220E+03  0.13885316221E+03  0.99927127263E+02  0.21938925101E+03  0.00000000000E+00 0.  1.
          1    1    3    3  501    0 -0.14747097629E+03 -0.17754298000E+03 -0.13299208458E+03  0.26637584943E+03  0.00000000000E+00 0.  1.
         21    1    1    2  502  501  0.10117374087E+02  0.38689817793E+02  0.10068962502E+02  0.41238904752E+02  0.00000000000E+00 0. -1.
<scales pt_clust_4="550.00000" pt_clust_5="550.00000" pt_clust_6="39.99079"></scales>
<mgrwt>
<rscale>  0 0.30000000E+03</rscale>
<asrwt>  1 0.39990790E+02</asrwt>
<pdfrwt beam="1">  1        1 0.91637820E+00 0.30000000E+03</pdfrwt>
<pdfrwt beam="2">0</pdfrwt>
<totfact> 0.49105432E-05</totfact>
</mgrwt>
<clustering>
<clus scale="   39.991">  1  6  2 -1</clus>
<clus scale="  482.986">  4  5 -1 -1</clus>
<clus scale="  300.000">  1  4  2 -1</clus>
</clustering>
</event>
<event>
 6    1  0.9843879E-012  0.3000000E+03  0.7818608E-02  0.1093470E+00
          1   -1    0    0  502    0  0.00000000000E+00  0.00000000000E+00  0.22888186544E+03  0.22888186544E+03  0.00000000000E+00 0.  1.
         13   -1    0    0    0    0 -0.00000000000E+00 -0.00000000000E+00 -0.27500000000E+03  0.27500000000E+03  0.00000000000E+00 0.  1.
    9000005    2    1    2  501    0 -0.14625765739E+02 -0.27546000377E+02 -0.70193149863E+02  0.46448260755E+03  0.45808767640E+03 0.  0.
         13    1    3    3    0    0  0.90916349713E+02  0.58603456879E+02  0.16228273657E+03  0.19502777851E+03  0.00000000000E+00 0.  1.
          3    1    3    3  501    0 -0.10554211545E+03 -0.86149457256E+02 -0.23247588643E+03  0.26945482904E+03  0.00000000000E+00 0.  1.
         21    1    1    2  502  501  0.14625765739E+02  0.27546000377E+02  0.24075015305E+02  0.39399257888E+02  0.00000000000E+00 0. -1.
<scales pt_clust_4="550.00000" pt_clust_5="550.00000" pt_clust_6="31.18806"></scales>
<mgrwt>
<rscale>  0 0.30000000E+03</rscale>
<asrwt>  1 0.31188061E+02</asrwt>
<pdfrwt beam="1">  1        1 0.83229769E+00 0.30000000E+03</pdfrwt>
<pdfrwt beam="2">0</pdfrwt>
<totfact> 0.57917392E-04</totfact>
</mgrwt>
<clustering>
<clus scale="   31.188">  1  6  2 -1</clus>
<clus scale="  458.088">  4  5 -1 -1</clus>
<clus scale="  300.000">  1  4  2 -1</clus>
</clustering>
</event>
<event>
 6    1  0.9843879E-012  0.3000000E+03  0.7818608E-02  0.1093470E+00
          1   -1    0    0  502    0  0.00000000000E+00  0.00000000000E+00  0.23804179127E+03  0.23804179127E+03  0.00000000000E+00 0.  1.
         13   -1    0    0    0    0 -0.00000000000E+00 -0.00000000000E+00 -0.27500000000E+03  0.27500000000E+03  0.00000000000E+00 0.  1.
    9000005    2    1    2  501    0  0.36393863718E+02 -0.36117069703E+02 -0.33562784227E+02  0.46165614203E+03  0.45757073437E+03 0.  0.
         13    1    3    3    0    0 -0.30260387003E+02  0.19713889228E+03  0.49036007421E+02  0.20538735087E+03  0.00000000000E+00 0.  1.
          1    1    3    3  501    0  0.66654250721E+02 -0.23325596199E+03 -0.82598791648E+02  0.25626879116E+03  0.00000000000E+00 0.  1.
         21    1    1    2  502  501 -0.36393863718E+02  0.36117069703E+02 -0.33954245035E+01  0.51385649240E+02  0.00000000000E+00 0.  1.
<scales pt_clust_4="550.00000" pt_clust_5="550.00000" pt_clust_6="51.27335"></scales>
<mgrwt>
<rscale>  0 0.30000000E+03</rscale>
<asrwt>  1 0.51273346E+02</asrwt>
<pdfrwt beam="1">  1        1 0.86560651E+00 0.30000000E+03</pdfrwt>
<pdfrwt beam="2">0</pdfrwt>
<totfact> 0.26268957E-04</totfact>
</mgrwt>
<clustering>
<clus scale="   51.273">  1  6  2 -1</clus>
<clus scale="  457.571">  4  5 -1 -1</clus>
<clus scale="  300.000">  1  4  2 -1</clus>
</clustering>
</event>
<event>
 6    1  0.9843879E-012  0.3000000E+03  0.7818608E-02  0.1093470E+00
          1   -1    0    0  502    0  0.00000000000E+00  0.00000000000E+00  0.23336961976E+03  0.23336961976E+03  0.00000000000E+00 0.  1.
         13   -1    0    0    0    0 -0.00000000000E+00 -0.00000000000E+00 -0.27500000000E+03  0.27500000000E+03  0.00000000000E+00 0.  1.
    9000005    2    1    2  501    0  0.26314725345E+02  0.20956190329E+02 -0.56098240714E+02  0.47175069474E+03  0.46719383418E+03 0.  0.
         13    1    3    3    0    0  0.14340310339E+03 -0.15225956268E+02  0.16489072014E+03  0.21905531127E+03  0.00000000000E+00 0.  1.
          3    1    3    3  501    0 -0.11708837805E+03  0.36182146597E+02 -0.22098896086E+03  0.25269538347E+03  0.00000000000E+00 0.  1.
         21    1    1    2  502  501 -0.26314725345E+02 -0.20956190329E+02  0.14467860473E+02  0.36618925021E+02  0.00000000000E+00 0. -1.
<scales pt_clust_4="550.00000" pt_clust_5="550.00000" pt_clust_6="33.63966"></scales>
<mgrwt>
<rscale>  0 0.30000000E+03</rscale>
<asrwt>  1 0.33639659E+02</asrwt>
<pdfrwt beam="1">  1        1 0.84861680E+00 0.30000000E+03</pdfrwt>
<pdfrwt beam="2">0</pdfrwt>
<totfact> 0.42236138E-04</totfact>
</mgrwt>
<clustering>
<clus scale="   33.640">  1  6  2 -1</clus>
<clus scale="  467.194">  4  5 -1 -1</clus>
<clus scale="  300.000">  1  4  2 -1</clus>
</clustering>
</event>
<event>
 6    1  0.9843879E-012  0.3000000E+03  0.7818608E-02  0.1093470E+00
          1   -1    0    0  502    0  0.00000000000E+00  0.00000000000E+00  0.25184330165E+03  0.25184330165E+03  0.00000000000E+00 0.  1.
         13   -1    0    0    0    0 -0.00000000000E+00 -0.00000000000E+00 -0.27500000000E+03  0.27500000000E+03  0.00000000000E+00 0.  1.
    9000005    2    1    2  501    0 -0.23401374876E+02  0.19358607241E+02 -0.17790328854E+02  0.49600212881E+03  0.49475169122E+03 0.  0.
         13    1    3    3    0    0 -0.12220131027E+03  0.69820938245E+02  0.20410110634E+03  0.24792213547E+03  0.00000000000E+00 0.  1.
          3    1    3    3  501    0  0.98799935389E+02 -0.50462331004E+02 -0.22189143519E+03  0.24807999334E+03  0.00000000000E+00 0.  1.
         21    1    1    2  502  501  0.23401374876E+02 -0.19358607241E+02 -0.53663694984E+01  0.30841172838E+02  0.00000000000E+00 0.  1.
<scales pt_clust_4="550.00000" pt_clust_5="550.00000" pt_clust_6="30.37073"></scales>
<mgrwt>
<rscale>  0 0.30000000E+03</rscale>
<asrwt>  1 0.30370725E+02</asrwt>
<pdfrwt beam="1">  1        1 0.91579382E+00 0.30000000E+03</pdfrwt>
<pdfrwt beam="2">0</pdfrwt>
<totfact> 0.53320739E-05</totfact>
</mgrwt>
<clustering>
<clus scale="   30.371">  1  6  2 -1</clus>
<clus scale="  494.752">  4  5 -1 -1</clus>
<clus scale="  300.000">  1  4  2 -1</clus>
</clustering>
</event>
<event>
 6    1  0.9843879E-012  0.3000000E+03  0.7818608E-02  0.1093470E+00
          1   -1    0    0  502    0  0.00000000000E+00  0.00000000000E+00  0.25593948344E+03  0.25593948344E+03  0.00000000000E+00 0.  1.
         13   -1    0    0    0    0 -0.00000000000E+00 -0.00000000000E+00 -0.27500000000E+03  0.27500000000E+03  0.00000000000E+00 0.  1.
    9000005    2    1    2  501    0 -0.26754794270E+02 -0.39642543208E+02 -0.60063181816E+02  0.46794290570E+03  0.46160115570E+03 0.  0.
         13    1    3    3    0    0  0.26742356532E+02  0.19007347229E+03  0.62851956859E+02  0.20197387698E+03  0.00000000000E+00 0.  1.
          1    1    3    3  501    0 -0.53497150802E+02 -0.22971601550E+03 -0.12291513867E+03  0.26596902872E+03  0.00000000000E+00 0.  1.
         21    1    1    2  502  501  0.26754794270E+02  0.39642543208E+02  0.41002665256E+02  0.62996577737E+02  0.00000000000E+00 0.  1.
<scales pt_clust_4="550.00000" pt_clust_5="550.00000" pt_clust_6="47.82625"></scales>
<mgrwt>
<rscale>  0 0.30000000E+03</rscale>
<asrwt>  1 0.47826251E+02</asrwt>
<pdfrwt beam="1">  1        1 0.93068903E+00 0.30000000E+03</pdfrwt>
<pdfrwt beam="2">0</pdfrwt>
<totfact> 0.24239605E-05</totfact>
</mgrwt>
<clustering>
<clus scale="   47.826">  1  6  2 -1</clus>
<clus scale="  461.601">  4  5 -1 -1</clus>
<clus scale="  300.000">  1  4  2 -1</clus>
</clustering>
</event>
<event>
 6    1  0.9843879E-012  0.3000000E+03  0.7818608E-02  0.1093470E+00
          1   -1    0    0  502    0  0.00000000000E+00  0.00000000000E+00  0.24129579121E+03  0.24129579121E+03  0.00000000000E+00 0.  1.
         13   -1    0    0    0    0 -0.00000000000E+00 -0.00000000000E+00 -0.27500000000E+03  0.27500000000E+03  0.00000000000E+00 0.  1.
    9000005    2    1    2  501    0 -0.27120732172E+02 -0.23099555894E+02 -0.37574795940E+02  0.48046137981E+03  0.47766321671E+03 0.  0.
         13    1    3    3    0    0 -0.22968268436E+03  0.25093434185E+02 -0.11528820091E+03  0.25821538529E+03  0.00000000000E+00 0.  1.
          3    1    3    3  501    0  0.20256195219E+03 -0.48192990079E+02  0.77713404966E+02  0.22224599451E+03  0.00000000000E+00 0.  1.
         21    1    1    2  502  501  0.27120732172E+02  0.23099555894E+02  0.38705871547E+01  0.35834411409E+02  0.00000000000E+00 0.  1.
<scales pt_clust_4="550.00000" pt_clust_5="550.00000" pt_clust_6="35.62476"></scales>
<mgrwt>
<rscale>  0 0.30000000E+03</rscale>
<asrwt>  1 0.35624761E+02</asrwt>
<pdfrwt beam="1">  1        1 0.87743924E+00 0.30000000E+03</pdfrwt>
<pdfrwt beam="2">0</pdfrwt>
<totfact> 0.21088644E-04</totfact>
</mgrwt>
<clustering>
<clus scale="   35.625">  1  6  2 -1</clus>
<clus scale="  477.663">  4  5 -1 -1</clus>
<clus scale="  300.000">  1  4  2 -1</clus>
</clustering>
</event>
<event>
 6    1  0.9843879E-012  0.3000000E+03  0.7818608E-02  0.1093470E+00
          1   -1    0    0  502    0  0.00000000000E+00  0.00000000000E+00  0.25118364790E+03  0.25118364790E+03  0.00000000000E+00 0.  1.
         13   -1    0    0    0    0 -0.00000000000E+00 -0.00000000000E+00 -0.27500000000E+03  0.27500000000E+03  0.00000000000E+00 0.  1.
    9000005    2    1    2  501    0 -0.70600830043E+01 -0.34081567281E+02 -0.15880420322E+02  0.49048523038E+03  0.48899097688E+03 0.  0.
         13    1    3    3    0    0  0.76801140254E+02  0.17160863633E+03  0.12653279863E+03  0.22662411243E+03  0.00000000000E+00 0.  1.
          1    1    3    3  501    0 -0.83861223258E+02 -0.20569020361E+03 -0.14241321895E+03  0.26386111794E+03  0.00000000000E+00 0.  1.
         21    1    1    2  502  501  0.70600830043E+01  0.34081567281E+02 -0.79359317811E+01  0.35698417522E+02  0.00000000000E+00 0.  1.
<scales pt_clust_4="550.00000" pt_clust_5="550.00000" pt_clust_6="34.80516"></scales>
<mgrwt>
<rscale>  0 0.30000000E+03</rscale>
<asrwt>  1 0.34805161E+02</asrwt>
<pdfrwt beam="1">  1        1 0.91339508E+00 0.30000000E+03</pdfrwt>
<pdfrwt beam="2">0</pdfrwt>
<totfact> 0.59233542E-05</totfact>
</mgrwt>
<clustering>
<clus scale="   34.805">  1  6  2 -1</clus>
<clus scale="  488.991">  4  5 -1 -1</clus>
<clus scale="  300.000">  1  4  2 -1</clus>
</clustering>
</event>
<event>
 6    1  0.9843879E-012  0.3000000E+03  0.7818608E-02  0.1093470E+00
          1   -1    0    0  502    0  0.00000000000E+00  0.00000000000E+00  0.22600818062E+03  0.22600818062E+03  0.00000000000E+00 0.  1.
         13   -1    0    0    0    0 -0.00000000000E+00 -0.00000000000E+00 -0.27500000000E+03  0.27500000000E+03  0.00000000000E+00 0.  1.
    9000005    2    1    2  501    0 -0.31013778655E+02 -0.17372505103E+02 -0.46635872130E+02  0.46538222256E+03  0.46167309875E+03 0.  0.
         13    1    3    3    0    0  0.21356436068E+03 -0.40496353254E+02 -0.22340775381E+02  0.21851499039E+03  0.00000000000E+00 0.  1.
          1    1    3    3  501    0 -0.24457813933E+03  0.23123848151E+02 -0.24295096749E+02  0.24686723217E+03  0.00000000000E+00 0.  1.
         21    1    1    2  502  501  0.31013778655E+02  0.17372505103E+02 -0.23559472546E+01  0.35625958057E+02  0.00000000000E+00 0.  1.
<scales pt_clust_4="550.00000" pt_clust_5="550.00000" pt_clust_6="35.54797"></scales>
<mgrwt>
<rscale>  0 0.30000000E+03</rscale>
<asrwt>  1 0.35547973E+02</asrwt>
<pdfrwt beam="1">  1        1 0.82184793E+00 0.30000000E+03</pdfrwt>
<pdfrwt beam="2">0</pdfrwt>
<totfact> 0.69480733E-04</totfact>
</mgrwt>
<clustering>
<clus scale="   35.548">  1  6  2 -1</clus>
<clus scale="  461.673">  4  5 -1 -1</clus>
<clus scale="  300.000">  1  4  2 -1</clus>
</clustering>
</event>
<event>
 6    1  0.9843879E-012  0.3000000E+03  0.7818608E-02  0.1093470E+00
          1   -1    0    0  502    0  0.00000000000E+00  0.00000000000E+00  0.23355556029E+03  0.23355556029E+03  0.00000000000E+00 0.  1.
         13   -1    0    0    0    0 -0.00000000000E+00 -0.00000000000E+00 -0.27500000000E+03  0.27500000000E+03  0.00000000000E+00 0.  1.
    9000005    2    1    2  501    0 -0.12342852889E+01  0.35335387653E+02 -0.42678375092E+02  0.47317709682E+03  0.46992021469E+03 0.  0.
         13    1    3    3    0    0  0.22460807532E+03  0.83800209203E+02 -0.10489431411E+02  0.23996101919E+03  0.00000000000E+00 0.  1.
          1    1    3    3  501    0 -0.22584236060E+03 -0.48464821550E+02 -0.32188943680E+02  0.23321607763E+03  0.00000000000E+00 0.  1.
         21    1    1    2  502  501  0.12342852889E+01 -0.35335387653E+02  0.12339353810E+01  0.35378463467E+02  0.00000000000E+00 0. -1.
<scales pt_clust_4="550.00000" pt_clust_5="550.00000" pt_clust_6="35.35694"></scales>
<mgrwt>
<rscale>  0 0.30000000E+03</rscale>
<asrwt>  1 0.35356938E+02</asrwt>
<pdfrwt beam="1">  1        1 0.84929295E+00 0.30000000E+03</pdfrwt>
<pdfrwt beam="2">0</pdfrwt>
<totfact> 0.41244322E-04</totfact>
</mgrwt>
<clustering>
<clus scale="   35.357">  1  6  2 -1</clus>
<clus scale="  469.920">  4  5 -1 -1</clus>
<clus scale="  300.000">  1  4  2 -1</clus>
</clustering>
</event>
<event>
 6    1  0.9843879E-012  0.3000000E+03  0.7818608E-02  0.1093470E+00
          1   -1    0    0  502    0  0.00000000000E+00  0.00000000000E+00  0.25630486324E+03  0.25630486324E+03  0.00000000000E+00 0.  1.
         13   -1    0    0    0    0 -0.00000000000E+00 -0.00000000000E+00 -0.27500000000E+03  0.27500000000E+03  0.00000000000E+00 0.  1.
    9000005    2    1    2  501    0 -0.43450756985E+02  0.19163696422E+02  0.70276648097E+01  0.47729673363E+03  0.47487637161E+03 0.  0.
         13    1    3    3    0    0 -0.42132192126E+02  0.22928449023E+03  0.92028100951E+02  0.25063054570E+03  0.00000000000E+00 0.  1.
          1    1    3    3  501    0 -0.13185648593E+01 -0.21012079381E+03 -0.85000436141E+02  0.22666618793E+03  0.00000000000E+00 0.  1.
         21    1    1    2  502  501  0.43450756985E+02 -0.19163696422E+02 -0.25722801573E+02  0.54008129609E+02  0.00000000000E+00 0. -1.
<scales pt_clust_4="550.00000" pt_clust_5="550.00000" pt_clust_6="47.48913"></scales>
<mgrwt>
<rscale>  0 0.30000000E+03</rscale>
<asrwt>  1 0.47489133E+02</asrwt>
<pdfrwt beam="1">  1        1 0.93201768E+00 0.30000000E+03</pdfrwt>
<pdfrwt beam="2">0</pdfrwt>
<totfact> 0.23235199E-05</totfact>
</mgrwt>
<clustering>
<clus scale="   47.489">  1  6  2 -1</clus>
<clus scale="  474.876">  4  5 -1 -1</clus>
<clus scale="  300.000">  1  4  2 -1</clus>
</clustering>
</event>
<event>
 6    1  0.9843879E-012  0.3000000E+03  0.7818608E-02  0.1093470E+00
          1   -1    0    0  502    0  0.00000000000E+00  0.00000000000E+00  0.23382092298E+03  0.23382092298E+03  0.00000000000E+00 0.  1.
         13   -1    0    0    0    0 -0.00000000000E+00 -0.00000000000E+00 -0.27500000000E+03  0.27500000000E+03  0.00000000000E+00 0.  1.
    9000005    2    1    2  501    0  0.19928279048E+02 -0.34283479482E+02 -0.52389629175E+02  0.46761206773E+03  0.46297287110E+03 0.  0.
         13    1    3    3    0    0 -0.21499797311E+03 -0.69923199349E+02 -0.40649210650E+02  0.22970794626E+03  0.00000000000E+00 0.  1.
          1    1    3    3  501    0  0.23492625216E+03  0.35639719867E+02 -0.11740418524E+02  0.23790412147E+03  0.00000000000E+00 0.  1.
         21    1    1    2  502  501 -0.19928279048E+02  0.34283479482E+02  0.11210552155E+02  0.41208855248E+02  0.00000000000E+00 0.  1.
<scales pt_clust_4="550.00000" pt_clust_5="550.00000" pt_clust_6="39.65468"></scales>
<mgrwt>
<rscale>  0 0.30000000E+03</rscale>
<asrwt>  1 0.39654675E+02</asrwt>
<pdfrwt beam="1">  1        1 0.85025790E+00 0.30000000E+03</pdfrwt>
<pdfrwt beam="2">0</pdfrwt>
<totfact> 0.39548496E-04</totfact>
</mgrwt>
<clustering>
<clus scale="   39.655">  1  6  2 -1</clus>
<clus scale="  462.973">  4  5 -1 -1</clus>
<clus scale="  300.000">  1  4  2 -1</clus>
</clustering>
</event>
<event>
 6    1  0.9843879E-012  0.3000000E+03  0.7818608E-02  0.1093470E+00
          1   -1    0    0  502    0  0.00000000000E+00  0.00000000000E+00  0.23559959877E+03  0.23559959877E+03  0.00000000000E+00 0.  1.
         13   -1    0    0    0    0 -0.00000000000E+00 -0.00000000000E+00 -0.27500000000E+03  0.27500000000E+03  0.00000000000E+00 0.  1.
    9000005    2    1    2  501    0  0.27722288273E+02 -0.20018666626E+02 -0.51976680239E+02  0.47416561636E+03  0.47006614871E+03 0.  0.
         13    1    3    3    0    0  0.11361008064E+03  0.98003783204E+01  0.18669410997E+03  0.21876468759E+03  0.00000000000E+00 0.  1.
          1    1    3    3  501    0 -0.85887792364E+02 -0.29819044947E+02 -0.23867079021E+03  0.25540092877E+03  0.00000000000E+00 0.  1.
         21    1    1    2  502  501 -0.27722288273E+02  0.20018666626E+02  0.12576279007E+02  0.36433982410E+02  0.00000000000E+00 0. -1.
<scales pt_clust_4="550.00000" pt_clust_5="550.00000" pt_clust_6="34.19462"></scales>
<mgrwt>
<rscale>  0 0.30000000E+03</rscale>
<asrwt>  1 0.34194624E+02</asrwt>
<pdfrwt beam="1">  1        1 0.85672581E+00 0.30000000E+03</pdfrwt>
<pdfrwt beam="2">0</pdfrwt>
<totfact> 0.35156395E-04</totfact>
</mgrwt>
<clustering>
<clus scale="   34.195">  1  6  2 -1</clus>
<clus scale="  470.066">  4  5 -1 -1</clus>
<clus scale="  300.000">  1  4  2 -1</clus>
</clustering>
</event>
<event>
 6    1  0.9843879E-012  0.3000000E+03  0.7818608E-02  0.1093470E+00
          1   -1    0    0  502    0  0.00000000000E+00  0.00000000000E+00  0.22514683018E+03  0.22514683018E+03  0.00000000000E+00 0.  1.
         13   -1    0    0    0    0 -0.00000000000E+00 -0.00000000000E+00 -0.27500000000E+03  0.27500000000E+03  0.00000000000E+00 0.  1.
    9000005    2    1    2  501    0 -0.29926274289E+02 -0.11138147265E+02 -0.46417152902E+02  0.46803069048E+03  0.46462730756E+03 0.  0.
         13    1    3    3    0    0 -0.18587567394E+03 -0.14594305434E+03 -0.97518146821E+02  0.25565392668E+03  0.00000000000E+00 0.  1.
          3    1    3    3  501    0  0.15594939965E+03  0.13480490707E+03  0.51100993919E+02  0.21237676379E+03  0.00000000000E+00 0.  1.
         21    1    1    2  502  501  0.29926274289E+02  0.11138147265E+02 -0.34360169135E+01  0.32116139705E+02  0.00000000000E+00 0. -1.
<scales pt_clust_4="550.00000" pt_clust_5="550.00000" pt_clust_6="31.93182"></scales>
<mgrwt>
<rscale>  0 0.30000000E+03</rscale>
<asrwt>  1 0.31931822E+02</asrwt>
<pdfrwt beam="1">  1        1 0.81871575E+00 0.30000000E+03</pdfrwt>
<pdfrwt beam="2">0</pdfrwt>
<totfact> 0.75480576E-04</totfact>
</mgrwt>
<clustering>
<clus scale="   31.932">  1  6  2 -1</clus>
<clus scale="  464.627">  4  5 -1 -1</clus>
<clus scale="  300.000">  1  4  2 -1</clus>
</clustering>
</event>
<event>
 6    1  0.9843879E-012  0.3000000E+03  0.7818608E-02  0.1093470E+00
          1   -1    0    0  502    0  0.00000000000E+00  0.00000000000E+00  0.22169933170E+03  0.22169933170E+03  0.00000000000E+00 0.  1.
         13   -1    0    0    0    0 -0.00000000000E+00 -0.00000000000E+00 -0.27500000000E+03  0.27500000000E+03  0.00000000000E+00 0.  1.
    9000005    2    1    2  501    0  0.24835901826E+01 -0.31800293709E+02 -0.49682177968E+02  0.46459761254E+03  0.46083098407E+03 0.  0.
         13    1    3    3    0    0 -0.18148251136E+03 -0.12893296027E+03  0.58413352430E+02  0.23015588178E+03  0.00000000000E+00 0.  1.
          3    1    3    3  501    0  0.18396610155E+03  0.97132666564E+02 -0.10809553040E+03  0.23444173076E+03  0.00000000000E+00 0.  1.
         21    1    1    2  502  501 -0.24835901826E+01  0.31800293709E+02 -0.36184903359E+01  0.32101719152E+02  0.00000000000E+00 0.  1.
<scales pt_clust_4="550.00000" pt_clust_5="550.00000" pt_clust_6="31.89715"></scales>
<mgrwt>
<rscale>  0 0.30000000E+03</rscale>
<asrwt>  1 0.31897146E+02</asrwt>
<pdfrwt beam="1">  1        1 0.80617939E+00 0.30000000E+03</pdfrwt>
<pdfrwt beam="2">0</pdfrwt>
<totfact> 0.94991495E-04</totfact>
</mgrwt>
<clustering>
<clus scale="   31.897">  1  6  2 -1</clus>
<clus scale="  460.831">  4  5 -1 -1</clus>
<clus scale="  300.000">  1  4  2 -1</clus>
</clustering>
</event>
<event>
 6    1  0.9843879E-012  0.3000000E+03  0.7818608E-02  0.1093470E+00
          1   -1    0    0  502    0  0.00000000000E+00  0.00000000000E+00  0.23762149137E+03  0.23762149137E+03  0.00000000000E+00 0.  1.
         13   -1    0    0    0    0 -0.00000000000E+00 -0.00000000000E+00 -0.27500000000E+03  0.27500000000E+03  0.00000000000E+00 0.  1.
    9000005    2    1    2  501    0  0.15147289421E+02  0.37272068656E+02 -0.64818033664E+02  0.46392267195E+03  0.45760705915E+03 0.  0.
         13    1    3    3    0    0 -0.46864340568E+02 -0.16860486020E+02  0.18985400824E+03  0.19627808550E+03  0.00000000000E+00 0.  1.
          3    1    3    3  501    0  0.62011629989E+02  0.54132554675E+02 -0.25467204190E+03  0.26764458645E+03  0.00000000000E+00 0.  1.
         21    1    1    2  502  501 -0.15147289421E+02 -0.37272068656E+02  0.27439525033E+02  0.48698819418E+02  0.00000000000E+00 0.  1.
<scales pt_clust_4="550.00000" pt_clust_5="550.00000" pt_clust_6="40.23242"></scales>
<mgrwt>
<rscale>  0 0.30000000E+03</rscale>
<asrwt>  1 0.40232418E+02</asrwt>
<pdfrwt beam="1">  1        1 0.86407815E+00 0.30000000E+03</pdfrwt>
<pdfrwt beam="2">0</pdfrwt>
<totfact> 0.28489384E-04</totfact>
</mgrwt>
<clustering>
<clus scale="   40.232">  1  6  2 -1</clus>
<clus scale="  457.607">  4  5 -1 -1</clus>
<clus scale="  300.000">  1  4  2 -1</clus>
</clustering>
</event>
<event>
 6    1  0.9843879E-012  0.3000000E+03  0.7818608E-02  0.1093470E+00
          1   -1    0    0  502    0  0.00000000000E+00  0.00000000000E+00  0.22505540827E+03  0.22505540827E+03  0.00000000000E+00 0.  1.
         13   -1    0    0    0    0 -0.00000000000E+00 -0.00000000000E+00 -0.27500000000E+03  0.27500000000E+03  0.00000000000E+00 0.  1.
    9000005    2    1    2  501    0  0.22023580367E+02  0.26994302083E+02 -0.60443891125E+02  0.46366906846E+03  0.45839045653E+03 0.  0.
         13    1    3    3    0    0 -0.81602233464E+02  0.78483754450E+02 -0.23118025417E+03  0.25741587779E+03  0.00000000000E+00 0.  1.
          1    1    3    3  501    0  0.10362581383E+03 -0.51489452367E+02  0.17073636304E+03  0.20625319067E+03  0.00000000000E+00 0.  1.
         21    1    1    2  502  501 -0.22023580367E+02 -0.26994302083E+02  0.10499299395E+02  0.36386339812E+02  0.00000000000E+00 0.  1.
<scales pt_clust_4="550.00000" pt_clust_5="550.00000" pt_clust_6="34.83863"></scales>
<mgrwt>
<rscale>  0 0.30000000E+03</rscale>
<asrwt>  1 0.34838634E+02</asrwt>
<pdfrwt beam="1">  1        1 0.81838330E+00 0.30000000E+03</pdfrwt>
<pdfrwt beam="2">0</pdfrwt>
<totfact> 0.74731554E-04</totfact>
</mgrwt>
<clustering>
<clus scale="   34.839">  1  6  2 -1</clus>
<clus scale="  458.390">  4  5 -1 -1</clus>
<clus scale="  300.000">  1  4  2 -1</clus>
</clustering>
</event>
<event>
 6    1  0.9843879E-012  0.3000000E+03  0.7818608E-02  0.1093470E+00
          1   -1    0    0  502    0  0.00000000000E+00  0.00000000000E+00  0.24891345904E+03  0.24891345904E+03  0.00000000000E+00 0.  1.
         13   -1    0    0    0    0 -0.00000000000E+00 -0.00000000000E+00 -0.27500000000E+03  0.27500000000E+03  0.00000000000E+00 0.  1.
    9000005    2    1    2  501    0 -0.26817513035E+02  0.16860595494E+02 -0.42310399350E+02  0.48832311953E+03  0.48545426199E+03 0.  0.
         13    1    3    3    0    0  0.14261345365E+03 -0.17546978252E+03 -0.51252251274E+02  0.23185132089E+03  0.00000000000E+00 0.  1.
          1    1    3    3  501    0 -0.16943096669E+03  0.19233037801E+03  0.89418519240E+01  0.25647179863E+03  0.00000000000E+00 0.  1.
         21    1    1    2  502  501  0.26817513035E+02 -0.16860595494E+02  0.16223858395E+02  0.35590339517E+02  0.00000000000E+00 0. -1.
<scales pt_clust_4="550.00000" pt_clust_5="550.00000" pt_clust_6="31.67742"></scales>
<mgrwt>
<rscale>  0 0.30000000E+03</rscale>
<asrwt>  1 0.31677416E+02</asrwt>
<pdfrwt beam="1">  1        1 0.90513985E+00 0.30000000E+03</pdfrwt>
<pdfrwt beam="2">0</pdfrwt>
<totfact> 0.93647682E-05</totfact>
</mgrwt>
<clustering>
<clus scale="   31.677">  1  6  2 -1</clus>
<clus scale="  485.454">  4  5 -1 -1</clus>
<clus scale="  300.000">  1  4  2 -1</clus>
</clustering>
</event>
<event>
 6    1  0.9843879E-012  0.3000000E+03  0.7818608E-02  0.1093470E+00
          1   -1    0    0  502    0  0.00000000000E+00  0.00000000000E+00  0.22411451727E+03  0.22411451727E+03  0.00000000000E+00 0.  1.
         13   -1    0    0    0    0 -0.00000000000E+00 -0.00000000000E+00 -0.27500000000E+03  0.27500000000E+03  0.00000000000E+00 0.  1.
    9000005    2    1    2  501    0 -0.29935575531E+02 -0.15900402449E+02 -0.55208666049E+02  0.46494360282E+03  0.46040807499E+03 0.  0.
         13    1    3    3    0    0  0.15640605350E+03  0.14657714297E+03 -0.29706240623E+02  0.21640280300E+03  0.00000000000E+00 0.  1.
          1    1    3    3  501    0 -0.18634162903E+03 -0.16247754542E+03 -0.25502425427E+02  0.24854079983E+03  0.00000000000E+00 0.  1.
         21    1    1    2  502  501  0.29935575531E+02  0.15900402449E+02  0.43231833222E+01  0.34170914451E+02  0.00000000000E+00 0. -1.
<scales pt_clust_4="550.00000" pt_clust_5="550.00000" pt_clust_6="33.89633"></scales>
<mgrwt>
<rscale>  0 0.30000000E+03</rscale>
<asrwt>  1 0.33896334E+02</asrwt>
<pdfrwt beam="1">  1        1 0.81496188E+00 0.30000000E+03</pdfrwt>
<pdfrwt beam="2">0</pdfrwt>
<totfact> 0.80140961E-04</totfact>
</mgrwt>
<clustering>
<clus scale="   33.896">  1  6  2 -1</clus>
<clus scale="  460.408">  4  5 -1 -1</clus>
<clus scale="  300.000">  1  4  2 -1</clus>
</clustering>
</event>
<event>
 6    1  0.9843879E-012  0.3000000E+03  0.7818608E-02  0.1093470E+00
          1   -1    0    0  502    0  0.00000000000E+00  0.00000000000E+00  0.23544246397E+03  0.23544246397E+03  0.00000000000E+00 0.  1.
         13   -1    0    0    0    0 -0.00000000000E+00 -0.00000000000E+00 -0.27500000000E+03  0.27500000000E+03  0.00000000000E+00 0.  1.
    9000005    2    1    2  501    0 -0.74683576266E+01  0.29788570380E+02 -0.49864839851E+02  0.47804839348E+03  0.47444770941E+03 0.  0.
         13    1    3    3    0    0 -0.15893587387E+02  0.14370987584E+03 -0.22589325550E+03  0.26820308987E+03  0.00000000000E+00 0.  1.
          1    1    3    3  501    0  0.84252297599E+01 -0.11392130546E+03  0.17602841565E+03  0.20984530362E+03  0.00000000000E+00 0.  1.
         21    1    1    2  502  501  0.74683576266E+01 -0.29788570380E+02  0.10307303826E+02  0.32394070492E+02  0.00000000000E+00 0. -1.
<scales pt_clust_4="550.00000" pt_clust_5="550.00000" pt_clust_6="30.71051"></scales>
<mgrwt>
<rscale>  0 0.30000000E+03</rscale>
<asrwt>  1 0.30710508E+02</asrwt>
<pdfrwt beam="1">  1        1 0.85615441E+00 0.30000000E+03</pdfrwt>
<pdfrwt beam="2">0</pdfrwt>
<totfact> 0.36364635E-04</totfact>
</mgrwt>
<clustering>
<clus scale="   30.711">  1  6  2 -1</clus>
<clus scale="  474.448">  4  5 -1 -1</clus>
<clus scale="  300.000">  1  4  2 -1</clus>
</clustering>
</event>
<event>
 6    1  0.9843879E-012  0.3000000E+03  0.7818608E-02  0.1093470E+00
          1   -1    0    0  502    0  0.00000000000E+00  0.00000000000E+00  0.24925116011E+03  0.24925116011E+03  0.00000000000E+00 0.  1.
         13   -1    0    0    0    0 -0.00000000000E+00 -0.00000000000E+00 -0.27500000000E+03  0.27500000000E+03  0.00000000000E+00 0.  1.
    9000005    2    1    2  501    0  0.16986735938E+02  0.53354736851E+02 -0.48642669515E+02  0.46375814748E+03  0.45778841501E+03 0.  0.
         13    1    3    3    0    0 -0.67887509230E+02 -0.18042150918E+03  0.45091223798E+02  0.19797437548E+03  0.00000000000E+00 0.  1.
          1    1    3    3  501    0  0.84874245167E+02  0.23377624603E+03 -0.93733893313E+02  0.26578377200E+03  0.00000000000E+00 0.  1.
         21    1    1    2  502  501 -0.16986735938E+02 -0.53354736851E+02  0.22893829628E+02  0.60493012632E+02  0.00000000000E+00 0.  1.
<scales pt_clust_4="550.00000" pt_clust_5="550.00000" pt_clust_6="55.99355"></scales>
<mgrwt>
<rscale>  0 0.30000000E+03</rscale>
<asrwt>  1 0.55993546E+02</asrwt>
<pdfrwt beam="1">  1        1 0.90636785E+00 0.30000000E+03</pdfrwt>
<pdfrwt beam="2">0</pdfrwt>
<totfact> 0.79851715E-05</totfact>
</mgrwt>
<clustering>
<clus scale="   55.994">  1  6  2 -1</clus>
<clus scale="  457.788">  4  5 -1 -1</clus>
<clus scale="  300.000">  1  4  2 -1</clus>
</clustering>
</event>
<event>
 6    1  0.9843879E-012  0.3000000E+03  0.7818608E-02  0.1093470E+00
          1   -1    0    0  502    0  0.00000000000E+00  0.00000000000E+00  0.22502993521E+03  0.22502993521E+03  0.00000000000E+00 0.  1.
         13   -1    0    0    0    0 -0.00000000000E+00 -0.00000000000E+00 -0.27500000000E+03  0.27500000000E+03  0.00000000000E+00 0.  1.
    9000005    2    1    2  501    0 -0.26255332138E+02 -0.15333478392E+02 -0.69520140702E+02  0.46388213454E+03  0.45763427183E+03 0.  0.
         13    1    3    3    0    0  0.34135071019E+02 -0.23156830660E+03 -0.31639682294E+02  0.23619939287E+03  0.00000000000E+00 0.  1.
          3    1    3    3  501    0 -0.60390403157E+02  0.21623482821E+03 -0.37880458409E+02  0.22768274167E+03  0.00000000000E+00 0.  1.
         21    1    1    2  502  501  0.26255332138E+02  0.15333478392E+02  0.19550075914E+02  0.36147800673E+02  0.00000000000E+00 0.  1.
<scales pt_clust_4="550.00000" pt_clust_5="550.00000" pt_clust_6="30.40490"></scales>
<mgrwt>
<rscale>  0 0.30000000E+03</rscale>
<asrwt>  1 0.30404901E+02</asrwt>
<pdfrwt beam="1">  1        1 0.81829067E+00 0.30000000E+03</pdfrwt>
<pdfrwt beam="2">0</pdfrwt>
<totfact> 0.76823204E-04</totfact>
</mgrwt>
<clustering>
<clus scale="   30.405">  1  6  2 -1</clus>
<clus scale="  457.634">  4  5 -1 -1</clus>
<clus scale="  300.000">  1  4  2 -1</clus>
</clustering>
</event>
<event>
 6    1  0.9843879E-012  0.3000000E+03  0.7818608E-02  0.1093470E+00
          1   -1    0    0  502    0  0.00000000000E+00  0.00000000000E+00  0.23404440174E+03  0.23404440174E+03  0.00000000000E+00 0.  1.
         13   -1    0    0    0    0 -0.00000000000E+00 -0.00000000000E+00 -0.27500000000E+03  0.27500000000E+03  0.00000000000E+00 0.  1.
    9000005    2    1    2  501    0 -0.35567216260E+02 -0.98542829506E+01 -0.45539957840E+02  0.47185367551E+03  0.46819853648E+03 0.  0.
         13    1    3    3    0    0 -0.23784665681E+03  0.48726919504E+02 -0.85698235205E+02  0.25746753651E+03  0.00000000000E+00 0.  1.
          1    1    3    3  501    0  0.20227944055E+03 -0.58581202455E+02  0.40158277364E+02  0.21438613899E+03  0.00000000000E+00 0.  1.
         21    1    1    2  502  501  0.35567216260E+02  0.98542829506E+01  0.45843595787E+01  0.37190726233E+02  0.00000000000E+00 0. -1.
<scales pt_clust_4="550.00000" pt_clust_5="550.00000" pt_clust_6="36.90710"></scales>
<mgrwt>
<rscale>  0 0.30000000E+03</rscale>
<asrwt>  1 0.36907096E+02</asrwt>
<pdfrwt beam="1">  1        1 0.85107055E+00 0.30000000E+03</pdfrwt>
<pdfrwt beam="2">0</pdfrwt>
<totfact> 0.39371970E-04</totfact>
</mgrwt>
<clustering>
<clus scale="   36.907">  1  6  2 -1</clus>
<clus scale="  468.199">  4  5 -1 -1</clus>
<clus scale="  300.000">  1  4  2 -1</clus>
</clustering>
</event>
<event>
 6    1  0.9843879E-012  0.3000000E+03  0.7818608E-02  0.1093470E+00
          1   -1    0    0  502    0  0.00000000000E+00  0.00000000000E+00  0.24024763408E+03  0.24024763408E+03  0.00000000000E+00 0.  1.
         13   -1    0    0    0    0 -0.00000000000E+00 -0.00000000000E+00 -0.27500000000E+03  0.27500000000E+03  0.00000000000E+00 0.  1.
    9000005    2    1    2  501    0  0.33539491680E+02 -0.90871835089E+01 -0.37176358629E+02  0.48041445812E+03  0.47771172848E+03 0.  0.
         13    1    3    3    0    0  0.15111718158E+02  0.17795391139E+03 -0.17290655245E+03  0.24858124322E+03  0.00000000000E+00 0.  1.
          3    1    3    3  501    0  0.18427773522E+02 -0.18704109490E+03  0.13573019382E+03  0.23183321490E+03  0.00000000000E+00 0.  1.
         21    1    1    2  502  501 -0.33539491680E+02  0.90871835089E+01  0.24239927039E+01  0.34833175952E+02  0.00000000000E+00 0.  1.
<scales pt_clust_4="550.00000" pt_clust_5="550.00000" pt_clust_6="34.74873"></scales>
<mgrwt>
<rscale>  0 0.30000000E+03</rscale>
<asrwt>  1 0.34748732E+02</asrwt>
<pdfrwt beam="1">  1        1 0.87362776E+00 0.30000000E+03</pdfrwt>
<pdfrwt beam="2">0</pdfrwt>
<totfact> 0.23279931E-04</totfact>
</mgrwt>
<clustering>
<clus scale="   34.749">  1  6  2 -1</clus>
<clus scale="  477.712">  4  5 -1 -1</clus>
<clus scale="  300.000">  1  4  2 -1</clus>
</clustering>
</event>
<event>
 6    1  0.9843879E-012  0.3000000E+03  0.7818608E-02  0.1093470E+00
          1   -1    0    0  502    0  0.00000000000E+00  0.00000000000E+00  0.22330176707E+03  0.22330176707E+03  0.00000000000E+00 0.  1.
         13   -1    0    0    0    0 -0.00000000000E+00 -0.00000000000E+00 -0.27500000000E+03  0.27500000000E+03  0.00000000000E+00 0.  1.
    9000005    2    1    2  501    0  0.29904382838E+02  0.52150911681E+01 -0.65715780412E+02  0.46486584438E+03  0.45919518746E+03 0.  0.
         13    1    3    3    0    0  0.12397041525E+03 -0.89475049316E+02  0.14807003750E+03  0.21283605031E+03  0.00000000000E+00 0.  1.
          1    1    3    3  501    0 -0.94066032411E+02  0.94690140484E+02 -0.21378581791E+03  0.25202979407E+03  0.00000000000E+00 0.  1.
         21    1    1    2  502  501 -0.29904382838E+02 -0.52150911681E+01  0.14017547482E+02  0.33435922691E+02  0.00000000000E+00 0. -1.
<scales pt_clust_4="550.00000" pt_clust_5="550.00000" pt_clust_6="30.35571"></scales>
<mgrwt>
<rscale>  0 0.30000000E+03</rscale>
<asrwt>  1 0.30355713E+02</asrwt>
<pdfrwt beam="1">  1        1 0.81200643E+00 0.30000000E+03</pdfrwt>
<pdfrwt beam="2">0</pdfrwt>
<totfact> 0.86410372E-04</totfact>
</mgrwt>
<clustering>
<clus scale="   30.356">  1  6  2 -1</clus>
<clus scale="  459.195">  4  5 -1 -1</clus>
<clus scale="  300.000">  1  4  2 -1</clus>
</clustering>
</event>
<event>
 6    1  0.9843879E-012  0.3000000E+03  0.7818608E-02  0.1093470E+00
          1   -1    0    0  502    0  0.00000000000E+00  0.00000000000E+00  0.23981382083E+03  0.23981382083E+03  0.00000000000E+00 0.  1.
         13   -1    0    0    0    0 -0.00000000000E+00 -0.00000000000E+00 -0.27500000000E+03  0.27500000000E+03  0.00000000000E+00 0.  1.
    9000005    2    1    2  501    0  0.24945561020E+02 -0.34483346587E+02 -0.40342580501E+02  0.47194226055E+03  0.46828473313E+03 0.  0.
         13    1    3    3    0    0 -0.12264981221E+03  0.11208901010E+03  0.12360737693E+03  0.20708864346E+03  0.00000000000E+00 0.  1.
          1    1    3    3  501    0  0.14759537323E+03 -0.14657235668E+03 -0.16394995743E+03  0.26485361709E+03  0.00000000000E+00 0.  1.
         21    1    1    2  502  501 -0.24945561020E+02  0.34483346587E+02  0.51564013343E+01  0.42871560284E+02  0.00000000000E+00 0.  1.
<scales pt_clust_4="550.00000" pt_clust_5="550.00000" pt_clust_6="42.56034"></scales>
<mgrwt>
<rscale>  0 0.30000000E+03</rscale>
<asrwt>  1 0.42560336E+02</asrwt>
<pdfrwt beam="1">  1        1 0.87205026E+00 0.30000000E+03</pdfrwt>
<pdfrwt beam="2">0</pdfrwt>
<totfact> 0.23281576E-04</totfact>
</mgrwt>
<clustering>
<clus scale="   42.560">  1  6  2 -1</clus>
<clus scale="  468.285">  4  5 -1 -1</clus>
<clus scale="  300.000">  1  4  2 -1</clus>
</clustering>
</event>
<event>
 6    1  0.9843879E-012  0.3000000E+03  0.7818608E-02  0.1093470E+00
          1   -1    0    0  502    0  0.00000000000E+00  0.00000000000E+00  0.24475187818E+03  0.24475187818E+03  0.00000000000E+00 0.  1.
         13   -1    0    0    0    0 -0.00000000000E+00 -0.00000000000E+00 -0.27500000000E+03  0.27500000000E+03  0.00000000000E+00 0.  1.
    9000005    2    1    2  501    0  0.35463208037E+02  0.34853166493E+02 -0.47247609353E+02  0.46720318728E+03  0.46214077864E+03 0.  0.
         13    1    3    3    0    0  0.14153668801E+03  0.20654083326E+03 -0.79778421339E+02  0.26278574232E+03  0.00000000000E+00 0.  1.
          3    1    3    3  501    0 -0.10607347997E+03 -0.17168766677E+03  0.32530811986E+02  0.20441744496E+03  0.00000000000E+00 0.  1.
         21    1    1    2  502  501 -0.35463208037E+02 -0.34853166493E+02  0.16999487535E+02  0.52548690900E+02  0.00000000000E+00 0.  1.
<scales pt_clust_4="550.00000" pt_clust_5="550.00000" pt_clust_6="49.72306"></scales>
<mgrwt>
<rscale>  0 0.30000000E+03</rscale>
<asrwt>  1 0.49723056E+02</asrwt>
<pdfrwt beam="1">  1        1 0.89000683E+00 0.30000000E+03</pdfrwt>
<pdfrwt beam="2">0</pdfrwt>
<totfact> 0.13599436E-04</totfact>
</mgrwt>
<clustering>
<clus scale="   49.723">  1  6  2 -1</clus>
<clus scale="  462.141">  4  5 -1 -1</clus>
<clus scale="  300.000">  1  4  2 -1</clus>
</clustering>
</event>
<event>
 6    1  0.9843879E-012  0.3000000E+03  0.7818608E-02  0.1093470E+00
          1   -1    0    0  502    0  0.00000000000E+00  0.00000000000E+00  0.24988624185E+03  0.24988624185E+03  0.00000000000E+00 0.  1.
         13   -1    0    0    0    0 -0.00000000000E+00 -0.00000000000E+00 -0.27500000000E+03  0.27500000000E+03  0.00000000000E+00 0.  1.
    9000005    2    1    2  501    0  0.30990734793E+02 -0.19110690595E+00 -0.59352627546E+02  0.47870440189E+03  0.47399863694E+03 0.  0.
         13    1    3    3    0    0  0.21079615348E+03 -0.13381389060E+03 -0.13548158425E+02  0.25004945158E+03  0.00000000000E+00 0.  1.
          1    1    3    3  501    0 -0.17980541868E+03  0.13362278369E+03 -0.45804469122E+02  0.22865495031E+03  0.00000000000E+00 0.  1.
         21    1    1    2  502  501 -0.30990734793E+02  0.19110690595E+00  0.34238869398E+02  0.46181839965E+02  0.00000000000E+00 0.  1.
<scales pt_clust_4="550.00000" pt_clust_5="550.00000" pt_clust_6="30.99132"></scales>
<mgrwt>
<rscale>  0 0.30000000E+03</rscale>
<asrwt>  1 0.30991324E+02</asrwt>
<pdfrwt beam="1">  1        1 0.90867724E+00 0.30000000E+03</pdfrwt>
<pdfrwt beam="2">0</pdfrwt>
<totfact> 0.79061855E-05</totfact>
</mgrwt>
<clustering>
<clus scale="   30.991">  1  6  2 -1</clus>
<clus scale="  473.999">  4  5 -1 -1</clus>
<clus scale="  300.000">  1  4  2 -1</clus>
</clustering>
</event>
<event>
 6    1  0.9843879E-012  0.3000000E+03  0.7818608E-02  0.1093470E+00
          1   -1    0    0  502    0  0.00000000000E+00  0.00000000000E+00  0.22906158787E+03  0.22906158787E+03  0.00000000000E+00 0.  1.
         13   -1    0    0    0    0 -0.00000000000E+00 -0.00000000000E+00 -0.27500000000E+03  0.27500000000E+03  0.00000000000E+00 0.  1.
    9000005    2    1    2  501    0  0.29487631169E+02  0.21483948105E+02 -0.47454850888E+02  0.46754611164E+03  0.46369852622E+03 0.  0.
         13    1    3    3    0    0 -0.20947657850E+03  0.60652296597E+02 -0.56303689696E+02  0.22523153309E+03  0.00000000000E+00 0.  1.
          1    1    3    3  501    0  0.23896420967E+03 -0.39168348492E+02  0.88488388081E+01  0.24231457855E+03  0.00000000000E+00 0.  1.
         21    1    1    2  502  501 -0.29487631169E+02 -0.21483948105E+02  0.15164387598E+01  0.36515476235E+02  0.00000000000E+00 0.  1.
<scales pt_clust_4="550.00000" pt_clust_5="550.00000" pt_clust_6="36.48397"></scales>
<mgrwt>
<rscale>  0 0.30000000E+03</rscale>
<asrwt>  1 0.36483975E+02</asrwt>
<pdfrwt beam="1">  1        1 0.83295123E+00 0.30000000E+03</pdfrwt>
<pdfrwt beam="2">0</pdfrwt>
<totfact> 0.55591262E-04</totfact>
</mgrwt>
<clustering>
<clus scale="   36.484">  1  6  2 -1</clus>
<clus scale="  463.699">  4  5 -1 -1</clus>
<clus scale="  300.000">  1  4  2 -1</clus>
</clustering>
</event>
<event>
 6    1  0.9843879E-012  0.3000000E+03  0.7818608E-02  0.1093470E+00
          1   -1    0    0  502    0  0.00000000000E+00  0.00000000000E+00  0.24797658011E+03  0.24797658011E+03  0.00000000000E+00 0.  1.
         13   -1    0    0    0    0 -0.00000000000E+00 -0.00000000000E+00 -0.27500000000E+03  0.27500000000E+03  0.00000000000E+00 0.  1.
    9000005    2    1    2  501    0 -0.56894491305E-01  0.48562245698E+02 -0.53581658513E+02  0.46762646735E+03  0.46200132455E+03 0.  0.
         13    1    3    3    0    0  0.91070682445E+02  0.23639041338E+03 -0.53233280077E+02  0.25885918729E+03  0.00000000000E+00 0.  1.
          3    1    3    3  501    0 -0.91127576936E+02 -0.18782816768E+03 -0.34837843581E+00  0.20876728005E+03  0.00000000000E+00 0.  1.
         21    1    1    2  502  501  0.56894491305E-01 -0.48562245698E+02  0.26558238624E+02  0.55350112765E+02  0.00000000000E+00 0.  1.
<scales pt_clust_4="550.00000" pt_clust_5="550.00000" pt_clust_6="48.56228"></scales>
<mgrwt>
<rscale>  0 0.30000000E+03</rscale>
<asrwt>  1 0.48562279E+02</asrwt>
<pdfrwt beam="1">  1        1 0.90173302E+00 0.30000000E+03</pdfrwt>
<pdfrwt beam="2">0</pdfrwt>
<totfact> 0.98674905E-05</totfact>
</mgrwt>
<clustering>
<clus scale="   48.562">  1  6  2 -1</clus>
<clus scale="  462.001">  4  5 -1 -1</clus>
<clus scale="  300.000">  1  4  2 -1</clus>
</clustering>
</event>
<event>
 6    1  0.9843879E-012  0.3000000E+03  0.7818608E-02  0.1093470E+00
          1   -1    0    0  502    0  0.00000000000E+00  0.00000000000E+00  0.23763502129E+03  0.23763502129E+03  0.00000000000E+00 0.  1.
         13   -1    0    0    0    0 -0.00000000000E+00 -0.00000000000E+00 -0.27500000000E+03  0.27500000000E+03  0.00000000000E+00 0.  1.
    9000005    2    1    2  501    0  0.17925442089E+02 -0.28119978408E+02 -0.70425211488E+02  0.46567723545E+03  0.45911166675E+03 0.  0.
         13    1    3    3    0    0 -0.45915362335E+02 -0.22178158931E+03  0.45653013630E+02  0.23104002145E+03  0.00000000000E+00 0.  1.
          3    1    3    3  501    0  0.63840804425E+02  0.19366161091E+03 -0.11607822512E+03  0.23463721400E+03  0.00000000000E+00 0.  1.
         21    1    1    2  502  501 -0.17925442089E+02  0.28119978408E+02  0.33060232775E+02  0.46957785839E+02  0.00000000000E+00 0.  1.
<scales pt_clust_4="550.00000" pt_clust_5="550.00000" pt_clust_6="33.34748"></scales>
<mgrwt>
<rscale>  0 0.30000000E+03</rscale>
<asrwt>  1 0.33347484E+02</asrwt>
<pdfrwt beam="1">  1        1 0.86412735E+00 0.30000000E+03</pdfrwt>
<pdfrwt beam="2">0</pdfrwt>
<totfact> 0.29462570E-04</totfact>
</mgrwt>
<clustering>
<clus scale="   33.347">  1  6  2 -1</clus>
<clus scale="  459.112">  4  5 -1 -1</clus>
<clus scale="  300.000">  1  4  2 -1</clus>
</clustering>
</event>
<event>
 6    1  0.9843879E-012  0.3000000E+03  0.7818608E-02  0.1093470E+00
          1   -1    0    0  502    0  0.00000000000E+00  0.00000000000E+00  0.23586098324E+03  0.23586098324E+03  0.00000000000E+00 0.  1.
         13   -1    0    0    0    0 -0.00000000000E+00 -0.00000000000E+00 -0.27500000000E+03  0.27500000000E+03  0.00000000000E+00 0.  1.
    9000005    2    1    2  501    0 -0.34334037085E+02  0.20233721883E+02 -0.65617467459E+02  0.46301395663E+03  0.45660490842E+03 0.  0.
         13    1    3    3    0    0  0.57791420340E+02 -0.10793814156E+03 -0.21388773572E+03  0.24645172785E+03  0.00000000000E+00 0.  1.
          3    1    3    3  501    0 -0.92125457425E+02  0.12817186345E+03  0.14827026826E+03  0.21656222878E+03  0.00000000000E+00 0.  1.
         21    1    1    2  502  501  0.34334037085E+02 -0.20233721883E+02  0.26478450696E+02  0.47847026606E+02  0.00000000000E+00 0.  1.
<scales pt_clust_4="550.00000" pt_clust_5="550.00000" pt_clust_6="39.85260"></scales>
<mgrwt>
<rscale>  0 0.30000000E+03</rscale>
<asrwt>  1 0.39852598E+02</asrwt>
<pdfrwt beam="1">  1        1 0.85767630E+00 0.30000000E+03</pdfrwt>
<pdfrwt beam="2">0</pdfrwt>
<totfact> 0.33410882E-04</totfact>
</mgrwt>
<clustering>
<clus scale="   39.853">  1  6  2 -1</clus>
<clus scale="  456.605">  4  5 -1 -1</clus>
<clus scale="  300.000">  1  4  2 -1</clus>
</clustering>
</event>
<event>
 6    1  0.9843879E-012  0.3000000E+03  0.7818608E-02  0.1093470E+00
          1   -1    0    0  502    0  0.00000000000E+00  0.00000000000E+00  0.23355292714E+03  0.23355292714E+03  0.00000000000E+00 0.  1.
         13   -1    0    0    0    0 -0.00000000000E+00 -0.00000000000E+00 -0.27500000000E+03  0.27500000000E+03  0.00000000000E+00 0.  1.
    9000005    2    1    2  501    0 -0.23951936670E+02  0.20820673882E+02 -0.60633101767E+02  0.47146789732E+03  0.46647444672E+03 0.  0.
         13    1    3    3    0    0 -0.31244330050E+02  0.13109104499E+03  0.16928141108E+03  0.21637297977E+03  0.00000000000E+00 0.  1.
          3    1    3    3  501    0  0.72923933792E+01 -0.11027037110E+03 -0.22991451285E+03  0.25509491756E+03  0.00000000000E+00 0.  1.
         21    1    1    2  502  501  0.23951936670E+02 -0.20820673882E+02  0.19186028906E+02  0.37085029815E+02  0.00000000000E+00 0. -1.
<scales pt_clust_4="550.00000" pt_clust_5="550.00000" pt_clust_6="31.73635"></scales>
<mgrwt>
<rscale>  0 0.30000000E+03</rscale>
<asrwt>  1 0.31736347E+02</asrwt>
<pdfrwt beam="1">  1        1 0.84928337E+00 0.30000000E+03</pdfrwt>
<pdfrwt beam="2">0</pdfrwt>
<totfact> 0.42101712E-04</totfact>
</mgrwt>
<clustering>
<clus scale="   31.736">  1  6  2 -1</clus>
<clus scale="  466.474">  4  5 -1 -1</clus>
<clus scale="  300.000">  1  4  2 -1</clus>
</clustering>
</event>
<event>
 6    1  0.9843879E-012  0.3000000E+03  0.7818608E-02  0.1093470E+00
          1   -1    0    0  502    0  0.00000000000E+00  0.00000000000E+00  0.23226907281E+03  0.23226907281E+03  0.00000000000E+00 0.  1.
         13   -1    0    0    0    0 -0.00000000000E+00 -0.00000000000E+00 -0.27500000000E+03  0.27500000000E+03  0.00000000000E+00 0.  1.
    9000005    2    1    2  501    0 -0.33429627215E+02 -0.10836479514E+02 -0.36574488018E+02  0.47159175498E+03  0.46885618363E+03 0.  0.
         13    1    3    3    0    0  0.94692806415E+02 -0.82710828864E+02  0.17410167558E+03  0.21475381775E+03  0.00000000000E+00 0.  1.
          1    1    3    3  501    0 -0.12812243363E+03  0.71874349349E+02 -0.21067616360E+03  0.25683793723E+03  0.00000000000E+00 0.  1.
         21    1    1    2  502  501  0.33429627215E+02  0.10836479514E+02 -0.61564391724E+01  0.35677317826E+02  0.00000000000E+00 0. -1.
<scales pt_clust_4="550.00000" pt_clust_5="550.00000" pt_clust_6="35.14215"></scales>
<mgrwt>
<rscale>  0 0.30000000E+03</rscale>
<asrwt>  1 0.35142147E+02</asrwt>
<pdfrwt beam="1">  1        1 0.84461481E+00 0.30000000E+03</pdfrwt>
<pdfrwt beam="2">0</pdfrwt>
<totfact> 0.45498340E-04</totfact>
</mgrwt>
<clustering>
<clus scale="   35.142">  1  6  2 -1</clus>
<clus scale="  468.856">  4  5 -1 -1</clus>
<clus scale="  300.000">  1  4  2 -1</clus>
</clustering>
</event>
<event>
 6    1  0.9843879E-012  0.3000000E+03  0.7818608E-02  0.1093470E+00
          1   -1    0    0  502    0  0.00000000000E+00  0.00000000000E+00  0.25043811347E+03  0.25043811347E+03  0.00000000000E+00 0.  1.
         13   -1    0    0    0    0 -0.00000000000E+00 -0.00000000000E+00 -0.27500000000E+03  0.27500000000E+03  0.00000000000E+00 0.  1.
    9000005    2    1    2  501    0 -0.25388341547E+01  0.32296264951E+02 -0.72890621771E+02  0.46725597653E+03  0.46039723115E+03 0.  0.
         13    1    3    3    0    0 -0.11593955196E+03 -0.18167236737E+03 -0.64455405777E+02  0.22494738964E+03  0.00000000000E+00 0.  1.
          1    1    3    3  501    0  0.11340071780E+03  0.21396863232E+03 -0.84352159944E+01  0.24230858689E+03  0.00000000000E+00 0.  1.
         21    1    1    2  502  501  0.25388341547E+01 -0.32296264951E+02  0.48328735240E+02  0.58182136937E+02  0.00000000000E+00 0.  1.
<scales pt_clust_4="550.00000" pt_clust_5="550.00000" pt_clust_6="32.39590"></scales>
<mgrwt>
<rscale>  0 0.30000000E+03</rscale>
<asrwt>  1 0.32395901E+02</asrwt>
<pdfrwt beam="1">  1        1 0.91068405E+00 0.30000000E+03</pdfrwt>
<pdfrwt beam="2">0</pdfrwt>
<totfact> 0.70151031E-05</totfact>
</mgrwt>
<clustering>
<clus scale="   32.396">  1  6  2 -1</clus>
<clus scale="  460.397">  4  5 -1 -1</clus>
<clus scale="  300.000">  1  4  2 -1</clus>
</clustering>
</event>
<event>
 6    1  0.9843879E-012  0.3000000E+03  0.7818608E-02  0.1093470E+00
          1   -1    0    0  502    0  0.00000000000E+00  0.00000000000E+00  0.24988920468E+03  0.24988920468E+03  0.00000000000E+00 0.  1.
         13   -1    0    0    0    0 -0.00000000000E+00 -0.00000000000E+00 -0.27500000000E+03  0.27500000000E+03  0.00000000000E+00 0.  1.
    9000005    2    1    2  501    0 -0.49970369519E+02 -0.13157261986E+02  0.14665255338E+02  0.45967965339E+03  0.45653057143E+03 0.  0.
         13    1    3    3    0    0 -0.23173100116E+03 -0.10481749251E+03  0.26868572204E+02  0.25574965065E+03  0.00000000000E+00 0.  1.
          1    1    3    3  501    0  0.18176063164E+03  0.91660230528E+02 -0.12203316866E+02  0.20393000274E+03  0.00000000000E+00 0.  1.
         21    1    1    2  502  501  0.49970369519E+02  0.13157261986E+02 -0.39776050663E+02  0.65209551288E+02  0.00000000000E+00 0. -1.
<scales pt_clust_4="550.00000" pt_clust_5="550.00000" pt_clust_6="51.67353"></scales>
<mgrwt>
<rscale>  0 0.30000000E+03</rscale>
<asrwt>  1 0.51673533E+02</asrwt>
<pdfrwt beam="1">  1        1 0.90868802E+00 0.30000000E+03</pdfrwt>
<pdfrwt beam="2">0</pdfrwt>
<totfact> 0.71974066E-05</totfact>
</mgrwt>
<clustering>
<clus scale="   51.674">  1  6  2 -1</clus>
<clus scale="  456.531">  4  5 -1 -1</clus>
<clus scale="  300.000">  1  4  2 -1</clus>
</clustering>
</event>
<event>
 6    1  0.9843879E-012  0.3000000E+03  0.7818608E-02  0.1093470E+00
          1   -1    0    0  502    0  0.00000000000E+00  0.00000000000E+00  0.22039895939E+03  0.22039895939E+03  0.00000000000E+00 0.  1.
         13   -1    0    0    0    0 -0.00000000000E+00 -0.00000000000E+00 -0.27500000000E+03  0.27500000000E+03  0.00000000000E+00 0.  1.
    9000005    2    1    2  501    0  0.45372113939E+01  0.33332843229E+02 -0.59837622250E+02  0.46135359976E+03  0.45621808190E+03 0.  0.
         13    1    3    3    0    0  0.47218651857E+02 -0.14904605271E+02  0.19361432392E+03  0.19984557730E+03  0.00000000000E+00 0.  1.
          1    1    3    3  501    0 -0.42681440464E+02  0.48237448501E+02 -0.25345194617E+03  0.26150802246E+03  0.00000000000E+00 0.  1.
         21    1    1    2  502  501 -0.45372113939E+01 -0.33332843229E+02  0.52365816433E+01  0.34045359629E+02  0.00000000000E+00 0. -1.
<scales pt_clust_4="550.00000" pt_clust_5="550.00000" pt_clust_6="33.64022"></scales>
<mgrwt>
<rscale>  0 0.30000000E+03</rscale>
<asrwt>  1 0.33640225E+02</asrwt>
<pdfrwt beam="1">  1        1 0.80145076E+00 0.30000000E+03</pdfrwt>
<pdfrwt beam="2">0</pdfrwt>
<totfact> 0.10197943E-03</totfact>
</mgrwt>
<clustering>
<clus scale="   33.640">  1  6  2 -1</clus>
<clus scale="  456.218">  4  5 -1 -1</clus>
<clus scale="  300.000">  1  4  2 -1</clus>
</clustering>
</event>
<event>
 6    1  0.9843879E-012  0.3000000E+03  0.7818608E-02  0.1093470E+00
          1   -1    0    0  502    0  0.00000000000E+00  0.00000000000E+00  0.23149029023E+03  0.23149029023E+03  0.00000000000E+00 0.  1.
         13   -1    0    0    0    0 -0.00000000000E+00 -0.00000000000E+00 -0.27500000000E+03  0.27500000000E+03  0.00000000000E+00 0.  1.
    9000005    2    1    2  501    0  0.30382046626E+02  0.44490496435E+01 -0.72587797053E+02  0.46420083575E+03  0.45746099816E+03 0.  0.
         13    1    3    3    0    0  0.10575610643E+03  0.21042661599E+03 -0.66764793421E+02  0.24478817864E+03  0.00000000000E+00 0.  1.
          1    1    3    3  501    0 -0.75374059803E+02 -0.20597756634E+03 -0.58230036322E+01  0.21941265711E+03  0.00000000000E+00 0.  1.
         21    1    1    2  502  501 -0.30382046626E+02 -0.44490496435E+01  0.29078087283E+02  0.42289454477E+02  0.00000000000E+00 0.  1.
<scales pt_clust_4="550.00000" pt_clust_5="550.00000" pt_clust_6="30.70607"></scales>
<mgrwt>
<rscale>  0 0.30000000E+03</rscale>
<asrwt>  1 0.30706071E+02</asrwt>
<pdfrwt beam="1">  1        1 0.84178287E+00 0.30000000E+03</pdfrwt>
<pdfrwt beam="2">0</pdfrwt>
<totfact> 0.49321672E-04</totfact>
</mgrwt>
<clustering>
<clus scale="   30.706">  1  6  2 -1</clus>
<clus scale="  457.461">  4  5 -1 -1</clus>
<clus scale="  300.000">  1  4  2 -1</clus>
</clustering>
</event>
<event>
 6    1  0.9843879E-012  0.3000000E+03  0.7818608E-02  0.1093470E+00
          1   -1    0    0  502    0  0.00000000000E+00  0.00000000000E+00  0.23227027307E+03  0.23227027307E+03  0.00000000000E+00 0.  1.
         13   -1    0    0    0    0 -0.00000000000E+00 -0.00000000000E+00 -0.27500000000E+03  0.27500000000E+03  0.00000000000E+00 0.  1.
    9000005    2    1    2  501    0  0.36200519039E+02 -0.18382101630E+02 -0.42165610420E+02  0.46666611729E+03  0.46298050401E+03 0.  0.
         13    1    3    3    0    0  0.10454269286E+03 -0.10291491543E+03  0.17225962151E+03  0.22626098128E+03  0.00000000000E+00 0.  1.
          1    1    3    3  501    0 -0.68342173822E+02  0.84532813804E+02 -0.21442523193E+03  0.24040513601E+03  0.00000000000E+00 0.  1.
         21    1    1    2  502  501 -0.36200519039E+02  0.18382101630E+02 -0.56411650779E+00  0.40604155778E+02  0.00000000000E+00 0. -1.
<scales pt_clust_4="550.00000" pt_clust_5="550.00000" pt_clust_6="40.60024"></scales>
<mgrwt>
<rscale>  0 0.30000000E+03</rscale>
<asrwt>  1 0.40600237E+02</asrwt>
<pdfrwt beam="1">  1        1 0.84461917E+00 0.30000000E+03</pdfrwt>
<pdfrwt beam="2">0</pdfrwt>
<totfact> 0.44298964E-04</totfact>
</mgrwt>
<clustering>
<clus scale="   40.600">  1  6  2 -1</clus>
<clus scale="  462.981">  4  5 -1 -1</clus>
<clus scale="  300.000">  1  4  2 -1</clus>
</clustering>
</event>
<event>
 6    1  0.9843879E-012  0.3000000E+03  0.7818608E-02  0.1093470E+00
          1   -1    0    0  502    0  0.00000000000E+00  0.00000000000E+00  0.22909312922E+03  0.22909312922E+03  0.00000000000E+00 0.  1.
         13   -1    0    0    0    0 -0.00000000000E+00 -0.00000000000E+00 -0.27500000000E+03  0.27500000000E+03  0.00000000000E+00 0.  1.
    9000005    2    1    2  501    0 -0.19092280757E+02  0.26193673259E+02 -0.58343924298E+02  0.46937564078E+03  0.46460612884E+03 0.  0.
         13    1    3    3    0    0 -0.52865522921E+02  0.23489004393E+03  0.25146474842E+02  0.24207528054E+03  0.00000000000E+00 0.  1.
          3    1    3    3  501    0  0.33773242164E+02 -0.20869637067E+03 -0.83490399140E+02  0.22730036024E+03  0.00000000000E+00 0.  1.
         21    1    1    2  502  501  0.19092280757E+02 -0.26193673259E+02  0.12437053523E+02  0.34717488441E+02  0.00000000000E+00 0.  1.
<scales pt_clust_4="550.00000" pt_clust_5="550.00000" pt_clust_6="32.41333"></scales>
<mgrwt>
<rscale>  0 0.30000000E+03</rscale>
<asrwt>  1 0.32413326E+02</asrwt>
<pdfrwt beam="1">  1        1 0.83306592E+00 0.30000000E+03</pdfrwt>
<pdfrwt beam="2">0</pdfrwt>
<totfact> 0.56726066E-04</totfact>
</mgrwt>
<clustering>
<clus scale="   32.413">  1  6  2 -1</clus>
<clus scale="  464.606">  4  5 -1 -1</clus>
<clus scale="  300.000">  1  4  2 -1</clus>
</clustering>
</event>
<event>
 6    1  0.9843879E-012  0.3000000E+03  0.7818608E-02  0.1093470E+00
          1   -1    0    0  502    0  0.00000000000E+00  0.00000000000E+00  0.24552030336E+03  0.24552030336E+03  0.00000000000E+00 0.  1.
         13   -1    0    0    0    0 -0.00000000000E+00 -0.00000000000E+00 -0.27500000000E+03  0.27500000000E+03  0.00000000000E+00 0.  1.
    9000005    2    1    2  501    0  0.34708531624E+02 -0.23585605621E+01 -0.23029108552E+02  0.48513873948E+03  0.48334150632E+03 0.  0.
         13    1    3    3    0    0  0.20212373244E+03 -0.15658807886E+03 -0.29772887560E+02  0.25741067284E+03  0.00000000000E+00 0.  1.
          1    1    3    3  501    0 -0.16741520082E+03  0.15422951830E+03  0.67437790077E+01  0.22772806664E+03  0.00000000000E+00 0.  1.
         21    1    1    2  502  501 -0.34708531624E+02  0.23585605621E+01 -0.64505880924E+01  0.35381563874E+02  0.00000000000E+00 0.  1.
<scales pt_clust_4="550.00000" pt_clust_5="550.00000" pt_clust_6="34.78859"></scales>
<mgrwt>
<rscale>  0 0.30000000E+03</rscale>
<asrwt>  1 0.34788593E+02</asrwt>
<pdfrwt beam="1">  1        1 0.89280110E+00 0.30000000E+03</pdfrwt>
<pdfrwt beam="2">0</pdfrwt>
<totfact> 0.13379936E-04</totfact>
</mgrwt>
<clustering>
<clus scale="   34.789">  1  6  2 -1</clus>
<clus scale="  483.342">  4  5 -1 -1</clus>
<clus scale="  300.000">  1  4  2 -1</clus>
</clustering>
</event>
<event>
 6    1  0.9843879E-012  0.3000000E+03  0.7818608E-02  0.1093470E+00
          1   -1    0    0  502    0  0.00000000000E+00  0.00000000000E+00  0.24088593341E+03  0.24088593341E+03  0.00000000000E+00 0.  1.
         13   -1    0    0    0    0 -0.00000000000E+00 -0.00000000000E+00 -0.27500000000E+03  0.27500000000E+03  0.00000000000E+00 0.  1.
    9000005    2    1    2  501    0 -0.16125910527E+02 -0.47157528426E+02 -0.32176306125E+02  0.46600976281E+03  0.46221846229E+03 0.  0.
         13    1    3    3    0    0 -0.22132728953E+03 -0.10031195134E+03 -0.64921355971E+02  0.25152144866E+03  0.00000000000E+00 0.  1.
          1    1    3    3  501    0  0.20520137901E+03  0.53154422911E+02  0.32745049847E+02  0.21448831416E+03  0.00000000000E+00 0.  1.
         21    1    1    2  502  501  0.16125910527E+02  0.47157528426E+02 -0.19377604655E+01  0.49876170595E+02  0.00000000000E+00 0.  1.
<scales pt_clust_4="550.00000" pt_clust_5="550.00000" pt_clust_6="49.83851"></scales>
<mgrwt>
<rscale>  0 0.30000000E+03</rscale>
<asrwt>  1 0.49838514E+02</asrwt>
<pdfrwt beam="1">  1        1 0.87594885E+00 0.30000000E+03</pdfrwt>
<pdfrwt beam="2">0</pdfrwt>
<totfact> 0.20611164E-04</totfact>
</mgrwt>
<clustering>
<clus scale="   49.839">  1  6  2 -1</clus>
<clus scale="  462.218">  4  5 -1 -1</clus>
<clus scale="  300.000">  1  4  2 -1</clus>
</clustering>
</event>
<event>
 6    1  0.9843879E-012  0.3000000E+03  0.7818608E-02  0.1093470E+00
          1   -1    0    0  502    0  0.00000000000E+00  0.00000000000E+00  0.24479757141E+03  0.24479757141E+03  0.00000000000E+00 0.  1.
         13   -1    0    0    0    0 -0.00000000000E+00 -0.00000000000E+00 -0.27500000000E+03  0.27500000000E+03  0.00000000000E+00 0.  1.
    9000005    2    1    2  501    0  0.80032758842E+00 -0.42650952525E+02 -0.48229866148E+02  0.47348631165E+03  0.46908786283E+03 0.  0.
         13    1    3    3    0    0  0.17939856375E+03 -0.13711551299E+03  0.73679192138E+02  0.23751448783E+03  0.00000000000E+00 0.  1.
          3    1    3    3  501    0 -0.17859823616E+03  0.94464560468E+02 -0.12190905829E+03  0.23597182382E+03  0.00000000000E+00 0.  1.
         21    1    1    2  502  501 -0.80032758842E+00  0.42650952525E+02  0.18027437559E+02  0.46311259759E+02  0.00000000000E+00 0. -1.
<scales pt_clust_4="550.00000" pt_clust_5="550.00000" pt_clust_6="42.65846"></scales>
<mgrwt>
<rscale>  0 0.30000000E+03</rscale>
<asrwt>  1 0.42658461E+02</asrwt>
<pdfrwt beam="1">  1        1 0.89017299E+00 0.30000000E+03</pdfrwt>
<pdfrwt beam="2">0</pdfrwt>
<totfact> 0.13904569E-04</totfact>
</mgrwt>
<clustering>
<clus scale="   42.658">  1  6  2 -1</clus>
<clus scale="  469.088">  4  5 -1 -1</clus>
<clus scale="  300.000">  1  4  2 -1</clus>
</clustering>
</event>
<event>
 6    1  0.9843879E-012  0.3000000E+03  0.7818608E-02  0.1093470E+00
          1   -1    0    0  502    0  0.00000000000E+00  0.00000000000E+00  0.24398813652E+03  0.24398813652E+03  0.00000000000E+00 0.  1.
         13   -1    0    0    0    0 -0.00000000000E+00 -0.00000000000E+00 -0.27500000000E+03  0.27500000000E+03  0.00000000000E+00 0.  1.
    9000005    2    1    2  501    0 -0.38300279030E+01 -0.54413035694E+02 -0.44823171031E+02  0.46271914165E+03  0.45730125718E+03 0.  0.
         13    1    3    3    0    0 -0.10123410754E+03 -0.15033397680E+03  0.14268515822E+03  0.23066795072E+03  0.00000000000E+00 0.  1.
          3    1    3    3  501    0  0.97404079642E+02  0.95920941108E+02 -0.18750832925E+03  0.23205119093E+03  0.00000000000E+00 0.  1.
         21    1    1    2  502  501  0.38300279030E+01  0.54413035694E+02  0.13811307547E+02  0.56268994867E+02  0.00000000000E+00 0. -1.
<scales pt_clust_4="550.00000" pt_clust_5="550.00000" pt_clust_6="54.54766"></scales>
<mgrwt>
<rscale>  0 0.30000000E+03</rscale>
<asrwt>  1 0.54547663E+02</asrwt>
<pdfrwt beam="1">  1        1 0.88722959E+00 0.30000000E+03</pdfrwt>
<pdfrwt beam="2">0</pdfrwt>
<totfact> 0.14599634E-04</totfact>
</mgrwt>
<clustering>
<clus scale="   54.548">  1  6  2 -1</clus>
<clus scale="  457.301">  4  5 -1 -1</clus>
<clus scale="  300.000">  1  4  2 -1</clus>
</clustering>
</event>
<event>
 6    1  0.9843879E-012  0.3000000E+03  0.7818608E-02  0.1093470E+00
          1   -1    0    0  502    0  0.00000000000E+00  0.00000000000E+00  0.23232155905E+03  0.23232155905E+03  0.00000000000E+00 0.  1.
         13   -1    0    0    0    0 -0.00000000000E+00 -0.00000000000E+00 -0.27500000000E+03  0.27500000000E+03  0.00000000000E+00 0.  1.
    9000005    2    1    2  501    0 -0.38449824318E+02 -0.22301816977E+02 -0.39077027018E+02  0.46272637755E+03  0.45892583977E+03 0.  0.
         13    1    3    3    0    0 -0.22381669195E+03  0.27073136457E+02 -0.11898322297E+03  0.25491934737E+03  0.00000000000E+00 0.  1.
          3    1    3    3  501    0  0.18536686763E+03 -0.49374953433E+02  0.79906195954E+02  0.20780703018E+03  0.00000000000E+00 0.  1.
         21    1    1    2  502  501  0.38449824318E+02  0.22301816977E+02 -0.36014139321E+01  0.44595181498E+02  0.00000000000E+00 0.  1.
<scales pt_clust_4="550.00000" pt_clust_5="550.00000" pt_clust_6="44.44952"></scales>
<mgrwt>
<rscale>  0 0.30000000E+03</rscale>
<asrwt>  1 0.44449522E+02</asrwt>
<pdfrwt beam="1">  1        1 0.84480567E+00 0.30000000E+03</pdfrwt>
<pdfrwt beam="2">0</pdfrwt>
<totfact> 0.43418185E-04</totfact>
</mgrwt>
<clustering>
<clus scale="   44.450">  1  6  2 -1</clus>
<clus scale="  458.926">  4  5 -1 -1</clus>
<clus scale="  300.000">  1  4  2 -1</clus>
</clustering>
</event>
<event>
 6    1  0.9843879E-012  0.3000000E+03  0.7818608E-02  0.1093470E+00
          1   -1    0    0  502    0  0.00000000000E+00  0.00000000000E+00  0.23400507916E+03  0.23400507916E+03  0.00000000000E+00 0.  1.
         13   -1    0    0    0    0 -0.00000000000E+00 -0.00000000000E+00 -0.27500000000E+03  0.27500000000E+03  0.00000000000E+00 0.  1.
    9000005    2    1    2  501    0  0.30753832702E+02  0.74190638678E+01 -0.25671496634E+02  0.47385329309E+03  0.47209858811E+03 0.  0.
         13    1    3    3    0    0 -0.55760821013E+02  0.40523405572E+02 -0.23502345565E+03  0.24492333548E+03  0.00000000000E+00 0.  1.
          3    1    3    3  501    0  0.86514653715E+02 -0.33104341705E+02  0.20935195901E+03  0.22892995761E+03  0.00000000000E+00 0.  1.
         21    1    1    2  502  501 -0.30753832702E+02 -0.74190638678E+01 -0.15323424205E+02  0.35151786070E+02  0.00000000000E+00 0. -1.
<scales pt_clust_4="550.00000" pt_clust_5="550.00000" pt_clust_6="31.63608"></scales>
<mgrwt>
<rscale>  0 0.30000000E+03</rscale>
<asrwt>  1 0.31636083E+02</asrwt>
<pdfrwt beam="1">  1        1 0.85092756E+00 0.30000000E+03</pdfrwt>
<pdfrwt beam="2">0</pdfrwt>
<totfact> 0.40655372E-04</totfact>
</mgrwt>
<clustering>
<clus scale="   31.636">  1  6  2 -1</clus>
<clus scale="  472.099">  4  5 -1 -1</clus>
<clus scale="  300.000">  1  4  2 -1</clus>
</clustering>
</event>
<event>
 6    1  0.9843879E-012  0.3000000E+03  0.7818608E-02  0.1093470E+00
          1   -1    0    0  502    0  0.00000000000E+00  0.00000000000E+00  0.24909825191E+03  0.24909825191E+03  0.00000000000E+00 0.  1.
         13   -1    0    0    0    0 -0.00000000000E+00 -0.00000000000E+00 -0.27500000000E+03  0.27500000000E+03  0.00000000000E+00 0.  1.
    9000005    2    1    2  501    0 -0.37342680064E+02 -0.25950819340E+02 -0.42457098942E+02  0.47570403304E+03  0.47161827893E+03 0.  0.
         13    1    3    3    0    0 -0.70088042630E+02  0.54824406689E+02  0.19954401304E+03  0.21848538264E+03  0.00000000000E+00 0.  1.
          3    1    3    3  501    0  0.32745362566E+02 -0.80775226029E+02 -0.24200111198E+03  0.25721865039E+03  0.00000000000E+00 0.  1.
         21    1    1    2  502  501  0.37342680064E+02  0.25950819340E+02  0.16555350854E+02  0.48394218876E+02  0.00000000000E+00 0.  1.
<scales pt_clust_4="550.00000" pt_clust_5="550.00000" pt_clust_6="45.47440"></scales>
<mgrwt>
<rscale>  0 0.30000000E+03</rscale>
<asrwt>  1 0.45474397E+02</asrwt>
<pdfrwt beam="1">  1        1 0.90581183E+00 0.30000000E+03</pdfrwt>
<pdfrwt beam="2">0</pdfrwt>
<totfact> 0.85000552E-05</totfact>
</mgrwt>
<clustering>
<clus scale="   45.474">  1  6  2 -1</clus>
<clus scale="  471.618">  4  5 -1 -1</clus>
<clus scale="  300.000">  1  4  2 -1</clus>
</clustering>
</event>
<event>
 6    1  0.9843879E-012  0.3000000E+03  0.7818608E-02  0.1093470E+00
          1   -1    0    0  502    0  0.00000000000E+00  0.00000000000E+00  0.22917771962E+03  0.22917771962E+03  0.00000000000E+00 0.  1.
         13   -1    0    0    0    0 -0.00000000000E+00 -0.00000000000E+00 -0.27500000000E+03  0.27500000000E+03  0.00000000000E+00 0.  1.
    9000005    2    1    2  501    0 -0.31442122129E+02 -0.21210905121E+02 -0.49080975603E+02  0.46611029739E+03  0.46196467141E+03 0.  0.
         13    1    3    3    0    0  0.15338604596E+03 -0.10326139552E+03  0.10430597521E+03  0.21229680017E+03  0.00000000000E+00 0.  1.
          3    1    3    3  501    0 -0.18482816809E+03  0.82050490396E+02 -0.15338695081E+03  0.25381349722E+03  0.00000000000E+00 0.  1.
         21    1    1    2  502  501  0.31442122129E+02  0.21210905121E+02  0.32586952180E+01  0.38067422221E+02  0.00000000000E+00 0.  1.
<scales pt_clust_4="550.00000" pt_clust_5="550.00000" pt_clust_6="37.92769"></scales>
<mgrwt>
<rscale>  0 0.30000000E+03</rscale>
<asrwt>  1 0.37927688E+02</asrwt>
<pdfrwt beam="1">  1        1 0.83337353E+00 0.30000000E+03</pdfrwt>
<pdfrwt beam="2">0</pdfrwt>
<totfact> 0.54791651E-04</totfact>
</mgrwt>
<clustering>
<clus scale="   37.928">  1  6  2 -1</clus>
<clus scale="  461.965">  4  5 -1 -1</clus>
<clus scale="  300.000">  1  4  2 -1</clus>
</clustering>
</event>
<event>
 6    1  0.9843879E-012  0.3000000E+03  0.7818608E-02  0.1093470E+00
          1   -1    0    0  502    0  0.00000000000E+00  0.00000000000E+00  0.22437954163E+03  0.22437954163E+03  0.00000000000E+00 0.  1.
         13   -1    0    0    0    0 -0.00000000000E+00 -0.00000000000E+00 -0.27500000000E+03  0.27500000000E+03  0.00000000000E+00 0.  1.
    9000005    2    1    2  501    0  0.32297576816E+02  0.13822394540E+02 -0.44044800610E+02  0.46363837022E+03  0.46020256607E+03 0.  0.
         13    1    3    3    0    0  0.94712905547E+02  0.21152322107E+03 -0.94471019501E+02  0.25027461129E+03  0.00000000000E+00 0.  1.
          1    1    3    3  501    0 -0.62415328731E+02 -0.19770082653E+03  0.50426218891E+02  0.21336375893E+03  0.00000000000E+00 0.  1.
         21    1    1    2  502  501 -0.32297576816E+02 -0.13822394540E+02 -0.65756577602E+01  0.35741171413E+02  0.00000000000E+00 0. -1.
<scales pt_clust_4="550.00000" pt_clust_5="550.00000" pt_clust_6="35.13109"></scales>
<mgrwt>
<rscale>  0 0.30000000E+03</rscale>
<asrwt>  1 0.35131087E+02</asrwt>
<pdfrwt beam="1">  1        1 0.81592561E+00 0.30000000E+03</pdfrwt>
<pdfrwt beam="2">0</pdfrwt>
<totfact> 0.78184588E-04</totfact>
</mgrwt>
<clustering>
<clus scale="   35.131">  1  6  2 -1</clus>
<clus scale="  460.203">  4  5 -1 -1</clus>
<clus scale="  300.000">  1  4  2 -1</clus>
</clustering>
</event>
<event>
 6    1  0.9843879E-012  0.3000000E+03  0.7818608E-02  0.1093470E+00
          1   -1    0    0  502    0  0.00000000000E+00  0.00000000000E+00  0.24305168772E+03  0.24305168772E+03  0.00000000000E+00 0.  1.
         13   -1    0    0    0    0 -0.00000000000E+00 -0.00000000000E+00 -0.27500000000E+03  0.27500000000E+03  0.00000000000E+00 0.  1.
    9000005    2    1    2  501    0 -0.22927243565E+01 -0.37053252268E+02 -0.13644644024E+02  0.47666057321E+03  0.47501676355E+03 0.  0.
         13    1    3    3    0    0 -0.16662211945E+03  0.15203083601E+03 -0.16143715736E+02  0.22613475041E+03  0.00000000000E+00 0.  1.
          3    1    3    3  501    0  0.16432939509E+03 -0.18908408827E+03  0.24990717119E+01  0.25052582280E+03  0.00000000000E+00 0.  1.
         21    1    1    2  502  501  0.22927243565E+01  0.37053252268E+02 -0.18303668256E+02  0.41391114509E+02  0.00000000000E+00 0. -1.
<scales pt_clust_4="550.00000" pt_clust_5="550.00000" pt_clust_6="37.12414"></scales>
<mgrwt>
<rscale>  0 0.30000000E+03</rscale>
<asrwt>  1 0.37124136E+02</asrwt>
<pdfrwt beam="1">  1        1 0.88382432E+00 0.30000000E+03</pdfrwt>
<pdfrwt beam="2">0</pdfrwt>
<totfact> 0.17415576E-04</totfact>
</mgrwt>
<clustering>
<clus scale="   37.124">  1  6  2 -1</clus>
<clus scale="  475.017">  4  5 -1 -1</clus>
<clus scale="  300.000">  1  4  2 -1</clus>
</clustering>
</event>
<event>
 6    1  0.9843879E-012  0.3000000E+03  0.7818608E-02  0.1093470E+00
          1   -1    0    0  502    0  0.00000000000E+00  0.00000000000E+00  0.22689914401E+03  0.22689914401E+03  0.00000000000E+00 0.  1.
         13   -1    0    0    0    0 -0.00000000000E+00 -0.00000000000E+00 -0.27500000000E+03  0.27500000000E+03  0.00000000000E+00 0.  1.
    9000005    2    1    2  501    0  0.22292156409E+02 -0.27040834669E+02 -0.55546913701E+02  0.46607190922E+03  0.46142108531E+03 0.  0.
         13    1    3    3    0    0 -0.31361080978E+02 -0.17309832434E+03 -0.19107572729E+03  0.25972385499E+03  0.00000000000E+00 0.  1.
          1    1    3    3  501    0  0.53653237387E+02  0.14605748968E+03  0.13552881359E+03  0.20634805423E+03  0.00000000000E+00 0.  1.
         21    1    1    2  502  501 -0.22292156409E+02  0.27040834669E+02  0.74460577110E+01  0.35827234786E+02  0.00000000000E+00 0. -1.
<scales pt_clust_4="550.00000" pt_clust_5="550.00000" pt_clust_6="35.04493"></scales>
<mgrwt>
<rscale>  0 0.30000000E+03</rscale>
<asrwt>  1 0.35044928E+02</asrwt>
<pdfrwt beam="1">  1        1 0.82508780E+00 0.30000000E+03</pdfrwt>
<pdfrwt beam="2">0</pdfrwt>
<totfact> 0.65183882E-04</totfact>
</mgrwt>
<clustering>
<clus scale="   35.045">  1  6  2 -1</clus>
<clus scale="  461.421">  4  5 -1 -1</clus>
<clus scale="  300.000">  1  4  2 -1</clus>
</clustering>
</event>
<event>
 6    1  0.9843879E-012  0.3000000E+03  0.7818608E-02  0.1093470E+00
          1   -1    0    0  502    0  0.00000000000E+00  0.00000000000E+00  0.23073382709E+03  0.23073382709E+03  0.00000000000E+00 0.  1.
         13   -1    0    0    0    0 -0.00000000000E+00 -0.00000000000E+00 -0.27500000000E+03  0.27500000000E+03  0.00000000000E+00 0.  1.
    9000005    2    1    2  501    0  0.15771687323E+02 -0.29950128572E+02 -0.56740877710E+02  0.46965925734E+03  0.46498874662E+03 0.  0.
         13    1    3    3    0    0 -0.18885147356E+03  0.10411167418E+03 -0.63930438315E+02  0.22492492238E+03  0.00000000000E+00 0.  1.
          1    1    3    3  501    0  0.20462316088E+03 -0.13406180276E+03  0.71895606055E+01  0.24473433496E+03  0.00000000000E+00 0.  1.
         21    1    1    2  502  501 -0.15771687323E+02  0.29950128572E+02  0.12474704796E+02  0.36074569745E+02  0.00000000000E+00 0.  1.
<scales pt_clust_4="550.00000" pt_clust_5="550.00000" pt_clust_6="33.84902"></scales>
<mgrwt>
<rscale>  0 0.30000000E+03</rscale>
<asrwt>  1 0.33849022E+02</asrwt>
<pdfrwt beam="1">  1        1 0.83903210E+00 0.30000000E+03</pdfrwt>
<pdfrwt beam="2">0</pdfrwt>
<totfact> 0.50868036E-04</totfact>
</mgrwt>
<clustering>
<clus scale="   33.849">  1  6  2 -1</clus>
<clus scale="  464.989">  4  5 -1 -1</clus>
<clus scale="  300.000">  1  4  2 -1</clus>
</clustering>
</event>
<event>
 6    1  0.9843879E-012  0.3000000E+03  0.7818608E-02  0.1093470E+00
          1   -1    0    0  502    0  0.00000000000E+00  0.00000000000E+00  0.22430711416E+03  0.22430711416E+03  0.00000000000E+00 0.  1.
         13   -1    0    0    0    0 -0.00000000000E+00 -0.00000000000E+00 -0.27500000000E+03  0.27500000000E+03  0.00000000000E+00 0.  1.
    9000005    2    1    2  501    0 -0.25330935602E+02 -0.20471691080E+02 -0.65390767734E+02  0.46357513736E+03  0.45778292785E+03 0.  0.
         13    1    3    3    0    0  0.11598321707E+03 -0.70089344263E+02 -0.21353938460E+03  0.25291044185E+03  0.00000000000E+00 0.  1.
          3    1    3    3  501    0 -0.14131415267E+03  0.49617653182E+02  0.14814861687E+03  0.21066469550E+03  0.00000000000E+00 0.  1.
         21    1    1    2  502  501  0.25330935602E+02  0.20471691080E+02  0.14697881894E+02  0.35731976804E+02  0.00000000000E+00 0.  1.
<scales pt_clust_4="550.00000" pt_clust_5="550.00000" pt_clust_6="32.56910"></scales>
<mgrwt>
<rscale>  0 0.30000000E+03</rscale>
<asrwt>  1 0.32569102E+02</asrwt>
<pdfrwt beam="1">  1        1 0.81566223E+00 0.30000000E+03</pdfrwt>
<pdfrwt beam="2">0</pdfrwt>
<totfact> 0.79699184E-04</totfact>
</mgrwt>
<clustering>
<clus scale="   32.569">  1  6  2 -1</clus>
<clus scale="  457.783">  4  5 -1 -1</clus>
<clus scale="  300.000">  1  4  2 -1</clus>
</clustering>
</event>
<event>
 6    1  0.9843879E-012  0.3000000E+03  0.7818608E-02  0.1093470E+00
          1   -1    0    0  502    0  0.00000000000E+00  0.00000000000E+00  0.24591067003E+03  0.24591067003E+03  0.00000000000E+00 0.  1.
         13   -1    0    0    0    0 -0.00000000000E+00 -0.00000000000E+00 -0.27500000000E+03  0.27500000000E+03  0.00000000000E+00 0.  1.
    9000005    2    1    2  501    0 -0.42341625595E+02  0.63662488025E+01  0.39128287744E+01  0.46685065835E+03  0.46486652341E+03 0.  0.
         13    1    3    3    0    0 -0.18390674260E+03 -0.12221259723E+03  0.11156144280E+03  0.24739354158E+03  0.00000000000E+00 0.  1.
          1    1    3    3  501    0  0.14156511701E+03  0.12857884603E+03 -0.10764861403E+03  0.21945711677E+03  0.00000000000E+00 0.  1.
         21    1    1    2  502  501  0.42341625595E+02 -0.63662488025E+01 -0.33002158741E+02  0.54060011685E+02  0.00000000000E+00 0.  1.
<scales pt_clust_4="550.00000" pt_clust_5="550.00000" pt_clust_6="42.81757"></scales>
<mgrwt>
<rscale>  0 0.30000000E+03</rscale>
<asrwt>  1 0.42817569E+02</asrwt>
<pdfrwt beam="1">  1        1 0.89422062E+00 0.30000000E+03</pdfrwt>
<pdfrwt beam="2">0</pdfrwt>
<totfact> 0.12399799E-04</totfact>
</mgrwt>
<clustering>
<clus scale="   42.818">  1  6  2 -1</clus>
<clus scale="  464.867">  4  5 -1 -1</clus>
<clus scale="  300.000">  1  4  2 -1</clus>
</clustering>
</event>
<event>
 6    1  0.9843879E-012  0.3000000E+03  0.7818608E-02  0.1093470E+00
          1   -1    0    0  502    0  0.00000000000E+00  0.00000000000E+00  0.22493727347E+03  0.22493727347E+03  0.00000000000E+00 0.  1.
         13   -1    0    0    0    0 -0.00000000000E+00 -0.00000000000E+00 -0.27500000000E+03  0.27500000000E+03  0.00000000000E+00 0.  1.
    9000005    2    1    2  501    0 -0.32097427451E+00  0.31563841830E+02 -0.53022443682E+02  0.46823334531E+03  0.46414944467E+03 0.  0.
         13    1    3    3    0    0  0.21824349567E+03  0.90635665984E+02 -0.28425822159E+01  0.23633266305E+03  0.00000000000E+00 0.  1.
          3    1    3    3  501    0 -0.21856446995E+03 -0.59071824154E+02 -0.50179861466E+02  0.23190068225E+03  0.00000000000E+00 0.  1.
         21    1    1    2  502  501  0.32097427451E+00 -0.31563841830E+02  0.29597171537E+01  0.31703928166E+02  0.00000000000E+00 0.  1.
<scales pt_clust_4="550.00000" pt_clust_5="550.00000" pt_clust_6="31.56547"></scales>
<mgrwt>
<rscale>  0 0.30000000E+03</rscale>
<asrwt>  1 0.31565474E+02</asrwt>
<pdfrwt beam="1">  1        1 0.81795372E+00 0.30000000E+03</pdfrwt>
<pdfrwt beam="2">0</pdfrwt>
<totfact> 0.76771577E-04</totfact>
</mgrwt>
<clustering>
<clus scale="   31.565">  1  6  2 -1</clus>
<clus scale="  464.149">  4  5 -1 -1</clus>
<clus scale="  300.000">  1  4  2 -1</clus>
</clustering>
</event>
<event>
 6    1  0.9843879E-012  0.3000000E+03  0.7818608E-02  0.1093470E+00
          1   -1    0    0  502    0  0.00000000000E+00  0.00000000000E+00  0.24924942874E+03  0.24924942874E+03  0.00000000000E+00 0.  1.
         13   -1    0    0    0    0 -0.00000000000E+00 -0.00000000000E+00 -0.27500000000E+03  0.27500000000E+03  0.00000000000E+00 0.  1.
    9000005    2    1    2  501    0  0.42073288560E+02  0.86563929633E+01 -0.22382474011E+02  0.48116301756E+03  0.47871889411E+03 0.  0.
         13    1    3    3    0    0 -0.14008067630E+03 -0.70251281973E+02  0.15098105000E+03  0.21760771115E+03  0.00000000000E+00 0.  1.
          3    1    3    3  501    0  0.18215396486E+03  0.78907674936E+02 -0.17336352401E+03  0.26355530641E+03  0.00000000000E+00 0.  1.
         21    1    1    2  502  501 -0.42073288560E+02 -0.86563929633E+01 -0.33680972465E+01  0.43086411181E+02  0.00000000000E+00 0.  1.
<scales pt_clust_4="550.00000" pt_clust_5="550.00000" pt_clust_6="42.95459"></scales>
<mgrwt>
<rscale>  0 0.30000000E+03</rscale>
<asrwt>  1 0.42954588E+02</asrwt>
<pdfrwt beam="1">  1        1 0.90636156E+00 0.30000000E+03</pdfrwt>
<pdfrwt beam="2">0</pdfrwt>
<totfact> 0.83690292E-05</totfact>
</mgrwt>
<clustering>
<clus scale="   42.955">  1  6  2 -1</clus>
<clus scale="  478.719">  4  5 -1 -1</clus>
<clus scale="  300.000">  1  4  2 -1</clus>
</clustering>
</event>
<event>
 6    1  0.9843879E-012  0.3000000E+03  0.7818608E-02  0.1093470E+00
          1   -1    0    0  502    0  0.00000000000E+00  0.00000000000E+00  0.22502404456E+03  0.22502404456E+03  0.00000000000E+00 0.  1.
         13   -1    0    0    0    0 -0.00000000000E+00 -0.00000000000E+00 -0.27500000000E+03  0.27500000000E+03  0.00000000000E+00 0.  1.
    9000005    2    1    2  501    0  0.32485329483E+02 -0.16770593637E+00 -0.41979561745E+02  0.46656859554E+03  0.46353926046E+03 0.  0.
         13    1    3    3    0    0  0.19797136359E+03  0.14083484239E+03  0.95213061098E+01  0.24314145863E+03  0.00000000000E+00 0.  1.
          1    1    3    3  501    0 -0.16548603411E+03 -0.14100254833E+03 -0.51500867855E+02  0.22342713692E+03  0.00000000000E+00 0.  1.
         21    1    1    2  502  501 -0.32485329483E+02  0.16770593637E+00 -0.79963936931E+01  0.33455449018E+02  0.00000000000E+00 0. -1.
<scales pt_clust_4="550.00000" pt_clust_5="550.00000" pt_clust_6="32.48578"></scales>
<mgrwt>
<rscale>  0 0.30000000E+03</rscale>
<asrwt>  1 0.32485779E+02</asrwt>
<pdfrwt beam="1">  1        1 0.81826925E+00 0.30000000E+03</pdfrwt>
<pdfrwt beam="2">0</pdfrwt>
<totfact> 0.75889956E-04</totfact>
</mgrwt>
<clustering>
<clus scale="   32.486">  1  6  2 -1</clus>
<clus scale="  463.539">  4  5 -1 -1</clus>
<clus scale="  300.000">  1  4  2 -1</clus>
</clustering>
</event>
<event>
 6    1  0.9843879E-012  0.3000000E+03  0.7818608E-02  0.1093470E+00
          1   -1    0    0  502    0  0.00000000000E+00  0.00000000000E+00  0.22624604562E+03  0.22624604562E+03  0.00000000000E+00 0.  1.
         13   -1    0    0    0    0 -0.00000000000E+00 -0.00000000000E+00 -0.27500000000E+03  0.27500000000E+03  0.00000000000E+00 0.  1.
    9000005    2    1    2  501    0  0.53694575819E+00  0.30382422798E+02 -0.69097552983E+02  0.46467772696E+03  0.45850576679E+03 0.  0.
         13    1    3    3    0    0 -0.21199321013E+03 -0.71573376976E+02 -0.30517784966E+02  0.22582117844E+03  0.00000000000E+00 0.  1.
          1    1    3    3  501    0  0.21253015589E+03  0.10195579977E+03 -0.38579768016E+02  0.23885654852E+03  0.00000000000E+00 0.  1.
         21    1    1    2  502  501 -0.53694575819E+00 -0.30382422798E+02  0.20343598606E+02  0.36568318666E+02  0.00000000000E+00 0. -1.
<scales pt_clust_4="550.00000" pt_clust_5="550.00000" pt_clust_6="30.38717"></scales>
<mgrwt>
<rscale>  0 0.30000000E+03</rscale>
<asrwt>  1 0.30387167E+02</asrwt>
<pdfrwt beam="1">  1        1 0.82271289E+00 0.30000000E+03</pdfrwt>
<pdfrwt beam="2">0</pdfrwt>
<totfact> 0.70320320E-04</totfact>
</mgrwt>
<clustering>
<clus scale="   30.387">  1  6  2 -1</clus>
<clus scale="  458.506">  4  5 -1 -1</clus>
<clus scale="  300.000">  1  4  2 -1</clus>
</clustering>
</event>
<event>
 6    1  0.9843879E-012  0.3000000E+03  0.7818608E-02  0.1093470E+00
          1   -1    0    0  502    0  0.00000000000E+00  0.00000000000E+00  0.21763093868E+03  0.21763093868E+03  0.00000000000E+00 0.  1.
         13   -1    0    0    0    0 -0.00000000000E+00 -0.00000000000E+00 -0.27500000000E+03  0.27500000000E+03  0.00000000000E+00 0.  1.
    9000005    2    1    2  501    0 -0.30766427614E+02 -0.43399792776E+01 -0.54669078524E+02  0.46144282563E+03  0.45713823368E+03 0.  0.
         13    1    3    3    0    0  0.59549171258E+02 -0.21336873358E+03  0.18438582768E+02  0.22228877974E+03  0.00000000000E+00 0.  1.
          1    1    3    3  501    0 -0.90315598872E+02  0.20902875430E+03 -0.73107661292E+02  0.23915404589E+03  0.00000000000E+00 0.  1.
         21    1    1    2  502  501  0.30766427614E+02  0.43399792776E+01 -0.26999827996E+01  0.31188113046E+02  0.00000000000E+00 0. -1.
<scales pt_clust_4="550.00000" pt_clust_5="550.00000" pt_clust_6="31.07102"></scales>
<mgrwt>
<rscale>  0 0.30000000E+03</rscale>
<asrwt>  1 0.31071023E+02</asrwt>
<pdfrwt beam="1">  1        1 0.79138523E+00 0.30000000E+03</pdfrwt>
<pdfrwt beam="2">0</pdfrwt>
<totfact> 0.12298806E-03</totfact>
</mgrwt>
<clustering>
<clus scale="   31.071">  1  6  2 -1</clus>
<clus scale="  457.138">  4  5 -1 -1</clus>
<clus scale="  300.000">  1  4  2 -1</clus>
</clustering>
</event>
<event>
 6    1  0.9843879E-012  0.3000000E+03  0.7818608E-02  0.1093470E+00
          1   -1    0    0  502    0  0.00000000000E+00  0.00000000000E+00  0.25260232389E+03  0.25260232389E+03  0.00000000000E+00 0.  1.
         13   -1    0    0    0    0 -0.00000000000E+00 -0.00000000000E+00 -0.27500000000E+03  0.27500000000E+03  0.00000000000E+00 0.  1.
    9000005    2    1    2  501    0  0.35096700899E+02 -0.44702196445E+01 -0.41426080818E+02  0.48742967818E+03  0.48437569068E+03 0.  0.
         13    1    3    3    0    0 -0.84018682384E+02  0.20600291264E+03  0.51480466872E+02  0.22835625123E+03  0.00000000000E+00 0.  1.
          1    1    3    3  501    0  0.11911538328E+03 -0.21047313229E+03 -0.92906547690E+02  0.25907342695E+03  0.00000000000E+00 0.  1.
         21    1    1    2  502  501 -0.35096700899E+02  0.44702196445E+01  0.19028404711E+02  0.40172645712E+02  0.00000000000E+00 0.  1.
<scales pt_clust_4="550.00000" pt_clust_5="550.00000" pt_clust_6="35.38024"></scales>
<mgrwt>
<rscale>  0 0.30000000E+03</rscale>
<asrwt>  1 0.35380239E+02</asrwt>
<pdfrwt beam="1">  1        1 0.91855391E+00 0.30000000E+03</pdfrwt>
<pdfrwt beam="2">0</pdfrwt>
<totfact> 0.44875753E-05</totfact>
</mgrwt>
<clustering>
<clus scale="   35.380">  1  6  2 -1</clus>
<clus scale="  484.376">  4  5 -1 -1</clus>
<clus scale="  300.000">  1  4  2 -1</clus>
</clustering>
</event>
<event>
 6    1  0.9843879E-012  0.3000000E+03  0.7818608E-02  0.1093470E+00
          1   -1    0    0  502    0  0.00000000000E+00  0.00000000000E+00  0.25048570595E+03  0.25048570595E+03  0.00000000000E+00 0.  1.
         13   -1    0    0    0    0 -0.00000000000E+00 -0.00000000000E+00 -0.27500000000E+03  0.27500000000E+03  0.00000000000E+00 0.  1.
    9000005    2    1    2  501    0 -0.85557923992E+00 -0.30767742486E+02 -0.65822647107E+02  0.47397098935E+03  0.46836790228E+03 0.  0.
         13    1    3    3    0    0  0.46686474496E+01  0.75408604361E+02 -0.25007768286E+03  0.26124146176E+03  0.00000000000E+00 0.  1.
          3    1    3    3  501    0 -0.55242266895E+01 -0.10617634685E+03  0.18425503575E+03  0.21272952759E+03  0.00000000000E+00 0.  1.
         21    1    1    2  502  501  0.85557923992E+00  0.30767742486E+02  0.41308353052E+02  0.51514716591E+02  0.00000000000E+00 0.  1.
<scales pt_clust_4="550.00000" pt_clust_5="550.00000" pt_clust_6="30.77964"></scales>
<mgrwt>
<rscale>  0 0.30000000E+03</rscale>
<asrwt>  1 0.30779636E+02</asrwt>
<pdfrwt beam="1">  1        1 0.91085711E+00 0.30000000E+03</pdfrwt>
<pdfrwt beam="2">0</pdfrwt>
<totfact> 0.70144215E-05</totfact>
</mgrwt>
<clustering>
<clus scale="   30.780">  1  6  2 -1</clus>
<clus scale="  468.368">  4  5 -1 -1</clus>
<clus scale="  300.000">  1  4  2 -1</clus>
</clustering>
</event>
<event>
 6    1  0.9843879E-012  0.3000000E+03  0.7818608E-02  0.1093470E+00
          1   -1    0    0  502    0  0.00000000000E+00  0.00000000000E+00  0.24405027285E+03  0.24405027285E+03  0.00000000000E+00 0.  1.
         13   -1    0    0    0    0 -0.00000000000E+00 -0.00000000000E+00 -0.27500000000E+03  0.27500000000E+03  0.00000000000E+00 0.  1.
    9000005    2    1    2  501    0 -0.21743850782E+02 -0.28124445503E+02 -0.12598416342E+02  0.47904339732E+03  0.47755635996E+03 0.  0.
         13    1    3    3    0    0  0.60999586587E+02 -0.21747615209E+03 -0.10926505173E+03  0.25090970053E+03  0.00000000000E+00 0.  1.
          1    1    3    3  501    0 -0.82743437369E+02  0.18935170659E+03  0.96666635387E+02  0.22813369679E+03  0.00000000000E+00 0.  1.
         21    1    1    2  502  501  0.21743850782E+02  0.28124445503E+02 -0.18351310805E+02  0.40006875533E+02  0.00000000000E+00 0.  1.
<scales pt_clust_4="550.00000" pt_clust_5="550.00000" pt_clust_6="35.54969"></scales>
<mgrwt>
<rscale>  0 0.30000000E+03</rscale>
<asrwt>  1 0.35549694E+02</asrwt>
<pdfrwt beam="1">  1        1 0.88745554E+00 0.30000000E+03</pdfrwt>
<pdfrwt beam="2">0</pdfrwt>
<totfact> 0.15652599E-04</totfact>
</mgrwt>
<clustering>
<clus scale="   35.550">  1  6  2 -1</clus>
<clus scale="  477.556">  4  5 -1 -1</clus>
<clus scale="  300.000">  1  4  2 -1</clus>
</clustering>
</event>
<event>
 6    1  0.9843879E-012  0.3000000E+03  0.7818608E-02  0.1093470E+00
          1   -1    0    0  502    0  0.00000000000E+00  0.00000000000E+00  0.22696735061E+03  0.22696735061E+03  0.00000000000E+00 0.  1.
         13   -1    0    0    0    0 -0.00000000000E+00 -0.00000000000E+00 -0.27500000000E+03  0.27500000000E+03  0.00000000000E+00 0.  1.
    9000005    2    1    2  501    0 -0.13220116599E+02 -0.28859328333E+02 -0.60759591281E+02  0.46776782774E+03  0.46271738721E+03 0.  0.
         13    1    3    3    0    0 -0.28296067282E+02  0.84748848069E+01 -0.26143232836E+03  0.26309571150E+03  0.00000000000E+00 0.  1.
          3    1    3    3  501    0  0.15075950683E+02 -0.37334213140E+02  0.20067273708E+03  0.20467211624E+03  0.00000000000E+00 0.  1.
         21    1    1    2  502  501  0.13220116599E+02  0.28859328333E+02  0.12726941896E+02  0.34199522873E+02  0.00000000000E+00 0. -1.
<scales pt_clust_4="550.00000" pt_clust_5="550.00000" pt_clust_6="31.74322"></scales>
<mgrwt>
<rscale>  0 0.30000000E+03</rscale>
<asrwt>  1 0.31743225E+02</asrwt>
<pdfrwt beam="1">  1        1 0.82533582E+00 0.30000000E+03</pdfrwt>
<pdfrwt beam="2">0</pdfrwt>
<totfact> 0.66075040E-04</totfact>
</mgrwt>
<clustering>
<clus scale="   31.743">  1  6  2 -1</clus>
<clus scale="  462.717">  4  5 -1 -1</clus>
<clus scale="  300.000">  1  4  2 -1</clus>
</clustering>
</event>
<event>
 6    1  0.9843879E-012  0.3000000E+03  0.7818608E-02  0.1093470E+00
          1   -1    0    0  502    0  0.00000000000E+00  0.00000000000E+00  0.23168392970E+03  0.23168392970E+03  0.00000000000E+00 0.  1.
         13   -1    0    0    0    0 -0.00000000000E+00 -0.00000000000E+00 -0.27500000000E+03  0.27500000000E+03  0.00000000000E+00 0.  1.
    9000005    2    1    2  501    0 -0.38566769821E+02  0.15017374510E+02 -0.49718080290E+02  0.46480430454E+03  0.46028060652E+03 0.  0.
         13    1    3    3    0    0  0.66773312113E+02 -0.17081501066E+03  0.95234309437E+02  0.20665434128E+03  0.00000000000E+00 0.  1.
          3    1    3    3  501    0 -0.10534008193E+03  0.18583238517E+03 -0.14495238973E+03  0.25814996325E+03  0.00000000000E+00 0.  1.
         21    1    1    2  502  501  0.38566769821E+02 -0.15017374510E+02  0.64020099854E+01  0.41879625159E+02  0.00000000000E+00 0.  1.
<scales pt_clust_4="550.00000" pt_clust_5="550.00000" pt_clust_6="41.38740"></scales>
<mgrwt>
<rscale>  0 0.30000000E+03</rscale>
<asrwt>  1 0.41387405E+02</asrwt>
<pdfrwt beam="1">  1        1 0.84248702E+00 0.30000000E+03</pdfrwt>
<pdfrwt beam="2">0</pdfrwt>
<totfact> 0.46029256E-04</totfact>
</mgrwt>
<clustering>
<clus scale="   41.387">  1  6  2 -1</clus>
<clus scale="  460.281">  4  5 -1 -1</clus>
<clus scale="  300.000">  1  4  2 -1</clus>
</clustering>
</event>
<event>
 6    1  0.9843879E-012  0.3000000E+03  0.7818608E-02  0.1093470E+00
          1   -1    0    0  502    0  0.00000000000E+00  0.00000000000E+00  0.23708181753E+03  0.23708181753E+03  0.00000000000E+00 0.  1.
         13   -1    0    0    0    0 -0.00000000000E+00 -0.00000000000E+00 -0.27500000000E+03  0.27500000000E+03  0.00000000000E+00 0.  1.
    9000005    2    1    2  501    0  0.28805961853E+02  0.13308897802E+02 -0.68183002056E+02  0.46823128158E+03  0.46215224881E+03 0.  0.
         13    1    3    3    0    0 -0.67781047514E+01  0.21301733900E+03  0.68225365225E+02  0.22377897550E+03  0.00000000000E+00 0.  1.
          1    1    3    3  501    0  0.35584066605E+02 -0.19970844119E+03 -0.13640836728E+03  0.24445230607E+03  0.00000000000E+00 0.  1.
         21    1    1    2  502  501 -0.28805961853E+02 -0.13308897802E+02  0.30264819588E+02  0.43850535957E+02  0.00000000000E+00 0.  1.
<scales pt_clust_4="550.00000" pt_clust_5="550.00000" pt_clust_6="31.73185"></scales>
<mgrwt>
<rscale>  0 0.30000000E+03</rscale>
<asrwt>  1 0.31731848E+02</asrwt>
<pdfrwt beam="1">  1        1 0.86211570E+00 0.30000000E+03</pdfrwt>
<pdfrwt beam="2">0</pdfrwt>
<totfact> 0.31269492E-04</totfact>
</mgrwt>
<clustering>
<clus scale="   31.732">  1  6  2 -1</clus>
<clus scale="  462.152">  4  5 -1 -1</clus>
<clus scale="  300.000">  1  4  2 -1</clus>
</clustering>
</event>
<event>
 6    1  0.9843879E-012  0.3000000E+03  0.7818608E-02  0.1093470E+00
          1   -1    0    0  502    0  0.00000000000E+00  0.00000000000E+00  0.22265807669E+03  0.22265807669E+03  0.00000000000E+00 0.  1.
         13   -1    0    0    0    0 -0.00000000000E+00 -0.00000000000E+00 -0.27500000000E+03  0.27500000000E+03  0.00000000000E+00 0.  1.
    9000005    2    1    2  501    0 -0.28384623913E+02  0.14214197994E+02 -0.66790934269E+02  0.46277965618E+03  0.45683284796E+03 0.  0.
         13    1    3    3    0    0 -0.20719459386E+03  0.73797214869E+02  0.68963689204E+02  0.23050296978E+03  0.00000000000E+00 0.  1.
          3    1    3    3  501    0  0.17880996995E+03 -0.59583016874E+02 -0.13575462347E+03  0.23227668641E+03  0.00000000000E+00 0.  1.
         21    1    1    2  502  501  0.28384623913E+02 -0.14214197994E+02  0.14449010960E+02  0.34878420507E+02  0.00000000000E+00 0. -1.
<scales pt_clust_4="550.00000" pt_clust_5="550.00000" pt_clust_6="31.74477"></scales>
<mgrwt>
<rscale>  0 0.30000000E+03</rscale>
<asrwt>  1 0.31744768E+02</asrwt>
<pdfrwt beam="1">  1        1 0.80966573E+00 0.30000000E+03</pdfrwt>
<pdfrwt beam="2">0</pdfrwt>
<totfact> 0.89370599E-04</totfact>
</mgrwt>
<clustering>
<clus scale="   31.745">  1  6  2 -1</clus>
<clus scale="  456.833">  4  5 -1 -1</clus>
<clus scale="  300.000">  1  4  2 -1</clus>
</clustering>
</event>
<event>
 6    1  0.9843879E-012  0.3000000E+03  0.7818608E-02  0.1093470E+00
          1   -1    0    0  502    0  0.00000000000E+00  0.00000000000E+00  0.22646335821E+03  0.22646335821E+03  0.00000000000E+00 0.  1.
         13   -1    0    0    0    0 -0.00000000000E+00 -0.00000000000E+00 -0.27500000000E+03  0.27500000000E+03  0.00000000000E+00 0.  1.
    9000005    2    1    2  501    0 -0.73330998031E+01 -0.39518064577E+02 -0.51426280884E+02  0.46116693411E+03  0.45652472767E+03 0.  0.
         13    1    3    3    0    0  0.14770789939E+03  0.14964979130E+03  0.43044958606E+01  0.21031217812E+03  0.00000000000E+00 0.  1.
          1    1    3    3  501    0 -0.15504099919E+03 -0.18916785588E+03 -0.55730776745E+02  0.25085475600E+03  0.00000000000E+00 0.  1.
         21    1    1    2  502  501  0.73330998031E+01  0.39518064577E+02  0.28896390917E+01  0.40296424093E+02  0.00000000000E+00 0.  1.
<scales pt_clust_4="550.00000" pt_clust_5="550.00000" pt_clust_6="40.19268"></scales>
<mgrwt>
<rscale>  0 0.30000000E+03</rscale>
<asrwt>  1 0.40192683E+02</asrwt>
<pdfrwt beam="1">  1        1 0.82350312E+00 0.30000000E+03</pdfrwt>
<pdfrwt beam="2">0</pdfrwt>
<totfact> 0.65660789E-04</totfact>
</mgrwt>
<clustering>
<clus scale="   40.193">  1  6  2 -1</clus>
<clus scale="  456.525">  4  5 -1 -1</clus>
<clus scale="  300.000">  1  4  2 -1</clus>
</clustering>
</event>
<event>
 6    1  0.9843879E-012  0.3000000E+03  0.7818608E-02  0.1093470E+00
          1   -1    0    0  502    0  0.00000000000E+00  0.00000000000E+00  0.22482696447E+03  0.22482696447E+03  0.00000000000E+00 0.  1.
         13   -1    0    0    0    0 -0.00000000000E+00 -0.00000000000E+00 -0.27500000000E+03  0.27500000000E+03  0.00000000000E+00 0.  1.
    9000005    2    1    2  501    0  0.16089060528E+02  0.29529597627E+02 -0.65784219465E+02  0.46275185060E+03  0.45681599873E+03 0.  0.
         13    1    3    3    0    0 -0.10811014626E+03 -0.15096680686E+03 -0.13877663217E+03  0.23181400763E+03  0.00000000000E+00 0.  1.
          1    1    3    3  501    0  0.12419920679E+03  0.18049640449E+03  0.72992412706E+02  0.23093784296E+03  0.00000000000E+00 0.  1.
         21    1    1    2  502  501 -0.16089060528E+02 -0.29529597627E+02  0.15611183933E+02  0.37075113870E+02  0.00000000000E+00 0. -1.
<scales pt_clust_4="550.00000" pt_clust_5="550.00000" pt_clust_6="33.62819"></scales>
<mgrwt>
<rscale>  0 0.30000000E+03</rscale>
<asrwt>  1 0.33628188E+02</asrwt>
<pdfrwt beam="1">  1        1 0.81755260E+00 0.30000000E+03</pdfrwt>
<pdfrwt beam="2">0</pdfrwt>
<totfact> 0.76440566E-04</totfact>
</mgrwt>
<clustering>
<clus scale="   33.628">  1  6  2 -1</clus>
<clus scale="  456.816">  4  5 -1 -1</clus>
<clus scale="  300.000">  1  4  2 -1</clus>
</clustering>
</event>
<event>
 6    1  0.9843879E-012  0.3000000E+03  0.7818608E-02  0.1093470E+00
          1   -1    0    0  502    0  0.00000000000E+00  0.00000000000E+00  0.23118186291E+03  0.23118186291E+03  0.00000000000E+00 0.  1.
         13   -1    0    0    0    0 -0.00000000000E+00 -0.00000000000E+00 -0.27500000000E+03  0.27500000000E+03  0.00000000000E+00 0.  1.
    9000005    2    1    2  501    0  0.31836047139E+02  0.31726326120E+00 -0.60528614944E+02  0.47022529712E+03  0.46522519522E+03 0.  0.
         13    1    3    3    0    0  0.23398565442E+03 -0.79745814749E+02 -0.12264380673E+02  0.24750575039E+03  0.00000000000E+00 0.  1.
          3    1    3    3  501    0 -0.20214960728E+03  0.80063078010E+02 -0.48264234270E+02  0.22271954673E+03  0.00000000000E+00 0.  1.
         21    1    1    2  502  501 -0.31836047139E+02 -0.31726326120E+00  0.16710477857E+02  0.35956565793E+02  0.00000000000E+00 0. -1.
<scales pt_clust_4="550.00000" pt_clust_5="550.00000" pt_clust_6="31.83763"></scales>
<mgrwt>
<rscale>  0 0.30000000E+03</rscale>
<asrwt>  1 0.31837628E+02</asrwt>
<pdfrwt beam="1">  1        1 0.84066132E+00 0.30000000E+03</pdfrwt>
<pdfrwt beam="2">0</pdfrwt>
<totfact> 0.50006328E-04</totfact>
</mgrwt>
<clustering>
<clus scale="   31.838">  1  6  2 -1</clus>
<clus scale="  465.225">  4  5 -1 -1</clus>
<clus scale="  300.000">  1  4  2 -1</clus>
</clustering>
</event>
<event>
 6    1  0.9843879E-012  0.3000000E+03  0.7818608E-02  0.1093470E+00
          1   -1    0    0  502    0  0.00000000000E+00  0.00000000000E+00  0.23878900177E+03  0.23878900177E+03  0.00000000000E+00 0.  1.
         13   -1    0    0    0    0 -0.00000000000E+00 -0.00000000000E+00 -0.27500000000E+03  0.27500000000E+03  0.00000000000E+00 0.  1.
    9000005    2    1    2  501    0  0.29050510947E+01  0.30713339028E+02 -0.42749315530E+02  0.48225333768E+03  0.47936314962E+03 0.  0.
         13    1    3    3    0    0  0.59661791292E+02  0.23458762625E+03  0.56418250728E+02  0.24854356308E+03  0.00000000000E+00 0.  1.
          3    1    3    3  501    0 -0.56756740197E+02 -0.20387428723E+03 -0.99167566258E+02  0.23370977461E+03  0.00000000000E+00 0.  1.
         21    1    1    2  502  501 -0.29050510947E+01 -0.30713339028E+02  0.65383172981E+01  0.31535664084E+02  0.00000000000E+00 0. -1.
<scales pt_clust_4="550.00000" pt_clust_5="550.00000" pt_clust_6="30.85042"></scales>
<mgrwt>
<rscale>  0 0.30000000E+03</rscale>
<asrwt>  1 0.30850422E+02</asrwt>
<pdfrwt beam="1">  1        1 0.86832364E+00 0.30000000E+03</pdfrwt>
<pdfrwt beam="2">0</pdfrwt>
<totfact> 0.26987327E-04</totfact>
</mgrwt>
<clustering>
<clus scale="   30.850">  1  6  2 -1</clus>
<clus scale="  479.363">  4  5 -1 -1</clus>
<clus scale="  300.000">  1  4  2 -1</clus>
</clustering>
</event>
<event>
 6    1  0.9843879E-012  0.3000000E+03  0.7818608E-02  0.1093470E+00
          1   -1    0    0  502    0  0.00000000000E+00  0.00000000000E+00  0.24380005430E+03  0.24380005430E+03  0.00000000000E+00 0.  1.
         13   -1    0    0    0    0 -0.00000000000E+00 -0.00000000000E+00 -0.27500000000E+03  0.27500000000E+03  0.00000000000E+00 0.  1.
    9000005    2    1    2  501    0 -0.34412587994E+02 -0.38256886460E+02 -0.46083643844E+02  0.46523383319E+03  0.46007716933E+03 0.  0.
         13    1    3    3    0    0  0.12483237050E+03  0.15154256601E+03  0.44714299410E+02  0.20136444227E+03  0.00000000000E+00 0.  1.
          1    1    3    3  501    0 -0.15924495849E+03 -0.18979945247E+03 -0.90797943254E+02  0.26386939092E+03  0.00000000000E+00 0.  1.
         21    1    1    2  502  501  0.34412587994E+02  0.38256886460E+02  0.14883698149E+02  0.53566221116E+02  0.00000000000E+00 0.  1.
<scales pt_clust_4="550.00000" pt_clust_5="550.00000" pt_clust_6="51.45693"></scales>
<mgrwt>
<rscale>  0 0.30000000E+03</rscale>
<asrwt>  1 0.51456929E+02</asrwt>
<pdfrwt beam="1">  1        1 0.88654565E+00 0.30000000E+03</pdfrwt>
<pdfrwt beam="2">0</pdfrwt>
<totfact> 0.15072548E-04</totfact>
</mgrwt>
<clustering>
<clus scale="   51.457">  1  6  2 -1</clus>
<clus scale="  460.077">  4  5 -1 -1</clus>
<clus scale="  300.000">  1  4  2 -1</clus>
</clustering>
</event>
<event>
 6    1  0.9843879E-012  0.3000000E+03  0.7818608E-02  0.1093470E+00
          1   -1    0    0  502    0  0.00000000000E+00  0.00000000000E+00  0.22569272395E+03  0.22569272395E+03  0.00000000000E+00 0.  1.
         13   -1    0    0    0    0 -0.00000000000E+00 -0.00000000000E+00 -0.27500000000E+03  0.27500000000E+03  0.00000000000E+00 0.  1.
    9000005    2    1    2  501    0 -0.27911724813E+02 -0.18887514155E+02 -0.42039718165E+02  0.46621635566E+03  0.46309237718E+03 0.  0.
         13    1    3    3    0    0 -0.13847032244E+02 -0.16451080877E+03 -0.19436264394E+03  0.25501447776E+03  0.00000000000E+00 0.  1.
          3    1    3    3  501    0 -0.14064692568E+02  0.14562329461E+03  0.15232292578E+03  0.21120187790E+03  0.00000000000E+00 0.  1.
         21    1    1    2  502  501  0.27911724813E+02  0.18887514155E+02 -0.72675578865E+01  0.34476368292E+02  0.00000000000E+00 0.  1.
<scales pt_clust_4="550.00000" pt_clust_5="550.00000" pt_clust_6="33.70169"></scales>
<mgrwt>
<rscale>  0 0.30000000E+03</rscale>
<asrwt>  1 0.33701687E+02</asrwt>
<pdfrwt beam="1">  1        1 0.82070081E+00 0.30000000E+03</pdfrwt>
<pdfrwt beam="2">0</pdfrwt>
<totfact> 0.71828424E-04</totfact>
</mgrwt>
<clustering>
<clus scale="   33.702">  1  6  2 -1</clus>
<clus scale="  463.092">  4  5 -1 -1</clus>
<clus scale="  300.000">  1  4  2 -1</clus>
</clustering>
</event>
<event>
 6    1  0.9843879E-012  0.3000000E+03  0.7818608E-02  0.1093470E+00
          1   -1    0    0  502    0  0.00000000000E+00  0.00000000000E+00  0.23909304182E+03  0.23909304182E+03  0.00000000000E+00 0.  1.
         13   -1    0    0    0    0 -0.00000000000E+00 -0.00000000000E+00 -0.27500000000E+03  0.27500000000E+03  0.00000000000E+00 0.  1.
    9000005    2    1    2  501    0 -0.35418266054E+02 -0.11312836892E+02 -0.48905356275E+02  0.47470532544E+03  0.47071326546E+03 0.  0.
         13    1    3    3    0    0 -0.21015151294E+03  0.94231822516E+02 -0.11853031888E+03  0.25902264622E+03  0.00000000000E+00 0.  1.
          1    1    3    3  501    0  0.17473324688E+03 -0.10554465941E+03  0.69624962601E+02  0.21568267921E+03  0.00000000000E+00 0.  1.
         21    1    1    2  502  501  0.35418266054E+02  0.11312836892E+02  0.12998398096E+02  0.39387716383E+02  0.00000000000E+00 0. -1.
<scales pt_clust_4="550.00000" pt_clust_5="550.00000" pt_clust_6="37.18110"></scales>
<mgrwt>
<rscale>  0 0.30000000E+03</rscale>
<asrwt>  1 0.37181095E+02</asrwt>
<pdfrwt beam="1">  1        1 0.86942924E+00 0.30000000E+03</pdfrwt>
<pdfrwt beam="2">0</pdfrwt>
<totfact> 0.25381240E-04</totfact>
</mgrwt>
<clustering>
<clus scale="   37.181">  1  6  2 -1</clus>
<clus scale="  470.713">  4  5 -1 -1</clus>
<clus scale="  300.000">  1  4  2 -1</clus>
</clustering>
</event>
<event>
 6    1  0.9843879E-012  0.3000000E+03  0.7818608E-02  0.1093470E+00
          1   -1    0    0  502    0  0.00000000000E+00  0.00000000000E+00  0.23452777042E+03  0.23452777042E+03  0.00000000000E+00 0.  1.
         13   -1    0    0    0    0 -0.00000000000E+00 -0.00000000000E+00 -0.27500000000E+03  0.27500000000E+03  0.00000000000E+00 0.  1.
    9000005    2    1    2  501    0  0.69538954092E+01  0.32803783122E+02 -0.71081709403E+02  0.46412529138E+03  0.45742237793E+03 0.  0.
         13    1    3    3    0    0  0.48037058700E+02 -0.31393717340E+02 -0.25692723379E+03  0.26325791148E+03  0.00000000000E+00 0.  1.
          1    1    3    3  501    0 -0.41083163291E+02  0.64197500461E+02  0.18584552438E+03  0.20086737989E+03  0.00000000000E+00 0.  1.
         21    1    1    2  502  501 -0.69538954092E+01 -0.32803783122E+02  0.30609479827E+02  0.45402479048E+02  0.00000000000E+00 0.  1.
<scales pt_clust_4="550.00000" pt_clust_5="550.00000" pt_clust_6="33.53274"></scales>
<mgrwt>
<rscale>  0 0.30000000E+03</rscale>
<asrwt>  1 0.33532743E+02</asrwt>
<pdfrwt beam="1">  1        1 0.85282826E+00 0.30000000E+03</pdfrwt>
<pdfrwt beam="2">0</pdfrwt>
<totfact> 0.38561203E-04</totfact>
</mgrwt>
<clustering>
<clus scale="   33.533">  1  6  2 -1</clus>
<clus scale="  457.422">  4  5 -1 -1</clus>
<clus scale="  300.000">  1  4  2 -1</clus>
</clustering>
</event>
<event>
 6    1  0.9843879E-012  0.3000000E+03  0.7818608E-02  0.1093470E+00
          1   -1    0    0  502    0  0.00000000000E+00  0.00000000000E+00  0.22956663274E+03  0.22956663274E+03  0.00000000000E+00 0.  1.
         13   -1    0    0    0    0 -0.00000000000E+00 -0.00000000000E+00 -0.27500000000E+03  0.27500000000E+03  0.00000000000E+00 0.  1.
    9000005    2    1    2  501    0 -0.30327330475E+02 -0.16842800777E+02 -0.63570245850E+02  0.46542109306E+03  0.45975231462E+03 0.  0.
         13    1    3    3    0    0 -0.19976146646E+03  0.92409579500E+02 -0.12695257361E+03  0.25408882268E+03  0.00000000000E+00 0.  1.
          1    1    3    3  501    0  0.16943413598E+03 -0.10925238028E+03  0.63382327755E+02  0.21133227038E+03  0.00000000000E+00 0.  1.
         21    1    1    2  502  501  0.30327330475E+02  0.16842800777E+02  0.18136878589E+02  0.39145539678E+02  0.00000000000E+00 0. -1.
<scales pt_clust_4="550.00000" pt_clust_5="550.00000" pt_clust_6="34.69044"></scales>
<mgrwt>
<rscale>  0 0.30000000E+03</rscale>
<asrwt>  1 0.34690444E+02</asrwt>
<pdfrwt beam="1">  1        1 0.83478776E+00 0.30000000E+03</pdfrwt>
<pdfrwt beam="2">0</pdfrwt>
<totfact> 0.54382958E-04</totfact>
</mgrwt>
<clustering>
<clus scale="   34.690">  1  6  2 -1</clus>
<clus scale="  459.752">  4  5 -1 -1</clus>
<clus scale="  300.000">  1  4  2 -1</clus>
</clustering>
</event>
<event>
 6    1  0.9843879E-012  0.3000000E+03  0.7818608E-02  0.1093470E+00
          1   -1    0    0  502    0  0.00000000000E+00  0.00000000000E+00  0.21949868888E+03  0.21949868888E+03  0.00000000000E+00 0.  1.
         13   -1    0    0    0    0 -0.00000000000E+00 -0.00000000000E+00 -0.27500000000E+03  0.27500000000E+03  0.00000000000E+00 0.  1.
    9000005    2    1    2  501    0  0.15954319090E+02 -0.28759471563E+02 -0.58399043616E+02  0.46148286910E+03  0.45658990645E+03 0.  0.
         13    1    3    3    0    0  0.17977191376E+03  0.55647516426E+02  0.10473207690E+03  0.21536804543E+03  0.00000000000E+00 0.  1.
          3    1    3    3  501    0 -0.16381759467E+03 -0.84406987990E+02 -0.16313112052E+03  0.24611482366E+03  0.00000000000E+00 0.  1.
         21    1    1    2  502  501 -0.15954319090E+02  0.28759471563E+02  0.28977324943E+01  0.33015819781E+02  0.00000000000E+00 0.  1.
<scales pt_clust_4="550.00000" pt_clust_5="550.00000" pt_clust_6="32.88841"></scales>
<mgrwt>
<rscale>  0 0.30000000E+03</rscale>
<asrwt>  1 0.32888410E+02</asrwt>
<pdfrwt beam="1">  1        1 0.79817705E+00 0.30000000E+03</pdfrwt>
<pdfrwt beam="2">0</pdfrwt>
<totfact> 0.10816131E-03</totfact>
</mgrwt>
<clustering>
<clus scale="   32.888">  1  6  2 -1</clus>
<clus scale="  456.590">  4  5 -1 -1</clus>
<clus scale="  300.000">  1  4  2 -1</clus>
</clustering>
</event>
<event>
 6    1  0.9843879E-012  0.3000000E+03  0.7818608E-02  0.1093470E+00
          1   -1    0    0  502    0  0.00000000000E+00  0.00000000000E+00  0.22155783222E+03  0.22155783222E+03  0.00000000000E+00 0.  1.
         13   -1    0    0    0    0 -0.00000000000E+00 -0.00000000000E+00 -0.27500000000E+03  0.27500000000E+03  0.00000000000E+00 0.  1.
    9000005    2    1    2  501    0 -0.18973459008E+02 -0.28191605554E+02 -0.55661959166E+02  0.46250366589E+03  0.45788276719E+03 0.  0.
         13    1    3    3    0    0  0.14675052694E+03  0.15193221084E+03  0.11419536045E+01  0.21123545609E+03  0.00000000000E+00 0.  1.
          1    1    3    3  501    0 -0.16572398595E+03 -0.18012381640E+03 -0.56803912770E+02  0.25126820981E+03  0.00000000000E+00 0.  1.
         21    1    1    2  502  501  0.18973459008E+02  0.28191605554E+02  0.22197913830E+01  0.34054166327E+02  0.00000000000E+00 0.  1.
<scales pt_clust_4="550.00000" pt_clust_5="550.00000" pt_clust_6="33.98174"></scales>
<mgrwt>
<rscale>  0 0.30000000E+03</rscale>
<asrwt>  1 0.33981742E+02</asrwt>
<pdfrwt beam="1">  1        1 0.80566484E+00 0.30000000E+03</pdfrwt>
<pdfrwt beam="2">0</pdfrwt>
<totfact> 0.94714268E-04</totfact>
</mgrwt>
<clustering>
<clus scale="   33.982">  1  6  2 -1</clus>
<clus scale="  457.883">  4  5 -1 -1</clus>
<clus scale="  300.000">  1  4  2 -1</clus>
</clustering>
</event>
<event>
 6    1  0.9843879E-012  0.3000000E+03  0.7818608E-02  0.1093470E+00
          1   -1    0    0  502    0  0.00000000000E+00  0.00000000000E+00  0.24684156072E+03  0.24684156072E+03  0.00000000000E+00 0.  1.
         13   -1    0    0    0    0 -0.00000000000E+00 -0.00000000000E+00 -0.27500000000E+03  0.27500000000E+03  0.00000000000E+00 0.  1.
    9000005    2    1    2  501    0  0.44898887548E+02  0.37764633973E+01 -0.51180829020E+02  0.47124311995E+03  0.46628363585E+03 0.  0.
         13    1    3    3    0    0  0.17988214193E+03  0.73852415480E+02 -0.18519727618E+03  0.26853267095E+03  0.00000000000E+00 0.  1.
          3    1    3    3  501    0 -0.13498325439E+03 -0.70075952082E+02  0.13401644716E+03  0.20271044900E+03  0.00000000000E+00 0.  1.
         21    1    1    2  502  501 -0.44898887548E+02 -0.37764633973E+01  0.23022389736E+02  0.50598440766E+02  0.00000000000E+00 0.  1.
<scales pt_clust_4="550.00000" pt_clust_5="550.00000" pt_clust_6="45.05743"></scales>
<mgrwt>
<rscale>  0 0.30000000E+03</rscale>
<asrwt>  1 0.45057428E+02</asrwt>
<pdfrwt beam="1">  1        1 0.89760568E+00 0.30000000E+03</pdfrwt>
<pdfrwt beam="2">0</pdfrwt>
<totfact> 0.11258333E-04</totfact>
</mgrwt>
<clustering>
<clus scale="   45.057">  1  6  2 -1</clus>
<clus scale="  466.284">  4  5 -1 -1</clus>
<clus scale="  300.000">  1  4  2 -1</clus>
</clustering>
</event>
<event>
 6    1  0.9843879E-012  0.3000000E+03  0.7818608E-02  0.1093470E+00
          1   -1    0    0  502    0  0.00000000000E+00  0.00000000000E+00  0.21964784037E+03  0.21964784037E+03  0.00000000000E+00 0.  1.
         13   -1    0    0    0    0 -0.00000000000E+00 -0.00000000000E+00 -0.27500000000E+03  0.27500000000E+03  0.00000000000E+00 0.  1.
    9000005    2    1    2  501    0  0.31189118015E+02 -0.72452605916E+01 -0.62193506852E+02  0.46190552959E+03  0.45657795729E+03 0.  0.
         13    1    3    3    0    0 -0.74548575362E+01  0.20279350188E+03 -0.12618145453E+03  0.23896137507E+03  0.00000000000E+00 0.  1.
          3    1    3    3  501    0  0.38643975551E+02 -0.21003876247E+03  0.63987947683E+02  0.22294415452E+03  0.00000000000E+00 0.  1.
         21    1    1    2  502  501 -0.31189118015E+02  0.72452605916E+01  0.68413472209E+01  0.32742310782E+02  0.00000000000E+00 0.  1.
<scales pt_clust_4="550.00000" pt_clust_5="550.00000" pt_clust_6="32.01960"></scales>
<mgrwt>
<rscale>  0 0.30000000E+03</rscale>
<asrwt>  1 0.32019602E+02</asrwt>
<pdfrwt beam="1">  1        1 0.79871942E+00 0.30000000E+03</pdfrwt>
<pdfrwt beam="2">0</pdfrwt>
<totfact> 0.10773173E-03</totfact>
</mgrwt>
<clustering>
<clus scale="   32.020">  1  6  2 -1</clus>
<clus scale="  456.578">  4  5 -1 -1</clus>
<clus scale="  300.000">  1  4  2 -1</clus>
</clustering>
</event>
<event>
 6    1  0.9843879E-012  0.3000000E+03  0.7818608E-02  0.1093470E+00
          1   -1    0    0  502    0  0.00000000000E+00  0.00000000000E+00  0.23858640118E+03  0.23858640118E+03  0.00000000000E+00 0.  1.
         13   -1    0    0    0    0 -0.00000000000E+00 -0.00000000000E+00 -0.27500000000E+03  0.27500000000E+03  0.00000000000E+00 0.  1.
    9000005    2    1    2  501    0  0.20624389376E+02 -0.25736152358E+02 -0.12726785631E+02  0.47298122793E+03  0.47165830420E+03 0.  0.
         13    1    3    3    0    0 -0.89530106744E+02 -0.22355174968E+03  0.29650597789E+02  0.24263178429E+03  0.00000000000E+00 0.  1.
          3    1    3    3  501    0  0.11015449612E+03  0.19781559732E+03 -0.42377383420E+02  0.23034944364E+03  0.00000000000E+00 0.  1.
         21    1    1    2  502  501 -0.20624389376E+02  0.25736152358E+02 -0.23686813192E+02  0.40605173248E+02  0.00000000000E+00 0.  1.
<scales pt_clust_4="550.00000" pt_clust_5="550.00000" pt_clust_6="32.98054"></scales>
<mgrwt>
<rscale>  0 0.30000000E+03</rscale>
<asrwt>  1 0.32980541E+02</asrwt>
<pdfrwt beam="1">  1        1 0.86758691E+00 0.30000000E+03</pdfrwt>
<pdfrwt beam="2">0</pdfrwt>
<totfact> 0.27120604E-04</totfact>
</mgrwt>
<clustering>
<clus scale="   32.981">  1  6  2 -1</clus>
<clus scale="  471.658">  4  5 -1 -1</clus>
<clus scale="  300.000">  1  4  2 -1</clus>
</clustering>
</event>
<event>
 6    1  0.9843879E-012  0.3000000E+03  0.7818608E-02  0.1093470E+00
          1   -1    0    0  502    0  0.00000000000E+00  0.00000000000E+00  0.24193036710E+03  0.24193036710E+03  0.00000000000E+00 0.  1.
         13   -1    0    0    0    0 -0.00000000000E+00 -0.00000000000E+00 -0.27500000000E+03  0.27500000000E+03  0.00000000000E+00 0.  1.
    9000005    2    1    2  501    0  0.39953274275E+02 -0.99502926179E+01 -0.46438181605E+02  0.47364075469E+03  0.46955701181E+03 0.  0.
         13    1    3    3    0    0  0.23838185265E+03 -0.19639197721E+02 -0.11243883729E+03  0.26429925821E+03  0.00000000000E+00 0.  1.
          3    1    3    3  501    0 -0.19842857837E+03  0.96889051027E+01  0.66000655684E+02  0.20934149648E+03  0.00000000000E+00 0.  1.
         21    1    1    2  502  501 -0.39953274275E+02  0.99502926179E+01  0.13368548704E+02  0.43289612414E+02  0.00000000000E+00 0. -1.
<scales pt_clust_4="550.00000" pt_clust_5="550.00000" pt_clust_6="41.17369"></scales>
<mgrwt>
<rscale>  0 0.30000000E+03</rscale>
<asrwt>  1 0.41173686E+02</asrwt>
<pdfrwt beam="1">  1        1 0.87974679E+00 0.30000000E+03</pdfrwt>
<pdfrwt beam="2">0</pdfrwt>
<totfact> 0.19293217E-04</totfact>
</mgrwt>
<clustering>
<clus scale="   41.174">  1  6  2 -1</clus>
<clus scale="  469.557">  4  5 -1 -1</clus>
<clus scale="  300.000">  1  4  2 -1</clus>
</clustering>
</event>
<event>
 6    1  0.9843879E-012  0.3000000E+03  0.7818608E-02  0.1093470E+00
          1   -1    0    0  502    0  0.00000000000E+00  0.00000000000E+00  0.21862784048E+03  0.21862784048E+03  0.00000000000E+00 0.  1.
         13   -1    0    0    0    0 -0.00000000000E+00 -0.00000000000E+00 -0.27500000000E+03  0.27500000000E+03  0.00000000000E+00 0.  1.
    9000005    2    1    2  501    0 -0.20014773220E+02  0.23875700786E+02 -0.45679220252E+02  0.46068881826E+03  0.45735867311E+03 0.  0.
         13    1    3    3    0    0  0.19491288395E+03  0.98411779581E+02 -0.75989414659E+02  0.23119321320E+03  0.00000000000E+00 0.  1.
          3    1    3    3  501    0 -0.21492765717E+03 -0.74536078795E+02  0.30310194407E+02  0.22949560506E+03  0.00000000000E+00 0.  1.
         21    1    1    2  502  501  0.20014773220E+02 -0.23875700786E+02 -0.10692939265E+02  0.32939022226E+02  0.00000000000E+00 0.  1.
<scales pt_clust_4="550.00000" pt_clust_5="550.00000" pt_clust_6="31.15512"></scales>
<mgrwt>
<rscale>  0 0.30000000E+03</rscale>
<asrwt>  1 0.31155115E+02</asrwt>
<pdfrwt beam="1">  1        1 0.79501033E+00 0.30000000E+03</pdfrwt>
<pdfrwt beam="2">0</pdfrwt>
<totfact> 0.11529898E-03</totfact>
</mgrwt>
<clustering>
<clus scale="   31.155">  1  6  2 -1</clus>
<clus scale="  457.359">  4  5 -1 -1</clus>
<clus scale="  300.000">  1  4  2 -1</clus>
</clustering>
</event>
<event>
 6    1  0.9843879E-012  0.3000000E+03  0.7818608E-02  0.1093470E+00
          1   -1    0    0  502    0  0.00000000000E+00  0.00000000000E+00  0.22650981277E+03  0.22650981277E+03  0.00000000000E+00 0.  1.
         13   -1    0    0    0    0 -0.00000000000E+00 -0.00000000000E+00 -0.27500000000E+03  0.27500000000E+03  0.00000000000E+00 0.  1.
    9000005    2    1    2  501    0 -0.12230409542E+02 -0.30114074786E+02 -0.63984536538E+02  0.46550265684E+03  0.45993723723E+03 0.  0.
         13    1    3    3    0    0  0.57685004576E+02  0.68336051113E+02  0.17568353157E+03  0.19713467199E+03  0.00000000000E+00 0.  1.
          1    1    3    3  501    0 -0.69915414118E+02 -0.98450125899E+02 -0.23966806811E+03  0.26836798485E+03  0.00000000000E+00 0.  1.
         21    1    1    2  502  501  0.12230409542E+02  0.30114074786E+02  0.15494349306E+02  0.36007155930E+02  0.00000000000E+00 0.  1.
<scales pt_clust_4="550.00000" pt_clust_5="550.00000" pt_clust_6="32.50293"></scales>
<mgrwt>
<rscale>  0 0.30000000E+03</rscale>
<asrwt>  1 0.32502929E+02</asrwt>
<pdfrwt beam="1">  1        1 0.82367205E+00 0.30000000E+03</pdfrwt>
<pdfrwt beam="2">0</pdfrwt>
<totfact> 0.68068421E-04</totfact>
</mgrwt>
<clustering>
<clus scale="   32.503">  1  6  2 -1</clus>
<clus scale="  459.937">  4  5 -1 -1</clus>
<clus scale="  300.000">  1  4  2 -1</clus>
</clustering>
</event>
<event>
 6    1  0.9843879E-012  0.3000000E+03  0.7818608E-02  0.1093470E+00
          1   -1    0    0  502    0  0.00000000000E+00  0.00000000000E+00  0.21826348145E+03  0.21826348145E+03  0.00000000000E+00 0.  1.
         13   -1    0    0    0    0 -0.00000000000E+00 -0.00000000000E+00 -0.27500000000E+03  0.27500000000E+03  0.00000000000E+00 0.  1.
    9000005    2    1    2  501    0 -0.27672397695E+01  0.29950119233E+02 -0.60640788971E+02  0.46293345366E+03  0.45795786921E+03 0.  0.
         13    1    3    3    0    0  0.16732410347E+03 -0.99639339542E+02 -0.13453133495E+03  0.23669396627E+03  0.00000000000E+00 0.  1.
          3    1    3    3  501    0 -0.17009134323E+03  0.12958945878E+03  0.73890545980E+02  0.22623948739E+03  0.00000000000E+00 0.  1.
         21    1    1    2  502  501  0.27672397695E+01 -0.29950119233E+02  0.39042704162E+01  0.30330027786E+02  0.00000000000E+00 0.  1.
<scales pt_clust_4="550.00000" pt_clust_5="550.00000" pt_clust_6="30.07769"></scales>
<mgrwt>
<rscale>  0 0.30000000E+03</rscale>
<asrwt>  1 0.30077687E+02</asrwt>
<pdfrwt beam="1">  1        1 0.79368539E+00 0.30000000E+03</pdfrwt>
<pdfrwt beam="2">0</pdfrwt>
<totfact> 0.11878248E-03</totfact>
</mgrwt>
<clustering>
<clus scale="   30.078">  1  6  2 -1</clus>
<clus scale="  457.958">  4  5 -1 -1</clus>
<clus scale="  300.000">  1  4  2 -1</clus>
</clustering>
</event>
<event>
 6    1  0.9843879E-012  0.3000000E+03  0.7818608E-02  0.1093470E+00
          1   -1    0    0  502    0  0.00000000000E+00  0.00000000000E+00  0.22430198065E+03  0.22430198065E+03  0.00000000000E+00 0.  1.
         13   -1    0    0    0    0 -0.00000000000E+00 -0.00000000000E+00 -0.27500000000E+03  0.27500000000E+03  0.00000000000E+00 0.  1.
    9000005    2    1    2  501    0 -0.35874562909E+00 -0.30119995435E+02 -0.25083493875E+02  0.45976153631E+03  0.45808748704E+03 0.  0.
         13    1    3    3    0    0  0.13550271896E+03  0.57981835416E+02  0.15750837609E+03  0.21571223568E+03  0.00000000000E+00 0.  1.
          1    1    3    3  501    0 -0.13586146459E+03 -0.88101830852E+02 -0.18259186997E+03  0.24404930063E+03  0.00000000000E+00 0.  1.
         21    1    1    2  502  501  0.35874562909E+00  0.30119995435E+02 -0.25614525471E+02  0.39540444340E+02  0.00000000000E+00 0. -1.
<scales pt_clust_4="550.00000" pt_clust_5="550.00000" pt_clust_6="30.12215"></scales>
<mgrwt>
<rscale>  0 0.30000000E+03</rscale>
<asrwt>  1 0.30122147E+02</asrwt>
<pdfrwt beam="1">  1        1 0.81564357E+00 0.30000000E+03</pdfrwt>
<pdfrwt beam="2">0</pdfrwt>
<totfact> 0.80925475E-04</totfact>
</mgrwt>
<clustering>
<clus scale="   30.122">  1  6  2 -1</clus>
<clus scale="  458.087">  4  5 -1 -1</clus>
<clus scale="  300.000">  1  4  2 -1</clus>
</clustering>
</event>
<event>
 6    1  0.9843879E-012  0.3000000E+03  0.7818608E-02  0.1093470E+00
          1   -1    0    0  502    0  0.00000000000E+00  0.00000000000E+00  0.24569460222E+03  0.24569460222E+03  0.00000000000E+00 0.  1.
         13   -1    0    0    0    0 -0.00000000000E+00 -0.00000000000E+00 -0.27500000000E+03  0.27500000000E+03  0.00000000000E+00 0.  1.
    9000005    2    1    2  501    0 -0.30916694990E+02 -0.12199902028E+02 -0.53189604636E+02  0.47976618940E+03  0.47564880197E+03 0.  0.
         13    1    3    3    0    0 -0.86752390281E+02 -0.22949590461E+03  0.13478479287E+02  0.24571531669E+03  0.00000000000E+00 0.  1.
          3    1    3    3  501    0  0.55835695290E+02  0.21729600258E+03 -0.66668083922E+02  0.23405087272E+03  0.00000000000E+00 0.  1.
         21    1    1    2  502  501  0.30916694990E+02  0.12199902028E+02  0.23884206858E+02  0.40928412819E+02  0.00000000000E+00 0. -1.
<scales pt_clust_4="550.00000" pt_clust_5="550.00000" pt_clust_6="33.23672"></scales>
<mgrwt>
<rscale>  0 0.30000000E+03</rscale>
<asrwt>  1 0.33236721E+02</asrwt>
<pdfrwt beam="1">  1        1 0.89343492E+00 0.30000000E+03</pdfrwt>
<pdfrwt beam="2">0</pdfrwt>
<totfact> 0.13265938E-04</totfact>
</mgrwt>
<clustering>
<clus scale="   33.237">  1  6  2 -1</clus>
<clus scale="  475.649">  4  5 -1 -1</clus>
<clus scale="  300.000">  1  4  2 -1</clus>
</clustering>
</event>
<event>
 6    1  0.9843879E-012  0.3000000E+03  0.7818608E-02  0.1093470E+00
          1   -1    0    0  502    0  0.00000000000E+00  0.00000000000E+00  0.23644033441E+03  0.23644033441E+03  0.00000000000E+00 0.  1.
         13   -1    0    0    0    0 -0.00000000000E+00 -0.00000000000E+00 -0.27500000000E+03  0.27500000000E+03  0.00000000000E+00 0.  1.
    9000005    2    1    2  501    0 -0.44607898391E+02  0.14893728346E+02 -0.47384166043E+02  0.46359099219E+03  0.45875882673E+03 0.  0.
         13    1    3    3    0    0  0.14433348265E+03 -0.74008178360E+02 -0.15873084622E+03  0.22694679160E+03  0.00000000000E+00 0.  1.
          1    1    3    3  501    0 -0.18894138104E+03  0.88901906706E+02  0.11134668017E+03  0.23664420059E+03  0.00000000000E+00 0.  1.
         21    1    1    2  502  501  0.44607898391E+02 -0.14893728346E+02  0.88245004569E+01  0.47849342224E+02  0.00000000000E+00 0.  1.
<scales pt_clust_4="550.00000" pt_clust_5="550.00000" pt_clust_6="47.02858"></scales>
<mgrwt>
<rscale>  0 0.30000000E+03</rscale>
<asrwt>  1 0.47028584E+02</asrwt>
<pdfrwt beam="1">  1        1 0.85978303E+00 0.30000000E+03</pdfrwt>
<pdfrwt beam="2">0</pdfrwt>
<totfact> 0.30816260E-04</totfact>
</mgrwt>
<clustering>
<clus scale="   47.029">  1  6  2 -1</clus>
<clus scale="  458.759">  4  5 -1 -1</clus>
<clus scale="  300.000">  1  4  2 -1</clus>
</clustering>
</event>
<event>
 6    1  0.9843879E-012  0.3000000E+03  0.7818608E-02  0.1093470E+00
          1   -1    0    0  502    0  0.00000000000E+00  0.00000000000E+00  0.22550317111E+03  0.22550317111E+03  0.00000000000E+00 0.  1.
         13   -1    0    0    0    0 -0.00000000000E+00 -0.00000000000E+00 -0.27500000000E+03  0.27500000000E+03  0.00000000000E+00 0.  1.
    9000005    2    1    2  501    0  0.29485047044E+02  0.10838360946E+02 -0.51312087551E+02  0.46903678856E+03  0.46516205845E+03 0.  0.
         13    1    3    3    0    0 -0.21808880357E+03  0.37368285088E+01 -0.34023500077E+02  0.22075843967E+03  0.00000000000E+00 0.  1.
          3    1    3    3  501    0  0.24757385061E+03  0.71015324369E+01 -0.17288587474E+02  0.24827834889E+03  0.00000000000E+00 0.  1.
         21    1    1    2  502  501 -0.29485047044E+02 -0.10838360946E+02  0.18152586626E+01  0.31466382557E+02  0.00000000000E+00 0.  1.
<scales pt_clust_4="550.00000" pt_clust_5="550.00000" pt_clust_6="31.41398"></scales>
<mgrwt>
<rscale>  0 0.30000000E+03</rscale>
<asrwt>  1 0.31413979E+02</asrwt>
<pdfrwt beam="1">  1        1 0.82001153E+00 0.30000000E+03</pdfrwt>
<pdfrwt beam="2">0</pdfrwt>
<totfact> 0.73804376E-04</totfact>
</mgrwt>
<clustering>
<clus scale="   31.414">  1  6  2 -1</clus>
<clus scale="  465.162">  4  5 -1 -1</clus>
<clus scale="  300.000">  1  4  2 -1</clus>
</clustering>
</event>
<event>
 6    1  0.9843879E-012  0.3000000E+03  0.7818608E-02  0.1093470E+00
          1   -1    0    0  502    0  0.00000000000E+00  0.00000000000E+00  0.25706588046E+03  0.25706588046E+03  0.00000000000E+00 0.  1.
         13   -1    0    0    0    0 -0.00000000000E+00 -0.00000000000E+00 -0.27500000000E+03  0.27500000000E+03  0.00000000000E+00 0.  1.
    9000005    2    1    2  501    0 -0.13930702811E+01  0.31182739816E+02 -0.55292367022E+02  0.48338382461E+03  0.47919554686E+03 0.  0.
         13    1    3    3    0    0  0.13518369812E+03  0.16518301367E+03 -0.15861779196E+03  0.26593169080E+03  0.00000000000E+00 0.  1.
          1    1    3    3  501    0 -0.13657676841E+03 -0.13400027385E+03  0.10332542494E+03  0.21745213381E+03  0.00000000000E+00 0.  1.
         21    1    1    2  502  501  0.13930702811E+01 -0.31182739816E+02  0.37358247485E+02  0.48682055856E+02  0.00000000000E+00 0. -1.
<scales pt_clust_4="550.00000" pt_clust_5="550.00000" pt_clust_6="31.21384"></scales>
<mgrwt>
<rscale>  0 0.30000000E+03</rscale>
<asrwt>  1 0.31213842E+02</asrwt>
<pdfrwt beam="1">  1        1 0.93478502E+00 0.30000000E+03</pdfrwt>
<pdfrwt beam="2">0</pdfrwt>
<totfact> 0.23156981E-05</totfact>
</mgrwt>
<clustering>
<clus scale="   31.214">  1  6  2 -1</clus>
<clus scale="  479.196">  4  5 -1 -1</clus>
<clus scale="  300.000">  1  4  2 -1</clus>
</clustering>
</event>
<event>
 6    1  0.9843879E-012  0.3000000E+03  0.7818608E-02  0.1093470E+00
          1   -1    0    0  502    0  0.00000000000E+00  0.00000000000E+00  0.25328863533E+03  0.25328863533E+03  0.00000000000E+00 0.  1.
         13   -1    0    0    0    0 -0.00000000000E+00 -0.00000000000E+00 -0.27500000000E+03  0.27500000000E+03  0.00000000000E+00 0.  1.
    9000005    2    1    2  501    0  0.30722505694E+02 -0.35187861312E+02 -0.34301253541E+01  0.47812628241E+03  0.47582656318E+03 0.  0.
         13    1    3    3    0    0 -0.10447424792E+03  0.16033587087E+03 -0.10652389753E+03  0.21902009202E+03  0.00000000000E+00 0.  1.
          1    1    3    3  501    0  0.13519675361E+03 -0.19552373218E+03  0.10309377217E+03  0.25910619038E+03  0.00000000000E+00 0.  1.
         21    1    1    2  502  501 -0.30722505694E+02  0.35187861312E+02 -0.18281239317E+02  0.50162352924E+02  0.00000000000E+00 0. -1.
<scales pt_clust_4="550.00000" pt_clust_5="550.00000" pt_clust_6="46.71253"></scales>
<mgrwt>
<rscale>  0 0.30000000E+03</rscale>
<asrwt>  1 0.46712526E+02</asrwt>
<pdfrwt beam="1">  1        1 0.92104958E+00 0.30000000E+03</pdfrwt>
<pdfrwt beam="2">0</pdfrwt>
<totfact> 0.37646002E-05</totfact>
</mgrwt>
<clustering>
<clus scale="   46.713">  1  6  2 -1</clus>
<clus scale="  475.827">  4  5 -1 -1</clus>
<clus scale="  300.000">  1  4  2 -1</clus>
</clustering>
</event>
<event>
 6    1  0.9843879E-012  0.3000000E+03  0.7818608E-02  0.1093470E+00
          1   -1    0    0  502    0  0.00000000000E+00  0.00000000000E+00  0.23623507988E+03  0.23623507988E+03  0.00000000000E+00 0.  1.
         13   -1    0    0    0    0 -0.00000000000E+00 -0.00000000000E+00 -0.27500000000E+03  0.27500000000E+03  0.00000000000E+00 0.  1.
    9000005    2    1    2  501    0 -0.49055118509E+01 -0.31197498489E+02 -0.35025095168E+02  0.47943359802E+03  0.47710844643E+03 0.  0.
         13    1    3    3    0    0 -0.45683111152E+02  0.20179025048E+03 -0.10602050644E+03  0.23247924556E+03  0.00000000000E+00 0.  1.
          1    1    3    3  501    0  0.40777599301E+02 -0.23298774896E+03  0.70995411275E+02  0.24695435245E+03  0.00000000000E+00 0.  1.
         21    1    1    2  502  501  0.49055118509E+01  0.31197498489E+02 -0.37398249471E+01  0.31801481870E+02  0.00000000000E+00 0.  1.
<scales pt_clust_4="550.00000" pt_clust_5="550.00000" pt_clust_6="31.58083"></scales>
<mgrwt>
<rscale>  0 0.30000000E+03</rscale>
<asrwt>  1 0.31580832E+02</asrwt>
<pdfrwt beam="1">  1        1 0.85903665E+00 0.30000000E+03</pdfrwt>
<pdfrwt beam="2">0</pdfrwt>
<totfact> 0.33766459E-04</totfact>
</mgrwt>
<clustering>
<clus scale="   31.581">  1  6  2 -1</clus>
<clus scale="  477.108">  4  5 -1 -1</clus>
<clus scale="  300.000">  1  4  2 -1</clus>
</clustering>
</event>
<event>
 6    1  0.9843879E-012  0.3000000E+03  0.7818608E-02  0.1093470E+00
          1   -1    0    0  502    0  0.00000000000E+00  0.00000000000E+00  0.22234551062E+03  0.22234551062E+03  0.00000000000E+00 0.  1.
         13   -1    0    0    0    0 -0.00000000000E+00 -0.00000000000E+00 -0.27500000000E+03  0.27500000000E+03  0.00000000000E+00 0.  1.
    9000005    2    1    2  501    0  0.21419622810E+02 -0.29917637773E+02 -0.51374016312E+02  0.46052832845E+03  0.45617232102E+03 0.  0.
         13    1    3    3    0    0  0.22196337565E+03  0.69735960728E+02 -0.41795483180E+02  0.23638465847E+03  0.00000000000E+00 0.  1.
          1    1    3    3  501    0 -0.20054375284E+03 -0.99653598502E+02 -0.95785331325E+01  0.22414366998E+03  0.00000000000E+00 0.  1.
         21    1    1    2  502  501 -0.21419622810E+02  0.29917637773E+02 -0.12804730694E+01  0.36817182165E+02  0.00000000000E+00 0. -1.
<scales pt_clust_4="550.00000" pt_clust_5="550.00000" pt_clust_6="36.79491"></scales>
<mgrwt>
<rscale>  0 0.30000000E+03</rscale>
<asrwt>  1 0.36794908E+02</asrwt>
<pdfrwt beam="1">  1        1 0.80852913E+00 0.30000000E+03</pdfrwt>
<pdfrwt beam="2">0</pdfrwt>
<totfact> 0.88708720E-04</totfact>
</mgrwt>
<clustering>
<clus scale="   36.795">  1  6  2 -1</clus>
<clus scale="  456.172">  4  5 -1 -1</clus>
<clus scale="  300.000">  1  4  2 -1</clus>
</clustering>
</event>
<event>
 6    1  0.9843879E-012  0.3000000E+03  0.7818608E-02  0.1093470E+00
          1   -1    0    0  502    0  0.00000000000E+00  0.00000000000E+00  0.24317794791E+03  0.24317794791E+03  0.00000000000E+00 0.  1.
         13   -1    0    0    0    0 -0.00000000000E+00 -0.00000000000E+00 -0.27500000000E+03  0.27500000000E+03  0.00000000000E+00 0.  1.
    9000005    2    1    2  501    0 -0.21104130301E+02  0.25162397966E+02 -0.71549746628E+02  0.46663359516E+03  0.45994457851E+03 0.  0.
         13    1    3    3    0    0  0.50427004220E+00  0.15428708312E+03 -0.21999418629E+03  0.26870467117E+03  0.00000000000E+00 0.  1.
          1    1    3    3  501    0 -0.21608400343E+02 -0.12912468516E+03  0.14844443967E+03  0.19792892399E+03  0.00000000000E+00 0.  1.
         21    1    1    2  502  501  0.21104130301E+02 -0.25162397966E+02  0.39727694542E+02  0.51544352754E+02  0.00000000000E+00 0.  1.
<scales pt_clust_4="550.00000" pt_clust_5="550.00000" pt_clust_6="32.84099"></scales>
<mgrwt>
<rscale>  0 0.30000000E+03</rscale>
<asrwt>  1 0.32840989E+02</asrwt>
<pdfrwt beam="1">  1        1 0.88428345E+00 0.30000000E+03</pdfrwt>
<pdfrwt beam="2">0</pdfrwt>
<totfact> 0.17566388E-04</totfact>
</mgrwt>
<clustering>
<clus scale="   32.841">  1  6  2 -1</clus>
<clus scale="  459.945">  4  5 -1 -1</clus>
<clus scale="  300.000">  1  4  2 -1</clus>
</clustering>
</event>
<event>
 6    1  0.9843879E-012  0.3000000E+03  0.7818608E-02  0.1093470E+00
          1   -1    0    0  502    0  0.00000000000E+00  0.00000000000E+00  0.22525126490E+03  0.22525126490E+03  0.00000000000E+00 0.  1.
         13   -1    0    0    0    0 -0.00000000000E+00 -0.00000000000E+00 -0.27500000000E+03  0.27500000000E+03  0.00000000000E+00 0.  1.
    9000005    2    1    2  501    0 -0.31610082733E+02 -0.14594201628E+02 -0.62434370217E+02  0.46319572024E+03  0.45764619152E+03 0.  0.
         13    1    3    3    0    0  0.17176511967E+03  0.52418021948E+01  0.10294162192E+03  0.20031902144E+03  0.00000000000E+00 0.  1.
          3    1    3    3  501    0 -0.20337520240E+03 -0.19836003822E+02 -0.16537599214E+03  0.26287669881E+03  0.00000000000E+00 0.  1.
         21    1    1    2  502  501  0.31610082733E+02  0.14594201628E+02  0.12685635116E+02  0.37055544657E+02  0.00000000000E+00 0. -1.
<scales pt_clust_4="550.00000" pt_clust_5="550.00000" pt_clust_6="34.81649"></scales>
<mgrwt>
<rscale>  0 0.30000000E+03</rscale>
<asrwt>  1 0.34816491E+02</asrwt>
<pdfrwt beam="1">  1        1 0.81909551E+00 0.30000000E+03</pdfrwt>
<pdfrwt beam="2">0</pdfrwt>
<totfact> 0.73708447E-04</totfact>
</mgrwt>
<clustering>
<clus scale="   34.816">  1  6  2 -1</clus>
<clus scale="  457.646">  4  5 -1 -1</clus>
<clus scale="  300.000">  1  4  2 -1</clus>
</clustering>
</event>
<event>
 6    1  0.9843879E-012  0.3000000E+03  0.7818608E-02  0.1093470E+00
          1   -1    0    0  502    0  0.00000000000E+00  0.00000000000E+00  0.23179494748E+03  0.23179494748E+03  0.00000000000E+00 0.  1.
         13   -1    0    0    0    0 -0.00000000000E+00 -0.00000000000E+00 -0.27500000000E+03  0.27500000000E+03  0.00000000000E+00 0.  1.
    9000005    2    1    2  501    0 -0.18737442343E+02  0.35544579387E+02 -0.57713023203E+02  0.46407504483E+03  0.45871597456E+03 0.  0.
         13    1    3    3    0    0  0.14238548766E+03 -0.11829426947E+03  0.80555516343E+02  0.20188202619E+03  0.00000000000E+00 0.  1.
          1    1    3    3  501    0 -0.16112293000E+03  0.15383884886E+03 -0.13826853955E+03  0.26219301863E+03  0.00000000000E+00 0.  1.
         21    1    1    2  502  501  0.18737442343E+02 -0.35544579387E+02  0.14507970684E+02  0.42719902654E+02  0.00000000000E+00 0. -1.
<scales pt_clust_4="550.00000" pt_clust_5="550.00000" pt_clust_6="40.18095"></scales>
<mgrwt>
<rscale>  0 0.30000000E+03</rscale>
<asrwt>  1 0.40180952E+02</asrwt>
<pdfrwt beam="1">  1        1 0.84289072E+00 0.30000000E+03</pdfrwt>
<pdfrwt beam="2">0</pdfrwt>
<totfact> 0.45918494E-04</totfact>
</mgrwt>
<clustering>
<clus scale="   40.181">  1  6  2 -1</clus>
<clus scale="  458.716">  4  5 -1 -1</clus>
<clus scale="  300.000">  1  4  2 -1</clus>
</clustering>
</event>
<event>
 6    1  0.9843879E-012  0.3000000E+03  0.7818608E-02  0.1093470E+00
          1   -1    0    0  502    0  0.00000000000E+00  0.00000000000E+00  0.26111934128E+03  0.26111934128E+03  0.00000000000E+00 0.  1.
         13   -1    0    0    0    0 -0.00000000000E+00 -0.00000000000E+00 -0.27500000000E+03  0.27500000000E+03  0.00000000000E+00 0.  1.
    9000005    2    1    2  501    0  0.24889526327E+02  0.31747457854E+02 -0.34523043778E+02  0.49080380683E+03  0.48792329997E+03 0.  0.
         13    1    3    3    0    0  0.93280169387E+02  0.15812063510E+03  0.16370551334E+03  0.24597321062E+03  0.00000000000E+00 0.  1.
          3    1    3    3  501    0 -0.68390643059E+02 -0.12637317725E+03 -0.19822855712E+03  0.24483059621E+03  0.00000000000E+00 0.  1.
         21    1    1    2  502  501 -0.24889526327E+02 -0.31747457854E+02  0.20642385053E+02  0.45315534441E+02  0.00000000000E+00 0. -1.
<scales pt_clust_4="550.00000" pt_clust_5="550.00000" pt_clust_6="40.34092"></scales>
<mgrwt>
<rscale>  0 0.30000000E+03</rscale>
<asrwt>  1 0.40340917E+02</asrwt>
<pdfrwt beam="1">  1        1 0.94952488E+00 0.30000000E+03</pdfrwt>
<pdfrwt beam="2">0</pdfrwt>
<totfact> 0.12290687E-05</totfact>
</mgrwt>
<clustering>
<clus scale="   40.341">  1  6  2 -1</clus>
<clus scale="  487.923">  4  5 -1 -1</clus>
<clus scale="  300.000">  1  4  2 -1</clus>
</clustering>
</event>
<event>
 6    1  0.9843879E-012  0.3000000E+03  0.7818608E-02  0.1093470E+00
          1   -1    0    0  502    0  0.00000000000E+00  0.00000000000E+00  0.25145467321E+03  0.25145467321E+03  0.00000000000E+00 0.  1.
         13   -1    0    0    0    0 -0.00000000000E+00 -0.00000000000E+00 -0.27500000000E+03  0.27500000000E+03  0.00000000000E+00 0.  1.
    9000005    2    1    2  501    0  0.14368569584E+02 -0.30997469075E+02 -0.60765810646E+02  0.47593078481E+03  0.47079754598E+03 0.  0.
         13    1    3    3    0    0  0.16884890498E+03  0.59671268155E+02 -0.18535880927E+03  0.25773727152E+03  0.00000000000E+00 0.  1.
          1    1    3    3  501    0 -0.15448033540E+03 -0.90668737229E+02  0.12459299862E+03  0.21819351329E+03  0.00000000000E+00 0.  1.
         21    1    1    2  502  501 -0.14368569584E+02  0.30997469075E+02  0.37220483855E+02  0.50523888403E+02  0.00000000000E+00 0. -1.
<scales pt_clust_4="550.00000" pt_clust_5="550.00000" pt_clust_6="34.16576"></scales>
<mgrwt>
<rscale>  0 0.30000000E+03</rscale>
<asrwt>  1 0.34165756E+02</asrwt>
<pdfrwt beam="1">  1        1 0.91438063E+00 0.30000000E+03</pdfrwt>
<pdfrwt beam="2">0</pdfrwt>
<totfact> 0.56246630E-05</totfact>
</mgrwt>
<clustering>
<clus scale="   34.166">  1  6  2 -1</clus>
<clus scale="  470.798">  4  5 -1 -1</clus>
<clus scale="  300.000">  1  4  2 -1</clus>
</clustering>
</event>
<event>
 6    1  0.9843879E-012  0.3000000E+03  0.7818608E-02  0.1093470E+00
          1   -1    0    0  502    0  0.00000000000E+00  0.00000000000E+00  0.26055228400E+03  0.26055228400E+03  0.00000000000E+00 0.  1.
         13   -1    0    0    0    0 -0.00000000000E+00 -0.00000000000E+00 -0.27500000000E+03  0.27500000000E+03  0.00000000000E+00 0.  1.
    9000005    2    1    2  501    0 -0.28837412385E+02  0.35239219834E+02 -0.60119909459E+02  0.47105927490E+03  0.46498283623E+03 0.  0.
         13    1    3    3    0    0  0.16948798350E+03 -0.12410125917E+03 -0.52562100545E+02  0.21654115889E+03  0.00000000000E+00 0.  1.
          3    1    3    3  501    0 -0.19832539588E+03  0.15934047901E+03 -0.75578089141E+01  0.25451811601E+03  0.00000000000E+00 0.  1.
         21    1    1    2  502  501  0.28837412385E+02 -0.35239219834E+02  0.45672193455E+02  0.64493009098E+02  0.00000000000E+00 0. -1.
<scales pt_clust_4="550.00000" pt_clust_5="550.00000" pt_clust_6="45.53459"></scales>
<mgrwt>
<rscale>  0 0.30000000E+03</rscale>
<asrwt>  1 0.45534591E+02</asrwt>
<pdfrwt beam="1">  1        1 0.94746285E+00 0.30000000E+03</pdfrwt>
<pdfrwt beam="2">0</pdfrwt>
<totfact> 0.13247864E-05</totfact>
</mgrwt>
<clustering>
<clus scale="   45.535">  1  6  2 -1</clus>
<clus scale="  464.983">  4  5 -1 -1</clus>
<clus scale="  300.000">  1  4  2 -1</clus>
</clustering>
</event>
<event>
 6    1  0.9843879E-012  0.3000000E+03  0.7818608E-02  0.1093470E+00
          1   -1    0    0  502    0  0.00000000000E+00  0.00000000000E+00  0.24997163983E+03  0.24997163983E+03  0.00000000000E+00 0.  1.
         13   -1    0    0    0    0 -0.00000000000E+00 -0.00000000000E+00 -0.27500000000E+03  0.27500000000E+03  0.00000000000E+00 0.  1.
    9000005    2    1    2  501    0  0.48986776711E+02  0.12623718707E+02 -0.16968062000E+02  0.47374634361E+03  0.47073200485E+03 0.  0.
         13    1    3    3    0    0  0.65116556222E+02 -0.15861585611E+02  0.22233395672E+03  0.23221572751E+03  0.00000000000E+00 0.  1.
          1    1    3    3  501    0 -0.16129779511E+02  0.28485304318E+02 -0.23930201872E+03  0.24153061610E+03  0.00000000000E+00 0.  1.
         21    1    1    2  502  501 -0.48986776711E+02 -0.12623718707E+02 -0.80602981658E+01  0.51225296222E+02  0.00000000000E+00 0.  1.
<scales pt_clust_4="550.00000" pt_clust_5="550.00000" pt_clust_6="50.58720"></scales>
<mgrwt>
<rscale>  0 0.30000000E+03</rscale>
<asrwt>  1 0.50587203E+02</asrwt>
<pdfrwt beam="1">  1        1 0.90898778E+00 0.30000000E+03</pdfrwt>
<pdfrwt beam="2">0</pdfrwt>
<totfact> 0.71084237E-05</totfact>
</mgrwt>
<clustering>
<clus scale="   50.587">  1  6  2 -1</clus>
<clus scale="  470.732">  4  5 -1 -1</clus>
<clus scale="  300.000">  1  4  2 -1</clus>
</clustering>
</event>
<event>
 6    1  0.9843879E-012  0.3000000E+03  0.7818608E-02  0.1093470E+00
          1   -1    0    0  502    0  0.00000000000E+00  0.00000000000E+00  0.22275386393E+03  0.22275386393E+03  0.00000000000E+00 0.  1.
         13   -1    0    0    0    0 -0.00000000000E+00 -0.00000000000E+00 -0.27500000000E+03  0.27500000000E+03  0.00000000000E+00 0.  1.
    9000005    2    1    2  501    0  0.32338040099E+02 -0.67603637776E+01 -0.56687690844E+02  0.46441951581E+03  0.45976139574E+03 0.  0.
         13    1    3    3    0    0  0.86979324425E+02 -0.54337023196E+02  0.18531685975E+03  0.21180239251E+03  0.00000000000E+00 0.  1.
          1    1    3    3  501    0 -0.54641284326E+02  0.47576659418E+02 -0.24200455059E+03  0.25261712329E+03  0.00000000000E+00 0.  1.
         21    1    1    2  502  501 -0.32338040099E+02  0.67603637776E+01  0.44415547717E+01  0.33334348121E+02  0.00000000000E+00 0. -1.
<scales pt_clust_4="550.00000" pt_clust_5="550.00000" pt_clust_6="33.03712"></scales>
<mgrwt>
<rscale>  0 0.30000000E+03</rscale>
<asrwt>  1 0.33037121E+02</asrwt>
<pdfrwt beam="1">  1        1 0.81001405E+00 0.30000000E+03</pdfrwt>
<pdfrwt beam="2">0</pdfrwt>
<totfact> 0.88143996E-04</totfact>
</mgrwt>
<clustering>
<clus scale="   33.037">  1  6  2 -1</clus>
<clus scale="  459.761">  4  5 -1 -1</clus>
<clus scale="  300.000">  1  4  2 -1</clus>
</clustering>
</event>
<event>
 6    1  0.9843879E-012  0.3000000E+03  0.7818608E-02  0.1093470E+00
          1   -1    0    0  502    0  0.00000000000E+00  0.00000000000E+00  0.23159793235E+03  0.23159793235E+03  0.00000000000E+00 0.  1.
         13   -1    0    0    0    0 -0.00000000000E+00 -0.00000000000E+00 -0.27500000000E+03  0.27500000000E+03  0.00000000000E+00 0.  1.
    9000005    2    1    2  501    0 -0.70473681742E+01  0.40262996681E+02 -0.28090522398E+02  0.46294913262E+03  0.46028474626E+03 0.  0.
         13    1    3    3    0    0 -0.24570937262E+02 -0.86276515208E+02 -0.21705095139E+03  0.23485843296E+03  0.00000000000E+00 0.  1.
          1    1    3    3  501    0  0.17523569088E+02  0.12653951189E+03  0.18896042899E+03  0.22809069965E+03  0.00000000000E+00 0.  1.
         21    1    1    2  502  501  0.70473681742E+01 -0.40262996681E+02 -0.15311545254E+02  0.43648799731E+02  0.00000000000E+00 0.  1.
<scales pt_clust_4="550.00000" pt_clust_5="550.00000" pt_clust_6="40.87513"></scales>
<mgrwt>
<rscale>  0 0.30000000E+03</rscale>
<asrwt>  1 0.40875127E+02</asrwt>
<pdfrwt beam="1">  1        1 0.84217430E+00 0.30000000E+03</pdfrwt>
<pdfrwt beam="2">0</pdfrwt>
<totfact> 0.46410588E-04</totfact>
</mgrwt>
<clustering>
<clus scale="   40.875">  1  6  2 -1</clus>
<clus scale="  460.285">  4  5 -1 -1</clus>
<clus scale="  300.000">  1  4  2 -1</clus>
</clustering>
</event>
<event>
 6    1  0.9843879E-012  0.3000000E+03  0.7818608E-02  0.1093470E+00
          1   -1    0    0  502    0  0.00000000000E+00  0.00000000000E+00  0.23855016105E+03  0.23855016105E+03  0.00000000000E+00 0.  1.
         13   -1    0    0    0    0 -0.00000000000E+00 -0.00000000000E+00 -0.27500000000E+03  0.27500000000E+03  0.00000000000E+00 0.  1.
    9000005    2    1    2  501    0 -0.32587687467E+02 -0.46467864621E+01 -0.46392827309E+02  0.47916392810E+03  0.47577539403E+03 0.  0.
         13    1    3    3    0    0  0.11187746542E+03 -0.20205332850E+03 -0.46444536500E+01  0.23100581330E+03  0.00000000000E+00 0.  1.
          3    1    3    3  501    0 -0.14446515288E+03  0.19740654204E+03 -0.41748373659E+02  0.24815811480E+03  0.00000000000E+00 0.  1.
         21    1    1    2  502  501  0.32587687467E+02  0.46467864621E+01  0.99429883555E+01  0.34386232947E+02  0.00000000000E+00 0.  1.
<scales pt_clust_4="550.00000" pt_clust_5="550.00000" pt_clust_6="32.91732"></scales>
<mgrwt>
<rscale>  0 0.30000000E+03</rscale>
<asrwt>  1 0.32917321E+02</asrwt>
<pdfrwt beam="1">  1        1 0.86745513E+00 0.30000000E+03</pdfrwt>
<pdfrwt beam="2">0</pdfrwt>
<totfact> 0.27216599E-04</totfact>
</mgrwt>
<clustering>
<clus scale="   32.917">  1  6  2 -1</clus>
<clus scale="  475.775">  4  5 -1 -1</clus>
<clus scale="  300.000">  1  4  2 -1</clus>
</clustering>
</event>
<event>
 6    1  0.9843879E-012  0.3000000E+03  0.7818608E-02  0.1093470E+00
          1   -1    0    0  502    0  0.00000000000E+00  0.00000000000E+00  0.22681596855E+03  0.22681596855E+03  0.00000000000E+00 0.  1.
         13   -1    0    0    0    0 -0.00000000000E+00 -0.00000000000E+00 -0.27500000000E+03  0.27500000000E+03  0.00000000000E+00 0.  1.
    9000005    2    1    2  501    0 -0.23566286459E+02  0.21778928679E+02 -0.59290349505E+02  0.46785949799E+03  0.46297675182E+03 0.  0.
         13    1    3    3    0    0  0.12103255487E+03 -0.80944162960E+02 -0.19582381690E+03  0.24402418758E+03  0.00000000000E+00 0.  1.
          1    1    3    3  501    0 -0.14459884133E+03  0.10272309164E+03  0.13653346740E+03  0.22383531042E+03  0.00000000000E+00 0.  1.
         21    1    1    2  502  501  0.23566286459E+02 -0.21778928679E+02  0.11106318054E+02  0.33956470555E+02  0.00000000000E+00 0.  1.
<scales pt_clust_4="550.00000" pt_clust_5="550.00000" pt_clust_6="32.08881"></scales>
<mgrwt>
<rscale>  0 0.30000000E+03</rscale>
<asrwt>  1 0.32088808E+02</asrwt>
<pdfrwt beam="1">  1        1 0.82478534E+00 0.30000000E+03</pdfrwt>
<pdfrwt beam="2">0</pdfrwt>
<totfact> 0.66689104E-04</totfact>
</mgrwt>
<clustering>
<clus scale="   32.089">  1  6  2 -1</clus>
<clus scale="  462.977">  4  5 -1 -1</clus>
<clus scale="  300.000">  1  4  2 -1</clus>
</clustering>
</event>
<event>
 6    1  0.9843879E-012  0.3000000E+03  0.7818608E-02  0.1093470E+00
          1   -1    0    0  502    0  0.00000000000E+00  0.00000000000E+00  0.23761401988E+03  0.23761401988E+03  0.00000000000E+00 0.  1.
         13   -1    0    0    0    0 -0.00000000000E+00 -0.00000000000E+00 -0.27500000000E+03  0.27500000000E+03  0.00000000000E+00 0.  1.
    9000005    2    1    2  501    0 -0.65504377735E+01 -0.31316906406E+02 -0.23404970845E+02  0.47769804242E+03  0.47605038620E+03 0.  0.
         13    1    3    3    0    0 -0.93082924745E+02 -0.19442123508E+03  0.11744202622E+03  0.24547235496E+03  0.00000000000E+00 0.  1.
          3    1    3    3  501    0  0.86532486971E+02  0.16310432867E+03 -0.14084699706E+03  0.23222568746E+03  0.00000000000E+00 0.  1.
         21    1    1    2  502  501  0.65504377735E+01  0.31316906406E+02 -0.13981009276E+02  0.34915977464E+02  0.00000000000E+00 0.  1.
<scales pt_clust_4="550.00000" pt_clust_5="550.00000" pt_clust_6="31.99465"></scales>
<mgrwt>
<rscale>  0 0.30000000E+03</rscale>
<asrwt>  1 0.31994654E+02</asrwt>
<pdfrwt beam="1">  1        1 0.86405098E+00 0.30000000E+03</pdfrwt>
<pdfrwt beam="2">0</pdfrwt>
<totfact> 0.29751108E-04</totfact>
</mgrwt>
<clustering>
<clus scale="   31.995">  1  6  2 -1</clus>
<clus scale="  476.050">  4  5 -1 -1</clus>
<clus scale="  300.000">  1  4  2 -1</clus>
</clustering>
</event>
<event>
 6    1  0.9843879E-012  0.3000000E+03  0.7818608E-02  0.1093470E+00
          1   -1    0    0  502    0  0.00000000000E+00  0.00000000000E+00  0.23892823711E+03  0.23892823711E+03  0.00000000000E+00 0.  1.
         13   -1    0    0    0    0 -0.00000000000E+00 -0.00000000000E+00 -0.27500000000E+03  0.27500000000E+03  0.00000000000E+00 0.  1.
    9000005    2    1    2  501    0 -0.30332424358E+02 -0.54672857943E+00 -0.50442636101E+02  0.48035925029E+03  0.47673912669E+03 0.  0.
         13    1    3    3    0    0 -0.11776889646E+03  0.14268250216E+03 -0.18771115825E+03  0.26355888967E+03  0.00000000000E+00 0.  1.
          1    1    3    3  501    0  0.87436472102E+02 -0.14322923073E+03  0.13726852215E+03  0.21680036061E+03  0.00000000000E+00 0.  1.
         21    1    1    2  502  501  0.30332424358E+02  0.54672857943E+00  0.14370873211E+02  0.33568986824E+02  0.00000000000E+00 0. -1.
<scales pt_clust_4="550.00000" pt_clust_5="550.00000" pt_clust_6="30.33735"></scales>
<mgrwt>
<rscale>  0 0.30000000E+03</rscale>
<asrwt>  1 0.30337351E+02</asrwt>
<pdfrwt beam="1">  1        1 0.86882995E+00 0.30000000E+03</pdfrwt>
<pdfrwt beam="2">0</pdfrwt>
<totfact> 0.26750295E-04</totfact>
</mgrwt>
<clustering>
<clus scale="   30.337">  1  6  2 -1</clus>
<clus scale="  476.739">  4  5 -1 -1</clus>
<clus scale="  300.000">  1  4  2 -1</clus>
</clustering>
</event>
<event>
 6    1  0.9843879E-012  0.3000000E+03  0.7818608E-02  0.1093470E+00
          1   -1    0    0  502    0  0.00000000000E+00  0.00000000000E+00  0.24565274256E+03  0.24565274256E+03  0.00000000000E+00 0.  1.
         13   -1    0    0    0    0 -0.00000000000E+00 -0.00000000000E+00 -0.27500000000E+03  0.27500000000E+03  0.00000000000E+00 0.  1.
    9000005    2    1    2  501    0  0.94297278688E+01 -0.35347679029E+02 -0.47718382988E+02  0.47971527275E+03  0.47593205466E+03 0.  0.
         13    1    3    3    0    0 -0.14792618500E+03  0.82834457490E+02 -0.17633636529E+03  0.24461851378E+03  0.00000000000E+00 0.  1.
          3    1    3    3  501    0  0.15735591287E+03 -0.11818213652E+03  0.12861798231E+03  0.23509675898E+03  0.00000000000E+00 0.  1.
         21    1    1    2  502  501 -0.94297278688E+01  0.35347679029E+02  0.18371125547E+02  0.40937469808E+02  0.00000000000E+00 0.  1.
<scales pt_clust_4="550.00000" pt_clust_5="550.00000" pt_clust_6="36.58385"></scales>
<mgrwt>
<rscale>  0 0.30000000E+03</rscale>
<asrwt>  1 0.36583851E+02</asrwt>
<pdfrwt beam="1">  1        1 0.89328270E+00 0.30000000E+03</pdfrwt>
<pdfrwt beam="2">0</pdfrwt>
<totfact> 0.13083122E-04</totfact>
</mgrwt>
<clustering>
<clus scale="   36.584">  1  6  2 -1</clus>
<clus scale="  475.932">  4  5 -1 -1</clus>
<clus scale="  300.000">  1  4  2 -1</clus>
</clustering>
</event>
<event>
 6    1  0.9843879E-012  0.3000000E+03  0.7818608E-02  0.1093470E+00
          1   -1    0    0  502    0  0.00000000000E+00  0.00000000000E+00  0.22302927509E+03  0.22302927509E+03  0.00000000000E+00 0.  1.
         13   -1    0    0    0    0 -0.00000000000E+00 -0.00000000000E+00 -0.27500000000E+03  0.27500000000E+03  0.00000000000E+00 0.  1.
    9000005    2    1    2  501    0  0.15330529649E+02 -0.30774173438E+02 -0.52502566615E+02  0.46364384583E+03  0.45937677497E+03 0.  0.
         13    1    3    3    0    0 -0.15875787999E+03 -0.16917657419E+03  0.11286590805E+02  0.23227605311E+03  0.00000000000E+00 0.  1.
          1    1    3    3  501    0  0.17408840964E+03  0.13840240075E+03 -0.63789157420E+02  0.23136779272E+03  0.00000000000E+00 0.  1.
         21    1    1    2  502  501 -0.15330529649E+02  0.30774173438E+02  0.53184170863E+00  0.34385429264E+02  0.00000000000E+00 0.  1.
<scales pt_clust_4="550.00000" pt_clust_5="550.00000" pt_clust_6="34.38132"></scales>
<mgrwt>
<rscale>  0 0.30000000E+03</rscale>
<asrwt>  1 0.34381316E+02</asrwt>
<pdfrwt beam="1">  1        1 0.81101555E+00 0.30000000E+03</pdfrwt>
<pdfrwt beam="2">0</pdfrwt>
<totfact> 0.85920612E-04</totfact>
</mgrwt>
<clustering>
<clus scale="   34.381">  1  6  2 -1</clus>
<clus scale="  459.377">  4  5 -1 -1</clus>
<clus scale="  300.000">  1  4  2 -1</clus>
</clustering>
</event>
<event>
 6    1  0.9843879E-012  0.3000000E+03  0.7818608E-02  0.1093470E+00
          1   -1    0    0  502    0  0.00000000000E+00  0.00000000000E+00  0.22454944229E+03  0.22454944229E+03  0.00000000000E+00 0.  1.
         13   -1    0    0    0    0 -0.00000000000E+00 -0.00000000000E+00 -0.27500000000E+03  0.27500000000E+03  0.00000000000E+00 0.  1.
    9000005    2    1    2  501    0  0.24382965540E+02  0.20810574924E+02 -0.53552019093E+02  0.46734341645E+03  0.46315703721E+03 0.  0.
         13    1    3    3    0    0 -0.16874878736E+03  0.12329292407E+02 -0.17147481513E+03  0.24089785576E+03  0.00000000000E+00 0.  1.
          1    1    3    3  501    0  0.19313175290E+03  0.84812825170E+01  0.11792279604E+03  0.22644556069E+03  0.00000000000E+00 0.  1.
         21    1    1    2  502  501 -0.24382965540E+02 -0.20810574924E+02  0.31014613807E+01  0.32206025833E+02  0.00000000000E+00 0. -1.
<scales pt_clust_4="550.00000" pt_clust_5="550.00000" pt_clust_6="32.05634"></scales>
<mgrwt>
<rscale>  0 0.30000000E+03</rscale>
<asrwt>  1 0.32056342E+02</asrwt>
<pdfrwt beam="1">  1        1 0.81654343E+00 0.30000000E+03</pdfrwt>
<pdfrwt beam="2">0</pdfrwt>
<totfact> 0.78626622E-04</totfact>
</mgrwt>
<clustering>
<clus scale="   32.056">  1  6  2 -1</clus>
<clus scale="  463.157">  4  5 -1 -1</clus>
<clus scale="  300.000">  1  4  2 -1</clus>
</clustering>
</event>
<event>
 6    1  0.9843879E-012  0.3000000E+03  0.7818608E-02  0.1093470E+00
          1   -1    0    0  502    0  0.00000000000E+00  0.00000000000E+00  0.23355236957E+03  0.23355236957E+03  0.00000000000E+00 0.  1.
         13   -1    0    0    0    0 -0.00000000000E+00 -0.00000000000E+00 -0.27500000000E+03  0.27500000000E+03  0.00000000000E+00 0.  1.
    9000005    2    1    2  501    0  0.60267110755E+01  0.40261704661E+02 -0.42445159078E+02  0.46782987981E+03  0.46411838878E+03 0.  0.
         13    1    3    3    0    0  0.21639904498E+03  0.44645131022E+02  0.66679526853E+02  0.23079838321E+03  0.00000000000E+00 0.  1.
          3    1    3    3  501    0 -0.21037233390E+03 -0.43834263601E+01 -0.10912468593E+03  0.23703149660E+03  0.00000000000E+00 0.  1.
         21    1    1    2  502  501 -0.60267110755E+01 -0.40261704661E+02  0.99752864347E+00  0.40722489757E+02  0.00000000000E+00 0. -1.
<scales pt_clust_4="550.00000" pt_clust_5="550.00000" pt_clust_6="40.71027"></scales>
<mgrwt>
<rscale>  0 0.30000000E+03</rscale>
<asrwt>  1 0.40710270E+02</asrwt>
<pdfrwt beam="1">  1        1 0.84928134E+00 0.30000000E+03</pdfrwt>
<pdfrwt beam="2">0</pdfrwt>
<totfact> 0.40196530E-04</totfact>
</mgrwt>
<clustering>
<clus scale="   40.710">  1  6  2 -1</clus>
<clus scale="  464.118">  4  5 -1 -1</clus>
<clus scale="  300.000">  1  4  2 -1</clus>
</clustering>
</event>
<event>
 6    1  0.9843879E-012  0.3000000E+03  0.7818608E-02  0.1093470E+00
          1   -1    0    0  502    0  0.00000000000E+00  0.00000000000E+00  0.25904130170E+03  0.25904130170E+03  0.00000000000E+00 0.  1.
         13   -1    0    0    0    0 -0.00000000000E+00 -0.00000000000E+00 -0.27500000000E+03  0.27500000000E+03  0.00000000000E+00 0.  1.
    9000005    2    1    2  501    0  0.21083764310E+02 -0.27436267000E+02 -0.40983548335E+02  0.49133864389E+03  0.48840222961E+03 0.  0.
         13    1    3    3    0    0 -0.47996564944E+02 -0.17820526794E+03 -0.19251894449E+03  0.26669145423E+03  0.00000000000E+00 0.  1.
          1    1    3    3  501    0  0.69080329255E+02  0.15076900094E+03  0.15153539616E+03  0.22464718967E+03  0.00000000000E+00 0.  1.
         21    1    1    2  502  501 -0.21083764310E+02  0.27436267000E+02  0.25024850032E+02  0.42702657803E+02  0.00000000000E+00 0.  1.
<scales pt_clust_4="550.00000" pt_clust_5="550.00000" pt_clust_6="34.60165"></scales>
<mgrwt>
<rscale>  0 0.30000000E+03</rscale>
<asrwt>  1 0.34601645E+02</asrwt>
<pdfrwt beam="1">  1        1 0.94196837E+00 0.30000000E+03</pdfrwt>
<pdfrwt beam="2">0</pdfrwt>
<totfact> 0.17743939E-05</totfact>
</mgrwt>
<clustering>
<clus scale="   34.602">  1  6  2 -1</clus>
<clus scale="  488.402">  4  5 -1 -1</clus>
<clus scale="  300.000">  1  4  2 -1</clus>
</clustering>
</event>
<event>
 6    1  0.9843879E-012  0.3000000E+03  0.7818608E-02  0.1093470E+00
          1   -1    0    0  502    0  0.00000000000E+00  0.00000000000E+00  0.23628761069E+03  0.23628761069E+03  0.00000000000E+00 0.  1.
         13   -1    0    0    0    0 -0.00000000000E+00 -0.00000000000E+00 -0.27500000000E+03  0.27500000000E+03  0.00000000000E+00 0.  1.
    9000005    2    1    2  501    0  0.70630747738E+01  0.31670201999E+02 -0.49411900819E+02  0.47712083931E+03  0.47344468594E+03 0.  0.
         13    1    3    3    0    0  0.69960941458E+02  0.15056168249E+03 -0.20996486905E+03  0.26767256079E+03  0.00000000000E+00 0.  1.
          1    1    3    3  501    0 -0.62897866684E+02 -0.11889148050E+03  0.16055296823E+03  0.20944827852E+03  0.00000000000E+00 0.  1.
         21    1    1    2  502  501 -0.70630747738E+01 -0.31670201999E+02  0.10699511512E+02  0.34166771380E+02  0.00000000000E+00 0. -1.
<scales pt_clust_4="550.00000" pt_clust_5="550.00000" pt_clust_6="32.44825"></scales>
<mgrwt>
<rscale>  0 0.30000000E+03</rscale>
<asrwt>  1 0.32448247E+02</asrwt>
<pdfrwt beam="1">  1        1 0.85922768E+00 0.30000000E+03</pdfrwt>
<pdfrwt beam="2">0</pdfrwt>
<totfact> 0.33436977E-04</totfact>
</mgrwt>
<clustering>
<clus scale="   32.448">  1  6  2 -1</clus>
<clus scale="  473.445">  4  5 -1 -1</clus>
<clus scale="  300.000">  1  4  2 -1</clus>
</clustering>
</event>
<event>
 6    1  0.9843879E-012  0.3000000E+03  0.7818608E-02  0.1093470E+00
          1   -1    0    0  502    0  0.00000000000E+00  0.00000000000E+00  0.23337811145E+03  0.23337811145E+03  0.00000000000E+00 0.  1.
         13   -1    0    0    0    0 -0.00000000000E+00 -0.00000000000E+00 -0.27500000000E+03  0.27500000000E+03  0.00000000000E+00 0.  1.
    9000005    2    1    2  501    0 -0.47842315774E+01 -0.37082265621E+02 -0.34030608460E+02  0.47022564327E+03  0.46749982885E+03 0.  0.
         13    1    3    3    0    0 -0.16555308453E+02 -0.18795470784E+03 -0.17942038538E+03  0.26037036146E+03  0.00000000000E+00 0.  1.
          3    1    3    3  501    0  0.11771076876E+02  0.15087244222E+03  0.14538977692E+03  0.20985528181E+03  0.00000000000E+00 0.  1.
         21    1    1    2  502  501  0.47842315774E+01  0.37082265621E+02 -0.75912800868E+01  0.38152468187E+02  0.00000000000E+00 0. -1.
<scales pt_clust_4="550.00000" pt_clust_5="550.00000" pt_clust_6="37.38963"></scales>
<mgrwt>
<rscale>  0 0.30000000E+03</rscale>
<asrwt>  1 0.37389634E+02</asrwt>
<pdfrwt beam="1">  1        1 0.84864768E+00 0.30000000E+03</pdfrwt>
<pdfrwt beam="2">0</pdfrwt>
<totfact> 0.41384162E-04</totfact>
</mgrwt>
<clustering>
<clus scale="   37.390">  1  6  2 -1</clus>
<clus scale="  467.500">  4  5 -1 -1</clus>
<clus scale="  300.000">  1  4  2 -1</clus>
</clustering>
</event>
<event>
 6    1  0.9843879E-012  0.3000000E+03  0.7818608E-02  0.1093470E+00
          1   -1    0    0  502    0  0.00000000000E+00  0.00000000000E+00  0.22269309963E+03  0.22269309963E+03  0.00000000000E+00 0.  1.
         13   -1    0    0    0    0 -0.00000000000E+00 -0.00000000000E+00 -0.27500000000E+03  0.27500000000E+03  0.00000000000E+00 0.  1.
    9000005    2    1    2  501    0 -0.44177427168E+01 -0.33958859451E+02 -0.48117613176E+02  0.46319279944E+03  0.45941217243E+03 0.  0.
         13    1    3    3    0    0  0.73344680276E+02 -0.20043145502E+03 -0.14250104120E+03  0.25662961059E+03  0.00000000000E+00 0.  1.
          3    1    3    3  501    0 -0.77762422993E+02  0.16647259557E+03  0.94383428029E+02  0.20656318886E+03  0.00000000000E+00 0.  1.
         21    1    1    2  502  501  0.44177427168E+01  0.33958859451E+02 -0.41892871921E+01  0.34500300188E+02  0.00000000000E+00 0.  1.
<scales pt_clust_4="550.00000" pt_clust_5="550.00000" pt_clust_6="34.24503"></scales>
<mgrwt>
<rscale>  0 0.30000000E+03</rscale>
<asrwt>  1 0.34245025E+02</asrwt>
<pdfrwt beam="1">  1        1 0.80979309E+00 0.30000000E+03</pdfrwt>
<pdfrwt beam="2">0</pdfrwt>
<totfact> 0.87897549E-04</totfact>
</mgrwt>
<clustering>
<clus scale="   34.245">  1  6  2 -1</clus>
<clus scale="  459.412">  4  5 -1 -1</clus>
<clus scale="  300.000">  1  4  2 -1</clus>
</clustering>
</event>
<event>
 6    1  0.9843879E-012  0.3000000E+03  0.7818608E-02  0.1093470E+00
          1   -1    0    0  502    0  0.00000000000E+00  0.00000000000E+00  0.23298982903E+03  0.23298982903E+03  0.00000000000E+00 0.  1.
         13   -1    0    0    0    0 -0.00000000000E+00 -0.00000000000E+00 -0.27500000000E+03  0.27500000000E+03  0.00000000000E+00 0.  1.
    9000005    2    1    2  501    0  0.37507591555E+00 -0.44045975683E+02 -0.23767689066E+02  0.46031408255E+03  0.45758492424E+03 0.  0.
         13    1    3    3    0    0 -0.15158483342E+03 -0.19101284303E+03 -0.44564988269E+02  0.24789091574E+03  0.00000000000E+00 0.  1.
          3    1    3    3  501    0  0.15195990934E+03  0.14696686735E+03  0.20797299204E+02  0.21242316681E+03  0.00000000000E+00 0.  1.
         21    1    1    2  502  501 -0.37507591555E+00  0.44045975683E+02 -0.18242481908E+02  0.47675746475E+02  0.00000000000E+00 0.  1.
<scales pt_clust_4="550.00000" pt_clust_5="550.00000" pt_clust_6="44.04759"></scales>
<mgrwt>
<rscale>  0 0.30000000E+03</rscale>
<asrwt>  1 0.44047595E+02</asrwt>
<pdfrwt beam="1">  1        1 0.84723574E+00 0.30000000E+03</pdfrwt>
<pdfrwt beam="2">0</pdfrwt>
<totfact> 0.41379934E-04</totfact>
</mgrwt>
<clustering>
<clus scale="   44.048">  1  6  2 -1</clus>
<clus scale="  457.585">  4  5 -1 -1</clus>
<clus scale="  300.000">  1  4  2 -1</clus>
</clustering>
</event>
<event>
 6    1  0.9843879E-012  0.3000000E+03  0.7818608E-02  0.1093470E+00
          1   -1    0    0  502    0  0.00000000000E+00  0.00000000000E+00  0.25881849697E+03  0.25881849697E+03  0.00000000000E+00 0.  1.
         13   -1    0    0    0    0 -0.00000000000E+00 -0.00000000000E+00 -0.27500000000E+03  0.27500000000E+03  0.00000000000E+00 0.  1.
    9000005    2    1    2  501    0 -0.97480918752E+01  0.48750605912E+02 -0.86935996505E+01  0.48354210520E+03  0.48090096897E+03 0.  0.
         13    1    3    3    0    0 -0.83159052105E+02  0.19945903033E+03 -0.15101564557E+03  0.26363811927E+03  0.00000000000E+00 0.  1.
          1    1    3    3  501    0  0.73410960230E+02 -0.15070842442E+03  0.14232204592E+03  0.21990398593E+03  0.00000000000E+00 0.  1.
         21    1    1    2  502  501  0.97480918752E+01 -0.48750605912E+02 -0.74879033802E+01  0.50276391767E+02  0.00000000000E+00 0.  1.
<scales pt_clust_4="550.00000" pt_clust_5="550.00000" pt_clust_6="49.71569"></scales>
<mgrwt>
<rscale>  0 0.30000000E+03</rscale>
<asrwt>  1 0.49715685E+02</asrwt>
<pdfrwt beam="1">  1        1 0.94115817E+00 0.30000000E+03</pdfrwt>
<pdfrwt beam="2">0</pdfrwt>
<totfact> 0.17172611E-05</totfact>
</mgrwt>
<clustering>
<clus scale="   49.716">  1  6  2 -1</clus>
<clus scale="  480.901">  4  5 -1 -1</clus>
<clus scale="  300.000">  1  4  2 -1</clus>
</clustering>
</event>
<event>
 6    1  0.9843879E-012  0.3000000E+03  0.7818608E-02  0.1093470E+00
          1   -1    0    0  502    0  0.00000000000E+00  0.00000000000E+00  0.22991892375E+03  0.22991892375E+03  0.00000000000E+00 0.  1.
         13   -1    0    0    0    0 -0.00000000000E+00 -0.00000000000E+00 -0.27500000000E+03  0.27500000000E+03  0.00000000000E+00 0.  1.
    9000005    2    1    2  501    0  0.29506080435E+02 -0.14505308284E+02 -0.56430857671E+02  0.47013630899E+03  0.46557780723E+03 0.  0.
         13    1    3    3    0    0  0.23978291037E+03 -0.58344075867E+02  0.46489774797E+01  0.24682278721E+03  0.00000000000E+00 0.  1.
          3    1    3    3  501    0 -0.21027682993E+03  0.43838767583E+02 -0.61079835151E+02  0.22331352178E+03  0.00000000000E+00 0.  1.
         21    1    1    2  502  501 -0.29506080435E+02  0.14505308284E+02  0.11349781419E+02  0.34782614756E+02  0.00000000000E+00 0.  1.
<scales pt_clust_4="550.00000" pt_clust_5="550.00000" pt_clust_6="32.87876"></scales>
<mgrwt>
<rscale>  0 0.30000000E+03</rscale>
<asrwt>  1 0.32878758E+02</asrwt>
<pdfrwt beam="1">  1        1 0.83606881E+00 0.30000000E+03</pdfrwt>
<pdfrwt beam="2">0</pdfrwt>
<totfact> 0.53768080E-04</totfact>
</mgrwt>
<clustering>
<clus scale="   32.879">  1  6  2 -1</clus>
<clus scale="  465.578">  4  5 -1 -1</clus>
<clus scale="  300.000">  1  4  2 -1</clus>
</clustering>
</event>
<event>
 6    1  0.9843879E-012  0.3000000E+03  0.7818608E-02  0.1093470E+00
          1   -1    0    0  502    0  0.00000000000E+00  0.00000000000E+00  0.23770431705E+03  0.23770431705E+03  0.00000000000E+00 0.  1.
         13   -1    0    0    0    0 -0.00000000000E+00 -0.00000000000E+00 -0.27500000000E+03  0.27500000000E+03  0.00000000000E+00 0.  1.
    9000005    2    1    2  501    0  0.48704487026E+02  0.97485649327E+01 -0.46288396634E+02  0.46222629734E+03  0.45721261215E+03 0.  0.
         13    1    3    3    0    0 -0.10360720722E+03  0.35621433777E+02 -0.21016445195E+03  0.23700725051E+03  0.00000000000E+00 0.  1.
          3    1    3    3  501    0  0.15231169425E+03 -0.25872868844E+02  0.16387605531E+03  0.22521904682E+03  0.00000000000E+00 0.  1.
         21    1    1    2  502  501 -0.48704487026E+02 -0.97485649327E+01  0.89927136855E+01  0.50478019713E+02  0.00000000000E+00 0.  1.
<scales pt_clust_4="550.00000" pt_clust_5="550.00000" pt_clust_6="49.67053"></scales>
<mgrwt>
<rscale>  0 0.30000000E+03</rscale>
<asrwt>  1 0.49670530E+02</asrwt>
<pdfrwt beam="1">  1        1 0.86437933E+00 0.30000000E+03</pdfrwt>
<pdfrwt beam="2">0</pdfrwt>
<totfact> 0.27230699E-04</totfact>
</mgrwt>
<clustering>
<clus scale="   49.671">  1  6  2 -1</clus>
<clus scale="  457.213">  4  5 -1 -1</clus>
<clus scale="  300.000">  1  4  2 -1</clus>
</clustering>
</event>
<event>
 6    1  0.9843879E-012  0.3000000E+03  0.7818608E-02  0.1093470E+00
          1   -1    0    0  502    0  0.00000000000E+00  0.00000000000E+00  0.24471524956E+03  0.24471524956E+03  0.00000000000E+00 0.  1.
         13   -1    0    0    0    0 -0.00000000000E+00 -0.00000000000E+00 -0.27500000000E+03  0.27500000000E+03  0.00000000000E+00 0.  1.
    9000005    2    1    2  501    0 -0.13689945406E+02 -0.39347377677E+02 -0.65407386067E+02  0.46522460570E+03  0.45871579094E+03 0.  0.
         13    1    3    3    0    0 -0.22032313435E+03 -0.65747103617E+02 -0.10569109794E+03  0.25305251105E+03  0.00000000000E+00 0.  1.
          3    1    3    3  501    0  0.20663318895E+03  0.26399725940E+02  0.40283711872E+02  0.21217209465E+03  0.00000000000E+00 0.  1.
         21    1    1    2  502  501  0.13689945406E+02  0.39347377677E+02  0.35122635631E+02  0.54490643866E+02  0.00000000000E+00 0. -1.
<scales pt_clust_4="550.00000" pt_clust_5="550.00000" pt_clust_6="41.66090"></scales>
<mgrwt>
<rscale>  0 0.30000000E+03</rscale>
<asrwt>  1 0.41660902E+02</asrwt>
<pdfrwt beam="1">  1        1 0.88987363E+00 0.30000000E+03</pdfrwt>
<pdfrwt beam="2">0</pdfrwt>
<totfact> 0.14092695E-04</totfact>
</mgrwt>
<clustering>
<clus scale="   41.661">  1  6  2 -1</clus>
<clus scale="  458.716">  4  5 -1 -1</clus>
<clus scale="  300.000">  1  4  2 -1</clus>
</clustering>
</event>
<event>
 6    1  0.9843879E-012  0.3000000E+03  0.7818608E-02  0.1093470E+00
          1   -1    0    0  502    0  0.00000000000E+00  0.00000000000E+00  0.24307600948E+03  0.24307600948E+03  0.00000000000E+00 0.  1.
         13   -1    0    0    0    0 -0.00000000000E+00 -0.00000000000E+00 -0.27500000000E+03  0.27500000000E+03  0.00000000000E+00 0.  1.
    9000005    2    1    2  501    0  0.40953351165E+02  0.22010780675E+02 -0.43749690425E+02  0.47010207264E+03  0.46574700413E+03 0.  0.
         13    1    3    3    0    0  0.74576858800E+02 -0.18174530828E+03  0.98083071613E+02  0.21957539454E+03  0.00000000000E+00 0.  1.
          1    1    3    3  501    0 -0.33623507635E+02  0.20375608896E+03 -0.14183276204E+03  0.25052667810E+03  0.00000000000E+00 0.  1.
         21    1    1    2  502  501 -0.40953351165E+02 -0.22010780675E+02  0.11825699909E+02  0.47973936839E+02  0.00000000000E+00 0. -1.
<scales pt_clust_4="550.00000" pt_clust_5="550.00000" pt_clust_6="46.49356"></scales>
<mgrwt>
<rscale>  0 0.30000000E+03</rscale>
<asrwt>  1 0.46493563E+02</asrwt>
<pdfrwt beam="1">  1        1 0.88391276E+00 0.30000000E+03</pdfrwt>
<pdfrwt beam="2">0</pdfrwt>
<totfact> 0.16673541E-04</totfact>
</mgrwt>
<clustering>
<clus scale="   46.494">  1  6  2 -1</clus>
<clus scale="  465.747">  4  5 -1 -1</clus>
<clus scale="  300.000">  1  4  2 -1</clus>
</clustering>
</event>
<event>
 6    1  0.9843879E-012  0.3000000E+03  0.7818608E-02  0.1093470E+00
          1   -1    0    0  502    0  0.00000000000E+00  0.00000000000E+00  0.24284218234E+03  0.24284218234E+03  0.00000000000E+00 0.  1.
         13   -1    0    0    0    0 -0.00000000000E+00 -0.00000000000E+00 -0.27500000000E+03  0.27500000000E+03  0.00000000000E+00 0.  1.
    9000005    2    1    2  501    0  0.39327412073E+02  0.36640493733E+01 -0.31116493260E+02  0.47833072888E+03  0.47568054347E+03 0.  0.
         13    1    3    3    0    0  0.31113386767E+02  0.14861584413E+03  0.17150721353E+03  0.22906207948E+03  0.00000000000E+00 0.  1.
          3    1    3    3  501    0  0.82140253054E+01 -0.14495179476E+03 -0.20262370679E+03  0.24926864939E+03  0.00000000000E+00 0.  1.
         21    1    1    2  502  501 -0.39327412073E+02 -0.36640493733E+01 -0.10413244021E+01  0.39511453462E+02  0.00000000000E+00 0.  1.
<scales pt_clust_4="550.00000" pt_clust_5="550.00000" pt_clust_6="39.49773"></scales>
<mgrwt>
<rscale>  0 0.30000000E+03</rscale>
<asrwt>  1 0.39497729E+02</asrwt>
<pdfrwt beam="1">  1        1 0.88306248E+00 0.30000000E+03</pdfrwt>
<pdfrwt beam="2">0</pdfrwt>
<totfact> 0.17628099E-04</totfact>
</mgrwt>
<clustering>
<clus scale="   39.498">  1  6  2 -1</clus>
<clus scale="  475.681">  4  5 -1 -1</clus>
<clus scale="  300.000">  1  4  2 -1</clus>
</clustering>
</event>
<event>
 6    1  0.9843879E-012  0.3000000E+03  0.7818608E-02  0.1093470E+00
          1   -1    0    0  502    0  0.00000000000E+00  0.00000000000E+00  0.24578958955E+03  0.24578958955E+03  0.00000000000E+00 0.  1.
         13   -1    0    0    0    0 -0.00000000000E+00 -0.00000000000E+00 -0.27500000000E+03  0.27500000000E+03  0.00000000000E+00 0.  1.
    9000005    2    1    2  501    0  0.25329430205E+02 -0.46840997638E+02 -0.49766698448E+02  0.46370876904E+03  0.45794479920E+03 0.  0.
         13    1    3    3    0    0  0.10116015271E+03 -0.21786221499E+03 -0.11403654517E+03  0.26589782784E+03  0.00000000000E+00 0.  1.
          1    1    3    3  501    0 -0.75830722504E+02  0.17102121735E+03  0.64269846726E+02  0.19781094120E+03  0.00000000000E+00 0.  1.
         21    1    1    2  502  501 -0.25329430205E+02  0.46840997638E+02  0.20556287996E+02  0.57080820513E+02  0.00000000000E+00 0.  1.
<scales pt_clust_4="550.00000" pt_clust_5="550.00000" pt_clust_6="53.25091"></scales>
<mgrwt>
<rscale>  0 0.30000000E+03</rscale>
<asrwt>  1 0.53250907E+02</asrwt>
<pdfrwt beam="1">  1        1 0.89378033E+00 0.30000000E+03</pdfrwt>
<pdfrwt beam="2">0</pdfrwt>
<totfact> 0.12070033E-04</totfact>
</mgrwt>
<clustering>
<clus scale="   53.251">  1  6  2 -1</clus>
<clus scale="  457.945">  4  5 -1 -1</clus>
<clus scale="  300.000">  1  4  2 -1</clus>
</clustering>
</event>
<event>
 6    1  0.9843879E-012  0.3000000E+03  0.7818608E-02  0.1093470E+00
          1   -1    0    0  502    0  0.00000000000E+00  0.00000000000E+00  0.22925807038E+03  0.22925807038E+03  0.00000000000E+00 0.  1.
         13   -1    0    0    0    0 -0.00000000000E+00 -0.00000000000E+00 -0.27500000000E+03  0.27500000000E+03  0.00000000000E+00 0.  1.
    9000005    2    1    2  501    0  0.10785507711E+02 -0.37648336626E+02 -0.31454049566E+02  0.46257032705E+03  0.45983499845E+03 0.  0.
         13    1    3    3    0    0  0.11644324495E+03  0.18060423568E+03  0.16019159886E+02  0.21548441411E+03  0.00000000000E+00 0.  1.
          3    1    3    3  501    0 -0.10565773724E+03 -0.21825257231E+03 -0.47473209452E+02  0.24708591294E+03  0.00000000000E+00 0.  1.
         21    1    1    2  502  501 -0.10785507711E+02  0.37648336626E+02 -0.14287880059E+02  0.41687743329E+02  0.00000000000E+00 0.  1.
<scales pt_clust_4="550.00000" pt_clust_5="550.00000" pt_clust_6="39.16281"></scales>
<mgrwt>
<rscale>  0 0.30000000E+03</rscale>
<asrwt>  1 0.39162813E+02</asrwt>
<pdfrwt beam="1">  1        1 0.83366571E+00 0.30000000E+03</pdfrwt>
<pdfrwt beam="2">0</pdfrwt>
<totfact> 0.54197282E-04</totfact>
</mgrwt>
<clustering>
<clus scale="   39.163">  1  6  2 -1</clus>
<clus scale="  459.835">  4  5 -1 -1</clus>
<clus scale="  300.000">  1  4  2 -1</clus>
</clustering>
</event>
<event>
 6    1  0.9843879E-012  0.3000000E+03  0.7818608E-02  0.1093470E+00
          1   -1    0    0  502    0  0.00000000000E+00  0.00000000000E+00  0.23489305554E+03  0.23489305554E+03  0.00000000000E+00 0.  1.
         13   -1    0    0    0    0 -0.00000000000E+00 -0.00000000000E+00 -0.27500000000E+03  0.27500000000E+03  0.00000000000E+00 0.  1.
    9000005    2    1    2  501    0  0.28610141651E+02  0.13471284114E+02 -0.44139457108E+02  0.47801395802E+03  0.47492003188E+03 0.  0.
         13    1    3    3    0    0  0.25108972435E+03 -0.10401402089E+02 -0.85979064920E+01  0.25145210843E+03  0.00000000000E+00 0.  1.
          3    1    3    3  501    0 -0.22247958270E+03  0.23872686203E+02 -0.35541550616E+02  0.22656184958E+03  0.00000000000E+00 0.  1.
         21    1    1    2  502  501 -0.28610141651E+02 -0.13471284114E+02  0.40325126526E+01  0.31879097529E+02  0.00000000000E+00 0.  1.
<scales pt_clust_4="550.00000" pt_clust_5="550.00000" pt_clust_6="31.62302"></scales>
<mgrwt>
<rscale>  0 0.30000000E+03</rscale>
<asrwt>  1 0.31623025E+02</asrwt>
<pdfrwt beam="1">  1        1 0.85415657E+00 0.30000000E+03</pdfrwt>
<pdfrwt beam="2">0</pdfrwt>
<totfact> 0.37854092E-04</totfact>
</mgrwt>
<clustering>
<clus scale="   31.623">  1  6  2 -1</clus>
<clus scale="  474.920">  4  5 -1 -1</clus>
<clus scale="  300.000">  1  4  2 -1</clus>
</clustering>
</event>
<event>
 6    1  0.9843879E-012  0.3000000E+03  0.7818608E-02  0.1093470E+00
          1   -1    0    0  502    0  0.00000000000E+00  0.00000000000E+00  0.23202981716E+03  0.23202981716E+03  0.00000000000E+00 0.  1.
         13   -1    0    0    0    0 -0.00000000000E+00 -0.00000000000E+00 -0.27500000000E+03  0.27500000000E+03  0.00000000000E+00 0.  1.
    9000005    2    1    2  501    0  0.38759415497E+02 -0.21857174759E+02 -0.44381593671E+02  0.46250992881E+03  0.45822012179E+03 0.  0.
         13    1    3    3    0    0  0.17942053904E+03 -0.12253024006E+03 -0.14611992252E+03  0.26183281176E+03  0.00000000000E+00 0.  1.
          1    1    3    3  501    0 -0.14066112354E+03  0.10067306530E+03  0.10173832885E+03  0.20067711705E+03  0.00000000000E+00 0.  1.
         21    1    1    2  502  501 -0.38759415497E+02  0.21857174759E+02  0.14114108346E+01  0.44519888350E+02  0.00000000000E+00 0. -1.
<scales pt_clust_4="550.00000" pt_clust_5="550.00000" pt_clust_6="44.49751"></scales>
<mgrwt>
<rscale>  0 0.30000000E+03</rscale>
<asrwt>  1 0.44497510E+02</asrwt>
<pdfrwt beam="1">  1        1 0.84374479E+00 0.30000000E+03</pdfrwt>
<pdfrwt beam="2">0</pdfrwt>
<totfact> 0.44334431E-04</totfact>
</mgrwt>
<clustering>
<clus scale="   44.498">  1  6  2 -1</clus>
<clus scale="  458.220">  4  5 -1 -1</clus>
<clus scale="  300.000">  1  4  2 -1</clus>
</clustering>
</event>
<event>
 6    1  0.9843879E-012  0.3000000E+03  0.7818608E-02  0.1093470E+00
          1   -1    0    0  502    0  0.00000000000E+00  0.00000000000E+00  0.23915021633E+03  0.23915021633E+03  0.00000000000E+00 0.  1.
         13   -1    0    0    0    0 -0.00000000000E+00 -0.00000000000E+00 -0.27500000000E+03  0.27500000000E+03  0.00000000000E+00 0.  1.
    9000005    2    1    2  501    0 -0.49093206781E+01  0.30718454218E+02 -0.66422139514E+02  0.47053377676E+03  0.46478210980E+03 0.  0.
         13    1    3    3    0    0 -0.11006877663E+03  0.21921133749E+03 -0.68510186944E+02  0.25468096079E+03  0.00000000000E+00 0.  1.
          3    1    3    3  501    0  0.10515945595E+03 -0.18849288327E+03  0.20880474294E+01  0.21585281597E+03  0.00000000000E+00 0.  1.
         21    1    1    2  502  501  0.49093206781E+01 -0.30718454218E+02  0.30572355840E+02  0.43616439569E+02  0.00000000000E+00 0. -1.
<scales pt_clust_4="550.00000" pt_clust_5="550.00000" pt_clust_6="31.10828"></scales>
<mgrwt>
<rscale>  0 0.30000000E+03</rscale>
<asrwt>  1 0.31108276E+02</asrwt>
<pdfrwt beam="1">  1        1 0.86963715E+00 0.30000000E+03</pdfrwt>
<pdfrwt beam="2">0</pdfrwt>
<totfact> 0.26118369E-04</totfact>
</mgrwt>
<clustering>
<clus scale="   31.108">  1  6  2 -1</clus>
<clus scale="  464.782">  4  5 -1 -1</clus>
<clus scale="  300.000">  1  4  2 -1</clus>
</clustering>
</event>
<event>
 6    1  0.9843879E-012  0.3000000E+03  0.7818608E-02  0.1093470E+00
          1   -1    0    0  502    0  0.00000000000E+00  0.00000000000E+00  0.25275510582E+03  0.25275510582E+03  0.00000000000E+00 0.  1.
         13   -1    0    0    0    0 -0.00000000000E+00 -0.00000000000E+00 -0.27500000000E+03  0.27500000000E+03  0.00000000000E+00 0.  1.
    9000005    2    1    2  501    0 -0.30951245526E+02  0.26077116766E+01 -0.76416446034E+02  0.46531043599E+03  0.45794055166E+03 0.  0.
         13    1    3    3    0    0 -0.11037593813E+03  0.15044077367E+03  0.10830299880E+03  0.21574247067E+03  0.00000000000E+00 0.  1.
          1    1    3    3  501    0  0.79424692609E+02 -0.14783306199E+03 -0.18471944484E+03  0.24956796532E+03  0.00000000000E+00 0.  1.
         21    1    1    2  502  501  0.30951245526E+02 -0.26077116766E+01  0.54171551858E+02  0.62444669833E+02  0.00000000000E+00 0. -1.
<scales pt_clust_4="550.00000" pt_clust_5="550.00000" pt_clust_6="31.06090"></scales>
<mgrwt>
<rscale>  0 0.30000000E+03</rscale>
<asrwt>  1 0.31060904E+02</asrwt>
<pdfrwt beam="1">  1        1 0.91910948E+00 0.30000000E+03</pdfrwt>
<pdfrwt beam="2">0</pdfrwt>
<totfact> 0.44713249E-05</totfact>
</mgrwt>
<clustering>
<clus scale="   31.061">  1  6  2 -1</clus>
<clus scale="  457.941">  4  5 -1 -1</clus>
<clus scale="  300.000">  1  4  2 -1</clus>
</clustering>
</event>
<event>
 6    1  0.9843879E-012  0.3000000E+03  0.7818608E-02  0.1093470E+00
          1   -1    0    0  502    0  0.00000000000E+00  0.00000000000E+00  0.23459492719E+03  0.23459492719E+03  0.00000000000E+00 0.  1.
         13   -1    0    0    0    0 -0.00000000000E+00 -0.00000000000E+00 -0.27500000000E+03  0.27500000000E+03  0.00000000000E+00 0.  1.
    9000005    2    1    2  501    0  0.42370638418E+02 -0.18597257746E+01 -0.40396382976E+02  0.46718349411E+03  0.46349737845E+03 0.  0.
         13    1    3    3    0    0  0.16388266189E+02 -0.21616008682E+03  0.65881389128E+02  0.22657033309E+03  0.00000000000E+00 0.  1.
          3    1    3    3  501    0  0.25982372229E+02  0.21430036105E+03 -0.10627777210E+03  0.24061316102E+03  0.00000000000E+00 0.  1.
         21    1    1    2  502  501 -0.42370638418E+02  0.18597257746E+01 -0.86898389796E-02  0.42411433074E+02  0.00000000000E+00 0. -1.
<scales pt_clust_4="550.00000" pt_clust_5="550.00000" pt_clust_6="42.41143"></scales>
<mgrwt>
<rscale>  0 0.30000000E+03</rscale>
<asrwt>  1 0.42411432E+02</asrwt>
<pdfrwt beam="1">  1        1 0.85307246E+00 0.30000000E+03</pdfrwt>
<pdfrwt beam="2">0</pdfrwt>
<totfact> 0.36726053E-04</totfact>
</mgrwt>
<clustering>
<clus scale="   42.411">  1  6  2 -1</clus>
<clus scale="  463.497">  4  5 -1 -1</clus>
<clus scale="  300.000">  1  4  2 -1</clus>
</clustering>
</event>
<event>
 6    1  0.9843879E-012  0.3000000E+03  0.7818608E-02  0.1093470E+00
          1   -1    0    0  502    0  0.00000000000E+00  0.00000000000E+00  0.22452896556E+03  0.22452896556E+03  0.00000000000E+00 0.  1.
         13   -1    0    0    0    0 -0.00000000000E+00 -0.00000000000E+00 -0.27500000000E+03  0.27500000000E+03  0.00000000000E+00 0.  1.
    9000005    2    1    2  501    0 -0.30973817908E+02  0.14244885440E+02 -0.60583392040E+02  0.46396839845E+03  0.45873089411E+03 0.  0.
         13    1    3    3    0    0  0.13290166120E+03 -0.12410039071E+03  0.89044786177E+02  0.20246662063E+03  0.00000000000E+00 0.  1.
          3    1    3    3  501    0 -0.16387547911E+03  0.13834527615E+03 -0.14962817822E+03  0.26150177782E+03  0.00000000000E+00 0.  1.
         21    1    1    2  502  501  0.30973817908E+02 -0.14244885440E+02  0.10112357599E+02  0.35560567110E+02  0.00000000000E+00 0.  1.
<scales pt_clust_4="550.00000" pt_clust_5="550.00000" pt_clust_6="34.09244"></scales>
<mgrwt>
<rscale>  0 0.30000000E+03</rscale>
<asrwt>  1 0.34092435E+02</asrwt>
<pdfrwt beam="1">  1        1 0.81646897E+00 0.30000000E+03</pdfrwt>
<pdfrwt beam="2">0</pdfrwt>
<totfact> 0.77826022E-04</totfact>
</mgrwt>
<clustering>
<clus scale="   34.092">  1  6  2 -1</clus>
<clus scale="  458.731">  4  5 -1 -1</clus>
<clus scale="  300.000">  1  4  2 -1</clus>
</clustering>
</event>
<event>
 6    1  0.9843879E-012  0.3000000E+03  0.7818608E-02  0.1093470E+00
          1   -1    0    0  502    0  0.00000000000E+00  0.00000000000E+00  0.22336183440E+03  0.22336183440E+03  0.00000000000E+00 0.  1.
         13   -1    0    0    0    0 -0.00000000000E+00 -0.00000000000E+00 -0.27500000000E+03  0.27500000000E+03  0.00000000000E+00 0.  1.
    9000005    2    1    2  501    0  0.28817110328E+02  0.13423678578E+02 -0.27273838693E+02  0.45830885174E+03  0.45639075398E+03 0.  0.
         13    1    3    3    0    0  0.19360521090E+03 -0.59235473675E+02 -0.13971699340E+03  0.24599320574E+03  0.00000000000E+00 0.  1.
          1    1    3    3  501    0 -0.16478810057E+03  0.72659152253E+02  0.11244315471E+03  0.21231564600E+03  0.00000000000E+00 0.  1.
         21    1    1    2  502  501 -0.28817110328E+02 -0.13423678578E+02 -0.24364326906E+02  0.40052982658E+02  0.00000000000E+00 0.  1.
<scales pt_clust_4="550.00000" pt_clust_5="550.00000" pt_clust_6="31.79028"></scales>
<mgrwt>
<rscale>  0 0.30000000E+03</rscale>
<asrwt>  1 0.31790282E+02</asrwt>
<pdfrwt beam="1">  1        1 0.81222485E+00 0.30000000E+03</pdfrwt>
<pdfrwt beam="2">0</pdfrwt>
<totfact> 0.85310447E-04</totfact>
</mgrwt>
<clustering>
<clus scale="   31.790">  1  6  2 -1</clus>
<clus scale="  456.391">  4  5 -1 -1</clus>
<clus scale="  300.000">  1  4  2 -1</clus>
</clustering>
</event>
<event>
 6    1  0.9843879E-012  0.3000000E+03  0.7818608E-02  0.1093470E+00
          1   -1    0    0  502    0  0.00000000000E+00  0.00000000000E+00  0.22295305912E+03  0.22295305912E+03  0.00000000000E+00 0.  1.
         13   -1    0    0    0    0 -0.00000000000E+00 -0.00000000000E+00 -0.27500000000E+03  0.27500000000E+03  0.00000000000E+00 0.  1.
    9000005    2    1    2  501    0 -0.26188586032E+02  0.24637046841E+02 -0.40615525583E+02  0.46022371548E+03  0.45701577791E+03 0.  0.
         13    1    3    3    0    0 -0.18842742793E+03 -0.12956987802E+03  0.16333126766E+02  0.22925972153E+03  0.00000000000E+00 0.  1.
          3    1    3    3  501    0  0.16223884190E+03  0.15420692487E+03 -0.56948652349E+02  0.23096399395E+03  0.00000000000E+00 0.  1.
         21    1    1    2  502  501  0.26188586032E+02 -0.24637046841E+02 -0.11431415300E+02  0.37729343635E+02  0.00000000000E+00 0. -1.
<scales pt_clust_4="550.00000" pt_clust_5="550.00000" pt_clust_6="35.95591"></scales>
<mgrwt>
<rscale>  0 0.30000000E+03</rscale>
<asrwt>  1 0.35955909E+02</asrwt>
<pdfrwt beam="1">  1        1 0.81073840E+00 0.30000000E+03</pdfrwt>
<pdfrwt beam="2">0</pdfrwt>
<totfact> 0.85631913E-04</totfact>
</mgrwt>
<clustering>
<clus scale="   35.956">  1  6  2 -1</clus>
<clus scale="  457.016">  4  5 -1 -1</clus>
<clus scale="  300.000">  1  4  2 -1</clus>
</clustering>
</event>
<event>
 6    1  0.9843879E-012  0.3000000E+03  0.7818608E-02  0.1093470E+00
          1   -1    0    0  502    0  0.00000000000E+00  0.00000000000E+00  0.26716283974E+03  0.26716283974E+03  0.00000000000E+00 0.  1.
         13   -1    0    0    0    0 -0.00000000000E+00 -0.00000000000E+00 -0.27500000000E+03  0.27500000000E+03  0.00000000000E+00 0.  1.
    9000005    2    1    2  501    0 -0.41974480107E+02  0.39046990141E+02 -0.17746925484E+02  0.48398442565E+03  0.48024935865E+03 0.  0.
         13    1    3    3    0    0 -0.17119258569E+02  0.20427264320E+03  0.14472514577E+03  0.25092977024E+03  0.00000000000E+00 0.  1.
          1    1    3    3  501    0 -0.24855221539E+02 -0.16522565306E+03 -0.16247207126E+03  0.23305465541E+03  0.00000000000E+00 0.  1.
         21    1    1    2  502  501  0.41974480107E+02 -0.39046990141E+02  0.99097652229E+01  0.58178414091E+02  0.00000000000E+00 0. -1.
<scales pt_clust_4="550.00000" pt_clust_5="550.00000" pt_clust_6="57.32822"></scales>
<mgrwt>
<rscale>  0 0.30000000E+03</rscale>
<asrwt>  1 0.57328217E+02</asrwt>
<pdfrwt beam="1">  1        1 0.97150124E+00 0.30000000E+03</pdfrwt>
<pdfrwt beam="2">0</pdfrwt>
<totfact> 0.43092683E-06</totfact>
</mgrwt>
<clustering>
<clus scale="   57.328">  1  6  2 -1</clus>
<clus scale="  480.249">  4  5 -1 -1</clus>
<clus scale="  300.000">  1  4  2 -1</clus>
</clustering>
</event>
<event>
 6    1  0.9843879E-012  0.3000000E+03  0.7818608E-02  0.1093470E+00
          1   -1    0    0  502    0  0.00000000000E+00  0.00000000000E+00  0.24888398455E+03  0.24888398455E+03  0.00000000000E+00 0.  1.
         13   -1    0    0    0    0 -0.00000000000E+00 -0.00000000000E+00 -0.27500000000E+03  0.27500000000E+03  0.00000000000E+00 0.  1.
    9000005    2    1    2  501    0 -0.90092505790E+01  0.46800647689E+02 -0.41193288532E+02  0.47389607217E+03  0.46969046507E+03 0.  0.
         13    1    3    3    0    0  0.21306975119E+03 -0.39436947113E+02 -0.82961430834E+02  0.23202713350E+03  0.00000000000E+00 0.  1.
          1    1    3    3  501    0 -0.22207900177E+03  0.86237594803E+02  0.41768142302E+02  0.24186893868E+03  0.00000000000E+00 0.  1.
         21    1    1    2  502  501  0.90092505790E+01 -0.46800647689E+02  0.15077273082E+02  0.49987912376E+02  0.00000000000E+00 0. -1.
<scales pt_clust_4="550.00000" pt_clust_5="550.00000" pt_clust_6="47.65991"></scales>
<mgrwt>
<rscale>  0 0.30000000E+03</rscale>
<asrwt>  1 0.47659912E+02</asrwt>
<pdfrwt beam="1">  1        1 0.90503267E+00 0.30000000E+03</pdfrwt>
<pdfrwt beam="2">0</pdfrwt>
<totfact> 0.87292189E-05</totfact>
</mgrwt>
<clustering>
<clus scale="   47.660">  1  6  2 -1</clus>
<clus scale="  469.690">  4  5 -1 -1</clus>
<clus scale="  300.000">  1  4  2 -1</clus>
</clustering>
</event>
<event>
 6    1  0.9843879E-012  0.3000000E+03  0.7818608E-02  0.1093470E+00
          1   -1    0    0  502    0  0.00000000000E+00  0.00000000000E+00  0.23466270734E+03  0.23466270734E+03  0.00000000000E+00 0.  1.
         13   -1    0    0    0    0 -0.00000000000E+00 -0.00000000000E+00 -0.27500000000E+03  0.27500000000E+03  0.00000000000E+00 0.  1.
    9000005    2    1    2  501    0  0.16677686698E+02 -0.27811254811E+02 -0.55533980832E+02  0.47384999369E+03  0.46946584792E+03 0.  0.
         13    1    3    3    0    0  0.14172229276E+03 -0.16090988106E+03 -0.15623288537E+03  0.26530343488E+03  0.00000000000E+00 0.  1.
          3    1    3    3  501    0 -0.12504460606E+03  0.13309862625E+03  0.10069890454E+03  0.20854655881E+03  0.00000000000E+00 0.  1.
         21    1    1    2  502  501 -0.16677686698E+02  0.27811254811E+02  0.15196688175E+02  0.35812713654E+02  0.00000000000E+00 0.  1.
<scales pt_clust_4="550.00000" pt_clust_5="550.00000" pt_clust_6="32.42855"></scales>
<mgrwt>
<rscale>  0 0.30000000E+03</rscale>
<asrwt>  1 0.32428554E+02</asrwt>
<pdfrwt beam="1">  1        1 0.85331894E+00 0.30000000E+03</pdfrwt>
<pdfrwt beam="2">0</pdfrwt>
<totfact> 0.38385016E-04</totfact>
</mgrwt>
<clustering>
<clus scale="   32.429">  1  6  2 -1</clus>
<clus scale="  469.466">  4  5 -1 -1</clus>
<clus scale="  300.000">  1  4  2 -1</clus>
</clustering>
</event>
<event>
 6    1  0.9843879E-012  0.3000000E+03  0.7818608E-02  0.1093470E+00
          1   -1    0    0  502    0  0.00000000000E+00  0.00000000000E+00  0.23953147606E+03  0.23953147606E+03  0.00000000000E+00 0.  1.
         13   -1    0    0    0    0 -0.00000000000E+00 -0.00000000000E+00 -0.27500000000E+03  0.27500000000E+03  0.00000000000E+00 0.  1.
    9000005    2    1    2  501    0  0.73274993807E+01 -0.31898505211E+02 -0.56580146291E+02  0.47558397960E+03  0.47107069726E+03 0.  0.
         13    1    3    3    0    0 -0.20815369562E+03  0.54538873512E+02 -0.10340723520E+03  0.23873731593E+03  0.00000000000E+00 0.  1.
          3    1    3    3  501    0  0.21548119500E+03 -0.86437378723E+02  0.46827088905E+02  0.23684666368E+03  0.00000000000E+00 0.  1.
         21    1    1    2  502  501 -0.73274993807E+01  0.31898505211E+02  0.21111622351E+02  0.38947496456E+02  0.00000000000E+00 0.  1.
<scales pt_clust_4="550.00000" pt_clust_5="550.00000" pt_clust_6="32.72930"></scales>
<mgrwt>
<rscale>  0 0.30000000E+03</rscale>
<asrwt>  1 0.32729297E+02</asrwt>
<pdfrwt beam="1">  1        1 0.87102355E+00 0.30000000E+03</pdfrwt>
<pdfrwt beam="2">0</pdfrwt>
<totfact> 0.25036916E-04</totfact>
</mgrwt>
<clustering>
<clus scale="   32.729">  1  6  2 -1</clus>
<clus scale="  471.071">  4  5 -1 -1</clus>
<clus scale="  300.000">  1  4  2 -1</clus>
</clustering>
</event>
<event>
 6    1  0.9843879E-012  0.3000000E+03  0.7818608E-02  0.1093470E+00
          1   -1    0    0  502    0  0.00000000000E+00  0.00000000000E+00  0.23097005347E+03  0.23097005347E+03  0.00000000000E+00 0.  1.
         13   -1    0    0    0    0 -0.00000000000E+00 -0.00000000000E+00 -0.27500000000E+03  0.27500000000E+03  0.00000000000E+00 0.  1.
    9000005    2    1    2  501    0  0.16209556026E+02 -0.41846721053E+02 -0.43813709425E+02  0.46109306016E+03  0.45680769611E+03 0.  0.
         13    1    3    3    0    0  0.34479160840E+01 -0.22808700425E+03 -0.12201825665E+03  0.25869678118E+03  0.00000000000E+00 0.  1.
          3    1    3    3  501    0  0.12761639942E+02  0.18624028320E+03  0.78204547227E+02  0.20239627899E+03  0.00000000000E+00 0.  1.
         21    1    1    2  502  501 -0.16209556026E+02  0.41846721053E+02 -0.21623710987E+00  0.44876993304E+02  0.00000000000E+00 0. -1.
<scales pt_clust_4="550.00000" pt_clust_5="550.00000" pt_clust_6="44.87647"></scales>
<mgrwt>
<rscale>  0 0.30000000E+03</rscale>
<asrwt>  1 0.44876472E+02</asrwt>
<pdfrwt beam="1">  1        1 0.83989110E+00 0.30000000E+03</pdfrwt>
<pdfrwt beam="2">0</pdfrwt>
<totfact> 0.47587339E-04</totfact>
</mgrwt>
<clustering>
<clus scale="   44.876">  1  6  2 -1</clus>
<clus scale="  456.808">  4  5 -1 -1</clus>
<clus scale="  300.000">  1  4  2 -1</clus>
</clustering>
</event>
<event>
 6    1  0.9843879E-012  0.3000000E+03  0.7818608E-02  0.1093470E+00
          1   -1    0    0  502    0  0.00000000000E+00  0.00000000000E+00  0.22688782433E+03  0.22688782433E+03  0.00000000000E+00 0.  1.
         13   -1    0    0    0    0 -0.00000000000E+00 -0.00000000000E+00 -0.27500000000E+03  0.27500000000E+03  0.00000000000E+00 0.  1.
    9000005    2    1    2  501    0 -0.33643948624E+00 -0.32623162409E+02 -0.68952119464E+02  0.46317494308E+03  0.45685035756E+03 0.  0.
         13    1    3    3    0    0  0.29801564403E+02 -0.18577388915E+03 -0.18867824184E+03  0.26645740762E+03  0.00000000000E+00 0.  1.
          1    1    3    3  501    0 -0.30138003889E+02  0.15315072674E+03  0.11972612238E+03  0.19671753546E+03  0.00000000000E+00 0.  1.
         21    1    1    2  502  501  0.33643948624E+00  0.32623162409E+02  0.20839943789E+02  0.38712881244E+02  0.00000000000E+00 0. -1.
<scales pt_clust_4="550.00000" pt_clust_5="550.00000" pt_clust_6="32.62490"></scales>
<mgrwt>
<rscale>  0 0.30000000E+03</rscale>
<asrwt>  1 0.32624897E+02</asrwt>
<pdfrwt beam="1">  1        1 0.82504663E+00 0.30000000E+03</pdfrwt>
<pdfrwt beam="2">0</pdfrwt>
<totfact> 0.66123584E-04</totfact>
</mgrwt>
<clustering>
<clus scale="   32.625">  1  6  2 -1</clus>
<clus scale="  456.850">  4  5 -1 -1</clus>
<clus scale="  300.000">  1  4  2 -1</clus>
</clustering>
</event>
<event>
 6    1  0.9843879E-012  0.3000000E+03  0.7818608E-02  0.1093470E+00
          1   -1    0    0  502    0  0.00000000000E+00  0.00000000000E+00  0.23330305739E+03  0.23330305739E+03  0.00000000000E+00 0.  1.
         13   -1    0    0    0    0 -0.00000000000E+00 -0.00000000000E+00 -0.27500000000E+03  0.27500000000E+03  0.00000000000E+00 0.  1.
    9000005    2    1    2  501    0  0.31226601187E+02 -0.21578626896E+02 -0.50740581670E+02  0.46928350885E+03  0.46498566353E+03 0.  0.
         13    1    3    3    0    0  0.67864104215E+02 -0.23352797677E+03 -0.70725163131E+02  0.25326448877E+03  0.00000000000E+00 0.  1.
          3    1    3    3  501    0 -0.36637503028E+02  0.21194934987E+03  0.19984581461E+02  0.21601902008E+03  0.00000000000E+00 0.  1.
         21    1    1    2  502  501 -0.31226601187E+02  0.21578626896E+02  0.90436390565E+01  0.39019548534E+02  0.00000000000E+00 0. -1.
<scales pt_clust_4="550.00000" pt_clust_5="550.00000" pt_clust_6="37.95705"></scales>
<mgrwt>
<rscale>  0 0.30000000E+03</rscale>
<asrwt>  1 0.37957052E+02</asrwt>
<pdfrwt beam="1">  1        1 0.84837475E+00 0.30000000E+03</pdfrwt>
<pdfrwt beam="2">0</pdfrwt>
<totfact> 0.41508938E-04</totfact>
</mgrwt>
<clustering>
<clus scale="   37.957">  1  6  2 -1</clus>
<clus scale="  464.986">  4  5 -1 -1</clus>
<clus scale="  300.000">  1  4  2 -1</clus>
</clustering>
</event>
<event>
 6    1  0.9843879E-012  0.3000000E+03  0.7818608E-02  0.1093470E+00
          1   -1    0    0  502    0  0.00000000000E+00  0.00000000000E+00  0.22922766475E+03  0.22922766475E+03  0.00000000000E+00 0.  1.
         13   -1    0    0    0    0 -0.00000000000E+00 -0.00000000000E+00 -0.27500000000E+03  0.27500000000E+03  0.00000000000E+00 0.  1.
    9000005    2    1    2  501    0 -0.22547642946E+02 -0.23136457880E+02 -0.61489923289E+02  0.46830087169E+03  0.46312093871E+03 0.  0.
         13    1    3    3    0    0 -0.13334033332E+03 -0.97144068204E+02 -0.21112950463E+03  0.26794081847E+03  0.00000000000E+00 0.  1.
          1    1    3    3  501    0  0.11079269037E+03  0.74007610323E+02  0.14963958134E+03  0.20036005323E+03  0.00000000000E+00 0.  1.
         21    1    1    2  502  501  0.22547642946E+02  0.23136457880E+02  0.15717588039E+02  0.35926793058E+02  0.00000000000E+00 0.  1.
<scales pt_clust_4="550.00000" pt_clust_5="550.00000" pt_clust_6="32.30622"></scales>
<mgrwt>
<rscale>  0 0.30000000E+03</rscale>
<asrwt>  1 0.32306221E+02</asrwt>
<pdfrwt beam="1">  1        1 0.83355514E+00 0.30000000E+03</pdfrwt>
<pdfrwt beam="2">0</pdfrwt>
<totfact> 0.56284627E-04</totfact>
</mgrwt>
<clustering>
<clus scale="   32.306">  1  6  2 -1</clus>
<clus scale="  463.121">  4  5 -1 -1</clus>
<clus scale="  300.000">  1  4  2 -1</clus>
</clustering>
</event>
<event>
 6    1  0.9843879E-012  0.3000000E+03  0.7818608E-02  0.1093470E+00
          1   -1    0    0  502    0  0.00000000000E+00  0.00000000000E+00  0.23275263616E+03  0.23275263616E+03  0.00000000000E+00 0.  1.
         13   -1    0    0    0    0 -0.00000000000E+00 -0.00000000000E+00 -0.27500000000E+03  0.27500000000E+03  0.00000000000E+00 0.  1.
    9000005    2    1    2  501    0  0.15435443550E+02 -0.34819243684E+02 -0.43094074860E+02  0.46965605406E+03  0.46612131165E+03 0.  0.
         13    1    3    3    0    0 -0.10652440899E+03  0.24254017494E+02  0.17886965833E+03  0.20959499456E+03  0.00000000000E+00 0.  1.
          1    1    3    3  501    0  0.12195985254E+03 -0.59073261178E+02 -0.22196373319E+03  0.26006105950E+03  0.00000000000E+00 0.  1.
         21    1    1    2  502  501 -0.15435443550E+02  0.34819243684E+02  0.84671102123E+00  0.38096582102E+02  0.00000000000E+00 0.  1.
<scales pt_clust_4="550.00000" pt_clust_5="550.00000" pt_clust_6="38.08717"></scales>
<mgrwt>
<rscale>  0 0.30000000E+03</rscale>
<asrwt>  1 0.38087172E+02</asrwt>
<pdfrwt beam="1">  1        1 0.84637322E+00 0.30000000E+03</pdfrwt>
<pdfrwt beam="2">0</pdfrwt>
<totfact> 0.43253312E-04</totfact>
</mgrwt>
<clustering>
<clus scale="   38.087">  1  6  2 -1</clus>
<clus scale="  466.121">  4  5 -1 -1</clus>
<clus scale="  300.000">  1  4  2 -1</clus>
</clustering>
</event>
<event>
 6    1  0.9843879E-012  0.3000000E+03  0.7818608E-02  0.1093470E+00
          1   -1    0    0  502    0  0.00000000000E+00  0.00000000000E+00  0.24393495153E+03  0.24393495153E+03  0.00000000000E+00 0.  1.
         13   -1    0    0    0    0 -0.00000000000E+00 -0.00000000000E+00 -0.27500000000E+03  0.27500000000E+03  0.00000000000E+00 0.  1.
    9000005    2    1    2  501    0  0.39599596992E+01 -0.42737743568E+02 -0.32671016990E+02  0.47598410589E+03  0.47291783399E+03 0.  0.
         13    1    3    3    0    0 -0.21699178084E+03  0.26035657130E+02  0.60118876331E+02  0.22666620322E+03  0.00000000000E+00 0.  1.
          1    1    3    3  501    0  0.22095174053E+03 -0.68773400698E+02 -0.92789893321E+02  0.24931790267E+03  0.00000000000E+00 0.  1.
         21    1    1    2  502  501 -0.39599596992E+01  0.42737743568E+02  0.16059685199E+01  0.42950845638E+02  0.00000000000E+00 0.  1.
<scales pt_clust_4="550.00000" pt_clust_5="550.00000" pt_clust_6="42.92081"></scales>
<mgrwt>
<rscale>  0 0.30000000E+03</rscale>
<asrwt>  1 0.42920811E+02</asrwt>
<pdfrwt beam="1">  1        1 0.88703619E+00 0.30000000E+03</pdfrwt>
<pdfrwt beam="2">0</pdfrwt>
<totfact> 0.15324127E-04</totfact>
</mgrwt>
<clustering>
<clus scale="   42.921">  1  6  2 -1</clus>
<clus scale="  472.918">  4  5 -1 -1</clus>
<clus scale="  300.000">  1  4  2 -1</clus>
</clustering>
</event>
<event>
 6    1  0.9843879E-012  0.3000000E+03  0.7818608E-02  0.1093470E+00
          1   -1    0    0  502    0  0.00000000000E+00  0.00000000000E+00  0.23216616859E+03  0.23216616859E+03  0.00000000000E+00 0.  1.
         13   -1    0    0    0    0 -0.00000000000E+00 -0.00000000000E+00 -0.27500000000E+03  0.27500000000E+03  0.00000000000E+00 0.  1.
    9000005    2    1    2  501    0  0.18204543897E+02  0.27709721550E+02 -0.37344559166E+02  0.47356012455E+03  0.47091967614E+03 0.  0.
         13    1    3    3    0    0  0.19476649435E+02  0.19996499569E+03  0.12519129632E+03  0.23672388990E+03  0.00000000000E+00 0.  1.
          1    1    3    3  501    0 -0.12721055379E+01 -0.17225527414E+03 -0.16253585548E+03  0.23683623465E+03  0.00000000000E+00 0.  1.
         21    1    1    2  502  501 -0.18204543897E+02 -0.27709721550E+02 -0.54892722395E+01  0.33606044049E+02  0.00000000000E+00 0.  1.
<scales pt_clust_4="550.00000" pt_clust_5="550.00000" pt_clust_6="33.15472"></scales>
<mgrwt>
<rscale>  0 0.30000000E+03</rscale>
<asrwt>  1 0.33154716E+02</asrwt>
<pdfrwt beam="1">  1        1 0.84424061E+00 0.30000000E+03</pdfrwt>
<pdfrwt beam="2">0</pdfrwt>
<totfact> 0.46342894E-04</totfact>
</mgrwt>
<clustering>
<clus scale="   33.155">  1  6  2 -1</clus>
<clus scale="  470.920">  4  5 -1 -1</clus>
<clus scale="  300.000">  1  4  2 -1</clus>
</clustering>
</event>
<event>
 6    1  0.9843879E-012  0.3000000E+03  0.7818608E-02  0.1093470E+00
          1   -1    0    0  502    0  0.00000000000E+00  0.00000000000E+00  0.24230762684E+03  0.24230762684E+03  0.00000000000E+00 0.  1.
         13   -1    0    0    0    0 -0.00000000000E+00 -0.00000000000E+00 -0.27500000000E+03  0.27500000000E+03  0.00000000000E+00 0.  1.
    9000005    2    1    2  501    0  0.34881201166E+02  0.62930807916E+00 -0.44186640810E+02  0.48057599997E+03  0.47726694658E+03 0.  0.
         13    1    3    3    0    0 -0.14845207017E+03 -0.16071551755E+03  0.39683611584E+02  0.22235620915E+03  0.00000000000E+00 0.  1.
          3    1    3    3  501    0  0.18333327133E+03  0.16134482563E+03 -0.83870252394E+02  0.25821979082E+03  0.00000000000E+00 0.  1.
         21    1    1    2  502  501 -0.34881201166E+02 -0.62930807916E+00  0.11494267651E+02  0.36731626866E+02  0.00000000000E+00 0.  1.
<scales pt_clust_4="550.00000" pt_clust_5="550.00000" pt_clust_6="34.88688"></scales>
<mgrwt>
<rscale>  0 0.30000000E+03</rscale>
<asrwt>  1 0.34886878E+02</asrwt>
<pdfrwt beam="1">  1        1 0.88111864E+00 0.30000000E+03</pdfrwt>
<pdfrwt beam="2">0</pdfrwt>
<totfact> 0.19122256E-04</totfact>
</mgrwt>
<clustering>
<clus scale="   34.887">  1  6  2 -1</clus>
<clus scale="  477.267">  4  5 -1 -1</clus>
<clus scale="  300.000">  1  4  2 -1</clus>
</clustering>
</event>
<event>
 6    1  0.9843879E-012  0.3000000E+03  0.7818608E-02  0.1093470E+00
          1   -1    0    0  502    0  0.00000000000E+00  0.00000000000E+00  0.22445520143E+03  0.22445520143E+03  0.00000000000E+00 0.  1.
         13   -1    0    0    0    0 -0.00000000000E+00 -0.00000000000E+00 -0.27500000000E+03  0.27500000000E+03  0.00000000000E+00 0.  1.
    9000005    2    1    2  501    0  0.33538026704E+02 -0.11384899222E+02 -0.59989494124E+02  0.46279981384E+03  0.45752651630E+03 0.  0.
         13    1    3    3    0    0  0.61472084222E+02  0.21856561522E+03 -0.22717675809E+02  0.22817939891E+03  0.00000000000E+00 0.  1.
          3    1    3    3  501    0 -0.27934057518E+02 -0.22995051444E+03 -0.37271818315E+02  0.23462041493E+03  0.00000000000E+00 0.  1.
         21    1    1    2  502  501 -0.33538026704E+02  0.11384899222E+02  0.94446955537E+01  0.36655387593E+02  0.00000000000E+00 0.  1.
<scales pt_clust_4="550.00000" pt_clust_5="550.00000" pt_clust_6="35.41772"></scales>
<mgrwt>
<rscale>  0 0.30000000E+03</rscale>
<asrwt>  1 0.35417724E+02</asrwt>
<pdfrwt beam="1">  1        1 0.81620073E+00 0.30000000E+03</pdfrwt>
<pdfrwt beam="2">0</pdfrwt>
<totfact> 0.77663546E-04</totfact>
</mgrwt>
<clustering>
<clus scale="   35.418">  1  6  2 -1</clus>
<clus scale="  457.527">  4  5 -1 -1</clus>
<clus scale="  300.000">  1  4  2 -1</clus>
</clustering>
</event>
<event>
 6    1  0.9843879E-012  0.3000000E+03  0.7818608E-02  0.1093470E+00
          1   -1    0    0  502    0  0.00000000000E+00  0.00000000000E+00  0.23791854661E+03  0.23791854661E+03  0.00000000000E+00 0.  1.
         13   -1    0    0    0    0 -0.00000000000E+00 -0.00000000000E+00 -0.27500000000E+03  0.27500000000E+03  0.00000000000E+00 0.  1.
    9000005    2    1    2  501    0 -0.19905708439E+02 -0.28610236745E+02 -0.50130641401E+02  0.47570209618E+03  0.47176754893E+03 0.  0.
         13    1    3    3    0    0  0.10446309407E+03 -0.19426029352E+03 -0.12728455363E+03  0.25465851106E+03  0.00000000000E+00 0.  1.
          3    1    3    3  501    0 -0.12436880251E+03  0.16565005678E+03  0.77153912229E+02  0.22104358512E+03  0.00000000000E+00 0.  1.
         21    1    1    2  502  501  0.19905708439E+02  0.28610236745E+02  0.13049188011E+02  0.37216450433E+02  0.00000000000E+00 0.  1.
<scales pt_clust_4="550.00000" pt_clust_5="550.00000" pt_clust_6="34.85374"></scales>
<mgrwt>
<rscale>  0 0.30000000E+03</rscale>
<asrwt>  1 0.34853735E+02</asrwt>
<pdfrwt beam="1">  1        1 0.86515835E+00 0.30000000E+03</pdfrwt>
<pdfrwt beam="2">0</pdfrwt>
<totfact> 0.28480673E-04</totfact>
</mgrwt>
<clustering>
<clus scale="   34.854">  1  6  2 -1</clus>
<clus scale="  471.768">  4  5 -1 -1</clus>
<clus scale="  300.000">  1  4  2 -1</clus>
</clustering>
</event>
<event>
 6    1  0.9843879E-012  0.3000000E+03  0.7818608E-02  0.1093470E+00
          1   -1    0    0  502    0  0.00000000000E+00  0.00000000000E+00  0.22679062074E+03  0.22679062074E+03  0.00000000000E+00 0.  1.
         13   -1    0    0    0    0 -0.00000000000E+00 -0.00000000000E+00 -0.27500000000E+03  0.27500000000E+03  0.00000000000E+00 0.  1.
    9000005    2    1    2  501    0  0.90375624408E+00  0.31683399384E+02 -0.45259958464E+02  0.46995740453E+03  0.46669780764E+03 0.  0.
         13    1    3    3    0    0 -0.10600969469E+03  0.30137271272E+02 -0.23082779569E+03  0.25578854891E+03  0.00000000000E+00 0.  1.
          1    1    3    3  501    0  0.10691345094E+03  0.15461281118E+01  0.18556783723E+03  0.21416885562E+03  0.00000000000E+00 0.  1.
         21    1    1    2  502  501 -0.90375624408E+00 -0.31683399384E+02 -0.29494207914E+01  0.31833216219E+02  0.00000000000E+00 0. -1.
<scales pt_clust_4="550.00000" pt_clust_5="550.00000" pt_clust_6="31.69629"></scales>
<mgrwt>
<rscale>  0 0.30000000E+03</rscale>
<asrwt>  1 0.31696286E+02</asrwt>
<pdfrwt beam="1">  1        1 0.82469317E+00 0.30000000E+03</pdfrwt>
<pdfrwt beam="2">0</pdfrwt>
<totfact> 0.66972350E-04</totfact>
</mgrwt>
<clustering>
<clus scale="   31.696">  1  6  2 -1</clus>
<clus scale="  466.698">  4  5 -1 -1</clus>
<clus scale="  300.000">  1  4  2 -1</clus>
</clustering>
</event>
<event>
 6    1  0.9843879E-012  0.3000000E+03  0.7818608E-02  0.1093470E+00
          1   -1    0    0  502    0  0.00000000000E+00  0.00000000000E+00  0.22913878392E+03  0.22913878392E+03  0.00000000000E+00 0.  1.
         13   -1    0    0    0    0 -0.00000000000E+00 -0.00000000000E+00 -0.27500000000E+03  0.27500000000E+03  0.00000000000E+00 0.  1.
    9000005    2    1    2  501    0 -0.31649351236E+02 -0.11894977526E+01 -0.47608410386E+02  0.47241893167E+03  0.46894561510E+03 0.  0.
         13    1    3    3    0    0 -0.13835386350E+02 -0.22158745789E+03 -0.10258036971E+03  0.24457136313E+03  0.00000000000E+00 0.  1.
          1    1    3    3  501    0 -0.17813964886E+02  0.22039796014E+03  0.54971959328E+02  0.22784756854E+03  0.00000000000E+00 0.  1.
         21    1    1    2  502  501  0.31649351236E+02  0.11894977526E+01  0.17471943016E+01  0.31719852246E+02  0.00000000000E+00 0. -1.
<scales pt_clust_4="550.00000" pt_clust_5="550.00000" pt_clust_6="31.67170"></scales>
<mgrwt>
<rscale>  0 0.30000000E+03</rscale>
<asrwt>  1 0.31671696E+02</asrwt>
<pdfrwt beam="1">  1        1 0.83323194E+00 0.30000000E+03</pdfrwt>
<pdfrwt beam="2">0</pdfrwt>
<totfact> 0.56812770E-04</totfact>
</mgrwt>
<clustering>
<clus scale="   31.672">  1  6  2 -1</clus>
<clus scale="  468.946">  4  5 -1 -1</clus>
<clus scale="  300.000">  1  4  2 -1</clus>
</clustering>
</event>
<event>
 6    1  0.9843879E-012  0.3000000E+03  0.7818608E-02  0.1093470E+00
          1   -1    0    0  502    0  0.00000000000E+00  0.00000000000E+00  0.24481371726E+03  0.24481371726E+03  0.00000000000E+00 0.  1.
         13   -1    0    0    0    0 -0.00000000000E+00 -0.00000000000E+00 -0.27500000000E+03  0.27500000000E+03  0.00000000000E+00 0.  1.
    9000005    2    1    2  501    0 -0.23414143491E+02 -0.20049293689E+02 -0.59574411415E+02  0.47722430074E+03  0.47248674735E+03 0.  0.
         13    1    3    3    0    0 -0.59730408620E+02 -0.23283584293E+03  0.32465742815E+02  0.24255777853E+03  0.00000000000E+00 0.  1.
          1    1    3    3  501    0  0.36316265129E+02  0.21278654925E+03 -0.92040154230E+02  0.23466652220E+03  0.00000000000E+00 0.  1.
         21    1    1    2  502  501  0.23414143491E+02  0.20049293689E+02  0.29388128672E+02  0.42589416522E+02  0.00000000000E+00 0.  1.
<scales pt_clust_4="550.00000" pt_clust_5="550.00000" pt_clust_6="30.82525"></scales>
<mgrwt>
<rscale>  0 0.30000000E+03</rscale>
<asrwt>  1 0.30825254E+02</asrwt>
<pdfrwt beam="1">  1        1 0.89023170E+00 0.30000000E+03</pdfrwt>
<pdfrwt beam="2">0</pdfrwt>
<totfact> 0.14743618E-04</totfact>
</mgrwt>
<clustering>
<clus scale="   30.825">  1  6  2 -1</clus>
<clus scale="  472.487">  4  5 -1 -1</clus>
<clus scale="  300.000">  1  4  2 -1</clus>
</clustering>
</event>
<event>
 6    1  0.9843879E-012  0.3000000E+03  0.7818608E-02  0.1093470E+00
          1   -1    0    0  502    0  0.00000000000E+00  0.00000000000E+00  0.23697253635E+03  0.23697253635E+03  0.00000000000E+00 0.  1.
         13   -1    0    0    0    0 -0.00000000000E+00 -0.00000000000E+00 -0.27500000000E+03  0.27500000000E+03  0.00000000000E+00 0.  1.
    9000005    2    1    2  501    0 -0.41405398080E+02 -0.23208283426E+02 -0.39490107252E+02  0.46448389838E+03  0.46036158818E+03 0.  0.
         13    1    3    3    0    0  0.14418056264E+03 -0.18816288723E+02 -0.18019809223E+03  0.23154576180E+03  0.00000000000E+00 0.  1.
          3    1    3    3  501    0 -0.18558596072E+03 -0.43919947035E+01  0.14070798498E+03  0.23293813658E+03  0.00000000000E+00 0.  1.
         21    1    1    2  502  501  0.41405398080E+02  0.23208283426E+02  0.14626436008E+01  0.47488637968E+02  0.00000000000E+00 0.  1.
<scales pt_clust_4="550.00000" pt_clust_5="550.00000" pt_clust_6="47.46611"></scales>
<mgrwt>
<rscale>  0 0.30000000E+03</rscale>
<asrwt>  1 0.47466108E+02</asrwt>
<pdfrwt beam="1">  1        1 0.86171831E+00 0.30000000E+03</pdfrwt>
<pdfrwt beam="2">0</pdfrwt>
<totfact> 0.29329639E-04</totfact>
</mgrwt>
<clustering>
<clus scale="   47.466">  1  6  2 -1</clus>
<clus scale="  460.362">  4  5 -1 -1</clus>
<clus scale="  300.000">  1  4  2 -1</clus>
</clustering>
</event>
<event>
 6    1  0.9843879E-012  0.3000000E+03  0.7818608E-02  0.1093470E+00
          1   -1    0    0  502    0  0.00000000000E+00  0.00000000000E+00  0.24150297671E+03  0.24150297671E+03  0.00000000000E+00 0.  1.
         13   -1    0    0    0    0 -0.00000000000E+00 -0.00000000000E+00 -0.27500000000E+03  0.27500000000E+03  0.00000000000E+00 0.  1.
    9000005    2    1    2  501    0  0.12724150385E+02 -0.30843051349E+02 -0.29888135799E+02  0.48294374715E+03  0.48086189746E+03 0.  0.
         13    1    3    3    0    0 -0.22855505174E+03  0.36381257920E+02 -0.19656646889E+02  0.23226577744E+03  0.00000000000E+00 0.  1.
          3    1    3    3  501    0  0.24127920212E+03 -0.67224309268E+02 -0.10231488910E+02  0.25067796971E+03  0.00000000000E+00 0.  1.
         21    1    1    2  502  501 -0.12724150385E+02  0.30843051349E+02 -0.36088874918E+01  0.33559229557E+02  0.00000000000E+00 0.  1.
<scales pt_clust_4="550.00000" pt_clust_5="550.00000" pt_clust_6="33.36464"></scales>
<mgrwt>
<rscale>  0 0.30000000E+03</rscale>
<asrwt>  1 0.33364636E+02</asrwt>
<pdfrwt beam="1">  1        1 0.87819264E+00 0.30000000E+03</pdfrwt>
<pdfrwt beam="2">0</pdfrwt>
<totfact> 0.20931181E-04</totfact>
</mgrwt>
<clustering>
<clus scale="   33.365">  1  6  2 -1</clus>
<clus scale="  480.862">  4  5 -1 -1</clus>
<clus scale="  300.000">  1  4  2 -1</clus>
</clustering>
</event>
<event>
 6    1  0.9843879E-012  0.3000000E+03  0.7818608E-02  0.1093470E+00
          1   -1    0    0  502    0  0.00000000000E+00  0.00000000000E+00  0.24267918828E+03  0.24267918828E+03  0.00000000000E+00 0.  1.
         13   -1    0    0    0    0 -0.00000000000E+00 -0.00000000000E+00 -0.27500000000E+03  0.27500000000E+03  0.00000000000E+00 0.  1.
    9000005    2    1    2  501    0  0.32357908662E+02 -0.30890751747E+02 -0.27412330428E+02  0.47267512196E+03  0.46975425731E+03 0.  0.
         13    1    3    3    0    0 -0.14216201958E+03 -0.18327829643E+03 -0.57691313071E+02  0.23901728255E+03  0.00000000000E+00 0.  1.
          3    1    3    3  501    0  0.17451992825E+03  0.15238754468E+03  0.30278982643E+02  0.23365783941E+03  0.00000000000E+00 0.  1.
         21    1    1    2  502  501 -0.32357908662E+02  0.30890751747E+02 -0.49084812953E+01  0.45004066318E+02  0.00000000000E+00 0.  1.
<scales pt_clust_4="550.00000" pt_clust_5="550.00000" pt_clust_6="44.73561"></scales>
<mgrwt>
<rscale>  0 0.30000000E+03</rscale>
<asrwt>  1 0.44735610E+02</asrwt>
<pdfrwt beam="1">  1        1 0.88246978E+00 0.30000000E+03</pdfrwt>
<pdfrwt beam="2">0</pdfrwt>
<totfact> 0.17549955E-04</totfact>
</mgrwt>
<clustering>
<clus scale="   44.736">  1  6  2 -1</clus>
<clus scale="  469.754">  4  5 -1 -1</clus>
<clus scale="  300.000">  1  4  2 -1</clus>
</clustering>
</event>
<event>
 6    1  0.9843879E-012  0.3000000E+03  0.7818608E-02  0.1093470E+00
          1   -1    0    0  502    0  0.00000000000E+00  0.00000000000E+00  0.22547692069E+03  0.22547692069E+03  0.00000000000E+00 0.  1.
         13   -1    0    0    0    0 -0.00000000000E+00 -0.00000000000E+00 -0.27500000000E+03  0.27500000000E+03  0.00000000000E+00 0.  1.
    9000005    2    1    2  501    0  0.31142605789E+02 -0.46228870813E+01 -0.38674364467E+02  0.46717635623E+03  0.46450705955E+03 0.  0.
         13    1    3    3    0    0 -0.21253625074E+03  0.93829226394E+01 -0.63028032450E+02  0.22188337025E+03  0.00000000000E+00 0.  1.
          3    1    3    3  501    0  0.24367885653E+03 -0.14005809721E+02  0.24353667984E+02  0.24529298598E+03  0.00000000000E+00 0.  1.
         21    1    1    2  502  501 -0.31142605789E+02  0.46228870813E+01 -0.10848714839E+02  0.33300564469E+02  0.00000000000E+00 0.  1.
<scales pt_clust_4="550.00000" pt_clust_5="550.00000" pt_clust_6="31.48387"></scales>
<mgrwt>
<rscale>  0 0.30000000E+03</rscale>
<asrwt>  1 0.31483868E+02</asrwt>
<pdfrwt beam="1">  1        1 0.81991608E+00 0.30000000E+03</pdfrwt>
<pdfrwt beam="2">0</pdfrwt>
<totfact> 0.73913538E-04</totfact>
</mgrwt>
<clustering>
<clus scale="   31.484">  1  6  2 -1</clus>
<clus scale="  464.507">  4  5 -1 -1</clus>
<clus scale="  300.000">  1  4  2 -1</clus>
</clustering>
</event>
<event>
 6    1  0.9843879E-012  0.3000000E+03  0.7818608E-02  0.1093470E+00
          1   -1    0    0  502    0  0.00000000000E+00  0.00000000000E+00  0.23145275947E+03  0.23145275947E+03  0.00000000000E+00 0.  1.
         13   -1    0    0    0    0 -0.00000000000E+00 -0.00000000000E+00 -0.27500000000E+03  0.27500000000E+03  0.00000000000E+00 0.  1.
    9000005    2    1    2  501    0  0.21150382925E+02 -0.23759862884E+02 -0.43879847607E+02  0.47464111994E+03  0.47153672384E+03 0.  0.
         13    1    3    3    0    0  0.10284102034E+03  0.41724749382E+02 -0.23322083834E+03  0.25828122195E+03  0.00000000000E+00 0.  1.
          1    1    3    3  501    0 -0.81690637420E+02 -0.65484612266E+02  0.18934099073E+03  0.21635989799E+03  0.00000000000E+00 0.  1.
         21    1    1    2  502  501 -0.21150382925E+02  0.23759862884E+02  0.33260707631E+00  0.31811639530E+02  0.00000000000E+00 0.  1.
<scales pt_clust_4="550.00000" pt_clust_5="550.00000" pt_clust_6="31.80990"></scales>
<mgrwt>
<rscale>  0 0.30000000E+03</rscale>
<asrwt>  1 0.31809901E+02</asrwt>
<pdfrwt beam="1">  1        1 0.84164640E+00 0.30000000E+03</pdfrwt>
<pdfrwt beam="2">0</pdfrwt>
<totfact> 0.49116009E-04</totfact>
</mgrwt>
<clustering>
<clus scale="   31.810">  1  6  2 -1</clus>
<clus scale="  471.537">  4  5 -1 -1</clus>
<clus scale="  300.000">  1  4  2 -1</clus>
</clustering>
</event>
<event>
 6    1  0.9843879E-012  0.3000000E+03  0.7818608E-02  0.1093470E+00
          1   -1    0    0  502    0  0.00000000000E+00  0.00000000000E+00  0.24804855789E+03  0.24804855789E+03  0.00000000000E+00 0.  1.
         13   -1    0    0    0    0 -0.00000000000E+00 -0.00000000000E+00 -0.27500000000E+03  0.27500000000E+03  0.00000000000E+00 0.  1.
    9000005    2    1    2  501    0 -0.35384010678E+02 -0.21996415837E+01 -0.32849838353E+02  0.48710891803E+03  0.48470518825E+03 0.  0.
         13    1    3    3    0    0 -0.34957011079E+01 -0.24187418062E+03 -0.40167259421E+02  0.24521163901E+03  0.00000000000E+00 0.  1.
          1    1    3    3  501    0 -0.31888309570E+02  0.23967453903E+03  0.73174210685E+01  0.24189727902E+03  0.00000000000E+00 0.  1.
         21    1    1    2  502  501  0.35384010678E+02  0.21996415837E+01  0.58983962423E+01  0.35939639856E+02  0.00000000000E+00 0. -1.
<scales pt_clust_4="550.00000" pt_clust_5="550.00000" pt_clust_6="35.45231"></scales>
<mgrwt>
<rscale>  0 0.30000000E+03</rscale>
<asrwt>  1 0.35452315E+02</asrwt>
<pdfrwt beam="1">  1        1 0.90199476E+00 0.30000000E+03</pdfrwt>
<pdfrwt beam="2">0</pdfrwt>
<totfact> 0.10356607E-04</totfact>
</mgrwt>
<clustering>
<clus scale="   35.452">  1  6  2 -1</clus>
<clus scale="  484.705">  4  5 -1 -1</clus>
<clus scale="  300.000">  1  4  2 -1</clus>
</clustering>
</event>
<event>
 6    1  0.9843879E-012  0.3000000E+03  0.7818608E-02  0.1093470E+00
          1   -1    0    0  502    0  0.00000000000E+00  0.00000000000E+00  0.23738190034E+03  0.23738190034E+03  0.00000000000E+00 0.  1.
         13   -1    0    0    0    0 -0.00000000000E+00 -0.00000000000E+00 -0.27500000000E+03  0.27500000000E+03  0.00000000000E+00 0.  1.
    9000005    2    1    2  501    0 -0.19047267047E+02  0.28269252885E+02 -0.56709891938E+02  0.47331214768E+03  0.46866451568E+03 0.  0.
         13    1    3    3    0    0 -0.19626484708E+03  0.88081288460E+01  0.11344369155E+03  0.22686327267E+03  0.00000000000E+00 0.  1.
          3    1    3    3  501    0  0.17721758003E+03  0.19461124039E+02 -0.17015358349E+03  0.24644887501E+03  0.00000000000E+00 0.  1.
         21    1    1    2  502  501  0.19047267047E+02 -0.28269252885E+02  0.19091792280E+02  0.39069752662E+02  0.00000000000E+00 0.  1.
<scales pt_clust_4="550.00000" pt_clust_5="550.00000" pt_clust_6="34.08737"></scales>
<mgrwt>
<rscale>  0 0.30000000E+03</rscale>
<asrwt>  1 0.34087374E+02</asrwt>
<pdfrwt beam="1">  1        1 0.86320691E+00 0.30000000E+03</pdfrwt>
<pdfrwt beam="2">0</pdfrwt>
<totfact> 0.30021509E-04</totfact>
</mgrwt>
<clustering>
<clus scale="   34.087">  1  6  2 -1</clus>
<clus scale="  468.665">  4  5 -1 -1</clus>
<clus scale="  300.000">  1  4  2 -1</clus>
</clustering>
</event>
<event>
 6    1  0.9843879E-012  0.3000000E+03  0.7818608E-02  0.1093470E+00
          1   -1    0    0  502    0  0.00000000000E+00  0.00000000000E+00  0.26588881123E+03  0.26588881123E+03  0.00000000000E+00 0.  1.
         13   -1    0    0    0    0 -0.00000000000E+00 -0.00000000000E+00 -0.27500000000E+03  0.27500000000E+03  0.00000000000E+00 0.  1.
    9000005    2    1    2  501    0 -0.25893910563E+02  0.44681787334E+02  0.11750250679E+02  0.48519180610E+03  0.48229250833E+03 0.  0.
         13    1    3    3    0    0 -0.16289235823E+03 -0.12440378897E+03 -0.11330714632E+03  0.23419806251E+03  0.00000000000E+00 0.  1.
          1    1    3    3  501    0  0.13699844766E+03  0.16908557630E+03  0.12505739700E+03  0.25099374359E+03  0.00000000000E+00 0.  1.
         21    1    1    2  502  501  0.25893910563E+02 -0.44681787334E+02 -0.20861439454E+02  0.55697005123E+02  0.00000000000E+00 0.  1.
<scales pt_clust_4="550.00000" pt_clust_5="550.00000" pt_clust_6="51.64261"></scales>
<mgrwt>
<rscale>  0 0.30000000E+03</rscale>
<asrwt>  1 0.51642612E+02</asrwt>
<pdfrwt beam="1">  1        1 0.96686840E+00 0.30000000E+03</pdfrwt>
<pdfrwt beam="2">0</pdfrwt>
<totfact> 0.51483993E-06</totfact>
</mgrwt>
<clustering>
<clus scale="   51.643">  1  6  2 -1</clus>
<clus scale="  482.293">  4  5 -1 -1</clus>
<clus scale="  300.000">  1  4  2 -1</clus>
</clustering>
</event>
<event>
 6    1  0.9843879E-012  0.3000000E+03  0.7818608E-02  0.1093470E+00
          1   -1    0    0  502    0  0.00000000000E+00  0.00000000000E+00  0.23778557631E+03  0.23778557631E+03  0.00000000000E+00 0.  1.
         13   -1    0    0    0    0 -0.00000000000E+00 -0.00000000000E+00 -0.27500000000E+03  0.27500000000E+03  0.00000000000E+00 0.  1.
    9000005    2    1    2  501    0  0.10227357630E+02 -0.35038901669E+02 -0.66503140543E+02  0.46598651212E+03  0.45976998412E+03 0.  0.
         13    1    3    3    0    0  0.18709411426E+02 -0.18941975432E+02 -0.26516245147E+03  0.26649571512E+03  0.00000000000E+00 0.  1.
          3    1    3    3  501    0 -0.84820537954E+01 -0.16096926237E+02  0.19865931092E+03  0.19949079700E+03  0.00000000000E+00 0.  1.
         21    1    1    2  502  501 -0.10227357630E+02  0.35038901669E+02  0.29288716851E+02  0.46799064190E+02  0.00000000000E+00 0. -1.
<scales pt_clust_4="550.00000" pt_clust_5="550.00000" pt_clust_6="36.50101"></scales>
<mgrwt>
<rscale>  0 0.30000000E+03</rscale>
<asrwt>  1 0.36501006E+02</asrwt>
<pdfrwt beam="1">  1        1 0.86467482E+00 0.30000000E+03</pdfrwt>
<pdfrwt beam="2">0</pdfrwt>
<totfact> 0.28577021E-04</totfact>
</mgrwt>
<clustering>
<clus scale="   36.501">  1  6  2 -1</clus>
<clus scale="  459.770">  4  5 -1 -1</clus>
<clus scale="  300.000">  1  4  2 -1</clus>
</clustering>
</event>
<event>
 6    1  0.9843879E-012  0.3000000E+03  0.7818608E-02  0.1093470E+00
          1   -1    0    0  502    0  0.00000000000E+00  0.00000000000E+00  0.23913360993E+03  0.23913360993E+03  0.00000000000E+00 0.  1.
         13   -1    0    0    0    0 -0.00000000000E+00 -0.00000000000E+00 -0.27500000000E+03  0.27500000000E+03  0.00000000000E+00 0.  1.
    9000005    2    1    2  501    0 -0.16607817199E+02  0.28163457067E+02 -0.55079934616E+02  0.47621052725E+03  0.47188310751E+03 0.  0.
         13    1    3    3    0    0 -0.22423351335E+03  0.97884443955E+02 -0.75987739229E+02  0.25619556864E+03  0.00000000000E+00 0.  1.
          1    1    3    3  501    0  0.20762569615E+03 -0.69720986887E+02  0.20907804613E+02  0.22001495860E+03  0.00000000000E+00 0.  1.
         21    1    1    2  502  501  0.16607817199E+02 -0.28163457067E+02  0.19213544544E+02  0.37923082681E+02  0.00000000000E+00 0.  1.
<scales pt_clust_4="550.00000" pt_clust_5="550.00000" pt_clust_6="32.69556"></scales>
<mgrwt>
<rscale>  0 0.30000000E+03</rscale>
<asrwt>  1 0.32695564E+02</asrwt>
<pdfrwt beam="1">  1        1 0.86957676E+00 0.30000000E+03</pdfrwt>
<pdfrwt beam="2">0</pdfrwt>
<totfact> 0.25909037E-04</totfact>
</mgrwt>
<clustering>
<clus scale="   32.696">  1  6  2 -1</clus>
<clus scale="  471.883">  4  5 -1 -1</clus>
<clus scale="  300.000">  1  4  2 -1</clus>
</clustering>
</event>
<event>
 6    1  0.9843879E-012  0.3000000E+03  0.7818608E-02  0.1093470E+00
          1   -1    0    0  502    0  0.00000000000E+00  0.00000000000E+00  0.23257962407E+03  0.23257962407E+03  0.00000000000E+00 0.  1.
         13   -1    0    0    0    0 -0.00000000000E+00 -0.00000000000E+00 -0.27500000000E+03  0.27500000000E+03  0.00000000000E+00 0.  1.
    9000005    2    1    2  501    0  0.29445905265E+02 -0.14369476899E+02 -0.50874793631E+02  0.47374147427E+03  0.46986082686E+03 0.  0.
         13    1    3    3    0    0 -0.19471962506E+03 -0.11316101509E+03 -0.38322649710E+02  0.22845081134E+03  0.00000000000E+00 0.  1.
          3    1    3    3  501    0  0.22416553033E+03  0.98791538192E+02 -0.12552143921E+02  0.24529066293E+03  0.00000000000E+00 0.  1.
         21    1    1    2  502  501 -0.29445905265E+02  0.14369476899E+02  0.84544177052E+01  0.33838149801E+02  0.00000000000E+00 0. -1.
<scales pt_clust_4="550.00000" pt_clust_5="550.00000" pt_clust_6="32.76497"></scales>
<mgrwt>
<rscale>  0 0.30000000E+03</rscale>
<asrwt>  1 0.32764969E+02</asrwt>
<pdfrwt beam="1">  1        1 0.84574409E+00 0.30000000E+03</pdfrwt>
<pdfrwt beam="2">0</pdfrwt>
<totfact> 0.45062970E-04</totfact>
</mgrwt>
<clustering>
<clus scale="   32.765">  1  6  2 -1</clus>
<clus scale="  469.861">  4  5 -1 -1</clus>
<clus scale="  300.000">  1  4  2 -1</clus>
</clustering>
</event>
<event>
 6    1  0.9843879E-012  0.3000000E+03  0.7818608E-02  0.1093470E+00
          1   -1    0    0  502    0  0.00000000000E+00  0.00000000000E+00  0.22973728069E+03  0.22973728069E+03  0.00000000000E+00 0.  1.
         13   -1    0    0    0    0 -0.00000000000E+00 -0.00000000000E+00 -0.27500000000E+03  0.27500000000E+03  0.00000000000E+00 0.  1.
    9000005    2    1    2  501    0 -0.25501065847E+02 -0.28980770412E+02 -0.21802266153E+02  0.45956447610E+03  0.45742100899E+03 0.  0.
         13    1    3    3    0    0  0.21132762572E+02 -0.23270598010E+03  0.49297045773E+02  0.23880717232E+03  0.00000000000E+00 0.  1.
          1    1    3    3  501    0 -0.46633828420E+02  0.20372520969E+03 -0.71099311926E+02  0.22075730378E+03  0.00000000000E+00 0.  1.
         21    1    1    2  502  501  0.25501065847E+02  0.28980770412E+02 -0.23460453153E+02  0.45172804597E+02  0.00000000000E+00 0.  1.
<scales pt_clust_4="550.00000" pt_clust_5="550.00000" pt_clust_6="38.60299"></scales>
<mgrwt>
<rscale>  0 0.30000000E+03</rscale>
<asrwt>  1 0.38602991E+02</asrwt>
<pdfrwt beam="1">  1        1 0.83540829E+00 0.30000000E+03</pdfrwt>
<pdfrwt beam="2">0</pdfrwt>
<totfact> 0.52762546E-04</totfact>
</mgrwt>
<clustering>
<clus scale="   38.603">  1  6  2 -1</clus>
<clus scale="  457.421">  4  5 -1 -1</clus>
<clus scale="  300.000">  1  4  2 -1</clus>
</clustering>
</event>
<event>
 6    1  0.9843879E-012  0.3000000E+03  0.7818608E-02  0.1093470E+00
          1   -1    0    0  502    0  0.00000000000E+00  0.00000000000E+00  0.24157194642E+03  0.24157194642E+03  0.00000000000E+00 0.  1.
         13   -1    0    0    0    0 -0.00000000000E+00 -0.00000000000E+00 -0.27500000000E+03  0.27500000000E+03  0.00000000000E+00 0.  1.
    9000005    2    1    2  501    0 -0.40416171667E+02 -0.30387845366E+01 -0.48735627938E+02  0.47324732321E+03  0.46898311947E+03 0.  0.
         13    1    3    3    0    0  0.14834927813E+03 -0.13974032787E+03 -0.11091716385E+03  0.23202906023E+03  0.00000000000E+00 0.  1.
          3    1    3    3  501    0 -0.18876544980E+03  0.13670154333E+03  0.62181535910E+02  0.24121826298E+03  0.00000000000E+00 0.  1.
         21    1    1    2  502  501  0.40416171667E+02  0.30387845366E+01  0.15307574361E+02  0.43324623212E+02  0.00000000000E+00 0. -1.
<scales pt_clust_4="550.00000" pt_clust_5="550.00000" pt_clust_6="40.53025"></scales>
<mgrwt>
<rscale>  0 0.30000000E+03</rscale>
<asrwt>  1 0.40530250E+02</asrwt>
<pdfrwt beam="1">  1        1 0.87844344E+00 0.30000000E+03</pdfrwt>
<pdfrwt beam="2">0</pdfrwt>
<totfact> 0.20054934E-04</totfact>
</mgrwt>
<clustering>
<clus scale="   40.530">  1  6  2 -1</clus>
<clus scale="  468.983">  4  5 -1 -1</clus>
<clus scale="  300.000">  1  4  2 -1</clus>
</clustering>
</event>
<event>
 6    1  0.9843879E-012  0.3000000E+03  0.7818608E-02  0.1093470E+00
          1   -1    0    0  502    0  0.00000000000E+00  0.00000000000E+00  0.23717310188E+03  0.23717310188E+03  0.00000000000E+00 0.  1.
         13   -1    0    0    0    0 -0.00000000000E+00 -0.00000000000E+00 -0.27500000000E+03  0.27500000000E+03  0.00000000000E+00 0.  1.
    9000005    2    1    2  501    0  0.40716469281E+02  0.20332695646E+02 -0.26074956464E+02  0.46516929867E+03  0.46220268681E+03 0.  0.
         13    1    3    3    0    0  0.15332036083E+03 -0.16821835167E+03 -0.75982775525E+02  0.23995401447E+03  0.00000000000E+00 0.  1.
          1    1    3    3  501    0 -0.11260389155E+03  0.18855104731E+03  0.49907819061E+02  0.22521528420E+03  0.00000000000E+00 0.  1.
         21    1    1    2  502  501 -0.40716469281E+02 -0.20332695646E+02 -0.11751941658E+02  0.47003803205E+02  0.00000000000E+00 0. -1.
<scales pt_clust_4="550.00000" pt_clust_5="550.00000" pt_clust_6="45.51100"></scales>
<mgrwt>
<rscale>  0 0.30000000E+03</rscale>
<asrwt>  1 0.45511004E+02</asrwt>
<pdfrwt beam="1">  1        1 0.86244764E+00 0.30000000E+03</pdfrwt>
<pdfrwt beam="2">0</pdfrwt>
<totfact> 0.29018288E-04</totfact>
</mgrwt>
<clustering>
<clus scale="   45.511">  1  6  2 -1</clus>
<clus scale="  462.203">  4  5 -1 -1</clus>
<clus scale="  300.000">  1  4  2 -1</clus>
</clustering>
</event>
<event>
 6    1  0.9843879E-012  0.3000000E+03  0.7818608E-02  0.1093470E+00
          1   -1    0    0  502    0  0.00000000000E+00  0.00000000000E+00  0.23812134649E+03  0.23812134649E+03  0.00000000000E+00 0.  1.
         13   -1    0    0    0    0 -0.00000000000E+00 -0.00000000000E+00 -0.27500000000E+03  0.27500000000E+03  0.00000000000E+00 0.  1.
    9000005    2    1    2  501    0 -0.50151809869E+01 -0.35065784009E+02 -0.68394646845E+02  0.46570806687E+03  0.45929447480E+03 0.  0.
         13    1    3    3    0    0 -0.15885040430E+03 -0.27876814682E+02 -0.20431817501E+03  0.26030075755E+03  0.00000000000E+00 0.  1.
          1    1    3    3  501    0  0.15383522332E+03 -0.71889693270E+01  0.13592352816E+03  0.20540730932E+03  0.00000000000E+00 0.  1.
         21    1    1    2  502  501  0.50151809869E+01  0.35065784009E+02  0.31515993331E+02  0.47413279618E+02  0.00000000000E+00 0.  1.
<scales pt_clust_4="550.00000" pt_clust_5="550.00000" pt_clust_6="35.42261"></scales>
<mgrwt>
<rscale>  0 0.30000000E+03</rscale>
<asrwt>  1 0.35422609E+02</asrwt>
<pdfrwt beam="1">  1        1 0.86589581E+00 0.30000000E+03</pdfrwt>
<pdfrwt beam="2">0</pdfrwt>
<totfact> 0.27882576E-04</totfact>
</mgrwt>
<clustering>
<clus scale="   35.423">  1  6  2 -1</clus>
<clus scale="  459.294">  4  5 -1 -1</clus>
<clus scale="  300.000">  1  4  2 -1</clus>
</clustering>
</event>
<event>
 6    1  0.9843879E-012  0.3000000E+03  0.7818608E-02  0.1093470E+00
          1   -1    0    0  502    0  0.00000000000E+00  0.00000000000E+00  0.23609280628E+03  0.23609280628E+03  0.00000000000E+00 0.  1.
         13   -1    0    0    0    0 -0.00000000000E+00 -0.00000000000E+00 -0.27500000000E+03  0.27500000000E+03  0.00000000000E+00 0.  1.
    9000005    2    1    2  501    0 -0.43647136924E+02 -0.45594916315E+01 -0.54985625714E+02  0.46435548178E+03  0.45899535172E+03 0.  0.
         13    1    3    3    0    0 -0.94989807769E+01 -0.62165165132E+02  0.19534734154E+03  0.20522017990E+03  0.00000000000E+00 0.  1.
          3    1    3    3  501    0 -0.34148156148E+02  0.57605673500E+02 -0.25033296725E+03  0.25913530188E+03  0.00000000000E+00 0.  1.
         21    1    1    2  502  501  0.43647136924E+02  0.45594916315E+01  0.16078431991E+02  0.46737324495E+02  0.00000000000E+00 0.  1.
<scales pt_clust_4="550.00000" pt_clust_5="550.00000" pt_clust_6="43.88464"></scales>
<mgrwt>
<rscale>  0 0.30000000E+03</rscale>
<asrwt>  1 0.43884639E+02</asrwt>
<pdfrwt beam="1">  1        1 0.85851930E+00 0.30000000E+03</pdfrwt>
<pdfrwt beam="2">0</pdfrwt>
<totfact> 0.32174241E-04</totfact>
</mgrwt>
<clustering>
<clus scale="   43.885">  1  6  2 -1</clus>
<clus scale="  458.995">  4  5 -1 -1</clus>
<clus scale="  300.000">  1  4  2 -1</clus>
</clustering>
</event>
<event>
 6    1  0.9843879E-012  0.3000000E+03  0.7818608E-02  0.1093470E+00
          1   -1    0    0  502    0  0.00000000000E+00  0.00000000000E+00  0.24991745625E+03  0.24991745625E+03  0.00000000000E+00 0.  1.
         13   -1    0    0    0    0 -0.00000000000E+00 -0.00000000000E+00 -0.27500000000E+03  0.27500000000E+03  0.00000000000E+00 0.  1.
    9000005    2    1    2  501    0  0.17535500245E+02 -0.28762858332E+02 -0.35585273083E+02  0.48963143761E+03  0.48717331335E+03 0.  0.
         13    1    3    3    0    0 -0.16280078471E+03 -0.16010266407E+03 -0.11132824923E+03  0.25402940307E+03  0.00000000000E+00 0.  1.
          3    1    3    3  501    0  0.18033628495E+03  0.13133980574E+03  0.75742976151E+02  0.23560203454E+03  0.00000000000E+00 0.  1.
         21    1    1    2  502  501 -0.17535500245E+02  0.28762858332E+02  0.10502729331E+02  0.35286018643E+02  0.00000000000E+00 0. -1.
<scales pt_clust_4="550.00000" pt_clust_5="550.00000" pt_clust_6="33.68673"></scales>
<mgrwt>
<rscale>  0 0.30000000E+03</rscale>
<asrwt>  1 0.33686730E+02</asrwt>
<pdfrwt beam="1">  1        1 0.90879075E+00 0.30000000E+03</pdfrwt>
<pdfrwt beam="2">0</pdfrwt>
<totfact> 0.77347387E-05</totfact>
</mgrwt>
<clustering>
<clus scale="   33.687">  1  6  2 -1</clus>
<clus scale="  487.173">  4  5 -1 -1</clus>
<clus scale="  300.000">  1  4  2 -1</clus>
</clustering>
</event>
<event>
 6    1  0.9843879E-012  0.3000000E+03  0.7818608E-02  0.1093470E+00
          1   -1    0    0  502    0  0.00000000000E+00  0.00000000000E+00  0.23049106094E+03  0.23049106094E+03  0.00000000000E+00 0.  1.
         13   -1    0    0    0    0 -0.00000000000E+00 -0.00000000000E+00 -0.27500000000E+03  0.27500000000E+03  0.00000000000E+00 0.  1.
    9000005    2    1    2  501    0 -0.11423656423E+02 -0.28520616201E+02 -0.34544606598E+02  0.47319224678E+03  0.47092849467E+03 0.  0.
         13    1    3    3    0    0 -0.53058237103E+02 -0.11112291423E+03 -0.22779280777E+03  0.25894602113E+03  0.00000000000E+00 0.  1.
          1    1    3    3  501    0  0.41634580680E+02  0.82602298026E+02  0.19324820117E+03  0.21424622564E+03  0.00000000000E+00 0.  1.
         21    1    1    2  502  501  0.11423656423E+02  0.28520616201E+02 -0.99643324644E+01  0.32298814158E+02  0.00000000000E+00 0. -1.
<scales pt_clust_4="550.00000" pt_clust_5="550.00000" pt_clust_6="30.72339"></scales>
<mgrwt>
<rscale>  0 0.30000000E+03</rscale>
<asrwt>  1 0.30723386E+02</asrwt>
<pdfrwt beam="1">  1        1 0.83814931E+00 0.30000000E+03</pdfrwt>
<pdfrwt beam="2">0</pdfrwt>
<totfact> 0.52599306E-04</totfact>
</mgrwt>
<clustering>
<clus scale="   30.723">  1  6  2 -1</clus>
<clus scale="  470.928">  4  5 -1 -1</clus>
<clus scale="  300.000">  1  4  2 -1</clus>
</clustering>
</event>
<event>
 6    1  0.9843879E-012  0.3000000E+03  0.7818608E-02  0.1093470E+00
          1   -1    0    0  502    0  0.00000000000E+00  0.00000000000E+00  0.23718236679E+03  0.23718236679E+03  0.00000000000E+00 0.  1.
         13   -1    0    0    0    0 -0.00000000000E+00 -0.00000000000E+00 -0.27500000000E+03  0.27500000000E+03  0.00000000000E+00 0.  1.
    9000005    2    1    2  501    0  0.14659586297E+02 -0.35955598575E+02 -0.62574306435E+02  0.46613237864E+03  0.46027833107E+03 0.  0.
         13    1    3    3    0    0  0.21790818716E+03 -0.36840943678E+02 -0.12450163796E+03  0.25365703424E+03  0.00000000000E+00 0.  1.
          3    1    3    3  501    0 -0.20324860086E+03  0.88534510251E+00  0.61927331529E+02  0.21247534440E+03  0.00000000000E+00 0.  1.
         21    1    1    2  502  501 -0.14659586297E+02  0.35955598575E+02  0.24756673222E+02  0.46049988147E+02  0.00000000000E+00 0.  1.
<scales pt_clust_4="550.00000" pt_clust_5="550.00000" pt_clust_6="38.82922"></scales>
<mgrwt>
<rscale>  0 0.30000000E+03</rscale>
<asrwt>  1 0.38829223E+02</asrwt>
<pdfrwt beam="1">  1        1 0.86248133E+00 0.30000000E+03</pdfrwt>
<pdfrwt beam="2">0</pdfrwt>
<totfact> 0.29838594E-04</totfact>
</mgrwt>
<clustering>
<clus scale="   38.829">  1  6  2 -1</clus>
<clus scale="  460.278">  4  5 -1 -1</clus>
<clus scale="  300.000">  1  4  2 -1</clus>
</clustering>
</event>
<event>
 6    1  0.9843879E-012  0.3000000E+03  0.7818608E-02  0.1093470E+00
          1   -1    0    0  502    0  0.00000000000E+00  0.00000000000E+00  0.23034079791E+03  0.23034079791E+03  0.00000000000E+00 0.  1.
         13   -1    0    0    0    0 -0.00000000000E+00 -0.00000000000E+00 -0.27500000000E+03  0.27500000000E+03  0.00000000000E+00 0.  1.
    9000005    2    1    2  501    0 -0.29763470613E+02  0.68009427566E+01 -0.63608541742E+02  0.46940760325E+03  0.46407470778E+03 0.  0.
         13    1    3    3    0    0 -0.56438340199E+02 -0.15311663914E+03  0.13587550866E+03  0.21234911179E+03  0.00000000000E+00 0.  1.
          3    1    3    3  501    0  0.26674869585E+02  0.15991758189E+03 -0.19948405040E+03  0.25705849146E+03  0.00000000000E+00 0.  1.
         21    1    1    2  502  501  0.29763470613E+02 -0.68009427566E+01  0.18949339649E+02  0.35933194660E+02  0.00000000000E+00 0. -1.
<scales pt_clust_4="550.00000" pt_clust_5="550.00000" pt_clust_6="30.53059"></scales>
<mgrwt>
<rscale>  0 0.30000000E+03</rscale>
<asrwt>  1 0.30530591E+02</asrwt>
<pdfrwt beam="1">  1        1 0.83760290E+00 0.30000000E+03</pdfrwt>
<pdfrwt beam="2">0</pdfrwt>
<totfact> 0.53150642E-04</totfact>
</mgrwt>
<clustering>
<clus scale="   30.531">  1  6  2 -1</clus>
<clus scale="  464.075">  4  5 -1 -1</clus>
<clus scale="  300.000">  1  4  2 -1</clus>
</clustering>
</event>
<event>
 6    1  0.9843879E-012  0.3000000E+03  0.7818608E-02  0.1093470E+00
          1   -1    0    0  502    0  0.00000000000E+00  0.00000000000E+00  0.25950324784E+03  0.25950324784E+03  0.00000000000E+00 0.  1.
         13   -1    0    0    0    0 -0.00000000000E+00 -0.00000000000E+00 -0.27500000000E+03  0.27500000000E+03  0.00000000000E+00 0.  1.
    9000005    2    1    2  501    0  0.32317562756E+02  0.43888991818E+01 -0.77053329679E+02  0.46484049212E+03  0.45724805106E+03 0.  0.
         13    1    3    3    0    0  0.57407940451E+02  0.15717343649E+03  0.12601943465E+03  0.20947567562E+03  0.00000000000E+00 0.  1.
          3    1    3    3  501    0 -0.25090377695E+02 -0.15278453731E+03 -0.20307276433E+03  0.25536481650E+03  0.00000000000E+00 0.  1.
         21    1    1    2  502  501 -0.32317562756E+02 -0.43888991818E+01  0.61556577522E+02  0.69662755722E+02  0.00000000000E+00 0. -1.
<scales pt_clust_4="550.00000" pt_clust_5="550.00000" pt_clust_6="32.61422"></scales>
<mgrwt>
<rscale>  0 0.30000000E+03</rscale>
<asrwt>  1 0.32614219E+02</asrwt>
<pdfrwt beam="1">  1        1 0.94364817E+00 0.30000000E+03</pdfrwt>
<pdfrwt beam="2">0</pdfrwt>
<totfact> 0.16716232E-05</totfact>
</mgrwt>
<clustering>
<clus scale="   32.614">  1  6  2 -1</clus>
<clus scale="  457.248">  4  5 -1 -1</clus>
<clus scale="  300.000">  1  4  2 -1</clus>
</clustering>
</event>
<event>
 6    1  0.9843879E-012  0.3000000E+03  0.7818608E-02  0.1093470E+00
          1   -1    0    0  502    0  0.00000000000E+00  0.00000000000E+00  0.24736270510E+03  0.24736270510E+03  0.00000000000E+00 0.  1.
         13   -1    0    0    0    0 -0.00000000000E+00 -0.00000000000E+00 -0.27500000000E+03  0.27500000000E+03  0.00000000000E+00 0.  1.
    9000005    2    1    2  501    0  0.31608923242E+02  0.32291255573E+01 -0.57587147560E+02  0.47869870443E+03  0.47415885395E+03 0.  0.
         13    1    3    3    0    0 -0.11817360445E+03  0.19730682978E+03 -0.32213443515E+02  0.23223413145E+03  0.00000000000E+00 0.  1.
          1    1    3    3  501    0  0.14978252769E+03 -0.19407770422E+03 -0.25373704045E+02  0.24646457298E+03  0.00000000000E+00 0.  1.
         21    1    1    2  502  501 -0.31608923242E+02 -0.32291255573E+01  0.29949852663E+02  0.43664000675E+02  0.00000000000E+00 0.  1.
<scales pt_clust_4="550.00000" pt_clust_5="550.00000" pt_clust_6="31.77344"></scales>
<mgrwt>
<rscale>  0 0.30000000E+03</rscale>
<asrwt>  1 0.31773437E+02</asrwt>
<pdfrwt beam="1">  1        1 0.89950075E+00 0.30000000E+03</pdfrwt>
<pdfrwt beam="2">0</pdfrwt>
<totfact> 0.11408833E-04</totfact>
</mgrwt>
<clustering>
<clus scale="   31.773">  1  6  2 -1</clus>
<clus scale="  474.159">  4  5 -1 -1</clus>
<clus scale="  300.000">  1  4  2 -1</clus>
</clustering>
</event>
<event>
 6    1  0.9843879E-012  0.3000000E+03  0.7818608E-02  0.1093470E+00
          1   -1    0    0  502    0  0.00000000000E+00  0.00000000000E+00  0.23241582617E+03  0.23241582617E+03  0.00000000000E+00 0.  1.
         13   -1    0    0    0    0 -0.00000000000E+00 -0.00000000000E+00 -0.27500000000E+03  0.27500000000E+03  0.00000000000E+00 0.  1.
    9000005    2    1    2  501    0 -0.10518342940E+02  0.37179304484E+02 -0.49912167465E+02  0.46808853652E+03  0.46381323541E+03 0.  0.
         13    1    3    3    0    0  0.27008042616E+02  0.23361582320E+03  0.56054940310E+02  0.24176009503E+03  0.00000000000E+00 0.  1.
          1    1    3    3  501    0 -0.37526385556E+02 -0.19643651872E+03 -0.10596710778E+03  0.22632844149E+03  0.00000000000E+00 0.  1.
         21    1    1    2  502  501  0.10518342940E+02 -0.37179304484E+02  0.73279936339E+01  0.39327289645E+02  0.00000000000E+00 0.  1.
<scales pt_clust_4="550.00000" pt_clust_5="550.00000" pt_clust_6="38.63853"></scales>
<mgrwt>
<rscale>  0 0.30000000E+03</rscale>
<asrwt>  1 0.38638533E+02</asrwt>
<pdfrwt beam="1">  1        1 0.84514846E+00 0.30000000E+03</pdfrwt>
<pdfrwt beam="2">0</pdfrwt>
<totfact> 0.44229183E-04</totfact>
</mgrwt>
<clustering>
<clus scale="   38.639">  1  6  2 -1</clus>
<clus scale="  463.813">  4  5 -1 -1</clus>
<clus scale="  300.000">  1  4  2 -1</clus>
</clustering>
</event>
<event>
 6    1  0.9843879E-012  0.3000000E+03  0.7818608E-02  0.1093470E+00
          1   -1    0    0  502    0  0.00000000000E+00  0.00000000000E+00  0.23753954432E+03  0.23753954432E+03  0.00000000000E+00 0.  1.
         13   -1    0    0    0    0 -0.00000000000E+00 -0.00000000000E+00 -0.27500000000E+03  0.27500000000E+03  0.00000000000E+00 0.  1.
    9000005    2    1    2  501    0 -0.29993142626E+02 -0.19167557851E+02 -0.50579387627E+02  0.47460420125E+03  0.47055699921E+03 0.  0.
         13    1    3    3    0    0 -0.67581111977E+02 -0.58487070530E+02  0.19953819946E+03  0.21863997155E+03  0.00000000000E+00 0.  1.
          3    1    3    3  501    0  0.37587969351E+02  0.39319512679E+02 -0.25011758708E+03  0.25596422970E+03  0.00000000000E+00 0.  1.
         21    1    1    2  502  501  0.29993142626E+02  0.19167557851E+02  0.13118931943E+02  0.37935343071E+02  0.00000000000E+00 0. -1.
<scales pt_clust_4="550.00000" pt_clust_5="550.00000" pt_clust_6="35.59472"></scales>
<mgrwt>
<rscale>  0 0.30000000E+03</rscale>
<asrwt>  1 0.35594717E+02</asrwt>
<pdfrwt beam="1">  1        1 0.86378016E+00 0.30000000E+03</pdfrwt>
<pdfrwt beam="2">0</pdfrwt>
<totfact> 0.29357016E-04</totfact>
</mgrwt>
<clustering>
<clus scale="   35.595">  1  6  2 -1</clus>
<clus scale="  470.557">  4  5 -1 -1</clus>
<clus scale="  300.000">  1  4  2 -1</clus>
</clustering>
</event>
<event>
 6    1  0.9843879E-012  0.3000000E+03  0.7818608E-02  0.1093470E+00
          1   -1    0    0  502    0  0.00000000000E+00  0.00000000000E+00  0.23507401060E+03  0.23507401060E+03  0.00000000000E+00 0.  1.
         13   -1    0    0    0    0 -0.00000000000E+00 -0.00000000000E+00 -0.27500000000E+03  0.27500000000E+03  0.00000000000E+00 0.  1.
    9000005    2    1    2  501    0 -0.33235906644E+02  0.17621816669E+01 -0.59353118446E+02  0.47153644299E+03  0.46660057182E+03 0.  0.
         13    1    3    3    0    0 -0.21078548771E+03  0.29145777911E+02  0.96551399199E+02  0.23367107413E+03  0.00000000000E+00 0.  1.
          1    1    3    3  501    0  0.17754958106E+03 -0.27383596244E+02 -0.15590451764E+03  0.23786536886E+03  0.00000000000E+00 0.  1.
         21    1    1    2  502  501  0.33235906644E+02 -0.17621816669E+01  0.19427129048E+02  0.38537567615E+02  0.00000000000E+00 0. -1.
<scales pt_clust_4="550.00000" pt_clust_5="550.00000" pt_clust_6="33.28259"></scales>
<mgrwt>
<rscale>  0 0.30000000E+03</rscale>
<asrwt>  1 0.33282590E+02</asrwt>
<pdfrwt beam="1">  1        1 0.85481458E+00 0.30000000E+03</pdfrwt>
<pdfrwt beam="2">0</pdfrwt>
<totfact> 0.36935470E-04</totfact>
</mgrwt>
<clustering>
<clus scale="   33.283">  1  6  2 -1</clus>
<clus scale="  466.601">  4  5 -1 -1</clus>
<clus scale="  300.000">  1  4  2 -1</clus>
</clustering>
</event>
<event>
 6    1  0.9843879E-012  0.3000000E+03  0.7818608E-02  0.1093470E+00
          1   -1    0    0  502    0  0.00000000000E+00  0.00000000000E+00  0.25623244507E+03  0.25623244507E+03  0.00000000000E+00 0.  1.
         13   -1    0    0    0    0 -0.00000000000E+00 -0.00000000000E+00 -0.27500000000E+03  0.27500000000E+03  0.00000000000E+00 0.  1.
    9000005    2    1    2  501    0 -0.27817887062E+02 -0.16860008152E+02 -0.38312267122E+02  0.49328392085E+03  0.49071692659E+03 0.  0.
         13    1    3    3    0    0 -0.18786313637E+03  0.15552105902E+03  0.36168105736E+02  0.24655119078E+03  0.00000000000E+00 0.  1.
          3    1    3    3  501    0  0.16004524930E+03 -0.17238106718E+03 -0.74480372858E+02  0.24673273007E+03  0.00000000000E+00 0.  1.
         21    1    1    2  502  501  0.27817887062E+02  0.16860008152E+02  0.19544712187E+02  0.37948524214E+02  0.00000000000E+00 0.  1.
<scales pt_clust_4="550.00000" pt_clust_5="550.00000" pt_clust_6="32.52837"></scales>
<mgrwt>
<rscale>  0 0.30000000E+03</rscale>
<asrwt>  1 0.32528368E+02</asrwt>
<pdfrwt beam="1">  1        1 0.93175435E+00 0.30000000E+03</pdfrwt>
<pdfrwt beam="2">0</pdfrwt>
<totfact> 0.25109766E-05</totfact>
</mgrwt>
<clustering>
<clus scale="   32.528">  1  6  2 -1</clus>
<clus scale="  490.717">  4  5 -1 -1</clus>
<clus scale="  300.000">  1  4  2 -1</clus>
</clustering>
</event>
<event>
 6    1  0.9843879E-012  0.3000000E+03  0.7818608E-02  0.1093470E+00
          1   -1    0    0  502    0  0.00000000000E+00  0.00000000000E+00  0.27066275143E+03  0.27066275143E+03  0.00000000000E+00 0.  1.
         13   -1    0    0    0    0 -0.00000000000E+00 -0.00000000000E+00 -0.27500000000E+03  0.27500000000E+03  0.00000000000E+00 0.  1.
    9000005    2    1    2  501    0  0.32644643864E+02 -0.46704739220E+02 -0.10991565077E+02  0.48829302625E+03  0.48483219731E+03 0.  0.
         13    1    3    3    0    0  0.17580203367E+03  0.14201543209E+03 -0.82935560388E+02  0.24073438718E+03  0.00000000000E+00 0.  1.
          1    1    3    3  501    0 -0.14315738981E+03 -0.18872017131E+03  0.71943995312E+02  0.24755863907E+03  0.00000000000E+00 0.  1.
         21    1    1    2  502  501 -0.32644643864E+02  0.46704739220E+02  0.66543165028E+01  0.57369725175E+02  0.00000000000E+00 0.  1.
<scales pt_clust_4="550.00000" pt_clust_5="550.00000" pt_clust_6="56.98250"></scales>
<mgrwt>
<rscale>  0 0.30000000E+03</rscale>
<asrwt>  1 0.56982501E+02</asrwt>
<pdfrwt beam="1">  1        1 0.98422819E+00 0.30000000E+03</pdfrwt>
<pdfrwt beam="2">0</pdfrwt>
<totfact> 0.16286614E-06</totfact>
</mgrwt>
<clustering>
<clus scale="   56.983">  1  6  2 -1</clus>
<clus scale="  484.832">  4  5 -1 -1</clus>
<clus scale="  300.000">  1  4  2 -1</clus>
</clustering>
</event>
<event>
 6    1  0.9843879E-012  0.3000000E+03  0.7818608E-02  0.1093470E+00
          1   -1    0    0  502    0  0.00000000000E+00  0.00000000000E+00  0.23692700578E+03  0.23692700578E+03  0.00000000000E+00 0.  1.
         13   -1    0    0    0    0 -0.00000000000E+00 -0.00000000000E+00 -0.27500000000E+03  0.27500000000E+03  0.00000000000E+00 0.  1.
    9000005    2    1    2  501    0 -0.29604303496E+02  0.67133289035E+01 -0.25596861162E+02  0.47910723328E+03  0.47745895961E+03 0.  0.
         13    1    3    3    0    0 -0.70840955116E+02 -0.19507408776E+03 -0.13332797719E+03  0.24667527266E+03  0.00000000000E+00 0.  1.
          3    1    3    3  501    0  0.41236651620E+02  0.20178741666E+03  0.10773111603E+03  0.23243196063E+03  0.00000000000E+00 0.  1.
         21    1    1    2  502  501  0.29604303496E+02 -0.67133289035E+01 -0.12476133059E+02  0.32819772494E+02  0.00000000000E+00 0.  1.
<scales pt_clust_4="550.00000" pt_clust_5="550.00000" pt_clust_6="30.35596"></scales>
<mgrwt>
<rscale>  0 0.30000000E+03</rscale>
<asrwt>  1 0.30355963E+02</asrwt>
<pdfrwt beam="1">  1        1 0.86155275E+00 0.30000000E+03</pdfrwt>
<pdfrwt beam="2">0</pdfrwt>
<totfact> 0.31980268E-04</totfact>
</mgrwt>
<clustering>
<clus scale="   30.356">  1  6  2 -1</clus>
<clus scale="  477.459">  4  5 -1 -1</clus>
<clus scale="  300.000">  1  4  2 -1</clus>
</clustering>
</event>
<event>
 6    1  0.9843879E-012  0.3000000E+03  0.7818608E-02  0.1093470E+00
          1   -1    0    0  502    0  0.00000000000E+00  0.00000000000E+00  0.23082759627E+03  0.23082759627E+03  0.00000000000E+00 0.  1.
         13   -1    0    0    0    0 -0.00000000000E+00 -0.00000000000E+00 -0.27500000000E+03  0.27500000000E+03  0.00000000000E+00 0.  1.
    9000005    2    1    2  501    0 -0.75452437755E+01 -0.35507022579E+02 -0.32391091976E+02  0.46766375655E+03  0.46512635594E+03 0.  0.
         13    1    3    3    0    0  0.47842159937E+02  0.60745281972E+02  0.19764128687E+03  0.21222850851E+03  0.00000000000E+00 0.  1.
          3    1    3    3  501    0 -0.55387403713E+02 -0.96252304550E+02 -0.23003237885E+03  0.25543524804E+03  0.00000000000E+00 0.  1.
         21    1    1    2  502  501  0.75452437755E+01  0.35507022579E+02 -0.11781311751E+02  0.38163839726E+02  0.00000000000E+00 0.  1.
<scales pt_clust_4="550.00000" pt_clust_5="550.00000" pt_clust_6="36.29987"></scales>
<mgrwt>
<rscale>  0 0.30000000E+03</rscale>
<asrwt>  1 0.36299872E+02</asrwt>
<pdfrwt beam="1">  1        1 0.83937308E+00 0.30000000E+03</pdfrwt>
<pdfrwt beam="2">0</pdfrwt>
<totfact> 0.49912365E-04</totfact>
</mgrwt>
<clustering>
<clus scale="   36.300">  1  6  2 -1</clus>
<clus scale="  465.126">  4  5 -1 -1</clus>
<clus scale="  300.000">  1  4  2 -1</clus>
</clustering>
</event>
<event>
 6    1  0.9843879E-012  0.3000000E+03  0.7818608E-02  0.1093470E+00
          1   -1    0    0  502    0  0.00000000000E+00  0.00000000000E+00  0.23127676417E+03  0.23127676417E+03  0.00000000000E+00 0.  1.
         13   -1    0    0    0    0 -0.00000000000E+00 -0.00000000000E+00 -0.27500000000E+03  0.27500000000E+03  0.00000000000E+00 0.  1.
    9000005    2    1    2  501    0 -0.85514237029E+01 -0.30938835939E+02 -0.45077097554E+02  0.47414934040E+03  0.47090902928E+03 0.  0.
         13    1    3    3    0    0 -0.57794244358E+02  0.18963028284E+03  0.82390810728E+02  0.21468130925E+03  0.00000000000E+00 0.  1.
          1    1    3    3  501    0  0.49242820655E+02 -0.22056911878E+03 -0.12746790828E+03  0.25946803115E+03  0.00000000000E+00 0.  1.
         21    1    1    2  502  501  0.85514237029E+01  0.30938835939E+02  0.13538617248E+01  0.32127423771E+02  0.00000000000E+00 0. -1.
<scales pt_clust_4="550.00000" pt_clust_5="550.00000" pt_clust_6="32.09888"></scales>
<mgrwt>
<rscale>  0 0.30000000E+03</rscale>
<asrwt>  1 0.32098885E+02</asrwt>
<pdfrwt beam="1">  1        1 0.84100642E+00 0.30000000E+03</pdfrwt>
<pdfrwt beam="2">0</pdfrwt>
<totfact> 0.49616491E-04</totfact>
</mgrwt>
<clustering>
<clus scale="   32.099">  1  6  2 -1</clus>
<clus scale="  470.909">  4  5 -1 -1</clus>
<clus scale="  300.000">  1  4  2 -1</clus>
</clustering>
</event>
<event>
 6    1  0.9843879E-012  0.3000000E+03  0.7818608E-02  0.1093470E+00
          1   -1    0    0  502    0  0.00000000000E+00  0.00000000000E+00  0.25693283061E+03  0.25693283061E+03  0.00000000000E+00 0.  1.
         13   -1    0    0    0    0 -0.00000000000E+00 -0.00000000000E+00 -0.27500000000E+03  0.27500000000E+03  0.00000000000E+00 0.  1.
    9000005    2    1    2  501    0 -0.95756740690E+01  0.40036273094E+02 -0.50441039400E+02  0.47956237943E+03  0.47512227964E+03 0.  0.
         13    1    3    3    0    0 -0.10255150461E+03 -0.15897873464E+03  0.99353122782E+02  0.21368690220E+03  0.00000000000E+00 0.  1.
          1    1    3    3  501    0  0.92975830544E+02  0.19901500773E+03 -0.14979416218E+03  0.26587547723E+03  0.00000000000E+00 0.  1.
         21    1    1    2  502  501  0.95756740690E+01 -0.40036273094E+02  0.32373870007E+02  0.52370451176E+02  0.00000000000E+00 0. -1.
<scales pt_clust_4="550.00000" pt_clust_5="550.00000" pt_clust_6="41.16548"></scales>
<mgrwt>
<rscale>  0 0.30000000E+03</rscale>
<asrwt>  1 0.41165479E+02</asrwt>
<pdfrwt beam="1">  1        1 0.93430120E+00 0.30000000E+03</pdfrwt>
<pdfrwt beam="2">0</pdfrwt>
<totfact> 0.22293971E-05</totfact>
</mgrwt>
<clustering>
<clus scale="   41.165">  1  6  2 -1</clus>
<clus scale="  475.122">  4  5 -1 -1</clus>
<clus scale="  300.000">  1  4  2 -1</clus>
</clustering>
</event>
<event>
 6    1  0.9843879E-012  0.3000000E+03  0.7818608E-02  0.1093470E+00
          1   -1    0    0  502    0  0.00000000000E+00  0.00000000000E+00  0.24324140206E+03  0.24324140206E+03  0.00000000000E+00 0.  1.
         13   -1    0    0    0    0 -0.00000000000E+00 -0.00000000000E+00 -0.27500000000E+03  0.27500000000E+03  0.00000000000E+00 0.  1.
    9000005    2    1    2  501    0  0.32466952744E+02  0.43135529825E+00 -0.47873011447E+02  0.48199276884E+03  0.47850905414E+03 0.  0.
         13    1    3    3    0    0  0.49923604308E+02 -0.68464042662E+02  0.20367484280E+03  0.22059721892E+03  0.00000000000E+00 0.  1.
          3    1    3    3  501    0 -0.17456651564E+02  0.68895397961E+02 -0.25154785424E+03  0.26139554992E+03  0.00000000000E+00 0.  1.
         21    1    1    2  502  501 -0.32466952744E+02 -0.43135529825E+00  0.16114413507E+02  0.36248633223E+02  0.00000000000E+00 0.  1.
<scales pt_clust_4="550.00000" pt_clust_5="550.00000" pt_clust_6="32.46982"></scales>
<mgrwt>
<rscale>  0 0.30000000E+03</rscale>
<asrwt>  1 0.32469818E+02</asrwt>
<pdfrwt beam="1">  1        1 0.88451419E+00 0.30000000E+03</pdfrwt>
<pdfrwt beam="2">0</pdfrwt>
<totfact> 0.17477441E-04</totfact>
</mgrwt>
<clustering>
<clus scale="   32.470">  1  6  2 -1</clus>
<clus scale="  478.509">  4  5 -1 -1</clus>
<clus scale="  300.000">  1  4  2 -1</clus>
</clustering>
</event>
<event>
 6    1  0.9843879E-012  0.3000000E+03  0.7818608E-02  0.1093470E+00
          1   -1    0    0  502    0  0.00000000000E+00  0.00000000000E+00  0.24342807367E+03  0.24342807367E+03  0.00000000000E+00 0.  1.
         13   -1    0    0    0    0 -0.00000000000E+00 -0.00000000000E+00 -0.27500000000E+03  0.27500000000E+03  0.00000000000E+00 0.  1.
    9000005    2    1    2  501    0  0.50522187215E+01  0.39719473286E+02 -0.60739984913E+02  0.46889084410E+03  0.46321281982E+03 0.  0.
         13    1    3    3    0    0 -0.18915585542E+03 -0.10811068744E+03 -0.55209098956E+02  0.22475743143E+03  0.00000000000E+00 0.  1.
          1    1    3    3  501    0  0.19420807414E+03  0.14783016072E+03 -0.55308859573E+01  0.24413341267E+03  0.00000000000E+00 0.  1.
         21    1    1    2  502  501 -0.50522187215E+01 -0.39719473286E+02  0.29168058587E+02  0.49537229574E+02  0.00000000000E+00 0.  1.
<scales pt_clust_4="550.00000" pt_clust_5="550.00000" pt_clust_6="40.03950"></scales>
<mgrwt>
<rscale>  0 0.30000000E+03</rscale>
<asrwt>  1 0.40039499E+02</asrwt>
<pdfrwt beam="1">  1        1 0.88519300E+00 0.30000000E+03</pdfrwt>
<pdfrwt beam="2">0</pdfrwt>
<totfact> 0.16453695E-04</totfact>
</mgrwt>
<clustering>
<clus scale="   40.039">  1  6  2 -1</clus>
<clus scale="  463.213">  4  5 -1 -1</clus>
<clus scale="  300.000">  1  4  2 -1</clus>
</clustering>
</event>
<event>
 6    1  0.9843879E-012  0.3000000E+03  0.7818608E-02  0.1093470E+00
          1   -1    0    0  502    0  0.00000000000E+00  0.00000000000E+00  0.22650027847E+03  0.22650027847E+03  0.00000000000E+00 0.  1.
         13   -1    0    0    0    0 -0.00000000000E+00 -0.00000000000E+00 -0.27500000000E+03  0.27500000000E+03  0.00000000000E+00 0.  1.
    9000005    2    1    2  501    0 -0.31532459331E+02 -0.11879104606E+02 -0.49132899382E+02  0.46779849762E+03  0.46398920619E+03 0.  0.
         13    1    3    3    0    0 -0.22934811112E+03  0.46195265496E+01 -0.11764829195E+03  0.25780422165E+03  0.00000000000E+00 0.  1.
          3    1    3    3  501    0  0.19781565179E+03 -0.16498631155E+02  0.68515392571E+02  0.20999427598E+03  0.00000000000E+00 0.  1.
         21    1    1    2  502  501  0.31532459331E+02  0.11879104606E+02  0.63317784764E+00  0.33701780841E+02  0.00000000000E+00 0.  1.
<scales pt_clust_4="550.00000" pt_clust_5="550.00000" pt_clust_6="33.69583"></scales>
<mgrwt>
<rscale>  0 0.30000000E+03</rscale>
<asrwt>  1 0.33695832E+02</asrwt>
<pdfrwt beam="1">  1        1 0.82363738E+00 0.30000000E+03</pdfrwt>
<pdfrwt beam="2">0</pdfrwt>
<totfact> 0.67654610E-04</totfact>
</mgrwt>
<clustering>
<clus scale="   33.696">  1  6  2 -1</clus>
<clus scale="  463.989">  4  5 -1 -1</clus>
<clus scale="  300.000">  1  4  2 -1</clus>
</clustering>
</event>
<event>
 6    1  0.9843879E-012  0.3000000E+03  0.7818608E-02  0.1093470E+00
          1   -1    0    0  502    0  0.00000000000E+00  0.00000000000E+00  0.22429335232E+03  0.22429335232E+03  0.00000000000E+00 0.  1.
         13   -1    0    0    0    0 -0.00000000000E+00 -0.00000000000E+00 -0.27500000000E+03  0.27500000000E+03  0.00000000000E+00 0.  1.
    9000005    2    1    2  501    0 -0.13467669543E+02 -0.27019380583E+02 -0.69264532518E+02  0.46385579965E+03  0.45766057548E+03 0.  0.
         13    1    3    3    0    0 -0.21060211699E+03 -0.77086246923E+02  0.47624180711E+02  0.22926753746E+03  0.00000000000E+00 0.  1.
          3    1    3    3  501    0  0.19713444745E+03  0.50066866340E+02 -0.11688871323E+03  0.23458826219E+03  0.00000000000E+00 0.  1.
         21    1    1    2  502  501  0.13467669543E+02  0.27019380583E+02  0.18557884839E+02  0.35437552676E+02  0.00000000000E+00 0. -1.
<scales pt_clust_4="550.00000" pt_clust_5="550.00000" pt_clust_6="30.18982"></scales>
<mgrwt>
<rscale>  0 0.30000000E+03</rscale>
<asrwt>  1 0.30189817E+02</asrwt>
<pdfrwt beam="1">  1        1 0.81561219E+00 0.30000000E+03</pdfrwt>
<pdfrwt beam="2">0</pdfrwt>
<totfact> 0.80938031E-04</totfact>
</mgrwt>
<clustering>
<clus scale="   30.190">  1  6  2 -1</clus>
<clus scale="  457.661">  4  5 -1 -1</clus>
<clus scale="  300.000">  1  4  2 -1</clus>
</clustering>
</event>
<event>
 6    1  0.9843879E-012  0.3000000E+03  0.7818608E-02  0.1093470E+00
          1   -1    0    0  502    0  0.00000000000E+00  0.00000000000E+00  0.23393541167E+03  0.23393541167E+03  0.00000000000E+00 0.  1.
         13   -1    0    0    0    0 -0.00000000000E+00 -0.00000000000E+00 -0.27500000000E+03  0.27500000000E+03  0.00000000000E+00 0.  1.
    9000005    2    1    2  501    0  0.26699195754E+02  0.15319543777E+02 -0.43689336878E+02  0.47804164562E+03  0.47504475717E+03 0.  0.
         13    1    3    3    0    0 -0.70416915365E+02 -0.43246211763E+02 -0.23861857623E+03  0.25252247766E+03  0.00000000000E+00 0.  1.
          1    1    3    3  501    0  0.97116111119E+02  0.58565755540E+02  0.19492923936E+03  0.22551916796E+03  0.00000000000E+00 0.  1.
         21    1    1    2  502  501 -0.26699195754E+02 -0.15319543777E+02  0.26247485426E+01  0.30893766044E+02  0.00000000000E+00 0.  1.
<scales pt_clust_4="550.00000" pt_clust_5="550.00000" pt_clust_6="30.78206"></scales>
<mgrwt>
<rscale>  0 0.30000000E+03</rscale>
<asrwt>  1 0.30782064E+02</asrwt>
<pdfrwt beam="1">  1        1 0.85067422E+00 0.30000000E+03</pdfrwt>
<pdfrwt beam="2">0</pdfrwt>
<totfact> 0.41094874E-04</totfact>
</mgrwt>
<clustering>
<clus scale="   30.782">  1  6  2 -1</clus>
<clus scale="  475.045">  4  5 -1 -1</clus>
<clus scale="  300.000">  1  4  2 -1</clus>
</clustering>
</event>
<event>
 6    1  0.9843879E-012  0.3000000E+03  0.7818608E-02  0.1093470E+00
          1   -1    0    0  502    0  0.00000000000E+00  0.00000000000E+00  0.23035134486E+03  0.23035134486E+03  0.00000000000E+00 0.  1.
         13   -1    0    0    0    0 -0.00000000000E+00 -0.00000000000E+00 -0.27500000000E+03  0.27500000000E+03  0.00000000000E+00 0.  1.
    9000005    2    1    2  501    0 -0.50030101027E+01 -0.34061575278E+02 -0.61259357768E+02  0.46712653011E+03  0.46181085436E+03 0.  0.
         13    1    3    3    0    0  0.14888090603E+03  0.63416130372E+02 -0.18585398432E+03  0.24643220824E+03  0.00000000000E+00 0.  1.
          1    1    3    3  501    0 -0.15388391613E+03 -0.97477705650E+02  0.12459462655E+03  0.22069432187E+03  0.00000000000E+00 0.  1.
         21    1    1    2  502  501  0.50030101027E+01  0.34061575278E+02  0.16610702628E+02  0.38224814745E+02  0.00000000000E+00 0. -1.
<scales pt_clust_4="550.00000" pt_clust_5="550.00000" pt_clust_6="34.42704"></scales>
<mgrwt>
<rscale>  0 0.30000000E+03</rscale>
<asrwt>  1 0.34427039E+02</asrwt>
<pdfrwt beam="1">  1        1 0.83764125E+00 0.30000000E+03</pdfrwt>
<pdfrwt beam="2">0</pdfrwt>
<totfact> 0.51919514E-04</totfact>
</mgrwt>
<clustering>
<clus scale="   34.427">  1  6  2 -1</clus>
<clus scale="  461.811">  4  5 -1 -1</clus>
<clus scale="  300.000">  1  4  2 -1</clus>
</clustering>
</event>
<event>
 6    1  0.9843879E-012  0.3000000E+03  0.7818608E-02  0.1093470E+00
          1   -1    0    0  502    0  0.00000000000E+00  0.00000000000E+00  0.22942881427E+03  0.22942881427E+03  0.00000000000E+00 0.  1.
         13   -1    0    0    0    0 -0.00000000000E+00 -0.00000000000E+00 -0.27500000000E+03  0.27500000000E+03  0.00000000000E+00 0.  1.
    9000005    2    1    2  501    0 -0.58609419709E-01 -0.35705893049E+02 -0.48619125729E+02  0.46859301971E+03  0.46469418385E+03 0.  0.
         13    1    3    3    0    0  0.30955752181E+02 -0.24842556321E+03 -0.39386295706E+02  0.25342612205E+03  0.00000000000E+00 0.  1.
          1    1    3    3  501    0 -0.31014361601E+02  0.21271967016E+03 -0.92328300228E+01  0.21516689766E+03  0.00000000000E+00 0.  1.
         21    1    1    2  502  501  0.58609419709E-01  0.35705893049E+02  0.30479400016E+01  0.35835794560E+02  0.00000000000E+00 0.  1.
<scales pt_clust_4="550.00000" pt_clust_5="550.00000" pt_clust_6="35.70594"></scales>
<mgrwt>
<rscale>  0 0.30000000E+03</rscale>
<asrwt>  1 0.35705941E+02</asrwt>
<pdfrwt beam="1">  1        1 0.83428660E+00 0.30000000E+03</pdfrwt>
<pdfrwt beam="2">0</pdfrwt>
<totfact> 0.54550574E-04</totfact>
</mgrwt>
<clustering>
<clus scale="   35.706">  1  6  2 -1</clus>
<clus scale="  464.694">  4  5 -1 -1</clus>
<clus scale="  300.000">  1  4  2 -1</clus>
</clustering>
</event>
<event>
 6    1  0.9843879E-012  0.3000000E+03  0.7818608E-02  0.1093470E+00
          1   -1    0    0  502    0  0.00000000000E+00  0.00000000000E+00  0.23128600172E+03  0.23128600172E+03  0.00000000000E+00 0.  1.
         13   -1    0    0    0    0 -0.00000000000E+00 -0.00000000000E+00 -0.27500000000E+03  0.27500000000E+03  0.00000000000E+00 0.  1.
    9000005    2    1    2  501    0 -0.33987839209E+02 -0.18656968732E+02 -0.43808721429E+02  0.46751404447E+03  0.46383932779E+03 0.  0.
         13    1    3    3    0    0  0.10782390064E+03 -0.18817748766E+03  0.57520125970E+02  0.22437763993E+03  0.00000000000E+00 0.  1.
          1    1    3    3  501    0 -0.14181173985E+03  0.16952051892E+03 -0.10132884740E+03  0.24313640454E+03  0.00000000000E+00 0.  1.
         21    1    1    2  502  501  0.33987839209E+02  0.18656968732E+02  0.94723146832E-01  0.38771957247E+02  0.00000000000E+00 0. -1.
<scales pt_clust_4="550.00000" pt_clust_5="550.00000" pt_clust_6="38.77184"></scales>
<mgrwt>
<rscale>  0 0.30000000E+03</rscale>
<asrwt>  1 0.38771842E+02</asrwt>
<pdfrwt beam="1">  1        1 0.84104001E+00 0.30000000E+03</pdfrwt>
<pdfrwt beam="2">0</pdfrwt>
<totfact> 0.47867184E-04</totfact>
</mgrwt>
<clustering>
<clus scale="   38.772">  1  6  2 -1</clus>
<clus scale="  463.839">  4  5 -1 -1</clus>
<clus scale="  300.000">  1  4  2 -1</clus>
</clustering>
</event>
<event>
 6    1  0.9843879E-012  0.3000000E+03  0.7818608E-02  0.1093470E+00
          1   -1    0    0  502    0  0.00000000000E+00  0.00000000000E+00  0.22451288586E+03  0.22451288586E+03  0.00000000000E+00 0.  1.
         13   -1    0    0    0    0 -0.00000000000E+00 -0.00000000000E+00 -0.27500000000E+03  0.27500000000E+03  0.00000000000E+00 0.  1.
    9000005    2    1    2  501    0 -0.29927992567E+02  0.13048752651E+02 -0.63730634102E+02  0.46428015242E+03  0.45872487563E+03 0.  0.
         13    1    3    3    0    0  0.14203281195E+03 -0.13181483662E+03  0.65983180418E+02  0.20470039307E+03  0.00000000000E+00 0.  1.
          3    1    3    3  501    0 -0.17196080452E+03  0.14486358927E+03 -0.12971381452E+03  0.25957975935E+03  0.00000000000E+00 0.  1.
         21    1    1    2  502  501  0.29927992567E+02 -0.13048752651E+02  0.13243519966E+02  0.35232733444E+02  0.00000000000E+00 0.  1.
<scales pt_clust_4="550.00000" pt_clust_5="550.00000" pt_clust_6="32.64896"></scales>
<mgrwt>
<rscale>  0 0.30000000E+03</rscale>
<asrwt>  1 0.32648961E+02</asrwt>
<pdfrwt beam="1">  1        1 0.81641049E+00 0.30000000E+03</pdfrwt>
<pdfrwt beam="2">0</pdfrwt>
<totfact> 0.78550426E-04</totfact>
</mgrwt>
<clustering>
<clus scale="   32.649">  1  6  2 -1</clus>
<clus scale="  458.725">  4  5 -1 -1</clus>
<clus scale="  300.000">  1  4  2 -1</clus>
</clustering>
</event>
<event>
 6    1  0.9843879E-012  0.3000000E+03  0.7818608E-02  0.1093470E+00
          1   -1    0    0  502    0  0.00000000000E+00  0.00000000000E+00  0.24530648450E+03  0.24530648450E+03  0.00000000000E+00 0.  1.
         13   -1    0    0    0    0 -0.00000000000E+00 -0.00000000000E+00 -0.27500000000E+03  0.27500000000E+03  0.00000000000E+00 0.  1.
    9000005    2    1    2  501    0 -0.18877968626E+02 -0.38841971009E+02 -0.40016271303E+02  0.47590337989E+03  0.47224744426E+03 0.  0.
         13    1    3    3    0    0  0.12491648882E+02  0.16555557292E+03 -0.16516763865E+03  0.23419017459E+03  0.00000000000E+00 0.  1.
          3    1    3    3  501    0 -0.31369617508E+02 -0.20439754393E+03  0.12515136735E+03  0.24171320530E+03  0.00000000000E+00 0.  1.
         21    1    1    2  502  501  0.18877968626E+02  0.38841971009E+02  0.10322755802E+02  0.44403104606E+02  0.00000000000E+00 0. -1.
<scales pt_clust_4="550.00000" pt_clust_5="550.00000" pt_clust_6="43.18653"></scales>
<mgrwt>
<rscale>  0 0.30000000E+03</rscale>
<asrwt>  1 0.43186530E+02</asrwt>
<pdfrwt beam="1">  1        1 0.89202358E+00 0.30000000E+03</pdfrwt>
<pdfrwt beam="2">0</pdfrwt>
<totfact> 0.13139672E-04</totfact>
</mgrwt>
<clustering>
<clus scale="   43.187">  1  6  2 -1</clus>
<clus scale="  472.247">  4  5 -1 -1</clus>
<clus scale="  300.000">  1  4  2 -1</clus>
</clustering>
</event>
<event>
 6    1  0.9843879E-012  0.3000000E+03  0.7818608E-02  0.1093470E+00
          1   -1    0    0  502    0  0.00000000000E+00  0.00000000000E+00  0.22641440773E+03  0.22641440773E+03  0.00000000000E+00 0.  1.
         13   -1    0    0    0    0 -0.00000000000E+00 -0.00000000000E+00 -0.27500000000E+03  0.27500000000E+03  0.00000000000E+00 0.  1.
    9000005    2    1    2  501    0  0.19932224567E+02 -0.23195030804E+02 -0.65553255686E+02  0.46644006525E+03  0.46079692068E+03 0.  0.
         13    1    3    3    0    0 -0.20697687008E+03  0.43838859921E+02  0.25125178411E+02  0.21305526273E+03  0.00000000000E+00 0.  1.
          1    1    3    3  501    0  0.22690909465E+03 -0.67033890725E+02 -0.90678434097E+02  0.25338480252E+03  0.00000000000E+00 0.  1.
         21    1    1    2  502  501 -0.19932224567E+02  0.23195030804E+02  0.16967663418E+02  0.34974342482E+02  0.00000000000E+00 0.  1.
<scales pt_clust_4="550.00000" pt_clust_5="550.00000" pt_clust_6="30.58272"></scales>
<mgrwt>
<rscale>  0 0.30000000E+03</rscale>
<asrwt>  1 0.30582724E+02</asrwt>
<pdfrwt beam="1">  1        1 0.82332512E+00 0.30000000E+03</pdfrwt>
<pdfrwt beam="2">0</pdfrwt>
<totfact> 0.69356726E-04</totfact>
</mgrwt>
<clustering>
<clus scale="   30.583">  1  6  2 -1</clus>
<clus scale="  460.797">  4  5 -1 -1</clus>
<clus scale="  300.000">  1  4  2 -1</clus>
</clustering>
</event>
<event>
 6    1  0.9843879E-012  0.3000000E+03  0.7818608E-02  0.1093470E+00
          1   -1    0    0  502    0  0.00000000000E+00  0.00000000000E+00  0.23209092025E+03  0.23209092025E+03  0.00000000000E+00 0.  1.
         13   -1    0    0    0    0 -0.00000000000E+00 -0.00000000000E+00 -0.27500000000E+03  0.27500000000E+03  0.00000000000E+00 0.  1.
    9000005    2    1    2  501    0 -0.22210621571E+02  0.20763905744E+02 -0.66363813565E+02  0.46869071152E+03  0.46297124730E+03 0.  0.
         13    1    3    3    0    0 -0.13899926825E+03 -0.18223458201E+03 -0.44511257900E+02  0.23347696147E+03  0.00000000000E+00 0.  1.
          3    1    3    3  501    0  0.11678864668E+03  0.20299848776E+03 -0.21852555665E+02  0.23521375005E+03  0.00000000000E+00 0.  1.
         21    1    1    2  502  501  0.22210621571E+02 -0.20763905744E+02  0.23454733819E+02  0.38400208734E+02  0.00000000000E+00 0.  1.
<scales pt_clust_4="550.00000" pt_clust_5="550.00000" pt_clust_6="30.40479"></scales>
<mgrwt>
<rscale>  0 0.30000000E+03</rscale>
<asrwt>  1 0.30404794E+02</asrwt>
<pdfrwt beam="1">  1        1 0.84396698E+00 0.30000000E+03</pdfrwt>
<pdfrwt beam="2">0</pdfrwt>
<totfact> 0.47369710E-04</totfact>
</mgrwt>
<clustering>
<clus scale="   30.405">  1  6  2 -1</clus>
<clus scale="  462.971">  4  5 -1 -1</clus>
<clus scale="  300.000">  1  4  2 -1</clus>
</clustering>
</event>
<event>
 6    1  0.9843879E-012  0.3000000E+03  0.7818608E-02  0.1093470E+00
          1   -1    0    0  502    0  0.00000000000E+00  0.00000000000E+00  0.24482533389E+03  0.24482533389E+03  0.00000000000E+00 0.  1.
         13   -1    0    0    0    0 -0.00000000000E+00 -0.00000000000E+00 -0.27500000000E+03  0.27500000000E+03  0.00000000000E+00 0.  1.
    9000005    2    1    2  501    0 -0.46533957150E+02  0.12402609178E+02 -0.21571552472E+02  0.47090450554E+03  0.46793855107E+03 0.  0.
         13    1    3    3    0    0 -0.88212932224E+02  0.96947917270E+02 -0.21723750256E+03  0.25371746608E+03  0.00000000000E+00 0.  1.
          1    1    3    3  501    0  0.41678975075E+02 -0.84545308092E+02  0.19566595009E+03  0.21718703946E+03  0.00000000000E+00 0.  1.
         21    1    1    2  502  501  0.46533957150E+02 -0.12402609178E+02 -0.86031136342E+01  0.48920828352E+02  0.00000000000E+00 0.  1.
<scales pt_clust_4="550.00000" pt_clust_5="550.00000" pt_clust_6="48.15845"></scales>
<mgrwt>
<rscale>  0 0.30000000E+03</rscale>
<asrwt>  1 0.48158449E+02</asrwt>
<pdfrwt beam="1">  1        1 0.89027394E+00 0.30000000E+03</pdfrwt>
<pdfrwt beam="2">0</pdfrwt>
<totfact> 0.13565130E-04</totfact>
</mgrwt>
<clustering>
<clus scale="   48.158">  1  6  2 -1</clus>
<clus scale="  467.939">  4  5 -1 -1</clus>
<clus scale="  300.000">  1  4  2 -1</clus>
</clustering>
</event>
<event>
 6    1  0.9843879E-012  0.3000000E+03  0.7818608E-02  0.1093470E+00
          1   -1    0    0  502    0  0.00000000000E+00  0.00000000000E+00  0.23436056091E+03  0.23436056091E+03  0.00000000000E+00 0.  1.
         13   -1    0    0    0    0 -0.00000000000E+00 -0.00000000000E+00 -0.27500000000E+03  0.27500000000E+03  0.00000000000E+00 0.  1.
    9000005    2    1    2  501    0  0.17663422494E+02  0.26809136865E+02 -0.64534504962E+02  0.46933931047E+03  0.46377145202E+03 0.  0.
         13    1    3    3    0    0  0.17317687837E+03  0.17774770805E+03 -0.34859907740E+02  0.25059866736E+03  0.00000000000E+00 0.  1.
          3    1    3    3  501    0 -0.15551345587E+03 -0.15093857118E+03 -0.29674597222E+02  0.21874064311E+03  0.00000000000E+00 0.  1.
         21    1    1    2  502  501 -0.17663422494E+02 -0.26809136865E+02  0.23895065877E+02  0.40021250441E+02  0.00000000000E+00 0.  1.
<scales pt_clust_4="550.00000" pt_clust_5="550.00000" pt_clust_6="32.10493"></scales>
<mgrwt>
<rscale>  0 0.30000000E+03</rscale>
<asrwt>  1 0.32104927E+02</asrwt>
<pdfrwt beam="1">  1        1 0.85222022E+00 0.30000000E+03</pdfrwt>
<pdfrwt beam="2">0</pdfrwt>
<totfact> 0.39407099E-04</totfact>
</mgrwt>
<clustering>
<clus scale="   32.105">  1  6  2 -1</clus>
<clus scale="  463.771">  4  5 -1 -1</clus>
<clus scale="  300.000">  1  4  2 -1</clus>
</clustering>
</event>
<event>
 6    1  0.9843879E-012  0.3000000E+03  0.7818608E-02  0.1093470E+00
          1   -1    0    0  502    0  0.00000000000E+00  0.00000000000E+00  0.22312556366E+03  0.22312556366E+03  0.00000000000E+00 0.  1.
         13   -1    0    0    0    0 -0.00000000000E+00 -0.00000000000E+00 -0.27500000000E+03  0.27500000000E+03  0.00000000000E+00 0.  1.
    9000005    2    1    2  501    0 -0.28848082869E+02  0.89150733038E+01 -0.59404772037E+02  0.46700649598E+03  0.46222770355E+03 0.  0.
         13    1    3    3    0    0 -0.14981838188E+03  0.82620558169E+01  0.15819835250E+03  0.21803790462E+03  0.00000000000E+00 0.  1.
          1    1    3    3  501    0  0.12097029901E+03  0.65301748695E+00 -0.21760312454E+03  0.24896859136E+03  0.00000000000E+00 0.  1.
         21    1    1    2  502  501  0.28848082869E+02 -0.89150733038E+01  0.75303356930E+01  0.31119067674E+02  0.00000000000E+00 0.  1.
<scales pt_clust_4="550.00000" pt_clust_5="550.00000" pt_clust_6="30.19421"></scales>
<mgrwt>
<rscale>  0 0.30000000E+03</rscale>
<asrwt>  1 0.30194212E+02</asrwt>
<pdfrwt beam="1">  1        1 0.81136569E+00 0.30000000E+03</pdfrwt>
<pdfrwt beam="2">0</pdfrwt>
<totfact> 0.87510733E-04</totfact>
</mgrwt>
<clustering>
<clus scale="   30.194">  1  6  2 -1</clus>
<clus scale="  462.228">  4  5 -1 -1</clus>
<clus scale="  300.000">  1  4  2 -1</clus>
</clustering>
</event>
<event>
 6    1  0.9843879E-012  0.3000000E+03  0.7818608E-02  0.1093470E+00
          1   -1    0    0  502    0  0.00000000000E+00  0.00000000000E+00  0.22877722617E+03  0.22877722617E+03  0.00000000000E+00 0.  1.
         13   -1    0    0    0    0 -0.00000000000E+00 -0.00000000000E+00 -0.27500000000E+03  0.27500000000E+03  0.00000000000E+00 0.  1.
    9000005    2    1    2  501    0  0.32519842359E+02  0.11118174604E+01 -0.67926920347E+02  0.46466397699E+03  0.45851910399E+03 0.  0.
         13    1    3    3    0    0  0.20360255033E+03 -0.84930618189E+02  0.66823803397E+02  0.23050516070E+03  0.00000000000E+00 0.  1.
          1    1    3    3  501    0 -0.17108270797E+03  0.86042435650E+02 -0.13475072374E+03  0.23415881630E+03  0.00000000000E+00 0.  1.
         21    1    1    2  502  501 -0.32519842359E+02 -0.11118174604E+01  0.21704146516E+02  0.39113249176E+02  0.00000000000E+00 0. -1.
<scales pt_clust_4="550.00000" pt_clust_5="550.00000" pt_clust_6="32.53884"></scales>
<mgrwt>
<rscale>  0 0.30000000E+03</rscale>
<asrwt>  1 0.32538843E+02</asrwt>
<pdfrwt beam="1">  1        1 0.83191719E+00 0.30000000E+03</pdfrwt>
<pdfrwt beam="2">0</pdfrwt>
<totfact> 0.57841387E-04</totfact>
</mgrwt>
<clustering>
<clus scale="   32.539">  1  6  2 -1</clus>
<clus scale="  458.519">  4  5 -1 -1</clus>
<clus scale="  300.000">  1  4  2 -1</clus>
</clustering>
</event>
<event>
 6    1  0.9843879E-012  0.3000000E+03  0.7818608E-02  0.1093470E+00
          1   -1    0    0  502    0  0.00000000000E+00  0.00000000000E+00  0.23866581654E+03  0.23866581654E+03  0.00000000000E+00 0.  1.
         13   -1    0    0    0    0 -0.00000000000E+00 -0.00000000000E+00 -0.27500000000E+03  0.27500000000E+03  0.00000000000E+00 0.  1.
    9000005    2    1    2  501    0 -0.61362892979E+01  0.34421298504E+02 -0.26224223734E+02  0.47726951009E+03  0.47526413237E+03 0.  0.
         13    1    3    3    0    0 -0.22500607638E+02 -0.20945748106E+03 -0.82850117440E+02  0.22636884873E+03  0.00000000000E+00 0.  1.
          1    1    3    3  501    0  0.16364318341E+02  0.24387877956E+03  0.56625893706E+02  0.25090066136E+03  0.00000000000E+00 0.  1.
         21    1    1    2  502  501  0.61362892979E+01 -0.34421298504E+02 -0.10109959730E+02  0.36396306445E+02  0.00000000000E+00 0. -1.
<scales pt_clust_4="550.00000" pt_clust_5="550.00000" pt_clust_6="34.96400"></scales>
<mgrwt>
<rscale>  0 0.30000000E+03</rscale>
<asrwt>  1 0.34963997E+02</asrwt>
<pdfrwt beam="1">  1        1 0.86787570E+00 0.30000000E+03</pdfrwt>
<pdfrwt beam="2">0</pdfrwt>
<totfact> 0.26639128E-04</totfact>
</mgrwt>
<clustering>
<clus scale="   34.964">  1  6  2 -1</clus>
<clus scale="  475.264">  4  5 -1 -1</clus>
<clus scale="  300.000">  1  4  2 -1</clus>
</clustering>
</event>
<event>
 6    1  0.9843879E-012  0.3000000E+03  0.7818608E-02  0.1093470E+00
          1   -1    0    0  502    0  0.00000000000E+00  0.00000000000E+00  0.25158636502E+03  0.25158636502E+03  0.00000000000E+00 0.  1.
         13   -1    0    0    0    0 -0.00000000000E+00 -0.00000000000E+00 -0.27500000000E+03  0.27500000000E+03  0.00000000000E+00 0.  1.
    9000005    2    1    2  501    0  0.26688334060E+02 -0.25169968393E+02 -0.16319442204E+02  0.48922164830E+03  0.48757122812E+03 0.  0.
         13    1    3    3    0    0 -0.20072669101E+03 -0.32019794112E+02  0.10776675268E+03  0.23006552258E+03  0.00000000000E+00 0.  1.
          1    1    3    3  501    0  0.22741502507E+03  0.68498257187E+01 -0.12408619489E+03  0.25915612572E+03  0.00000000000E+00 0.  1.
         21    1    1    2  502  501 -0.26688334060E+02  0.25169968393E+02 -0.70941927806E+01  0.37364716712E+02  0.00000000000E+00 0. -1.
<scales pt_clust_4="550.00000" pt_clust_5="550.00000" pt_clust_6="36.68509"></scales>
<mgrwt>
<rscale>  0 0.30000000E+03</rscale>
<asrwt>  1 0.36685090E+02</asrwt>
<pdfrwt beam="1">  1        1 0.91485951E+00 0.30000000E+03</pdfrwt>
<pdfrwt beam="2">0</pdfrwt>
<totfact> 0.54079459E-05</totfact>
</mgrwt>
<clustering>
<clus scale="   36.685">  1  6  2 -1</clus>
<clus scale="  487.571">  4  5 -1 -1</clus>
<clus scale="  300.000">  1  4  2 -1</clus>
</clustering>
</event>
<event>
 6    1  0.9843879E-012  0.3000000E+03  0.7818608E-02  0.1093470E+00
          1   -1    0    0  502    0  0.00000000000E+00  0.00000000000E+00  0.22075861457E+03  0.22075861457E+03  0.00000000000E+00 0.  1.
         13   -1    0    0    0    0 -0.00000000000E+00 -0.00000000000E+00 -0.27500000000E+03  0.27500000000E+03  0.00000000000E+00 0.  1.
    9000005    2    1    2  501    0  0.29771129264E+02 -0.10785911514E+02 -0.52992764282E+02  0.46406926179E+03  0.45994498654E+03 0.  0.
         13    1    3    3    0    0 -0.97850248600E+02  0.15820338838E+03 -0.14233692507E+03  0.23422805871E+03  0.00000000000E+00 0.  1.
          3    1    3    3  501    0  0.12762137786E+03 -0.16898929990E+03  0.89344160787E+02  0.22984120308E+03  0.00000000000E+00 0.  1.
         21    1    1    2  502  501 -0.29771129264E+02  0.10785911514E+02 -0.12486211508E+01  0.31689352780E+02  0.00000000000E+00 0. -1.
<scales pt_clust_4="550.00000" pt_clust_5="550.00000" pt_clust_6="31.66474"></scales>
<mgrwt>
<rscale>  0 0.30000000E+03</rscale>
<asrwt>  1 0.31664744E+02</asrwt>
<pdfrwt beam="1">  1        1 0.80275860E+00 0.30000000E+03</pdfrwt>
<pdfrwt beam="2">0</pdfrwt>
<totfact> 0.10091422E-03</totfact>
</mgrwt>
<clustering>
<clus scale="   31.665">  1  6  2 -1</clus>
<clus scale="  459.945">  4  5 -1 -1</clus>
<clus scale="  300.000">  1  4  2 -1</clus>
</clustering>
</event>
<event>
 6    1  0.9843879E-012  0.3000000E+03  0.7818608E-02  0.1093470E+00
          1   -1    0    0  502    0  0.00000000000E+00  0.00000000000E+00  0.25928907692E+03  0.25928907692E+03  0.00000000000E+00 0.  1.
         13   -1    0    0    0    0 -0.00000000000E+00 -0.00000000000E+00 -0.27500000000E+03  0.27500000000E+03  0.00000000000E+00 0.  1.
    9000005    2    1    2  501    0  0.34728294029E+02  0.21933450409E+02 -0.43246144208E+02  0.48483890952E+03  0.48115632444E+03 0.  0.
         13    1    3    3    0    0 -0.35690479793E+02  0.24206293245E+03  0.19201903202E+02  0.24543224463E+03  0.00000000000E+00 0.  1.
          3    1    3    3  501    0  0.70418773822E+02 -0.22012948205E+03 -0.62448047410E+02  0.23940666490E+03  0.00000000000E+00 0.  1.
         21    1    1    2  502  501 -0.34728294029E+02 -0.21933450409E+02  0.27535221131E+02  0.49450167399E+02  0.00000000000E+00 0. -1.
<scales pt_clust_4="550.00000" pt_clust_5="550.00000" pt_clust_6="41.07470"></scales>
<mgrwt>
<rscale>  0 0.30000000E+03</rscale>
<asrwt>  1 0.41074696E+02</asrwt>
<pdfrwt beam="1">  1        1 0.94286937E+00 0.30000000E+03</pdfrwt>
<pdfrwt beam="2">0</pdfrwt>
<totfact> 0.16557093E-05</totfact>
</mgrwt>
<clustering>
<clus scale="   41.075">  1  6  2 -1</clus>
<clus scale="  481.156">  4  5 -1 -1</clus>
<clus scale="  300.000">  1  4  2 -1</clus>
</clustering>
</event>
<event>
 6    1  0.9843879E-012  0.3000000E+03  0.7818608E-02  0.1093470E+00
          1   -1    0    0  502    0  0.00000000000E+00  0.00000000000E+00  0.24409466902E+03  0.24409466902E+03  0.00000000000E+00 0.  1.
         13   -1    0    0    0    0 -0.00000000000E+00 -0.00000000000E+00 -0.27500000000E+03  0.27500000000E+03  0.00000000000E+00 0.  1.
    9000005    2    1    2  501    0 -0.29395069677E+02 -0.11669262081E+02 -0.55383449160E+02  0.47910191882E+03  0.47483795170E+03 0.  0.
         13    1    3    3    0    0  0.46824912224E+01  0.13402233196E+03 -0.21937022495E+03  0.25711321783E+03  0.00000000000E+00 0.  1.
          3    1    3    3  501    0 -0.34077560900E+02 -0.14569159405E+03  0.16398677579E+03  0.22198870099E+03  0.00000000000E+00 0.  1.
         21    1    1    2  502  501  0.29395069677E+02  0.11669262081E+02  0.24478118177E+02  0.39992750197E+02  0.00000000000E+00 0. -1.
<scales pt_clust_4="550.00000" pt_clust_5="550.00000" pt_clust_6="31.62660"></scales>
<mgrwt>
<rscale>  0 0.30000000E+03</rscale>
<asrwt>  1 0.31626600E+02</asrwt>
<pdfrwt beam="1">  1        1 0.88761698E+00 0.30000000E+03</pdfrwt>
<pdfrwt beam="2">0</pdfrwt>
<totfact> 0.15919688E-04</totfact>
</mgrwt>
<clustering>
<clus scale="   31.627">  1  6  2 -1</clus>
<clus scale="  474.838">  4  5 -1 -1</clus>
<clus scale="  300.000">  1  4  2 -1</clus>
</clustering>
</event>
<event>
 6    1  0.9843879E-012  0.3000000E+03  0.7818608E-02  0.1093470E+00
          1   -1    0    0  502    0  0.00000000000E+00  0.00000000000E+00  0.25231291272E+03  0.25231291272E+03  0.00000000000E+00 0.  1.
         13   -1    0    0    0    0 -0.00000000000E+00 -0.00000000000E+00 -0.27500000000E+03  0.27500000000E+03  0.00000000000E+00 0.  1.
    9000005    2    1    2  501    0  0.12601125099E+02 -0.51500189927E+02 -0.22521672019E+02  0.47429324393E+03  0.47078211267E+03 0.  0.
         13    1    3    3    0    0 -0.14160041472E+03 -0.24609266795E+02 -0.19443977458E+03  0.24179147917E+03  0.00000000000E+00 0.  1.
          3    1    3    3  501    0  0.15420153982E+03 -0.26890923132E+02  0.17191810256E+03  0.23250176476E+03  0.00000000000E+00 0.  1.
         21    1    1    2  502  501 -0.12601125099E+02  0.51500189927E+02 -0.16541526340E+00  0.53019668789E+02  0.00000000000E+00 0.  1.
<scales pt_clust_4="550.00000" pt_clust_5="550.00000" pt_clust_6="53.01941"></scales>
<mgrwt>
<rscale>  0 0.30000000E+03</rscale>
<asrwt>  1 0.53019411E+02</asrwt>
<pdfrwt beam="1">  1        1 0.91750150E+00 0.30000000E+03</pdfrwt>
<pdfrwt beam="2">0</pdfrwt>
<totfact> 0.44043990E-05</totfact>
</mgrwt>
<clustering>
<clus scale="   53.019">  1  6  2 -1</clus>
<clus scale="  470.782">  4  5 -1 -1</clus>
<clus scale="  300.000">  1  4  2 -1</clus>
</clustering>
</event>
<event>
 6    1  0.9843879E-012  0.3000000E+03  0.7818608E-02  0.1093470E+00
          1   -1    0    0  502    0  0.00000000000E+00  0.00000000000E+00  0.25926023327E+03  0.25926023327E+03  0.00000000000E+00 0.  1.
         13   -1    0    0    0    0 -0.00000000000E+00 -0.00000000000E+00 -0.27500000000E+03  0.27500000000E+03  0.00000000000E+00 0.  1.
    9000005    2    1    2  501    0 -0.24408960009E+01  0.33443249199E+02 -0.30064497173E+02  0.49779645957E+03  0.49575501236E+03 0.  0.
         13    1    3    3    0    0 -0.48394201054E+02 -0.18958791923E+03  0.11580294237E+03  0.22736732235E+03  0.00000000000E+00 0.  1.
          1    1    3    3  501    0  0.45953305053E+02  0.22303116843E+03 -0.14586743954E+03  0.27042913721E+03  0.00000000000E+00 0.  1.
         21    1    1    2  502  501  0.24408960009E+01 -0.33443249199E+02  0.14324730445E+02  0.36463773702E+02  0.00000000000E+00 0. -1.
<scales pt_clust_4="550.00000" pt_clust_5="550.00000" pt_clust_6="33.53221"></scales>
<mgrwt>
<rscale>  0 0.30000000E+03</rscale>
<asrwt>  1 0.33532207E+02</asrwt>
<pdfrwt beam="1">  1        1 0.94276448E+00 0.30000000E+03</pdfrwt>
<pdfrwt beam="2">0</pdfrwt>
<totfact> 0.17266667E-05</totfact>
</mgrwt>
<clustering>
<clus scale="   33.532">  1  6  2 -1</clus>
<clus scale="  495.755">  4  5 -1 -1</clus>
<clus scale="  300.000">  1  4  2 -1</clus>
</clustering>
</event>
<event>
 6    1  0.9843879E-012  0.3000000E+03  0.7818608E-02  0.1093470E+00
          1   -1    0    0  502    0  0.00000000000E+00  0.00000000000E+00  0.24320077668E+03  0.24320077668E+03  0.00000000000E+00 0.  1.
         13   -1    0    0    0    0 -0.00000000000E+00 -0.00000000000E+00 -0.27500000000E+03  0.27500000000E+03  0.00000000000E+00 0.  1.
    9000005    2    1    2  501    0 -0.34178423047E+02  0.13257623242E+02 -0.49858008020E+02  0.47733454513E+03  0.47330594528E+03 0.  0.
         13    1    3    3    0    0 -0.83639234493E+02 -0.15050386065E+02 -0.25271674586E+03  0.26662293469E+03  0.00000000000E+00 0.  1.
          3    1    3    3  501    0  0.49460811446E+02  0.28308009308E+02  0.20285873784E+03  0.21071161044E+03  0.00000000000E+00 0.  1.
         21    1    1    2  502  501  0.34178423047E+02 -0.13257623242E+02  0.18058784704E+02  0.40866231549E+02  0.00000000000E+00 0.  1.
<scales pt_clust_4="550.00000" pt_clust_5="550.00000" pt_clust_6="36.65964"></scales>
<mgrwt>
<rscale>  0 0.30000000E+03</rscale>
<asrwt>  1 0.36659640E+02</asrwt>
<pdfrwt beam="1">  1        1 0.88436646E+00 0.30000000E+03</pdfrwt>
<pdfrwt beam="2">0</pdfrwt>
<totfact> 0.17163435E-04</totfact>
</mgrwt>
<clustering>
<clus scale="   36.660">  1  6  2 -1</clus>
<clus scale="  473.306">  4  5 -1 -1</clus>
<clus scale="  300.000">  1  4  2 -1</clus>
</clustering>
</event>
<event>
 6    1  0.9843879E-012  0.3000000E+03  0.7818608E-02  0.1093470E+00
          1   -1    0    0  502    0  0.00000000000E+00  0.00000000000E+00  0.22023472491E+03  0.22023472491E+03  0.00000000000E+00 0.  1.
         13   -1    0    0    0    0 -0.00000000000E+00 -0.00000000000E+00 -0.27500000000E+03  0.27500000000E+03  0.00000000000E+00 0.  1.
    9000005    2    1    2  501    0 -0.25477318630E+02 -0.18219897766E+02 -0.44472206185E+02  0.46226495532E+03  0.45905343191E+03 0.  0.
         13    1    3    3    0    0 -0.21495406282E+03 -0.22636738695E+01 -0.13272143373E+03  0.25263679921E+03  0.00000000000E+00 0.  1.
          1    1    3    3  501    0  0.18947674419E+03 -0.15956223896E+02  0.88249227545E+02  0.20962815611E+03  0.00000000000E+00 0.  1.
         21    1    1    2  502  501  0.25477318630E+02  0.18219897766E+02 -0.10293068909E+02  0.32969769589E+02  0.00000000000E+00 0.  1.
<scales pt_clust_4="550.00000" pt_clust_5="550.00000" pt_clust_6="31.32187"></scales>
<mgrwt>
<rscale>  0 0.30000000E+03</rscale>
<asrwt>  1 0.31321868E+02</asrwt>
<pdfrwt beam="1">  1        1 0.80085355E+00 0.30000000E+03</pdfrwt>
<pdfrwt beam="2">0</pdfrwt>
<totfact> 0.10440605E-03</totfact>
</mgrwt>
<clustering>
<clus scale="   31.322">  1  6  2 -1</clus>
<clus scale="  459.053">  4  5 -1 -1</clus>
<clus scale="  300.000">  1  4  2 -1</clus>
</clustering>
</event>
<event>
 6    1  0.9843879E-012  0.3000000E+03  0.7818608E-02  0.1093470E+00
          1   -1    0    0  502    0  0.00000000000E+00  0.00000000000E+00  0.24077555203E+03  0.24077555203E+03  0.00000000000E+00 0.  1.
         13   -1    0    0    0    0 -0.00000000000E+00 -0.00000000000E+00 -0.27500000000E+03  0.27500000000E+03  0.00000000000E+00 0.  1.
    9000005    2    1    2  501    0  0.14438038836E+02 -0.31602920101E+02 -0.68703124504E+02  0.46682679658E+03  0.46043450910E+03 0.  0.
         13    1    3    3    0    0  0.19470979471E+03  0.65258270616E+02 -0.14175880341E+03  0.24953177029E+03  0.00000000000E+00 0.  1.
          3    1    3    3  501    0 -0.18027175587E+03 -0.96861190717E+02  0.73055678910E+02  0.21729502629E+03  0.00000000000E+00 0.  1.
         21    1    1    2  502  501 -0.14438038836E+02  0.31602920101E+02  0.34478676538E+02  0.48948755450E+02  0.00000000000E+00 0.  1.
<scales pt_clust_4="550.00000" pt_clust_5="550.00000" pt_clust_6="34.74481"></scales>
<mgrwt>
<rscale>  0 0.30000000E+03</rscale>
<asrwt>  1 0.34744806E+02</asrwt>
<pdfrwt beam="1">  1        1 0.87554746E+00 0.30000000E+03</pdfrwt>
<pdfrwt beam="2">0</pdfrwt>
<totfact> 0.22223537E-04</totfact>
</mgrwt>
<clustering>
<clus scale="   34.745">  1  6  2 -1</clus>
<clus scale="  460.435">  4  5 -1 -1</clus>
<clus scale="  300.000">  1  4  2 -1</clus>
</clustering>
</event>
<event>
 6    1  0.9843879E-012  0.3000000E+03  0.7818608E-02  0.1093470E+00
          1   -1    0    0  502    0  0.00000000000E+00  0.00000000000E+00  0.24337833830E+03  0.24337833830E+03  0.00000000000E+00 0.  1.
         13   -1    0    0    0    0 -0.00000000000E+00 -0.00000000000E+00 -0.27500000000E+03  0.27500000000E+03  0.00000000000E+00 0.  1.
    9000005    2    1    2  501    0 -0.55027185502E+02  0.62560020999E+01 -0.19985142947E+02  0.46178737370E+03  0.45801860646E+03 0.  0.
         13    1    3    3    0    0 -0.10269078378E+03  0.13483153190E+03  0.16164313673E+03  0.23420811839E+03  0.00000000000E+00 0.  1.
          3    1    3    3  501    0  0.47663598280E+02 -0.12857552980E+03 -0.18162827968E+03  0.22757925530E+03  0.00000000000E+00 0.  1.
         21    1    1    2  502  501  0.55027185502E+02 -0.62560020999E+01 -0.11636518749E+02  0.56590964607E+02  0.00000000000E+00 0.  1.
<scales pt_clust_4="550.00000" pt_clust_5="550.00000" pt_clust_6="55.38169"></scales>
<mgrwt>
<rscale>  0 0.30000000E+03</rscale>
<asrwt>  1 0.55381692E+02</asrwt>
<pdfrwt beam="1">  1        1 0.88501214E+00 0.30000000E+03</pdfrwt>
<pdfrwt beam="2">0</pdfrwt>
<totfact> 0.15623295E-04</totfact>
</mgrwt>
<clustering>
<clus scale="   55.382">  1  6  2 -1</clus>
<clus scale="  458.019">  4  5 -1 -1</clus>
<clus scale="  300.000">  1  4  2 -1</clus>
</clustering>
</event>
<event>
 6    1  0.9843879E-012  0.3000000E+03  0.7818608E-02  0.1093470E+00
          1   -1    0    0  502    0  0.00000000000E+00  0.00000000000E+00  0.24892954436E+03  0.24892954436E+03  0.00000000000E+00 0.  1.
         13   -1    0    0    0    0 -0.00000000000E+00 -0.00000000000E+00 -0.27500000000E+03  0.27500000000E+03  0.00000000000E+00 0.  1.
    9000005    2    1    2  501    0  0.19175518562E+02 -0.23654323221E+02 -0.32513425469E+02  0.49280496598E+03  0.49078751425E+03 0.  0.
         13    1    3    3    0    0  0.25110903667E+03  0.31735002147E+02 -0.23199370337E+02  0.25416740437E+03  0.00000000000E+00 0.  1.
          3    1    3    3  501    0 -0.23193351811E+03 -0.55389325368E+02 -0.93140551311E+01  0.23863756161E+03  0.00000000000E+00 0.  1.
         21    1    1    2  502  501 -0.19175518562E+02  0.23654323221E+02  0.64429698300E+01  0.31124578381E+02  0.00000000000E+00 0. -1.
<scales pt_clust_4="550.00000" pt_clust_5="550.00000" pt_clust_6="30.45041"></scales>
<mgrwt>
<rscale>  0 0.30000000E+03</rscale>
<asrwt>  1 0.30450411E+02</asrwt>
<pdfrwt beam="1">  1        1 0.90519834E+00 0.30000000E+03</pdfrwt>
<pdfrwt beam="2">0</pdfrwt>
<totfact> 0.94115396E-05</totfact>
</mgrwt>
<clustering>
<clus scale="   30.450">  1  6  2 -1</clus>
<clus scale="  490.788">  4  5 -1 -1</clus>
<clus scale="  300.000">  1  4  2 -1</clus>
</clustering>
</event>
<event>
 6    1  0.9843879E-012  0.3000000E+03  0.7818608E-02  0.1093470E+00
          1   -1    0    0  502    0  0.00000000000E+00  0.00000000000E+00  0.22203838567E+03  0.22203838567E+03  0.00000000000E+00 0.  1.
         13   -1    0    0    0    0 -0.00000000000E+00 -0.00000000000E+00 -0.27500000000E+03  0.27500000000E+03  0.00000000000E+00 0.  1.
    9000005    2    1    2  501    0  0.29115113343E+02  0.11136479437E+02 -0.57587644654E+02  0.46552471949E+03  0.46089610179E+03 0.  0.
         13    1    3    3    0    0 -0.16159931692E+03  0.15821318933E+02 -0.17721049788E+03  0.24035019019E+03  0.00000000000E+00 0.  1.
          1    1    3    3  501    0  0.19071443027E+03 -0.46848394963E+01  0.11962285323E+03  0.22517452930E+03  0.00000000000E+00 0.  1.
         21    1    1    2  502  501 -0.29115113343E+02 -0.11136479437E+02  0.46260303187E+01  0.31513666174E+02  0.00000000000E+00 0. -1.
<scales pt_clust_4="550.00000" pt_clust_5="550.00000" pt_clust_6="31.17228"></scales>
<mgrwt>
<rscale>  0 0.30000000E+03</rscale>
<asrwt>  1 0.31172279E+02</asrwt>
<pdfrwt beam="1">  1        1 0.80741231E+00 0.30000000E+03</pdfrwt>
<pdfrwt beam="2">0</pdfrwt>
<totfact> 0.93354106E-04</totfact>
</mgrwt>
<clustering>
<clus scale="   31.172">  1  6  2 -1</clus>
<clus scale="  460.896">  4  5 -1 -1</clus>
<clus scale="  300.000">  1  4  2 -1</clus>
</clustering>
</event>
<event>
 6    1  0.9843879E-012  0.3000000E+03  0.7818608E-02  0.1093470E+00
          1   -1    0    0  502    0  0.00000000000E+00  0.00000000000E+00  0.25431529369E+03  0.25431529369E+03  0.00000000000E+00 0.  1.
         13   -1    0    0    0    0 -0.00000000000E+00 -0.00000000000E+00 -0.27500000000E+03  0.27500000000E+03  0.00000000000E+00 0.  1.
    9000005    2    1    2  501    0  0.59143514693E+01  0.34840233008E+02 -0.52725298284E+02  0.48161392135E+03  0.47741301906E+03 0.  0.
         13    1    3    3    0    0  0.28331046748E+02  0.22591641629E+03 -0.14324262746E+03  0.26899688786E+03  0.00000000000E+00 0.  1.
          1    1    3    3  501    0 -0.22416695279E+02 -0.19107618328E+03  0.90517329174E+02  0.21261703348E+03  0.00000000000E+00 0.  1.
         21    1    1    2  502  501 -0.59143514693E+01 -0.34840233008E+02  0.32040591971E+02  0.47701372341E+02  0.00000000000E+00 0. -1.
<scales pt_clust_4="550.00000" pt_clust_5="550.00000" pt_clust_6="35.33867"></scales>
<mgrwt>
<rscale>  0 0.30000000E+03</rscale>
<asrwt>  1 0.35338667E+02</asrwt>
<pdfrwt beam="1">  1        1 0.92478289E+00 0.30000000E+03</pdfrwt>
<pdfrwt beam="2">0</pdfrwt>
<totfact> 0.33074849E-05</totfact>
</mgrwt>
<clustering>
<clus scale="   35.339">  1  6  2 -1</clus>
<clus scale="  477.413">  4  5 -1 -1</clus>
<clus scale="  300.000">  1  4  2 -1</clus>
</clustering>
</event>
<event>
 6    1  0.9843879E-012  0.3000000E+03  0.7818608E-02  0.1093470E+00
          1   -1    0    0  502    0  0.00000000000E+00  0.00000000000E+00  0.22910908800E+03  0.22910908800E+03  0.00000000000E+00 0.  1.
         13   -1    0    0    0    0 -0.00000000000E+00 -0.00000000000E+00 -0.27500000000E+03  0.27500000000E+03  0.00000000000E+00 0.  1.
    9000005    2    1    2  501    0 -0.33210455335E+02  0.54907412224E+01 -0.59291298646E+02  0.46787853536E+03  0.46288420061E+03 0.  0.
         13    1    3    3    0    0 -0.40220797946E+02  0.67015728069E+02 -0.25285079435E+03  0.26465514278E+03  0.00000000000E+00 0.  1.
          1    1    3    3  501    0  0.70103426117E+01 -0.61524986847E+02  0.19355949571E+03  0.20322339257E+03  0.00000000000E+00 0.  1.
         21    1    1    2  502  501  0.33210455335E+02 -0.54907412224E+01  0.13400386650E+02  0.36230552647E+02  0.00000000000E+00 0. -1.
<scales pt_clust_4="550.00000" pt_clust_5="550.00000" pt_clust_6="33.66129"></scales>
<mgrwt>
<rscale>  0 0.30000000E+03</rscale>
<asrwt>  1 0.33661292E+02</asrwt>
<pdfrwt beam="1">  1        1 0.83312396E+00 0.30000000E+03</pdfrwt>
<pdfrwt beam="2">0</pdfrwt>
<totfact> 0.56265783E-04</totfact>
</mgrwt>
<clustering>
<clus scale="   33.661">  1  6  2 -1</clus>
<clus scale="  462.884">  4  5 -1 -1</clus>
<clus scale="  300.000">  1  4  2 -1</clus>
</clustering>
</event>
<event>
 6    1  0.9843879E-012  0.3000000E+03  0.7818608E-02  0.1093470E+00
          1   -1    0    0  502    0  0.00000000000E+00  0.00000000000E+00  0.23266601768E+03  0.23266601768E+03  0.00000000000E+00 0.  1.
         13   -1    0    0    0    0 -0.00000000000E+00 -0.00000000000E+00 -0.27500000000E+03  0.27500000000E+03  0.00000000000E+00 0.  1.
    9000005    2    1    2  501    0  0.21887106154E+02  0.23314236427E+02 -0.50335886642E+02  0.47470195378E+03  0.47094123243E+03 0.  0.
         13    1    3    3    0    0  0.22123699898E+03 -0.86555637633E+02  0.14553192318E+02  0.23801151975E+03  0.00000000000E+00 0.  1.
          3    1    3    3  501    0 -0.19934989283E+03  0.10986987406E+03 -0.64889078960E+02  0.23669043404E+03  0.00000000000E+00 0.  1.
         21    1    1    2  502  501 -0.21887106154E+02 -0.23314236427E+02  0.80019043270E+01  0.32964063900E+02  0.00000000000E+00 0. -1.
<scales pt_clust_4="550.00000" pt_clust_5="550.00000" pt_clust_6="31.97810"></scales>
<mgrwt>
<rscale>  0 0.30000000E+03</rscale>
<asrwt>  1 0.31978102E+02</asrwt>
<pdfrwt beam="1">  1        1 0.84605825E+00 0.30000000E+03</pdfrwt>
<pdfrwt beam="2">0</pdfrwt>
<totfact> 0.44981816E-04</totfact>
</mgrwt>
<clustering>
<clus scale="   31.978">  1  6  2 -1</clus>
<clus scale="  470.941">  4  5 -1 -1</clus>
<clus scale="  300.000">  1  4  2 -1</clus>
</clustering>
</event>
<event>
 6    1  0.9843879E-012  0.3000000E+03  0.7818608E-02  0.1093470E+00
          1   -1    0    0  502    0  0.00000000000E+00  0.00000000000E+00  0.23418485705E+03  0.23418485705E+03  0.00000000000E+00 0.  1.
         13   -1    0    0    0    0 -0.00000000000E+00 -0.00000000000E+00 -0.27500000000E+03  0.27500000000E+03  0.00000000000E+00 0.  1.
    9000005    2    1    2  501    0 -0.30529953398E+02  0.13089977201E+01 -0.66964834380E+02  0.46896548496E+03  0.46315283170E+03 0.  0.
         13    1    3    3    0    0 -0.16313574666E+03 -0.16509231991E+03  0.32014906742E+02  0.23429404642E+03  0.00000000000E+00 0.  1.
          3    1    3    3  501    0  0.13260579326E+03  0.16640131763E+03 -0.98979741123E+02  0.23467143855E+03  0.00000000000E+00 0.  1.
         21    1    1    2  502  501  0.30529953398E+02 -0.13089977201E+01  0.26149691434E+02  0.40219372093E+02  0.00000000000E+00 0.  1.
<scales pt_clust_4="550.00000" pt_clust_5="550.00000" pt_clust_6="30.55800"></scales>
<mgrwt>
<rscale>  0 0.30000000E+03</rscale>
<asrwt>  1 0.30558003E+02</asrwt>
<pdfrwt beam="1">  1        1 0.85158130E+00 0.30000000E+03</pdfrwt>
<pdfrwt beam="2">0</pdfrwt>
<totfact> 0.40344362E-04</totfact>
</mgrwt>
<clustering>
<clus scale="   30.558">  1  6  2 -1</clus>
<clus scale="  463.153">  4  5 -1 -1</clus>
<clus scale="  300.000">  1  4  2 -1</clus>
</clustering>
</event>
<event>
 6    1  0.9843879E-012  0.3000000E+03  0.7818608E-02  0.1093470E+00
          1   -1    0    0  502    0  0.00000000000E+00  0.00000000000E+00  0.22359476978E+03  0.22359476978E+03  0.00000000000E+00 0.  1.
         13   -1    0    0    0    0 -0.00000000000E+00 -0.00000000000E+00 -0.27500000000E+03  0.27500000000E+03  0.00000000000E+00 0.  1.
    9000005    2    1    2  501    0  0.79626163143E+01  0.33741240614E+02 -0.62914468329E+02  0.46206619003E+03  0.45644830930E+03 0.  0.
         13    1    3    3    0    0 -0.14990439093E+03  0.98415844725E+02 -0.18083861148E+03  0.25467549610E+03  0.00000000000E+00 0.  1.
          3    1    3    3  501    0  0.15786700724E+03 -0.64674604112E+02  0.11792414315E+03  0.20739069393E+03  0.00000000000E+00 0.  1.
         21    1    1    2  502  501 -0.79626163143E+01 -0.33741240614E+02  0.11509238109E+02  0.36528579750E+02  0.00000000000E+00 0. -1.
<scales pt_clust_4="550.00000" pt_clust_5="550.00000" pt_clust_6="34.66806"></scales>
<mgrwt>
<rscale>  0 0.30000000E+03</rscale>
<asrwt>  1 0.34668063E+02</asrwt>
<pdfrwt beam="1">  1        1 0.81307189E+00 0.30000000E+03</pdfrwt>
<pdfrwt beam="2">0</pdfrwt>
<totfact> 0.82636793E-04</totfact>
</mgrwt>
<clustering>
<clus scale="   34.668">  1  6  2 -1</clus>
<clus scale="  456.448">  4  5 -1 -1</clus>
<clus scale="  300.000">  1  4  2 -1</clus>
</clustering>
</event>
<event>
 6    1  0.9843879E-012  0.3000000E+03  0.7818608E-02  0.1093470E+00
          1   -1    0    0  502    0  0.00000000000E+00  0.00000000000E+00  0.23509750136E+03  0.23509750136E+03  0.00000000000E+00 0.  1.
         13   -1    0    0    0    0 -0.00000000000E+00 -0.00000000000E+00 -0.27500000000E+03  0.27500000000E+03  0.00000000000E+00 0.  1.
    9000005    2    1    2  501    0 -0.54559084469E+01  0.35961616197E+02 -0.48359515745E+02  0.47275414968E+03  0.46886548017E+03 0.  0.
         13    1    3    3    0    0  0.16467306069E+03  0.10315330979E+03  0.11645473121E+03  0.22653813511E+03  0.00000000000E+00 0.  1.
          1    1    3    3  501    0 -0.17012896914E+03 -0.67191693597E+02 -0.16481424696E+03  0.24621601457E+03  0.00000000000E+00 0.  1.
         21    1    1    2  502  501  0.54559084469E+01 -0.35961616197E+02  0.84570171053E+01  0.37343351681E+02  0.00000000000E+00 0. -1.
<scales pt_clust_4="550.00000" pt_clust_5="550.00000" pt_clust_6="36.37313"></scales>
<mgrwt>
<rscale>  0 0.30000000E+03</rscale>
<asrwt>  1 0.36373133E+02</asrwt>
<pdfrwt beam="1">  1        1 0.85490000E+00 0.30000000E+03</pdfrwt>
<pdfrwt beam="2">0</pdfrwt>
<totfact> 0.36255875E-04</totfact>
</mgrwt>
<clustering>
<clus scale="   36.373">  1  6  2 -1</clus>
<clus scale="  468.865">  4  5 -1 -1</clus>
<clus scale="  300.000">  1  4  2 -1</clus>
</clustering>
</event>
<event>
 6    1  0.9843879E-012  0.3000000E+03  0.7818608E-02  0.1093470E+00
          1   -1    0    0  502    0  0.00000000000E+00  0.00000000000E+00  0.23042081655E+03  0.23042081655E+03  0.00000000000E+00 0.  1.
         13   -1    0    0    0    0 -0.00000000000E+00 -0.00000000000E+00 -0.27500000000E+03  0.27500000000E+03  0.00000000000E+00 0.  1.
    9000005    2    1    2  501    0  0.69509900830E+01  0.30038684744E+02 -0.64360184622E+02  0.46878849678E+03  0.46332470526E+03 0.  0.
         13    1    3    3    0    0  0.14442074746E+03  0.19636317998E+03 -0.67701300632E+02  0.25298086262E+03  0.00000000000E+00 0.  1.
          1    1    3    3  501    0 -0.13746975737E+03 -0.16632449523E+03  0.33411160095E+01  0.21580763416E+03  0.00000000000E+00 0.  1.
         21    1    1    2  502  501 -0.69509900830E+01 -0.30038684744E+02  0.19781001174E+02  0.36632319770E+02  0.00000000000E+00 0. -1.
<scales pt_clust_4="550.00000" pt_clust_5="550.00000" pt_clust_6="30.83243"></scales>
<mgrwt>
<rscale>  0 0.30000000E+03</rscale>
<asrwt>  1 0.30832432E+02</asrwt>
<pdfrwt beam="1">  1        1 0.83789388E+00 0.30000000E+03</pdfrwt>
<pdfrwt beam="2">0</pdfrwt>
<totfact> 0.52791047E-04</totfact>
</mgrwt>
<clustering>
<clus scale="   30.832">  1  6  2 -1</clus>
<clus scale="  463.325">  4  5 -1 -1</clus>
<clus scale="  300.000">  1  4  2 -1</clus>
</clustering>
</event>
<event>
 6    1  0.9843879E-012  0.3000000E+03  0.7818608E-02  0.1093470E+00
          1   -1    0    0  502    0  0.00000000000E+00  0.00000000000E+00  0.23735532852E+03  0.23735532852E+03  0.00000000000E+00 0.  1.
         13   -1    0    0    0    0 -0.00000000000E+00 -0.00000000000E+00 -0.27500000000E+03  0.27500000000E+03  0.00000000000E+00 0.  1.
    9000005    2    1    2  501    0  0.33134881010E+02 -0.71575149894E+01 -0.40021391568E+02  0.47837299254E+03  0.47548907227E+03 0.  0.
         13    1    3    3    0    0 -0.73756235593E+02 -0.83464712848E+02  0.18609561357E+03  0.21688226753E+03  0.00000000000E+00 0.  1.
          3    1    3    3  501    0  0.10689111660E+03  0.76307197858E+02 -0.22611700513E+03  0.26149072501E+03  0.00000000000E+00 0.  1.
         21    1    1    2  502  501 -0.33134881010E+02  0.71575149894E+01  0.23767200853E+01  0.33982335981E+02  0.00000000000E+00 0.  1.
<scales pt_clust_4="550.00000" pt_clust_5="550.00000" pt_clust_6="33.89912"></scales>
<mgrwt>
<rscale>  0 0.30000000E+03</rscale>
<asrwt>  1 0.33899120E+02</asrwt>
<pdfrwt beam="1">  1        1 0.86311029E+00 0.30000000E+03</pdfrwt>
<pdfrwt beam="2">0</pdfrwt>
<totfact> 0.30125241E-04</totfact>
</mgrwt>
<clustering>
<clus scale="   33.899">  1  6  2 -1</clus>
<clus scale="  475.489">  4  5 -1 -1</clus>
<clus scale="  300.000">  1  4  2 -1</clus>
</clustering>
</event>
<event>
 6    1  0.9843879E-012  0.3000000E+03  0.7818608E-02  0.1093470E+00
          1   -1    0    0  502    0  0.00000000000E+00  0.00000000000E+00  0.22976311494E+03  0.22976311494E+03  0.00000000000E+00 0.  1.
         13   -1    0    0    0    0 -0.00000000000E+00 -0.00000000000E+00 -0.27500000000E+03  0.27500000000E+03  0.00000000000E+00 0.  1.
    9000005    2    1    2  501    0 -0.26479233274E+02  0.17718728098E+02 -0.43639276227E+02  0.47286240219E+03  0.46976521993E+03 0.  0.
         13    1    3    3    0    0 -0.16748471179E+03  0.63707226568E+02 -0.19231419832E+03  0.26285830837E+03  0.00000000000E+00 0.  1.
          1    1    3    3  501    0  0.14100547851E+03 -0.45988498470E+02  0.14867492210E+03  0.21000409382E+03  0.00000000000E+00 0.  1.
         21    1    1    2  502  501  0.26479233274E+02 -0.17718728098E+02 -0.15976088284E+01  0.31900712753E+02  0.00000000000E+00 0. -1.
<scales pt_clust_4="550.00000" pt_clust_5="550.00000" pt_clust_6="31.86068"></scales>
<mgrwt>
<rscale>  0 0.30000000E+03</rscale>
<asrwt>  1 0.31860683E+02</asrwt>
<pdfrwt beam="1">  1        1 0.83550224E+00 0.30000000E+03</pdfrwt>
<pdfrwt beam="2">0</pdfrwt>
<totfact> 0.54604825E-04</totfact>
</mgrwt>
<clustering>
<clus scale="   31.861">  1  6  2 -1</clus>
<clus scale="  469.765">  4  5 -1 -1</clus>
<clus scale="  300.000">  1  4  2 -1</clus>
</clustering>
</event>
<event>
 6    1  0.9843879E-012  0.3000000E+03  0.7818608E-02  0.1093470E+00
          1   -1    0    0  502    0  0.00000000000E+00  0.00000000000E+00  0.22763415613E+03  0.22763415613E+03  0.00000000000E+00 0.  1.
         13   -1    0    0    0    0 -0.00000000000E+00 -0.00000000000E+00 -0.27500000000E+03  0.27500000000E+03  0.00000000000E+00 0.  1.
    9000005    2    1    2  501    0  0.19625002368E+02 -0.25586158259E+02 -0.37142973164E+02  0.46880666291E+03  0.46621914860E+03 0.  0.
         13    1    3    3    0    0 -0.39476891180E+02  0.14022686549E+03 -0.18740364354E+03  0.23736496025E+03  0.00000000000E+00 0.  1.
          1    1    3    3  501    0  0.59101893549E+02 -0.16581302375E+03  0.15026067038E+03  0.23144170266E+03  0.00000000000E+00 0.  1.
         21    1    1    2  502  501 -0.19625002368E+02  0.25586158259E+02 -0.10222870704E+02  0.33827493224E+02  0.00000000000E+00 0.  1.
<scales pt_clust_4="550.00000" pt_clust_5="550.00000" pt_clust_6="32.24583"></scales>
<mgrwt>
<rscale>  0 0.30000000E+03</rscale>
<asrwt>  1 0.32245825E+02</asrwt>
<pdfrwt beam="1">  1        1 0.82776057E+00 0.30000000E+03</pdfrwt>
<pdfrwt beam="2">0</pdfrwt>
<totfact> 0.62710462E-04</totfact>
</mgrwt>
<clustering>
<clus scale="   32.246">  1  6  2 -1</clus>
<clus scale="  466.219">  4  5 -1 -1</clus>
<clus scale="  300.000">  1  4  2 -1</clus>
</clustering>
</event>
<event>
 6    1  0.9843879E-012  0.3000000E+03  0.7818608E-02  0.1093470E+00
          1   -1    0    0  502    0  0.00000000000E+00  0.00000000000E+00  0.24963585310E+03  0.24963585310E+03  0.00000000000E+00 0.  1.
         13   -1    0    0    0    0 -0.00000000000E+00 -0.00000000000E+00 -0.27500000000E+03  0.27500000000E+03  0.00000000000E+00 0.  1.
    9000005    2    1    2  501    0  0.45259140324E+02  0.35732100219E+02 -0.13552171217E+02  0.46577418868E+03  0.46199216522E+03 0.  0.
         13    1    3    3    0    0 -0.15666065360E+03 -0.61652281796E+02  0.11823858571E+03  0.20572779926E+03  0.00000000000E+00 0.  1.
          1    1    3    3  501    0  0.20191979392E+03  0.97384382016E+02 -0.13179075692E+03  0.26004638942E+03  0.00000000000E+00 0.  1.
         21    1    1    2  502  501 -0.45259140324E+02 -0.35732100219E+02 -0.11811975685E+02  0.58861664422E+02  0.00000000000E+00 0. -1.
<scales pt_clust_4="550.00000" pt_clust_5="550.00000" pt_clust_6="57.66434"></scales>
<mgrwt>
<rscale>  0 0.30000000E+03</rscale>
<asrwt>  1 0.57664340E+02</asrwt>
<pdfrwt beam="1">  1        1 0.90776674E+00 0.30000000E+03</pdfrwt>
<pdfrwt beam="2">0</pdfrwt>
<totfact> 0.74124575E-05</totfact>
</mgrwt>
<clustering>
<clus scale="   57.664">  1  6  2 -1</clus>
<clus scale="  461.992">  4  5 -1 -1</clus>
<clus scale="  300.000">  1  4  2 -1</clus>
</clustering>
</event>
<event>
 6    1  0.9843879E-012  0.3000000E+03  0.7818608E-02  0.1093470E+00
          1   -1    0    0  502    0  0.00000000000E+00  0.00000000000E+00  0.22421569230E+03  0.22421569230E+03  0.00000000000E+00 0.  1.
         13   -1    0    0    0    0 -0.00000000000E+00 -0.00000000000E+00 -0.27500000000E+03  0.27500000000E+03  0.00000000000E+00 0.  1.
    9000005    2    1    2  501    0  0.32092376110E+02 -0.75451007132E+01 -0.35992543213E+02  0.46308197611E+03  0.46050255621E+03 0.  0.
         13    1    3    3    0    0 -0.56098622541E+02  0.21069550000E+03 -0.60901422271E+02  0.22638160792E+03  0.00000000000E+00 0.  1.
          3    1    3    3  501    0  0.88190998651E+02 -0.21824060071E+03  0.24908879057E+02  0.23670036818E+03  0.00000000000E+00 0.  1.
         21    1    1    2  502  501 -0.32092376110E+02  0.75451007132E+01 -0.14791764487E+02  0.36133716192E+02  0.00000000000E+00 0.  1.
<scales pt_clust_4="550.00000" pt_clust_5="550.00000" pt_clust_6="32.96741"></scales>
<mgrwt>
<rscale>  0 0.30000000E+03</rscale>
<asrwt>  1 0.32967412E+02</asrwt>
<pdfrwt beam="1">  1        1 0.81532979E+00 0.30000000E+03</pdfrwt>
<pdfrwt beam="2">0</pdfrwt>
<totfact> 0.80011630E-04</totfact>
</mgrwt>
<clustering>
<clus scale="   32.967">  1  6  2 -1</clus>
<clus scale="  460.503">  4  5 -1 -1</clus>
<clus scale="  300.000">  1  4  2 -1</clus>
</clustering>
</event>
<event>
 6    1  0.9843879E-012  0.3000000E+03  0.7818608E-02  0.1093470E+00
          1   -1    0    0  502    0  0.00000000000E+00  0.00000000000E+00  0.23145336652E+03  0.23145336652E+03  0.00000000000E+00 0.  1.
         13   -1    0    0    0    0 -0.00000000000E+00 -0.00000000000E+00 -0.27500000000E+03  0.27500000000E+03  0.00000000000E+00 0.  1.
    9000005    2    1    2  501    0  0.27955857675E+02  0.14092225531E+02 -0.52300084406E+02  0.47394577199E+03  0.47000976071E+03 0.  0.
         13    1    3    3    0    0 -0.10891828869E+03  0.17186801289E+03 -0.14044310523E+03  0.24723687684E+03  0.00000000000E+00 0.  1.
          1    1    3    3  501    0  0.13687414636E+03 -0.15777578736E+03  0.88143020826E+02  0.22670889515E+03  0.00000000000E+00 0.  1.
         21    1    1    2  502  501 -0.27955857675E+02 -0.14092225531E+02  0.87534509228E+01  0.32507594526E+02  0.00000000000E+00 0. -1.
<scales pt_clust_4="550.00000" pt_clust_5="550.00000" pt_clust_6="31.30688"></scales>
<mgrwt>
<rscale>  0 0.30000000E+03</rscale>
<asrwt>  1 0.31306881E+02</asrwt>
<pdfrwt beam="1">  1        1 0.84164861E+00 0.30000000E+03</pdfrwt>
<pdfrwt beam="2">0</pdfrwt>
<totfact> 0.49263513E-04</totfact>
</mgrwt>
<clustering>
<clus scale="   31.307">  1  6  2 -1</clus>
<clus scale="  470.010">  4  5 -1 -1</clus>
<clus scale="  300.000">  1  4  2 -1</clus>
</clustering>
</event>
<event>
 6    1  0.9843879E-012  0.3000000E+03  0.7818608E-02  0.1093470E+00
          1   -1    0    0  502    0  0.00000000000E+00  0.00000000000E+00  0.23328522271E+03  0.23328522271E+03  0.00000000000E+00 0.  1.
         13   -1    0    0    0    0 -0.00000000000E+00 -0.00000000000E+00 -0.27500000000E+03  0.27500000000E+03  0.00000000000E+00 0.  1.
    9000005    2    1    2  501    0  0.18589071337E+02 -0.34850304867E+02 -0.22418575143E+02  0.46432568745E+03  0.46209918220E+03 0.  0.
         13    1    3    3    0    0 -0.21168967297E+03 -0.82308530059E+02  0.78703906174E+01  0.22726450407E+03  0.00000000000E+00 0.  1.
          3    1    3    3  501    0  0.23027874431E+03  0.47458225191E+02 -0.30288965760E+02  0.23706118338E+03  0.00000000000E+00 0.  1.
         21    1    1    2  502  501 -0.18589071337E+02  0.34850304867E+02 -0.19296202152E+02  0.43959535257E+02  0.00000000000E+00 0.  1.
<scales pt_clust_4="550.00000" pt_clust_5="550.00000" pt_clust_6="39.49809"></scales>
<mgrwt>
<rscale>  0 0.30000000E+03</rscale>
<asrwt>  1 0.39498087E+02</asrwt>
<pdfrwt beam="1">  1        1 0.84830990E+00 0.30000000E+03</pdfrwt>
<pdfrwt beam="2">0</pdfrwt>
<totfact> 0.41263433E-04</totfact>
</mgrwt>
<clustering>
<clus scale="   39.498">  1  6  2 -1</clus>
<clus scale="  462.099">  4  5 -1 -1</clus>
<clus scale="  300.000">  1  4  2 -1</clus>
</clustering>
</event>
<event>
 6    1  0.9843879E-012  0.3000000E+03  0.7818608E-02  0.1093470E+00
          1   -1    0    0  502    0  0.00000000000E+00  0.00000000000E+00  0.22747387754E+03  0.22747387754E+03  0.00000000000E+00 0.  1.
         13   -1    0    0    0    0 -0.00000000000E+00 -0.00000000000E+00 -0.27500000000E+03  0.27500000000E+03  0.00000000000E+00 0.  1.
    9000005    2    1    2  501    0  0.10096356559E+02  0.31430187502E+02 -0.49941844287E+02  0.46937359334E+03  0.46554010483E+03 0.  0.
         13    1    3    3    0    0 -0.21779390607E+03  0.69464423362E+02  0.15832968673E+02  0.22915098632E+03  0.00000000000E+00 0.  1.
          3    1    3    3  501    0  0.22789026263E+03 -0.38034235860E+02 -0.65774812960E+02  0.24022260701E+03  0.00000000000E+00 0.  1.
         21    1    1    2  502  501 -0.10096356559E+02 -0.31430187502E+02  0.24157218238E+01  0.33100284200E+02  0.00000000000E+00 0. -1.
<scales pt_clust_4="550.00000" pt_clust_5="550.00000" pt_clust_6="33.01201"></scales>
<mgrwt>
<rscale>  0 0.30000000E+03</rscale>
<asrwt>  1 0.33012015E+02</asrwt>
<pdfrwt beam="1">  1        1 0.82717774E+00 0.30000000E+03</pdfrwt>
<pdfrwt beam="2">0</pdfrwt>
<totfact> 0.63168249E-04</totfact>
</mgrwt>
<clustering>
<clus scale="   33.012">  1  6  2 -1</clus>
<clus scale="  465.540">  4  5 -1 -1</clus>
<clus scale="  300.000">  1  4  2 -1</clus>
</clustering>
</event>
<event>
 6    1  0.9843879E-012  0.3000000E+03  0.7818608E-02  0.1093470E+00
          1   -1    0    0  502    0  0.00000000000E+00  0.00000000000E+00  0.22339889180E+03  0.22339889180E+03  0.00000000000E+00 0.  1.
         13   -1    0    0    0    0 -0.00000000000E+00 -0.00000000000E+00 -0.27500000000E+03  0.27500000000E+03  0.00000000000E+00 0.  1.
    9000005    2    1    2  501    0 -0.12205917092E+02  0.30199927277E+02 -0.66633078138E+02  0.46252438637E+03  0.45653895876E+03 0.  0.
         13    1    3    3    0    0 -0.16501154322E+03  0.17966859578E+03 -0.35803003845E+02  0.24655926020E+03  0.00000000000E+00 0.  1.
          3    1    3    3  501    0  0.15280562613E+03 -0.14946866851E+03 -0.30830074293E+02  0.21596512617E+03  0.00000000000E+00 0.  1.
         21    1    1    2  502  501  0.12205917092E+02 -0.30199927277E+02  0.15031969934E+02  0.35874505428E+02  0.00000000000E+00 0.  1.
<scales pt_clust_4="550.00000" pt_clust_5="550.00000" pt_clust_6="32.57330"></scales>
<mgrwt>
<rscale>  0 0.30000000E+03</rscale>
<asrwt>  1 0.32573302E+02</asrwt>
<pdfrwt beam="1">  1        1 0.81235961E+00 0.30000000E+03</pdfrwt>
<pdfrwt beam="2">0</pdfrwt>
<totfact> 0.84708706E-04</totfact>
</mgrwt>
<clustering>
<clus scale="   32.573">  1  6  2 -1</clus>
<clus scale="  456.539">  4  5 -1 -1</clus>
<clus scale="  300.000">  1  4  2 -1</clus>
</clustering>
</event>
<event>
 6    1  0.9843879E-012  0.3000000E+03  0.7818608E-02  0.1093470E+00
          1   -1    0    0  502    0  0.00000000000E+00  0.00000000000E+00  0.23655869934E+03  0.23655869934E+03  0.00000000000E+00 0.  1.
         13   -1    0    0    0    0 -0.00000000000E+00 -0.00000000000E+00 -0.27500000000E+03  0.27500000000E+03  0.00000000000E+00 0.  1.
    9000005    2    1    2  501    0 -0.31202420814E+02 -0.34648181372E+01 -0.38596406794E+02  0.48016411243E+03  0.47757962291E+03 0.  0.
         13    1    3    3    0    0 -0.21622322311E+02 -0.23683881202E+03 -0.60998200889E+02  0.24552174693E+03  0.00000000000E+00 0.  1.
          3    1    3    3  501    0 -0.95800985030E+01  0.23337399389E+03  0.22401794096E+02  0.23464236550E+03  0.00000000000E+00 0.  1.
         21    1    1    2  502  501  0.31202420814E+02  0.34648181372E+01  0.15510613371E+00  0.31394586911E+02  0.00000000000E+00 0. -1.
<scales pt_clust_4="550.00000" pt_clust_5="550.00000" pt_clust_6="31.39420"></scales>
<mgrwt>
<rscale>  0 0.30000000E+03</rscale>
<asrwt>  1 0.31394204E+02</asrwt>
<pdfrwt beam="1">  1        1 0.86021345E+00 0.30000000E+03</pdfrwt>
<pdfrwt beam="2">0</pdfrwt>
<totfact> 0.32844848E-04</totfact>
</mgrwt>
<clustering>
<clus scale="   31.394">  1  6  2 -1</clus>
<clus scale="  477.580">  4  5 -1 -1</clus>
<clus scale="  300.000">  1  4  2 -1</clus>
</clustering>
</event>
<event>
 6    1  0.9843879E-012  0.3000000E+03  0.7818608E-02  0.1093470E+00
          1   -1    0    0  502    0  0.00000000000E+00  0.00000000000E+00  0.22645917854E+03  0.22645917854E+03  0.00000000000E+00 0.  1.
         13   -1    0    0    0    0 -0.00000000000E+00 -0.00000000000E+00 -0.27500000000E+03  0.27500000000E+03  0.00000000000E+00 0.  1.
    9000005    2    1    2  501    0  0.23760550044E+02  0.24677013349E+02 -0.39503772658E+02  0.46603056049E+03  0.46308791447E+03 0.  0.
         13    1    3    3    0    0  0.22042737192E+03  0.93462053462E+02 -0.82600771994E+02  0.25327113784E+03  0.00000000000E+00 0.  1.
          1    1    3    3  501    0 -0.19666682188E+03 -0.68785040113E+02  0.43096999337E+02  0.21275942264E+03  0.00000000000E+00 0.  1.
         21    1    1    2  502  501 -0.23760550044E+02 -0.24677013349E+02 -0.90370488002E+01  0.35428618054E+02  0.00000000000E+00 0.  1.
<scales pt_clust_4="550.00000" pt_clust_5="550.00000" pt_clust_6="34.25668"></scales>
<mgrwt>
<rscale>  0 0.30000000E+03</rscale>
<asrwt>  1 0.34256677E+02</asrwt>
<pdfrwt beam="1">  1        1 0.82348792E+00 0.30000000E+03</pdfrwt>
<pdfrwt beam="2">0</pdfrwt>
<totfact> 0.67652538E-04</totfact>
</mgrwt>
<clustering>
<clus scale="   34.257">  1  6  2 -1</clus>
<clus scale="  463.088">  4  5 -1 -1</clus>
<clus scale="  300.000">  1  4  2 -1</clus>
</clustering>
</event>
<event>
 6    1  0.9843879E-012  0.3000000E+03  0.7818608E-02  0.1093470E+00
          1   -1    0    0  502    0  0.00000000000E+00  0.00000000000E+00  0.22498395889E+03  0.22498395889E+03  0.00000000000E+00 0.  1.
         13   -1    0    0    0    0 -0.00000000000E+00 -0.00000000000E+00 -0.27500000000E+03  0.27500000000E+03  0.00000000000E+00 0.  1.
    9000005    2    1    2  501    0  0.74234340868E+01  0.33212287619E+02 -0.61998992960E+02  0.46390412300E+03  0.45848118477E+03 0.  0.
         13    1    3    3    0    0  0.16090117798E+03 -0.12471573285E+03  0.59889915652E+02  0.21220274525E+03  0.00000000000E+00 0.  1.
          3    1    3    3  501    0 -0.15347774389E+03  0.15792802047E+03 -0.12188890861E+03  0.25170137775E+03  0.00000000000E+00 0.  1.
         21    1    1    2  502  501 -0.74234340868E+01 -0.33212287619E+02  0.11982951848E+02  0.36079835885E+02  0.00000000000E+00 0.  1.
<scales pt_clust_4="550.00000" pt_clust_5="550.00000" pt_clust_6="34.03180"></scales>
<mgrwt>
<rscale>  0 0.30000000E+03</rscale>
<asrwt>  1 0.34031800E+02</asrwt>
<pdfrwt beam="1">  1        1 0.81812349E+00 0.30000000E+03</pdfrwt>
<pdfrwt beam="2">0</pdfrwt>
<totfact> 0.75438860E-04</totfact>
</mgrwt>
<clustering>
<clus scale="   34.032">  1  6  2 -1</clus>
<clus scale="  458.481">  4  5 -1 -1</clus>
<clus scale="  300.000">  1  4  2 -1</clus>
</clustering>
</event>
<event>
 6    1  0.9843879E-012  0.3000000E+03  0.7818608E-02  0.1093470E+00
          1   -1    0    0  502    0  0.00000000000E+00  0.00000000000E+00  0.23247525327E+03  0.23247525327E+03  0.00000000000E+00 0.  1.
         13   -1    0    0    0    0 -0.00000000000E+00 -0.00000000000E+00 -0.27500000000E+03  0.27500000000E+03  0.00000000000E+00 0.  1.
    9000005    2    1    2  501    0  0.35173746023E+02 -0.15162535884E+02 -0.66142599405E+02  0.46247638807E+03  0.45611672976E+03 0.  0.
         13    1    3    3    0    0  0.18748226991E+03 -0.66164479433E+02  0.10743411105E+03  0.22598545990E+03  0.00000000000E+00 0.  1.
          1    1    3    3  501    0 -0.15230852389E+03  0.51001943549E+02 -0.17357671046E+03  0.23649092817E+03  0.00000000000E+00 0.  1.
         21    1    1    2  502  501 -0.35173746023E+02  0.15162535884E+02  0.23617852671E+02  0.44998865191E+02  0.00000000000E+00 0. -1.
<scales pt_clust_4="550.00000" pt_clust_5="550.00000" pt_clust_6="38.30267"></scales>
<mgrwt>
<rscale>  0 0.30000000E+03</rscale>
<asrwt>  1 0.38302675E+02</asrwt>
<pdfrwt beam="1">  1        1 0.84536456E+00 0.30000000E+03</pdfrwt>
<pdfrwt beam="2">0</pdfrwt>
<totfact> 0.44107179E-04</totfact>
</mgrwt>
<clustering>
<clus scale="   38.303">  1  6  2 -1</clus>
<clus scale="  456.117">  4  5 -1 -1</clus>
<clus scale="  300.000">  1  4  2 -1</clus>
</clustering>
</event>
<event>
 6    1  0.9843879E-012  0.3000000E+03  0.7818608E-02  0.1093470E+00
          1   -1    0    0  502    0  0.00000000000E+00  0.00000000000E+00  0.22463033601E+03  0.22463033601E+03  0.00000000000E+00 0.  1.
         13   -1    0    0    0    0 -0.00000000000E+00 -0.00000000000E+00 -0.27500000000E+03  0.27500000000E+03  0.00000000000E+00 0.  1.
    9000005    2    1    2  501    0  0.20309087587E+01 -0.32269004064E+02 -0.63724566910E+02  0.46464795980E+03  0.45912034686E+03 0.  0.
         13    1    3    3    0    0  0.16383349541E+03  0.77162410343E+02 -0.16467330903E+03  0.24477081218E+03  0.00000000000E+00 0.  1.
          1    1    3    3  501    0 -0.16180258665E+03 -0.10943141441E+03  0.10094874212E+03  0.21987714761E+03  0.00000000000E+00 0.  1.
         21    1    1    2  502  501 -0.20309087587E+01  0.32269004064E+02  0.13354902922E+02  0.34982376216E+02  0.00000000000E+00 0. -1.
<scales pt_clust_4="550.00000" pt_clust_5="550.00000" pt_clust_6="32.33285"></scales>
<mgrwt>
<rscale>  0 0.30000000E+03</rscale>
<asrwt>  1 0.32332850E+02</asrwt>
<pdfrwt beam="1">  1        1 0.81683759E+00 0.30000000E+03</pdfrwt>
<pdfrwt beam="2">0</pdfrwt>
<totfact> 0.78063282E-04</totfact>
</mgrwt>
<clustering>
<clus scale="   32.333">  1  6  2 -1</clus>
<clus scale="  459.120">  4  5 -1 -1</clus>
<clus scale="  300.000">  1  4  2 -1</clus>
</clustering>
</event>
<event>
 6    1  0.9843879E-012  0.3000000E+03  0.7818608E-02  0.1093470E+00
          1   -1    0    0  502    0  0.00000000000E+00  0.00000000000E+00  0.24390123515E+03  0.24390123515E+03  0.00000000000E+00 0.  1.
         13   -1    0    0    0    0 -0.00000000000E+00 -0.00000000000E+00 -0.27500000000E+03  0.27500000000E+03  0.00000000000E+00 0.  1.
    9000005    2    1    2  501    0 -0.35144643454E+02  0.68778327102E+01 -0.31726367506E+02  0.48308441744E+03  0.48070941475E+03 0.  0.
         13    1    3    3    0    0 -0.20876472090E+03  0.87423677930E+02  0.10336489415E+03  0.24881702011E+03  0.00000000000E+00 0.  1.
          3    1    3    3  501    0  0.17362007744E+03 -0.80545845219E+02 -0.13509126166E+03  0.23426739732E+03  0.00000000000E+00 0.  1.
         21    1    1    2  502  501  0.35144643454E+02 -0.68778327102E+01  0.62760265996E+00  0.35816817718E+02  0.00000000000E+00 0.  1.
<scales pt_clust_4="550.00000" pt_clust_5="550.00000" pt_clust_6="35.81132"></scales>
<mgrwt>
<rscale>  0 0.30000000E+03</rscale>
<asrwt>  1 0.35811319E+02</asrwt>
<pdfrwt beam="1">  1        1 0.88691358E+00 0.30000000E+03</pdfrwt>
<pdfrwt beam="2">0</pdfrwt>
<totfact> 0.15902848E-04</totfact>
</mgrwt>
<clustering>
<clus scale="   35.811">  1  6  2 -1</clus>
<clus scale="  480.709">  4  5 -1 -1</clus>
<clus scale="  300.000">  1  4  2 -1</clus>
</clustering>
</event>
<event>
 6    1  0.9843879E-012  0.3000000E+03  0.7818608E-02  0.1093470E+00
          1   -1    0    0  502    0  0.00000000000E+00  0.00000000000E+00  0.26752964248E+03  0.26752964248E+03  0.00000000000E+00 0.  1.
         13   -1    0    0    0    0 -0.00000000000E+00 -0.00000000000E+00 -0.27500000000E+03  0.27500000000E+03  0.00000000000E+00 0.  1.
    9000005    2    1    2  501    0 -0.31935541378E+02  0.60943340388E+01  0.58510131039E+01  0.50739449446E+03  0.50631800180E+03 0.  0.
         13    1    3    3    0    0  0.11445080704E+03 -0.21380276961E+03  0.15974355530E+02  0.24303454807E+03  0.00000000000E+00 0.  1.
          3    1    3    3  501    0 -0.14638634841E+03  0.21989710364E+03 -0.10123342426E+02  0.26435994639E+03  0.00000000000E+00 0.  1.
         21    1    1    2  502  501  0.31935541378E+02 -0.60943340388E+01 -0.13321370628E+02  0.35135148013E+02  0.00000000000E+00 0.  1.
<scales pt_clust_4="550.00000" pt_clust_5="550.00000" pt_clust_6="32.51186"></scales>
<mgrwt>
<rscale>  0 0.30000000E+03</rscale>
<asrwt>  1 0.32511856E+02</asrwt>
<pdfrwt beam="1">  1        1 0.97283506E+00 0.30000000E+03</pdfrwt>
<pdfrwt beam="2">0</pdfrwt>
<totfact> 0.45468659E-06</totfact>
</mgrwt>
<clustering>
<clus scale="   32.512">  1  6  2 -1</clus>
<clus scale="  506.318">  4  5 -1 -1</clus>
<clus scale="  300.000">  1  4  2 -1</clus>
</clustering>
</event>
<event>
 6    1  0.9843879E-012  0.3000000E+03  0.7818608E-02  0.1093470E+00
          1   -1    0    0  502    0  0.00000000000E+00  0.00000000000E+00  0.23958777251E+03  0.23958777251E+03  0.00000000000E+00 0.  1.
         13   -1    0    0    0    0 -0.00000000000E+00 -0.00000000000E+00 -0.27500000000E+03  0.27500000000E+03  0.00000000000E+00 0.  1.
    9000005    2    1    2  501    0 -0.18994401189E+02  0.33800472149E+02 -0.68695424910E+02  0.46348952964E+03  0.45672773453E+03 0.  0.
         13    1    3    3    0    0  0.22109202835E+02 -0.71996995352E+02  0.17726629907E+03  0.19260250511E+03  0.00000000000E+00 0.  1.
          3    1    3    3  501    0 -0.41103604025E+02  0.10579746750E+03 -0.24596172398E+03  0.27088702453E+03  0.00000000000E+00 0.  1.
         21    1    1    2  502  501  0.18994401189E+02 -0.33800472149E+02  0.33283197424E+02  0.51098242874E+02  0.00000000000E+00 0. -1.
<scales pt_clust_4="550.00000" pt_clust_5="550.00000" pt_clust_6="38.77189"></scales>
<mgrwt>
<rscale>  0 0.30000000E+03</rscale>
<asrwt>  1 0.38771887E+02</asrwt>
<pdfrwt beam="1">  1        1 0.87122826E+00 0.30000000E+03</pdfrwt>
<pdfrwt beam="2">0</pdfrwt>
<totfact> 0.24141996E-04</totfact>
</mgrwt>
<clustering>
<clus scale="   38.772">  1  6  2 -1</clus>
<clus scale="  456.728">  4  5 -1 -1</clus>
<clus scale="  300.000">  1  4  2 -1</clus>
</clustering>
</event>
<event>
 6    1  0.9843879E-012  0.3000000E+03  0.7818608E-02  0.1093470E+00
          1   -1    0    0  502    0  0.00000000000E+00  0.00000000000E+00  0.24383562917E+03  0.24383562917E+03  0.00000000000E+00 0.  1.
         13   -1    0    0    0    0 -0.00000000000E+00 -0.00000000000E+00 -0.27500000000E+03  0.27500000000E+03  0.00000000000E+00 0.  1.
    9000005    2    1    2  501    0  0.27568665980E+02 -0.13886969609E+02 -0.48874903935E+02  0.48324711625E+03  0.47977717730E+03 0.  0.
         13    1    3    3    0    0  0.56286596159E+02  0.27416845190E+02  0.21020372358E+03  0.21932959151E+03  0.00000000000E+00 0.  1.
          1    1    3    3  501    0 -0.28717930179E+02 -0.41303814799E+02 -0.25907862751E+03  0.26391752474E+03  0.00000000000E+00 0.  1.
         21    1    1    2  502  501 -0.27568665980E+02  0.13886969609E+02  0.17710533105E+02  0.35588512918E+02  0.00000000000E+00 0. -1.
<scales pt_clust_4="550.00000" pt_clust_5="550.00000" pt_clust_6="30.86874"></scales>
<mgrwt>
<rscale>  0 0.30000000E+03</rscale>
<asrwt>  1 0.30868743E+02</asrwt>
<pdfrwt beam="1">  1        1 0.88667502E+00 0.30000000E+03</pdfrwt>
<pdfrwt beam="2">0</pdfrwt>
<totfact> 0.16479778E-04</totfact>
</mgrwt>
<clustering>
<clus scale="   30.869">  1  6  2 -1</clus>
<clus scale="  479.777">  4  5 -1 -1</clus>
<clus scale="  300.000">  1  4  2 -1</clus>
</clustering>
</event>
<event>
 6    1  0.9843879E-012  0.3000000E+03  0.7818608E-02  0.1093470E+00
          1   -1    0    0  502    0  0.00000000000E+00  0.00000000000E+00  0.25051644762E+03  0.25051644762E+03  0.00000000000E+00 0.  1.
         13   -1    0    0    0    0 -0.00000000000E+00 -0.00000000000E+00 -0.27500000000E+03  0.27500000000E+03  0.00000000000E+00 0.  1.
    9000005    2    1    2  501    0  0.21225497578E+02  0.30678000216E+02 -0.35084369813E+02  0.48673450885E+03  0.48403296133E+03 0.  0.
         13    1    3    3    0    0  0.10504212035E+03  0.10133753122E+02  0.20557007134E+03  0.23107486716E+03  0.00000000000E+00 0.  1.
          1    1    3    3  501    0 -0.83816622776E+02  0.20544247094E+02 -0.24065444115E+03  0.25565964169E+03  0.00000000000E+00 0.  1.
         21    1    1    2  502  501 -0.21225497578E+02 -0.30678000216E+02  0.10600817429E+02  0.38781938771E+02  0.00000000000E+00 0.  1.
<scales pt_clust_4="550.00000" pt_clust_5="550.00000" pt_clust_6="37.30498"></scales>
<mgrwt>
<rscale>  0 0.30000000E+03</rscale>
<asrwt>  1 0.37304979E+02</asrwt>
<pdfrwt beam="1">  1        1 0.91096890E+00 0.30000000E+03</pdfrwt>
<pdfrwt beam="2">0</pdfrwt>
<totfact> 0.67220950E-05</totfact>
</mgrwt>
<clustering>
<clus scale="   37.305">  1  6  2 -1</clus>
<clus scale="  484.033">  4  5 -1 -1</clus>
<clus scale="  300.000">  1  4  2 -1</clus>
</clustering>
</event>
<event>
 6    1  0.9843879E-012  0.3000000E+03  0.7818608E-02  0.1093470E+00
          1   -1    0    0  502    0  0.00000000000E+00  0.00000000000E+00  0.23372385361E+03  0.23372385361E+03  0.00000000000E+00 0.  1.
         13   -1    0    0    0    0 -0.00000000000E+00 -0.00000000000E+00 -0.27500000000E+03  0.27500000000E+03  0.00000000000E+00 0.  1.
    9000005    2    1    2  501    0 -0.47433050994E+01  0.35763305925E+02 -0.47184588904E+02  0.47216673820E+03  0.46841597991E+03 0.  0.
         13    1    3    3    0    0 -0.21931051688E+03  0.44184831582E+02  0.60771166827E+02  0.23182436644E+03  0.00000000000E+00 0.  1.
          3    1    3    3  501    0  0.21456721179E+03 -0.84215256571E+01 -0.10795575573E+03  0.24034237176E+03  0.00000000000E+00 0.  1.
         21    1    1    2  502  501  0.47433050994E+01 -0.35763305925E+02  0.59084425112E+01  0.36557115406E+02  0.00000000000E+00 0.  1.
<scales pt_clust_4="550.00000" pt_clust_5="550.00000" pt_clust_6="36.07649"></scales>
<mgrwt>
<rscale>  0 0.30000000E+03</rscale>
<asrwt>  1 0.36076488E+02</asrwt>
<pdfrwt beam="1">  1        1 0.84990492E+00 0.30000000E+03</pdfrwt>
<pdfrwt beam="2">0</pdfrwt>
<totfact> 0.40552547E-04</totfact>
</mgrwt>
<clustering>
<clus scale="   36.076">  1  6  2 -1</clus>
<clus scale="  468.416">  4  5 -1 -1</clus>
<clus scale="  300.000">  1  4  2 -1</clus>
</clustering>
</event>
<event>
 6    1  0.9843879E-012  0.3000000E+03  0.7818608E-02  0.1093470E+00
          1   -1    0    0  502    0  0.00000000000E+00  0.00000000000E+00  0.22598300586E+03  0.22598300586E+03  0.00000000000E+00 0.  1.
         13   -1    0    0    0    0 -0.00000000000E+00 -0.00000000000E+00 -0.27500000000E+03  0.27500000000E+03  0.00000000000E+00 0.  1.
    9000005    2    1    2  501    0 -0.33771490312E+02  0.77003214274E+01 -0.42130041610E+02  0.46566674015E+03  0.46246163513E+03 0.  0.
         13    1    3    3    0    0 -0.19861663189E+03  0.74718614930E+02  0.10314823458E+03  0.23594701985E+03  0.00000000000E+00 0.  1.
          1    1    3    3  501    0  0.16484514158E+03 -0.67018293502E+02 -0.14527827619E+03  0.22971972031E+03  0.00000000000E+00 0.  1.
         21    1    1    2  502  501  0.33771490312E+02 -0.77003214274E+01 -0.68869525333E+01  0.35316265702E+02  0.00000000000E+00 0. -1.
<scales pt_clust_4="550.00000" pt_clust_5="550.00000" pt_clust_6="34.63827"></scales>
<mgrwt>
<rscale>  0 0.30000000E+03</rscale>
<asrwt>  1 0.34638269E+02</asrwt>
<pdfrwt beam="1">  1        1 0.82175638E+00 0.30000000E+03</pdfrwt>
<pdfrwt beam="2">0</pdfrwt>
<totfact> 0.69948541E-04</totfact>
</mgrwt>
<clustering>
<clus scale="   34.638">  1  6  2 -1</clus>
<clus scale="  462.462">  4  5 -1 -1</clus>
<clus scale="  300.000">  1  4  2 -1</clus>
</clustering>
</event>
<event>
 6    1  0.9843879E-012  0.3000000E+03  0.7818608E-02  0.1093470E+00
          1   -1    0    0  502    0  0.00000000000E+00  0.00000000000E+00  0.22545605799E+03  0.22545605799E+03  0.00000000000E+00 0.  1.
         13   -1    0    0    0    0 -0.00000000000E+00 -0.00000000000E+00 -0.27500000000E+03  0.27500000000E+03  0.00000000000E+00 0.  1.
    9000005    2    1    2  501    0 -0.30323805131E+02 -0.72976224068E+01 -0.61967063766E+02  0.46688341430E+03  0.46170057083E+03 0.  0.
         13    1    3    3    0    0 -0.50845098809E+02 -0.20731100878E+03  0.72006741037E+02  0.22527327669E+03  0.00000000000E+00 0.  1.
          3    1    3    3  501    0  0.20521293678E+02  0.20001338637E+03 -0.13397380480E+03  0.24161013761E+03  0.00000000000E+00 0.  1.
         21    1    1    2  502  501  0.30323805131E+02  0.72976224068E+01  0.12423121757E+02  0.33572643694E+02  0.00000000000E+00 0. -1.
<scales pt_clust_4="550.00000" pt_clust_5="550.00000" pt_clust_6="31.18956"></scales>
<mgrwt>
<rscale>  0 0.30000000E+03</rscale>
<asrwt>  1 0.31189557E+02</asrwt>
<pdfrwt beam="1">  1        1 0.81984021E+00 0.30000000E+03</pdfrwt>
<pdfrwt beam="2">0</pdfrwt>
<totfact> 0.74158127E-04</totfact>
</mgrwt>
<clustering>
<clus scale="   31.190">  1  6  2 -1</clus>
<clus scale="  461.701">  4  5 -1 -1</clus>
<clus scale="  300.000">  1  4  2 -1</clus>
</clustering>
</event>
<event>
 6    1  0.9843879E-012  0.3000000E+03  0.7818608E-02  0.1093470E+00
          1   -1    0    0  502    0  0.00000000000E+00  0.00000000000E+00  0.22415952363E+03  0.22415952363E+03  0.00000000000E+00 0.  1.
         13   -1    0    0    0    0 -0.00000000000E+00 -0.00000000000E+00 -0.27500000000E+03  0.27500000000E+03  0.00000000000E+00 0.  1.
    9000005    2    1    2  501    0  0.88166843427E+01  0.29456203637E+02 -0.66045238916E+02  0.46485811462E+03  0.45911402864E+03 0.  0.
         13    1    3    3    0    0  0.13459875442E+02 -0.54075049830E+02  0.18868487432E+03  0.19674160988E+03  0.00000000000E+00 0.  1.
          3    1    3    3  501    0 -0.46431910991E+01  0.83531253468E+02 -0.25473011323E+03  0.26811650475E+03  0.00000000000E+00 0.  1.
         21    1    1    2  502  501 -0.88166843427E+01 -0.29456203637E+02  0.15204762541E+02  0.34301409001E+02  0.00000000000E+00 0. -1.
<scales pt_clust_4="550.00000" pt_clust_5="550.00000" pt_clust_6="30.74739"></scales>
<mgrwt>
<rscale>  0 0.30000000E+03</rscale>
<asrwt>  1 0.30747388E+02</asrwt>
<pdfrwt beam="1">  1        1 0.81512554E+00 0.30000000E+03</pdfrwt>
<pdfrwt beam="2">0</pdfrwt>
<totfact> 0.81390165E-04</totfact>
</mgrwt>
<clustering>
<clus scale="   30.747">  1  6  2 -1</clus>
<clus scale="  459.114">  4  5 -1 -1</clus>
<clus scale="  300.000">  1  4  2 -1</clus>
</clustering>
</event>
<event>
 6    1  0.9843879E-012  0.3000000E+03  0.7818608E-02  0.1093470E+00
          1   -1    0    0  502    0  0.00000000000E+00  0.00000000000E+00  0.25677602839E+03  0.25677602839E+03  0.00000000000E+00 0.  1.
         13   -1    0    0    0    0 -0.00000000000E+00 -0.00000000000E+00 -0.27500000000E+03  0.27500000000E+03  0.00000000000E+00 0.  1.
    9000005    2    1    2  501    0 -0.34785834920E+02  0.23999313325E+02 -0.36847750241E+01  0.48708363990E+03  0.48523280324E+03 0.  0.
         13    1    3    3    0    0  0.16888569522E+03 -0.12266181991E+03 -0.81861437721E+02  0.22420882030E+03  0.00000000000E+00 0.  1.
          3    1    3    3  501    0 -0.20367153014E+03  0.14666113324E+03  0.78176662697E+02  0.26287481960E+03  0.00000000000E+00 0.  1.
         21    1    1    2  502  501  0.34785834920E+02 -0.23999313325E+02 -0.14539196590E+02  0.44692388486E+02  0.00000000000E+00 0.  1.
<scales pt_clust_4="550.00000" pt_clust_5="550.00000" pt_clust_6="42.26137"></scales>
<mgrwt>
<rscale>  0 0.30000000E+03</rscale>
<asrwt>  1 0.42261367E+02</asrwt>
<pdfrwt beam="1">  1        1 0.93373101E+00 0.30000000E+03</pdfrwt>
<pdfrwt beam="2">0</pdfrwt>
<totfact> 0.22548901E-05</totfact>
</mgrwt>
<clustering>
<clus scale="   42.261">  1  6  2 -1</clus>
<clus scale="  485.233">  4  5 -1 -1</clus>
<clus scale="  300.000">  1  4  2 -1</clus>
</clustering>
</event>
<event>
 6    1  0.9843879E-012  0.3000000E+03  0.7818608E-02  0.1093470E+00
          1   -1    0    0  502    0  0.00000000000E+00  0.00000000000E+00  0.23846531129E+03  0.23846531129E+03  0.00000000000E+00 0.  1.
         13   -1    0    0    0    0 -0.00000000000E+00 -0.00000000000E+00 -0.27500000000E+03  0.27500000000E+03  0.00000000000E+00 0.  1.
    9000005    2    1    2  501    0  0.38694335740E+01  0.36044459443E+02 -0.56802545188E+02  0.47193265451E+03  0.46709712660E+03 0.  0.
         13    1    3    3    0    0  0.39333188971E+02  0.24547708533E+03 -0.72430498746E+02  0.25894454295E+03  0.00000000000E+00 0.  1.
          1    1    3    3  501    0 -0.35463755397E+02 -0.20943262589E+03  0.15627953557E+02  0.21298811156E+03  0.00000000000E+00 0.  1.
         21    1    1    2  502  501 -0.38694335740E+01 -0.36044459443E+02  0.20267856478E+02  0.41532656777E+02  0.00000000000E+00 0. -1.
<scales pt_clust_4="550.00000" pt_clust_5="550.00000" pt_clust_6="36.25156"></scales>
<mgrwt>
<rscale>  0 0.30000000E+03</rscale>
<asrwt>  1 0.36251560E+02</asrwt>
<pdfrwt beam="1">  1        1 0.86714659E+00 0.30000000E+03</pdfrwt>
<pdfrwt beam="2">0</pdfrwt>
<totfact> 0.26928412E-04</totfact>
</mgrwt>
<clustering>
<clus scale="   36.252">  1  6  2 -1</clus>
<clus scale="  467.097">  4  5 -1 -1</clus>
<clus scale="  300.000">  1  4  2 -1</clus>
</clustering>
</event>
<event>
 6    1  0.9843879E-012  0.3000000E+03  0.7818608E-02  0.1093470E+00
          1   -1    0    0  502    0  0.00000000000E+00  0.00000000000E+00  0.23268595744E+03  0.23268595744E+03  0.00000000000E+00 0.  1.
         13   -1    0    0    0    0 -0.00000000000E+00 -0.00000000000E+00 -0.27500000000E+03  0.27500000000E+03  0.00000000000E+00 0.  1.
    9000005    2    1    2  501    0  0.30333100026E+02 -0.78593783242E+01 -0.49925021858E+02  0.47544012374E+03  0.47177212367E+03 0.  0.
         13    1    3    3    0    0  0.24438373159E+03  0.52200103411E+02 -0.38350403891E+02  0.25282209662E+03  0.00000000000E+00 0.  1.
          3    1    3    3  501    0 -0.21405063156E+03 -0.60059481735E+02 -0.11574617967E+02  0.22261802712E+03  0.00000000000E+00 0.  1.
         21    1    1    2  502  501 -0.30333100026E+02  0.78593783242E+01  0.76109792983E+01  0.32245833696E+02  0.00000000000E+00 0.  1.
<scales pt_clust_4="550.00000" pt_clust_5="550.00000" pt_clust_6="31.33475"></scales>
<mgrwt>
<rscale>  0 0.30000000E+03</rscale>
<asrwt>  1 0.31334754E+02</asrwt>
<pdfrwt beam="1">  1        1 0.84613075E+00 0.30000000E+03</pdfrwt>
<pdfrwt beam="2">0</pdfrwt>
<totfact> 0.45089387E-04</totfact>
</mgrwt>
<clustering>
<clus scale="   31.335">  1  6  2 -1</clus>
<clus scale="  471.772">  4  5 -1 -1</clus>
<clus scale="  300.000">  1  4  2 -1</clus>
</clustering>
</event>
<event>
 6    1  0.9843879E-012  0.3000000E+03  0.7818608E-02  0.1093470E+00
          1   -1    0    0  502    0  0.00000000000E+00  0.00000000000E+00  0.25632873775E+03  0.25632873775E+03  0.00000000000E+00 0.  1.
         13   -1    0    0    0    0 -0.00000000000E+00 -0.00000000000E+00 -0.27500000000E+03  0.27500000000E+03  0.00000000000E+00 0.  1.
    9000005    2    1    2  501    0  0.10765882285E+02  0.44602848270E+02 -0.58398924424E+02  0.47063602454E+03  0.46473919022E+03 0.  0.
         13    1    3    3    0    0  0.24716491484E+01  0.25383850873E+03 -0.23371262869E+01  0.25386130017E+03  0.00000000000E+00 0.  1.
          3    1    3    3  501    0  0.82942331371E+01 -0.20923566046E+03 -0.56061798137E+02  0.21677472437E+03  0.00000000000E+00 0.  1.
         21    1    1    2  502  501 -0.10765882285E+02 -0.44602848270E+02  0.39727662176E+02  0.60692713213E+02  0.00000000000E+00 0.  1.
<scales pt_clust_4="550.00000" pt_clust_5="550.00000" pt_clust_6="45.88375"></scales>
<mgrwt>
<rscale>  0 0.30000000E+03</rscale>
<asrwt>  1 0.45883748E+02</asrwt>
<pdfrwt beam="1">  1        1 0.93210450E+00 0.30000000E+03</pdfrwt>
<pdfrwt beam="2">0</pdfrwt>
<totfact> 0.23314435E-05</totfact>
</mgrwt>
<clustering>
<clus scale="   45.884">  1  6  2 -1</clus>
<clus scale="  464.739">  4  5 -1 -1</clus>
<clus scale="  300.000">  1  4  2 -1</clus>
</clustering>
</event>
<event>
 6    1  0.9843879E-012  0.3000000E+03  0.7818608E-02  0.1093470E+00
          1   -1    0    0  502    0  0.00000000000E+00  0.00000000000E+00  0.23180232806E+03  0.23180232806E+03  0.00000000000E+00 0.  1.
         13   -1    0    0    0    0 -0.00000000000E+00 -0.00000000000E+00 -0.27500000000E+03  0.27500000000E+03  0.00000000000E+00 0.  1.
    9000005    2    1    2  501    0  0.49783928856E+01 -0.38849822867E+02 -0.28976856707E+02  0.46513309818E+03  0.46257436988E+03 0.  0.
         13    1    3    3    0    0 -0.11592590182E+03  0.14945186888E+03 -0.11951331051E+03  0.22373669170E+03  0.00000000000E+00 0.  1.
          3    1    3    3  501    0  0.12090429471E+03 -0.18830169175E+03  0.90536453801E+02  0.24139640648E+03  0.00000000000E+00 0.  1.
         21    1    1    2  502  501 -0.49783928856E+01  0.38849822867E+02 -0.14220815234E+02  0.41669229876E+02  0.00000000000E+00 0. -1.
<scales pt_clust_4="550.00000" pt_clust_5="550.00000" pt_clust_6="39.16752"></scales>
<mgrwt>
<rscale>  0 0.30000000E+03</rscale>
<asrwt>  1 0.39167521E+02</asrwt>
<pdfrwt beam="1">  1        1 0.84291756E+00 0.30000000E+03</pdfrwt>
<pdfrwt beam="2">0</pdfrwt>
<totfact> 0.46109336E-04</totfact>
</mgrwt>
<clustering>
<clus scale="   39.168">  1  6  2 -1</clus>
<clus scale="  462.574">  4  5 -1 -1</clus>
<clus scale="  300.000">  1  4  2 -1</clus>
</clustering>
</event>
<event>
 6    1  0.9843879E-012  0.3000000E+03  0.7818608E-02  0.1093470E+00
          1   -1    0    0  502    0  0.00000000000E+00  0.00000000000E+00  0.22862549200E+03  0.22862549200E+03  0.00000000000E+00 0.  1.
         13   -1    0    0    0    0 -0.00000000000E+00 -0.00000000000E+00 -0.27500000000E+03  0.27500000000E+03  0.00000000000E+00 0.  1.
    9000005    2    1    2  501    0 -0.18032285324E+02 -0.24933868050E+02 -0.63952283765E+02  0.46818766912E+03  0.46277741715E+03 0.  0.
         13    1    3    3    0    0 -0.20388221504E+03 -0.13767062195E+03 -0.43874685146E+02  0.24989226829E+03  0.00000000000E+00 0.  1.
          1    1    3    3  501    0  0.18584992971E+03  0.11273675390E+03 -0.20077598619E+02  0.21829540082E+03  0.00000000000E+00 0.  1.
         21    1    1    2  502  501  0.18032285324E+02  0.24933868050E+02  0.17577775766E+02  0.35437822885E+02  0.00000000000E+00 0.  1.
<scales pt_clust_4="550.00000" pt_clust_5="550.00000" pt_clust_6="30.77111"></scales>
<mgrwt>
<rscale>  0 0.30000000E+03</rscale>
<asrwt>  1 0.30771108E+02</asrwt>
<pdfrwt beam="1">  1        1 0.83136543E+00 0.30000000E+03</pdfrwt>
<pdfrwt beam="2">0</pdfrwt>
<totfact> 0.59044085E-04</totfact>
</mgrwt>
<clustering>
<clus scale="   30.771">  1  6  2 -1</clus>
<clus scale="  462.777">  4  5 -1 -1</clus>
<clus scale="  300.000">  1  4  2 -1</clus>
</clustering>
</event>
<event>
 6    1  0.9843879E-012  0.3000000E+03  0.7818608E-02  0.1093470E+00
          1   -1    0    0  502    0  0.00000000000E+00  0.00000000000E+00  0.23591877256E+03  0.23591877256E+03  0.00000000000E+00 0.  1.
         13   -1    0    0    0    0 -0.00000000000E+00 -0.00000000000E+00 -0.27500000000E+03  0.27500000000E+03  0.00000000000E+00 0.  1.
    9000005    2    1    2  501    0 -0.33075355753E+02 -0.21880598648E+01 -0.58895771306E+02  0.47230034544E+03  0.46743998295E+03 0.  0.
         13    1    3    3    0    0 -0.21676953280E+03 -0.98796721910E+02 -0.10395453624E+03  0.25991607917E+03  0.00000000000E+00 0.  1.
          1    1    3    3  501    0  0.18369417704E+03  0.96608662045E+02  0.45058764934E+02  0.21238426627E+03  0.00000000000E+00 0.  1.
         21    1    1    2  502  501  0.33075355753E+02  0.21880598648E+01  0.19814543861E+02  0.38618427112E+02  0.00000000000E+00 0.  1.
<scales pt_clust_4="550.00000" pt_clust_5="550.00000" pt_clust_6="33.14765"></scales>
<mgrwt>
<rscale>  0 0.30000000E+03</rscale>
<asrwt>  1 0.33147651E+02</asrwt>
<pdfrwt beam="1">  1        1 0.85788645E+00 0.30000000E+03</pdfrwt>
<pdfrwt beam="2">0</pdfrwt>
<totfact> 0.34400386E-04</totfact>
</mgrwt>
<clustering>
<clus scale="   33.148">  1  6  2 -1</clus>
<clus scale="  467.440">  4  5 -1 -1</clus>
<clus scale="  300.000">  1  4  2 -1</clus>
</clustering>
</event>
<event>
 6    1  0.9843879E-012  0.3000000E+03  0.7818608E-02  0.1093470E+00
          1   -1    0    0  502    0  0.00000000000E+00  0.00000000000E+00  0.24175734091E+03  0.24175734091E+03  0.00000000000E+00 0.  1.
         13   -1    0    0    0    0 -0.00000000000E+00 -0.00000000000E+00 -0.27500000000E+03  0.27500000000E+03  0.00000000000E+00 0.  1.
    9000005    2    1    2  501    0 -0.14387364629E+02  0.28633012280E+02 -0.42447888124E+02  0.48341694657E+03  0.48048233617E+03 0.  0.
         13    1    3    3    0    0  0.60349050886E+02 -0.20131032988E+03 -0.10317763936E+03  0.23412279283E+03  0.00000000000E+00 0.  1.
          3    1    3    3  501    0 -0.74736415514E+02  0.22994334216E+03  0.60729751234E+02  0.24929415374E+03  0.00000000000E+00 0.  1.
         21    1    1    2  502  501  0.14387364629E+02 -0.28633012280E+02  0.92052290359E+01  0.33340394340E+02  0.00000000000E+00 0.  1.
<scales pt_clust_4="550.00000" pt_clust_5="550.00000" pt_clust_6="32.04443"></scales>
<mgrwt>
<rscale>  0 0.30000000E+03</rscale>
<asrwt>  1 0.32044432E+02</asrwt>
<pdfrwt beam="1">  1        1 0.87911760E+00 0.30000000E+03</pdfrwt>
<pdfrwt beam="2">0</pdfrwt>
<totfact> 0.20570153E-04</totfact>
</mgrwt>
<clustering>
<clus scale="   32.044">  1  6  2 -1</clus>
<clus scale="  480.482">  4  5 -1 -1</clus>
<clus scale="  300.000">  1  4  2 -1</clus>
</clustering>
</event>
<event>
 6    1  0.9843879E-012  0.3000000E+03  0.7818608E-02  0.1093470E+00
          1   -1    0    0  502    0  0.00000000000E+00  0.00000000000E+00  0.24320785533E+03  0.24320785533E+03  0.00000000000E+00 0.  1.
         13   -1    0    0    0    0 -0.00000000000E+00 -0.00000000000E+00 -0.27500000000E+03  0.27500000000E+03  0.00000000000E+00 0.  1.
    9000005    2    1    2  501    0 -0.39660951305E+02 -0.10555540670E+02 -0.51521349817E+02  0.47267048570E+03  0.46805825285E+03 0.  0.
         13    1    3    3    0    0 -0.99115421745E+02  0.19218006074E+03  0.72039030729E+02  0.22791810925E+03  0.00000000000E+00 0.  1.
          1    1    3    3  501    0  0.59454470440E+02 -0.20273560141E+03 -0.12356038055E+03  0.24475237645E+03  0.00000000000E+00 0.  1.
         21    1    1    2  502  501  0.39660951305E+02  0.10555540670E+02  0.19729205145E+02  0.45537369631E+02  0.00000000000E+00 0.  1.
<scales pt_clust_4="550.00000" pt_clust_5="550.00000" pt_clust_6="41.04157"></scales>
<mgrwt>
<rscale>  0 0.30000000E+03</rscale>
<asrwt>  1 0.41041570E+02</asrwt>
<pdfrwt beam="1">  1        1 0.88439220E+00 0.30000000E+03</pdfrwt>
<pdfrwt beam="2">0</pdfrwt>
<totfact> 0.16797917E-04</totfact>
</mgrwt>
<clustering>
<clus scale="   41.042">  1  6  2 -1</clus>
<clus scale="  468.058">  4  5 -1 -1</clus>
<clus scale="  300.000">  1  4  2 -1</clus>
</clustering>
</event>
<event>
 6    1  0.9843879E-012  0.3000000E+03  0.7818608E-02  0.1093470E+00
          1   -1    0    0  502    0  0.00000000000E+00  0.00000000000E+00  0.22552199365E+03  0.22552199365E+03  0.00000000000E+00 0.  1.
         13   -1    0    0    0    0 -0.00000000000E+00 -0.00000000000E+00 -0.27500000000E+03  0.27500000000E+03  0.00000000000E+00 0.  1.
    9000005    2    1    2  501    0 -0.20295804992E+01 -0.33333425942E+02 -0.61461615378E+02  0.46504181091E+03  0.45975114926E+03 0.  0.
         13    1    3    3    0    0 -0.10524315910E+03  0.16303064592E+03 -0.12916061214E+03  0.23310422084E+03  0.00000000000E+00 0.  1.
          1    1    3    3  501    0  0.10321357860E+03 -0.19636407186E+03  0.67698996759E+02  0.23193759007E+03  0.00000000000E+00 0.  1.
         21    1    1    2  502  501  0.20295804992E+01  0.33333425942E+02  0.11983609027E+02  0.35480182741E+02  0.00000000000E+00 0. -1.
<scales pt_clust_4="550.00000" pt_clust_5="550.00000" pt_clust_6="33.39516"></scales>
<mgrwt>
<rscale>  0 0.30000000E+03</rscale>
<asrwt>  1 0.33395157E+02</asrwt>
<pdfrwt beam="1">  1        1 0.82007998E+00 0.30000000E+03</pdfrwt>
<pdfrwt beam="2">0</pdfrwt>
<totfact> 0.72853277E-04</totfact>
</mgrwt>
<clustering>
<clus scale="   33.395">  1  6  2 -1</clus>
<clus scale="  459.751">  4  5 -1 -1</clus>
<clus scale="  300.000">  1  4  2 -1</clus>
</clustering>
</event>
<event>
 6    1  0.9843879E-012  0.3000000E+03  0.7818608E-02  0.1093470E+00
          1   -1    0    0  502    0  0.00000000000E+00  0.00000000000E+00  0.22430760943E+03  0.22430760943E+03  0.00000000000E+00 0.  1.
         13   -1    0    0    0    0 -0.00000000000E+00 -0.00000000000E+00 -0.27500000000E+03  0.27500000000E+03  0.00000000000E+00 0.  1.
    9000005    2    1    2  501    0  0.24995295948E+02 -0.16977275495E+02 -0.69670581885E+02  0.46362617941E+03  0.45736446249E+03 0.  0.
         13    1    3    3    0    0  0.21786920406E+03 -0.10670999874E+03 -0.63675453384E+02  0.25081582341E+03  0.00000000000E+00 0.  1.
          3    1    3    3  501    0 -0.19287390811E+03  0.89732723250E+02 -0.59951285009E+01  0.21281035599E+03  0.00000000000E+00 0.  1.
         21    1    1    2  502  501 -0.24995295948E+02  0.16977275495E+02  0.18978191312E+02  0.35681430019E+02  0.00000000000E+00 0.  1.
<scales pt_clust_4="550.00000" pt_clust_5="550.00000" pt_clust_6="30.21577"></scales>
<mgrwt>
<rscale>  0 0.30000000E+03</rscale>
<asrwt>  1 0.30215769E+02</asrwt>
<pdfrwt beam="1">  1        1 0.81566403E+00 0.30000000E+03</pdfrwt>
<pdfrwt beam="2">0</pdfrwt>
<totfact> 0.80846167E-04</totfact>
</mgrwt>
<clustering>
<clus scale="   30.216">  1  6  2 -1</clus>
<clus scale="  457.364">  4  5 -1 -1</clus>
<clus scale="  300.000">  1  4  2 -1</clus>
</clustering>
</event>
<event>
 6    1  0.9843879E-012  0.3000000E+03  0.7818608E-02  0.1093470E+00
          1   -1    0    0  502    0  0.00000000000E+00  0.00000000000E+00  0.21792960978E+03  0.21792960978E+03  0.00000000000E+00 0.  1.
         13   -1    0    0    0    0 -0.00000000000E+00 -0.00000000000E+00 -0.27500000000E+03  0.27500000000E+03  0.00000000000E+00 0.  1.
    9000005    2    1    2  501    0 -0.29939543697E+02  0.31850402779E+01 -0.61814090457E+02  0.46244972378E+03  0.45730979050E+03 0.  0.
         13    1    3    3    0    0 -0.13315113899E+03  0.32318854055E+02 -0.22721055466E+03  0.26532691211E+03  0.00000000000E+00 0.  1.
          1    1    3    3  501    0  0.10321159529E+03 -0.29133813777E+02  0.16539646421E+03  0.19712281167E+03  0.00000000000E+00 0.  1.
         21    1    1    2  502  501  0.29939543697E+02 -0.31850402779E+01  0.47437002344E+01  0.30479885995E+02  0.00000000000E+00 0. -1.
<scales pt_clust_4="550.00000" pt_clust_5="550.00000" pt_clust_6="30.10848"></scales>
<mgrwt>
<rscale>  0 0.30000000E+03</rscale>
<asrwt>  1 0.30108483E+02</asrwt>
<pdfrwt beam="1">  1        1 0.79247131E+00 0.30000000E+03</pdfrwt>
<pdfrwt beam="2">0</pdfrwt>
<totfact> 0.12133954E-03</totfact>
</mgrwt>
<clustering>
<clus scale="   30.108">  1  6  2 -1</clus>
<clus scale="  457.310">  4  5 -1 -1</clus>
<clus scale="  300.000">  1  4  2 -1</clus>
</clustering>
</event>
<event>
 6    1  0.9843879E-012  0.3000000E+03  0.7818608E-02  0.1093470E+00
          1   -1    0    0  502    0  0.00000000000E+00  0.00000000000E+00  0.23454953765E+03  0.23454953765E+03  0.00000000000E+00 0.  1.
         13   -1    0    0    0    0 -0.00000000000E+00 -0.00000000000E+00 -0.27500000000E+03  0.27500000000E+03  0.00000000000E+00 0.  1.
    9000005    2    1    2  501    0 -0.94481673098E+01  0.33165288878E+02 -0.57847976499E+02  0.47092470431E+03  0.46608420322E+03 0.  0.
         13    1    3    3    0    0 -0.19203494019E+03 -0.37327812532E+02 -0.15763168932E+03  0.25123402103E+03  0.00000000000E+00 0.  1.
          3    1    3    3  501    0  0.18258677288E+03  0.70493101410E+02  0.99783712823E+02  0.21969068328E+03  0.00000000000E+00 0.  1.
         21    1    1    2  502  501  0.94481673098E+01 -0.33165288878E+02  0.17397514147E+02  0.38624833338E+02  0.00000000000E+00 0. -1.
<scales pt_clust_4="550.00000" pt_clust_5="550.00000" pt_clust_6="34.48484"></scales>
<mgrwt>
<rscale>  0 0.30000000E+03</rscale>
<asrwt>  1 0.34484841E+02</asrwt>
<pdfrwt beam="1">  1        1 0.85290741E+00 0.30000000E+03</pdfrwt>
<pdfrwt beam="2">0</pdfrwt>
<totfact> 0.38291411E-04</totfact>
</mgrwt>
<clustering>
<clus scale="   34.485">  1  6  2 -1</clus>
<clus scale="  466.084">  4  5 -1 -1</clus>
<clus scale="  300.000">  1  4  2 -1</clus>
</clustering>
</event>
<event>
 6    1  0.9843879E-012  0.3000000E+03  0.7818608E-02  0.1093470E+00
          1   -1    0    0  502    0  0.00000000000E+00  0.00000000000E+00  0.23891961469E+03  0.23891961469E+03  0.00000000000E+00 0.  1.
         13   -1    0    0    0    0 -0.00000000000E+00 -0.00000000000E+00 -0.27500000000E+03  0.27500000000E+03  0.00000000000E+00 0.  1.
    9000005    2    1    2  501    0  0.13953825443E+02 -0.30279725493E+02 -0.48264638838E+02  0.47842275490E+03  0.47481289581E+03 0.  0.
         13    1    3    3    0    0  0.12006903001E+03 -0.11957163282E+03 -0.20708189021E+03  0.26757588941E+03  0.00000000000E+00 0.  1.
          3    1    3    3  501    0 -0.10611520457E+03  0.89291907326E+02  0.15881725137E+03  0.21084686549E+03  0.00000000000E+00 0.  1.
         21    1    1    2  502  501 -0.13953825443E+02  0.30279725493E+02  0.12184253524E+02  0.35496859782E+02  0.00000000000E+00 0. -1.
<scales pt_clust_4="550.00000" pt_clust_5="550.00000" pt_clust_6="33.34023"></scales>
<mgrwt>
<rscale>  0 0.30000000E+03</rscale>
<asrwt>  1 0.33340231E+02</asrwt>
<pdfrwt beam="1">  1        1 0.86879860E+00 0.30000000E+03</pdfrwt>
<pdfrwt beam="2">0</pdfrwt>
<totfact> 0.26293295E-04</totfact>
</mgrwt>
<clustering>
<clus scale="   33.340">  1  6  2 -1</clus>
<clus scale="  474.813">  4  5 -1 -1</clus>
<clus scale="  300.000">  1  4  2 -1</clus>
</clustering>
</event>
<event>
 6    1  0.9843879E-012  0.3000000E+03  0.7818608E-02  0.1093470E+00
          1   -1    0    0  502    0  0.00000000000E+00  0.00000000000E+00  0.23047845716E+03  0.23047845716E+03  0.00000000000E+00 0.  1.
         13   -1    0    0    0    0 -0.00000000000E+00 -0.00000000000E+00 -0.27500000000E+03  0.27500000000E+03  0.00000000000E+00 0.  1.
    9000005    2    1    2  501    0 -0.29545149992E+02  0.13858334437E+02 -0.53592746681E+02  0.47160728859E+03  0.46741446579E+03 0.  0.
         13    1    3    3    0    0 -0.10391169821E+03 -0.20907891899E+03 -0.22891161829E+02  0.23459676187E+03  0.00000000000E+00 0.  1.
          3    1    3    3  501    0  0.74366548213E+02  0.22293725343E+03 -0.30701584852E+02  0.23701052671E+03  0.00000000000E+00 0.  1.
         21    1    1    2  502  501  0.29545149992E+02 -0.13858334437E+02  0.90712038429E+01  0.33871168574E+02  0.00000000000E+00 0.  1.
<scales pt_clust_4="550.00000" pt_clust_5="550.00000" pt_clust_6="32.63387"></scales>
<mgrwt>
<rscale>  0 0.30000000E+03</rscale>
<asrwt>  1 0.32633868E+02</asrwt>
<pdfrwt beam="1">  1        1 0.83810348E+00 0.30000000E+03</pdfrwt>
<pdfrwt beam="2">0</pdfrwt>
<totfact> 0.52038315E-04</totfact>
</mgrwt>
<clustering>
<clus scale="   32.634">  1  6  2 -1</clus>
<clus scale="  467.414">  4  5 -1 -1</clus>
<clus scale="  300.000">  1  4  2 -1</clus>
</clustering>
</event>
<event>
 6    1  0.9843879E-012  0.3000000E+03  0.7818608E-02  0.1093470E+00
          1   -1    0    0  502    0  0.00000000000E+00  0.00000000000E+00  0.22193792164E+03  0.22193792164E+03  0.00000000000E+00 0.  1.
         13   -1    0    0    0    0 -0.00000000000E+00 -0.00000000000E+00 -0.27500000000E+03  0.27500000000E+03  0.00000000000E+00 0.  1.
    9000005    2    1    2  501    0  0.29875464196E+02 -0.13632294131E+02 -0.61800628540E+02  0.46295638160E+03  0.45763622100E+03 0.  0.
         13    1    3    3    0    0  0.18128000007E+02  0.16751891271E+03  0.11936332883E+03  0.20649168208E+03  0.00000000000E+00 0.  1.
          3    1    3    3  501    0  0.11747464189E+02 -0.18115120684E+03 -0.18116395737E+03  0.25646469952E+03  0.00000000000E+00 0.  1.
         21    1    1    2  502  501 -0.29875464196E+02  0.13632294131E+02  0.87385501782E+01  0.33981540039E+02  0.00000000000E+00 0. -1.
<scales pt_clust_4="550.00000" pt_clust_5="550.00000" pt_clust_6="32.83874"></scales>
<mgrwt>
<rscale>  0 0.30000000E+03</rscale>
<asrwt>  1 0.32838739E+02</asrwt>
<pdfrwt beam="1">  1        1 0.80704699E+00 0.30000000E+03</pdfrwt>
<pdfrwt beam="2">0</pdfrwt>
<totfact> 0.93033325E-04</totfact>
</mgrwt>
<clustering>
<clus scale="   32.839">  1  6  2 -1</clus>
<clus scale="  457.636">  4  5 -1 -1</clus>
<clus scale="  300.000">  1  4  2 -1</clus>
</clustering>
</event>
<event>
 6    1  0.9843879E-012  0.3000000E+03  0.7818608E-02  0.1093470E+00
          1   -1    0    0  502    0  0.00000000000E+00  0.00000000000E+00  0.24950268951E+03  0.24950268951E+03  0.00000000000E+00 0.  1.
         13   -1    0    0    0    0 -0.00000000000E+00 -0.00000000000E+00 -0.27500000000E+03  0.27500000000E+03  0.00000000000E+00 0.  1.
    9000005    2    1    2  501    0 -0.11566195005E+02 -0.35870942861E+02 -0.67922587179E+02  0.46775407269E+03  0.46125903055E+03 0.  0.
         13    1    3    3    0    0 -0.96314075226E+02  0.11234450640E+03 -0.20218529833E+03  0.25055255749E+03  0.00000000000E+00 0.  1.
          1    1    3    3  501    0  0.84747880221E+02 -0.14821544926E+03  0.13426271115E+03  0.21720151520E+03  0.00000000000E+00 0.  1.
         21    1    1    2  502  501  0.11566195005E+02  0.35870942861E+02  0.42425276694E+02  0.56748616821E+02  0.00000000000E+00 0. -1.
<scales pt_clust_4="550.00000" pt_clust_5="550.00000" pt_clust_6="37.68954"></scales>
<mgrwt>
<rscale>  0 0.30000000E+03</rscale>
<asrwt>  1 0.37689540E+02</asrwt>
<pdfrwt beam="1">  1        1 0.90728251E+00 0.30000000E+03</pdfrwt>
<pdfrwt beam="2">0</pdfrwt>
<totfact> 0.81931426E-05</totfact>
</mgrwt>
<clustering>
<clus scale="   37.690">  1  6  2 -1</clus>
<clus scale="  461.259">  4  5 -1 -1</clus>
<clus scale="  300.000">  1  4  2 -1</clus>
</clustering>
</event>
<event>
 6    1  0.9843879E-012  0.3000000E+03  0.7818608E-02  0.1093470E+00
          1   -1    0    0  502    0  0.00000000000E+00  0.00000000000E+00  0.22783182512E+03  0.22783182512E+03  0.00000000000E+00 0.  1.
         13   -1    0    0    0    0 -0.00000000000E+00 -0.00000000000E+00 -0.27500000000E+03  0.27500000000E+03  0.00000000000E+00 0.  1.
    9000005    2    1    2  501    0  0.12610877293E+01  0.32595128619E+02 -0.52631283771E+02  0.46975799391E+03  0.46565919733E+03 0.  0.
         13    1    3    3    0    0  0.10085736176E+03  0.13304430213E+03  0.14878700402E+03  0.22363042350E+03  0.00000000000E+00 0.  1.
          3    1    3    3  501    0 -0.99596274028E+02 -0.10044917351E+03 -0.20141828779E+03  0.24612757041E+03  0.00000000000E+00 0.  1.
         21    1    1    2  502  501 -0.12610877293E+01 -0.32595128619E+02  0.54631088907E+01  0.33073831207E+02  0.00000000000E+00 0.  1.
<scales pt_clust_4="550.00000" pt_clust_5="550.00000" pt_clust_6="32.61951"></scales>
<mgrwt>
<rscale>  0 0.30000000E+03</rscale>
<asrwt>  1 0.32619515E+02</asrwt>
<pdfrwt beam="1">  1        1 0.82847936E+00 0.30000000E+03</pdfrwt>
<pdfrwt beam="2">0</pdfrwt>
<totfact> 0.61684839E-04</totfact>
</mgrwt>
<clustering>
<clus scale="   32.620">  1  6  2 -1</clus>
<clus scale="  465.659">  4  5 -1 -1</clus>
<clus scale="  300.000">  1  4  2 -1</clus>
</clustering>
</event>
<event>
 6    1  0.9843879E-012  0.3000000E+03  0.7818608E-02  0.1093470E+00
          1   -1    0    0  502    0  0.00000000000E+00  0.00000000000E+00  0.22534830179E+03  0.22534830179E+03  0.00000000000E+00 0.  1.
         13   -1    0    0    0    0 -0.00000000000E+00 -0.00000000000E+00 -0.27500000000E+03  0.27500000000E+03  0.00000000000E+00 0.  1.
    9000005    2    1    2  501    0 -0.30806446087E+02 -0.14311005717E+02 -0.57542147397E+02  0.46547565931E+03  0.46065458717E+03 0.  0.
         13    1    3    3    0    0 -0.17123914262E+03 -0.15826737086E+03 -0.10973045452E+03  0.25770560198E+03  0.00000000000E+00 0.  1.
          3    1    3    3  501    0  0.14043269653E+03  0.14395636514E+03  0.52188307128E+02  0.20777005733E+03  0.00000000000E+00 0.  1.
         21    1    1    2  502  501  0.30806446087E+02  0.14311005717E+02  0.78904491861E+01  0.34872642480E+02  0.00000000000E+00 0. -1.
<scales pt_clust_4="550.00000" pt_clust_5="550.00000" pt_clust_6="33.96825"></scales>
<mgrwt>
<rscale>  0 0.30000000E+03</rscale>
<asrwt>  1 0.33968250E+02</asrwt>
<pdfrwt beam="1">  1        1 0.81944837E+00 0.30000000E+03</pdfrwt>
<pdfrwt beam="2">0</pdfrwt>
<totfact> 0.73537125E-04</totfact>
</mgrwt>
<clustering>
<clus scale="   33.968">  1  6  2 -1</clus>
<clus scale="  460.655">  4  5 -1 -1</clus>
<clus scale="  300.000">  1  4  2 -1</clus>
</clustering>
</event>
<event>
 6    1  0.9843879E-012  0.3000000E+03  0.7818608E-02  0.1093470E+00
          1   -1    0    0  502    0  0.00000000000E+00  0.00000000000E+00  0.22526389723E+03  0.22526389723E+03  0.00000000000E+00 0.  1.
         13   -1    0    0    0    0 -0.00000000000E+00 -0.00000000000E+00 -0.27500000000E+03  0.27500000000E+03  0.00000000000E+00 0.  1.
    9000005    2    1    2  501    0 -0.36781042176E+02  0.10485399901E+02 -0.44336850292E+02  0.46163825028E+03  0.45790973909E+03 0.  0.
         13    1    3    3    0    0 -0.24329575967E+03 -0.20545441788E+02 -0.62448318388E+02  0.25202129736E+03  0.00000000000E+00 0.  1.
          3    1    3    3  501    0  0.20651471749E+03  0.31030841688E+02  0.18111468096E+02  0.20961695293E+03  0.00000000000E+00 0.  1.
         21    1    1    2  502  501  0.36781042176E+02 -0.10485399901E+02 -0.53992524802E+01  0.38625646946E+02  0.00000000000E+00 0. -1.
<scales pt_clust_4="550.00000" pt_clust_5="550.00000" pt_clust_6="38.24644"></scales>
<mgrwt>
<rscale>  0 0.30000000E+03</rscale>
<asrwt>  1 0.38246440E+02</asrwt>
<pdfrwt beam="1">  1        1 0.81914144E+00 0.30000000E+03</pdfrwt>
<pdfrwt beam="2">0</pdfrwt>
<totfact> 0.72368550E-04</totfact>
</mgrwt>
<clustering>
<clus scale="   38.246">  1  6  2 -1</clus>
<clus scale="  457.910">  4  5 -1 -1</clus>
<clus scale="  300.000">  1  4  2 -1</clus>
</clustering>
</event>
<event>
 6    1  0.9843879E-012  0.3000000E+03  0.7818608E-02  0.1093470E+00
          1   -1    0    0  502    0  0.00000000000E+00  0.00000000000E+00  0.22011857182E+03  0.22011857182E+03  0.00000000000E+00 0.  1.
         13   -1    0    0    0    0 -0.00000000000E+00 -0.00000000000E+00 -0.27500000000E+03  0.27500000000E+03  0.00000000000E+00 0.  1.
    9000005    2    1    2  501    0 -0.30716597894E+02 -0.79210514964E+01 -0.60714242805E+02  0.46286529029E+03  0.45776828771E+03 0.  0.
         13    1    3    3    0    0 -0.17761281473E+03 -0.15222594944E+03 -0.97961922052E+02  0.25360518491E+03  0.00000000000E+00 0.  1.
          1    1    3    3  501    0  0.14689621684E+03  0.14430489795E+03  0.37247679247E+02  0.20926010538E+03  0.00000000000E+00 0.  1.
         21    1    1    2  502  501  0.30716597894E+02  0.79210514964E+01  0.58328146252E+01  0.32253281530E+02  0.00000000000E+00 0.  1.
<scales pt_clust_4="550.00000" pt_clust_5="550.00000" pt_clust_6="31.72148"></scales>
<mgrwt>
<rscale>  0 0.30000000E+03</rscale>
<asrwt>  1 0.31721482E+02</asrwt>
<pdfrwt beam="1">  1        1 0.80043117E+00 0.30000000E+03</pdfrwt>
<pdfrwt beam="2">0</pdfrwt>
<totfact> 0.10488972E-03</totfact>
</mgrwt>
<clustering>
<clus scale="   31.721">  1  6  2 -1</clus>
<clus scale="  457.768">  4  5 -1 -1</clus>
<clus scale="  300.000">  1  4  2 -1</clus>
</clustering>
</event>
<event>
 6    1  0.9843879E-012  0.3000000E+03  0.7818608E-02  0.1093470E+00
          1   -1    0    0  502    0  0.00000000000E+00  0.00000000000E+00  0.22658539716E+03  0.22658539716E+03  0.00000000000E+00 0.  1.
         13   -1    0    0    0    0 -0.00000000000E+00 -0.00000000000E+00 -0.27500000000E+03  0.27500000000E+03  0.00000000000E+00 0.  1.
    9000005    2    1    2  501    0  0.35127528856E+02  0.23791049671E+01 -0.64523256664E+02  0.46286728574E+03  0.45699373095E+03 0.  0.
         13    1    3    3    0    0  0.89253764166E+02  0.16995143874E+03 -0.17100101451E+03  0.25708184089E+03  0.00000000000E+00 0.  1.
          1    1    3    3  501    0 -0.54126235309E+02 -0.16757233378E+03  0.10647775785E+03  0.20578544485E+03  0.00000000000E+00 0.  1.
         21    1    1    2  502  501 -0.35127528856E+02 -0.23791049671E+01  0.16108653822E+02  0.38718111420E+02  0.00000000000E+00 0.  1.
<scales pt_clust_4="550.00000" pt_clust_5="550.00000" pt_clust_6="35.20800"></scales>
<mgrwt>
<rscale>  0 0.30000000E+03</rscale>
<asrwt>  1 0.35208002E+02</asrwt>
<pdfrwt beam="1">  1        1 0.82394690E+00 0.30000000E+03</pdfrwt>
<pdfrwt beam="2">0</pdfrwt>
<totfact> 0.66673907E-04</totfact>
</mgrwt>
<clustering>
<clus scale="   35.208">  1  6  2 -1</clus>
<clus scale="  456.994">  4  5 -1 -1</clus>
<clus scale="  300.000">  1  4  2 -1</clus>
</clustering>
</event>
<event>
 6    1  0.9843879E-012  0.3000000E+03  0.7818608E-02  0.1093470E+00
          1   -1    0    0  502    0  0.00000000000E+00  0.00000000000E+00  0.22567371701E+03  0.22567371701E+03  0.00000000000E+00 0.  1.
         13   -1    0    0    0    0 -0.00000000000E+00 -0.00000000000E+00 -0.27500000000E+03  0.27500000000E+03  0.00000000000E+00 0.  1.
    9000005    2    1    2  501    0 -0.30905911200E+02  0.49048038849E+01 -0.53999007384E+02  0.46903407729E+03  0.46486324915E+03 0.  0.
         13    1    3    3    0    0 -0.11574989061E+03  0.14911508913E+03  0.12312913528E+03  0.22537553314E+03  0.00000000000E+00 0.  1.
          1    1    3    3  501    0  0.84843979406E+02 -0.14421028525E+03 -0.17712814266E+03  0.24365854415E+03  0.00000000000E+00 0.  1.
         21    1    1    2  502  501  0.30905911200E+02 -0.49048038849E+01  0.46727243893E+01  0.31639639718E+02  0.00000000000E+00 0.  1.
<scales pt_clust_4="550.00000" pt_clust_5="550.00000" pt_clust_6="31.29269"></scales>
<mgrwt>
<rscale>  0 0.30000000E+03</rscale>
<asrwt>  1 0.31292690E+02</asrwt>
<pdfrwt beam="1">  1        1 0.82063170E+00 0.30000000E+03</pdfrwt>
<pdfrwt beam="2">0</pdfrwt>
<totfact> 0.72947255E-04</totfact>
</mgrwt>
<clustering>
<clus scale="   31.293">  1  6  2 -1</clus>
<clus scale="  464.863">  4  5 -1 -1</clus>
<clus scale="  300.000">  1  4  2 -1</clus>
</clustering>
</event>
<event>
 6    1  0.9843879E-012  0.3000000E+03  0.7818608E-02  0.1093470E+00
          1   -1    0    0  502    0  0.00000000000E+00  0.00000000000E+00  0.23109488961E+03  0.23109488961E+03  0.00000000000E+00 0.  1.
         13   -1    0    0    0    0 -0.00000000000E+00 -0.00000000000E+00 -0.27500000000E+03  0.27500000000E+03  0.00000000000E+00 0.  1.
    9000005    2    1    2  501    0  0.15239807319E+02  0.27201298170E+02 -0.26078838610E+02  0.47017917836E+03  0.46841882071E+03 0.  0.
         13    1    3    3    0    0 -0.13705962919E+03 -0.40979705195E+02  0.16374997243E+03  0.21743673025E+03  0.00000000000E+00 0.  1.
          3    1    3    3  501    0  0.15229943650E+03  0.68181003365E+02 -0.18982881104E+03  0.25274244811E+03  0.00000000000E+00 0.  1.
         21    1    1    2  502  501 -0.15239807319E+02 -0.27201298170E+02 -0.17826271778E+02  0.35915711252E+02  0.00000000000E+00 0.  1.
<scales pt_clust_4="550.00000" pt_clust_5="550.00000" pt_clust_6="31.17953"></scales>
<mgrwt>
<rscale>  0 0.30000000E+03</rscale>
<asrwt>  1 0.31179534E+02</asrwt>
<pdfrwt beam="1">  1        1 0.84034505E+00 0.30000000E+03</pdfrwt>
<pdfrwt beam="2">0</pdfrwt>
<totfact> 0.50491971E-04</totfact>
</mgrwt>
<clustering>
<clus scale="   31.180">  1  6  2 -1</clus>
<clus scale="  468.419">  4  5 -1 -1</clus>
<clus scale="  300.000">  1  4  2 -1</clus>
</clustering>
</event>
<event>
 6    1  0.9843879E-012  0.3000000E+03  0.7818608E-02  0.1093470E+00
          1   -1    0    0  502    0  0.00000000000E+00  0.00000000000E+00  0.24256256755E+03  0.24256256755E+03  0.00000000000E+00 0.  1.
         13   -1    0    0    0    0 -0.00000000000E+00 -0.00000000000E+00 -0.27500000000E+03  0.27500000000E+03  0.00000000000E+00 0.  1.
    9000005    2    1    2  501    0 -0.20890436607E+02  0.30319645197E+02 -0.34487225191E+02  0.48068584215E+03  0.47803119031E+03 0.  0.
         13    1    3    3    0    0  0.84672692806E+01 -0.20748720928E+03 -0.10254051738E+03  0.23159705173E+03  0.00000000000E+00 0.  1.
          1    1    3    3  501    0 -0.29357705887E+02  0.23780685448E+03  0.68053292193E+02  0.24908879042E+03  0.00000000000E+00 0.  1.
         21    1    1    2  502  501  0.20890436607E+02 -0.30319645197E+02  0.20497927461E+01  0.36876725407E+02  0.00000000000E+00 0. -1.
<scales pt_clust_4="550.00000" pt_clust_5="550.00000" pt_clust_6="36.81971"></scales>
<mgrwt>
<rscale>  0 0.30000000E+03</rscale>
<asrwt>  1 0.36819712E+02</asrwt>
<pdfrwt beam="1">  1        1 0.88204570E+00 0.30000000E+03</pdfrwt>
<pdfrwt beam="2">0</pdfrwt>
<totfact> 0.18417300E-04</totfact>
</mgrwt>
<clustering>
<clus scale="   36.820">  1  6  2 -1</clus>
<clus scale="  478.031">  4  5 -1 -1</clus>
<clus scale="  300.000">  1  4  2 -1</clus>
</clustering>
</event>
<event>
 6    1  0.9843879E-012  0.3000000E+03  0.7818608E-02  0.1093470E+00
          1   -1    0    0  502    0  0.00000000000E+00  0.00000000000E+00  0.23120139019E+03  0.23120139019E+03  0.00000000000E+00 0.  1.
         13   -1    0    0    0    0 -0.00000000000E+00 -0.00000000000E+00 -0.27500000000E+03  0.27500000000E+03  0.00000000000E+00 0.  1.
    9000005    2    1    2  501    0 -0.27549107410E+02  0.27083439762E+02 -0.51315317863E+02  0.46684447303E+03  0.46240462165E+03 0.  0.
         13    1    3    3    0    0  0.93155047445E+02 -0.12212792615E+03 -0.17935111091E+03  0.23613537261E+03  0.00000000000E+00 0.  1.
          1    1    3    3  501    0 -0.12070415485E+03  0.14921136591E+03  0.12803579305E+03  0.23070910042E+03  0.00000000000E+00 0.  1.
         21    1    1    2  502  501  0.27549107410E+02 -0.27083439762E+02  0.75167080508E+01  0.39356917160E+02  0.00000000000E+00 0. -1.
<scales pt_clust_4="550.00000" pt_clust_5="550.00000" pt_clust_6="38.63245"></scales>
<mgrwt>
<rscale>  0 0.30000000E+03</rscale>
<asrwt>  1 0.38632448E+02</asrwt>
<pdfrwt beam="1">  1        1 0.84073233E+00 0.30000000E+03</pdfrwt>
<pdfrwt beam="2">0</pdfrwt>
<totfact> 0.48167950E-04</totfact>
</mgrwt>
<clustering>
<clus scale="   38.632">  1  6  2 -1</clus>
<clus scale="  462.405">  4  5 -1 -1</clus>
<clus scale="  300.000">  1  4  2 -1</clus>
</clustering>
</event>
<event>
 6    1  0.9843879E-012  0.3000000E+03  0.7818608E-02  0.1093470E+00
          1   -1    0    0  502    0  0.00000000000E+00  0.00000000000E+00  0.22474380680E+03  0.22474380680E+03  0.00000000000E+00 0.  1.
         13   -1    0    0    0    0 -0.00000000000E+00 -0.00000000000E+00 -0.27500000000E+03  0.27500000000E+03  0.00000000000E+00 0.  1.
    9000005    2    1    2  501    0  0.28578701868E+02  0.21267893516E+02 -0.55919060334E+02  0.46367257783E+03  0.45890767332E+03 0.  0.
         13    1    3    3    0    0  0.18829826359E+03 -0.69403653711E+01 -0.17913348385E+03  0.25998694155E+03  0.00000000000E+00 0.  1.
          3    1    3    3  501    0 -0.15971956172E+03  0.28208258887E+02  0.12321442352E+03  0.20368563628E+03  0.00000000000E+00 0.  1.
         21    1    1    2  502  501 -0.28578701868E+02 -0.21267893516E+02  0.56628671361E+01  0.36071228968E+02  0.00000000000E+00 0. -1.
<scales pt_clust_4="550.00000" pt_clust_5="550.00000" pt_clust_6="35.62395"></scales>
<mgrwt>
<rscale>  0 0.30000000E+03</rscale>
<asrwt>  1 0.35623946E+02</asrwt>
<pdfrwt beam="1">  1        1 0.81725021E+00 0.30000000E+03</pdfrwt>
<pdfrwt beam="2">0</pdfrwt>
<totfact> 0.76055484E-04</totfact>
</mgrwt>
<clustering>
<clus scale="   35.624">  1  6  2 -1</clus>
<clus scale="  458.908">  4  5 -1 -1</clus>
<clus scale="  300.000">  1  4  2 -1</clus>
</clustering>
</event>
<event>
 6    1  0.9843879E-012  0.3000000E+03  0.7818608E-02  0.1093470E+00
          1   -1    0    0  502    0  0.00000000000E+00  0.00000000000E+00  0.25747570938E+03  0.25747570938E+03  0.00000000000E+00 0.  1.
         13   -1    0    0    0    0 -0.00000000000E+00 -0.00000000000E+00 -0.27500000000E+03  0.27500000000E+03  0.00000000000E+00 0.  1.
    9000005    2    1    2  501    0  0.18230028945E+02 -0.40663802027E+02 -0.20174362987E+02  0.48783378252E+03  0.48537502582E+03 0.  0.
         13    1    3    3    0    0 -0.33157270732E+01 -0.27198115446E+02 -0.25257077571E+03  0.25405260927E+03  0.00000000000E+00 0.  1.
          1    1    3    3  501    0  0.21545756018E+02 -0.13465686581E+02  0.23239641273E+03  0.23378117325E+03  0.00000000000E+00 0.  1.
         21    1    1    2  502  501 -0.18230028945E+02  0.40663802027E+02  0.26500723689E+01  0.44641926865E+02  0.00000000000E+00 0.  1.
<scales pt_clust_4="550.00000" pt_clust_5="550.00000" pt_clust_6="44.56320"></scales>
<mgrwt>
<rscale>  0 0.30000000E+03</rscale>
<asrwt>  1 0.44563200E+02</asrwt>
<pdfrwt beam="1">  1        1 0.93627531E+00 0.30000000E+03</pdfrwt>
<pdfrwt beam="2">0</pdfrwt>
<totfact> 0.20786787E-05</totfact>
</mgrwt>
<clustering>
<clus scale="   44.563">  1  6  2 -1</clus>
<clus scale="  485.375">  4  5 -1 -1</clus>
<clus scale="  300.000">  1  4  2 -1</clus>
</clustering>
</event>
<event>
 6    1  0.9843879E-012  0.3000000E+03  0.7818608E-02  0.1093470E+00
          1   -1    0    0  502    0  0.00000000000E+00  0.00000000000E+00  0.21924630679E+03  0.21924630679E+03  0.00000000000E+00 0.  1.
         13   -1    0    0    0    0 -0.00000000000E+00 -0.00000000000E+00 -0.27500000000E+03  0.27500000000E+03  0.00000000000E+00 0.  1.
    9000005    2    1    2  501    0 -0.11779091047E+01  0.31742183847E+02 -0.56056995286E+02  0.46248082714E+03  0.45797071418E+03 0.  0.
         13    1    3    3    0    0 -0.73391903016E+02 -0.14139672754E+03  0.12444132893E+03  0.20215105820E+03  0.00000000000E+00 0.  1.
          3    1    3    3  501    0  0.72213993911E+02  0.17313891138E+03 -0.18049832422E+03  0.26032976894E+03  0.00000000000E+00 0.  1.
         21    1    1    2  502  501  0.11779091047E+01 -0.31742183847E+02  0.30330207789E+00  0.31765479650E+02  0.00000000000E+00 0.  1.
<scales pt_clust_4="550.00000" pt_clust_5="550.00000" pt_clust_6="31.76403"></scales>
<mgrwt>
<rscale>  0 0.30000000E+03</rscale>
<asrwt>  1 0.31764032E+02</asrwt>
<pdfrwt beam="1">  1        1 0.79725930E+00 0.30000000E+03</pdfrwt>
<pdfrwt beam="2">0</pdfrwt>
<totfact> 0.11056606E-03</totfact>
</mgrwt>
<clustering>
<clus scale="   31.764">  1  6  2 -1</clus>
<clus scale="  457.971">  4  5 -1 -1</clus>
<clus scale="  300.000">  1  4  2 -1</clus>
</clustering>
</event>
<event>
 6    1  0.9843879E-012  0.3000000E+03  0.7818608E-02  0.1093470E+00
          1   -1    0    0  502    0  0.00000000000E+00  0.00000000000E+00  0.23703814529E+03  0.23703814529E+03  0.00000000000E+00 0.  1.
         13   -1    0    0    0    0 -0.00000000000E+00 -0.00000000000E+00 -0.27500000000E+03  0.27500000000E+03  0.00000000000E+00 0.  1.
    9000005    2    1    2  501    0 -0.89526152142E+01  0.28882281695E+02 -0.51690265576E+02  0.47882964066E+03  0.47507010609E+03 0.  0.
         13    1    3    3    0    0 -0.21423130092E+03 -0.48044925710E+02  0.66991473528E+02  0.22954568762E+03  0.00000000000E+00 0.  1.
          1    1    3    3  501    0  0.20527868570E+03  0.76927207405E+02 -0.11868173910E+03  0.24928395303E+03  0.00000000000E+00 0.  1.
         21    1    1    2  502  501  0.89526152142E+01 -0.28882281695E+02  0.13728410865E+02  0.33208504633E+02  0.00000000000E+00 0. -1.
<scales pt_clust_4="550.00000" pt_clust_5="550.00000" pt_clust_6="30.23798"></scales>
<mgrwt>
<rscale>  0 0.30000000E+03</rscale>
<asrwt>  1 0.30237981E+02</asrwt>
<pdfrwt beam="1">  1        1 0.86195689E+00 0.30000000E+03</pdfrwt>
<pdfrwt beam="2">0</pdfrwt>
<totfact> 0.31684436E-04</totfact>
</mgrwt>
<clustering>
<clus scale="   30.238">  1  6  2 -1</clus>
<clus scale="  475.070">  4  5 -1 -1</clus>
<clus scale="  300.000">  1  4  2 -1</clus>
</clustering>
</event>
<event>
 6    1  0.9843879E-012  0.3000000E+03  0.7818608E-02  0.1093470E+00
          1   -1    0    0  502    0  0.00000000000E+00  0.00000000000E+00  0.22991151612E+03  0.22991151612E+03  0.00000000000E+00 0.  1.
         13   -1    0    0    0    0 -0.00000000000E+00 -0.00000000000E+00 -0.27500000000E+03  0.27500000000E+03  0.00000000000E+00 0.  1.
    9000005    2    1    2  501    0  0.45931337233E+01 -0.35208257578E+02 -0.52768279033E+02  0.46858387468E+03  0.46424738886E+03 0.  0.
         13    1    3    3    0    0 -0.11934303125E+03 -0.19808640047E+03 -0.10996508980E+03  0.25607284536E+03  0.00000000000E+00 0.  1.
          3    1    3    3  501    0  0.12393616497E+03  0.16287814289E+03  0.57196810770E+02  0.21251102932E+03  0.00000000000E+00 0.  1.
         21    1    1    2  502  501 -0.45931337233E+01  0.35208257578E+02  0.76797951564E+01  0.36327641442E+02  0.00000000000E+00 0.  1.
<scales pt_clust_4="550.00000" pt_clust_5="550.00000" pt_clust_6="35.50659"></scales>
<mgrwt>
<rscale>  0 0.30000000E+03</rscale>
<asrwt>  1 0.35506595E+02</asrwt>
<pdfrwt beam="1">  1        1 0.83604188E+00 0.30000000E+03</pdfrwt>
<pdfrwt beam="2">0</pdfrwt>
<totfact> 0.53020878E-04</totfact>
</mgrwt>
<clustering>
<clus scale="   35.507">  1  6  2 -1</clus>
<clus scale="  464.247">  4  5 -1 -1</clus>
<clus scale="  300.000">  1  4  2 -1</clus>
</clustering>
</event>
<event>
 6    1  0.9843879E-012  0.3000000E+03  0.7818608E-02  0.1093470E+00
          1   -1    0    0  502    0  0.00000000000E+00  0.00000000000E+00  0.23541864171E+03  0.23541864171E+03  0.00000000000E+00 0.  1.
         13   -1    0    0    0    0 -0.00000000000E+00 -0.00000000000E+00 -0.27500000000E+03  0.27500000000E+03  0.00000000000E+00 0.  1.
    9000005    2    1    2  501    0 -0.29140766378E+02 -0.83005246903E+01 -0.50083859462E+02  0.47835019139E+03  0.47475512598E+03 0.  0.
         13    1    3    3    0    0 -0.16282575948E+03 -0.42323062764E+01 -0.21263363935E+03  0.26784922055E+03  0.00000000000E+00 0.  1.
          3    1    3    3  501    0  0.13368499310E+03 -0.40682184139E+01  0.16254977989E+03  0.21050097084E+03  0.00000000000E+00 0.  1.
         21    1    1    2  502  501  0.29140766378E+02  0.83005246903E+01  0.10502501173E+02  0.32068450323E+02  0.00000000000E+00 0.  1.
<scales pt_clust_4="550.00000" pt_clust_5="550.00000" pt_clust_6="30.29988"></scales>
<mgrwt>
<rscale>  0 0.30000000E+03</rscale>
<asrwt>  1 0.30299884E+02</asrwt>
<pdfrwt beam="1">  1        1 0.85606779E+00 0.30000000E+03</pdfrwt>
<pdfrwt beam="2">0</pdfrwt>
<totfact> 0.36532481E-04</totfact>
</mgrwt>
<clustering>
<clus scale="   30.300">  1  6  2 -1</clus>
<clus scale="  474.755">  4  5 -1 -1</clus>
<clus scale="  300.000">  1  4  2 -1</clus>
</clustering>
</event>
<event>
 6    1  0.9843879E-012  0.3000000E+03  0.7818608E-02  0.1093470E+00
          1   -1    0    0  502    0  0.00000000000E+00  0.00000000000E+00  0.23352402101E+03  0.23352402101E+03  0.00000000000E+00 0.  1.
         13   -1    0    0    0    0 -0.00000000000E+00 -0.00000000000E+00 -0.27500000000E+03  0.27500000000E+03  0.00000000000E+00 0.  1.
    9000005    2    1    2  501    0 -0.14820775822E+01 -0.35477360270E+02 -0.66132430362E+02  0.46529463008E+03  0.45920012499E+03 0.  0.
         13    1    3    3    0    0 -0.19674895830E+03 -0.80468885568E+02  0.69135322760E+02  0.22352871625E+03  0.00000000000E+00 0.  1.
          3    1    3    3  501    0  0.19526688072E+03  0.44991525298E+02 -0.13526775312E+03  0.24176591383E+03  0.00000000000E+00 0.  1.
         21    1    1    2  502  501  0.14820775822E+01  0.35477360270E+02  0.24656451371E+02  0.43229390927E+02  0.00000000000E+00 0. -1.
<scales pt_clust_4="550.00000" pt_clust_5="550.00000" pt_clust_6="35.50830"></scales>
<mgrwt>
<rscale>  0 0.30000000E+03</rscale>
<asrwt>  1 0.35508304E+02</asrwt>
<pdfrwt beam="1">  1        1 0.84917826E+00 0.30000000E+03</pdfrwt>
<pdfrwt beam="2">0</pdfrwt>
<totfact> 0.41312774E-04</totfact>
</mgrwt>
<clustering>
<clus scale="   35.508">  1  6  2 -1</clus>
<clus scale="  459.200">  4  5 -1 -1</clus>
<clus scale="  300.000">  1  4  2 -1</clus>
</clustering>
</event>
<event>
 6    1  0.9843879E-012  0.3000000E+03  0.7818608E-02  0.1093470E+00
          1   -1    0    0  502    0  0.00000000000E+00  0.00000000000E+00  0.22414569746E+03  0.22414569746E+03  0.00000000000E+00 0.  1.
         13   -1    0    0    0    0 -0.00000000000E+00 -0.00000000000E+00 -0.27500000000E+03  0.27500000000E+03  0.00000000000E+00 0.  1.
    9000005    2    1    2  501    0  0.29203748961E+02 -0.16130230572E+02 -0.45531878267E+02  0.46536150750E+03  0.46192546740E+03 0.  0.
         13    1    3    3    0    0 -0.17741843551E+02  0.19605607892E+03  0.82150256618E+02  0.21331062739E+03  0.00000000000E+00 0.  1.
          1    1    3    3  501    0  0.46945592512E+02 -0.21218630950E+03 -0.12768213488E+03  0.25205088011E+03  0.00000000000E+00 0.  1.
         21    1    1    2  502  501 -0.29203748961E+02  0.16130230572E+02 -0.53224242684E+01  0.33784189968E+02  0.00000000000E+00 0.  1.
<scales pt_clust_4="550.00000" pt_clust_5="550.00000" pt_clust_6="33.36232"></scales>
<mgrwt>
<rscale>  0 0.30000000E+03</rscale>
<asrwt>  1 0.33362320E+02</asrwt>
<pdfrwt beam="1">  1        1 0.81507526E+00 0.30000000E+03</pdfrwt>
<pdfrwt beam="2">0</pdfrwt>
<totfact> 0.80211603E-04</totfact>
</mgrwt>
<clustering>
<clus scale="   33.362">  1  6  2 -1</clus>
<clus scale="  461.925">  4  5 -1 -1</clus>
<clus scale="  300.000">  1  4  2 -1</clus>
</clustering>
</event>
<event>
 6    1  0.9843879E-012  0.3000000E+03  0.7818608E-02  0.1093470E+00
          1   -1    0    0  502    0  0.00000000000E+00  0.00000000000E+00  0.24506368194E+03  0.24506368194E+03  0.00000000000E+00 0.  1.
         13   -1    0    0    0    0 -0.00000000000E+00 -0.00000000000E+00 -0.27500000000E+03  0.27500000000E+03  0.00000000000E+00 0.  1.
    9000005    2    1    2  501    0 -0.21842720645E+02  0.29657455938E+02 -0.38801252936E+02  0.48217890652E+03  0.47920172321E+03 0.  0.
         13    1    3    3    0    0 -0.19297897815E+03 -0.82974269847E+02 -0.14123257727E+03  0.25312498167E+03  0.00000000000E+00 0.  1.
          1    1    3    3  501    0  0.17113625750E+03  0.11263172578E+03  0.10243132433E+03  0.22905392485E+03  0.00000000000E+00 0.  1.
         21    1    1    2  502  501  0.21842720645E+02 -0.29657455938E+02  0.88649348712E+01  0.37884775413E+02  0.00000000000E+00 0. -1.
<scales pt_clust_4="550.00000" pt_clust_5="550.00000" pt_clust_6="36.83299"></scales>
<mgrwt>
<rscale>  0 0.30000000E+03</rscale>
<asrwt>  1 0.36832990E+02</asrwt>
<pdfrwt beam="1">  1        1 0.89114066E+00 0.30000000E+03</pdfrwt>
<pdfrwt beam="2">0</pdfrwt>
<totfact> 0.13874581E-04</totfact>
</mgrwt>
<clustering>
<clus scale="   36.833">  1  6  2 -1</clus>
<clus scale="  479.202">  4  5 -1 -1</clus>
<clus scale="  300.000">  1  4  2 -1</clus>
</clustering>
</event>
<event>
 6    1  0.9843879E-012  0.3000000E+03  0.7818608E-02  0.1093470E+00
          1   -1    0    0  502    0  0.00000000000E+00  0.00000000000E+00  0.23351314808E+03  0.23351314808E+03  0.00000000000E+00 0.  1.
         13   -1    0    0    0    0 -0.00000000000E+00 -0.00000000000E+00 -0.27500000000E+03  0.27500000000E+03  0.00000000000E+00 0.  1.
    9000005    2    1    2  501    0 -0.29859647321E+02  0.67427808226E+01 -0.57161753704E+02  0.47412178030E+03  0.46966683174E+03 0.  0.
         13    1    3    3    0    0 -0.11781050690E+03 -0.14554863162E+03 -0.17989540100E+03  0.25966531344E+03  0.00000000000E+00 0.  1.
          1    1    3    3  501    0  0.87950859580E+02  0.15229141244E+03  0.12273364729E+03  0.21445646687E+03  0.00000000000E+00 0.  1.
         21    1    1    2  502  501  0.29859647321E+02 -0.67427808226E+01  0.15674901780E+02  0.34391367771E+02  0.00000000000E+00 0.  1.
<scales pt_clust_4="550.00000" pt_clust_5="550.00000" pt_clust_6="30.61150"></scales>
<mgrwt>
<rscale>  0 0.30000000E+03</rscale>
<asrwt>  1 0.30611495E+02</asrwt>
<pdfrwt beam="1">  1        1 0.84913872E+00 0.30000000E+03</pdfrwt>
<pdfrwt beam="2">0</pdfrwt>
<totfact> 0.42524682E-04</totfact>
</mgrwt>
<clustering>
<clus scale="   30.611">  1  6  2 -1</clus>
<clus scale="  469.667">  4  5 -1 -1</clus>
<clus scale="  300.000">  1  4  2 -1</clus>
</clustering>
</event>
<event>
 6    1  0.9843879E-012  0.3000000E+03  0.7818608E-02  0.1093470E+00
          1   -1    0    0  502    0  0.00000000000E+00  0.00000000000E+00  0.24578808124E+03  0.24578808124E+03  0.00000000000E+00 0.  1.
         13   -1    0    0    0    0 -0.00000000000E+00 -0.00000000000E+00 -0.27500000000E+03  0.27500000000E+03  0.00000000000E+00 0.  1.
    9000005    2    1    2  501    0  0.20206712789E+02  0.25061371808E+02 -0.44009693623E+02  0.48535705332E+03  0.48228438962E+03 0.  0.
         13    1    3    3    0    0  0.13910447323E+03 -0.15849880482E+03 -0.13291333563E+03  0.24927470869E+03  0.00000000000E+00 0.  1.
          1    1    3    3  501    0 -0.11889776044E+03  0.18356017663E+03  0.88903642011E+02  0.23608234463E+03  0.00000000000E+00 0.  1.
         21    1    1    2  502  501 -0.20206712789E+02 -0.25061371808E+02  0.14797774863E+02  0.35431027921E+02  0.00000000000E+00 0.  1.
<scales pt_clust_4="550.00000" pt_clust_5="550.00000" pt_clust_6="32.19291"></scales>
<mgrwt>
<rscale>  0 0.30000000E+03</rscale>
<asrwt>  1 0.32192912E+02</asrwt>
<pdfrwt beam="1">  1        1 0.89377484E+00 0.30000000E+03</pdfrwt>
<pdfrwt beam="2">0</pdfrwt>
<totfact> 0.13226110E-04</totfact>
</mgrwt>
<clustering>
<clus scale="   32.193">  1  6  2 -1</clus>
<clus scale="  482.284">  4  5 -1 -1</clus>
<clus scale="  300.000">  1  4  2 -1</clus>
</clustering>
</event>
<event>
 6    1  0.9843879E-012  0.3000000E+03  0.7818608E-02  0.1093470E+00
          1   -1    0    0  502    0  0.00000000000E+00  0.00000000000E+00  0.24427820520E+03  0.24427820520E+03  0.00000000000E+00 0.  1.
         13   -1    0    0    0    0 -0.00000000000E+00 -0.00000000000E+00 -0.27500000000E+03  0.27500000000E+03  0.00000000000E+00 0.  1.
    9000005    2    1    2  501    0  0.31313841959E+02 -0.17507130988E+02 -0.35525393896E+02  0.48308247481E+03  0.48043685072E+03 0.  0.
         13    1    3    3    0    0 -0.20756088137E+03  0.41652175881E+02 -0.91627382253E+02  0.23067726462E+03  0.00000000000E+00 0.  1.
          3    1    3    3  501    0  0.23887472333E+03 -0.59159306869E+02  0.56101988357E+02  0.25240521020E+03  0.00000000000E+00 0.  1.
         21    1    1    2  502  501 -0.31313841959E+02  0.17507130988E+02  0.48035990939E+01  0.36195730383E+02  0.00000000000E+00 0. -1.
<scales pt_clust_4="550.00000" pt_clust_5="550.00000" pt_clust_6="35.87557"></scales>
<mgrwt>
<rscale>  0 0.30000000E+03</rscale>
<asrwt>  1 0.35875567E+02</asrwt>
<pdfrwt beam="1">  1        1 0.88828438E+00 0.30000000E+03</pdfrwt>
<pdfrwt beam="2">0</pdfrwt>
<totfact> 0.15221147E-04</totfact>
</mgrwt>
<clustering>
<clus scale="   35.876">  1  6  2 -1</clus>
<clus scale="  480.437">  4  5 -1 -1</clus>
<clus scale="  300.000">  1  4  2 -1</clus>
</clustering>
</event>
<event>
 6    1  0.9843879E-012  0.3000000E+03  0.7818608E-02  0.1093470E+00
          1   -1    0    0  502    0  0.00000000000E+00  0.00000000000E+00  0.25451143597E+03  0.25451143597E+03  0.00000000000E+00 0.  1.
         13   -1    0    0    0    0 -0.00000000000E+00 -0.00000000000E+00 -0.27500000000E+03  0.27500000000E+03  0.00000000000E+00 0.  1.
    9000005    2    1    2  501    0 -0.43580953227E+02 -0.29289541583E+02 -0.51000509200E+02  0.46878124967E+03  0.46303091838E+03 0.  0.
         13    1    3    3    0    0  0.14749082547E+03  0.15918015755E+02  0.13333644079E+03  0.19946311254E+03  0.00000000000E+00 0.  1.
          1    1    3    3  501    0 -0.19107177869E+03 -0.45207557338E+02 -0.18433694999E+03  0.26931813713E+03  0.00000000000E+00 0.  1.
         21    1    1    2  502  501  0.43580953227E+02  0.29289541583E+02  0.30511945172E+02  0.60730186304E+02  0.00000000000E+00 0.  1.
<scales pt_clust_4="550.00000" pt_clust_5="550.00000" pt_clust_6="52.50883"></scales>
<mgrwt>
<rscale>  0 0.30000000E+03</rscale>
<asrwt>  1 0.52508825E+02</asrwt>
<pdfrwt beam="1">  1        1 0.92549613E+00 0.30000000E+03</pdfrwt>
<pdfrwt beam="2">0</pdfrwt>
<totfact> 0.29772137E-05</totfact>
</mgrwt>
<clustering>
<clus scale="   52.509">  1  6  2 -1</clus>
<clus scale="  463.031">  4  5 -1 -1</clus>
<clus scale="  300.000">  1  4  2 -1</clus>
</clustering>
</event>
<event>
 6    1  0.9843879E-012  0.3000000E+03  0.7818608E-02  0.1093470E+00
          1   -1    0    0  502    0  0.00000000000E+00  0.00000000000E+00  0.22088096691E+03  0.22088096691E+03  0.00000000000E+00 0.  1.
         13   -1    0    0    0    0 -0.00000000000E+00 -0.00000000000E+00 -0.27500000000E+03  0.27500000000E+03  0.00000000000E+00 0.  1.
    9000005    2    1    2  501    0  0.31131105321E+02  0.23428086327E+01 -0.54535159122E+02  0.46465905743E+03  0.46039040129E+03 0.  0.
         13    1    3    3    0    0  0.17141614822E+03  0.29542204049E+02  0.13999675729E+03  0.22328307089E+03  0.00000000000E+00 0.  1.
          1    1    3    3  501    0 -0.14028504290E+03 -0.27199395416E+02 -0.19453191642E+03  0.24137598654E+03  0.00000000000E+00 0.  1.
         21    1    1    2  502  501 -0.31131105321E+02 -0.23428086327E+01  0.41612603062E+00  0.31221909481E+02  0.00000000000E+00 0.  1.
<scales pt_clust_4="550.00000" pt_clust_5="550.00000" pt_clust_6="31.21914"></scales>
<mgrwt>
<rscale>  0 0.30000000E+03</rscale>
<asrwt>  1 0.31219136E+02</asrwt>
<pdfrwt beam="1">  1        1 0.80320352E+00 0.30000000E+03</pdfrwt>
<pdfrwt beam="2">0</pdfrwt>
<totfact> 0.10042836E-03</totfact>
</mgrwt>
<clustering>
<clus scale="   31.219">  1  6  2 -1</clus>
<clus scale="  460.390">  4  5 -1 -1</clus>
<clus scale="  300.000">  1  4  2 -1</clus>
</clustering>
</event>
<event>
 6    1  0.9843879E-012  0.3000000E+03  0.7818608E-02  0.1093470E+00
          1   -1    0    0  502    0  0.00000000000E+00  0.00000000000E+00  0.22742372020E+03  0.22742372020E+03  0.00000000000E+00 0.  1.
         13   -1    0    0    0    0 -0.00000000000E+00 -0.00000000000E+00 -0.27500000000E+03  0.27500000000E+03  0.00000000000E+00 0.  1.
    9000005    2    1    2  501    0 -0.30462352093E+02 -0.90305611369E+01 -0.64614478430E+02  0.46637089587E+03  0.46077898798E+03 0.  0.
         13    1    3    3    0    0  0.12500944403E+03 -0.16397186046E+03 -0.12189336420E+03  0.23952478860E+03  0.00000000000E+00 0.  1.
          1    1    3    3  501    0 -0.15547179613E+03  0.15494129932E+03  0.57278885768E+02  0.22684610727E+03  0.00000000000E+00 0.  1.
         21    1    1    2  502  501  0.30462352093E+02  0.90305611369E+01  0.17038198628E+02  0.36052824327E+02  0.00000000000E+00 0.  1.
<scales pt_clust_4="550.00000" pt_clust_5="550.00000" pt_clust_6="31.77272"></scales>
<mgrwt>
<rscale>  0 0.30000000E+03</rscale>
<asrwt>  1 0.31772723E+02</asrwt>
<pdfrwt beam="1">  1        1 0.82699535E+00 0.30000000E+03</pdfrwt>
<pdfrwt beam="2">0</pdfrwt>
<totfact> 0.63863653E-04</totfact>
</mgrwt>
<clustering>
<clus scale="   31.773">  1  6  2 -1</clus>
<clus scale="  460.779">  4  5 -1 -1</clus>
<clus scale="  300.000">  1  4  2 -1</clus>
</clustering>
</event>
<event>
 6    1  0.9843879E-012  0.3000000E+03  0.7818608E-02  0.1093470E+00
          1   -1    0    0  502    0  0.00000000000E+00  0.00000000000E+00  0.25279746955E+03  0.25279746955E+03  0.00000000000E+00 0.  1.
         13   -1    0    0    0    0 -0.00000000000E+00 -0.00000000000E+00 -0.27500000000E+03  0.27500000000E+03  0.00000000000E+00 0.  1.
    9000005    2    1    2  501    0  0.34805638078E+02 -0.14086986698E+02 -0.62283787000E+02  0.47287586394E+03  0.46724986564E+03 0.  0.
         13    1    3    3    0    0 -0.79222477480E+02  0.16943655175E+03  0.90958245192E+02  0.20798641392E+03  0.00000000000E+00 0.  1.
          1    1    3    3  501    0  0.11402811556E+03 -0.18352353845E+03 -0.15324203219E+03  0.26488945002E+03  0.00000000000E+00 0.  1.
         21    1    1    2  502  501 -0.34805638078E+02  0.14086986698E+02  0.40081256553E+02  0.54921605613E+02  0.00000000000E+00 0.  1.
<scales pt_clust_4="550.00000" pt_clust_5="550.00000" pt_clust_6="37.54831"></scales>
<mgrwt>
<rscale>  0 0.30000000E+03</rscale>
<asrwt>  1 0.37548311E+02</asrwt>
<pdfrwt beam="1">  1        1 0.91926353E+00 0.30000000E+03</pdfrwt>
<pdfrwt beam="2">0</pdfrwt>
<totfact> 0.42812814E-05</totfact>
</mgrwt>
<clustering>
<clus scale="   37.548">  1  6  2 -1</clus>
<clus scale="  467.250">  4  5 -1 -1</clus>
<clus scale="  300.000">  1  4  2 -1</clus>
</clustering>
</event>
<event>
 6    1  0.9843879E-012  0.3000000E+03  0.7818608E-02  0.1093470E+00
          1   -1    0    0  502    0  0.00000000000E+00  0.00000000000E+00  0.22403795415E+03  0.22403795415E+03  0.00000000000E+00 0.  1.
         13   -1    0    0    0    0 -0.00000000000E+00 -0.00000000000E+00 -0.27500000000E+03  0.27500000000E+03  0.00000000000E+00 0.  1.
    9000005    2    1    2  501    0  0.33985583663E+02 -0.69660681817E+01 -0.48873295168E+02  0.46428297059E+03  0.46039823175E+03 0.  0.
         13    1    3    3    0    0 -0.48979536682E+02  0.32251154490E+02 -0.24277758953E+03  0.24976006478E+03  0.00000000000E+00 0.  1.
          1    1    3    3  501    0  0.82965120345E+02 -0.39217222672E+02  0.19390429436E+03  0.21452290582E+03  0.00000000000E+00 0.  1.
         21    1    1    2  502  501 -0.33985583663E+02  0.69660681817E+01 -0.20887506777E+01  0.34754983560E+02  0.00000000000E+00 0.  1.
<scales pt_clust_4="550.00000" pt_clust_5="550.00000" pt_clust_6="34.69216"></scales>
<mgrwt>
<rscale>  0 0.30000000E+03</rscale>
<asrwt>  1 0.34692161E+02</asrwt>
<pdfrwt beam="1">  1        1 0.81468347E+00 0.30000000E+03</pdfrwt>
<pdfrwt beam="2">0</pdfrwt>
<totfact> 0.80206507E-04</totfact>
</mgrwt>
<clustering>
<clus scale="   34.692">  1  6  2 -1</clus>
<clus scale="  460.398">  4  5 -1 -1</clus>
<clus scale="  300.000">  1  4  2 -1</clus>
</clustering>
</event>
<event>
 6    1  0.9843879E-012  0.3000000E+03  0.7818608E-02  0.1093470E+00
          1   -1    0    0  502    0  0.00000000000E+00  0.00000000000E+00  0.22407913581E+03  0.22407913581E+03  0.00000000000E+00 0.  1.
         13   -1    0    0    0    0 -0.00000000000E+00 -0.00000000000E+00 -0.27500000000E+03  0.27500000000E+03  0.00000000000E+00 0.  1.
    9000005    2    1    2  501    0 -0.29071496334E+02 -0.76366956271E+01 -0.37742053145E+02  0.46625914069E+03  0.46375602711E+03 0.  0.
         13    1    3    3    0    0  0.13797171101E+03  0.27971910599E+02  0.15455774494E+03  0.20906151569E+03  0.00000000000E+00 0.  1.
          1    1    3    3  501    0 -0.16704320735E+03 -0.35608606226E+02 -0.19229979809E+03  0.25719762499E+03  0.00000000000E+00 0.  1.
         21    1    1    2  502  501  0.29071496334E+02  0.76366956271E+01 -0.13178811044E+02  0.32819995121E+02  0.00000000000E+00 0.  1.
<scales pt_clust_4="550.00000" pt_clust_5="550.00000" pt_clust_6="30.05781"></scales>
<mgrwt>
<rscale>  0 0.30000000E+03</rscale>
<asrwt>  1 0.30057810E+02</asrwt>
<pdfrwt beam="1">  1        1 0.81483322E+00 0.30000000E+03</pdfrwt>
<pdfrwt beam="2">0</pdfrwt>
<totfact> 0.82191617E-04</totfact>
</mgrwt>
<clustering>
<clus scale="   30.058">  1  6  2 -1</clus>
<clus scale="  463.756">  4  5 -1 -1</clus>
<clus scale="  300.000">  1  4  2 -1</clus>
</clustering>
</event>
<event>
 6    1  0.9843879E-012  0.3000000E+03  0.7818608E-02  0.1093470E+00
          1   -1    0    0  502    0  0.00000000000E+00  0.00000000000E+00  0.22387044236E+03  0.22387044236E+03  0.00000000000E+00 0.  1.
         13   -1    0    0    0    0 -0.00000000000E+00 -0.00000000000E+00 -0.27500000000E+03  0.27500000000E+03  0.00000000000E+00 0.  1.
    9000005    2    1    2  501    0  0.31484062668E+02  0.15991933831E+02 -0.58287561598E+02  0.46283955047E+03  0.45779473730E+03 0.  0.
         13    1    3    3    0    0  0.15969754820E+03 -0.12362272365E+03 -0.15067411216E+03  0.25196938857E+03  0.00000000000E+00 0.  1.
          3    1    3    3  501    0 -0.12821348553E+03  0.13961465748E+03  0.92386550559E+02  0.21087016190E+03  0.00000000000E+00 0.  1.
         21    1    1    2  502  501 -0.31484062668E+02 -0.15991933831E+02  0.71580039619E+01  0.36030891891E+02  0.00000000000E+00 0.  1.
<scales pt_clust_4="550.00000" pt_clust_5="550.00000" pt_clust_6="35.31272"></scales>
<mgrwt>
<rscale>  0 0.30000000E+03</rscale>
<asrwt>  1 0.35312719E+02</asrwt>
<pdfrwt beam="1">  1        1 0.81407434E+00 0.30000000E+03</pdfrwt>
<pdfrwt beam="2">0</pdfrwt>
<totfact> 0.80847685E-04</totfact>
</mgrwt>
<clustering>
<clus scale="   35.313">  1  6  2 -1</clus>
<clus scale="  457.795">  4  5 -1 -1</clus>
<clus scale="  300.000">  1  4  2 -1</clus>
</clustering>
</event>
<event>
 6    1  0.9843879E-012  0.3000000E+03  0.7818608E-02  0.1093470E+00
          1   -1    0    0  502    0  0.00000000000E+00  0.00000000000E+00  0.22877557211E+03  0.22877557211E+03  0.00000000000E+00 0.  1.
         13   -1    0    0    0    0 -0.00000000000E+00 -0.00000000000E+00 -0.27500000000E+03  0.27500000000E+03  0.00000000000E+00 0.  1.
    9000005    2    1    2  501    0 -0.32509759920E+02 -0.64078410517E+01 -0.68186330346E+02  0.46402296117E+03  0.45778814744E+03 0.  0.
         13    1    3    3    0    0  0.15655365362E+03  0.12044012833E+03 -0.11920231823E+03  0.23070341056E+03  0.00000000000E+00 0.  1.
          1    1    3    3  501    0 -0.18906341354E+03 -0.12684796938E+03  0.51015987880E+02  0.23331955061E+03  0.00000000000E+00 0.  1.
         21    1    1    2  502  501  0.32509759920E+02  0.64078410517E+01  0.21961902460E+02  0.39752610942E+02  0.00000000000E+00 0.  1.
<scales pt_clust_4="550.00000" pt_clust_5="550.00000" pt_clust_6="33.13525"></scales>
<mgrwt>
<rscale>  0 0.30000000E+03</rscale>
<asrwt>  1 0.33135252E+02</asrwt>
<pdfrwt beam="1">  1        1 0.83191117E+00 0.30000000E+03</pdfrwt>
<pdfrwt beam="2">0</pdfrwt>
<totfact> 0.57649102E-04</totfact>
</mgrwt>
<clustering>
<clus scale="   33.135">  1  6  2 -1</clus>
<clus scale="  457.788">  4  5 -1 -1</clus>
<clus scale="  300.000">  1  4  2 -1</clus>
</clustering>
</event>
<event>
 6    1  0.9843879E-012  0.3000000E+03  0.7818608E-02  0.1093470E+00
          1   -1    0    0  502    0  0.00000000000E+00  0.00000000000E+00  0.23673157436E+03  0.23673157436E+03  0.00000000000E+00 0.  1.
         13   -1    0    0    0    0 -0.00000000000E+00 -0.00000000000E+00 -0.27500000000E+03  0.27500000000E+03  0.00000000000E+00 0.  1.
    9000005    2    1    2  501    0  0.18759082158E+02 -0.32235494142E+02 -0.66907480253E+02  0.46470790271E+03  0.45835116852E+03 0.  0.
         13    1    3    3    0    0  0.14683416999E+03 -0.18802113873E+03  0.30921810956E+02  0.24055847621E+03  0.00000000000E+00 0.  1.
          3    1    3    3  501    0 -0.12807508783E+03  0.15578564459E+03 -0.97829291209E+02  0.22414942650E+03  0.00000000000E+00 0.  1.
         21    1    1    2  502  501 -0.18759082158E+02  0.32235494142E+02  0.28639054614E+02  0.47023671647E+02  0.00000000000E+00 0. -1.
<scales pt_clust_4="550.00000" pt_clust_5="550.00000" pt_clust_6="37.29652"></scales>
<mgrwt>
<rscale>  0 0.30000000E+03</rscale>
<asrwt>  1 0.37296518E+02</asrwt>
<pdfrwt beam="1">  1        1 0.86084209E+00 0.30000000E+03</pdfrwt>
<pdfrwt beam="2">0</pdfrwt>
<totfact> 0.31309599E-04</totfact>
</mgrwt>
<clustering>
<clus scale="   37.297">  1  6  2 -1</clus>
<clus scale="  458.351">  4  5 -1 -1</clus>
<clus scale="  300.000">  1  4  2 -1</clus>
</clustering>
</event>
<event>
 6    1  0.9843879E-012  0.3000000E+03  0.7818608E-02  0.1093470E+00
          1   -1    0    0  502    0  0.00000000000E+00  0.00000000000E+00  0.21694304613E+03  0.21694304613E+03  0.00000000000E+00 0.  1.
         13   -1    0    0    0    0 -0.00000000000E+00 -0.00000000000E+00 -0.27500000000E+03  0.27500000000E+03  0.00000000000E+00 0.  1.
    9000005    2    1    2  501    0  0.47349238519E+01 -0.29799101341E+02 -0.56702374549E+02  0.46173972132E+03  0.45725048389E+03 0.  0.
         13    1    3    3    0    0 -0.14172234072E+03 -0.84974333384E+02  0.13562837256E+03  0.21377772250E+03  0.00000000000E+00 0.  1.
          3    1    3    3  501    0  0.14645726457E+03  0.55175232042E+02 -0.19233074711E+03  0.24796199882E+03  0.00000000000E+00 0.  1.
         21    1    1    2  502  501 -0.47349238519E+01  0.29799101341E+02 -0.13545793196E+01  0.30203324813E+02  0.00000000000E+00 0. -1.
<scales pt_clust_4="550.00000" pt_clust_5="550.00000" pt_clust_6="30.17293"></scales>
<mgrwt>
<rscale>  0 0.30000000E+03</rscale>
<asrwt>  1 0.30172934E+02</asrwt>
<pdfrwt beam="1">  1        1 0.78888380E+00 0.30000000E+03</pdfrwt>
<pdfrwt beam="2">0</pdfrwt>
<totfact> 0.12945669E-03</totfact>
</mgrwt>
<clustering>
<clus scale="   30.173">  1  6  2 -1</clus>
<clus scale="  457.250">  4  5 -1 -1</clus>
<clus scale="  300.000">  1  4  2 -1</clus>
</clustering>
</event>
<event>
 6    1  0.9843879E-012  0.3000000E+03  0.7818608E-02  0.1093470E+00
          1   -1    0    0  502    0  0.00000000000E+00  0.00000000000E+00  0.24014741765E+03  0.24014741765E+03  0.00000000000E+00 0.  1.
         13   -1    0    0    0    0 -0.00000000000E+00 -0.00000000000E+00 -0.27500000000E+03  0.27500000000E+03  0.00000000000E+00 0.  1.
    9000005    2    1    2  501    0  0.42388379984E+01 -0.40960490287E+02 -0.53127438367E+02  0.47009522709E+03  0.46526472928E+03 0.  0.
         13    1    3    3    0    0  0.81555591335E+02  0.89700039188E+02  0.16474372434E+03  0.20454316468E+03  0.00000000000E+00 0.  1.
          1    1    3    3  501    0 -0.77316753336E+02 -0.13066052948E+03 -0.21787116271E+03  0.26555206241E+03  0.00000000000E+00 0.  1.
         21    1    1    2  502  501 -0.42388379984E+01  0.40960490287E+02  0.18274856019E+02  0.45052190564E+02  0.00000000000E+00 0. -1.
<scales pt_clust_4="550.00000" pt_clust_5="550.00000" pt_clust_6="41.17924"></scales>
<mgrwt>
<rscale>  0 0.30000000E+03</rscale>
<asrwt>  1 0.41179236E+02</asrwt>
<pdfrwt beam="1">  1        1 0.87326334E+00 0.30000000E+03</pdfrwt>
<pdfrwt beam="2">0</pdfrwt>
<totfact> 0.22758956E-04</totfact>
</mgrwt>
<clustering>
<clus scale="   41.179">  1  6  2 -1</clus>
<clus scale="  465.265">  4  5 -1 -1</clus>
<clus scale="  300.000">  1  4  2 -1</clus>
</clustering>
</event>
<event>
 6    1  0.9843879E-012  0.3000000E+03  0.7818608E-02  0.1093470E+00
          1   -1    0    0  502    0  0.00000000000E+00  0.00000000000E+00  0.24102279115E+03  0.24102279115E+03  0.00000000000E+00 0.  1.
         13   -1    0    0    0    0 -0.00000000000E+00 -0.00000000000E+00 -0.27500000000E+03  0.27500000000E+03  0.00000000000E+00 0.  1.
    9000005    2    1    2  501    0 -0.34632987440E+02 -0.57468410457E+01 -0.54241944266E+02  0.47548725732E+03  0.47107692934E+03 0.  0.
         13    1    3    3    0    0  0.45161041107E+02 -0.35750657946E+02 -0.25286534720E+03  0.25934246277E+03  0.00000000000E+00 0.  1.
          1    1    3    3  501    0 -0.79794028548E+02  0.30003816901E+02  0.19862340294E+03  0.21614479456E+03  0.00000000000E+00 0.  1.
         21    1    1    2  502  501  0.34632987440E+02  0.57468410457E+01  0.20264735415E+02  0.40535533825E+02  0.00000000000E+00 0. -1.
<scales pt_clust_4="550.00000" pt_clust_5="550.00000" pt_clust_6="35.10655"></scales>
<mgrwt>
<rscale>  0 0.30000000E+03</rscale>
<asrwt>  1 0.35106552E+02</asrwt>
<pdfrwt beam="1">  1        1 0.87644651E+00 0.30000000E+03</pdfrwt>
<pdfrwt beam="2">0</pdfrwt>
<totfact> 0.21689501E-04</totfact>
</mgrwt>
<clustering>
<clus scale="   35.107">  1  6  2 -1</clus>
<clus scale="  471.077">  4  5 -1 -1</clus>
<clus scale="  300.000">  1  4  2 -1</clus>
</clustering>
</event>
<event>
 6    1  0.9843879E-012  0.3000000E+03  0.7818608E-02  0.1093470E+00
          1   -1    0    0  502    0  0.00000000000E+00  0.00000000000E+00  0.22495331163E+03  0.22495331163E+03  0.00000000000E+00 0.  1.
         13   -1    0    0    0    0 -0.00000000000E+00 -0.00000000000E+00 -0.27500000000E+03  0.27500000000E+03  0.00000000000E+00 0.  1.
    9000005    2    1    2  501    0 -0.23353532844E+02  0.20503183438E+02 -0.56089564418E+02  0.46829443644E+03  0.46388346805E+03 0.  0.
         13    1    3    3    0    0  0.21335628356E+03 -0.24481480367E+02  0.19831283048E+02  0.21566994784E+03  0.00000000000E+00 0.  1.
          1    1    3    3  501    0 -0.23670981640E+03  0.44984663805E+02 -0.75920847466E+02  0.25262448860E+03  0.00000000000E+00 0.  1.
         21    1    1    2  502  501  0.23353532844E+02 -0.20503183438E+02  0.60428760463E+01  0.31658875190E+02  0.00000000000E+00 0.  1.
<scales pt_clust_4="550.00000" pt_clust_5="550.00000" pt_clust_6="31.07681"></scales>
<mgrwt>
<rscale>  0 0.30000000E+03</rscale>
<asrwt>  1 0.31076809E+02</asrwt>
<pdfrwt beam="1">  1        1 0.81801204E+00 0.30000000E+03</pdfrwt>
<pdfrwt beam="2">0</pdfrwt>
<totfact> 0.76914397E-04</totfact>
</mgrwt>
<clustering>
<clus scale="   31.077">  1  6  2 -1</clus>
<clus scale="  463.883">  4  5 -1 -1</clus>
<clus scale="  300.000">  1  4  2 -1</clus>
</clustering>
</event>
<event>
 6    1  0.9843879E-012  0.3000000E+03  0.7818608E-02  0.1093470E+00
          1   -1    0    0  502    0  0.00000000000E+00  0.00000000000E+00  0.22867711751E+03  0.22867711751E+03  0.00000000000E+00 0.  1.
         13   -1    0    0    0    0 -0.00000000000E+00 -0.00000000000E+00 -0.27500000000E+03  0.27500000000E+03  0.00000000000E+00 0.  1.
    9000005    2    1    2  501    0 -0.18366979004E+02  0.28273559111E+02 -0.67216117278E+02  0.46401268354E+03  0.45787883113E+03 0.  0.
         13    1    3    3    0    0  0.21886801470E+03  0.25036986496E+02 -0.51503615568E+02  0.22623589672E+03  0.00000000000E+00 0.  1.
          3    1    3    3  501    0 -0.23723499370E+03  0.32365726152E+01 -0.15712501709E+02  0.23777678681E+03  0.00000000000E+00 0.  1.
         21    1    1    2  502  501  0.18366979004E+02 -0.28273559111E+02  0.20893234791E+02  0.39664433975E+02  0.00000000000E+00 0. -1.
<scales pt_clust_4="550.00000" pt_clust_5="550.00000" pt_clust_6="33.71558"></scales>
<mgrwt>
<rscale>  0 0.30000000E+03</rscale>
<asrwt>  1 0.33715576E+02</asrwt>
<pdfrwt beam="1">  1        1 0.83155315E+00 0.30000000E+03</pdfrwt>
<pdfrwt beam="2">0</pdfrwt>
<totfact> 0.57831107E-04</totfact>
</mgrwt>
<clustering>
<clus scale="   33.716">  1  6  2 -1</clus>
<clus scale="  457.879">  4  5 -1 -1</clus>
<clus scale="  300.000">  1  4  2 -1</clus>
</clustering>
</event>
<event>
 6    1  0.9843879E-012  0.3000000E+03  0.7818608E-02  0.1093470E+00
          1   -1    0    0  502    0  0.00000000000E+00  0.00000000000E+00  0.22522060215E+03  0.22522060215E+03  0.00000000000E+00 0.  1.
         13   -1    0    0    0    0 -0.00000000000E+00 -0.00000000000E+00 -0.27500000000E+03  0.27500000000E+03  0.00000000000E+00 0.  1.
    9000005    2    1    2  501    0 -0.17610163407E+02  0.32805171403E+02 -0.45243761161E+02  0.46271234804E+03  0.45898738760E+03 0.  0.
         13    1    3    3    0    0 -0.12460714826E+03  0.20568980560E+03  0.37137651146E+02  0.24334017888E+03  0.00000000000E+00 0.  1.
          1    1    3    3  501    0  0.10699698485E+03 -0.17288463420E+03 -0.82381412307E+02  0.21937216916E+03  0.00000000000E+00 0.  1.
         21    1    1    2  502  501  0.17610163407E+02 -0.32805171403E+02 -0.45356366921E+01  0.37508254108E+02  0.00000000000E+00 0.  1.
<scales pt_clust_4="550.00000" pt_clust_5="550.00000" pt_clust_6="37.23303"></scales>
<mgrwt>
<rscale>  0 0.30000000E+03</rscale>
<asrwt>  1 0.37233030E+02</asrwt>
<pdfrwt beam="1">  1        1 0.81898401E+00 0.30000000E+03</pdfrwt>
<pdfrwt beam="2">0</pdfrwt>
<totfact> 0.72953150E-04</totfact>
</mgrwt>
<clustering>
<clus scale="   37.233">  1  6  2 -1</clus>
<clus scale="  458.987">  4  5 -1 -1</clus>
<clus scale="  300.000">  1  4  2 -1</clus>
</clustering>
</event>
<event>
 6    1  0.9843879E-012  0.3000000E+03  0.7818608E-02  0.1093470E+00
          1   -1    0    0  502    0  0.00000000000E+00  0.00000000000E+00  0.24236403112E+03  0.24236403112E+03  0.00000000000E+00 0.  1.
         13   -1    0    0    0    0 -0.00000000000E+00 -0.00000000000E+00 -0.27500000000E+03  0.27500000000E+03  0.00000000000E+00 0.  1.
    9000005    2    1    2  501    0  0.20645517371E+02  0.23121703934E+02 -0.47040411037E+02  0.48318306369E+03  0.47988771832E+03 0.  0.
         13    1    3    3    0    0  0.83835055713E+02  0.19652088171E+03  0.11049433988E+03  0.24053642689E+03  0.00000000000E+00 0.  1.
          1    1    3    3  501    0 -0.63189538342E+02 -0.17339917777E+03 -0.15753475091E+03  0.24264663681E+03  0.00000000000E+00 0.  1.
         21    1    1    2  502  501 -0.20645517371E+02 -0.23121703934E+02  0.14404442156E+02  0.34180967426E+02  0.00000000000E+00 0.  1.
<scales pt_clust_4="550.00000" pt_clust_5="550.00000" pt_clust_6="30.99759"></scales>
<mgrwt>
<rscale>  0 0.30000000E+03</rscale>
<asrwt>  1 0.30997590E+02</asrwt>
<pdfrwt beam="1">  1        1 0.88132375E+00 0.30000000E+03</pdfrwt>
<pdfrwt beam="2">0</pdfrwt>
<totfact> 0.19437162E-04</totfact>
</mgrwt>
<clustering>
<clus scale="   30.998">  1  6  2 -1</clus>
<clus scale="  479.888">  4  5 -1 -1</clus>
<clus scale="  300.000">  1  4  2 -1</clus>
</clustering>
</event>
<event>
 6    1  0.9843879E-012  0.3000000E+03  0.7818608E-02  0.1093470E+00
          1   -1    0    0  502    0  0.00000000000E+00  0.00000000000E+00  0.24800437580E+03  0.24800437580E+03  0.00000000000E+00 0.  1.
         13   -1    0    0    0    0 -0.00000000000E+00 -0.00000000000E+00 -0.27500000000E+03  0.27500000000E+03  0.00000000000E+00 0.  1.
    9000005    2    1    2  501    0  0.58766969818E+01  0.30452858304E+02 -0.18789270271E+02  0.49092234981E+03  0.48958125446E+03 0.  0.
         13    1    3    3    0    0 -0.14772159309E+03 -0.78505316557E+02 -0.17803551555E+03  0.24429776625E+03  0.00000000000E+00 0.  1.
          1    1    3    3  501    0  0.15359829007E+03  0.10895817486E+03  0.15924624528E+03  0.24662458357E+03  0.00000000000E+00 0.  1.
         21    1    1    2  502  501 -0.58766969818E+01 -0.30452858304E+02 -0.82063539335E+01  0.32082025983E+02  0.00000000000E+00 0. -1.
<scales pt_clust_4="550.00000" pt_clust_5="550.00000" pt_clust_6="31.01472"></scales>
<mgrwt>
<rscale>  0 0.30000000E+03</rscale>
<asrwt>  1 0.31014724E+02</asrwt>
<pdfrwt beam="1">  1        1 0.90183409E+00 0.30000000E+03</pdfrwt>
<pdfrwt beam="2">0</pdfrwt>
<totfact> 0.10678570E-04</totfact>
</mgrwt>
<clustering>
<clus scale="   31.015">  1  6  2 -1</clus>
<clus scale="  489.581">  4  5 -1 -1</clus>
<clus scale="  300.000">  1  4  2 -1</clus>
</clustering>
</event>
<event>
 6    1  0.9843879E-012  0.3000000E+03  0.7818608E-02  0.1093470E+00
          1   -1    0    0  502    0  0.00000000000E+00  0.00000000000E+00  0.23689544636E+03  0.23689544636E+03  0.00000000000E+00 0.  1.
         13   -1    0    0    0    0 -0.00000000000E+00 -0.00000000000E+00 -0.27500000000E+03  0.27500000000E+03  0.00000000000E+00 0.  1.
    9000005    2    1    2  501    0 -0.92523796745E+01  0.33358946424E+02 -0.42611035379E+02  0.47698507234E+03  0.47381497767E+03 0.  0.
         13    1    3    3    0    0  0.13237392981E+03  0.18308239554E+03  0.77011478863E+02  0.23868973318E+03  0.00000000000E+00 0.  1.
          3    1    3    3  501    0 -0.14162630948E+03 -0.14972344911E+03 -0.11962251424E+03  0.23829533916E+03  0.00000000000E+00 0.  1.
         21    1    1    2  502  501  0.92523796745E+01 -0.33358946424E+02  0.45064817344E+01  0.34910374014E+02  0.00000000000E+00 0.  1.
<scales pt_clust_4="550.00000" pt_clust_5="550.00000" pt_clust_6="34.61829"></scales>
<mgrwt>
<rscale>  0 0.30000000E+03</rscale>
<asrwt>  1 0.34618288E+02</asrwt>
<pdfrwt beam="1">  1        1 0.86143799E+00 0.30000000E+03</pdfrwt>
<pdfrwt beam="2">0</pdfrwt>
<totfact> 0.31281796E-04</totfact>
</mgrwt>
<clustering>
<clus scale="   34.618">  1  6  2 -1</clus>
<clus scale="  473.815">  4  5 -1 -1</clus>
<clus scale="  300.000">  1  4  2 -1</clus>
</clustering>
</event>
<event>
 6    1  0.9843879E-012  0.3000000E+03  0.7818608E-02  0.1093470E+00
          1   -1    0    0  502    0  0.00000000000E+00  0.00000000000E+00  0.22179414009E+03  0.22179414009E+03  0.00000000000E+00 0.  1.
         13   -1    0    0    0    0 -0.00000000000E+00 -0.00000000000E+00 -0.27500000000E+03  0.27500000000E+03  0.00000000000E+00 0.  1.
    9000005    2    1    2  501    0  0.26426522982E+02  0.19682720890E+02 -0.55606841275E+02  0.46375574833E+03  0.45922924852E+03 0.  0.
         13    1    3    3    0    0 -0.16623226171E+03 -0.13434218969E+03 -0.23717347779E+02  0.21504302209E+03  0.00000000000E+00 0.  1.
          1    1    3    3  501    0  0.19265878469E+03  0.15402491058E+03 -0.31889493496E+02  0.24871272624E+03  0.00000000000E+00 0.  1.
         21    1    1    2  502  501 -0.26426522982E+02 -0.19682720890E+02  0.24009813624E+01  0.33038391760E+02  0.00000000000E+00 0. -1.
<scales pt_clust_4="550.00000" pt_clust_5="550.00000" pt_clust_6="32.95103"></scales>
<mgrwt>
<rscale>  0 0.30000000E+03</rscale>
<asrwt>  1 0.32951034E+02</asrwt>
<pdfrwt beam="1">  1        1 0.80652415E+00 0.30000000E+03</pdfrwt>
<pdfrwt beam="2">0</pdfrwt>
<totfact> 0.93835601E-04</totfact>
</mgrwt>
<clustering>
<clus scale="   32.951">  1  6  2 -1</clus>
<clus scale="  459.229">  4  5 -1 -1</clus>
<clus scale="  300.000">  1  4  2 -1</clus>
</clustering>
</event>
<event>
 6    1  0.9843879E-012  0.3000000E+03  0.7818608E-02  0.1093470E+00
          1   -1    0    0  502    0  0.00000000000E+00  0.00000000000E+00  0.24955100218E+03  0.24955100218E+03  0.00000000000E+00 0.  1.
         13   -1    0    0    0    0 -0.00000000000E+00 -0.00000000000E+00 -0.27500000000E+03  0.27500000000E+03  0.00000000000E+00 0.  1.
    9000005    2    1    2  501    0 -0.38482773323E+02  0.16067467191E+02 -0.23834046810E+02  0.48281737771E+03  0.48042218005E+03 0.  0.
         13    1    3    3    0    0  0.10758710944E+03 -0.18934378914E+03 -0.65350371486E+02  0.22736914403E+03  0.00000000000E+00 0.  1.
          3    1    3    3  501    0 -0.14606988276E+03  0.20541125633E+03  0.41516324676E+02  0.25544823368E+03  0.00000000000E+00 0.  1.
         21    1    1    2  502  501  0.38482773323E+02 -0.16067467191E+02 -0.16149510125E+01  0.41733624470E+02  0.00000000000E+00 0.  1.
<scales pt_clust_4="550.00000" pt_clust_5="550.00000" pt_clust_6="41.70237"></scales>
<mgrwt>
<rscale>  0 0.30000000E+03</rscale>
<asrwt>  1 0.41702366E+02</asrwt>
<pdfrwt beam="1">  1        1 0.90745819E+00 0.30000000E+03</pdfrwt>
<pdfrwt beam="2">0</pdfrwt>
<totfact> 0.79721116E-05</totfact>
</mgrwt>
<clustering>
<clus scale="   41.702">  1  6  2 -1</clus>
<clus scale="  480.422">  4  5 -1 -1</clus>
<clus scale="  300.000">  1  4  2 -1</clus>
</clustering>
</event>
<event>
 6    1  0.9843879E-012  0.3000000E+03  0.7818608E-02  0.1093470E+00
          1   -1    0    0  502    0  0.00000000000E+00  0.00000000000E+00  0.23252487144E+03  0.23252487144E+03  0.00000000000E+00 0.  1.
         13   -1    0    0    0    0 -0.00000000000E+00 -0.00000000000E+00 -0.27500000000E+03  0.27500000000E+03  0.00000000000E+00 0.  1.
    9000005    2    1    2  501    0  0.10059341393E+02 -0.30277819793E+02 -0.68498753640E+02  0.46635248041E+03  0.46018976522E+03 0.  0.
         13    1    3    3    0    0 -0.11232483438E+03  0.14385783693E+03  0.87557394637E+02  0.20243083515E+03  0.00000000000E+00 0.  1.
          3    1    3    3  501    0  0.12238417577E+03 -0.17413565672E+03 -0.15605614828E+03  0.26392164526E+03  0.00000000000E+00 0.  1.
         21    1    1    2  502  501 -0.10059341393E+02  0.30277819793E+02  0.26023625083E+02  0.41172391030E+02  0.00000000000E+00 0. -1.
<scales pt_clust_4="550.00000" pt_clust_5="550.00000" pt_clust_6="31.90512"></scales>
<mgrwt>
<rscale>  0 0.30000000E+03</rscale>
<asrwt>  1 0.31905121E+02</asrwt>
<pdfrwt beam="1">  1        1 0.84554499E+00 0.30000000E+03</pdfrwt>
<pdfrwt beam="2">0</pdfrwt>
<totfact> 0.45474773E-04</totfact>
</mgrwt>
<clustering>
<clus scale="   31.905">  1  6  2 -1</clus>
<clus scale="  460.190">  4  5 -1 -1</clus>
<clus scale="  300.000">  1  4  2 -1</clus>
</clustering>
</event>
<event>
 6    1  0.9843879E-012  0.3000000E+03  0.7818608E-02  0.1093470E+00
          1   -1    0    0  502    0  0.00000000000E+00  0.00000000000E+00  0.23882091042E+03  0.23882091042E+03  0.00000000000E+00 0.  1.
         13   -1    0    0    0    0 -0.00000000000E+00 -0.00000000000E+00 -0.27500000000E+03  0.27500000000E+03  0.00000000000E+00 0.  1.
    9000005    2    1    2  501    0 -0.26961164351E+02 -0.21275140828E+02 -0.40638021745E+02  0.47918829463E+03  0.47622519558E+03 0.  0.
         13    1    3    3    0    0 -0.12885304101E+03  0.14685969445E+03 -0.15708364134E+03  0.25069133692E+03  0.00000000000E+00 0.  1.
          1    1    3    3  501    0  0.10189187666E+03 -0.16813483527E+03  0.11644561959E+03  0.22849695771E+03  0.00000000000E+00 0.  1.
         21    1    1    2  502  501  0.26961164351E+02  0.21275140828E+02  0.44589321689E+01  0.34632615790E+02  0.00000000000E+00 0.  1.
<scales pt_clust_4="550.00000" pt_clust_5="550.00000" pt_clust_6="34.34437"></scales>
<mgrwt>
<rscale>  0 0.30000000E+03</rscale>
<asrwt>  1 0.34344374E+02</asrwt>
<pdfrwt beam="1">  1        1 0.86843967E+00 0.30000000E+03</pdfrwt>
<pdfrwt beam="2">0</pdfrwt>
<totfact> 0.26370936E-04</totfact>
</mgrwt>
<clustering>
<clus scale="   34.344">  1  6  2 -1</clus>
<clus scale="  476.225">  4  5 -1 -1</clus>
<clus scale="  300.000">  1  4  2 -1</clus>
</clustering>
</event>
<event>
 6    1  0.9843879E-012  0.3000000E+03  0.7818608E-02  0.1093470E+00
          1   -1    0    0  502    0  0.00000000000E+00  0.00000000000E+00  0.24270185053E+03  0.24270185053E+03  0.00000000000E+00 0.  1.
         13   -1    0    0    0    0 -0.00000000000E+00 -0.00000000000E+00 -0.27500000000E+03  0.27500000000E+03  0.00000000000E+00 0.  1.
    9000005    2    1    2  501    0  0.22319205200E+02 -0.23705665398E+02 -0.64760190229E+02  0.47172479557E+03  0.46612261801E+03 0.  0.
         13    1    3    3    0    0 -0.13066827368E+03 -0.13710924729E+03 -0.16968658381E+03  0.25429644151E+03  0.00000000000E+00 0.  1.
          3    1    3    3  501    0  0.15298747888E+03  0.11340358189E+03  0.10492639358E+03  0.21742835406E+03  0.00000000000E+00 0.  1.
         21    1    1    2  502  501 -0.22319205200E+02  0.23705665398E+02  0.32462040757E+02  0.45977054960E+02  0.00000000000E+00 0.  1.
<scales pt_clust_4="550.00000" pt_clust_5="550.00000" pt_clust_6="32.55926"></scales>
<mgrwt>
<rscale>  0 0.30000000E+03</rscale>
<asrwt>  1 0.32559261E+02</asrwt>
<pdfrwt beam="1">  1        1 0.88255218E+00 0.30000000E+03</pdfrwt>
<pdfrwt beam="2">0</pdfrwt>
<totfact> 0.18560641E-04</totfact>
</mgrwt>
<clustering>
<clus scale="   32.559">  1  6  2 -1</clus>
<clus scale="  466.123">  4  5 -1 -1</clus>
<clus scale="  300.000">  1  4  2 -1</clus>
</clustering>
</event>
<event>
 6    1  0.9843879E-012  0.3000000E+03  0.7818608E-02  0.1093470E+00
          1   -1    0    0  502    0  0.00000000000E+00  0.00000000000E+00  0.23640069212E+03  0.23640069212E+03  0.00000000000E+00 0.  1.
         13   -1    0    0    0    0 -0.00000000000E+00 -0.00000000000E+00 -0.27500000000E+03  0.27500000000E+03  0.00000000000E+00 0.  1.
    9000005    2    1    2  501    0  0.31072414466E+02 -0.50158192924E+00 -0.61830697208E+02  0.47260064089E+03  0.46750677442E+03 0.  0.
         13    1    3    3    0    0  0.44448874276E+01  0.20993217272E+03  0.71787095377E+02  0.22191138148E+03  0.00000000000E+00 0.  1.
          3    1    3    3  501    0  0.26627527038E+02 -0.21043375465E+03 -0.13361779258E+03  0.25068925941E+03  0.00000000000E+00 0.  1.
         21    1    1    2  502  501 -0.31072414466E+02  0.50158192924E+00  0.23231389324E+02  0.38800051225E+02  0.00000000000E+00 0. -1.
<scales pt_clust_4="550.00000" pt_clust_5="550.00000" pt_clust_6="31.07646"></scales>
<mgrwt>
<rscale>  0 0.30000000E+03</rscale>
<asrwt>  1 0.31076463E+02</asrwt>
<pdfrwt beam="1">  1        1 0.85963888E+00 0.30000000E+03</pdfrwt>
<pdfrwt beam="2">0</pdfrwt>
<totfact> 0.33376232E-04</totfact>
</mgrwt>
<clustering>
<clus scale="   31.076">  1  6  2 -1</clus>
<clus scale="  467.507">  4  5 -1 -1</clus>
<clus scale="  300.000">  1  4  2 -1</clus>
</clustering>
</event>
<event>
 6    1  0.9843879E-012  0.3000000E+03  0.7818608E-02  0.1093470E+00
          1   -1    0    0  502    0  0.00000000000E+00  0.00000000000E+00  0.23289968091E+03  0.23289968091E+03  0.00000000000E+00 0.  1.
         13   -1    0    0    0    0 -0.00000000000E+00 -0.00000000000E+00 -0.27500000000E+03  0.27500000000E+03  0.00000000000E+00 0.  1.
    9000005    2    1    2  501    0 -0.53192360525E+01 -0.34770817841E+02 -0.63999753205E+02  0.46646431847E+03  0.46071215303E+03 0.  0.
         13    1    3    3    0    0  0.79435621129E+01  0.31754534291E+02  0.19551206726E+03  0.19823324411E+03  0.00000000000E+00 0.  1.
          1    1    3    3  501    0 -0.13262798165E+02 -0.66525352132E+02 -0.25951182047E+03  0.26823107436E+03  0.00000000000E+00 0.  1.
         21    1    1    2  502  501  0.53192360525E+01  0.34770817841E+02  0.21899434110E+02  0.41435362432E+02  0.00000000000E+00 0.  1.
<scales pt_clust_4="550.00000" pt_clust_5="550.00000" pt_clust_6="35.17533"></scales>
<mgrwt>
<rscale>  0 0.30000000E+03</rscale>
<asrwt>  1 0.35175333E+02</asrwt>
<pdfrwt beam="1">  1        1 0.84690793E+00 0.30000000E+03</pdfrwt>
<pdfrwt beam="2">0</pdfrwt>
<totfact> 0.43414092E-04</totfact>
</mgrwt>
<clustering>
<clus scale="   35.175">  1  6  2 -1</clus>
<clus scale="  460.712">  4  5 -1 -1</clus>
<clus scale="  300.000">  1  4  2 -1</clus>
</clustering>
</event>
<event>
 6    1  0.9843879E-012  0.3000000E+03  0.7818608E-02  0.1093470E+00
          1   -1    0    0  502    0  0.00000000000E+00  0.00000000000E+00  0.23207475391E+03  0.23207475391E+03  0.00000000000E+00 0.  1.
         13   -1    0    0    0    0 -0.00000000000E+00 -0.00000000000E+00 -0.27500000000E+03  0.27500000000E+03  0.00000000000E+00 0.  1.
    9000005    2    1    2  501    0  0.14210835686E+02  0.29484503861E+02 -0.55453965339E+02  0.47202831864E+03  0.46761555525E+03 0.  0.
         13    1    3    3    0    0 -0.19382567447E+03  0.13235784607E+03 -0.49503389732E+02  0.23986991702E+03  0.00000000000E+00 0.  1.
          3    1    3    3  501    0  0.20803651015E+03 -0.10287334220E+03 -0.59505756070E+01  0.23215840162E+03  0.00000000000E+00 0.  1.
         21    1    1    2  502  501 -0.14210835686E+02 -0.29484503861E+02  0.12528719250E+02  0.35046435266E+02  0.00000000000E+00 0.  1.
<scales pt_clust_4="550.00000" pt_clust_5="550.00000" pt_clust_6="32.73047"></scales>
<mgrwt>
<rscale>  0 0.30000000E+03</rscale>
<asrwt>  1 0.32730472E+02</asrwt>
<pdfrwt beam="1">  1        1 0.84390820E+00 0.30000000E+03</pdfrwt>
<pdfrwt beam="2">0</pdfrwt>
<totfact> 0.46762626E-04</totfact>
</mgrwt>
<clustering>
<clus scale="   32.730">  1  6  2 -1</clus>
<clus scale="  467.616">  4  5 -1 -1</clus>
<clus scale="  300.000">  1  4  2 -1</clus>
</clustering>
</event>
<event>
 6    1  0.9843879E-012  0.3000000E+03  0.7818608E-02  0.1093470E+00
          1   -1    0    0  502    0  0.00000000000E+00  0.00000000000E+00  0.22769935491E+03  0.22769935491E+03  0.00000000000E+00 0.  1.
         13   -1    0    0    0    0 -0.00000000000E+00 -0.00000000000E+00 -0.27500000000E+03  0.27500000000E+03  0.00000000000E+00 0.  1.
    9000005    2    1    2  501    0  0.31997472932E+02 -0.14423186320E+02 -0.57684293566E+02  0.46609762362E+03  0.46118071343E+03 0.  0.
         13    1    3    3    0    0 -0.28935644613E+02 -0.19293048780E+03  0.10093004726E+03  0.21965044751E+03  0.00000000000E+00 0.  1.
          1    1    3    3  501    0  0.60933117545E+02  0.17850730148E+03 -0.15861434082E+03  0.24644717611E+03  0.00000000000E+00 0.  1.
         21    1    1    2  502  501 -0.31997472932E+02  0.14423186320E+02  0.10383648478E+02  0.36601731289E+02  0.00000000000E+00 0. -1.
<scales pt_clust_4="550.00000" pt_clust_5="550.00000" pt_clust_6="35.09796"></scales>
<mgrwt>
<rscale>  0 0.30000000E+03</rscale>
<asrwt>  1 0.35097957E+02</asrwt>
<pdfrwt beam="1">  1        1 0.82799765E+00 0.30000000E+03</pdfrwt>
<pdfrwt beam="2">0</pdfrwt>
<totfact> 0.61425358E-04</totfact>
</mgrwt>
<clustering>
<clus scale="   35.098">  1  6  2 -1</clus>
<clus scale="  461.181">  4  5 -1 -1</clus>
<clus scale="  300.000">  1  4  2 -1</clus>
</clustering>
</event>
<event>
 6    1  0.9843879E-012  0.3000000E+03  0.7818608E-02  0.1093470E+00
          1   -1    0    0  502    0  0.00000000000E+00  0.00000000000E+00  0.23059323394E+03  0.23059323394E+03  0.00000000000E+00 0.  1.
         13   -1    0    0    0    0 -0.00000000000E+00 -0.00000000000E+00 -0.27500000000E+03  0.27500000000E+03  0.00000000000E+00 0.  1.
    9000005    2    1    2  501    0  0.39410853236E+02 -0.11328812866E+02 -0.38138777468E+02  0.46411016469E+03  0.46071913491E+03 0.  0.
         13    1    3    3    0    0  0.15053904686E+03  0.17337197219E+03 -0.82607861424E+02  0.24401619647E+03  0.00000000000E+00 0.  1.
          1    1    3    3  501    0 -0.11112819363E+03 -0.18470078505E+03  0.44469083956E+02  0.22009396822E+03  0.00000000000E+00 0.  1.
         21    1    1    2  502  501 -0.39410853236E+02  0.11328812866E+02 -0.62679885886E+01  0.41483069254E+02  0.00000000000E+00 0.  1.
<scales pt_clust_4="550.00000" pt_clust_5="550.00000" pt_clust_6="41.00682"></scales>
<mgrwt>
<rscale>  0 0.30000000E+03</rscale>
<asrwt>  1 0.41006817E+02</asrwt>
<pdfrwt beam="1">  1        1 0.83852085E+00 0.30000000E+03</pdfrwt>
<pdfrwt beam="2">0</pdfrwt>
<totfact> 0.49527182E-04</totfact>
</mgrwt>
<clustering>
<clus scale="   41.007">  1  6  2 -1</clus>
<clus scale="  460.719">  4  5 -1 -1</clus>
<clus scale="  300.000">  1  4  2 -1</clus>
</clustering>
</event>
<event>
 6    1  0.9843879E-012  0.3000000E+03  0.7818608E-02  0.1093470E+00
          1   -1    0    0  502    0  0.00000000000E+00  0.00000000000E+00  0.25184596058E+03  0.25184596058E+03  0.00000000000E+00 0.  1.
         13   -1    0    0    0    0 -0.00000000000E+00 -0.00000000000E+00 -0.27500000000E+03  0.27500000000E+03  0.00000000000E+00 0.  1.
    9000005    2    1    2  501    0  0.26863548489E+02 -0.40276504247E+02 -0.16568887315E+00  0.47325201230E+03  0.47076915007E+03 0.  0.
         13    1    3    3    0    0  0.22619596344E+03 -0.43122000051E+02 -0.99112911647E+02  0.25069401673E+03  0.00000000000E+00 0.  1.
          1    1    3    3  501    0 -0.19933241496E+03  0.28454958044E+01  0.98947222774E+02  0.22255799557E+03  0.00000000000E+00 0.  1.
         21    1    1    2  502  501 -0.26863548489E+02  0.40276504247E+02 -0.22988350545E+02  0.53593948283E+02  0.00000000000E+00 0.  1.
<scales pt_clust_4="550.00000" pt_clust_5="550.00000" pt_clust_6="48.41332"></scales>
<mgrwt>
<rscale>  0 0.30000000E+03</rscale>
<asrwt>  1 0.48413318E+02</asrwt>
<pdfrwt beam="1">  1        1 0.91580349E+00 0.30000000E+03</pdfrwt>
<pdfrwt beam="2">0</pdfrwt>
<totfact> 0.48911305E-05</totfact>
</mgrwt>
<clustering>
<clus scale="   48.413">  1  6  2 -1</clus>
<clus scale="  470.769">  4  5 -1 -1</clus>
<clus scale="  300.000">  1  4  2 -1</clus>
</clustering>
</event>
<event>
 6    1  0.9843879E-012  0.3000000E+03  0.7818608E-02  0.1093470E+00
          1   -1    0    0  502    0  0.00000000000E+00  0.00000000000E+00  0.23297278480E+03  0.23297278480E+03  0.00000000000E+00 0.  1.
         13   -1    0    0    0    0 -0.00000000000E+00 -0.00000000000E+00 -0.27500000000E+03  0.27500000000E+03  0.00000000000E+00 0.  1.
    9000005    2    1    2  501    0 -0.10658539096E+02 -0.28333586530E+02 -0.70245161819E+02  0.46658862004E+03  0.46027617906E+03 0.  0.
         13    1    3    3    0    0 -0.19012414633E+03 -0.15171910714E+03 -0.29521590912E+02  0.24502531057E+03  0.00000000000E+00 0.  1.
          3    1    3    3  501    0  0.17946560724E+03  0.12338552061E+03 -0.40723570907E+02  0.22156330947E+03  0.00000000000E+00 0.  1.
         21    1    1    2  502  501  0.10658539096E+02  0.28333586530E+02  0.28217946615E+02  0.41384164755E+02  0.00000000000E+00 0. -1.
<scales pt_clust_4="550.00000" pt_clust_5="550.00000" pt_clust_6="30.27204"></scales>
<mgrwt>
<rscale>  0 0.30000000E+03</rscale>
<asrwt>  1 0.30272043E+02</asrwt>
<pdfrwt beam="1">  1        1 0.84717376E+00 0.30000000E+03</pdfrwt>
<pdfrwt beam="2">0</pdfrwt>
<totfact> 0.44420887E-04</totfact>
</mgrwt>
<clustering>
<clus scale="   30.272">  1  6  2 -1</clus>
<clus scale="  460.276">  4  5 -1 -1</clus>
<clus scale="  300.000">  1  4  2 -1</clus>
</clustering>
</event>
<event>
 6    1  0.9843879E-012  0.3000000E+03  0.7818608E-02  0.1093470E+00
          1   -1    0    0  502    0  0.00000000000E+00  0.00000000000E+00  0.22006964926E+03  0.22006964926E+03  0.00000000000E+00 0.  1.
         13   -1    0    0    0    0 -0.00000000000E+00 -0.00000000000E+00 -0.27500000000E+03  0.27500000000E+03  0.00000000000E+00 0.  1.
    9000005    2    1    2  501    0  0.24412574722E+02 -0.23600726172E+02 -0.56107019547E+02  0.46109388393E+03  0.45640618321E+03 0.  0.
         13    1    3    3    0    0 -0.50032549604E+02  0.17565728243E+03  0.89426938172E+02  0.20336153560E+03  0.00000000000E+00 0.  1.
          3    1    3    3  501    0  0.74445124326E+02 -0.19925800860E+03 -0.14553395772E+03  0.25773234833E+03  0.00000000000E+00 0.  1.
         21    1    1    2  502  501 -0.24412574722E+02  0.23600726172E+02  0.11766688073E+01  0.33975765332E+02  0.00000000000E+00 0. -1.
<scales pt_clust_4="550.00000" pt_clust_5="550.00000" pt_clust_6="33.95538"></scales>
<mgrwt>
<rscale>  0 0.30000000E+03</rscale>
<asrwt>  1 0.33955384E+02</asrwt>
<pdfrwt beam="1">  1        1 0.80025327E+00 0.30000000E+03</pdfrwt>
<pdfrwt beam="2">0</pdfrwt>
<totfact> 0.10385464E-03</totfact>
</mgrwt>
<clustering>
<clus scale="   33.955">  1  6  2 -1</clus>
<clus scale="  456.406">  4  5 -1 -1</clus>
<clus scale="  300.000">  1  4  2 -1</clus>
</clustering>
</event>
<event>
 6    1  0.9843879E-012  0.3000000E+03  0.7818608E-02  0.1093470E+00
          1   -1    0    0  502    0  0.00000000000E+00  0.00000000000E+00  0.24179289505E+03  0.24179289505E+03  0.00000000000E+00 0.  1.
         13   -1    0    0    0    0 -0.00000000000E+00 -0.00000000000E+00 -0.27500000000E+03  0.27500000000E+03  0.00000000000E+00 0.  1.
    9000005    2    1    2  501    0  0.81089152457E+01  0.30778809660E+02 -0.37994440554E+01  0.47345814975E+03  0.47237177536E+03 0.  0.
         13    1    3    3    0    0 -0.61239691817E+02  0.13066674703E+03  0.19368831698E+03  0.24153522055E+03  0.00000000000E+00 0.  1.
          1    1    3    3  501    0  0.69348607062E+02 -0.99887937367E+02 -0.19748776103E+03  0.23192292920E+03  0.00000000000E+00 0.  1.
         21    1    1    2  502  501 -0.81089152457E+01 -0.30778809660E+02 -0.29407660897E+02  0.43334745297E+02  0.00000000000E+00 0. -1.
<scales pt_clust_4="550.00000" pt_clust_5="550.00000" pt_clust_6="31.82908"></scales>
<mgrwt>
<rscale>  0 0.30000000E+03</rscale>
<asrwt>  1 0.31829085E+02</asrwt>
<pdfrwt beam="1">  1        1 0.87924689E+00 0.30000000E+03</pdfrwt>
<pdfrwt beam="2">0</pdfrwt>
<totfact> 0.20523186E-04</totfact>
</mgrwt>
<clustering>
<clus scale="   31.829">  1  6  2 -1</clus>
<clus scale="  472.372">  4  5 -1 -1</clus>
<clus scale="  300.000">  1  4  2 -1</clus>
</clustering>
</event>
<event>
 6    1  0.9843879E-012  0.3000000E+03  0.7818608E-02  0.1093470E+00
          1   -1    0    0  502    0  0.00000000000E+00  0.00000000000E+00  0.24037074661E+03  0.24037074661E+03  0.00000000000E+00 0.  1.
         13   -1    0    0    0    0 -0.00000000000E+00 -0.00000000000E+00 -0.27500000000E+03  0.27500000000E+03  0.00000000000E+00 0.  1.
    9000005    2    1    2  501    0 -0.22706050287E+02  0.25351954425E+02 -0.64377130871E+02  0.47016872755E+03  0.46449535097E+03 0.  0.
         13    1    3    3    0    0  0.86055689046E+02 -0.27777072300E+02  0.17777302027E+03  0.19945022962E+03  0.00000000000E+00 0.  1.
          1    1    3    3  501    0 -0.10876173933E+03  0.53129026725E+02 -0.24215015114E+03  0.27071849792E+03  0.00000000000E+00 0.  1.
         21    1    1    2  502  501  0.22706050287E+02 -0.25351954425E+02  0.29747877484E+02  0.45202019066E+02  0.00000000000E+00 0.  1.
<scales pt_clust_4="550.00000" pt_clust_5="550.00000" pt_clust_6="34.03361"></scales>
<mgrwt>
<rscale>  0 0.30000000E+03</rscale>
<asrwt>  1 0.34033606E+02</asrwt>
<pdfrwt beam="1">  1        1 0.87407544E+00 0.30000000E+03</pdfrwt>
<pdfrwt beam="2">0</pdfrwt>
<totfact> 0.23122025E-04</totfact>
</mgrwt>
<clustering>
<clus scale="   34.034">  1  6  2 -1</clus>
<clus scale="  464.495">  4  5 -1 -1</clus>
<clus scale="  300.000">  1  4  2 -1</clus>
</clustering>
</event>
<event>
 6    1  0.9843879E-012  0.3000000E+03  0.7818608E-02  0.1093470E+00
          1   -1    0    0  502    0  0.00000000000E+00  0.00000000000E+00  0.23705256299E+03  0.23705256299E+03  0.00000000000E+00 0.  1.
         13   -1    0    0    0    0 -0.00000000000E+00 -0.00000000000E+00 -0.27500000000E+03  0.27500000000E+03  0.00000000000E+00 0.  1.
    9000005    2    1    2  501    0  0.60270608455E+01 -0.29486112449E+02 -0.43503897358E+02  0.48144814270E+03  0.47853314278E+03 0.  0.
         13    1    3    3    0    0 -0.64936013884E+02  0.20307112347E+03 -0.94186650672E+02  0.23307872543E+03  0.00000000000E+00 0.  1.
          1    1    3    3  501    0  0.70963074730E+02 -0.23255723591E+03  0.50682753314E+02  0.24836941727E+03  0.00000000000E+00 0.  1.
         21    1    1    2  502  501 -0.60270608455E+01  0.29486112449E+02  0.55564603516E+01  0.30604420292E+02  0.00000000000E+00 0.  1.
<scales pt_clust_4="550.00000" pt_clust_5="550.00000" pt_clust_6="30.09579"></scales>
<mgrwt>
<rscale>  0 0.30000000E+03</rscale>
<asrwt>  1 0.30095785E+02</asrwt>
<pdfrwt beam="1">  1        1 0.86200932E+00 0.30000000E+03</pdfrwt>
<pdfrwt beam="2">0</pdfrwt>
<totfact> 0.31671874E-04</totfact>
</mgrwt>
<clustering>
<clus scale="   30.096">  1  6  2 -1</clus>
<clus scale="  478.533">  4  5 -1 -1</clus>
<clus scale="  300.000">  1  4  2 -1</clus>
</clustering>
</event>
<event>
 6    1  0.9843879E-012  0.3000000E+03  0.7818608E-02  0.1093470E+00
          1   -1    0    0  502    0  0.00000000000E+00  0.00000000000E+00  0.25504612148E+03  0.25504612148E+03  0.00000000000E+00 0.  1.
         13   -1    0    0    0    0 -0.00000000000E+00 -0.00000000000E+00 -0.27500000000E+03  0.27500000000E+03  0.00000000000E+00 0.  1.
    9000005    2    1    2  501    0  0.38248649818E+02  0.23016224720E+01 -0.33661940127E+02  0.48935008197E+03  0.48668482597E+03 0.  0.
         13    1    3    3    0    0  0.52259763216E+02  0.24008796978E+03  0.15245170948E+02  0.24618231318E+03  0.00000000000E+00 0.  1.
          3    1    3    3  501    0 -0.14011113398E+02 -0.23778634731E+03 -0.48907111075E+02  0.24316776879E+03  0.00000000000E+00 0.  1.
         21    1    1    2  502  501 -0.38248649818E+02 -0.23016224720E+01  0.13708061606E+02  0.40696039511E+02  0.00000000000E+00 0.  1.
<scales pt_clust_4="550.00000" pt_clust_5="550.00000" pt_clust_6="38.31784"></scales>
<mgrwt>
<rscale>  0 0.30000000E+03</rscale>
<asrwt>  1 0.38317838E+02</asrwt>
<pdfrwt beam="1">  1        1 0.92744044E+00 0.30000000E+03</pdfrwt>
<pdfrwt beam="2">0</pdfrwt>
<totfact> 0.28728021E-05</totfact>
</mgrwt>
<clustering>
<clus scale="   38.318">  1  6  2 -1</clus>
<clus scale="  486.685">  4  5 -1 -1</clus>
<clus scale="  300.000">  1  4  2 -1</clus>
</clustering>
</event>
<event>
 6    1  0.9843879E-012  0.3000000E+03  0.7818608E-02  0.1093470E+00
          1   -1    0    0  502    0  0.00000000000E+00  0.00000000000E+00  0.24855162856E+03  0.24855162856E+03  0.00000000000E+00 0.  1.
         13   -1    0    0    0    0 -0.00000000000E+00 -0.00000000000E+00 -0.27500000000E+03  0.27500000000E+03  0.00000000000E+00 0.  1.
    9000005    2    1    2  501    0  0.17285560745E+02  0.31528082291E+02 -0.51938491596E+02  0.47947718235E+03  0.47529774973E+03 0.  0.
         13    1    3    3    0    0 -0.68402237022E+02 -0.90183921949E+01  0.19932387660E+03  0.21092701394E+03  0.00000000000E+00 0.  1.
          1    1    3    3  501    0  0.85687797767E+02  0.40546474486E+02 -0.25126236820E+03  0.26855016841E+03  0.00000000000E+00 0.  1.
         21    1    1    2  502  501 -0.17285560745E+02 -0.31528082291E+02  0.25490120156E+02  0.44074446211E+02  0.00000000000E+00 0. -1.
<scales pt_clust_4="550.00000" pt_clust_5="550.00000" pt_clust_6="35.95568"></scales>
<mgrwt>
<rscale>  0 0.30000000E+03</rscale>
<asrwt>  1 0.35955675E+02</asrwt>
<pdfrwt beam="1">  1        1 0.90382410E+00 0.30000000E+03</pdfrwt>
<pdfrwt beam="2">0</pdfrwt>
<totfact> 0.96615844E-05</totfact>
</mgrwt>
<clustering>
<clus scale="   35.956">  1  6  2 -1</clus>
<clus scale="  475.298">  4  5 -1 -1</clus>
<clus scale="  300.000">  1  4  2 -1</clus>
</clustering>
</event>
<event>
 6    1  0.9843879E-012  0.3000000E+03  0.7818608E-02  0.1093470E+00
          1   -1    0    0  502    0  0.00000000000E+00  0.00000000000E+00  0.24614292186E+03  0.24614292186E+03  0.00000000000E+00 0.  1.
         13   -1    0    0    0    0 -0.00000000000E+00 -0.00000000000E+00 -0.27500000000E+03  0.27500000000E+03  0.00000000000E+00 0.  1.
    9000005    2    1    2  501    0  0.12385122416E+01 -0.44671084692E+02 -0.27601289032E+02  0.47643703045E+03  0.47353286381E+03 0.  0.
         13    1    3    3    0    0 -0.87795442275E+02  0.18481544122E+03 -0.88397493431E+02  0.22288764847E+03  0.00000000000E+00 0.  1.
          3    1    3    3  501    0  0.89033954516E+02 -0.22948652591E+03  0.60796204399E+02  0.25354938198E+03  0.00000000000E+00 0.  1.
         21    1    1    2  502  501 -0.12385122416E+01  0.44671084692E+02 -0.12557891094E+01  0.44705891406E+02  0.00000000000E+00 0. -1.
<scales pt_clust_4="550.00000" pt_clust_5="550.00000" pt_clust_6="44.68825"></scales>
<mgrwt>
<rscale>  0 0.30000000E+03</rscale>
<asrwt>  1 0.44688250E+02</asrwt>
<pdfrwt beam="1">  1        1 0.89506517E+00 0.30000000E+03</pdfrwt>
<pdfrwt beam="2">0</pdfrwt>
<totfact> 0.12037829E-04</totfact>
</mgrwt>
<clustering>
<clus scale="   44.688">  1  6  2 -1</clus>
<clus scale="  473.533">  4  5 -1 -1</clus>
<clus scale="  300.000">  1  4  2 -1</clus>
</clustering>
</event>
<event>
 6    1  0.9843879E-012  0.3000000E+03  0.7818608E-02  0.1093470E+00
          1   -1    0    0  502    0  0.00000000000E+00  0.00000000000E+00  0.23171266156E+03  0.23171266156E+03  0.00000000000E+00 0.  1.
         13   -1    0    0    0    0 -0.00000000000E+00 -0.00000000000E+00 -0.27500000000E+03  0.27500000000E+03  0.00000000000E+00 0.  1.
    9000005    2    1    2  501    0 -0.30217126029E+02  0.18861153902E+02 -0.65444143802E+02  0.46476338438E+03  0.45875183888E+03 0.  0.
         13    1    3    3    0    0 -0.69373602665E+01 -0.21373392216E+03  0.22463712670E+02  0.21502310303E+03  0.00000000000E+00 0.  1.
          1    1    3    3  501    0 -0.23279765762E+02  0.23259507606E+03 -0.87907856472E+02  0.24974028136E+03  0.00000000000E+00 0.  1.
         21    1    1    2  502  501  0.30217126029E+02 -0.18861153902E+02  0.22156805366E+02  0.41949277180E+02  0.00000000000E+00 0.  1.
<scales pt_clust_4="550.00000" pt_clust_5="550.00000" pt_clust_6="35.62047"></scales>
<mgrwt>
<rscale>  0 0.30000000E+03</rscale>
<asrwt>  1 0.35620469E+02</asrwt>
<pdfrwt beam="1">  1        1 0.84259150E+00 0.30000000E+03</pdfrwt>
<pdfrwt beam="2">0</pdfrwt>
<totfact> 0.47221951E-04</totfact>
</mgrwt>
<clustering>
<clus scale="   35.620">  1  6  2 -1</clus>
<clus scale="  458.752">  4  5 -1 -1</clus>
<clus scale="  300.000">  1  4  2 -1</clus>
</clustering>
</event>
<event>
 6    1  0.9843879E-012  0.3000000E+03  0.7818608E-02  0.1093470E+00
          1   -1    0    0  502    0  0.00000000000E+00  0.00000000000E+00  0.23347115153E+03  0.23347115153E+03  0.00000000000E+00 0.  1.
         13   -1    0    0    0    0 -0.00000000000E+00 -0.00000000000E+00 -0.27500000000E+03  0.27500000000E+03  0.00000000000E+00 0.  1.
    9000005    2    1    2  501    0  0.31200421297E+02  0.82273140309E+01 -0.99987403643E+01  0.46335682229E+03  0.46212380913E+03 0.  0.
         13    1    3    3    0    0  0.22264613610E+03  0.32872451333E+02  0.94228048289E+02  0.24398939539E+03  0.00000000000E+00 0.  1.
          3    1    3    3  501    0 -0.19144571481E+03 -0.24645137302E+02 -0.10422678865E+03  0.21936742690E+03  0.00000000000E+00 0.  1.
         21    1    1    2  502  501 -0.31200421297E+02 -0.82273140309E+01 -0.31530108110E+02  0.45114329240E+02  0.00000000000E+00 0. -1.
<scales pt_clust_4="550.00000" pt_clust_5="550.00000" pt_clust_6="32.26695"></scales>
<mgrwt>
<rscale>  0 0.30000000E+03</rscale>
<asrwt>  1 0.32266949E+02</asrwt>
<pdfrwt beam="1">  1        1 0.84898601E+00 0.30000000E+03</pdfrwt>
<pdfrwt beam="2">0</pdfrwt>
<totfact> 0.42236873E-04</totfact>
</mgrwt>
<clustering>
<clus scale="   32.267">  1  6  2 -1</clus>
<clus scale="  462.124">  4  5 -1 -1</clus>
<clus scale="  300.000">  1  4  2 -1</clus>
</clustering>
</event>
<event>
 6    1  0.9843879E-012  0.3000000E+03  0.7818608E-02  0.1093470E+00
          1   -1    0    0  502    0  0.00000000000E+00  0.00000000000E+00  0.24299105088E+03  0.24299105088E+03  0.00000000000E+00 0.  1.
         13   -1    0    0    0    0 -0.00000000000E+00 -0.00000000000E+00 -0.27500000000E+03  0.27500000000E+03  0.00000000000E+00 0.  1.
    9000005    2    1    2  501    0  0.35010751939E+02  0.13357795942E+02 -0.23796099764E+02  0.47962916409E+03  0.47757062014E+03 0.  0.
         13    1    3    3    0    0 -0.21820879693E+02  0.21281055114E+03 -0.12615444298E+03  0.24835342750E+03  0.00000000000E+00 0.  1.
          3    1    3    3  501    0  0.56831631633E+02 -0.19945275520E+03  0.10235834322E+03  0.23127573659E+03  0.00000000000E+00 0.  1.
         21    1    1    2  502  501 -0.35010751939E+02 -0.13357795942E+02 -0.82128493544E+01  0.38361886793E+02  0.00000000000E+00 0.  1.
<scales pt_clust_4="550.00000" pt_clust_5="550.00000" pt_clust_6="37.47245"></scales>
<mgrwt>
<rscale>  0 0.30000000E+03</rscale>
<asrwt>  1 0.37472455E+02</asrwt>
<pdfrwt beam="1">  1        1 0.88360382E+00 0.30000000E+03</pdfrwt>
<pdfrwt beam="2">0</pdfrwt>
<totfact> 0.17504879E-04</totfact>
</mgrwt>
<clustering>
<clus scale="   37.472">  1  6  2 -1</clus>
<clus scale="  477.571">  4  5 -1 -1</clus>
<clus scale="  300.000">  1  4  2 -1</clus>
</clustering>
</event>
<event>
 6    1  0.9843879E-012  0.3000000E+03  0.7818608E-02  0.1093470E+00
          1   -1    0    0  502    0  0.00000000000E+00  0.00000000000E+00  0.24635396285E+03  0.24635396285E+03  0.00000000000E+00 0.  1.
         13   -1    0    0    0    0 -0.00000000000E+00 -0.00000000000E+00 -0.27500000000E+03  0.27500000000E+03  0.00000000000E+00 0.  1.
    9000005    2    1    2  501    0  0.20522961899E+01 -0.37287914726E+02 -0.48653658032E+02  0.47898763899E+03  0.47504460776E+03 0.  0.
         13    1    3    3    0    0  0.14327329548E+03 -0.20313112724E+03 -0.74835850602E+02  0.25959564054E+03  0.00000000000E+00 0.  1.
          1    1    3    3  501    0 -0.14122099929E+03  0.16584321252E+03  0.26182192570E+02  0.21939199845E+03  0.00000000000E+00 0.  1.
         21    1    1    2  502  501 -0.20522961899E+01  0.37287914726E+02  0.20007620884E+02  0.42366323863E+02  0.00000000000E+00 0.  1.
<scales pt_clust_4="550.00000" pt_clust_5="550.00000" pt_clust_6="37.34435"></scales>
<mgrwt>
<rscale>  0 0.30000000E+03</rscale>
<asrwt>  1 0.37344350E+02</asrwt>
<pdfrwt beam="1">  1        1 0.89583259E+00 0.30000000E+03</pdfrwt>
<pdfrwt beam="2">0</pdfrwt>
<totfact> 0.12194126E-04</totfact>
</mgrwt>
<clustering>
<clus scale="   37.344">  1  6  2 -1</clus>
<clus scale="  475.045">  4  5 -1 -1</clus>
<clus scale="  300.000">  1  4  2 -1</clus>
</clustering>
</event>
<event>
 6    1  0.9843879E-012  0.3000000E+03  0.7818608E-02  0.1093470E+00
          1   -1    0    0  502    0  0.00000000000E+00  0.00000000000E+00  0.24857664077E+03  0.24857664077E+03  0.00000000000E+00 0.  1.
         13   -1    0    0    0    0 -0.00000000000E+00 -0.00000000000E+00 -0.27500000000E+03  0.27500000000E+03  0.00000000000E+00 0.  1.
    9000005    2    1    2  501    0 -0.49846277405E+02 -0.87693767548E+01 -0.18249411972E+02  0.47230904132E+03  0.46923473458E+03 0.  0.
         13    1    3    3    0    0 -0.25852684235E+03 -0.11161374841E+02  0.22246112370E+02  0.25972214772E+03  0.00000000000E+00 0.  1.
          3    1    3    3  501    0  0.20868056494E+03  0.23919980861E+01 -0.40495524341E+02  0.21258689360E+03  0.00000000000E+00 0.  1.
         21    1    1    2  502  501  0.49846277405E+02  0.87693767548E+01 -0.81739472560E+01  0.51267599451E+02  0.00000000000E+00 0.  1.
<scales pt_clust_4="550.00000" pt_clust_5="550.00000" pt_clust_6="50.61182"></scales>
<mgrwt>
<rscale>  0 0.30000000E+03</rscale>
<asrwt>  1 0.50611816E+02</asrwt>
<pdfrwt beam="1">  1        1 0.90391506E+00 0.30000000E+03</pdfrwt>
<pdfrwt beam="2">0</pdfrwt>
<totfact> 0.90507664E-05</totfact>
</mgrwt>
<clustering>
<clus scale="   50.612">  1  6  2 -1</clus>
<clus scale="  469.235">  4  5 -1 -1</clus>
<clus scale="  300.000">  1  4  2 -1</clus>
</clustering>
</event>
<event>
 6    1  0.9843879E-012  0.3000000E+03  0.7818608E-02  0.1093470E+00
          1   -1    0    0  502    0  0.00000000000E+00  0.00000000000E+00  0.23304555114E+03  0.23304555114E+03  0.00000000000E+00 0.  1.
         13   -1    0    0    0    0 -0.00000000000E+00 -0.00000000000E+00 -0.27500000000E+03  0.27500000000E+03  0.00000000000E+00 0.  1.
    9000005    2    1    2  501    0  0.32055232594E+02  0.11730375342E+02 -0.40161985811E+02  0.47386437845E+03  0.47092390513E+03 0.  0.
         13    1    3    3    0    0 -0.12425587788E+03 -0.27671500550E+02  0.16787437045E+03  0.21068231864E+03  0.00000000000E+00 0.  1.
          3    1    3    3  501    0  0.15631111048E+03  0.39401875892E+02 -0.20803635626E+03  0.26318205982E+03  0.00000000000E+00 0.  1.
         21    1    1    2  502  501 -0.32055232594E+02 -0.11730375342E+02 -0.17924630512E+01  0.34181172685E+02  0.00000000000E+00 0. -1.
<scales pt_clust_4="550.00000" pt_clust_5="550.00000" pt_clust_6="34.13414"></scales>
<mgrwt>
<rscale>  0 0.30000000E+03</rscale>
<asrwt>  1 0.34134142E+02</asrwt>
<pdfrwt beam="1">  1        1 0.84743837E+00 0.30000000E+03</pdfrwt>
<pdfrwt beam="2">0</pdfrwt>
<totfact> 0.43179596E-04</totfact>
</mgrwt>
<clustering>
<clus scale="   34.134">  1  6  2 -1</clus>
<clus scale="  470.924">  4  5 -1 -1</clus>
<clus scale="  300.000">  1  4  2 -1</clus>
</clustering>
</event>
<event>
 6    1  0.9843879E-012  0.3000000E+03  0.7818608E-02  0.1093470E+00
          1   -1    0    0  502    0  0.00000000000E+00  0.00000000000E+00  0.22950760816E+03  0.22950760816E+03  0.00000000000E+00 0.  1.
         13   -1    0    0    0    0 -0.00000000000E+00 -0.00000000000E+00 -0.27500000000E+03  0.27500000000E+03  0.00000000000E+00 0.  1.
    9000005    2    1    2  501    0 -0.10137703702E+02  0.32168491229E+02 -0.55226427841E+02  0.46940296002E+03  0.46492106392E+03 0.  0.
         13    1    3    3    0    0  0.61804995030E+02 -0.11110848813E+02  0.19531865233E+03  0.20516501730E+03  0.00000000000E+00 0.  1.
          3    1    3    3  501    0 -0.71942698732E+02  0.43279340042E+02 -0.25054508018E+03  0.26423794272E+03  0.00000000000E+00 0.  1.
         21    1    1    2  502  501  0.10137703702E+02 -0.32168491229E+02  0.97340360029E+01  0.35104648142E+02  0.00000000000E+00 0.  1.
<scales pt_clust_4="550.00000" pt_clust_5="550.00000" pt_clust_6="33.72810"></scales>
<mgrwt>
<rscale>  0 0.30000000E+03</rscale>
<asrwt>  1 0.33728102E+02</asrwt>
<pdfrwt beam="1">  1        1 0.83457312E+00 0.30000000E+03</pdfrwt>
<pdfrwt beam="2">0</pdfrwt>
<totfact> 0.54869322E-04</totfact>
</mgrwt>
<clustering>
<clus scale="   33.728">  1  6  2 -1</clus>
<clus scale="  464.921">  4  5 -1 -1</clus>
<clus scale="  300.000">  1  4  2 -1</clus>
</clustering>
</event>
<event>
 6    1  0.9843879E-012  0.3000000E+03  0.7818608E-02  0.1093470E+00
          1   -1    0    0  502    0  0.00000000000E+00  0.00000000000E+00  0.23590786329E+03  0.23590786329E+03  0.00000000000E+00 0.  1.
         13   -1    0    0    0    0 -0.00000000000E+00 -0.00000000000E+00 -0.27500000000E+03  0.27500000000E+03  0.00000000000E+00 0.  1.
    9000005    2    1    2  501    0  0.11850171407E+02  0.43325937022E+02 -0.31308501305E+02  0.46532115074E+03  0.46208872274E+03 0.  0.
         13    1    3    3    0    0  0.24054341389E+02 -0.10004533349E+03  0.18137889255E+03  0.20853292967E+03  0.00000000000E+00 0.  1.
          1    1    3    3  501    0 -0.12204169982E+02  0.14337127052E+03 -0.21268739385E+03  0.25678822107E+03  0.00000000000E+00 0.  1.
         21    1    1    2  502  501 -0.11850171407E+02 -0.43325937022E+02 -0.77836354075E+01  0.45586712552E+02  0.00000000000E+00 0. -1.
<scales pt_clust_4="550.00000" pt_clust_5="550.00000" pt_clust_6="44.91732"></scales>
<mgrwt>
<rscale>  0 0.30000000E+03</rscale>
<asrwt>  1 0.44917317E+02</asrwt>
<pdfrwt beam="1">  1        1 0.85784678E+00 0.30000000E+03</pdfrwt>
<pdfrwt beam="2">0</pdfrwt>
<totfact> 0.32563459E-04</totfact>
</mgrwt>
<clustering>
<clus scale="   44.917">  1  6  2 -1</clus>
<clus scale="  462.089">  4  5 -1 -1</clus>
<clus scale="  300.000">  1  4  2 -1</clus>
</clustering>
</event>
<event>
 6    1  0.9843879E-012  0.3000000E+03  0.7818608E-02  0.1093470E+00
          1   -1    0    0  502    0  0.00000000000E+00  0.00000000000E+00  0.22339045916E+03  0.22339045916E+03  0.00000000000E+00 0.  1.
         13   -1    0    0    0    0 -0.00000000000E+00 -0.00000000000E+00 -0.27500000000E+03  0.27500000000E+03  0.00000000000E+00 0.  1.
    9000005    2    1    2  501    0  0.27364694120E+02 -0.14516936972E+02 -0.43029201997E+02  0.46624718369E+03  0.46322279319E+03 0.  0.
         13    1    3    3    0    0  0.24441814193E+03  0.16518857466E+02 -0.20513568041E+02  0.24583308815E+03  0.00000000000E+00 0.  1.
          1    1    3    3  501    0 -0.21705344781E+03 -0.31035794438E+02 -0.22515633956E+02  0.22041409554E+03  0.00000000000E+00 0.  1.
         21    1    1    2  502  501 -0.27364694120E+02  0.14516936972E+02 -0.85803388388E+01  0.32143275470E+02  0.00000000000E+00 0.  1.
<scales pt_clust_4="550.00000" pt_clust_5="550.00000" pt_clust_6="30.97691"></scales>
<mgrwt>
<rscale>  0 0.30000000E+03</rscale>
<asrwt>  1 0.30976909E+02</asrwt>
<pdfrwt beam="1">  1        1 0.81232894E+00 0.30000000E+03</pdfrwt>
<pdfrwt beam="2">0</pdfrwt>
<totfact> 0.85571243E-04</totfact>
</mgrwt>
<clustering>
<clus scale="   30.977">  1  6  2 -1</clus>
<clus scale="  463.223">  4  5 -1 -1</clus>
<clus scale="  300.000">  1  4  2 -1</clus>
</clustering>
</event>
<event>
 6    1  0.9843879E-012  0.3000000E+03  0.7818608E-02  0.1093470E+00
          1   -1    0    0  502    0  0.00000000000E+00  0.00000000000E+00  0.22386582479E+03  0.22386582479E+03  0.00000000000E+00 0.  1.
         13   -1    0    0    0    0 -0.00000000000E+00 -0.00000000000E+00 -0.27500000000E+03  0.27500000000E+03  0.00000000000E+00 0.  1.
    9000005    2    1    2  501    0 -0.21252266578E+02 -0.31165178178E+02 -0.53300840645E+02  0.46108194457E+03  0.45643471913E+03 0.  0.
         13    1    3    3    0    0  0.30589502747E+02 -0.72467888167E+02  0.19173313560E+03  0.20724118264E+03  0.00000000000E+00 0.  1.
          3    1    3    3  501    0 -0.51841769325E+02  0.41302709988E+02 -0.24503397625E+03  0.25384076193E+03  0.00000000000E+00 0.  1.
         21    1    1    2  502  501  0.21252266578E+02  0.31165178178E+02  0.21666654371E+01  0.37783880223E+02  0.00000000000E+00 0.  1.
<scales pt_clust_4="550.00000" pt_clust_5="550.00000" pt_clust_6="37.72171"></scales>
<mgrwt>
<rscale>  0 0.30000000E+03</rscale>
<asrwt>  1 0.37721707E+02</asrwt>
<pdfrwt beam="1">  1        1 0.81405754E+00 0.30000000E+03</pdfrwt>
<pdfrwt beam="2">0</pdfrwt>
<totfact> 0.79887994E-04</totfact>
</mgrwt>
<clustering>
<clus scale="   37.722">  1  6  2 -1</clus>
<clus scale="  456.435">  4  5 -1 -1</clus>
<clus scale="  300.000">  1  4  2 -1</clus>
</clustering>
</event>
<event>
 6    1  0.9843879E-012  0.3000000E+03  0.7818608E-02  0.1093470E+00
          1   -1    0    0  502    0  0.00000000000E+00  0.00000000000E+00  0.22407299106E+03  0.22407299106E+03  0.00000000000E+00 0.  1.
         13   -1    0    0    0    0 -0.00000000000E+00 -0.00000000000E+00 -0.27500000000E+03  0.27500000000E+03  0.00000000000E+00 0.  1.
    9000005    2    1    2  501    0  0.28932395695E+02 -0.15110028363E+02 -0.61356845993E+02  0.46480671057E+03  0.45958156965E+03 0.  0.
         13    1    3    3    0    0 -0.13428614909E+02 -0.19311759008E+03  0.10262242467E+03  0.21910292864E+03  0.00000000000E+00 0.  1.
          3    1    3    3  501    0  0.42361010604E+02  0.17800756171E+03 -0.16397927066E+03  0.24570378193E+03  0.00000000000E+00 0.  1.
         21    1    1    2  502  501 -0.28932395695E+02  0.15110028363E+02  0.10429837057E+02  0.34266280493E+02  0.00000000000E+00 0. -1.
<scales pt_clust_4="550.00000" pt_clust_5="550.00000" pt_clust_6="32.64041"></scales>
<mgrwt>
<rscale>  0 0.30000000E+03</rscale>
<asrwt>  1 0.32640412E+02</asrwt>
<pdfrwt beam="1">  1        1 0.81481088E+00 0.30000000E+03</pdfrwt>
<pdfrwt beam="2">0</pdfrwt>
<totfact> 0.80941153E-04</totfact>
</mgrwt>
<clustering>
<clus scale="   32.640">  1  6  2 -1</clus>
<clus scale="  459.582">  4  5 -1 -1</clus>
<clus scale="  300.000">  1  4  2 -1</clus>
</clustering>
</event>
<event>
 6    1  0.9843879E-012  0.3000000E+03  0.7818608E-02  0.1093470E+00
          1   -1    0    0  502    0  0.00000000000E+00  0.00000000000E+00  0.22870607361E+03  0.22870607361E+03  0.00000000000E+00 0.  1.
         13   -1    0    0    0    0 -0.00000000000E+00 -0.00000000000E+00 -0.27500000000E+03  0.27500000000E+03  0.00000000000E+00 0.  1.
    9000005    2    1    2  501    0 -0.15546763619E+02 -0.33990514677E+02 -0.55338737613E+02  0.46525005253E+03  0.46043259936E+03 0.  0.
         13    1    3    3    0    0 -0.64191498880E+02 -0.10439738002E+03 -0.23567706908E+03  0.26563705007E+03  0.00000000000E+00 0.  1.
          3    1    3    3  501    0  0.48644735261E+02  0.70406865343E+02  0.18033833146E+03  0.19961300246E+03  0.00000000000E+00 0.  1.
         21    1    1    2  502  501  0.15546763619E+02  0.33990514677E+02  0.90448112259E+01  0.38456021078E+02  0.00000000000E+00 0. -1.
<scales pt_clust_4="550.00000" pt_clust_5="550.00000" pt_clust_6="37.37722"></scales>
<mgrwt>
<rscale>  0 0.30000000E+03</rscale>
<asrwt>  1 0.37377225E+02</asrwt>
<pdfrwt beam="1">  1        1 0.83165845E+00 0.30000000E+03</pdfrwt>
<pdfrwt beam="2">0</pdfrwt>
<totfact> 0.56621780E-04</totfact>
</mgrwt>
<clustering>
<clus scale="   37.377">  1  6  2 -1</clus>
<clus scale="  460.433">  4  5 -1 -1</clus>
<clus scale="  300.000">  1  4  2 -1</clus>
</clustering>
</event>
<event>
 6    1  0.9843879E-012  0.3000000E+03  0.7818608E-02  0.1093470E+00
          1   -1    0    0  502    0  0.00000000000E+00  0.00000000000E+00  0.23546910323E+03  0.23546910323E+03  0.00000000000E+00 0.  1.
         13   -1    0    0    0    0 -0.00000000000E+00 -0.00000000000E+00 -0.27500000000E+03  0.27500000000E+03  0.00000000000E+00 0.  1.
    9000005    2    1    2  501    0  0.36105926388E+02  0.21725787182E+02 -0.52358024758E+02  0.46642159522E+03  0.46155399899E+03 0.  0.
         13    1    3    3    0    0  0.14393395885E+03  0.14434499488E+03  0.11380166076E+03  0.23345937559E+03  0.00000000000E+00 0.  1.
          3    1    3    3  501    0 -0.10782803247E+03 -0.12261920770E+03 -0.16615968552E+03  0.23296221963E+03  0.00000000000E+00 0.  1.
         21    1    1    2  502  501 -0.36105926388E+02 -0.21725787182E+02  0.12827127983E+02  0.44047508004E+02  0.00000000000E+00 0.  1.
<scales pt_clust_4="550.00000" pt_clust_5="550.00000" pt_clust_6="42.13844"></scales>
<mgrwt>
<rscale>  0 0.30000000E+03</rscale>
<asrwt>  1 0.42138436E+02</asrwt>
<pdfrwt beam="1">  1        1 0.85625128E+00 0.30000000E+03</pdfrwt>
<pdfrwt beam="2">0</pdfrwt>
<totfact> 0.34207749E-04</totfact>
</mgrwt>
<clustering>
<clus scale="   42.138">  1  6  2 -1</clus>
<clus scale="  461.554">  4  5 -1 -1</clus>
<clus scale="  300.000">  1  4  2 -1</clus>
</clustering>
</event>
<event>
 6    1  0.9843879E-012  0.3000000E+03  0.7818608E-02  0.1093470E+00
          1   -1    0    0  502    0  0.00000000000E+00  0.00000000000E+00  0.26251306218E+03  0.26251306218E+03  0.00000000000E+00 0.  1.
         13   -1    0    0    0    0 -0.00000000000E+00 -0.00000000000E+00 -0.27500000000E+03  0.27500000000E+03  0.00000000000E+00 0.  1.
    9000005    2    1    2  501    0  0.11875427090E+01 -0.43665933897E+02 -0.62166234978E+02  0.47136053686E+03  0.46519672279E+03 0.  0.
         13    1    3    3    0    0 -0.18669938441E+02  0.20251655801E+03 -0.90799585122E+02  0.22272424100E+03  0.00000000000E+00 0.  1.
          3    1    3    3  501    0  0.19857481150E+02 -0.24618249191E+03  0.28633350145E+02  0.24863629586E+03  0.00000000000E+00 0.  1.
         21    1    1    2  502  501 -0.11875427090E+01  0.43665933897E+02  0.49679297162E+02  0.66152525328E+02  0.00000000000E+00 0. -1.
<scales pt_clust_4="550.00000" pt_clust_5="550.00000" pt_clust_6="43.68208"></scales>
<mgrwt>
<rscale>  0 0.30000000E+03</rscale>
<asrwt>  1 0.43682079E+02</asrwt>
<pdfrwt beam="1">  1        1 0.95459295E+00 0.30000000E+03</pdfrwt>
<pdfrwt beam="2">0</pdfrwt>
<totfact> 0.95078367E-06</totfact>
</mgrwt>
<clustering>
<clus scale="   43.682">  1  6  2 -1</clus>
<clus scale="  465.197">  4  5 -1 -1</clus>
<clus scale="  300.000">  1  4  2 -1</clus>
</clustering>
</event>
<event>
 6    1  0.9843879E-012  0.3000000E+03  0.7818608E-02  0.1093470E+00
          1   -1    0    0  502    0  0.00000000000E+00  0.00000000000E+00  0.23733239159E+03  0.23733239159E+03  0.00000000000E+00 0.  1.
         13   -1    0    0    0    0 -0.00000000000E+00 -0.00000000000E+00 -0.27500000000E+03  0.27500000000E+03  0.00000000000E+00 0.  1.
    9000005    2    1    2  501    0 -0.34855022959E+02 -0.11349932834E+02 -0.55892536377E+02  0.47139534724E+03  0.46663251513E+03 0.  0.
         13    1    3    3    0    0  0.16455368806E+03 -0.35906914764E+01  0.12134834956E+03  0.20449017399E+03  0.00000000000E+00 0.  1.
          3    1    3    3  501    0 -0.19940871102E+03 -0.77592413574E+01 -0.17724088594E+03  0.26690517324E+03  0.00000000000E+00 0.  1.
         21    1    1    2  502  501  0.34855022959E+02  0.11349932834E+02  0.18224927964E+02  0.40937044350E+02  0.00000000000E+00 0. -1.
<scales pt_clust_4="550.00000" pt_clust_5="550.00000" pt_clust_6="36.65643"></scales>
<mgrwt>
<rscale>  0 0.30000000E+03</rscale>
<asrwt>  1 0.36656426E+02</asrwt>
<pdfrwt beam="1">  1        1 0.86302688E+00 0.30000000E+03</pdfrwt>
<pdfrwt beam="2">0</pdfrwt>
<totfact> 0.29750140E-04</totfact>
</mgrwt>
<clustering>
<clus scale="   36.656">  1  6  2 -1</clus>
<clus scale="  466.633">  4  5 -1 -1</clus>
<clus scale="  300.000">  1  4  2 -1</clus>
</clustering>
</event>
<event>
 6    1  0.9843879E-012  0.3000000E+03  0.7818608E-02  0.1093470E+00
          1   -1    0    0  502    0  0.00000000000E+00  0.00000000000E+00  0.23143379763E+03  0.23143379763E+03  0.00000000000E+00 0.  1.
         13   -1    0    0    0    0 -0.00000000000E+00 -0.00000000000E+00 -0.27500000000E+03  0.27500000000E+03  0.00000000000E+00 0.  1.
    9000005    2    1    2  501    0 -0.51280921202E+01 -0.44011915093E+02 -0.39229281895E+02  0.46191239964E+03  0.45810564545E+03 0.  0.
         13    1    3    3    0    0 -0.10375952998E+03  0.94653230434E+02 -0.18883190094E+03  0.23533542212E+03  0.00000000000E+00 0.  1.
          3    1    3    3  501    0  0.98631437859E+02 -0.13866514553E+03  0.14960261904E+03  0.22657697752E+03  0.00000000000E+00 0.  1.
         21    1    1    2  502  501  0.51280921202E+01  0.44011915093E+02 -0.43369204792E+01  0.44521397981E+02  0.00000000000E+00 0.  1.
<scales pt_clust_4="550.00000" pt_clust_5="550.00000" pt_clust_6="44.30968"></scales>
<mgrwt>
<rscale>  0 0.30000000E+03</rscale>
<asrwt>  1 0.44309682E+02</asrwt>
<pdfrwt beam="1">  1        1 0.84157745E+00 0.30000000E+03</pdfrwt>
<pdfrwt beam="2">0</pdfrwt>
<totfact> 0.46259896E-04</totfact>
</mgrwt>
<clustering>
<clus scale="   44.310">  1  6  2 -1</clus>
<clus scale="  458.106">  4  5 -1 -1</clus>
<clus scale="  300.000">  1  4  2 -1</clus>
</clustering>
</event>
<event>
 6    1  0.9843879E-012  0.3000000E+03  0.7818608E-02  0.1093470E+00
          1   -1    0    0  502    0  0.00000000000E+00  0.00000000000E+00  0.22381223736E+03  0.22381223736E+03  0.00000000000E+00 0.  1.
         13   -1    0    0    0    0 -0.00000000000E+00 -0.00000000000E+00 -0.27500000000E+03  0.27500000000E+03  0.00000000000E+00 0.  1.
    9000005    2    1    2  501    0  0.13165973989E+02 -0.30341911080E+02 -0.40816872534E+02  0.46414914747E+03  0.46116639034E+03 0.  0.
         13    1    3    3    0    0 -0.10135742912E+03  0.17754754443E+03  0.49245397898E+02  0.21028924886E+03  0.00000000000E+00 0.  1.
          3    1    3    3  501    0  0.11452340311E+03 -0.20788945551E+03 -0.90062270432E+02  0.25385989862E+03  0.00000000000E+00 0.  1.
         21    1    1    2  502  501 -0.13165973989E+02  0.30341911080E+02 -0.10370890103E+02  0.34663089888E+02  0.00000000000E+00 0.  1.
<scales pt_clust_4="550.00000" pt_clust_5="550.00000" pt_clust_6="33.07530"></scales>
<mgrwt>
<rscale>  0 0.30000000E+03</rscale>
<asrwt>  1 0.33075301E+02</asrwt>
<pdfrwt beam="1">  1        1 0.81386268E+00 0.30000000E+03</pdfrwt>
<pdfrwt beam="2">0</pdfrwt>
<totfact> 0.82168177E-04</totfact>
</mgrwt>
<clustering>
<clus scale="   33.075">  1  6  2 -1</clus>
<clus scale="  461.166">  4  5 -1 -1</clus>
<clus scale="  300.000">  1  4  2 -1</clus>
</clustering>
</event>
<event>
 6    1  0.9843879E-012  0.3000000E+03  0.7818608E-02  0.1093470E+00
          1   -1    0    0  502    0  0.00000000000E+00  0.00000000000E+00  0.23634635756E+03  0.23634635756E+03  0.00000000000E+00 0.  1.
         13   -1    0    0    0    0 -0.00000000000E+00 -0.00000000000E+00 -0.27500000000E+03  0.27500000000E+03  0.00000000000E+00 0.  1.
    9000005    2    1    2  501    0 -0.25553689212E+02  0.20009033189E+02 -0.33734587976E+02  0.47852030787E+03  0.47622506253E+03 0.  0.
         13    1    3    3    0    0  0.52998383823E+02 -0.27866790477E+02  0.20980683687E+03  0.21818408626E+03  0.00000000000E+00 0.  1.
          3    1    3    3  501    0 -0.78552073035E+02  0.47875823666E+02 -0.24354142485E+03  0.26033622162E+03  0.00000000000E+00 0.  1.
         21    1    1    2  502  501  0.25553689212E+02 -0.20009033189E+02 -0.49190544589E+01  0.32826049690E+02  0.00000000000E+00 0. -1.
<scales pt_clust_4="550.00000" pt_clust_5="550.00000" pt_clust_6="32.45541"></scales>
<mgrwt>
<rscale>  0 0.30000000E+03</rscale>
<asrwt>  1 0.32455408E+02</asrwt>
<pdfrwt beam="1">  1        1 0.85944130E+00 0.30000000E+03</pdfrwt>
<pdfrwt beam="2">0</pdfrwt>
<totfact> 0.33261693E-04</totfact>
</mgrwt>
<clustering>
<clus scale="   32.455">  1  6  2 -1</clus>
<clus scale="  476.225">  4  5 -1 -1</clus>
<clus scale="  300.000">  1  4  2 -1</clus>
</clustering>
</event>
<event>
 6    1  0.9843879E-012  0.3000000E+03  0.7818608E-02  0.1093470E+00
          1   -1    0    0  502    0  0.00000000000E+00  0.00000000000E+00  0.25584582680E+03  0.25584582680E+03  0.00000000000E+00 0.  1.
         13   -1    0    0    0    0 -0.00000000000E+00 -0.00000000000E+00 -0.27500000000E+03  0.27500000000E+03  0.00000000000E+00 0.  1.
    9000005    2    1    2  501    0 -0.71687602212E+01 -0.31238306938E+02 -0.24558939429E+02  0.49834298936E+03  0.49670451034E+03 0.  0.
         13    1    3    3    0    0  0.60315166769E+02 -0.24677329231E+02  0.22784991352E+03  0.23698622959E+03  0.00000000000E+00 0.  1.
          1    1    3    3  501    0 -0.67483926990E+02 -0.65609777065E+01 -0.25240885295E+03  0.26135675977E+03  0.00000000000E+00 0.  1.
         21    1    1    2  502  501  0.71687602212E+01  0.31238306938E+02  0.54047662251E+01  0.32502837436E+02  0.00000000000E+00 0.  1.
<scales pt_clust_4="550.00000" pt_clust_5="550.00000" pt_clust_6="32.05032"></scales>
<mgrwt>
<rscale>  0 0.30000000E+03</rscale>
<asrwt>  1 0.32050319E+02</asrwt>
<pdfrwt beam="1">  1        1 0.93034846E+00 0.30000000E+03</pdfrwt>
<pdfrwt beam="2">0</pdfrwt>
<totfact> 0.26398106E-05</totfact>
</mgrwt>
<clustering>
<clus scale="   32.050">  1  6  2 -1</clus>
<clus scale="  496.705">  4  5 -1 -1</clus>
<clus scale="  300.000">  1  4  2 -1</clus>
</clustering>
</event>
<event>
 6    1  0.9843879E-012  0.3000000E+03  0.7818608E-02  0.1093470E+00
          1   -1    0    0  502    0  0.00000000000E+00  0.00000000000E+00  0.22683198547E+03  0.22683198547E+03  0.00000000000E+00 0.  1.
         13   -1    0    0    0    0 -0.00000000000E+00 -0.00000000000E+00 -0.27500000000E+03  0.27500000000E+03  0.00000000000E+00 0.  1.
    9000005    2    1    2  501    0 -0.27794545833E+02 -0.19331034512E+02 -0.67103198394E+02  0.46304066091E+03  0.45689997674E+03 0.  0.
         13    1    3    3    0    0 -0.15162949425E+03  0.29757819600E+02 -0.21450416777E+03  0.26436540875E+03  0.00000000000E+00 0.  1.
          1    1    3    3  501    0  0.12383494842E+03 -0.49088854111E+02  0.14740096937E+03  0.19867525216E+03  0.00000000000E+00 0.  1.
         21    1    1    2  502  501  0.27794545833E+02  0.19331034512E+02  0.18935183863E+02  0.38791324562E+02  0.00000000000E+00 0.  1.
<scales pt_clust_4="550.00000" pt_clust_5="550.00000" pt_clust_6="33.85595"></scales>
<mgrwt>
<rscale>  0 0.30000000E+03</rscale>
<asrwt>  1 0.33855955E+02</asrwt>
<pdfrwt beam="1">  1        1 0.82484358E+00 0.30000000E+03</pdfrwt>
<pdfrwt beam="2">0</pdfrwt>
<totfact> 0.65937413E-04</totfact>
</mgrwt>
<clustering>
<clus scale="   33.856">  1  6  2 -1</clus>
<clus scale="  456.900">  4  5 -1 -1</clus>
<clus scale="  300.000">  1  4  2 -1</clus>
</clustering>
</event>
<event>
 6    1  0.9843879E-012  0.3000000E+03  0.7818608E-02  0.1093470E+00
          1   -1    0    0  502    0  0.00000000000E+00  0.00000000000E+00  0.24386399217E+03  0.24386399217E+03  0.00000000000E+00 0.  1.
         13   -1    0    0    0    0 -0.00000000000E+00 -0.00000000000E+00 -0.27500000000E+03  0.27500000000E+03  0.00000000000E+00 0.  1.
    9000005    2    1    2  501    0 -0.65177086610E+01 -0.39817411848E+02 -0.48033973053E+02  0.47512101512E+03  0.47096157978E+03 0.  0.
         13    1    3    3    0    0  0.12304305017E+03 -0.65097368746E+02  0.17031910750E+03  0.21996785673E+03  0.00000000000E+00 0.  1.
          1    1    3    3  501    0 -0.12956075883E+03  0.25279956898E+02 -0.21835308056E+03  0.25515315839E+03  0.00000000000E+00 0.  1.
         21    1    1    2  502  501  0.65177086610E+01  0.39817411848E+02  0.16897965226E+02  0.43742977050E+02  0.00000000000E+00 0.  1.
<scales pt_clust_4="550.00000" pt_clust_5="550.00000" pt_clust_6="40.34733"></scales>
<mgrwt>
<rscale>  0 0.30000000E+03</rscale>
<asrwt>  1 0.40347327E+02</asrwt>
<pdfrwt beam="1">  1        1 0.88677815E+00 0.30000000E+03</pdfrwt>
<pdfrwt beam="2">0</pdfrwt>
<totfact> 0.15624436E-04</totfact>
</mgrwt>
<clustering>
<clus scale="   40.347">  1  6  2 -1</clus>
<clus scale="  470.962">  4  5 -1 -1</clus>
<clus scale="  300.000">  1  4  2 -1</clus>
</clustering>
</event>
<event>
 6    1  0.9843879E-012  0.3000000E+03  0.7818608E-02  0.1093470E+00
          1   -1    0    0  502    0  0.00000000000E+00  0.00000000000E+00  0.21960179928E+03  0.21960179928E+03  0.00000000000E+00 0.  1.
         13   -1    0    0    0    0 -0.00000000000E+00 -0.00000000000E+00 -0.27500000000E+03  0.27500000000E+03  0.00000000000E+00 0.  1.
    9000005    2    1    2  501    0  0.19157911039E+02 -0.23605100515E+02 -0.48784915332E+02  0.46348971370E+03  0.45991142671E+03 0.  0.
         13    1    3    3    0    0 -0.15833913492E+03  0.85342911051E+02 -0.14787174101E+03  0.23285348591E+03  0.00000000000E+00 0.  1.
          3    1    3    3  501    0  0.17749704596E+03 -0.10894801157E+03  0.99086825674E+02  0.23063622779E+03  0.00000000000E+00 0.  1.
         21    1    1    2  502  501 -0.19157911039E+02  0.23605100515E+02 -0.66132853843E+01  0.31112085582E+02  0.00000000000E+00 0.  1.
<scales pt_clust_4="550.00000" pt_clust_5="550.00000" pt_clust_6="30.40111"></scales>
<mgrwt>
<rscale>  0 0.30000000E+03</rscale>
<asrwt>  1 0.30401106E+02</asrwt>
<pdfrwt beam="1">  1        1 0.79855200E+00 0.30000000E+03</pdfrwt>
<pdfrwt beam="2">0</pdfrwt>
<totfact> 0.10910971E-03</totfact>
</mgrwt>
<clustering>
<clus scale="   30.401">  1  6  2 -1</clus>
<clus scale="  459.911">  4  5 -1 -1</clus>
<clus scale="  300.000">  1  4  2 -1</clus>
</clustering>
</event>
<event>
 6    1  0.9843879E-012  0.3000000E+03  0.7818608E-02  0.1093470E+00
          1   -1    0    0  502    0  0.00000000000E+00  0.00000000000E+00  0.23517201123E+03  0.23517201123E+03  0.00000000000E+00 0.  1.
         13   -1    0    0    0    0 -0.00000000000E+00 -0.00000000000E+00 -0.27500000000E+03  0.27500000000E+03  0.00000000000E+00 0.  1.
    9000005    2    1    2  501    0 -0.31501232988E+01  0.31136499872E+02 -0.26593744435E+02  0.47619333962E+03  0.47441908115E+03 0.  0.
         13    1    3    3    0    0 -0.60885554783E+01  0.22220354298E+03  0.10331894264E+03  0.24512504753E+03  0.00000000000E+00 0.  1.
          3    1    3    3  501    0  0.29384321795E+01 -0.19106704311E+03 -0.12991268708E+03  0.23106829209E+03  0.00000000000E+00 0.  1.
         21    1    1    2  502  501  0.31501232988E+01 -0.31136499872E+02 -0.13234244334E+02  0.33978671606E+02  0.00000000000E+00 0.  1.
<scales pt_clust_4="550.00000" pt_clust_5="550.00000" pt_clust_6="31.29546"></scales>
<mgrwt>
<rscale>  0 0.30000000E+03</rscale>
<asrwt>  1 0.31295461E+02</asrwt>
<pdfrwt beam="1">  1        1 0.85517095E+00 0.30000000E+03</pdfrwt>
<pdfrwt beam="2">0</pdfrwt>
<totfact> 0.37067003E-04</totfact>
</mgrwt>
<clustering>
<clus scale="   31.295">  1  6  2 -1</clus>
<clus scale="  474.419">  4  5 -1 -1</clus>
<clus scale="  300.000">  1  4  2 -1</clus>
</clustering>
</event>
<event>
 6    1  0.9843879E-012  0.3000000E+03  0.7818608E-02  0.1093470E+00
          1   -1    0    0  502    0  0.00000000000E+00  0.00000000000E+00  0.24760364393E+03  0.24760364393E+03  0.00000000000E+00 0.  1.
         13   -1    0    0    0    0 -0.00000000000E+00 -0.00000000000E+00 -0.27500000000E+03  0.27500000000E+03  0.00000000000E+00 0.  1.
    9000005    2    1    2  501    0 -0.20943658187E+02  0.30134463948E+02 -0.35262334251E+02  0.48507237232E+03  0.48239511963E+03 0.  0.
         13    1    3    3    0    0  0.11906103267E+03 -0.16280974023E+03  0.84029468813E+02  0.21850284356E+03  0.00000000000E+00 0.  1.
          3    1    3    3  501    0 -0.14000469086E+03  0.19294420418E+03 -0.11929180306E+03  0.26656952876E+03  0.00000000000E+00 0.  1.
         21    1    1    2  502  501  0.20943658187E+02 -0.30134463948E+02  0.78659781809E+01  0.37531271607E+02  0.00000000000E+00 0. -1.
<scales pt_clust_4="550.00000" pt_clust_5="550.00000" pt_clust_6="36.69772"></scales>
<mgrwt>
<rscale>  0 0.30000000E+03</rscale>
<asrwt>  1 0.36697721E+02</asrwt>
<pdfrwt beam="1">  1        1 0.90037689E+00 0.30000000E+03</pdfrwt>
<pdfrwt beam="2">0</pdfrwt>
<totfact> 0.10827189E-04</totfact>
</mgrwt>
<clustering>
<clus scale="   36.698">  1  6  2 -1</clus>
<clus scale="  482.395">  4  5 -1 -1</clus>
<clus scale="  300.000">  1  4  2 -1</clus>
</clustering>
</event>
<event>
 6    1  0.9843879E-012  0.3000000E+03  0.7818608E-02  0.1093470E+00
          1   -1    0    0  502    0  0.00000000000E+00  0.00000000000E+00  0.24364792777E+03  0.24364792777E+03  0.00000000000E+00 0.  1.
         13   -1    0    0    0    0 -0.00000000000E+00 -0.00000000000E+00 -0.27500000000E+03  0.27500000000E+03  0.00000000000E+00 0.  1.
    9000005    2    1    2  501    0  0.37319494652E+01 -0.34618919466E+02 -0.70529428417E+02  0.46623359510E+03  0.45955083276E+03 0.  0.
         13    1    3    3    0    0  0.12471895597E+03  0.46899830541E+02 -0.22010408446E+03  0.25729403428E+03  0.00000000000E+00 0.  1.
          1    1    3    3  501    0 -0.12098700650E+03 -0.81518750008E+02  0.14957465604E+03  0.20893956082E+03  0.00000000000E+00 0.  1.
         21    1    1    2  502  501 -0.37319494652E+01  0.34618919466E+02  0.39177356188E+02  0.52414332674E+02  0.00000000000E+00 0. -1.
<scales pt_clust_4="550.00000" pt_clust_5="550.00000" pt_clust_6="34.81949"></scales>
<mgrwt>
<rscale>  0 0.30000000E+03</rscale>
<asrwt>  1 0.34819492E+02</asrwt>
<pdfrwt beam="1">  1        1 0.88599246E+00 0.30000000E+03</pdfrwt>
<pdfrwt beam="2">0</pdfrwt>
<totfact> 0.16461659E-04</totfact>
</mgrwt>
<clustering>
<clus scale="   34.819">  1  6  2 -1</clus>
<clus scale="  459.551">  4  5 -1 -1</clus>
<clus scale="  300.000">  1  4  2 -1</clus>
</clustering>
</event>
<event>
 6    1  0.9843879E-012  0.3000000E+03  0.7818608E-02  0.1093470E+00
          1   -1    0    0  502    0  0.00000000000E+00  0.00000000000E+00  0.23636648793E+03  0.23636648793E+03  0.00000000000E+00 0.  1.
         13   -1    0    0    0    0 -0.00000000000E+00 -0.00000000000E+00 -0.27500000000E+03  0.27500000000E+03  0.00000000000E+00 0.  1.
    9000005    2    1    2  501    0  0.20265248904E+02 -0.22720119870E+02 -0.21245030479E+02  0.47630591959E+03  0.47485691904E+03 0.  0.
         13    1    3    3    0    0  0.10281431259E+03 -0.16677630900E+03  0.14315783412E+03  0.24265054211E+03  0.00000000000E+00 0.  1.
          3    1    3    3  501    0 -0.82549063684E+02  0.14405618913E+03 -0.16440286460E+03  0.23365537749E+03  0.00000000000E+00 0.  1.
         21    1    1    2  502  501 -0.20265248904E+02  0.22720119870E+02 -0.17388481590E+02  0.35060568336E+02  0.00000000000E+00 0. -1.
<scales pt_clust_4="550.00000" pt_clust_5="550.00000" pt_clust_6="30.44479"></scales>
<mgrwt>
<rscale>  0 0.30000000E+03</rscale>
<asrwt>  1 0.30444788E+02</asrwt>
<pdfrwt beam="1">  1        1 0.85951450E+00 0.30000000E+03</pdfrwt>
<pdfrwt beam="2">0</pdfrwt>
<totfact> 0.33610033E-04</totfact>
</mgrwt>
<clustering>
<clus scale="   30.445">  1  6  2 -1</clus>
<clus scale="  474.857">  4  5 -1 -1</clus>
<clus scale="  300.000">  1  4  2 -1</clus>
</clustering>
</event>
<event>
 6    1  0.9843879E-012  0.3000000E+03  0.7818608E-02  0.1093470E+00
          1   -1    0    0  502    0  0.00000000000E+00  0.00000000000E+00  0.21776704248E+03  0.21776704248E+03  0.00000000000E+00 0.  1.
         13   -1    0    0    0    0 -0.00000000000E+00 -0.00000000000E+00 -0.27500000000E+03  0.27500000000E+03  0.00000000000E+00 0.  1.
    9000005    2    1    2  501    0 -0.25522635373E+02 -0.17471124972E+02 -0.60340945805E+02  0.46168160031E+03  0.45667518566E+03 0.  0.
         13    1    3    3    0    0 -0.23047549356E+03  0.23853092835E+02  0.30532104734E+02  0.23370950471E+03  0.00000000000E+00 0.  1.
          3    1    3    3  501    0  0.20495285819E+03 -0.41324217807E+02 -0.90873050539E+02  0.22797209560E+03  0.00000000000E+00 0.  1.
         21    1    1    2  502  501  0.25522635373E+02  0.17471124972E+02  0.31079882895E+01  0.31085442178E+02  0.00000000000E+00 0. -1.
<scales pt_clust_4="550.00000" pt_clust_5="550.00000" pt_clust_6="30.92968"></scales>
<mgrwt>
<rscale>  0 0.30000000E+03</rscale>
<asrwt>  1 0.30929680E+02</asrwt>
<pdfrwt beam="1">  1        1 0.79188015E+00 0.30000000E+03</pdfrwt>
<pdfrwt beam="2">0</pdfrwt>
<totfact> 0.12200084E-03</totfact>
</mgrwt>
<clustering>
<clus scale="   30.930">  1  6  2 -1</clus>
<clus scale="  456.675">  4  5 -1 -1</clus>
<clus scale="  300.000">  1  4  2 -1</clus>
</clustering>
</event>
<event>
 6    1  0.9843879E-012  0.3000000E+03  0.7818608E-02  0.1093470E+00
          1   -1    0    0  502    0  0.00000000000E+00  0.00000000000E+00  0.22853042750E+03  0.22853042750E+03  0.00000000000E+00 0.  1.
         13   -1    0    0    0    0 -0.00000000000E+00 -0.00000000000E+00 -0.27500000000E+03  0.27500000000E+03  0.00000000000E+00 0.  1.
    9000005    2    1    2  501    0  0.29842464195E+02  0.11968031157E+02 -0.39296751879E+02  0.47058720673E+03  0.46784001325E+03 0.  0.
         13    1    3    3    0    0 -0.78235470595E+02  0.10957803481E+03  0.16922029095E+03  0.21624902645E+03  0.00000000000E+00 0.  1.
          1    1    3    3  501    0  0.10807793479E+03 -0.97610003649E+02 -0.20851704283E+03  0.25433818028E+03  0.00000000000E+00 0.  1.
         21    1    1    2  502  501 -0.29842464195E+02 -0.11968031157E+02 -0.71728206179E+01  0.32943220769E+02  0.00000000000E+00 0. -1.
<scales pt_clust_4="550.00000" pt_clust_5="550.00000" pt_clust_6="32.15288"></scales>
<mgrwt>
<rscale>  0 0.30000000E+03</rscale>
<asrwt>  1 0.32152877E+02</asrwt>
<pdfrwt beam="1">  1        1 0.83101974E+00 0.30000000E+03</pdfrwt>
<pdfrwt beam="2">0</pdfrwt>
<totfact> 0.58921663E-04</totfact>
</mgrwt>
<clustering>
<clus scale="   32.153">  1  6  2 -1</clus>
<clus scale="  467.840">  4  5 -1 -1</clus>
<clus scale="  300.000">  1  4  2 -1</clus>
</clustering>
</event>
<event>
 6    1  0.9843879E-012  0.3000000E+03  0.7818608E-02  0.1093470E+00
          1   -1    0    0  502    0  0.00000000000E+00  0.00000000000E+00  0.24647735916E+03  0.24647735916E+03  0.00000000000E+00 0.  1.
         13   -1    0    0    0    0 -0.00000000000E+00 -0.00000000000E+00 -0.27500000000E+03  0.27500000000E+03  0.00000000000E+00 0.  1.
    9000005    2    1    2  501    0  0.29602029747E+02  0.36209443655E+02 -0.53098862880E+02  0.46864370829E+03  0.46327101367E+03 0.  0.
         13    1    3    3    0    0  0.20511617149E+03 -0.10231903851E+03  0.27718839062E+02  0.23088993804E+03  0.00000000000E+00 0.  1.
          3    1    3    3  501    0 -0.17551414174E+03  0.13852848216E+03 -0.80817701942E+02  0.23775377025E+03  0.00000000000E+00 0.  1.
         21    1    1    2  502  501 -0.29602029747E+02 -0.36209443655E+02  0.24576222043E+02  0.52833650876E+02  0.00000000000E+00 0. -1.
<scales pt_clust_4="550.00000" pt_clust_5="550.00000" pt_clust_6="46.76969"></scales>
<mgrwt>
<rscale>  0 0.30000000E+03</rscale>
<asrwt>  1 0.46769691E+02</asrwt>
<pdfrwt beam="1">  1        1 0.89628131E+00 0.30000000E+03</pdfrwt>
<pdfrwt beam="2">0</pdfrwt>
<totfact> 0.11573218E-04</totfact>
</mgrwt>
<clustering>
<clus scale="   46.770">  1  6  2 -1</clus>
<clus scale="  463.271">  4  5 -1 -1</clus>
<clus scale="  300.000">  1  4  2 -1</clus>
</clustering>
</event>
<event>
 6    1  0.9843879E-012  0.3000000E+03  0.7818608E-02  0.1093470E+00
          1   -1    0    0  502    0  0.00000000000E+00  0.00000000000E+00  0.24083259124E+03  0.24083259124E+03  0.00000000000E+00 0.  1.
         13   -1    0    0    0    0 -0.00000000000E+00 -0.00000000000E+00 -0.27500000000E+03  0.27500000000E+03  0.00000000000E+00 0.  1.
    9000005    2    1    2  501    0  0.32248849066E+02 -0.20924580169E+02 -0.57443613772E+02  0.47089254183E+03  0.46579200387E+03 0.  0.
         13    1    3    3    0    0  0.52213855841E+02 -0.13461560066E+03 -0.22504831282E+03  0.26738434843E+03  0.00000000000E+00 0.  1.
          3    1    3    3  501    0 -0.19965006776E+02  0.11369102049E+03  0.16760469905E+03  0.20350819340E+03  0.00000000000E+00 0.  1.
         21    1    1    2  502  501 -0.32248849066E+02  0.20924580169E+02  0.23276205015E+02  0.44940049413E+02  0.00000000000E+00 0. -1.
<scales pt_clust_4="550.00000" pt_clust_5="550.00000" pt_clust_6="38.44251"></scales>
<mgrwt>
<rscale>  0 0.30000000E+03</rscale>
<asrwt>  1 0.38442507E+02</asrwt>
<pdfrwt beam="1">  1        1 0.87575488E+00 0.30000000E+03</pdfrwt>
<pdfrwt beam="2">0</pdfrwt>
<totfact> 0.21698895E-04</totfact>
</mgrwt>
<clustering>
<clus scale="   38.443">  1  6  2 -1</clus>
<clus scale="  465.792">  4  5 -1 -1</clus>
<clus scale="  300.000">  1  4  2 -1</clus>
</clustering>
</event>
<event>
 6    1  0.9843879E-012  0.3000000E+03  0.7818608E-02  0.1093470E+00
          1   -1    0    0  502    0  0.00000000000E+00  0.00000000000E+00  0.23357872410E+03  0.23357872410E+03  0.00000000000E+00 0.  1.
         13   -1    0    0    0    0 -0.00000000000E+00 -0.00000000000E+00 -0.27500000000E+03  0.27500000000E+03  0.00000000000E+00 0.  1.
    9000005    2    1    2  501    0  0.24150080827E+02 -0.24437711445E+02 -0.56577257280E+02  0.47102700089E+03  0.46635289361E+03 0.  0.
         13    1    3    3    0    0  0.80299111786E+02  0.13608477913E+03 -0.19554704592E+03  0.25140736193E+03  0.00000000000E+00 0.  1.
          1    1    3    3  501    0 -0.56149030959E+02 -0.16052249058E+03  0.13896978864E+03  0.21961963895E+03  0.00000000000E+00 0.  1.
         21    1    1    2  502  501 -0.24150080827E+02  0.24437711445E+02  0.15155981382E+02  0.37551723214E+02  0.00000000000E+00 0. -1.
<scales pt_clust_4="550.00000" pt_clust_5="550.00000" pt_clust_6="34.35736"></scales>
<mgrwt>
<rscale>  0 0.30000000E+03</rscale>
<asrwt>  1 0.34357359E+02</asrwt>
<pdfrwt beam="1">  1        1 0.84937718E+00 0.30000000E+03</pdfrwt>
<pdfrwt beam="2">0</pdfrwt>
<totfact> 0.41391498E-04</totfact>
</mgrwt>
<clustering>
<clus scale="   34.357">  1  6  2 -1</clus>
<clus scale="  466.353">  4  5 -1 -1</clus>
<clus scale="  300.000">  1  4  2 -1</clus>
</clustering>
</event>
<event>
 6    1  0.9843879E-012  0.3000000E+03  0.7818608E-02  0.1093470E+00
          1   -1    0    0  502    0  0.00000000000E+00  0.00000000000E+00  0.21917613619E+03  0.21917613619E+03  0.00000000000E+00 0.  1.
         13   -1    0    0    0    0 -0.00000000000E+00 -0.00000000000E+00 -0.27500000000E+03  0.27500000000E+03  0.00000000000E+00 0.  1.
    9000005    2    1    2  501    0  0.16159207337E+02  0.27642985140E+02 -0.50029659997E+02  0.46163650793E+03  0.45779913059E+03 0.  0.
         13    1    3    3    0    0 -0.16646906782E+03  0.13996279231E+03 -0.10321015225E+03  0.24073609887E+03  0.00000000000E+00 0.  1.
          1    1    3    3  501    0  0.18262827515E+03 -0.11231980717E+03  0.53180492249E+02  0.22090040906E+03  0.00000000000E+00 0.  1.
         21    1    1    2  502  501 -0.16159207337E+02 -0.27642985140E+02 -0.57942038130E+01  0.32539628256E+02  0.00000000000E+00 0. -1.
<scales pt_clust_4="550.00000" pt_clust_5="550.00000" pt_clust_6="32.01961"></scales>
<mgrwt>
<rscale>  0 0.30000000E+03</rscale>
<asrwt>  1 0.32019613E+02</asrwt>
<pdfrwt beam="1">  1        1 0.79700413E+00 0.30000000E+03</pdfrwt>
<pdfrwt beam="2">0</pdfrwt>
<totfact> 0.11087274E-03</totfact>
</mgrwt>
<clustering>
<clus scale="   32.020">  1  6  2 -1</clus>
<clus scale="  457.799">  4  5 -1 -1</clus>
<clus scale="  300.000">  1  4  2 -1</clus>
</clustering>
</event>
<event>
 6    1  0.9843879E-012  0.3000000E+03  0.7818608E-02  0.1093470E+00
          1   -1    0    0  502    0  0.00000000000E+00  0.00000000000E+00  0.22417973648E+03  0.22417973648E+03  0.00000000000E+00 0.  1.
         13   -1    0    0    0    0 -0.00000000000E+00 -0.00000000000E+00 -0.27500000000E+03  0.27500000000E+03  0.00000000000E+00 0.  1.
    9000005    2    1    2  501    0  0.16603004549E+02 -0.29467640169E+02 -0.49314352037E+02  0.46532313673E+03  0.46146474912E+03 0.  0.
         13    1    3    3    0    0  0.22768059424E+03 -0.87158280618E+02 -0.21401368430E+02  0.24473054048E+03  0.00000000000E+00 0.  1.
          3    1    3    3  501    0 -0.21107758969E+03  0.57690640449E+02 -0.27912983607E+02  0.22059259625E+03  0.00000000000E+00 0.  1.
         21    1    1    2  502  501 -0.16603004549E+02  0.29467640169E+02 -0.15059114878E+01  0.33856599749E+02  0.00000000000E+00 0.  1.
<scales pt_clust_4="550.00000" pt_clust_5="550.00000" pt_clust_6="33.82309"></scales>
<mgrwt>
<rscale>  0 0.30000000E+03</rscale>
<asrwt>  1 0.33823092E+02</asrwt>
<pdfrwt beam="1">  1        1 0.81519904E+00 0.30000000E+03</pdfrwt>
<pdfrwt beam="2">0</pdfrwt>
<totfact> 0.79820244E-04</totfact>
</mgrwt>
<clustering>
<clus scale="   33.823">  1  6  2 -1</clus>
<clus scale="  461.465">  4  5 -1 -1</clus>
<clus scale="  300.000">  1  4  2 -1</clus>
</clustering>
</event>
<event>
 6    1  0.9843879E-012  0.3000000E+03  0.7818608E-02  0.1093470E+00
          1   -1    0    0  502    0  0.00000000000E+00  0.00000000000E+00  0.22237225600E+03  0.22237225600E+03  0.00000000000E+00 0.  1.
         13   -1    0    0    0    0 -0.00000000000E+00 -0.00000000000E+00 -0.27500000000E+03  0.27500000000E+03  0.00000000000E+00 0.  1.
    9000005    2    1    2  501    0  0.33350032145E+02  0.12643480869E+02 -0.40737772536E+02  0.45977632970E+03  0.45657707453E+03 0.  0.
         13    1    3    3    0    0  0.56883310052E+02  0.11709025382E+03  0.17548574551E+03  0.21849733495E+03  0.00000000000E+00 0.  1.
          3    1    3    3  501    0 -0.23533277906E+02 -0.10444677295E+03 -0.21622351805E+03  0.24127899475E+03  0.00000000000E+00 0.  1.
         21    1    1    2  502  501 -0.33350032145E+02 -0.12643480869E+02 -0.11889971468E+02  0.37595926296E+02  0.00000000000E+00 0.  1.
<scales pt_clust_4="550.00000" pt_clust_5="550.00000" pt_clust_6="35.66628"></scales>
<mgrwt>
<rscale>  0 0.30000000E+03</rscale>
<asrwt>  1 0.35666280E+02</asrwt>
<pdfrwt beam="1">  1        1 0.80862639E+00 0.30000000E+03</pdfrwt>
<pdfrwt beam="2">0</pdfrwt>
<totfact> 0.89069584E-04</totfact>
</mgrwt>
<clustering>
<clus scale="   35.666">  1  6  2 -1</clus>
<clus scale="  456.577">  4  5 -1 -1</clus>
<clus scale="  300.000">  1  4  2 -1</clus>
</clustering>
</event>
<event>
 6    1  0.9843879E-012  0.3000000E+03  0.7818608E-02  0.1093470E+00
          1   -1    0    0  502    0  0.00000000000E+00  0.00000000000E+00  0.23266107676E+03  0.23266107676E+03  0.00000000000E+00 0.  1.
         13   -1    0    0    0    0 -0.00000000000E+00 -0.00000000000E+00 -0.27500000000E+03  0.27500000000E+03  0.00000000000E+00 0.  1.
    9000005    2    1    2  501    0 -0.24078333428E+02  0.24908253666E+02 -0.41143118062E+02  0.47299672632E+03  0.46992867512E+03 0.  0.
         13    1    3    3    0    0  0.23079655549E+02  0.10401130245E+03  0.19352001869E+03  0.22090952712E+03  0.00000000000E+00 0.  1.
          1    1    3    3  501    0 -0.47157988976E+02 -0.79103048782E+02 -0.23466313675E+03  0.25208719920E+03  0.00000000000E+00 0.  1.
         21    1    1    2  502  501  0.24078333428E+02 -0.24908253666E+02 -0.11958051806E+01  0.34664350439E+02  0.00000000000E+00 0.  1.
<scales pt_clust_4="550.00000" pt_clust_5="550.00000" pt_clust_6="34.64372"></scales>
<mgrwt>
<rscale>  0 0.30000000E+03</rscale>
<asrwt>  1 0.34643719E+02</asrwt>
<pdfrwt beam="1">  1        1 0.84604028E+00 0.30000000E+03</pdfrwt>
<pdfrwt beam="2">0</pdfrwt>
<totfact> 0.44323379E-04</totfact>
</mgrwt>
<clustering>
<clus scale="   34.644">  1  6  2 -1</clus>
<clus scale="  469.929">  4  5 -1 -1</clus>
<clus scale="  300.000">  1  4  2 -1</clus>
</clustering>
</event>
<event>
 6    1  0.9843879E-012  0.3000000E+03  0.7818608E-02  0.1093470E+00
          1   -1    0    0  502    0  0.00000000000E+00  0.00000000000E+00  0.23109731988E+03  0.23109731988E+03  0.00000000000E+00 0.  1.
         13   -1    0    0    0    0 -0.00000000000E+00 -0.00000000000E+00 -0.27500000000E+03  0.27500000000E+03  0.00000000000E+00 0.  1.
    9000005    2    1    2  501    0 -0.26433910528E+02 -0.21336275046E+02 -0.43962029793E+02  0.47212686535E+03  0.46884659395E+03 0.  0.
         13    1    3    3    0    0  0.12119875357E+03  0.97732749186E+02  0.13891352475E+03  0.20865712422E+03  0.00000000000E+00 0.  1.
          1    1    3    3  501    0 -0.14763266410E+03 -0.11906902423E+03 -0.18287555454E+03  0.26346974113E+03  0.00000000000E+00 0.  1.
         21    1    1    2  502  501  0.26433910528E+02  0.21336275046E+02  0.59349674042E-01  0.33970454531E+02  0.00000000000E+00 0.  1.
<scales pt_clust_4="550.00000" pt_clust_5="550.00000" pt_clust_6="33.97040"></scales>
<mgrwt>
<rscale>  0 0.30000000E+03</rscale>
<asrwt>  1 0.33970403E+02</asrwt>
<pdfrwt beam="1">  1        1 0.84035389E+00 0.30000000E+03</pdfrwt>
<pdfrwt beam="2">0</pdfrwt>
<totfact> 0.49670132E-04</totfact>
</mgrwt>
<clustering>
<clus scale="   33.970">  1  6  2 -1</clus>
<clus scale="  468.847">  4  5 -1 -1</clus>
<clus scale="  300.000">  1  4  2 -1</clus>
</clustering>
</event>
<event>
 6    1  0.9843879E-012  0.3000000E+03  0.7818608E-02  0.1093470E+00
          1   -1    0    0  502    0  0.00000000000E+00  0.00000000000E+00  0.23546596519E+03  0.23546596519E+03  0.00000000000E+00 0.  1.
         13   -1    0    0    0    0 -0.00000000000E+00 -0.00000000000E+00 -0.27500000000E+03  0.27500000000E+03  0.00000000000E+00 0.  1.
    9000005    2    1    2  501    0 -0.75661567521E+00 -0.34830216678E+02 -0.65336719064E+02  0.46711282256E+03  0.46120687948E+03 0.  0.
         13    1    3    3    0    0 -0.11861333070E+03 -0.21091218997E+03 -0.79639695628E+02  0.25474606026E+03  0.00000000000E+00 0.  1.
          3    1    3    3  501    0  0.11785671502E+03  0.17608197329E+03  0.14302976564E+02  0.21236676231E+03  0.00000000000E+00 0.  1.
         21    1    1    2  502  501  0.75661567521E+00  0.34830216678E+02  0.25802684255E+02  0.43353142630E+02  0.00000000000E+00 0. -1.
<scales pt_clust_4="550.00000" pt_clust_5="550.00000" pt_clust_6="34.83843"></scales>
<mgrwt>
<rscale>  0 0.30000000E+03</rscale>
<asrwt>  1 0.34838434E+02</asrwt>
<pdfrwt beam="1">  1        1 0.85623987E+00 0.30000000E+03</pdfrwt>
<pdfrwt beam="2">0</pdfrwt>
<totfact> 0.35435441E-04</totfact>
</mgrwt>
<clustering>
<clus scale="   34.838">  1  6  2 -1</clus>
<clus scale="  461.207">  4  5 -1 -1</clus>
<clus scale="  300.000">  1  4  2 -1</clus>
</clustering>
</event>
<event>
 6    1  0.9843879E-012  0.3000000E+03  0.7818608E-02  0.1093470E+00
          1   -1    0    0  502    0  0.00000000000E+00  0.00000000000E+00  0.22752038040E+03  0.22752038040E+03  0.00000000000E+00 0.  1.
         13   -1    0    0    0    0 -0.00000000000E+00 -0.00000000000E+00 -0.27500000000E+03  0.27500000000E+03  0.00000000000E+00 0.  1.
    9000005    2    1    2  501    0  0.25804987892E+02 -0.26682795606E+02 -0.49450297946E+02  0.46534844805E+03  0.46122226437E+03 0.  0.
         13    1    3    3    0    0  0.41260806734E+02 -0.19525388675E+03 -0.16620368120E+03  0.25971175967E+03  0.00000000000E+00 0.  1.
          1    1    3    3  501    0 -0.15455818842E+02  0.16857109115E+03  0.11675338326E+03  0.20563668838E+03  0.00000000000E+00 0.  1.
         21    1    1    2  502  501 -0.25804987892E+02  0.26682795606E+02  0.19706783440E+01  0.37171932349E+02  0.00000000000E+00 0.  1.
<scales pt_clust_4="550.00000" pt_clust_5="550.00000" pt_clust_6="37.11966"></scales>
<mgrwt>
<rscale>  0 0.30000000E+03</rscale>
<asrwt>  1 0.37119658E+02</asrwt>
<pdfrwt beam="1">  1        1 0.82734684E+00 0.30000000E+03</pdfrwt>
<pdfrwt beam="2">0</pdfrwt>
<totfact> 0.61587226E-04</totfact>
</mgrwt>
<clustering>
<clus scale="   37.120">  1  6  2 -1</clus>
<clus scale="  461.222">  4  5 -1 -1</clus>
<clus scale="  300.000">  1  4  2 -1</clus>
</clustering>
</event>
<event>
 6    1  0.9843879E-012  0.3000000E+03  0.7818608E-02  0.1093470E+00
          1   -1    0    0  502    0  0.00000000000E+00  0.00000000000E+00  0.23938871351E+03  0.23938871351E+03  0.00000000000E+00 0.  1.
         13   -1    0    0    0    0 -0.00000000000E+00 -0.00000000000E+00 -0.27500000000E+03  0.27500000000E+03  0.00000000000E+00 0.  1.
    9000005    2    1    2  501    0  0.92794247795E+00  0.34134941057E+02 -0.46440784515E+02  0.47856507180E+03  0.47508075755E+03 0.  0.
         13    1    3    3    0    0  0.46505060986E+02 -0.93012228434E+02 -0.22898012405E+03  0.25148736061E+03  0.00000000000E+00 0.  1.
          3    1    3    3  501    0 -0.45577118508E+02  0.12714716949E+03  0.18253933953E+03  0.22707771119E+03  0.00000000000E+00 0.  1.
         21    1    1    2  502  501 -0.92794247795E+00 -0.34134941057E+02  0.10829498024E+02  0.35823641714E+02  0.00000000000E+00 0.  1.
<scales pt_clust_4="550.00000" pt_clust_5="550.00000" pt_clust_6="34.14755"></scales>
<mgrwt>
<rscale>  0 0.30000000E+03</rscale>
<asrwt>  1 0.34147552E+02</asrwt>
<pdfrwt beam="1">  1        1 0.87050441E+00 0.30000000E+03</pdfrwt>
<pdfrwt beam="2">0</pdfrwt>
<totfact> 0.25142282E-04</totfact>
</mgrwt>
<clustering>
<clus scale="   34.148">  1  6  2 -1</clus>
<clus scale="  475.081">  4  5 -1 -1</clus>
<clus scale="  300.000">  1  4  2 -1</clus>
</clustering>
</event>
<event>
 6    1  0.9843879E-012  0.3000000E+03  0.7818608E-02  0.1093470E+00
          1   -1    0    0  502    0  0.00000000000E+00  0.00000000000E+00  0.24084777995E+03  0.24084777995E+03  0.00000000000E+00 0.  1.
         13   -1    0    0    0    0 -0.00000000000E+00 -0.00000000000E+00 -0.27500000000E+03  0.27500000000E+03  0.00000000000E+00 0.  1.
    9000005    2    1    2  501    0 -0.14919519569E+02  0.26858216448E+02 -0.66181652660E+02  0.47146489577E+03  0.46578447907E+03 0.  0.
         13    1    3    3    0    0  0.66970631372E+02  0.21713897092E+03 -0.12064167036E+03  0.25727186163E+03  0.00000000000E+00 0.  1.
          1    1    3    3  501    0 -0.81890150941E+02 -0.19028075448E+03  0.54460017703E+02  0.21419303414E+03  0.00000000000E+00 0.  1.
         21    1    1    2  502  501  0.14919519569E+02 -0.26858216448E+02  0.32029432611E+02  0.44382884182E+02  0.00000000000E+00 0. -1.
<scales pt_clust_4="550.00000" pt_clust_5="550.00000" pt_clust_6="30.72386"></scales>
<mgrwt>
<rscale>  0 0.30000000E+03</rscale>
<asrwt>  1 0.30723865E+02</asrwt>
<pdfrwt beam="1">  1        1 0.87581011E+00 0.30000000E+03</pdfrwt>
<pdfrwt beam="2">0</pdfrwt>
<totfact> 0.22600311E-04</totfact>
</mgrwt>
<clustering>
<clus scale="   30.724">  1  6  2 -1</clus>
<clus scale="  465.784">  4  5 -1 -1</clus>
<clus scale="  300.000">  1  4  2 -1</clus>
</clustering>
</event>
<event>
 6    1  0.9843879E-012  0.3000000E+03  0.7818608E-02  0.1093470E+00
          1   -1    0    0  502    0  0.00000000000E+00  0.00000000000E+00  0.23380392200E+03  0.23380392200E+03  0.00000000000E+00 0.  1.
         13   -1    0    0    0    0 -0.00000000000E+00 -0.00000000000E+00 -0.27500000000E+03  0.27500000000E+03  0.00000000000E+00 0.  1.
    9000005    2    1    2  501    0  0.36320768687E+02  0.43699779765E+01 -0.49027313279E+02  0.47139238379E+03  0.46740646883E+03 0.  0.
         13    1    3    3    0    0  0.22224516255E+03  0.66449725008E+02  0.69715643207E+02  0.24221632715E+03  0.00000000000E+00 0.  1.
          3    1    3    3  501    0 -0.18592439386E+03 -0.62079747031E+02 -0.11874295649E+03  0.22917605664E+03  0.00000000000E+00 0.  1.
         21    1    1    2  502  501 -0.36320768687E+02 -0.43699779765E+01  0.78312352805E+01  0.37411538214E+02  0.00000000000E+00 0. -1.
<scales pt_clust_4="550.00000" pt_clust_5="550.00000" pt_clust_6="36.58271"></scales>
<mgrwt>
<rscale>  0 0.30000000E+03</rscale>
<asrwt>  1 0.36582714E+02</asrwt>
<pdfrwt beam="1">  1        1 0.85019608E+00 0.30000000E+03</pdfrwt>
<pdfrwt beam="2">0</pdfrwt>
<totfact> 0.40193894E-04</totfact>
</mgrwt>
<clustering>
<clus scale="   36.583">  1  6  2 -1</clus>
<clus scale="  467.406">  4  5 -1 -1</clus>
<clus scale="  300.000">  1  4  2 -1</clus>
</clustering>
</event>
<event>
 6    1  0.9843879E-012  0.3000000E+03  0.7818608E-02  0.1093470E+00
          1   -1    0    0  502    0  0.00000000000E+00  0.00000000000E+00  0.24177002279E+03  0.24177002279E+03  0.00000000000E+00 0.  1.
         13   -1    0    0    0    0 -0.00000000000E+00 -0.00000000000E+00 -0.27500000000E+03  0.27500000000E+03  0.00000000000E+00 0.  1.
    9000005    2    1    2  501    0  0.14976643412E+01 -0.31529819378E+02 -0.52261029498E+02  0.47991146259E+03  0.47601200007E+03 0.  0.
         13    1    3    3    0    0 -0.98604061470E+02  0.52365268003E+02 -0.23215389336E+03  0.25760495421E+03  0.00000000000E+00 0.  1.
          1    1    3    3  501    0  0.10010172581E+03 -0.83895087381E+02  0.17989286387E+03  0.22230650838E+03  0.00000000000E+00 0.  1.
         21    1    1    2  502  501 -0.14976643412E+01  0.31529819378E+02  0.19031052284E+02  0.36858560193E+02  0.00000000000E+00 0. -1.
<scales pt_clust_4="550.00000" pt_clust_5="550.00000" pt_clust_6="31.56537"></scales>
<mgrwt>
<rscale>  0 0.30000000E+03</rscale>
<asrwt>  1 0.31565369E+02</asrwt>
<pdfrwt beam="1">  1        1 0.87916372E+00 0.30000000E+03</pdfrwt>
<pdfrwt beam="2">0</pdfrwt>
<totfact> 0.20603036E-04</totfact>
</mgrwt>
<clustering>
<clus scale="   31.565">  1  6  2 -1</clus>
<clus scale="  476.012">  4  5 -1 -1</clus>
<clus scale="  300.000">  1  4  2 -1</clus>
</clustering>
</event>
<event>
 6    1  0.9843879E-012  0.3000000E+03  0.7818608E-02  0.1093470E+00
          1   -1    0    0  502    0  0.00000000000E+00  0.00000000000E+00  0.22762040219E+03  0.22762040219E+03  0.00000000000E+00 0.  1.
         13   -1    0    0    0    0 -0.00000000000E+00 -0.00000000000E+00 -0.27500000000E+03  0.27500000000E+03  0.00000000000E+00 0.  1.
    9000005    2    1    2  501    0  0.31515207320E+02  0.12996795811E+02 -0.34267645514E+02  0.46609577643E+03  0.46358265313E+03 0.  0.
         13    1    3    3    0    0  0.60676263781E+02  0.19629570367E+03 -0.14361417375E+03  0.25067637138E+03  0.00000000000E+00 0.  1.
          3    1    3    3  501    0 -0.29161056461E+02 -0.18329890786E+03  0.10934652823E+03  0.21541940505E+03  0.00000000000E+00 0.  1.
         21    1    1    2  502  501 -0.31515207320E+02 -0.12996795811E+02 -0.13111952300E+02  0.36524625760E+02  0.00000000000E+00 0. -1.
<scales pt_clust_4="550.00000" pt_clust_5="550.00000" pt_clust_6="34.08997"></scales>
<mgrwt>
<rscale>  0 0.30000000E+03</rscale>
<asrwt>  1 0.34089971E+02</asrwt>
<pdfrwt beam="1">  1        1 0.82771055E+00 0.30000000E+03</pdfrwt>
<pdfrwt beam="2">0</pdfrwt>
<totfact> 0.62117303E-04</totfact>
</mgrwt>
<clustering>
<clus scale="   34.090">  1  6  2 -1</clus>
<clus scale="  463.583">  4  5 -1 -1</clus>
<clus scale="  300.000">  1  4  2 -1</clus>
</clustering>
</event>
<event>
 6    1  0.9843879E-012  0.3000000E+03  0.7818608E-02  0.1093470E+00
          1   -1    0    0  502    0  0.00000000000E+00  0.00000000000E+00  0.23712049461E+03  0.23712049461E+03  0.00000000000E+00 0.  1.
         13   -1    0    0    0    0 -0.00000000000E+00 -0.00000000000E+00 -0.27500000000E+03  0.27500000000E+03  0.00000000000E+00 0.  1.
    9000005    2    1    2  501    0 -0.16828902142E+02 -0.38532140724E+02 -0.51068415145E+02  0.46805366857E+03  0.46335549616E+03 0.  0.
         13    1    3    3    0    0 -0.33663446319E+02 -0.17385752525E+03  0.14523912828E+03  0.22902853772E+03  0.00000000000E+00 0.  1.
          3    1    3    3  501    0  0.16834544177E+02  0.13532538453E+03 -0.19630754342E+03  0.23902513086E+03  0.00000000000E+00 0.  1.
         21    1    1    2  502  501  0.16828902142E+02  0.38532140724E+02  0.13188909752E+02  0.44066826032E+02  0.00000000000E+00 0.  1.
<scales pt_clust_4="550.00000" pt_clust_5="550.00000" pt_clust_6="42.04685"></scales>
<mgrwt>
<rscale>  0 0.30000000E+03</rscale>
<asrwt>  1 0.42046853E+02</asrwt>
<pdfrwt beam="1">  1        1 0.86225634E+00 0.30000000E+03</pdfrwt>
<pdfrwt beam="2">0</pdfrwt>
<totfact> 0.29574347E-04</totfact>
</mgrwt>
<clustering>
<clus scale="   42.047">  1  6  2 -1</clus>
<clus scale="  463.355">  4  5 -1 -1</clus>
<clus scale="  300.000">  1  4  2 -1</clus>
</clustering>
</event>
<event>
 6    1  0.9843879E-012  0.3000000E+03  0.7818608E-02  0.1093470E+00
          1   -1    0    0  502    0  0.00000000000E+00  0.00000000000E+00  0.23060791412E+03  0.23060791412E+03  0.00000000000E+00 0.  1.
         13   -1    0    0    0    0 -0.00000000000E+00 -0.00000000000E+00 -0.27500000000E+03  0.27500000000E+03  0.00000000000E+00 0.  1.
    9000005    2    1    2  501    0 -0.35147165550E+01  0.32666592713E+02 -0.52849937720E+02  0.47168160029E+03  0.46755850610E+03 0.  0.
         13    1    3    3    0    0 -0.36365752566E+02 -0.39443054045E+02 -0.25184193703E+03  0.25749288091E+03  0.00000000000E+00 0.  1.
          3    1    3    3  501    0  0.32851036011E+02  0.72109646758E+02  0.19899199931E+03  0.21418871939E+03  0.00000000000E+00 0.  1.
         21    1    1    2  502  501  0.35147165550E+01 -0.32666592713E+02  0.84578518376E+01  0.33926313824E+02  0.00000000000E+00 0.  1.
<scales pt_clust_4="550.00000" pt_clust_5="550.00000" pt_clust_6="32.85513"></scales>
<mgrwt>
<rscale>  0 0.30000000E+03</rscale>
<asrwt>  1 0.32855129E+02</asrwt>
<pdfrwt beam="1">  1        1 0.83857423E+00 0.30000000E+03</pdfrwt>
<pdfrwt beam="2">0</pdfrwt>
<totfact> 0.51557815E-04</totfact>
</mgrwt>
<clustering>
<clus scale="   32.855">  1  6  2 -1</clus>
<clus scale="  467.559">  4  5 -1 -1</clus>
<clus scale="  300.000">  1  4  2 -1</clus>
</clustering>
</event>
<event>
 6    1  0.9843879E-012  0.3000000E+03  0.7818608E-02  0.1093470E+00
          1   -1    0    0  502    0  0.00000000000E+00  0.00000000000E+00  0.24574959528E+03  0.24574959528E+03  0.00000000000E+00 0.  1.
         13   -1    0    0    0    0 -0.00000000000E+00 -0.00000000000E+00 -0.27500000000E+03  0.27500000000E+03  0.00000000000E+00 0.  1.
    9000005    2    1    2  501    0 -0.23421212997E+02  0.19403725642E+02 -0.63050875059E+02  0.47527949981E+03  0.47009587565E+03 0.  0.
         13    1    3    3    0    0 -0.58963843691E+02  0.23991606069E+03 -0.45713694505E+02  0.25124926449E+03  0.00000000000E+00 0.  1.
          1    1    3    3  501    0  0.35542630694E+02 -0.22051233505E+03 -0.17337180554E+02  0.22403023532E+03  0.00000000000E+00 0.  1.
         21    1    1    2  502  501  0.23421212997E+02 -0.19403725642E+02  0.33800470343E+02  0.45470095475E+02  0.00000000000E+00 0. -1.
<scales pt_clust_4="550.00000" pt_clust_5="550.00000" pt_clust_6="30.41476"></scales>
<mgrwt>
<rscale>  0 0.30000000E+03</rscale>
<asrwt>  1 0.30414763E+02</asrwt>
<pdfrwt beam="1">  1        1 0.89363489E+00 0.30000000E+03</pdfrwt>
<pdfrwt beam="2">0</pdfrwt>
<totfact> 0.13420236E-04</totfact>
</mgrwt>
<clustering>
<clus scale="   30.415">  1  6  2 -1</clus>
<clus scale="  470.096">  4  5 -1 -1</clus>
<clus scale="  300.000">  1  4  2 -1</clus>
</clustering>
</event>
<event>
 6    1  0.9843879E-012  0.3000000E+03  0.7818608E-02  0.1093470E+00
          1   -1    0    0  502    0  0.00000000000E+00  0.00000000000E+00  0.24531675237E+03  0.24531675237E+03  0.00000000000E+00 0.  1.
         13   -1    0    0    0    0 -0.00000000000E+00 -0.00000000000E+00 -0.27500000000E+03  0.27500000000E+03  0.00000000000E+00 0.  1.
    9000005    2    1    2  501    0  0.29817780359E+02 -0.91762262850E+01 -0.72327209657E+02  0.46747916488E+03  0.46079522696E+03 0.  0.
         13    1    3    3    0    0 -0.24529145550E+02  0.21453769257E+03  0.25303015506E+02  0.21741284026E+03  0.00000000000E+00 0.  1.
          1    1    3    3  501    0  0.54346925909E+02 -0.22371391886E+03 -0.97630225162E+02  0.25006632462E+03  0.00000000000E+00 0.  1.
         21    1    1    2  502  501 -0.29817780359E+02  0.91762262850E+01  0.42643962029E+02  0.52837587491E+02  0.00000000000E+00 0. -1.
<scales pt_clust_4="550.00000" pt_clust_5="550.00000" pt_clust_6="31.19781"></scales>
<mgrwt>
<rscale>  0 0.30000000E+03</rscale>
<asrwt>  1 0.31197807E+02</asrwt>
<pdfrwt beam="1">  1        1 0.89206092E+00 0.30000000E+03</pdfrwt>
<pdfrwt beam="2">0</pdfrwt>
<totfact> 0.13941687E-04</totfact>
</mgrwt>
<clustering>
<clus scale="   31.198">  1  6  2 -1</clus>
<clus scale="  460.795">  4  5 -1 -1</clus>
<clus scale="  300.000">  1  4  2 -1</clus>
</clustering>
</event>
<event>
 6    1  0.9843879E-012  0.3000000E+03  0.7818608E-02  0.1093470E+00
          1   -1    0    0  502    0  0.00000000000E+00  0.00000000000E+00  0.22985806613E+03  0.22985806613E+03  0.00000000000E+00 0.  1.
         13   -1    0    0    0    0 -0.00000000000E+00 -0.00000000000E+00 -0.27500000000E+03  0.27500000000E+03  0.00000000000E+00 0.  1.
    9000005    2    1    2  501    0 -0.37724465312E+02 -0.16521330906E+02 -0.35215513241E+02  0.46249506949E+03  0.45930977267E+03 0.  0.
         13    1    3    3    0    0 -0.16247609568E+03 -0.18783052654E+03 -0.33238255728E+02  0.25056649818E+03  0.00000000000E+00 0.  1.
          3    1    3    3  501    0  0.12475163037E+03  0.17130919563E+03 -0.19772575127E+01  0.21192857130E+03  0.00000000000E+00 0.  1.
         21    1    1    2  502  501  0.37724465312E+02  0.16521330906E+02 -0.99264206307E+01  0.42362996643E+02  0.00000000000E+00 0. -1.
<scales pt_clust_4="550.00000" pt_clust_5="550.00000" pt_clust_6="41.18363"></scales>
<mgrwt>
<rscale>  0 0.30000000E+03</rscale>
<asrwt>  1 0.41183630E+02</asrwt>
<pdfrwt beam="1">  1        1 0.83584751E+00 0.30000000E+03</pdfrwt>
<pdfrwt beam="2">0</pdfrwt>
<totfact> 0.51761178E-04</totfact>
</mgrwt>
<clustering>
<clus scale="   41.184">  1  6  2 -1</clus>
<clus scale="  459.310">  4  5 -1 -1</clus>
<clus scale="  300.000">  1  4  2 -1</clus>
</clustering>
</event>
<event>
 6    1  0.9843879E-012  0.3000000E+03  0.7818608E-02  0.1093470E+00
          1   -1    0    0  502    0  0.00000000000E+00  0.00000000000E+00  0.24913290114E+03  0.24913290114E+03  0.00000000000E+00 0.  1.
         13   -1    0    0    0    0 -0.00000000000E+00 -0.00000000000E+00 -0.27500000000E+03  0.27500000000E+03  0.00000000000E+00 0.  1.
    9000005    2    1    2  501    0  0.25788611700E+02 -0.31811134242E+02 -0.56548371757E+02  0.47296317120E+03  0.46778140430E+03 0.  0.
         13    1    3    3    0    0  0.19718273561E+03  0.32177126478E+02  0.10781444939E+03  0.22702500785E+03  0.00000000000E+00 0.  1.
          3    1    3    3  501    0 -0.17139412391E+03 -0.63988260720E+02 -0.16436282115E+03  0.24593816336E+03  0.00000000000E+00 0.  1.
         21    1    1    2  502  501 -0.25788611700E+02  0.31811134242E+02  0.30681272892E+02  0.51169729934E+02  0.00000000000E+00 0. -1.
<scales pt_clust_4="550.00000" pt_clust_5="550.00000" pt_clust_6="40.95120"></scales>
<mgrwt>
<rscale>  0 0.30000000E+03</rscale>
<asrwt>  1 0.40951200E+02</asrwt>
<pdfrwt beam="1">  1        1 0.90593782E+00 0.30000000E+03</pdfrwt>
<pdfrwt beam="2">0</pdfrwt>
<totfact> 0.86115821E-05</totfact>
</mgrwt>
<clustering>
<clus scale="   40.951">  1  6  2 -1</clus>
<clus scale="  467.781">  4  5 -1 -1</clus>
<clus scale="  300.000">  1  4  2 -1</clus>
</clustering>
</event>
<event>
 6    1  0.9843879E-012  0.3000000E+03  0.7818608E-02  0.1093470E+00
          1   -1    0    0  502    0  0.00000000000E+00  0.00000000000E+00  0.22278162727E+03  0.22278162727E+03  0.00000000000E+00 0.  1.
         13   -1    0    0    0    0 -0.00000000000E+00 -0.00000000000E+00 -0.27500000000E+03  0.27500000000E+03  0.00000000000E+00 0.  1.
    9000005    2    1    2  501    0 -0.57398445305E+01  0.34457557607E+02 -0.50947144915E+02  0.46282615400E+03  0.45868526046E+03 0.  0.
         13    1    3    3    0    0  0.37247508780E+02 -0.92050781836E+02 -0.22351389386E+03  0.24457960687E+03  0.00000000000E+00 0.  1.
          1    1    3    3  501    0 -0.42987353311E+02  0.12650833944E+03  0.17256674895E+03  0.21824654713E+03  0.00000000000E+00 0.  1.
         21    1    1    2  502  501  0.57398445305E+01 -0.34457557607E+02 -0.12712278121E+01  0.34955473272E+02  0.00000000000E+00 0.  1.
<scales pt_clust_4="550.00000" pt_clust_5="550.00000" pt_clust_6="34.93235"></scales>
<mgrwt>
<rscale>  0 0.30000000E+03</rscale>
<asrwt>  1 0.34932350E+02</asrwt>
<pdfrwt beam="1">  1        1 0.81011501E+00 0.30000000E+03</pdfrwt>
<pdfrwt beam="2">0</pdfrwt>
<totfact> 0.87066230E-04</totfact>
</mgrwt>
<clustering>
<clus scale="   34.932">  1  6  2 -1</clus>
<clus scale="  458.685">  4  5 -1 -1</clus>
<clus scale="  300.000">  1  4  2 -1</clus>
</clustering>
</event>
<event>
 6    1  0.9843879E-012  0.3000000E+03  0.7818608E-02  0.1093470E+00
          1   -1    0    0  502    0  0.00000000000E+00  0.00000000000E+00  0.22270054390E+03  0.22270054390E+03  0.00000000000E+00 0.  1.
         13   -1    0    0    0    0 -0.00000000000E+00 -0.00000000000E+00 -0.27500000000E+03  0.27500000000E+03  0.00000000000E+00 0.  1.
    9000005    2    1    2  501    0  0.18815713544E+02  0.26841809016E+02 -0.51831674097E+02  0.46491742923E+03  0.46085483590E+03 0.  0.
         13    1    3    3    0    0 -0.20188527942E+03  0.54233718169E+02 -0.10834939270E+03  0.23545392996E+03  0.00000000000E+00 0.  1.
          1    1    3    3  501    0  0.22070099297E+03 -0.27391909153E+02  0.56517718601E+02  0.22946349927E+03  0.00000000000E+00 0.  1.
         21    1    1    2  502  501 -0.18815713544E+02 -0.26841809016E+02 -0.46778200477E+00  0.32783114670E+02  0.00000000000E+00 0.  1.
<scales pt_clust_4="550.00000" pt_clust_5="550.00000" pt_clust_6="32.77978"></scales>
<mgrwt>
<rscale>  0 0.30000000E+03</rscale>
<asrwt>  1 0.32779777E+02</asrwt>
<pdfrwt beam="1">  1        1 0.80982016E+00 0.30000000E+03</pdfrwt>
<pdfrwt beam="2">0</pdfrwt>
<totfact> 0.88582168E-04</totfact>
</mgrwt>
<clustering>
<clus scale="   32.780">  1  6  2 -1</clus>
<clus scale="  460.855">  4  5 -1 -1</clus>
<clus scale="  300.000">  1  4  2 -1</clus>
</clustering>
</event>
<event>
 6    1  0.9843879E-012  0.3000000E+03  0.7818608E-02  0.1093470E+00
          1   -1    0    0  502    0  0.00000000000E+00  0.00000000000E+00  0.23434329109E+03  0.23434329109E+03  0.00000000000E+00 0.  1.
         13   -1    0    0    0    0 -0.00000000000E+00 -0.00000000000E+00 -0.27500000000E+03  0.27500000000E+03  0.00000000000E+00 0.  1.
    9000005    2    1    2  501    0  0.36285766613E+02 -0.10513661161E+02 -0.67585169184E+02  0.46295001677E+03  0.45642936913E+03 0.  0.
         13    1    3    3    0    0  0.74337260058E+02  0.18488304799E+03 -0.14803802662E+03  0.24823985778E+03  0.00000000000E+00 0.  1.
          3    1    3    3  501    0 -0.38051493444E+02 -0.19539670915E+03  0.80452857436E+02  0.21471015898E+03  0.00000000000E+00 0.  1.
         21    1    1    2  502  501 -0.36285766613E+02  0.10513661161E+02  0.26928460276E+02  0.46393274325E+02  0.00000000000E+00 0.  1.
<scales pt_clust_4="550.00000" pt_clust_5="550.00000" pt_clust_6="37.77822"></scales>
<mgrwt>
<rscale>  0 0.30000000E+03</rscale>
<asrwt>  1 0.37778220E+02</asrwt>
<pdfrwt beam="1">  1        1 0.85215742E+00 0.30000000E+03</pdfrwt>
<pdfrwt beam="2">0</pdfrwt>
<totfact> 0.38277651E-04</totfact>
</mgrwt>
<clustering>
<clus scale="   37.778">  1  6  2 -1</clus>
<clus scale="  456.429">  4  5 -1 -1</clus>
<clus scale="  300.000">  1  4  2 -1</clus>
</clustering>
</event>
<event>
 6    1  0.9843879E-012  0.3000000E+03  0.7818608E-02  0.1093470E+00
          1   -1    0    0  502    0  0.00000000000E+00  0.00000000000E+00  0.22321264995E+03  0.22321264995E+03  0.00000000000E+00 0.  1.
         13   -1    0    0    0    0 -0.00000000000E+00 -0.00000000000E+00 -0.27500000000E+03  0.27500000000E+03  0.00000000000E+00 0.  1.
    9000005    2    1    2  501    0  0.29029310962E+02 -0.13893067004E+02 -0.41681352762E+02  0.46448062679E+03  0.46148586033E+03 0.  0.
         13    1    3    3    0    0 -0.19394869307E+03 -0.10202408840E+03  0.93563571071E+01  0.21934573526E+03  0.00000000000E+00 0.  1.
          1    1    3    3  501    0  0.22297800403E+03  0.88131021397E+02 -0.51037709869E+02  0.24513489153E+03  0.00000000000E+00 0.  1.
         21    1    1    2  502  501 -0.29029310962E+02  0.13893067004E+02 -0.10105997287E+02  0.33732023166E+02  0.00000000000E+00 0.  1.
<scales pt_clust_4="550.00000" pt_clust_5="550.00000" pt_clust_6="32.18259"></scales>
<mgrwt>
<rscale>  0 0.30000000E+03</rscale>
<asrwt>  1 0.32182592E+02</asrwt>
<pdfrwt beam="1">  1        1 0.81168236E+00 0.30000000E+03</pdfrwt>
<pdfrwt beam="2">0</pdfrwt>
<totfact> 0.85955223E-04</totfact>
</mgrwt>
<clustering>
<clus scale="   32.183">  1  6  2 -1</clus>
<clus scale="  461.486">  4  5 -1 -1</clus>
<clus scale="  300.000">  1  4  2 -1</clus>
</clustering>
</event>
<event>
 6    1  0.9843879E-012  0.3000000E+03  0.7818608E-02  0.1093470E+00
          1   -1    0    0  502    0  0.00000000000E+00  0.00000000000E+00  0.26252131148E+03  0.26252131148E+03  0.00000000000E+00 0.  1.
         13   -1    0    0    0    0 -0.00000000000E+00 -0.00000000000E+00 -0.27500000000E+03  0.27500000000E+03  0.00000000000E+00 0.  1.
    9000005    2    1    2  501    0 -0.26057955392E+02 -0.26229129316E+02 -0.52047820313E+02  0.48336689841E+03  0.47913213065E+03 0.  0.
         13    1    3    3    0    0  0.15078000157E+03  0.60065289652E+02 -0.18483734475E+03  0.24598229999E+03  0.00000000000E+00 0.  1.
          3    1    3    3  501    0 -0.17683795696E+03 -0.86294418967E+02  0.13278952444E+03  0.23738459842E+03  0.00000000000E+00 0.  1.
         21    1    1    2  502  501  0.26057955392E+02  0.26229129316E+02  0.39569131793E+02  0.54154413068E+02  0.00000000000E+00 0.  1.
<scales pt_clust_4="550.00000" pt_clust_5="550.00000" pt_clust_6="36.97275"></scales>
<mgrwt>
<rscale>  0 0.30000000E+03</rscale>
<asrwt>  1 0.36972750E+02</asrwt>
<pdfrwt beam="1">  1        1 0.95462295E+00 0.30000000E+03</pdfrwt>
<pdfrwt beam="2">0</pdfrwt>
<totfact> 0.97870535E-06</totfact>
</mgrwt>
<clustering>
<clus scale="   36.973">  1  6  2 -1</clus>
<clus scale="  479.132">  4  5 -1 -1</clus>
<clus scale="  300.000">  1  4  2 -1</clus>
</clustering>
</event>
<event>
 6    1  0.9843879E-012  0.3000000E+03  0.7818608E-02  0.1093470E+00
          1   -1    0    0  502    0  0.00000000000E+00  0.00000000000E+00  0.24082305597E+03  0.24082305597E+03  0.00000000000E+00 0.  1.
         13   -1    0    0    0    0 -0.00000000000E+00 -0.00000000000E+00 -0.27500000000E+03  0.27500000000E+03  0.00000000000E+00 0.  1.
    9000005    2    1    2  501    0 -0.86341502044E+01 -0.42341609623E+02 -0.47250032104E+02  0.47067589563E+03  0.46630019594E+03 0.  0.
         13    1    3    3    0    0 -0.17276545963E+02 -0.20828414242E+03 -0.16561383700E+03  0.26666215710E+03  0.00000000000E+00 0.  1.
          1    1    3    3  501    0  0.86423957588E+01  0.16594253280E+03  0.11836380490E+03  0.20401373852E+03  0.00000000000E+00 0.  1.
         21    1    1    2  502  501  0.86341502044E+01  0.42341609623E+02  0.13073088073E+02  0.45147160343E+02  0.00000000000E+00 0. -1.
<scales pt_clust_4="550.00000" pt_clust_5="550.00000" pt_clust_6="43.21297"></scales>
<mgrwt>
<rscale>  0 0.30000000E+03</rscale>
<asrwt>  1 0.43212966E+02</asrwt>
<pdfrwt beam="1">  1        1 0.87572020E+00 0.30000000E+03</pdfrwt>
<pdfrwt beam="2">0</pdfrwt>
<totfact> 0.21260472E-04</totfact>
</mgrwt>
<clustering>
<clus scale="   43.213">  1  6  2 -1</clus>
<clus scale="  466.300">  4  5 -1 -1</clus>
<clus scale="  300.000">  1  4  2 -1</clus>
</clustering>
</event>
<event>
 6    1  0.9843879E-012  0.3000000E+03  0.7818608E-02  0.1093470E+00
          1   -1    0    0  502    0  0.00000000000E+00  0.00000000000E+00  0.24141690842E+03  0.24141690842E+03  0.00000000000E+00 0.  1.
         13   -1    0    0    0    0 -0.00000000000E+00 -0.00000000000E+00 -0.27500000000E+03  0.27500000000E+03  0.00000000000E+00 0.  1.
    9000005    2    1    2  501    0  0.26238776563E+02  0.19813329730E+02 -0.64550661691E+02  0.47125019690E+03  0.46564892218E+03 0.  0.
         13    1    3    3    0    0  0.16438481040E+03 -0.87047428001E+02 -0.18243060290E+03  0.26053895196E+03  0.00000000000E+00 0.  1.
          1    1    3    3  501    0 -0.13814603383E+03  0.10686075773E+03  0.11787994121E+03  0.21071124495E+03  0.00000000000E+00 0.  1.
         21    1    1    2  502  501 -0.26238776563E+02 -0.19813329730E+02  0.30967570106E+02  0.45166711512E+02  0.00000000000E+00 0.  1.
<scales pt_clust_4="550.00000" pt_clust_5="550.00000" pt_clust_6="32.87919"></scales>
<mgrwt>
<rscale>  0 0.30000000E+03</rscale>
<asrwt>  1 0.32879194E+02</asrwt>
<pdfrwt beam="1">  1        1 0.87787967E+00 0.30000000E+03</pdfrwt>
<pdfrwt beam="2">0</pdfrwt>
<totfact> 0.21163782E-04</totfact>
</mgrwt>
<clustering>
<clus scale="   32.879">  1  6  2 -1</clus>
<clus scale="  465.649">  4  5 -1 -1</clus>
<clus scale="  300.000">  1  4  2 -1</clus>
</clustering>
</event>
<event>
 6    1  0.9843879E-012  0.3000000E+03  0.7818608E-02  0.1093470E+00
          1   -1    0    0  502    0  0.00000000000E+00  0.00000000000E+00  0.23362357970E+03  0.23362357970E+03  0.00000000000E+00 0.  1.
         13   -1    0    0    0    0 -0.00000000000E+00 -0.00000000000E+00 -0.27500000000E+03  0.27500000000E+03  0.00000000000E+00 0.  1.
    9000005    2    1    2  501    0 -0.28686141964E+02 -0.30641176672E+02 -0.59189134910E+02  0.46302676786E+03  0.45730586877E+03 0.  0.
         13    1    3    3    0    0  0.74254367078E+02  0.10484301555E+03  0.14730443865E+03  0.19545937323E+03  0.00000000000E+00 0.  1.
          3    1    3    3  501    0 -0.10294050904E+03 -0.13548419222E+03 -0.20649357356E+03  0.26756739462E+03  0.00000000000E+00 0.  1.
         21    1    1    2  502  501  0.28686141964E+02  0.30641176672E+02  0.17812714611E+02  0.45596811845E+02  0.00000000000E+00 0.  1.
<scales pt_clust_4="550.00000" pt_clust_5="550.00000" pt_clust_6="41.97352"></scales>
<mgrwt>
<rscale>  0 0.30000000E+03</rscale>
<asrwt>  1 0.41973521E+02</asrwt>
<pdfrwt beam="1">  1        1 0.84954029E+00 0.30000000E+03</pdfrwt>
<pdfrwt beam="2">0</pdfrwt>
<totfact> 0.39752911E-04</totfact>
</mgrwt>
<clustering>
<clus scale="   41.974">  1  6  2 -1</clus>
<clus scale="  457.306">  4  5 -1 -1</clus>
<clus scale="  300.000">  1  4  2 -1</clus>
</clustering>
</event>
<event>
 6    1  0.9843879E-012  0.3000000E+03  0.7818608E-02  0.1093470E+00
          1   -1    0    0  502    0  0.00000000000E+00  0.00000000000E+00  0.23805557654E+03  0.23805557654E+03  0.00000000000E+00 0.  1.
         13   -1    0    0    0    0 -0.00000000000E+00 -0.00000000000E+00 -0.27500000000E+03  0.27500000000E+03  0.00000000000E+00 0.  1.
    9000005    2    1    2  501    0  0.39331424906E+02  0.31975092012E+02 -0.41935616538E+02  0.46212150638E+03  0.45741482621E+03 0.  0.
         13    1    3    3    0    0 -0.18806606422E+03 -0.57131928686E+02 -0.84958767907E+02  0.21412821867E+03  0.00000000000E+00 0.  1.
          1    1    3    3  501    0  0.22739748912E+03  0.89107020698E+02  0.43023151369E+02  0.24799328772E+03  0.00000000000E+00 0.  1.
         21    1    1    2  502  501 -0.39331424906E+02 -0.31975092012E+02  0.49911930781E+01  0.50934070157E+02  0.00000000000E+00 0.  1.
<scales pt_clust_4="550.00000" pt_clust_5="550.00000" pt_clust_6="50.68893"></scales>
<mgrwt>
<rscale>  0 0.30000000E+03</rscale>
<asrwt>  1 0.50688929E+02</asrwt>
<pdfrwt beam="1">  1        1 0.86565664E+00 0.30000000E+03</pdfrwt>
<pdfrwt beam="2">0</pdfrwt>
<totfact> 0.26289105E-04</totfact>
</mgrwt>
<clustering>
<clus scale="   50.689">  1  6  2 -1</clus>
<clus scale="  457.415">  4  5 -1 -1</clus>
<clus scale="  300.000">  1  4  2 -1</clus>
</clustering>
</event>
<event>
 6    1  0.9843879E-012  0.3000000E+03  0.7818608E-02  0.1093470E+00
          1   -1    0    0  502    0  0.00000000000E+00  0.00000000000E+00  0.23746289135E+03  0.23746289135E+03  0.00000000000E+00 0.  1.
         13   -1    0    0    0    0 -0.00000000000E+00 -0.00000000000E+00 -0.27500000000E+03  0.27500000000E+03  0.00000000000E+00 0.  1.
    9000005    2    1    2  501    0 -0.39232737687E+02 -0.18572932634E+01 -0.56329995789E+02  0.46892176307E+03  0.46386624604E+03 0.  0.
         13    1    3    3    0    0  0.11096804292E+03 -0.17768779723E+03  0.48480352476E+02  0.21502838048E+03  0.00000000000E+00 0.  1.
          3    1    3    3  501    0 -0.15020078061E+03  0.17583050397E+03 -0.10481034826E+03  0.25389338259E+03  0.00000000000E+00 0.  1.
         21    1    1    2  502  501  0.39232737687E+02  0.18572932634E+01  0.18792887136E+02  0.43541128277E+02  0.00000000000E+00 0.  1.
<scales pt_clust_4="550.00000" pt_clust_5="550.00000" pt_clust_6="39.27668"></scales>
<mgrwt>
<rscale>  0 0.30000000E+03</rscale>
<asrwt>  1 0.39276676E+02</asrwt>
<pdfrwt beam="1">  1        1 0.86350142E+00 0.30000000E+03</pdfrwt>
<pdfrwt beam="2">0</pdfrwt>
<totfact> 0.29028698E-04</totfact>
</mgrwt>
<clustering>
<clus scale="   39.277">  1  6  2 -1</clus>
<clus scale="  463.866">  4  5 -1 -1</clus>
<clus scale="  300.000">  1  4  2 -1</clus>
</clustering>
</event>
<event>
 6    1  0.9843879E-012  0.3000000E+03  0.7818608E-02  0.1093470E+00
          1   -1    0    0  502    0  0.00000000000E+00  0.00000000000E+00  0.22141587062E+03  0.22141587062E+03  0.00000000000E+00 0.  1.
         13   -1    0    0    0    0 -0.00000000000E+00 -0.00000000000E+00 -0.27500000000E+03  0.27500000000E+03  0.00000000000E+00 0.  1.
    9000005    2    1    2  501    0 -0.25590815861E+00  0.32207293348E+02 -0.43323505154E+02  0.46261268078E+03  0.45945205526E+03 0.  0.
         13    1    3    3    0    0  0.12518005305E+03 -0.11065700194E+03 -0.16666395212E+03  0.23599129369E+03  0.00000000000E+00 0.  1.
          3    1    3    3  501    0 -0.12543596121E+03  0.14286429529E+03  0.12334044696E+03  0.22662138710E+03  0.00000000000E+00 0.  1.
         21    1    1    2  502  501  0.25590815861E+00 -0.32207293348E+02 -0.10260624226E+02  0.33803189839E+02  0.00000000000E+00 0. -1.
<scales pt_clust_4="550.00000" pt_clust_5="550.00000" pt_clust_6="32.20833"></scales>
<mgrwt>
<rscale>  0 0.30000000E+03</rscale>
<asrwt>  1 0.32208326E+02</asrwt>
<pdfrwt beam="1">  1        1 0.80514862E+00 0.30000000E+03</pdfrwt>
<pdfrwt beam="2">0</pdfrwt>
<totfact> 0.96548721E-04</totfact>
</mgrwt>
<clustering>
<clus scale="   32.208">  1  6  2 -1</clus>
<clus scale="  459.452">  4  5 -1 -1</clus>
<clus scale="  300.000">  1  4  2 -1</clus>
</clustering>
</event>
<event>
 6    1  0.9843879E-012  0.3000000E+03  0.7818608E-02  0.1093470E+00
          1   -1    0    0  502    0  0.00000000000E+00  0.00000000000E+00  0.24006489097E+03  0.24006489097E+03  0.00000000000E+00 0.  1.
         13   -1    0    0    0    0 -0.00000000000E+00 -0.00000000000E+00 -0.27500000000E+03  0.27500000000E+03  0.00000000000E+00 0.  1.
    9000005    2    1    2  501    0  0.20531915232E+02  0.37797128710E+02 -0.42017140358E+02  0.47147202860E+03  0.46762191051E+03 0.  0.
         13    1    3    3    0    0 -0.10069791146E+03  0.19896459199E+03 -0.12239000032E+03  0.25437431162E+03  0.00000000000E+00 0.  1.
          1    1    3    3  501    0  0.12122982669E+03 -0.16116746328E+03  0.80372859957E+02  0.21709771698E+03  0.00000000000E+00 0.  1.
         21    1    1    2  502  501 -0.20531915232E+02 -0.37797128710E+02  0.70820313289E+01  0.43592862369E+02  0.00000000000E+00 0. -1.
<scales pt_clust_4="550.00000" pt_clust_5="550.00000" pt_clust_6="43.01375"></scales>
<mgrwt>
<rscale>  0 0.30000000E+03</rscale>
<asrwt>  1 0.43013748E+02</asrwt>
<pdfrwt beam="1">  1        1 0.87296324E+00 0.30000000E+03</pdfrwt>
<pdfrwt beam="2">0</pdfrwt>
<totfact> 0.22741644E-04</totfact>
</mgrwt>
<clustering>
<clus scale="   43.014">  1  6  2 -1</clus>
<clus scale="  467.622">  4  5 -1 -1</clus>
<clus scale="  300.000">  1  4  2 -1</clus>
</clustering>
</event>
<event>
 6    1  0.9843879E-012  0.3000000E+03  0.7818608E-02  0.1093470E+00
          1   -1    0    0  502    0  0.00000000000E+00  0.00000000000E+00  0.23468961938E+03  0.23468961938E+03  0.00000000000E+00 0.  1.
         13   -1    0    0    0    0 -0.00000000000E+00 -0.00000000000E+00 -0.27500000000E+03  0.27500000000E+03  0.00000000000E+00 0.  1.
    9000005    2    1    2  501    0 -0.42242710706E+02  0.13083427676E+02 -0.41112327641E+02  0.46545992566E+03  0.46152691820E+03 0.  0.
         13    1    3    3    0    0 -0.19520702990E+03  0.83874977154E+02 -0.15416762827E+03  0.26250419791E+03  0.00000000000E+00 0.  1.
          3    1    3    3  501    0  0.15296431920E+03 -0.70791549478E+02  0.11305530063E+03  0.20295572774E+03  0.00000000000E+00 0.  1.
         21    1    1    2  502  501  0.42242710706E+02 -0.13083427676E+02  0.80194701703E+00  0.44229693720E+02  0.00000000000E+00 0. -1.
<scales pt_clust_4="550.00000" pt_clust_5="550.00000" pt_clust_6="44.22242"></scales>
<mgrwt>
<rscale>  0 0.30000000E+03</rscale>
<asrwt>  1 0.44222423E+02</asrwt>
<pdfrwt beam="1">  1        1 0.85341680E+00 0.30000000E+03</pdfrwt>
<pdfrwt beam="2">0</pdfrwt>
<totfact> 0.36172464E-04</totfact>
</mgrwt>
<clustering>
<clus scale="   44.222">  1  6  2 -1</clus>
<clus scale="  461.527">  4  5 -1 -1</clus>
<clus scale="  300.000">  1  4  2 -1</clus>
</clustering>
</event>
<event>
 6    1  0.9843879E-012  0.3000000E+03  0.7818608E-02  0.1093470E+00
          1   -1    0    0  502    0  0.00000000000E+00  0.00000000000E+00  0.25869459044E+03  0.25869459044E+03  0.00000000000E+00 0.  1.
         13   -1    0    0    0    0 -0.00000000000E+00 -0.00000000000E+00 -0.27500000000E+03  0.27500000000E+03  0.00000000000E+00 0.  1.
    9000005    2    1    2  501    0 -0.51803979856E+02 -0.51526793241E+01 -0.27692356416E+02  0.48040420677E+03  0.47677157303E+03 0.  0.
         13    1    3    3    0    0  0.12798323848E+03  0.13691984650E+03 -0.13138747809E+03  0.22888735897E+03  0.00000000000E+00 0.  1.
          1    1    3    3  501    0 -0.17978721833E+03 -0.14207252582E+03  0.10369512168E+03  0.25151684780E+03  0.00000000000E+00 0.  1.
         21    1    1    2  502  501  0.51803979856E+02  0.51526793241E+01  0.11386946859E+02  0.53290383672E+02  0.00000000000E+00 0.  1.
<scales pt_clust_4="550.00000" pt_clust_5="550.00000" pt_clust_6="52.05960"></scales>
<mgrwt>
<rscale>  0 0.30000000E+03</rscale>
<asrwt>  1 0.52059605E+02</asrwt>
<pdfrwt beam="1">  1        1 0.94070760E+00 0.30000000E+03</pdfrwt>
<pdfrwt beam="2">0</pdfrwt>
<totfact> 0.17344518E-05</totfact>
</mgrwt>
<clustering>
<clus scale="   52.060">  1  6  2 -1</clus>
<clus scale="  476.772">  4  5 -1 -1</clus>
<clus scale="  300.000">  1  4  2 -1</clus>
</clustering>
</event>
<event>
 6    1  0.9843879E-012  0.3000000E+03  0.7818608E-02  0.1093470E+00
          1   -1    0    0  502    0  0.00000000000E+00  0.00000000000E+00  0.24056928987E+03  0.24056928987E+03  0.00000000000E+00 0.  1.
         13   -1    0    0    0    0 -0.00000000000E+00 -0.00000000000E+00 -0.27500000000E+03  0.27500000000E+03  0.00000000000E+00 0.  1.
    9000005    2    1    2  501    0 -0.38106373302E+02 -0.97791120323E+01 -0.41944160181E+02  0.47551709081E+03  0.47202697418E+03 0.  0.
         13    1    3    3    0    0 -0.21458146319E+03 -0.77733165413E+02  0.89571435470E+02  0.24517481804E+03  0.00000000000E+00 0.  1.
          3    1    3    3  501    0  0.17647508989E+03  0.67954053380E+02 -0.13151559565E+03  0.23034227276E+03  0.00000000000E+00 0.  1.
         21    1    1    2  502  501  0.38106373302E+02  0.97791120323E+01  0.75134500535E+01  0.40052199067E+02  0.00000000000E+00 0.  1.
<scales pt_clust_4="550.00000" pt_clust_5="550.00000" pt_clust_6="39.34116"></scales>
<mgrwt>
<rscale>  0 0.30000000E+03</rscale>
<asrwt>  1 0.39341158E+02</asrwt>
<pdfrwt beam="1">  1        1 0.87479742E+00 0.30000000E+03</pdfrwt>
<pdfrwt beam="2">0</pdfrwt>
<totfact> 0.22119983E-04</totfact>
</mgrwt>
<clustering>
<clus scale="   39.341">  1  6  2 -1</clus>
<clus scale="  472.027">  4  5 -1 -1</clus>
<clus scale="  300.000">  1  4  2 -1</clus>
</clustering>
</event>
<event>
 6    1  0.9843879E-012  0.3000000E+03  0.7818608E-02  0.1093470E+00
          1   -1    0    0  502    0  0.00000000000E+00  0.00000000000E+00  0.24369098246E+03  0.24369098246E+03  0.00000000000E+00 0.  1.
         13   -1    0    0    0    0 -0.00000000000E+00 -0.00000000000E+00 -0.27500000000E+03  0.27500000000E+03  0.00000000000E+00 0.  1.
    9000005    2    1    2  501    0 -0.37523773643E+02  0.42169773119E+01 -0.53046046156E+02  0.47512132674E+03  0.47063847657E+03 0.  0.
         13    1    3    3    0    0 -0.64119278481E+02  0.13950888793E+03  0.15974237860E+03  0.22156633139E+03  0.00000000000E+00 0.  1.
          1    1    3    3  501    0  0.26595504838E+02 -0.13529191062E+03 -0.21278842476E+03  0.25355499535E+03  0.00000000000E+00 0.  1.
         21    1    1    2  502  501  0.37523773643E+02 -0.42169773119E+01  0.21737028611E+02  0.43569655712E+02  0.00000000000E+00 0.  1.
<scales pt_clust_4="550.00000" pt_clust_5="550.00000" pt_clust_6="37.75999"></scales>
<mgrwt>
<rscale>  0 0.30000000E+03</rscale>
<asrwt>  1 0.37759985E+02</asrwt>
<pdfrwt beam="1">  1        1 0.88614903E+00 0.30000000E+03</pdfrwt>
<pdfrwt beam="2">0</pdfrwt>
<totfact> 0.16135006E-04</totfact>
</mgrwt>
<clustering>
<clus scale="   37.760">  1  6  2 -1</clus>
<clus scale="  470.638">  4  5 -1 -1</clus>
<clus scale="  300.000">  1  4  2 -1</clus>
</clustering>
</event>
<event>
 6    1  0.9843879E-012  0.3000000E+03  0.7818608E-02  0.1093470E+00
          1   -1    0    0  502    0  0.00000000000E+00  0.00000000000E+00  0.24552769459E+03  0.24552769459E+03  0.00000000000E+00 0.  1.
         13   -1    0    0    0    0 -0.00000000000E+00 -0.00000000000E+00 -0.27500000000E+03  0.27500000000E+03  0.00000000000E+00 0.  1.
    9000005    2    1    2  501    0 -0.37594067304E+01  0.39736841862E+02 -0.61322401214E+02  0.46946324176E+03  0.46372637269E+03 0.  0.
         13    1    3    3    0    0 -0.18831230733E+03  0.29220255523E+02  0.10777856103E+03  0.21893279024E+03  0.00000000000E+00 0.  1.
          1    1    3    3  501    0  0.18455290060E+03  0.10516586339E+02 -0.16910096224E+03  0.25053045152E+03  0.00000000000E+00 0.  1.
         21    1    1    2  502  501  0.37594067304E+01 -0.39736841862E+02  0.31850095800E+02  0.51064452828E+02  0.00000000000E+00 0.  1.
<scales pt_clust_4="550.00000" pt_clust_5="550.00000" pt_clust_6="39.91428"></scales>
<mgrwt>
<rscale>  0 0.30000000E+03</rscale>
<asrwt>  1 0.39914280E+02</asrwt>
<pdfrwt beam="1">  1        1 0.89282798E+00 0.30000000E+03</pdfrwt>
<pdfrwt beam="2">0</pdfrwt>
<totfact> 0.13034609E-04</totfact>
</mgrwt>
<clustering>
<clus scale="   39.914">  1  6  2 -1</clus>
<clus scale="  463.726">  4  5 -1 -1</clus>
<clus scale="  300.000">  1  4  2 -1</clus>
</clustering>
</event>
<event>
 6    1  0.9843879E-012  0.3000000E+03  0.7818608E-02  0.1093470E+00
          1   -1    0    0  502    0  0.00000000000E+00  0.00000000000E+00  0.22378129356E+03  0.22378129356E+03  0.00000000000E+00 0.  1.
         13   -1    0    0    0    0 -0.00000000000E+00 -0.00000000000E+00 -0.27500000000E+03  0.27500000000E+03  0.00000000000E+00 0.  1.
    9000005    2    1    2  501    0  0.21184303867E+02 -0.22663483554E+02 -0.48270840434E+02  0.46761884611E+03  0.46408501697E+03 0.  0.
         13    1    3    3    0    0 -0.10668746084E+03 -0.21025120903E+03 -0.47932246079E+02  0.24059361050E+03  0.00000000000E+00 0.  1.
          3    1    3    3  501    0  0.12787176470E+03  0.18758772547E+03 -0.33859435540E+00  0.22702523561E+03  0.00000000000E+00 0.  1.
         21    1    1    2  502  501 -0.21184303867E+02  0.22663483554E+02 -0.29478660095E+01  0.31162447451E+02  0.00000000000E+00 0.  1.
<scales pt_clust_4="550.00000" pt_clust_5="550.00000" pt_clust_6="31.02270"></scales>
<mgrwt>
<rscale>  0 0.30000000E+03</rscale>
<asrwt>  1 0.31022705E+02</asrwt>
<pdfrwt beam="1">  1        1 0.81375016E+00 0.30000000E+03</pdfrwt>
<pdfrwt beam="2">0</pdfrwt>
<totfact> 0.83348073E-04</totfact>
</mgrwt>
<clustering>
<clus scale="   31.023">  1  6  2 -1</clus>
<clus scale="  464.085">  4  5 -1 -1</clus>
<clus scale="  300.000">  1  4  2 -1</clus>
</clustering>
</event>
<event>
 6    1  0.9843879E-012  0.3000000E+03  0.7818608E-02  0.1093470E+00
          1   -1    0    0  502    0  0.00000000000E+00  0.00000000000E+00  0.24285608725E+03  0.24285608725E+03  0.00000000000E+00 0.  1.
         13   -1    0    0    0    0 -0.00000000000E+00 -0.00000000000E+00 -0.27500000000E+03  0.27500000000E+03  0.00000000000E+00 0.  1.
    9000005    2    1    2  501    0 -0.25957502040E+02  0.25779755452E+02 -0.31152447750E+02  0.48125867333E+03  0.47885388998E+03 0.  0.
         13    1    3    3    0    0 -0.21953378443E+03 -0.99984979709E+02  0.28294385333E+02  0.24288402770E+03  0.00000000000E+00 0.  1.
          3    1    3    3  501    0  0.19357628239E+03  0.12576473516E+03 -0.59446833082E+02  0.23837464562E+03  0.00000000000E+00 0.  1.
         21    1    1    2  502  501  0.25957502040E+02 -0.25779755452E+02 -0.99146499569E+00  0.36597413927E+02  0.00000000000E+00 0. -1.
<scales pt_clust_4="550.00000" pt_clust_5="550.00000" pt_clust_6="36.58398"></scales>
<mgrwt>
<rscale>  0 0.30000000E+03</rscale>
<asrwt>  1 0.36583982E+02</asrwt>
<pdfrwt beam="1">  1        1 0.88311304E+00 0.30000000E+03</pdfrwt>
<pdfrwt beam="2">0</pdfrwt>
<totfact> 0.17850997E-04</totfact>
</mgrwt>
<clustering>
<clus scale="   36.584">  1  6  2 -1</clus>
<clus scale="  478.854">  4  5 -1 -1</clus>
<clus scale="  300.000">  1  4  2 -1</clus>
</clustering>
</event>
<event>
 6    1  0.9843879E-012  0.3000000E+03  0.7818608E-02  0.1093470E+00
          1   -1    0    0  502    0  0.00000000000E+00  0.00000000000E+00  0.26151862196E+03  0.26151862196E+03  0.00000000000E+00 0.  1.
         13   -1    0    0    0    0 -0.00000000000E+00 -0.00000000000E+00 -0.27500000000E+03  0.27500000000E+03  0.00000000000E+00 0.  1.
    9000005    2    1    2  501    0  0.41290476718E+02 -0.14423755387E+02 -0.38276814287E+02  0.48624176997E+03  0.48275562779E+03 0.  0.
         13    1    3    3    0    0  0.20947524717E+03  0.38625101177E+02 -0.16470086912E+03  0.26925481222E+03  0.00000000000E+00 0.  1.
          3    1    3    3  501    0 -0.16818477045E+03 -0.53048856564E+02  0.12642405483E+03  0.21698695775E+03  0.00000000000E+00 0.  1.
         21    1    1    2  502  501 -0.41290476718E+02  0.14423755387E+02  0.24795436247E+02  0.50276851987E+02  0.00000000000E+00 0.  1.
<scales pt_clust_4="550.00000" pt_clust_5="550.00000" pt_clust_6="43.73726"></scales>
<mgrwt>
<rscale>  0 0.30000000E+03</rscale>
<asrwt>  1 0.43737263E+02</asrwt>
<pdfrwt beam="1">  1        1 0.95097681E+00 0.30000000E+03</pdfrwt>
<pdfrwt beam="2">0</pdfrwt>
<totfact> 0.11306133E-05</totfact>
</mgrwt>
<clustering>
<clus scale="   43.737">  1  6  2 -1</clus>
<clus scale="  482.756">  4  5 -1 -1</clus>
<clus scale="  300.000">  1  4  2 -1</clus>
</clustering>
</event>
<event>
 6    1  0.9843879E-012  0.3000000E+03  0.7818608E-02  0.1093470E+00
          1   -1    0    0  502    0  0.00000000000E+00  0.00000000000E+00  0.22210190719E+03  0.22210190719E+03  0.00000000000E+00 0.  1.
         13   -1    0    0    0    0 -0.00000000000E+00 -0.00000000000E+00 -0.27500000000E+03  0.27500000000E+03  0.00000000000E+00 0.  1.
    9000005    2    1    2  501    0 -0.32463946379E+02  0.15332367033E+02 -0.44946079839E+02  0.46032931136E+03  0.45672085076E+03 0.  0.
         13    1    3    3    0    0  0.80390498133E+02 -0.14810730723E+03  0.11608762259E+03  0.20463319077E+03  0.00000000000E+00 0.  1.
          1    1    3    3  501    0 -0.11285444451E+03  0.16343967426E+03 -0.16103370243E+03  0.25569612060E+03  0.00000000000E+00 0.  1.
         21    1    1    2  502  501  0.32463946379E+02 -0.15332367033E+02 -0.79520129727E+01  0.36772595824E+02  0.00000000000E+00 0.  1.
<scales pt_clust_4="550.00000" pt_clust_5="550.00000" pt_clust_6="35.90251"></scales>
<mgrwt>
<rscale>  0 0.30000000E+03</rscale>
<asrwt>  1 0.35902515E+02</asrwt>
<pdfrwt beam="1">  1        1 0.80764330E+00 0.30000000E+03</pdfrwt>
<pdfrwt beam="2">0</pdfrwt>
<totfact> 0.90528031E-04</totfact>
</mgrwt>
<clustering>
<clus scale="   35.903">  1  6  2 -1</clus>
<clus scale="  456.721">  4  5 -1 -1</clus>
<clus scale="  300.000">  1  4  2 -1</clus>
</clustering>
</event>
<event>
 6    1  0.9843879E-012  0.3000000E+03  0.7818608E-02  0.1093470E+00
          1   -1    0    0  502    0  0.00000000000E+00  0.00000000000E+00  0.22896148138E+03  0.22896148138E+03  0.00000000000E+00 0.  1.
         13   -1    0    0    0    0 -0.00000000000E+00 -0.00000000000E+00 -0.27500000000E+03  0.27500000000E+03  0.00000000000E+00 0.  1.
    9000005    2    1    2  501    0  0.30924043717E+02 -0.18065547592E+02 -0.38425951883E+02  0.46734711724E+03  0.46438573807E+03 0.  0.
         13    1    3    3    0    0 -0.89468957963E+01 -0.13712478071E+03  0.17331301326E+03  0.22118013698E+03  0.00000000000E+00 0.  1.
          1    1    3    3  501    0  0.39870939514E+02  0.11905923312E+03 -0.21173896514E+03  0.24616698026E+03  0.00000000000E+00 0.  1.
         21    1    1    2  502  501 -0.30924043717E+02  0.18065547592E+02 -0.76125667338E+01  0.36614364147E+02  0.00000000000E+00 0.  1.
<scales pt_clust_4="550.00000" pt_clust_5="550.00000" pt_clust_6="35.81427"></scales>
<mgrwt>
<rscale>  0 0.30000000E+03</rscale>
<asrwt>  1 0.35814268E+02</asrwt>
<pdfrwt beam="1">  1        1 0.83258721E+00 0.30000000E+03</pdfrwt>
<pdfrwt beam="2">0</pdfrwt>
<totfact> 0.56138881E-04</totfact>
</mgrwt>
<clustering>
<clus scale="   35.814">  1  6  2 -1</clus>
<clus scale="  464.386">  4  5 -1 -1</clus>
<clus scale="  300.000">  1  4  2 -1</clus>
</clustering>
</event>
<event>
 6    1  0.9843879E-012  0.3000000E+03  0.7818608E-02  0.1093470E+00
          1   -1    0    0  502    0  0.00000000000E+00  0.00000000000E+00  0.26051022540E+03  0.26051022540E+03  0.00000000000E+00 0.  1.
         13   -1    0    0    0    0 -0.00000000000E+00 -0.00000000000E+00 -0.27500000000E+03  0.27500000000E+03  0.00000000000E+00 0.  1.
    9000005    2    1    2  501    0  0.12930846199E+02  0.28985348927E+02 -0.38534839141E+02  0.49569160708E+03  0.49317124639E+03 0.  0.
         13    1    3    3    0    0 -0.11570357694E+03 -0.31658108589E+02 -0.22868890974E+03  0.25824052934E+03  0.00000000000E+00 0.  1.
          1    1    3    3  501    0  0.12863442314E+03  0.60643457516E+02  0.19015407060E+03  0.23745107774E+03  0.00000000000E+00 0.  1.
         21    1    1    2  502  501 -0.12930846199E+02 -0.28985348927E+02  0.24045064538E+02  0.39818618314E+02  0.00000000000E+00 0.  1.
<scales pt_clust_4="550.00000" pt_clust_5="550.00000" pt_clust_6="31.73889"></scales>
<mgrwt>
<rscale>  0 0.30000000E+03</rscale>
<asrwt>  1 0.31738892E+02</asrwt>
<pdfrwt beam="1">  1        1 0.94730991E+00 0.30000000E+03</pdfrwt>
<pdfrwt beam="2">0</pdfrwt>
<totfact> 0.14259624E-05</totfact>
</mgrwt>
<clustering>
<clus scale="   31.739">  1  6  2 -1</clus>
<clus scale="  493.171">  4  5 -1 -1</clus>
<clus scale="  300.000">  1  4  2 -1</clus>
</clustering>
</event>
<event>
 6    1  0.9843879E-012  0.3000000E+03  0.7818608E-02  0.1093470E+00
          1   -1    0    0  502    0  0.00000000000E+00  0.00000000000E+00  0.22414205812E+03  0.22414205812E+03  0.00000000000E+00 0.  1.
         13   -1    0    0    0    0 -0.00000000000E+00 -0.00000000000E+00 -0.27500000000E+03  0.27500000000E+03  0.00000000000E+00 0.  1.
    9000005    2    1    2  501    0  0.35794064229E+02  0.20876392815E+01 -0.49479663970E+02  0.46326068521E+03  0.45921307913E+03 0.  0.
         13    1    3    3    0    0 -0.89524221141E+02  0.17345996655E+03 -0.13182781155E+03  0.23554515080E+03  0.00000000000E+00 0.  1.
          3    1    3    3  501    0  0.12531828537E+03 -0.17137232727E+03  0.82348147583E+02  0.22771553441E+03  0.00000000000E+00 0.  1.
         21    1    1    2  502  501 -0.35794064229E+02 -0.20876392815E+01 -0.13782779130E+01  0.35881372908E+02  0.00000000000E+00 0. -1.
<scales pt_clust_4="550.00000" pt_clust_5="550.00000" pt_clust_6="35.85489"></scales>
<mgrwt>
<rscale>  0 0.30000000E+03</rscale>
<asrwt>  1 0.35854892E+02</asrwt>
<pdfrwt beam="1">  1        1 0.81506203E+00 0.30000000E+03</pdfrwt>
<pdfrwt beam="2">0</pdfrwt>
<totfact> 0.79155110E-04</totfact>
</mgrwt>
<clustering>
<clus scale="   35.855">  1  6  2 -1</clus>
<clus scale="  459.213">  4  5 -1 -1</clus>
<clus scale="  300.000">  1  4  2 -1</clus>
</clustering>
</event>
<event>
 6    1  0.9843879E-012  0.3000000E+03  0.7818608E-02  0.1093470E+00
          1   -1    0    0  502    0  0.00000000000E+00  0.00000000000E+00  0.23261492623E+03  0.23261492623E+03  0.00000000000E+00 0.  1.
         13   -1    0    0    0    0 -0.00000000000E+00 -0.00000000000E+00 -0.27500000000E+03  0.27500000000E+03  0.00000000000E+00 0.  1.
    9000005    2    1    2  501    0 -0.20640177297E+02  0.32207675225E+02 -0.54829570964E+02  0.46738786106E+03  0.46258164636E+03 0.  0.
         13    1    3    3    0    0  0.50249678690E+02  0.22944725760E+03  0.38387092841E+02  0.23800135110E+03  0.00000000000E+00 0.  1.
          1    1    3    3  501    0 -0.70889855987E+02 -0.19723958238E+03 -0.93216663805E+02  0.22938650995E+03  0.00000000000E+00 0.  1.
         21    1    1    2  502  501  0.20640177297E+02 -0.32207675225E+02  0.12444497198E+02  0.40227065178E+02  0.00000000000E+00 0.  1.
<scales pt_clust_4="550.00000" pt_clust_5="550.00000" pt_clust_6="38.25377"></scales>
<mgrwt>
<rscale>  0 0.30000000E+03</rscale>
<asrwt>  1 0.38253774E+02</asrwt>
<pdfrwt beam="1">  1        1 0.84587246E+00 0.30000000E+03</pdfrwt>
<pdfrwt beam="2">0</pdfrwt>
<totfact> 0.43664389E-04</totfact>
</mgrwt>
<clustering>
<clus scale="   38.254">  1  6  2 -1</clus>
<clus scale="  462.582">  4  5 -1 -1</clus>
<clus scale="  300.000">  1  4  2 -1</clus>
</clustering>
</event>
<event>
 6    1  0.9843879E-012  0.3000000E+03  0.7818608E-02  0.1093470E+00
          1   -1    0    0  502    0  0.00000000000E+00  0.00000000000E+00  0.24684512319E+03  0.24684512319E+03  0.00000000000E+00 0.  1.
         13   -1    0    0    0    0 -0.00000000000E+00 -0.00000000000E+00 -0.27500000000E+03  0.27500000000E+03  0.00000000000E+00 0.  1.
    9000005    2    1    2  501    0 -0.11683893872E+02  0.30837686221E+02 -0.53111769036E+02  0.48048907482E+03  0.47640467540E+03 0.  0.
         13    1    3    3    0    0 -0.12961423240E+03  0.23531282789E+02 -0.23159522387E+03  0.26643933311E+03  0.00000000000E+00 0.  1.
          1    1    3    3  501    0  0.11793033853E+03  0.73064034321E+01  0.17848345483E+03  0.21404974171E+03  0.00000000000E+00 0.  1.
         21    1    1    2  502  501  0.11683893872E+02 -0.30837686221E+02  0.24956892222E+02  0.41356048371E+02  0.00000000000E+00 0. -1.
<scales pt_clust_4="550.00000" pt_clust_5="550.00000" pt_clust_6="32.97691"></scales>
<mgrwt>
<rscale>  0 0.30000000E+03</rscale>
<asrwt>  1 0.32976905E+02</asrwt>
<pdfrwt beam="1">  1        1 0.89761863E+00 0.30000000E+03</pdfrwt>
<pdfrwt beam="2">0</pdfrwt>
<totfact> 0.11918964E-04</totfact>
</mgrwt>
<clustering>
<clus scale="   32.977">  1  6  2 -1</clus>
<clus scale="  476.405">  4  5 -1 -1</clus>
<clus scale="  300.000">  1  4  2 -1</clus>
</clustering>
</event>
<event>
 6    1  0.9843879E-012  0.3000000E+03  0.7818608E-02  0.1093470E+00
          1   -1    0    0  502    0  0.00000000000E+00  0.00000000000E+00  0.24712451714E+03  0.24712451714E+03  0.00000000000E+00 0.  1.
         13   -1    0    0    0    0 -0.00000000000E+00 -0.00000000000E+00 -0.27500000000E+03  0.27500000000E+03  0.00000000000E+00 0.  1.
    9000005    2    1    2  501    0  0.53377293774E+02 -0.27486038356E+02 -0.17370496999E+02  0.46117394271E+03  0.45691908854E+03 0.  0.
         13    1    3    3    0    0 -0.18290173319E+03  0.75813979144E+02 -0.41094210280E+02  0.20221161578E+03  0.00000000000E+00 0.  1.
          1    1    3    3  501    0  0.23627902696E+03 -0.10330001750E+03  0.23723713280E+02  0.25896232693E+03  0.00000000000E+00 0.  1.
         21    1    1    2  502  501 -0.53377293774E+02  0.27486038356E+02 -0.10504985860E+02  0.60950574428E+02  0.00000000000E+00 0.  1.
<scales pt_clust_4="550.00000" pt_clust_5="550.00000" pt_clust_6="60.03850"></scales>
<mgrwt>
<rscale>  0 0.30000000E+03</rscale>
<asrwt>  1 0.60038499E+02</asrwt>
<pdfrwt beam="1">  1        1 0.89863461E+00 0.30000000E+03</pdfrwt>
<pdfrwt beam="2">0</pdfrwt>
<totfact> 0.10420911E-04</totfact>
</mgrwt>
<clustering>
<clus scale="   60.038">  1  6  2 -1</clus>
<clus scale="  456.919">  4  5 -1 -1</clus>
<clus scale="  300.000">  1  4  2 -1</clus>
</clustering>
</event>
<event>
 6    1  0.9843879E-012  0.3000000E+03  0.7818608E-02  0.1093470E+00
          1   -1    0    0  502    0  0.00000000000E+00  0.00000000000E+00  0.22341329498E+03  0.22341329498E+03  0.00000000000E+00 0.  1.
         13   -1    0    0    0    0 -0.00000000000E+00 -0.00000000000E+00 -0.27500000000E+03  0.27500000000E+03  0.00000000000E+00 0.  1.
    9000005    2    1    2  501    0  0.12867159269E+02 -0.28803214373E+02 -0.58968222519E+02  0.46601459522E+03  0.46119102630E+03 0.  0.
         13    1    3    3    0    0  0.20261725143E+03  0.70047903176E+02 -0.11713085882E+03  0.24429510311E+03  0.00000000000E+00 0.  1.
          1    1    3    3  501    0 -0.18975009217E+03 -0.98851117549E+02  0.58162636297E+02  0.22171949210E+03  0.00000000000E+00 0.  1.
         21    1    1    2  502  501 -0.12867159269E+02  0.28803214373E+02  0.73815175017E+01  0.32398699765E+02  0.00000000000E+00 0.  1.
<scales pt_clust_4="550.00000" pt_clust_5="550.00000" pt_clust_6="31.54662"></scales>
<mgrwt>
<rscale>  0 0.30000000E+03</rscale>
<asrwt>  1 0.31546615E+02</asrwt>
<pdfrwt beam="1">  1        1 0.81241198E+00 0.30000000E+03</pdfrwt>
<pdfrwt beam="2">0</pdfrwt>
<totfact> 0.85144746E-04</totfact>
</mgrwt>
<clustering>
<clus scale="   31.547">  1  6  2 -1</clus>
<clus scale="  461.191">  4  5 -1 -1</clus>
<clus scale="  300.000">  1  4  2 -1</clus>
</clustering>
</event>
<event>
 6    1  0.9843879E-012  0.3000000E+03  0.7818608E-02  0.1093470E+00
          1   -1    0    0  502    0  0.00000000000E+00  0.00000000000E+00  0.22900492297E+03  0.22900492297E+03  0.00000000000E+00 0.  1.
         13   -1    0    0    0    0 -0.00000000000E+00 -0.00000000000E+00 -0.27500000000E+03  0.27500000000E+03  0.00000000000E+00 0.  1.
    9000005    2    1    2  501    0 -0.30781101567E+02  0.53149801700E+01 -0.62548891526E+02  0.46865306301E+03  0.46340867969E+03 0.  0.
         13    1    3    3    0    0 -0.86311061142E+02 -0.86179015670E+02 -0.23553112869E+03  0.26523826006E+03  0.00000000000E+00 0.  1.
          3    1    3    3  501    0  0.55529959574E+02  0.91493995840E+02  0.17298223717E+03  0.20341480295E+03  0.00000000000E+00 0.  1.
         21    1    1    2  502  501  0.30781101567E+02 -0.53149801700E+01  0.16553814492E+02  0.35351859953E+02  0.00000000000E+00 0.  1.
<scales pt_clust_4="550.00000" pt_clust_5="550.00000" pt_clust_6="31.23660"></scales>
<mgrwt>
<rscale>  0 0.30000000E+03</rscale>
<asrwt>  1 0.31236601E+02</asrwt>
<pdfrwt beam="1">  1        1 0.83274517E+00 0.30000000E+03</pdfrwt>
<pdfrwt beam="2">0</pdfrwt>
<totfact> 0.57446747E-04</totfact>
</mgrwt>
<clustering>
<clus scale="   31.237">  1  6  2 -1</clus>
<clus scale="  463.409">  4  5 -1 -1</clus>
<clus scale="  300.000">  1  4  2 -1</clus>
</clustering>
</event>
<event>
 6    1  0.9843879E-012  0.3000000E+03  0.7818608E-02  0.1093470E+00
          1   -1    0    0  502    0  0.00000000000E+00  0.00000000000E+00  0.24755419127E+03  0.24755419127E+03  0.00000000000E+00 0.  1.
         13   -1    0    0    0    0 -0.00000000000E+00 -0.00000000000E+00 -0.27500000000E+03  0.27500000000E+03  0.00000000000E+00 0.  1.
    9000005    2    1    2  501    0 -0.48341973065E+02  0.11582106279E+01 -0.33437516813E+02  0.47382854733E+03  0.47016713722E+03 0.  0.
         13    1    3    3    0    0 -0.20406197596E+03  0.66611332621E+02  0.11974441299E+03  0.24579886922E+03  0.00000000000E+00 0.  1.
          3    1    3    3  501    0  0.15572000289E+03 -0.65453121993E+02 -0.15318192981E+03  0.22802967811E+03  0.00000000000E+00 0.  1.
         21    1    1    2  502  501  0.48341973065E+02 -0.11582106279E+01  0.59917080809E+01  0.48725643941E+02  0.00000000000E+00 0. -1.
<scales pt_clust_4="550.00000" pt_clust_5="550.00000" pt_clust_6="48.35585"></scales>
<mgrwt>
<rscale>  0 0.30000000E+03</rscale>
<asrwt>  1 0.48355846E+02</asrwt>
<pdfrwt beam="1">  1        1 0.90019706E+00 0.30000000E+03</pdfrwt>
<pdfrwt beam="2">0</pdfrwt>
<totfact> 0.10355024E-04</totfact>
</mgrwt>
<clustering>
<clus scale="   48.356">  1  6  2 -1</clus>
<clus scale="  470.167">  4  5 -1 -1</clus>
<clus scale="  300.000">  1  4  2 -1</clus>
</clustering>
</event>
<event>
 6    1  0.9843879E-012  0.3000000E+03  0.7818608E-02  0.1093470E+00
          1   -1    0    0  502    0  0.00000000000E+00  0.00000000000E+00  0.25071488720E+03  0.25071488720E+03  0.00000000000E+00 0.  1.
         13   -1    0    0    0    0 -0.00000000000E+00 -0.00000000000E+00 -0.27500000000E+03  0.27500000000E+03  0.00000000000E+00 0.  1.
    9000005    2    1    2  501    0 -0.26884618273E+02  0.17370986016E+02 -0.63956886668E+02  0.47474054565E+03  0.46932245682E+03 0.  0.
         13    1    3    3    0    0 -0.11826036917E+03 -0.16031538173E+03  0.93772239749E+02  0.22018121964E+03  0.00000000000E+00 0.  1.
          3    1    3    3  501    0  0.91375750899E+02  0.17768636775E+03 -0.15772912642E+03  0.25455932600E+03  0.00000000000E+00 0.  1.
         21    1    1    2  502  501  0.26884618273E+02 -0.17370986016E+02  0.39671773872E+02  0.50974341555E+02  0.00000000000E+00 0. -1.
<scales pt_clust_4="550.00000" pt_clust_5="550.00000" pt_clust_6="32.00834"></scales>
<mgrwt>
<rscale>  0 0.30000000E+03</rscale>
<asrwt>  1 0.32008340E+02</asrwt>
<pdfrwt beam="1">  1        1 0.91169050E+00 0.30000000E+03</pdfrwt>
<pdfrwt beam="2">0</pdfrwt>
<totfact> 0.66371488E-05</totfact>
</mgrwt>
<clustering>
<clus scale="   32.008">  1  6  2 -1</clus>
<clus scale="  469.322">  4  5 -1 -1</clus>
<clus scale="  300.000">  1  4  2 -1</clus>
</clustering>
</event>
<event>
 6    1  0.9843879E-012  0.3000000E+03  0.7818608E-02  0.1093470E+00
          1   -1    0    0  502    0  0.00000000000E+00  0.00000000000E+00  0.22190555683E+03  0.22190555683E+03  0.00000000000E+00 0.  1.
         13   -1    0    0    0    0 -0.00000000000E+00 -0.00000000000E+00 -0.27500000000E+03  0.27500000000E+03  0.00000000000E+00 0.  1.
    9000005    2    1    2  501    0 -0.27026274034E+02 -0.21565743897E+02 -0.58290123906E+02  0.46194134804E+03  0.45694263282E+03 0.  0.
         13    1    3    3    0    0 -0.26177836860E+02 -0.23162168170E+03 -0.89281453047E+02  0.24960981639E+03  0.00000000000E+00 0.  1.
          1    1    3    3  501    0 -0.84843717373E+00  0.21005593781E+03  0.30991329140E+02  0.21233153166E+03  0.00000000000E+00 0.  1.
         21    1    1    2  502  501  0.27026274034E+02  0.21565743897E+02  0.51956807374E+01  0.34964208790E+02  0.00000000000E+00 0.  1.
<scales pt_clust_4="550.00000" pt_clust_5="550.00000" pt_clust_6="34.57601"></scales>
<mgrwt>
<rscale>  0 0.30000000E+03</rscale>
<asrwt>  1 0.34576015E+02</asrwt>
<pdfrwt beam="1">  1        1 0.80692930E+00 0.30000000E+03</pdfrwt>
<pdfrwt beam="2">0</pdfrwt>
<totfact> 0.92326330E-04</totfact>
</mgrwt>
<clustering>
<clus scale="   34.576">  1  6  2 -1</clus>
<clus scale="  456.943">  4  5 -1 -1</clus>
<clus scale="  300.000">  1  4  2 -1</clus>
</clustering>
</event>
<event>
 6    1  0.9843879E-012  0.3000000E+03  0.7818608E-02  0.1093470E+00
          1   -1    0    0  502    0  0.00000000000E+00  0.00000000000E+00  0.22733314392E+03  0.22733314392E+03  0.00000000000E+00 0.  1.
         13   -1    0    0    0    0 -0.00000000000E+00 -0.00000000000E+00 -0.27500000000E+03  0.27500000000E+03  0.00000000000E+00 0.  1.
    9000005    2    1    2  501    0 -0.32367360803E+02  0.92009296167E+01 -0.28129924511E+02  0.46342305723E+03  0.46134296805E+03 0.  0.
         13    1    3    3    0    0  0.81930499503E+02  0.11353034945E+03  0.16470515764E+03  0.21617015508E+03  0.00000000000E+00 0.  1.
          3    1    3    3  501    0 -0.11429786031E+03 -0.10432941983E+03 -0.19283508215E+03  0.24725290215E+03  0.00000000000E+00 0.  1.
         21    1    1    2  502  501  0.32367360803E+02 -0.92009296167E+01 -0.19536931566E+02  0.38910086690E+02  0.00000000000E+00 0.  1.
<scales pt_clust_4="550.00000" pt_clust_5="550.00000" pt_clust_6="33.64973"></scales>
<mgrwt>
<rscale>  0 0.30000000E+03</rscale>
<asrwt>  1 0.33649729E+02</asrwt>
<pdfrwt beam="1">  1        1 0.82666598E+00 0.30000000E+03</pdfrwt>
<pdfrwt beam="2">0</pdfrwt>
<totfact> 0.63596573E-04</totfact>
</mgrwt>
<clustering>
<clus scale="   33.650">  1  6  2 -1</clus>
<clus scale="  461.343">  4  5 -1 -1</clus>
<clus scale="  300.000">  1  4  2 -1</clus>
</clustering>
</event>
<event>
 6    1  0.9843879E-012  0.3000000E+03  0.7818608E-02  0.1093470E+00
          1   -1    0    0  502    0  0.00000000000E+00  0.00000000000E+00  0.23164133093E+03  0.23164133093E+03  0.00000000000E+00 0.  1.
         13   -1    0    0    0    0 -0.00000000000E+00 -0.00000000000E+00 -0.27500000000E+03  0.27500000000E+03  0.00000000000E+00 0.  1.
    9000005    2    1    2  501    0  0.20312468053E+02  0.22835235305E+02 -0.70945277222E+02  0.46547016044E+03  0.45901546115E+03 0.  0.
         13    1    3    3    0    0 -0.19249173631E+02  0.16822250200E+03  0.13059553645E+03  0.21383296052E+03  0.00000000000E+00 0.  1.
          3    1    3    3  501    0  0.39561641684E+02 -0.14538726670E+03 -0.20154081367E+03  0.25163719992E+03  0.00000000000E+00 0.  1.
         21    1    1    2  502  501 -0.20312468053E+02 -0.22835235305E+02  0.27586608152E+02  0.41171170486E+02  0.00000000000E+00 0. -1.
<scales pt_clust_4="550.00000" pt_clust_5="550.00000" pt_clust_6="30.56214"></scales>
<mgrwt>
<rscale>  0 0.30000000E+03</rscale>
<asrwt>  1 0.30562139E+02</asrwt>
<pdfrwt beam="1">  1        1 0.84233211E+00 0.30000000E+03</pdfrwt>
<pdfrwt beam="2">0</pdfrwt>
<totfact> 0.48852479E-04</totfact>
</mgrwt>
<clustering>
<clus scale="   30.562">  1  6  2 -1</clus>
<clus scale="  459.015">  4  5 -1 -1</clus>
<clus scale="  300.000">  1  4  2 -1</clus>
</clustering>
</event>
<event>
 6    1  0.9843879E-012  0.3000000E+03  0.7818608E-02  0.1093470E+00
          1   -1    0    0  502    0  0.00000000000E+00  0.00000000000E+00  0.24622138774E+03  0.24622138774E+03  0.00000000000E+00 0.  1.
         13   -1    0    0    0    0 -0.00000000000E+00 -0.00000000000E+00 -0.27500000000E+03  0.27500000000E+03  0.00000000000E+00 0.  1.
    9000005    2    1    2  501    0  0.41408152815E+02 -0.48841266651E+01 -0.52435479102E+02  0.47328249787E+03  0.46851718593E+03 0.  0.
         13    1    3    3    0    0 -0.15291372729E+03 -0.98657074983E+02 -0.15062348555E+03  0.23622713823E+03  0.00000000000E+00 0.  1.
          1    1    3    3  501    0  0.19432188011E+03  0.93772948318E+02  0.98188006446E+02  0.23705535964E+03  0.00000000000E+00 0.  1.
         21    1    1    2  502  501 -0.41408152815E+02  0.48841266651E+01  0.23656866840E+02  0.47938889866E+02  0.00000000000E+00 0.  1.
<scales pt_clust_4="550.00000" pt_clust_5="550.00000" pt_clust_6="41.69520"></scales>
<mgrwt>
<rscale>  0 0.30000000E+03</rscale>
<asrwt>  1 0.41695201E+02</asrwt>
<pdfrwt beam="1">  1        1 0.89535050E+00 0.30000000E+03</pdfrwt>
<pdfrwt beam="2">0</pdfrwt>
<totfact> 0.12099694E-04</totfact>
</mgrwt>
<clustering>
<clus scale="   41.695">  1  6  2 -1</clus>
<clus scale="  468.517">  4  5 -1 -1</clus>
<clus scale="  300.000">  1  4  2 -1</clus>
</clustering>
</event>
<event>
 6    1  0.9843879E-012  0.3000000E+03  0.7818608E-02  0.1093470E+00
          1   -1    0    0  502    0  0.00000000000E+00  0.00000000000E+00  0.24465573317E+03  0.24465573317E+03  0.00000000000E+00 0.  1.
         13   -1    0    0    0    0 -0.00000000000E+00 -0.00000000000E+00 -0.27500000000E+03  0.27500000000E+03  0.00000000000E+00 0.  1.
    9000005    2    1    2  501    0  0.35783193518E+02 -0.37015132540E+01 -0.26672444124E+02  0.48349469861E+03  0.48141620887E+03 0.  0.
         13    1    3    3    0    0 -0.10815391072E+03 -0.19978723444E+03  0.41357200427E+02  0.23091692332E+03  0.00000000000E+00 0.  1.
          1    1    3    3  501    0  0.14393710423E+03  0.19608572119E+03 -0.68029644551E+02  0.25257777528E+03  0.00000000000E+00 0.  1.
         21    1    1    2  502  501 -0.35783193518E+02  0.37015132540E+01 -0.36718227068E+01  0.36161034563E+02  0.00000000000E+00 0. -1.
<scales pt_clust_4="550.00000" pt_clust_5="550.00000" pt_clust_6="35.97415"></scales>
<mgrwt>
<rscale>  0 0.30000000E+03</rscale>
<asrwt>  1 0.35974150E+02</asrwt>
<pdfrwt beam="1">  1        1 0.88965721E+00 0.30000000E+03</pdfrwt>
<pdfrwt beam="2">0</pdfrwt>
<totfact> 0.14574395E-04</totfact>
</mgrwt>
<clustering>
<clus scale="   35.974">  1  6  2 -1</clus>
<clus scale="  481.416">  4  5 -1 -1</clus>
<clus scale="  300.000">  1  4  2 -1</clus>
</clustering>
</event>
<event>
 6    1  0.9843879E-012  0.3000000E+03  0.7818608E-02  0.1093470E+00
          1   -1    0    0  502    0  0.00000000000E+00  0.00000000000E+00  0.24537166979E+03  0.24537166979E+03  0.00000000000E+00 0.  1.
         13   -1    0    0    0    0 -0.00000000000E+00 -0.00000000000E+00 -0.27500000000E+03  0.27500000000E+03  0.00000000000E+00 0.  1.
    9000005    2    1    2  501    0  0.37949259755E+02 -0.19321780758E+02 -0.55290788579E+02  0.47065206302E+03  0.46544904726E+03 0.  0.
         13    1    3    3    0    0  0.48735770885E+02 -0.21348919196E+03  0.80672809719E+02  0.23336861973E+03  0.00000000000E+00 0.  1.
          1    1    3    3  501    0 -0.10786511131E+02  0.19416741120E+03 -0.13596359830E+03  0.23728344329E+03  0.00000000000E+00 0.  1.
         21    1    1    2  502  501 -0.37949259755E+02  0.19321780758E+02  0.25662458367E+02  0.49719606767E+02  0.00000000000E+00 0.  1.
<scales pt_clust_4="550.00000" pt_clust_5="550.00000" pt_clust_6="42.58494"></scales>
<mgrwt>
<rscale>  0 0.30000000E+03</rscale>
<asrwt>  1 0.42584945E+02</asrwt>
<pdfrwt beam="1">  1        1 0.89226062E+00 0.30000000E+03</pdfrwt>
<pdfrwt beam="2">0</pdfrwt>
<totfact> 0.13085653E-04</totfact>
</mgrwt>
<clustering>
<clus scale="   42.585">  1  6  2 -1</clus>
<clus scale="  465.449">  4  5 -1 -1</clus>
<clus scale="  300.000">  1  4  2 -1</clus>
</clustering>
</event>
<event>
 6    1  0.9843879E-012  0.3000000E+03  0.7818608E-02  0.1093470E+00
          1   -1    0    0  502    0  0.00000000000E+00  0.00000000000E+00  0.23480934991E+03  0.23480934991E+03  0.00000000000E+00 0.  1.
         13   -1    0    0    0    0 -0.00000000000E+00 -0.00000000000E+00 -0.27500000000E+03  0.27500000000E+03  0.00000000000E+00 0.  1.
    9000005    2    1    2  501    0 -0.92326940422E+01  0.32818073579E+02 -0.58982780725E+02  0.47088104701E+03  0.46592673611E+03 0.  0.
         13    1    3    3    0    0  0.57645178183E+01  0.24501478319E+03  0.15296718567E+02  0.24555949024E+03  0.00000000000E+00 0.  1.
          3    1    3    3  501    0 -0.14997211861E+02 -0.21219670961E+03 -0.74279499292E+02  0.22532155678E+03  0.00000000000E+00 0.  1.
         21    1    1    2  502  501  0.92326940422E+01 -0.32818073579E+02  0.18792130638E+02  0.38928302899E+02  0.00000000000E+00 0.  1.
<scales pt_clust_4="550.00000" pt_clust_5="550.00000" pt_clust_6="34.09206"></scales>
<mgrwt>
<rscale>  0 0.30000000E+03</rscale>
<asrwt>  1 0.34092061E+02</asrwt>
<pdfrwt beam="1">  1        1 0.85385218E+00 0.30000000E+03</pdfrwt>
<pdfrwt beam="2">0</pdfrwt>
<totfact> 0.37574402E-04</totfact>
</mgrwt>
<clustering>
<clus scale="   34.092">  1  6  2 -1</clus>
<clus scale="  465.927">  4  5 -1 -1</clus>
<clus scale="  300.000">  1  4  2 -1</clus>
</clustering>
</event>
<event>
 6    1  0.9843879E-012  0.3000000E+03  0.7818608E-02  0.1093470E+00
          1   -1    0    0  502    0  0.00000000000E+00  0.00000000000E+00  0.25113097171E+03  0.25113097171E+03  0.00000000000E+00 0.  1.
         13   -1    0    0    0    0 -0.00000000000E+00 -0.00000000000E+00 -0.27500000000E+03  0.27500000000E+03  0.00000000000E+00 0.  1.
    9000005    2    1    2  501    0 -0.95161460918E+01  0.58189203912E+02 -0.47188796389E+02  0.46272472539E+03  0.45652037029E+03 0.  0.
         13    1    3    3    0    0  0.15966621069E+03  0.18253360424E+03  0.17173895732E+02  0.24311881500E+03  0.00000000000E+00 0.  1.
          1    1    3    3  501    0 -0.16918235678E+03 -0.12434440033E+03 -0.64362692122E+02  0.21960591038E+03  0.00000000000E+00 0.  1.
         21    1    1    2  502  501  0.95161460918E+01 -0.58189203912E+02  0.23319768096E+02  0.63406246321E+02  0.00000000000E+00 0. -1.
<scales pt_clust_4="550.00000" pt_clust_5="550.00000" pt_clust_6="58.96220"></scales>
<mgrwt>
<rscale>  0 0.30000000E+03</rscale>
<asrwt>  1 0.58962195E+02</asrwt>
<pdfrwt beam="1">  1        1 0.91320353E+00 0.30000000E+03</pdfrwt>
<pdfrwt beam="2">0</pdfrwt>
<totfact> 0.54504090E-05</totfact>
</mgrwt>
<clustering>
<clus scale="   58.962">  1  6  2 -1</clus>
<clus scale="  456.520">  4  5 -1 -1</clus>
<clus scale="  300.000">  1  4  2 -1</clus>
</clustering>
</event>
<event>
 6    1  0.9843879E-012  0.3000000E+03  0.7818608E-02  0.1093470E+00
          1   -1    0    0  502    0  0.00000000000E+00  0.00000000000E+00  0.22912754335E+03  0.22912754335E+03  0.00000000000E+00 0.  1.
         13   -1    0    0    0    0 -0.00000000000E+00 -0.00000000000E+00 -0.27500000000E+03  0.27500000000E+03  0.00000000000E+00 0.  1.
    9000005    2    1    2  501    0 -0.28193014273E+02 -0.13057815317E+02 -0.40695677586E+02  0.47262910473E+03  0.46984761345E+03 0.  0.
         13    1    3    3    0    0  0.20407433023E+03 -0.38870848710E+02 -0.10141020574E+03  0.23117375493E+03  0.00000000000E+00 0.  1.
          3    1    3    3  501    0 -0.23226734450E+03  0.25813033393E+02  0.60714528156E+02  0.24145534980E+03  0.00000000000E+00 0.  1.
         21    1    1    2  502  501  0.28193014273E+02  0.13057815317E+02 -0.51767790595E+01  0.31498438629E+02  0.00000000000E+00 0.  1.
<scales pt_clust_4="550.00000" pt_clust_5="550.00000" pt_clust_6="31.07014"></scales>
<mgrwt>
<rscale>  0 0.30000000E+03</rscale>
<asrwt>  1 0.31070139E+02</asrwt>
<pdfrwt beam="1">  1        1 0.83319107E+00 0.30000000E+03</pdfrwt>
<pdfrwt beam="2">0</pdfrwt>
<totfact> 0.57061499E-04</totfact>
</mgrwt>
<clustering>
<clus scale="   31.070">  1  6  2 -1</clus>
<clus scale="  469.848">  4  5 -1 -1</clus>
<clus scale="  300.000">  1  4  2 -1</clus>
</clustering>
</event>
<event>
 6    1  0.9843879E-012  0.3000000E+03  0.7818608E-02  0.1093470E+00
          1   -1    0    0  502    0  0.00000000000E+00  0.00000000000E+00  0.22629593179E+03  0.22629593179E+03  0.00000000000E+00 0.  1.
         13   -1    0    0    0    0 -0.00000000000E+00 -0.00000000000E+00 -0.27500000000E+03  0.27500000000E+03  0.00000000000E+00 0.  1.
    9000005    2    1    2  501    0 -0.61270010211E+01  0.29915394038E+02 -0.60093518999E+02  0.46870466714E+03  0.46383225743E+03 0.  0.
         13    1    3    3    0    0  0.99021459559E+02 -0.19315184213E+03 -0.44752812973E+02  0.22162061692E+03  0.00000000000E+00 0.  1.
          1    1    3    3  501    0 -0.10514846058E+03  0.22306723617E+03 -0.15340706026E+02  0.24708405023E+03  0.00000000000E+00 0.  1.
         21    1    1    2  502  501  0.61270010211E+01 -0.29915394038E+02  0.11389450789E+02  0.32591264646E+02  0.00000000000E+00 0.  1.
<scales pt_clust_4="550.00000" pt_clust_5="550.00000" pt_clust_6="30.53639"></scales>
<mgrwt>
<rscale>  0 0.30000000E+03</rscale>
<asrwt>  1 0.30536387E+02</asrwt>
<pdfrwt beam="1">  1        1 0.82289430E+00 0.30000000E+03</pdfrwt>
<pdfrwt beam="2">0</pdfrwt>
<totfact> 0.69993347E-04</totfact>
</mgrwt>
<clustering>
<clus scale="   30.536">  1  6  2 -1</clus>
<clus scale="  463.832">  4  5 -1 -1</clus>
<clus scale="  300.000">  1  4  2 -1</clus>
</clustering>
</event>
<event>
 6    1  0.9843879E-012  0.3000000E+03  0.7818608E-02  0.1093470E+00
          1   -1    0    0  502    0  0.00000000000E+00  0.00000000000E+00  0.24235326510E+03  0.24235326510E+03  0.00000000000E+00 0.  1.
         13   -1    0    0    0    0 -0.00000000000E+00 -0.00000000000E+00 -0.27500000000E+03  0.27500000000E+03  0.00000000000E+00 0.  1.
    9000005    2    1    2  501    0  0.39675549386E+02  0.21893052162E+02 -0.57600502414E+02  0.46562179049E+03  0.45981776711E+03 0.  0.
         13    1    3    3    0    0  0.49304159221E+02 -0.20299105429E+03 -0.10770166457E+03  0.23502322607E+03  0.00000000000E+00 0.  1.
          1    1    3    3  501    0 -0.96286098351E+01  0.22488410646E+03  0.50101162159E+02  0.23059856442E+03  0.00000000000E+00 0.  1.
         21    1    1    2  502  501 -0.39675549386E+02 -0.21893052162E+02  0.24953767510E+02  0.51731474607E+02  0.00000000000E+00 0.  1.
<scales pt_clust_4="550.00000" pt_clust_5="550.00000" pt_clust_6="45.31506"></scales>
<mgrwt>
<rscale>  0 0.30000000E+03</rscale>
<asrwt>  1 0.45315063E+02</asrwt>
<pdfrwt beam="1">  1        1 0.88128460E+00 0.30000000E+03</pdfrwt>
<pdfrwt beam="2">0</pdfrwt>
<totfact> 0.18141211E-04</totfact>
</mgrwt>
<clustering>
<clus scale="   45.315">  1  6  2 -1</clus>
<clus scale="  459.818">  4  5 -1 -1</clus>
<clus scale="  300.000">  1  4  2 -1</clus>
</clustering>
</event>
<event>
 6    1  0.9843879E-012  0.3000000E+03  0.7818608E-02  0.1093470E+00
          1   -1    0    0  502    0  0.00000000000E+00  0.00000000000E+00  0.21851860242E+03  0.21851860242E+03  0.00000000000E+00 0.  1.
         13   -1    0    0    0    0 -0.00000000000E+00 -0.00000000000E+00 -0.27500000000E+03  0.27500000000E+03  0.00000000000E+00 0.  1.
    9000005    2    1    2  501    0  0.30441412486E+02  0.69727609413E+01 -0.48481728416E+02  0.46128052406E+03  0.45766138672E+03 0.  0.
         13    1    3    3    0    0 -0.19430740378E+01  0.22436298873E+03 -0.82129941412E+02  0.23893064585E+03  0.00000000000E+00 0.  1.
          1    1    3    3  501    0  0.32384486524E+02 -0.21739022779E+03  0.33648212996E+02  0.22234987822E+03  0.00000000000E+00 0.  1.
         21    1    1    2  502  501 -0.30441412486E+02 -0.69727609413E+01 -0.79996691672E+01  0.32238078356E+02  0.00000000000E+00 0.  1.
<scales pt_clust_4="550.00000" pt_clust_5="550.00000" pt_clust_6="31.22979"></scales>
<mgrwt>
<rscale>  0 0.30000000E+03</rscale>
<asrwt>  1 0.31229793E+02</asrwt>
<pdfrwt beam="1">  1        1 0.79461310E+00 0.30000000E+03</pdfrwt>
<pdfrwt beam="2">0</pdfrwt>
<totfact> 0.11603883E-03</totfact>
</mgrwt>
<clustering>
<clus scale="   31.230">  1  6  2 -1</clus>
<clus scale="  457.661">  4  5 -1 -1</clus>
<clus scale="  300.000">  1  4  2 -1</clus>
</clustering>
</event>
<event>
 6    1  0.9843879E-012  0.3000000E+03  0.7818608E-02  0.1093470E+00
          1   -1    0    0  502    0  0.00000000000E+00  0.00000000000E+00  0.23372273537E+03  0.23372273537E+03  0.00000000000E+00 0.  1.
         13   -1    0    0    0    0 -0.00000000000E+00 -0.00000000000E+00 -0.27500000000E+03  0.27500000000E+03  0.00000000000E+00 0.  1.
    9000005    2    1    2  501    0  0.31717666287E+02  0.28152673035E+02 -0.24138427053E+02  0.46298081688E+03  0.46040198716E+03 0.  0.
         13    1    3    3    0    0 -0.68982357264E+02  0.22819436162E+03 -0.12630191826E+02  0.23872736340E+03  0.00000000000E+00 0.  1.
          3    1    3    3  501    0  0.10070002355E+03 -0.20004168859E+03 -0.11508235227E+02  0.22425345347E+03  0.00000000000E+00 0.  1.
         21    1    1    2  502  501 -0.31717666287E+02 -0.28152673035E+02 -0.17138837580E+02  0.45741918492E+02  0.00000000000E+00 0.  1.
<scales pt_clust_4="550.00000" pt_clust_5="550.00000" pt_clust_6="42.40973"></scales>
<mgrwt>
<rscale>  0 0.30000000E+03</rscale>
<asrwt>  1 0.42409729E+02</asrwt>
<pdfrwt beam="1">  1        1 0.84990086E+00 0.30000000E+03</pdfrwt>
<pdfrwt beam="2">0</pdfrwt>
<totfact> 0.39371807E-04</totfact>
</mgrwt>
<clustering>
<clus scale="   42.410">  1  6  2 -1</clus>
<clus scale="  460.402">  4  5 -1 -1</clus>
<clus scale="  300.000">  1  4  2 -1</clus>
</clustering>
</event>
<event>
 6    1  0.9843879E-012  0.3000000E+03  0.7818608E-02  0.1093470E+00
          1   -1    0    0  502    0  0.00000000000E+00  0.00000000000E+00  0.23266992643E+03  0.23266992643E+03  0.00000000000E+00 0.  1.
         13   -1    0    0    0    0 -0.00000000000E+00 -0.00000000000E+00 -0.27500000000E+03  0.27500000000E+03  0.00000000000E+00 0.  1.
    9000005    2    1    2  501    0 -0.33345719209E+02  0.90509316991E+01 -0.51205307846E+02  0.47199604049E+03  0.46793634432E+03 0.  0.
         13    1    3    3    0    0 -0.23523849248E+03  0.62266547341E+02 -0.90346728740E+02  0.25957041945E+03  0.00000000000E+00 0.  1.
          1    1    3    3  501    0  0.20189277327E+03 -0.53215615642E+02  0.39141420893E+02  0.21242562104E+03  0.00000000000E+00 0.  1.
         21    1    1    2  502  501  0.33345719209E+02 -0.90509316991E+01  0.88752342746E+01  0.35673885934E+02  0.00000000000E+00 0.  1.
<scales pt_clust_4="550.00000" pt_clust_5="550.00000" pt_clust_6="34.55223"></scales>
<mgrwt>
<rscale>  0 0.30000000E+03</rscale>
<asrwt>  1 0.34552226E+02</asrwt>
<pdfrwt beam="1">  1        1 0.84607246E+00 0.30000000E+03</pdfrwt>
<pdfrwt beam="2">0</pdfrwt>
<totfact> 0.44316146E-04</totfact>
</mgrwt>
<clustering>
<clus scale="   34.552">  1  6  2 -1</clus>
<clus scale="  467.936">  4  5 -1 -1</clus>
<clus scale="  300.000">  1  4  2 -1</clus>
</clustering>
</event>
<event>
 6    1  0.9843879E-012  0.3000000E+03  0.7818608E-02  0.1093470E+00
          1   -1    0    0  502    0  0.00000000000E+00  0.00000000000E+00  0.22647781891E+03  0.22647781891E+03  0.00000000000E+00 0.  1.
         13   -1    0    0    0    0 -0.00000000000E+00 -0.00000000000E+00 -0.27500000000E+03  0.27500000000E+03  0.00000000000E+00 0.  1.
    9000005    2    1    2  501    0 -0.14931679071E+02  0.26082875376E+02 -0.58167720651E+02  0.46991347413E+03  0.46532990235E+03 0.  0.
         13    1    3    3    0    0 -0.13109887497E+03 -0.21538594833E+02  0.16621954229E+03  0.21279041878E+03  0.00000000000E+00 0.  1.
          1    1    3    3  501    0  0.11616719589E+03  0.47621470209E+02 -0.22438726294E+03  0.25712305536E+03  0.00000000000E+00 0.  1.
         21    1    1    2  502  501  0.14931679071E+02 -0.26082875376E+02  0.96455395633E+01  0.31564344777E+02  0.00000000000E+00 0. -1.
<scales pt_clust_4="550.00000" pt_clust_5="550.00000" pt_clust_6="30.05447"></scales>
<mgrwt>
<rscale>  0 0.30000000E+03</rscale>
<asrwt>  1 0.30054474E+02</asrwt>
<pdfrwt beam="1">  1        1 0.82355571E+00 0.30000000E+03</pdfrwt>
<pdfrwt beam="2">0</pdfrwt>
<totfact> 0.69260418E-04</totfact>
</mgrwt>
<clustering>
<clus scale="   30.054">  1  6  2 -1</clus>
<clus scale="  465.330">  4  5 -1 -1</clus>
<clus scale="  300.000">  1  4  2 -1</clus>
</clustering>
</event>
<event>
 6    1  0.9843879E-012  0.3000000E+03  0.7818608E-02  0.1093470E+00
          1   -1    0    0  502    0  0.00000000000E+00  0.00000000000E+00  0.22300053652E+03  0.22300053652E+03  0.00000000000E+00 0.  1.
         13   -1    0    0    0    0 -0.00000000000E+00 -0.00000000000E+00 -0.27500000000E+03  0.27500000000E+03  0.00000000000E+00 0.  1.
    9000005    2    1    2  501    0 -0.16904846454E+02  0.28696709037E+02 -0.35678437516E+02  0.46091076932E+03  0.45831922437E+03 0.  0.
         13    1    3    3    0    0 -0.99942498393E+02  0.71442486290E+02  0.18454809567E+03  0.22169919135E+03  0.00000000000E+00 0.  1.
          1    1    3    3  501    0  0.83037651939E+02 -0.42745777253E+02 -0.22022653318E+03  0.23921157796E+03  0.00000000000E+00 0.  1.
         21    1    1    2  502  501  0.16904846454E+02 -0.28696709037E+02 -0.16321025961E+02  0.37089767208E+02  0.00000000000E+00 0. -1.
<scales pt_clust_4="550.00000" pt_clust_5="550.00000" pt_clust_6="33.30580"></scales>
<mgrwt>
<rscale>  0 0.30000000E+03</rscale>
<asrwt>  1 0.33305796E+02</asrwt>
<pdfrwt beam="1">  1        1 0.81091104E+00 0.30000000E+03</pdfrwt>
<pdfrwt beam="2">0</pdfrwt>
<totfact> 0.86599301E-04</totfact>
</mgrwt>
<clustering>
<clus scale="   33.306">  1  6  2 -1</clus>
<clus scale="  458.319">  4  5 -1 -1</clus>
<clus scale="  300.000">  1  4  2 -1</clus>
</clustering>
</event>
<event>
 6    1  0.9843879E-012  0.3000000E+03  0.7818608E-02  0.1093470E+00
          1   -1    0    0  502    0  0.00000000000E+00  0.00000000000E+00  0.22872391555E+03  0.22872391555E+03  0.00000000000E+00 0.  1.
         13   -1    0    0    0    0 -0.00000000000E+00 -0.00000000000E+00 -0.27500000000E+03  0.27500000000E+03  0.00000000000E+00 0.  1.
    9000005    2    1    2  501    0 -0.38881226737E+02 -0.55324094156E+00 -0.46937432152E+02  0.46483312938E+03  0.46081955228E+03 0.  0.
         13    1    3    3    0    0 -0.13753333564E+03  0.19448851247E+03  0.11834251895E+02  0.23849790232E+03  0.00000000000E+00 0.  1.
          3    1    3    3  501    0  0.98652108899E+02 -0.19504175341E+03 -0.58771684047E+02  0.22633522706E+03  0.00000000000E+00 0.  1.
         21    1    1    2  502  501  0.38881226737E+02  0.55324094156E+00  0.66134770538E+00  0.38890786170E+02  0.00000000000E+00 0.  1.
<scales pt_clust_4="550.00000" pt_clust_5="550.00000" pt_clust_6="38.88516"></scales>
<mgrwt>
<rscale>  0 0.30000000E+03</rscale>
<asrwt>  1 0.38885163E+02</asrwt>
<pdfrwt beam="1">  1        1 0.83172333E+00 0.30000000E+03</pdfrwt>
<pdfrwt beam="2">0</pdfrwt>
<totfact> 0.56145476E-04</totfact>
</mgrwt>
<clustering>
<clus scale="   38.885">  1  6  2 -1</clus>
<clus scale="  460.820">  4  5 -1 -1</clus>
<clus scale="  300.000">  1  4  2 -1</clus>
</clustering>
</event>
<event>
 6    1  0.9843879E-012  0.3000000E+03  0.7818608E-02  0.1093470E+00
          1   -1    0    0  502    0  0.00000000000E+00  0.00000000000E+00  0.22711955742E+03  0.22711955742E+03  0.00000000000E+00 0.  1.
         13   -1    0    0    0    0 -0.00000000000E+00 -0.00000000000E+00 -0.27500000000E+03  0.27500000000E+03  0.00000000000E+00 0.  1.
    9000005    2    1    2  501    0 -0.18306121817E+02  0.29501877975E+02 -0.64303360348E+02  0.46371139256E+03  0.45791686859E+03 0.  0.
         13    1    3    3    0    0 -0.13427064829E+03 -0.12950093830E+03 -0.15918678952E+03  0.24523363141E+03  0.00000000000E+00 0.  1.
          3    1    3    3  501    0  0.11596452647E+03  0.15900281628E+03  0.94883429176E+02  0.21847776115E+03  0.00000000000E+00 0.  1.
         21    1    1    2  502  501  0.18306121817E+02 -0.29501877975E+02  0.16422917768E+02  0.38408164862E+02  0.00000000000E+00 0.  1.
<scales pt_clust_4="550.00000" pt_clust_5="550.00000" pt_clust_6="34.71995"></scales>
<mgrwt>
<rscale>  0 0.30000000E+03</rscale>
<asrwt>  1 0.34719950E+02</asrwt>
<pdfrwt beam="1">  1        1 0.82588930E+00 0.30000000E+03</pdfrwt>
<pdfrwt beam="2">0</pdfrwt>
<totfact> 0.64233098E-04</totfact>
</mgrwt>
<clustering>
<clus scale="   34.720">  1  6  2 -1</clus>
<clus scale="  457.917">  4  5 -1 -1</clus>
<clus scale="  300.000">  1  4  2 -1</clus>
</clustering>
</event>
<event>
 6    1  0.9843879E-012  0.3000000E+03  0.7818608E-02  0.1093470E+00
          1   -1    0    0  502    0  0.00000000000E+00  0.00000000000E+00  0.22771278255E+03  0.22771278255E+03  0.00000000000E+00 0.  1.
         13   -1    0    0    0    0 -0.00000000000E+00 -0.00000000000E+00 -0.27500000000E+03  0.27500000000E+03  0.00000000000E+00 0.  1.
    9000005    2    1    2  501    0  0.19631779739E+01  0.35885467571E+02 -0.46161120716E+02  0.46675601762E+03  0.46307527473E+03 0.  0.
         13    1    3    3    0    0 -0.14285295349E+03 -0.48087536379E+02  0.14741727110E+03  0.21083460175E+03  0.00000000000E+00 0.  1.
          3    1    3    3  501    0  0.14481613146E+03  0.83973003950E+02 -0.19357839181E+03  0.25592141587E+03  0.00000000000E+00 0.  1.
         21    1    1    2  502  501 -0.19631779739E+01 -0.35885467571E+02 -0.11260967358E+01  0.35956764933E+02  0.00000000000E+00 0.  1.
<scales pt_clust_4="550.00000" pt_clust_5="550.00000" pt_clust_6="35.93913"></scales>
<mgrwt>
<rscale>  0 0.30000000E+03</rscale>
<asrwt>  1 0.35939127E+02</asrwt>
<pdfrwt beam="1">  1        1 0.82804648E+00 0.30000000E+03</pdfrwt>
<pdfrwt beam="2">0</pdfrwt>
<totfact> 0.61095062E-04</totfact>
</mgrwt>
<clustering>
<clus scale="   35.939">  1  6  2 -1</clus>
<clus scale="  463.075">  4  5 -1 -1</clus>
<clus scale="  300.000">  1  4  2 -1</clus>
</clustering>
</event>
<event>
 6    1  0.9843879E-012  0.3000000E+03  0.7818608E-02  0.1093470E+00
          1   -1    0    0  502    0  0.00000000000E+00  0.00000000000E+00  0.24467529034E+03  0.24467529034E+03  0.00000000000E+00 0.  1.
         13   -1    0    0    0    0 -0.00000000000E+00 -0.00000000000E+00 -0.27500000000E+03  0.27500000000E+03  0.00000000000E+00 0.  1.
    9000005    2    1    2  501    0 -0.46084401185E+02  0.33515173731E+02 -0.32782763903E+02  0.46263950391E+03  0.45794493344E+03 0.  0.
         13    1    3    3    0    0  0.75635966260E+02  0.21204124455E+03  0.51103205626E+02  0.23085455682E+03  0.00000000000E+00 0.  1.
          1    1    3    3  501    0 -0.12172036745E+03 -0.17852607082E+03 -0.83885969529E+02  0.23178494709E+03  0.00000000000E+00 0.  1.
         21    1    1    2  502  501  0.46084401185E+02 -0.33515173731E+02  0.24580542422E+01  0.57035786428E+02  0.00000000000E+00 0.  1.
<scales pt_clust_4="550.00000" pt_clust_5="550.00000" pt_clust_6="56.98279"></scales>
<mgrwt>
<rscale>  0 0.30000000E+03</rscale>
<asrwt>  1 0.56982795E+02</asrwt>
<pdfrwt beam="1">  1        1 0.88972833E+00 0.30000000E+03</pdfrwt>
<pdfrwt beam="2">0</pdfrwt>
<totfact> 0.13395868E-04</totfact>
</mgrwt>
<clustering>
<clus scale="   56.983">  1  6  2 -1</clus>
<clus scale="  457.945">  4  5 -1 -1</clus>
<clus scale="  300.000">  1  4  2 -1</clus>
</clustering>
</event>
<event>
 6    1  0.9843879E-012  0.3000000E+03  0.7818608E-02  0.1093470E+00
          1   -1    0    0  502    0  0.00000000000E+00  0.00000000000E+00  0.22831523002E+03  0.22831523002E+03  0.00000000000E+00 0.  1.
         13   -1    0    0    0    0 -0.00000000000E+00 -0.00000000000E+00 -0.27500000000E+03  0.27500000000E+03  0.00000000000E+00 0.  1.
    9000005    2    1    2  501    0  0.29643806188E+02  0.15983005039E+02 -0.35489657480E+02  0.46782519988E+03  0.46525980931E+03 0.  0.
         13    1    3    3    0    0  0.44568228786E+02  0.22846401017E+03  0.50385590872E+02  0.23816137119E+03  0.00000000000E+00 0.  1.
          3    1    3    3  501    0 -0.14924422598E+02 -0.21248100513E+03 -0.85875248352E+02  0.22966382869E+03  0.00000000000E+00 0.  1.
         21    1    1    2  502  501 -0.29643806188E+02 -0.15983005039E+02 -0.11195112500E+02  0.35490030139E+02  0.00000000000E+00 0.  1.
<scales pt_clust_4="550.00000" pt_clust_5="550.00000" pt_clust_6="33.67808"></scales>
<mgrwt>
<rscale>  0 0.30000000E+03</rscale>
<asrwt>  1 0.33678076E+02</asrwt>
<pdfrwt beam="1">  1        1 0.83023720E+00 0.30000000E+03</pdfrwt>
<pdfrwt beam="2">0</pdfrwt>
<totfact> 0.59263166E-04</totfact>
</mgrwt>
<clustering>
<clus scale="   33.678">  1  6  2 -1</clus>
<clus scale="  465.260">  4  5 -1 -1</clus>
<clus scale="  300.000">  1  4  2 -1</clus>
</clustering>
</event>
<event>
 6    1  0.9843879E-012  0.3000000E+03  0.7818608E-02  0.1093470E+00
          1   -1    0    0  502    0  0.00000000000E+00  0.00000000000E+00  0.23486491382E+03  0.23486491382E+03  0.00000000000E+00 0.  1.
         13   -1    0    0    0    0 -0.00000000000E+00 -0.00000000000E+00 -0.27500000000E+03  0.27500000000E+03  0.00000000000E+00 0.  1.
    9000005    2    1    2  501    0  0.17294946362E+02 -0.28159117666E+02 -0.70722219637E+02  0.46483576981E+03  0.45823422991E+03 0.  0.
         13    1    3    3    0    0 -0.13355249727E+03 -0.16599174181E+03 -0.13308099257E+03  0.25119728991E+03  0.00000000000E+00 0.  1.
          3    1    3    3  501    0  0.15084744363E+03  0.13783262414E+03  0.62358772937E+02  0.21363847989E+03  0.00000000000E+00 0.  1.
         21    1    1    2  502  501 -0.17294946362E+02  0.28159117666E+02  0.30587133456E+02  0.45029144012E+02  0.00000000000E+00 0.  1.
<scales pt_clust_4="550.00000" pt_clust_5="550.00000" pt_clust_6="33.04620"></scales>
<mgrwt>
<rscale>  0 0.30000000E+03</rscale>
<asrwt>  1 0.33046196E+02</asrwt>
<pdfrwt beam="1">  1        1 0.85405423E+00 0.30000000E+03</pdfrwt>
<pdfrwt beam="2">0</pdfrwt>
<totfact> 0.37625266E-04</totfact>
</mgrwt>
<clustering>
<clus scale="   33.046">  1  6  2 -1</clus>
<clus scale="  458.234">  4  5 -1 -1</clus>
<clus scale="  300.000">  1  4  2 -1</clus>
</clustering>
</event>
<event>
 6    1  0.9843879E-012  0.3000000E+03  0.7818608E-02  0.1093470E+00
          1   -1    0    0  502    0  0.00000000000E+00  0.00000000000E+00  0.24806851905E+03  0.24806851905E+03  0.00000000000E+00 0.  1.
         13   -1    0    0    0    0 -0.00000000000E+00 -0.00000000000E+00 -0.27500000000E+03  0.27500000000E+03  0.00000000000E+00 0.  1.
    9000005    2    1    2  501    0  0.28975414923E+02 -0.10181614867E+02 -0.24919034764E+02  0.49229044421E+03  0.49069917792E+03 0.  0.
         13    1    3    3    0    0 -0.31339493116E+02 -0.18084509965E+02  0.22866618955E+03  0.23151120831E+03  0.00000000000E+00 0.  1.
          1    1    3    3  501    0  0.60314908038E+02  0.79028950984E+01 -0.25358522432E+03  0.26077923590E+03  0.00000000000E+00 0.  1.
         21    1    1    2  502  501 -0.28975414923E+02  0.10181614867E+02 -0.20124461891E+01  0.30778074841E+02  0.00000000000E+00 0. -1.
<scales pt_clust_4="550.00000" pt_clust_5="550.00000" pt_clust_6="30.71223"></scales>
<mgrwt>
<rscale>  0 0.30000000E+03</rscale>
<asrwt>  1 0.30712227E+02</asrwt>
<pdfrwt beam="1">  1        1 0.90206734E+00 0.30000000E+03</pdfrwt>
<pdfrwt beam="2">0</pdfrwt>
<totfact> 0.10615610E-04</totfact>
</mgrwt>
<clustering>
<clus scale="   30.712">  1  6  2 -1</clus>
<clus scale="  490.699">  4  5 -1 -1</clus>
<clus scale="  300.000">  1  4  2 -1</clus>
</clustering>
</event>
<event>
 6    1  0.9843879E-012  0.3000000E+03  0.7818608E-02  0.1093470E+00
          1   -1    0    0  502    0  0.00000000000E+00  0.00000000000E+00  0.26532528647E+03  0.26532528647E+03  0.00000000000E+00 0.  1.
         13   -1    0    0    0    0 -0.00000000000E+00 -0.00000000000E+00 -0.27500000000E+03  0.27500000000E+03  0.00000000000E+00 0.  1.
    9000005    2    1    2  501    0 -0.24444858179E+02  0.49222807946E+02 -0.39629457225E+02  0.47773357309E+03  0.47290425782E+03 0.  0.
         13    1    3    3    0    0  0.14829823118E+03 -0.14812042599E+03 -0.49178379734E+02  0.21529175321E+03  0.00000000000E+00 0.  1.
          3    1    3    3  501    0 -0.17274308936E+03  0.19734323394E+03  0.95489225088E+01  0.26244181988E+03  0.00000000000E+00 0.  1.
         21    1    1    2  502  501  0.24444858179E+02 -0.49222807946E+02  0.29954743691E+02  0.62591713373E+02  0.00000000000E+00 0. -1.
<scales pt_clust_4="550.00000" pt_clust_5="550.00000" pt_clust_6="54.95849"></scales>
<mgrwt>
<rscale>  0 0.30000000E+03</rscale>
<asrwt>  1 0.54958493E+02</asrwt>
<pdfrwt beam="1">  1        1 0.96481922E+00 0.30000000E+03</pdfrwt>
<pdfrwt beam="2">0</pdfrwt>
<totfact> 0.55347485E-06</totfact>
</mgrwt>
<clustering>
<clus scale="   54.958">  1  6  2 -1</clus>
<clus scale="  472.904">  4  5 -1 -1</clus>
<clus scale="  300.000">  1  4  2 -1</clus>
</clustering>
</event>
<event>
 6    1  0.9843879E-012  0.3000000E+03  0.7818608E-02  0.1093470E+00
          1   -1    0    0  502    0  0.00000000000E+00  0.00000000000E+00  0.22088557578E+03  0.22088557578E+03  0.00000000000E+00 0.  1.
         13   -1    0    0    0    0 -0.00000000000E+00 -0.00000000000E+00 -0.27500000000E+03  0.27500000000E+03  0.00000000000E+00 0.  1.
    9000005    2    1    2  501    0 -0.21563976349E+02  0.24808017716E+02 -0.62383347234E+02  0.46199135936E+03  0.45657846127E+03 0.  0.
         13    1    3    3    0    0  0.18635812892E+02 -0.20440404338E+03  0.37676135716E+02  0.20868109084E+03  0.00000000000E+00 0.  1.
          1    1    3    3  501    0 -0.40199789241E+02  0.22921206110E+03 -0.10005948295E+03  0.25331026852E+03  0.00000000000E+00 0.  1.
         21    1    1    2  502  501  0.21563976349E+02 -0.24808017716E+02  0.82689230138E+01  0.33894216421E+02  0.00000000000E+00 0.  1.
<scales pt_clust_4="550.00000" pt_clust_5="550.00000" pt_clust_6="32.87009"></scales>
<mgrwt>
<rscale>  0 0.30000000E+03</rscale>
<asrwt>  1 0.32870090E+02</asrwt>
<pdfrwt beam="1">  1        1 0.80322028E+00 0.30000000E+03</pdfrwt>
<pdfrwt beam="2">0</pdfrwt>
<totfact> 0.99420739E-04</totfact>
</mgrwt>
<clustering>
<clus scale="   32.870">  1  6  2 -1</clus>
<clus scale="  456.578">  4  5 -1 -1</clus>
<clus scale="  300.000">  1  4  2 -1</clus>
</clustering>
</event>
<event>
 6    1  0.9843879E-012  0.3000000E+03  0.7818608E-02  0.1093470E+00
          1   -1    0    0  502    0  0.00000000000E+00  0.00000000000E+00  0.22466420713E+03  0.22466420713E+03  0.00000000000E+00 0.  1.
         13   -1    0    0    0    0 -0.00000000000E+00 -0.00000000000E+00 -0.27500000000E+03  0.27500000000E+03  0.00000000000E+00 0.  1.
    9000005    2    1    2  501    0 -0.96216458109E-01  0.36640805533E+02 -0.60073293779E+02  0.46175145451E+03  0.45635846352E+03 0.  0.
         13    1    3    3    0    0  0.10405710179E+03  0.16644106599E+03 -0.17216889743E+03  0.26109890487E+03  0.00000000000E+00 0.  1.
          1    1    3    3  501    0 -0.10415331824E+03 -0.12980026046E+03  0.11209560365E+03  0.20065254964E+03  0.00000000000E+00 0.  1.
         21    1    1    2  502  501  0.96216458109E-01 -0.36640805533E+02  0.97375009114E+01  0.37912752627E+02  0.00000000000E+00 0. -1.
<scales pt_clust_4="550.00000" pt_clust_5="550.00000" pt_clust_6="36.64093"></scales>
<mgrwt>
<rscale>  0 0.30000000E+03</rscale>
<asrwt>  1 0.36640932E+02</asrwt>
<pdfrwt beam="1">  1        1 0.81696075E+00 0.30000000E+03</pdfrwt>
<pdfrwt beam="2">0</pdfrwt>
<totfact> 0.76074978E-04</totfact>
</mgrwt>
<clustering>
<clus scale="   36.641">  1  6  2 -1</clus>
<clus scale="  456.358">  4  5 -1 -1</clus>
<clus scale="  300.000">  1  4  2 -1</clus>
</clustering>
</event>
<event>
 6    1  0.9843879E-012  0.3000000E+03  0.7818608E-02  0.1093470E+00
          1   -1    0    0  502    0  0.00000000000E+00  0.00000000000E+00  0.24700205913E+03  0.24700205913E+03  0.00000000000E+00 0.  1.
         13   -1    0    0    0    0 -0.00000000000E+00 -0.00000000000E+00 -0.27500000000E+03  0.27500000000E+03  0.00000000000E+00 0.  1.
    9000005    2    1    2  501    0 -0.11917730516E+02 -0.30657408302E+02 -0.29082614232E+02  0.48909179476E+03  0.48711710734E+03 0.  0.
         13    1    3    3    0    0 -0.18142063155E+03 -0.92253710093E+02 -0.16601489415E+03  0.26265021922E+03  0.00000000000E+00 0.  1.
          3    1    3    3  501    0  0.16950290103E+03  0.61596301790E+02  0.13693227991E+03  0.22644157554E+03  0.00000000000E+00 0.  1.
         21    1    1    2  502  501  0.11917730516E+02  0.30657408302E+02  0.10846733592E+01  0.32910264368E+02  0.00000000000E+00 0.  1.
<scales pt_clust_4="550.00000" pt_clust_5="550.00000" pt_clust_6="32.89238"></scales>
<mgrwt>
<rscale>  0 0.30000000E+03</rscale>
<asrwt>  1 0.32892385E+02</asrwt>
<pdfrwt beam="1">  1        1 0.89818931E+00 0.30000000E+03</pdfrwt>
<pdfrwt beam="2">0</pdfrwt>
<totfact> 0.11746812E-04</totfact>
</mgrwt>
<clustering>
<clus scale="   32.892">  1  6  2 -1</clus>
<clus scale="  487.117">  4  5 -1 -1</clus>
<clus scale="  300.000">  1  4  2 -1</clus>
</clustering>
</event>
<event>
 6    1  0.9843879E-012  0.3000000E+03  0.7818608E-02  0.1093470E+00
          1   -1    0    0  502    0  0.00000000000E+00  0.00000000000E+00  0.25179610490E+03  0.25179610490E+03  0.00000000000E+00 0.  1.
         13   -1    0    0    0    0 -0.00000000000E+00 -0.00000000000E+00 -0.27500000000E+03  0.27500000000E+03  0.00000000000E+00 0.  1.
    9000005    2    1    2  501    0 -0.18569421150E+02  0.51887054798E+02 -0.19027966140E+01  0.46771288685E+03  0.46445089518E+03 0.  0.
         13    1    3    3    0    0  0.17530023321E+03  0.67937776960E+02  0.13359929869E+03  0.23063929828E+03  0.00000000000E+00 0.  1.
          3    1    3    3  501    0 -0.19386965436E+03 -0.16050722162E+02 -0.13550209530E+03  0.23707358857E+03  0.00000000000E+00 0.  1.
         21    1    1    2  502  501  0.18569421150E+02 -0.51887054798E+02 -0.21301098491E+02  0.59083218043E+02  0.00000000000E+00 0.  1.
<scales pt_clust_4="550.00000" pt_clust_5="550.00000" pt_clust_6="55.10983"></scales>
<mgrwt>
<rscale>  0 0.30000000E+03</rscale>
<asrwt>  1 0.55109826E+02</asrwt>
<pdfrwt beam="1">  1        1 0.91562220E+00 0.30000000E+03</pdfrwt>
<pdfrwt beam="2">0</pdfrwt>
<totfact> 0.48280832E-05</totfact>
</mgrwt>
<clustering>
<clus scale="   55.110">  1  6  2 -1</clus>
<clus scale="  464.451">  4  5 -1 -1</clus>
<clus scale="  300.000">  1  4  2 -1</clus>
</clustering>
</event>
<event>
 6    1  0.9843879E-012  0.3000000E+03  0.7818608E-02  0.1093470E+00
          1   -1    0    0  502    0  0.00000000000E+00  0.00000000000E+00  0.24381698289E+03  0.24381698289E+03  0.00000000000E+00 0.  1.
         13   -1    0    0    0    0 -0.00000000000E+00 -0.00000000000E+00 -0.27500000000E+03  0.27500000000E+03  0.00000000000E+00 0.  1.
    9000005    2    1    2  501    0  0.14192449088E+02 -0.30700893797E+02 -0.30848365266E+02  0.48499269453E+03  0.48282742426E+03 0.  0.
         13    1    3    3    0    0  0.92477341377E+02  0.21005031300E+03 -0.32715501881E+02  0.23182643664E+03  0.00000000000E+00 0.  1.
          1    1    3    3  501    0 -0.78284892289E+02 -0.24075120680E+03  0.18671366148E+01  0.25316625789E+03  0.00000000000E+00 0.  1.
         21    1    1    2  502  501 -0.14192449088E+02  0.30700893797E+02 -0.33465184437E+00  0.33824288358E+02  0.00000000000E+00 0.  1.
<scales pt_clust_4="550.00000" pt_clust_5="550.00000" pt_clust_6="33.82263"></scales>
<mgrwt>
<rscale>  0 0.30000000E+03</rscale>
<asrwt>  1 0.33822633E+02</asrwt>
<pdfrwt beam="1">  1        1 0.88660721E+00 0.30000000E+03</pdfrwt>
<pdfrwt beam="2">0</pdfrwt>
<totfact> 0.16231296E-04</totfact>
</mgrwt>
<clustering>
<clus scale="   33.823">  1  6  2 -1</clus>
<clus scale="  482.827">  4  5 -1 -1</clus>
<clus scale="  300.000">  1  4  2 -1</clus>
</clustering>
</event>
<event>
 6    1  0.9843879E-012  0.3000000E+03  0.7818608E-02  0.1093470E+00
          1   -1    0    0  502    0  0.00000000000E+00  0.00000000000E+00  0.23521534553E+03  0.23521534553E+03  0.00000000000E+00 0.  1.
         13   -1    0    0    0    0 -0.00000000000E+00 -0.00000000000E+00 -0.27500000000E+03  0.27500000000E+03  0.00000000000E+00 0.  1.
    9000005    2    1    2  501    0 -0.29915913245E+02 -0.16942863999E+02 -0.70951227264E+02  0.46381084397E+03  0.45706060848E+03 0.  0.
         13    1    3    3    0    0 -0.94698426763E+02  0.14251049619E+03  0.11828695688E+03  0.20801162882E+03  0.00000000000E+00 0.  1.
          1    1    3    3  501    0  0.64782513518E+02 -0.15945336019E+03 -0.18923818414E+03  0.25579921515E+03  0.00000000000E+00 0.  1.
         21    1    1    2  502  501  0.29915913245E+02  0.16942863999E+02  0.31166572796E+02  0.46404501567E+02  0.00000000000E+00 0.  1.
<scales pt_clust_4="550.00000" pt_clust_5="550.00000" pt_clust_6="34.38055"></scales>
<mgrwt>
<rscale>  0 0.30000000E+03</rscale>
<asrwt>  1 0.34380554E+02</asrwt>
<pdfrwt beam="1">  1        1 0.85532853E+00 0.30000000E+03</pdfrwt>
<pdfrwt beam="2">0</pdfrwt>
<totfact> 0.36281718E-04</totfact>
</mgrwt>
<clustering>
<clus scale="   34.381">  1  6  2 -1</clus>
<clus scale="  457.061">  4  5 -1 -1</clus>
<clus scale="  300.000">  1  4  2 -1</clus>
</clustering>
</event>
<event>
 6    1  0.9843879E-012  0.3000000E+03  0.7818608E-02  0.1093470E+00
          1   -1    0    0  502    0  0.00000000000E+00  0.00000000000E+00  0.22617240335E+03  0.22617240335E+03  0.00000000000E+00 0.  1.
         13   -1    0    0    0    0 -0.00000000000E+00 -0.00000000000E+00 -0.27500000000E+03  0.27500000000E+03  0.00000000000E+00 0.  1.
    9000005    2    1    2  501    0 -0.12256035554E+00 -0.34574444397E+02 -0.56542935415E+02  0.46574736025E+03  0.46100769278E+03 0.  0.
         13    1    3    3    0    0  0.18875577882E+03 -0.10897211227E+03 -0.12531619114E+03  0.25141164065E+03  0.00000000000E+00 0.  1.
          1    1    3    3  501    0 -0.18887833918E+03  0.74397667870E+02  0.68773255726E+02  0.21433571960E+03  0.00000000000E+00 0.  1.
         21    1    1    2  502  501  0.12256035554E+00  0.34574444397E+02  0.77153387626E+01  0.35425043100E+02  0.00000000000E+00 0.  1.
<scales pt_clust_4="550.00000" pt_clust_5="550.00000" pt_clust_6="34.57466"></scales>
<mgrwt>
<rscale>  0 0.30000000E+03</rscale>
<asrwt>  1 0.34574662E+02</asrwt>
<pdfrwt beam="1">  1        1 0.82244510E+00 0.30000000E+03</pdfrwt>
<pdfrwt beam="2">0</pdfrwt>
<totfact> 0.68995919E-04</totfact>
</mgrwt>
<clustering>
<clus scale="   34.575">  1  6  2 -1</clus>
<clus scale="  461.008">  4  5 -1 -1</clus>
<clus scale="  300.000">  1  4  2 -1</clus>
</clustering>
</event>
<event>
 6    1  0.9843879E-012  0.3000000E+03  0.7818608E-02  0.1093470E+00
          1   -1    0    0  502    0  0.00000000000E+00  0.00000000000E+00  0.23048363452E+03  0.23048363452E+03  0.00000000000E+00 0.  1.
         13   -1    0    0    0    0 -0.00000000000E+00 -0.00000000000E+00 -0.27500000000E+03  0.27500000000E+03  0.00000000000E+00 0.  1.
    9000005    2    1    2  501    0  0.37204853723E+02  0.85018214754E+01 -0.55451717550E+02  0.46578396155E+03  0.46089404829E+03 0.  0.
         13    1    3    3    0    0  0.93084232443E+02  0.20273487786E+03 -0.12039156402E+03  0.25349602308E+03  0.00000000000E+00 0.  1.
          3    1    3    3  501    0 -0.55879378720E+02 -0.19423305639E+03  0.64939846469E+02  0.21228793847E+03  0.00000000000E+00 0.  1.
         21    1    1    2  502  501 -0.37204853723E+02 -0.85018214754E+01  0.10935352070E+02  0.39699672969E+02  0.00000000000E+00 0. -1.
<scales pt_clust_4="550.00000" pt_clust_5="550.00000" pt_clust_6="38.16388"></scales>
<mgrwt>
<rscale>  0 0.30000000E+03</rscale>
<asrwt>  1 0.38163885E+02</asrwt>
<pdfrwt beam="1">  1        1 0.83812231E+00 0.30000000E+03</pdfrwt>
<pdfrwt beam="2">0</pdfrwt>
<totfact> 0.50522807E-04</totfact>
</mgrwt>
<clustering>
<clus scale="   38.164">  1  6  2 -1</clus>
<clus scale="  460.894">  4  5 -1 -1</clus>
<clus scale="  300.000">  1  4  2 -1</clus>
</clustering>
</event>
<event>
 6    1  0.9843879E-012  0.3000000E+03  0.7818608E-02  0.1093470E+00
          1   -1    0    0  502    0  0.00000000000E+00  0.00000000000E+00  0.25120872469E+03  0.25120872469E+03  0.00000000000E+00 0.  1.
         13   -1    0    0    0    0 -0.00000000000E+00 -0.00000000000E+00 -0.27500000000E+03  0.27500000000E+03  0.00000000000E+00 0.  1.
    9000005    2    1    2  501    0 -0.11636898977E+02 -0.44842454650E+02 -0.66014072859E+02  0.46352676724E+03  0.45645694537E+03 0.  0.
         13    1    3    3    0    0 -0.84072303799E+02 -0.12819192086E+03 -0.22359768456E+03  0.27110375390E+03  0.00000000000E+00 0.  1.
          1    1    3    3  501    0  0.72435404822E+02  0.83349466207E+02  0.15758361170E+03  0.19242301334E+03  0.00000000000E+00 0.  1.
         21    1    1    2  502  501  0.11636898977E+02  0.44842454650E+02  0.42222797547E+02  0.62681957448E+02  0.00000000000E+00 0.  1.
<scales pt_clust_4="550.00000" pt_clust_5="550.00000" pt_clust_6="46.32778"></scales>
<mgrwt>
<rscale>  0 0.30000000E+03</rscale>
<asrwt>  1 0.46327780E+02</asrwt>
<pdfrwt beam="1">  1        1 0.91348627E+00 0.30000000E+03</pdfrwt>
<pdfrwt beam="2">0</pdfrwt>
<totfact> 0.55932370E-05</totfact>
</mgrwt>
<clustering>
<clus scale="   46.328">  1  6  2 -1</clus>
<clus scale="  456.457">  4  5 -1 -1</clus>
<clus scale="  300.000">  1  4  2 -1</clus>
</clustering>
</event>
<event>
 6    1  0.9843879E-012  0.3000000E+03  0.7818608E-02  0.1093470E+00
          1   -1    0    0  502    0  0.00000000000E+00  0.00000000000E+00  0.22884039138E+03  0.22884039138E+03  0.00000000000E+00 0.  1.
         13   -1    0    0    0    0 -0.00000000000E+00 -0.00000000000E+00 -0.27500000000E+03  0.27500000000E+03  0.00000000000E+00 0.  1.
    9000005    2    1    2  501    0  0.21429771406E+02 -0.31900116110E+02 -0.41685371912E+02  0.46515097028E+03  0.46168268585E+03 0.  0.
         13    1    3    3    0    0 -0.10798943493E+03 -0.10627994856E+03 -0.19779621796E+03  0.24915956606E+03  0.00000000000E+00 0.  1.
          3    1    3    3  501    0  0.12941920634E+03  0.74379832445E+02  0.15611084605E+03  0.21599140422E+03  0.00000000000E+00 0.  1.
         21    1    1    2  502  501 -0.21429771406E+02  0.31900116110E+02 -0.44742367109E+01  0.38689421093E+02  0.00000000000E+00 0. -1.
<scales pt_clust_4="550.00000" pt_clust_5="550.00000" pt_clust_6="38.42986"></scales>
<mgrwt>
<rscale>  0 0.30000000E+03</rscale>
<asrwt>  1 0.38429858E+02</asrwt>
<pdfrwt beam="1">  1        1 0.83214688E+00 0.30000000E+03</pdfrwt>
<pdfrwt beam="2">0</pdfrwt>
<totfact> 0.55843299E-04</totfact>
</mgrwt>
<clustering>
<clus scale="   38.430">  1  6  2 -1</clus>
<clus scale="  461.683">  4  5 -1 -1</clus>
<clus scale="  300.000">  1  4  2 -1</clus>
</clustering>
</event>
<event>
 6    1  0.9843879E-012  0.3000000E+03  0.7818608E-02  0.1093470E+00
          1   -1    0    0  502    0  0.00000000000E+00  0.00000000000E+00  0.23226002439E+03  0.23226002439E+03  0.00000000000E+00 0.  1.
         13   -1    0    0    0    0 -0.00000000000E+00 -0.00000000000E+00 -0.27500000000E+03  0.27500000000E+03  0.00000000000E+00 0.  1.
    9000005    2    1    2  501    0 -0.22885009361E+02 -0.29072806054E+02 -0.67107059789E+02  0.46295758093E+03  0.45657136634E+03 0.  0.
         13    1    3    3    0    0 -0.26616977946E+02  0.20941556722E+03  0.12595420460E+02  0.21147573838E+03  0.00000000000E+00 0.  1.
          1    1    3    3  501    0  0.37319685849E+01 -0.23848837327E+03 -0.79702480249E+02  0.25148184255E+03  0.00000000000E+00 0.  1.
         21    1    1    2  502  501  0.22885009361E+02  0.29072806054E+02  0.24367084182E+02  0.44302443464E+02  0.00000000000E+00 0. -1.
<scales pt_clust_4="550.00000" pt_clust_5="550.00000" pt_clust_6="36.99935"></scales>
<mgrwt>
<rscale>  0 0.30000000E+03</rscale>
<asrwt>  1 0.36999347E+02</asrwt>
<pdfrwt beam="1">  1        1 0.84458191E+00 0.30000000E+03</pdfrwt>
<pdfrwt beam="2">0</pdfrwt>
<totfact> 0.45094090E-04</totfact>
</mgrwt>
<clustering>
<clus scale="   36.999">  1  6  2 -1</clus>
<clus scale="  456.571">  4  5 -1 -1</clus>
<clus scale="  300.000">  1  4  2 -1</clus>
</clustering>
</event>
<event>
 6    1  0.9843879E-012  0.3000000E+03  0.7818608E-02  0.1093470E+00
          1   -1    0    0  502    0  0.00000000000E+00  0.00000000000E+00  0.24168344281E+03  0.24168344281E+03  0.00000000000E+00 0.  1.
         13   -1    0    0    0    0 -0.00000000000E+00 -0.00000000000E+00 -0.27500000000E+03  0.27500000000E+03  0.00000000000E+00 0.  1.
    9000005    2    1    2  501    0  0.10841063214E+02 -0.30398121493E+02 -0.37315888660E+02  0.48416315538E+03  0.48164292899E+03 0.  0.
         13    1    3    3    0    0 -0.22518433199E+03 -0.13287087456E+01 -0.86662480754E+02  0.24128848794E+03  0.00000000000E+00 0.  1.
          1    1    3    3  501    0  0.23602539520E+03 -0.29069412748E+02  0.49346592094E+02  0.24287466745E+03  0.00000000000E+00 0.  1.
         21    1    1    2  502  501 -0.10841063214E+02  0.30398121493E+02  0.39993314677E+01  0.32520287423E+02  0.00000000000E+00 0.  1.
<scales pt_clust_4="550.00000" pt_clust_5="550.00000" pt_clust_6="32.27343"></scales>
<mgrwt>
<rscale>  0 0.30000000E+03</rscale>
<asrwt>  1 0.32273432E+02</asrwt>
<pdfrwt beam="1">  1        1 0.87884888E+00 0.30000000E+03</pdfrwt>
<pdfrwt beam="2">0</pdfrwt>
<totfact> 0.20694195E-04</totfact>
</mgrwt>
<clustering>
<clus scale="   32.273">  1  6  2 -1</clus>
<clus scale="  481.643">  4  5 -1 -1</clus>
<clus scale="  300.000">  1  4  2 -1</clus>
</clustering>
</event>
<event>
 6    1  0.9843879E-012  0.3000000E+03  0.7818608E-02  0.1093470E+00
          1   -1    0    0  502    0  0.00000000000E+00  0.00000000000E+00  0.22081848993E+03  0.22081848993E+03  0.00000000000E+00 0.  1.
         13   -1    0    0    0    0 -0.00000000000E+00 -0.00000000000E+00 -0.27500000000E+03  0.27500000000E+03  0.00000000000E+00 0.  1.
    9000005    2    1    2  501    0 -0.19117151058E+01 -0.29941741181E+02 -0.60005250349E+02  0.46525579256E+03  0.46039348380E+03 0.  0.
         13    1    3    3    0    0  0.20590229053E+03 -0.63634857417E+02  0.58972563049E+02  0.22343435617E+03  0.00000000000E+00 0.  1.
          1    1    3    3  501    0 -0.20781400563E+03  0.33693116235E+02 -0.11897781340E+03  0.24182143640E+03  0.00000000000E+00 0.  1.
         21    1    1    2  502  501  0.19117151058E+01  0.29941741181E+02  0.58237402810E+01  0.30562697369E+02  0.00000000000E+00 0. -1.
<scales pt_clust_4="550.00000" pt_clust_5="550.00000" pt_clust_6="30.00271"></scales>
<mgrwt>
<rscale>  0 0.30000000E+03</rscale>
<asrwt>  1 0.30002709E+02</asrwt>
<pdfrwt beam="1">  1        1 0.80297633E+00 0.30000000E+03</pdfrwt>
<pdfrwt beam="2">0</pdfrwt>
<totfact> 0.10158771E-03</totfact>
</mgrwt>
<clustering>
<clus scale="   30.003">  1  6  2 -1</clus>
<clus scale="  460.393">  4  5 -1 -1</clus>
<clus scale="  300.000">  1  4  2 -1</clus>
</clustering>
</event>
<event>
 6    1  0.9843879E-012  0.3000000E+03  0.7818608E-02  0.1093470E+00
          1   -1    0    0  502    0  0.00000000000E+00  0.00000000000E+00  0.22525042437E+03  0.22525042437E+03  0.00000000000E+00 0.  1.
         13   -1    0    0    0    0 -0.00000000000E+00 -0.00000000000E+00 -0.27500000000E+03  0.27500000000E+03  0.00000000000E+00 0.  1.
    9000005    2    1    2  501    0 -0.32488538198E+02  0.14560830368E+02 -0.46633509725E+02  0.46451203098E+03  0.46079194850E+03 0.  0.
         13    1    3    3    0    0  0.28663828593E+02  0.18731546582E+03 -0.16086311892E+03  0.24856717771E+03  0.00000000000E+00 0.  1.
          3    1    3    3  501    0 -0.61152366791E+02 -0.17275463545E+03  0.11422960920E+03  0.21594485327E+03  0.00000000000E+00 0.  1.
         21    1    1    2  502  501  0.32488538198E+02 -0.14560830368E+02 -0.31160659070E+01  0.35738393388E+02  0.00000000000E+00 0.  1.
<scales pt_clust_4="550.00000" pt_clust_5="550.00000" pt_clust_6="35.60229"></scales>
<mgrwt>
<rscale>  0 0.30000000E+03</rscale>
<asrwt>  1 0.35602288E+02</asrwt>
<pdfrwt beam="1">  1        1 0.81909245E+00 0.30000000E+03</pdfrwt>
<pdfrwt beam="2">0</pdfrwt>
<totfact> 0.73406138E-04</totfact>
</mgrwt>
<clustering>
<clus scale="   35.602">  1  6  2 -1</clus>
<clus scale="  460.792">  4  5 -1 -1</clus>
<clus scale="  300.000">  1  4  2 -1</clus>
</clustering>
</event>
<event>
 6    1  0.9843879E-012  0.3000000E+03  0.7818608E-02  0.1093470E+00
          1   -1    0    0  502    0  0.00000000000E+00  0.00000000000E+00  0.26329856648E+03  0.26329856648E+03  0.00000000000E+00 0.  1.
         13   -1    0    0    0    0 -0.00000000000E+00 -0.00000000000E+00 -0.27500000000E+03  0.27500000000E+03  0.00000000000E+00 0.  1.
    9000005    2    1    2  501    0 -0.43401729937E+01  0.34608278702E+02 -0.18753912867E+02  0.50271335155E+03  0.50115110947E+03 0.  0.
         13    1    3    3    0    0 -0.25007002205E+03  0.22988870416E+02  0.26717625122E+02  0.25254175018E+03  0.00000000000E+00 0.  1.
          1    1    3    3  501    0  0.24572984906E+03  0.11619408286E+02 -0.45471537989E+02  0.25017160137E+03  0.00000000000E+00 0.  1.
         21    1    1    2  502  501  0.43401729937E+01 -0.34608278702E+02  0.70524793458E+01  0.35585214925E+02  0.00000000000E+00 0.  1.
<scales pt_clust_4="550.00000" pt_clust_5="550.00000" pt_clust_6="34.87936"></scales>
<mgrwt>
<rscale>  0 0.30000000E+03</rscale>
<asrwt>  1 0.34879364E+02</asrwt>
<pdfrwt beam="1">  1        1 0.95744933E+00 0.30000000E+03</pdfrwt>
<pdfrwt beam="2">0</pdfrwt>
<totfact> 0.86125094E-06</totfact>
</mgrwt>
<clustering>
<clus scale="   34.879">  1  6  2 -1</clus>
<clus scale="  501.151">  4  5 -1 -1</clus>
<clus scale="  300.000">  1  4  2 -1</clus>
</clustering>
</event>
<event>
 6    1  0.9843879E-012  0.3000000E+03  0.7818608E-02  0.1093470E+00
          1   -1    0    0  502    0  0.00000000000E+00  0.00000000000E+00  0.22784204390E+03  0.22784204390E+03  0.00000000000E+00 0.  1.
         13   -1    0    0    0    0 -0.00000000000E+00 -0.00000000000E+00 -0.27500000000E+03  0.27500000000E+03  0.00000000000E+00 0.  1.
    9000005    2    1    2  501    0  0.29237307125E+02 -0.90594162198E+01 -0.54876740831E+02  0.47127508668E+03  0.46706729439E+03 0.  0.
         13    1    3    3    0    0  0.18794325153E+03 -0.68491183220E+02  0.11548536582E+03  0.23097743979E+03  0.00000000000E+00 0.  1.
          3    1    3    3  501    0 -0.15870594441E+03  0.59431767000E+02 -0.17036210665E+03  0.24029764689E+03  0.00000000000E+00 0.  1.
         21    1    1    2  502  501 -0.29237307125E+02  0.90594162198E+01  0.77187847280E+01  0.31566957215E+02  0.00000000000E+00 0.  1.
<scales pt_clust_4="550.00000" pt_clust_5="550.00000" pt_clust_6="30.60871"></scales>
<mgrwt>
<rscale>  0 0.30000000E+03</rscale>
<asrwt>  1 0.30608710E+02</asrwt>
<pdfrwt beam="1">  1        1 0.82851652E+00 0.30000000E+03</pdfrwt>
<pdfrwt beam="2">0</pdfrwt>
<totfact> 0.62391967E-04</totfact>
</mgrwt>
<clustering>
<clus scale="   30.609">  1  6  2 -1</clus>
<clus scale="  467.067">  4  5 -1 -1</clus>
<clus scale="  300.000">  1  4  2 -1</clus>
</clustering>
</event>
<event>
 6    1  0.9843879E-012  0.3000000E+03  0.7818608E-02  0.1093470E+00
          1   -1    0    0  502    0  0.00000000000E+00  0.00000000000E+00  0.22859061818E+03  0.22859061818E+03  0.00000000000E+00 0.  1.
         13   -1    0    0    0    0 -0.00000000000E+00 -0.00000000000E+00 -0.27500000000E+03  0.27500000000E+03  0.00000000000E+00 0.  1.
    9000005    2    1    2  501    0 -0.32165145324E+02 -0.13701934352E+02 -0.55118639867E+02  0.46756020388E+03  0.46298179253E+03 0.  0.
         13    1    3    3    0    0 -0.10492040698E+03 -0.11646856453E+03  0.15637712858E+03  0.22142047030E+03  0.00000000000E+00 0.  1.
          3    1    3    3  501    0  0.72755261660E+02  0.10276663018E+03 -0.21149576845E+03  0.24613973358E+03  0.00000000000E+00 0.  1.
         21    1    1    2  502  501  0.32165145324E+02  0.13701934352E+02  0.87092580496E+01  0.36030414298E+02  0.00000000000E+00 0. -1.
<scales pt_clust_4="550.00000" pt_clust_5="550.00000" pt_clust_6="34.96197"></scales>
<mgrwt>
<rscale>  0 0.30000000E+03</rscale>
<asrwt>  1 0.34961973E+02</asrwt>
<pdfrwt beam="1">  1        1 0.83123861E+00 0.30000000E+03</pdfrwt>
<pdfrwt beam="2">0</pdfrwt>
<totfact> 0.57766983E-04</totfact>
</mgrwt>
<clustering>
<clus scale="   34.962">  1  6  2 -1</clus>
<clus scale="  462.982">  4  5 -1 -1</clus>
<clus scale="  300.000">  1  4  2 -1</clus>
</clustering>
</event>
<event>
 6    1  0.9843879E-012  0.3000000E+03  0.7818608E-02  0.1093470E+00
          1   -1    0    0  502    0  0.00000000000E+00  0.00000000000E+00  0.25755439532E+03  0.25755439532E+03  0.00000000000E+00 0.  1.
         13   -1    0    0    0    0 -0.00000000000E+00 -0.00000000000E+00 -0.27500000000E+03  0.27500000000E+03  0.00000000000E+00 0.  1.
    9000005    2    1    2  501    0  0.24407599512E+02  0.21717340368E+02 -0.22550116386E+02  0.49948734485E+03  0.49790734694E+03 0.  0.
         13    1    3    3    0    0 -0.19631211431E+03  0.86469482113E+02  0.10242139735E+03  0.23770898216E+03  0.00000000000E+00 0.  1.
          1    1    3    3  501    0  0.22071971382E+03 -0.64752141745E+02 -0.12497151374E+03  0.26177836270E+03  0.00000000000E+00 0.  1.
         21    1    1    2  502  501 -0.24407599512E+02 -0.21717340368E+02  0.51045117013E+01  0.33067050463E+02  0.00000000000E+00 0.  1.
<scales pt_clust_4="550.00000" pt_clust_5="550.00000" pt_clust_6="32.67069"></scales>
<mgrwt>
<rscale>  0 0.30000000E+03</rscale>
<asrwt>  1 0.32670687E+02</asrwt>
<pdfrwt beam="1">  1        1 0.93656144E+00 0.30000000E+03</pdfrwt>
<pdfrwt beam="2">0</pdfrwt>
<totfact> 0.21826659E-05</totfact>
</mgrwt>
<clustering>
<clus scale="   32.671">  1  6  2 -1</clus>
<clus scale="  497.907">  4  5 -1 -1</clus>
<clus scale="  300.000">  1  4  2 -1</clus>
</clustering>
</event>
<event>
 6    1  0.9843879E-012  0.3000000E+03  0.7818608E-02  0.1093470E+00
          1   -1    0    0  502    0  0.00000000000E+00  0.00000000000E+00  0.23797074060E+03  0.23797074060E+03  0.00000000000E+00 0.  1.
         13   -1    0    0    0    0 -0.00000000000E+00 -0.00000000000E+00 -0.27500000000E+03  0.27500000000E+03  0.00000000000E+00 0.  1.
    9000005    2    1    2  501    0 -0.31174803082E+02 -0.19963910940E+02 -0.65046945126E+02  0.46654427400E+03  0.46050193099E+03 0.  0.
         13    1    3    3    0    0  0.66451125210E+02 -0.13785576395E+03 -0.20724148188E+03  0.25762180713E+03  0.00000000000E+00 0.  1.
          1    1    3    3  501    0 -0.97625928292E+02  0.11789185301E+03  0.14219453676E+03  0.20892246687E+03  0.00000000000E+00 0.  1.
         21    1    1    2  502  501  0.31174803082E+02  0.19963910940E+02  0.28017685723E+02  0.46426466595E+02  0.00000000000E+00 0. -1.
<scales pt_clust_4="550.00000" pt_clust_5="550.00000" pt_clust_6="37.01927"></scales>
<mgrwt>
<rscale>  0 0.30000000E+03</rscale>
<asrwt>  1 0.37019266E+02</asrwt>
<pdfrwt beam="1">  1        1 0.86534815E+00 0.30000000E+03</pdfrwt>
<pdfrwt beam="2">0</pdfrwt>
<totfact> 0.28030930E-04</totfact>
</mgrwt>
<clustering>
<clus scale="   37.019">  1  6  2 -1</clus>
<clus scale="  460.502">  4  5 -1 -1</clus>
<clus scale="  300.000">  1  4  2 -1</clus>
</clustering>
</event>
<event>
 6    1  0.9843879E-012  0.3000000E+03  0.7818608E-02  0.1093470E+00
          1   -1    0    0  502    0  0.00000000000E+00  0.00000000000E+00  0.21873377807E+03  0.21873377807E+03  0.00000000000E+00 0.  1.
         13   -1    0    0    0    0 -0.00000000000E+00 -0.00000000000E+00 -0.27500000000E+03  0.27500000000E+03  0.00000000000E+00 0.  1.
    9000005    2    1    2  501    0  0.50401855020E+01 -0.30221171088E+02 -0.61201701712E+02  0.46270022183E+03  0.45761023190E+03 0.  0.
         13    1    3    3    0    0 -0.14915331637E+03  0.70496655353E+02  0.12025693458E+03  0.20415244430E+03  0.00000000000E+00 0.  1.
          3    1    3    3  501    0  0.15419350187E+03 -0.10071782644E+03 -0.18145863629E+03  0.25854777753E+03  0.00000000000E+00 0.  1.
         21    1    1    2  502  501 -0.50401855020E+01  0.30221171088E+02  0.49354797784E+01  0.31033556233E+02  0.00000000000E+00 0.  1.
<scales pt_clust_4="550.00000" pt_clust_5="550.00000" pt_clust_6="30.63858"></scales>
<mgrwt>
<rscale>  0 0.30000000E+03</rscale>
<asrwt>  1 0.30638581E+02</asrwt>
<pdfrwt beam="1">  1        1 0.79539556E+00 0.30000000E+03</pdfrwt>
<pdfrwt beam="2">0</pdfrwt>
<totfact> 0.11490636E-03</totfact>
</mgrwt>
<clustering>
<clus scale="   30.639">  1  6  2 -1</clus>
<clus scale="  457.610">  4  5 -1 -1</clus>
<clus scale="  300.000">  1  4  2 -1</clus>
</clustering>
</event>
<event>
 6    1  0.9843879E-012  0.3000000E+03  0.7818608E-02  0.1093470E+00
          1   -1    0    0  502    0  0.00000000000E+00  0.00000000000E+00  0.24760397454E+03  0.24760397454E+03  0.00000000000E+00 0.  1.
         13   -1    0    0    0    0 -0.00000000000E+00 -0.00000000000E+00 -0.27500000000E+03  0.27500000000E+03  0.00000000000E+00 0.  1.
    9000005    2    1    2  501    0  0.32793078982E+02  0.29767465627E+02 -0.66972687348E+02  0.46320868680E+03  0.45619673239E+03 0.  0.
         13    1    3    3    0    0  0.15119671722E+02  0.41481864557E+02  0.19522487723E+03  0.20015519541E+03  0.00000000000E+00 0.  1.
          1    1    3    3  501    0  0.17673407260E+02 -0.11714398930E+02 -0.26219756458E+03  0.26305349140E+03  0.00000000000E+00 0.  1.
         21    1    1    2  502  501 -0.32793078982E+02 -0.29767465627E+02  0.39576661885E+02  0.59395287733E+02  0.00000000000E+00 0. -1.
<scales pt_clust_4="550.00000" pt_clust_5="550.00000" pt_clust_6="44.28869"></scales>
<mgrwt>
<rscale>  0 0.30000000E+03</rscale>
<asrwt>  1 0.44288690E+02</asrwt>
<pdfrwt beam="1">  1        1 0.90037809E+00 0.30000000E+03</pdfrwt>
<pdfrwt beam="2">0</pdfrwt>
<totfact> 0.10462137E-04</totfact>
</mgrwt>
<clustering>
<clus scale="   44.289">  1  6  2 -1</clus>
<clus scale="  456.197">  4  5 -1 -1</clus>
<clus scale="  300.000">  1  4  2 -1</clus>
</clustering>
</event>
<event>
 6    1  0.9843879E-012  0.3000000E+03  0.7818608E-02  0.1093470E+00
          1   -1    0    0  502    0  0.00000000000E+00  0.00000000000E+00  0.22349615049E+03  0.22349615049E+03  0.00000000000E+00 0.  1.
         13   -1    0    0    0    0 -0.00000000000E+00 -0.00000000000E+00 -0.27500000000E+03  0.27500000000E+03  0.00000000000E+00 0.  1.
    9000005    2    1    2  501    0 -0.28716874881E+02  0.11815519053E+02 -0.43748281951E+02  0.46648967894E+03  0.46339447881E+03 0.  0.
         13    1    3    3    0    0 -0.15703091861E+03  0.11417340838E+03 -0.17106466138E+03  0.25876127020E+03  0.00000000000E+00 0.  1.
          1    1    3    3  501    0  0.12831404373E+03 -0.10235788933E+03  0.12731637943E+03  0.20772840874E+03  0.00000000000E+00 0.  1.
         21    1    1    2  502  501  0.28716874881E+02 -0.11815519053E+02 -0.77555675543E+01  0.32006471557E+02  0.00000000000E+00 0.  1.
<scales pt_clust_4="550.00000" pt_clust_5="550.00000" pt_clust_6="31.05264"></scales>
<mgrwt>
<rscale>  0 0.30000000E+03</rscale>
<asrwt>  1 0.31052638E+02</asrwt>
<pdfrwt beam="1">  1        1 0.81271327E+00 0.30000000E+03</pdfrwt>
<pdfrwt beam="2">0</pdfrwt>
<totfact> 0.84933346E-04</totfact>
</mgrwt>
<clustering>
<clus scale="   31.053">  1  6  2 -1</clus>
<clus scale="  463.394">  4  5 -1 -1</clus>
<clus scale="  300.000">  1  4  2 -1</clus>
</clustering>
</event>
<event>
 6    1  0.9843879E-012  0.3000000E+03  0.7818608E-02  0.1093470E+00
          1   -1    0    0  502    0  0.00000000000E+00  0.00000000000E+00  0.23319214307E+03  0.23319214307E+03  0.00000000000E+00 0.  1.
         13   -1    0    0    0    0 -0.00000000000E+00 -0.00000000000E+00 -0.27500000000E+03  0.27500000000E+03  0.00000000000E+00 0.  1.
    9000005    2    1    2  501    0  0.35942301135E+02 -0.13880812691E+02 -0.51866848491E+02  0.46837117770E+03  0.46389316028E+03 0.  0.
         13    1    3    3    0    0  0.63394021685E+01  0.22484444731E+03 -0.24224620821E+02  0.22623449286E+03  0.00000000000E+00 0.  1.
          1    1    3    3  501    0  0.29602898966E+02 -0.23872526000E+03 -0.27642227670E+02  0.24213668483E+03  0.00000000000E+00 0.  1.
         21    1    1    2  502  501 -0.35942301135E+02  0.13880812691E+02  0.10058991556E+02  0.39820965369E+02  0.00000000000E+00 0. -1.
<scales pt_clust_4="550.00000" pt_clust_5="550.00000" pt_clust_6="38.52955"></scales>
<mgrwt>
<rscale>  0 0.30000000E+03</rscale>
<asrwt>  1 0.38529547E+02</asrwt>
<pdfrwt beam="1">  1        1 0.84797143E+00 0.30000000E+03</pdfrwt>
<pdfrwt beam="2">0</pdfrwt>
<totfact> 0.41748866E-04</totfact>
</mgrwt>
<clustering>
<clus scale="   38.530">  1  6  2 -1</clus>
<clus scale="  463.893">  4  5 -1 -1</clus>
<clus scale="  300.000">  1  4  2 -1</clus>
</clustering>
</event>
<event>
 6    1  0.9843879E-012  0.3000000E+03  0.7818608E-02  0.1093470E+00
          1   -1    0    0  502    0  0.00000000000E+00  0.00000000000E+00  0.23319730949E+03  0.23319730949E+03  0.00000000000E+00 0.  1.
         13   -1    0    0    0    0 -0.00000000000E+00 -0.00000000000E+00 -0.27500000000E+03  0.27500000000E+03  0.00000000000E+00 0.  1.
    9000005    2    1    2  501    0 -0.95845820792E+01  0.32149494646E+02 -0.65141530103E+02  0.46732977160E+03  0.46154982641E+03 0.  0.
         13    1    3    3    0    0  0.80056596991E+02 -0.19214077650E+03 -0.85296175049E+02  0.22495015936E+03  0.00000000000E+00 0.  1.
          3    1    3    3  501    0 -0.89641179070E+02  0.22429027115E+03  0.20154644946E+02  0.24237961224E+03  0.00000000000E+00 0.  1.
         21    1    1    2  502  501  0.95845820792E+01 -0.32149494646E+02  0.23338839593E+02  0.40867537890E+02  0.00000000000E+00 0. -1.
<scales pt_clust_4="550.00000" pt_clust_5="550.00000" pt_clust_6="33.54779"></scales>
<mgrwt>
<rscale>  0 0.30000000E+03</rscale>
<asrwt>  1 0.33547790E+02</asrwt>
<pdfrwt beam="1">  1        1 0.84799022E+00 0.30000000E+03</pdfrwt>
<pdfrwt beam="2">0</pdfrwt>
<totfact> 0.42821807E-04</totfact>
</mgrwt>
<clustering>
<clus scale="   33.548">  1  6  2 -1</clus>
<clus scale="  461.550">  4  5 -1 -1</clus>
<clus scale="  300.000">  1  4  2 -1</clus>
</clustering>
</event>
<event>
 6    1  0.9843879E-012  0.3000000E+03  0.7818608E-02  0.1093470E+00
          1   -1    0    0  502    0  0.00000000000E+00  0.00000000000E+00  0.23573049177E+03  0.23573049177E+03  0.00000000000E+00 0.  1.
         13   -1    0    0    0    0 -0.00000000000E+00 -0.00000000000E+00 -0.27500000000E+03  0.27500000000E+03  0.00000000000E+00 0.  1.
    9000005    2    1    2  501    0 -0.29678002550E+02  0.10820666598E+02 -0.63641298213E+02  0.47083243658E+03  0.46544075653E+03 0.  0.
         13    1    3    3    0    0  0.75531229037E+02  0.20379886721E+03 -0.11387595416E+03  0.24537049083E+03  0.00000000000E+00 0.  1.
          3    1    3    3  501    0 -0.10520923159E+03 -0.19297820061E+03  0.50234655948E+02  0.22546194575E+03  0.00000000000E+00 0.  1.
         21    1    1    2  502  501  0.29678002550E+02 -0.10820666598E+02  0.24371789979E+02  0.39898055188E+02  0.00000000000E+00 0.  1.
<scales pt_clust_4="550.00000" pt_clust_5="550.00000" pt_clust_6="31.58909"></scales>
<mgrwt>
<rscale>  0 0.30000000E+03</rscale>
<asrwt>  1 0.31589091E+02</asrwt>
<pdfrwt beam="1">  1        1 0.85720179E+00 0.30000000E+03</pdfrwt>
<pdfrwt beam="2">0</pdfrwt>
<totfact> 0.35288098E-04</totfact>
</mgrwt>
<clustering>
<clus scale="   31.589">  1  6  2 -1</clus>
<clus scale="  465.441">  4  5 -1 -1</clus>
<clus scale="  300.000">  1  4  2 -1</clus>
</clustering>
</event>
<event>
 6    1  0.9843879E-012  0.3000000E+03  0.7818608E-02  0.1093470E+00
          1   -1    0    0  502    0  0.00000000000E+00  0.00000000000E+00  0.24312527780E+03  0.24312527780E+03  0.00000000000E+00 0.  1.
         13   -1    0    0    0    0 -0.00000000000E+00 -0.00000000000E+00 -0.27500000000E+03  0.27500000000E+03  0.00000000000E+00 0.  1.
    9000005    2    1    2  501    0 -0.37420479303E+02  0.30548031522E+02 -0.51595034539E+02  0.46594898797E+03  0.46055720307E+03 0.  0.
         13    1    3    3    0    0  0.16158290519E+03  0.12707245213E+03 -0.11541570453E+03  0.23574823052E+03  0.00000000000E+00 0.  1.
          1    1    3    3  501    0 -0.19900338450E+03 -0.96524420606E+02  0.63820669993E+02  0.23020075745E+03  0.00000000000E+00 0.  1.
         21    1    1    2  502  501  0.37420479303E+02 -0.30548031522E+02  0.19720312337E+02  0.52176289824E+02  0.00000000000E+00 0.  1.
<scales pt_clust_4="550.00000" pt_clust_5="550.00000" pt_clust_6="48.30605"></scales>
<mgrwt>
<rscale>  0 0.30000000E+03</rscale>
<asrwt>  1 0.48306050E+02</asrwt>
<pdfrwt beam="1">  1        1 0.88409192E+00 0.30000000E+03</pdfrwt>
<pdfrwt beam="2">0</pdfrwt>
<totfact> 0.16468859E-04</totfact>
</mgrwt>
<clustering>
<clus scale="   48.306">  1  6  2 -1</clus>
<clus scale="  460.557">  4  5 -1 -1</clus>
<clus scale="  300.000">  1  4  2 -1</clus>
</clustering>
</event>
<event>
 6    1  0.9843879E-012  0.3000000E+03  0.7818608E-02  0.1093470E+00
          1   -1    0    0  502    0  0.00000000000E+00  0.00000000000E+00  0.22537028220E+03  0.22537028220E+03  0.00000000000E+00 0.  1.
         13   -1    0    0    0    0 -0.00000000000E+00 -0.00000000000E+00 -0.27500000000E+03  0.27500000000E+03  0.00000000000E+00 0.  1.
    9000005    2    1    2  501    0  0.21201468728E+02  0.21387158064E+02 -0.64568554672E+02  0.46675359507E+03  0.46128397702E+03 0.  0.
         13    1    3    3    0    0 -0.88656144089E+02  0.14399229193E+03  0.12897355277E+03  0.21266844931E+03  0.00000000000E+00 0.  1.
          1    1    3    3  501    0  0.10985761282E+03 -0.12260513387E+03 -0.19354210744E+03  0.25408514576E+03  0.00000000000E+00 0.  1.
         21    1    1    2  502  501 -0.21201468728E+02 -0.21387158064E+02  0.14938836874E+02  0.33616687127E+02  0.00000000000E+00 0.  1.
<scales pt_clust_4="550.00000" pt_clust_5="550.00000" pt_clust_6="30.11499"></scales>
<mgrwt>
<rscale>  0 0.30000000E+03</rscale>
<asrwt>  1 0.30114993E+02</asrwt>
<pdfrwt beam="1">  1        1 0.81952830E+00 0.30000000E+03</pdfrwt>
<pdfrwt beam="2">0</pdfrwt>
<totfact> 0.75122166E-04</totfact>
</mgrwt>
<clustering>
<clus scale="   30.115">  1  6  2 -1</clus>
<clus scale="  461.284">  4  5 -1 -1</clus>
<clus scale="  300.000">  1  4  2 -1</clus>
</clustering>
</event>
<event>
 6    1  0.9843879E-012  0.3000000E+03  0.7818608E-02  0.1093470E+00
          1   -1    0    0  502    0  0.00000000000E+00  0.00000000000E+00  0.24341225131E+03  0.24341225131E+03  0.00000000000E+00 0.  1.
         13   -1    0    0    0    0 -0.00000000000E+00 -0.00000000000E+00 -0.27500000000E+03  0.27500000000E+03  0.00000000000E+00 0.  1.
    9000005    2    1    2  501    0  0.32726920238E+02 -0.90033113975E+01 -0.51113235811E+02  0.47925416694E+03  0.47531030151E+03 0.  0.
         13    1    3    3    0    0  0.22337829279E+03  0.74567402369E+02 -0.11422257709E+03  0.26173451492E+03  0.00000000000E+00 0.  1.
          1    1    3    3  501    0 -0.19065137255E+03 -0.83570713766E+02  0.63109341282E+02  0.21751965201E+03  0.00000000000E+00 0.  1.
         21    1    1    2  502  501 -0.32726920238E+02  0.90033113975E+01  0.19525487116E+02  0.39158084370E+02  0.00000000000E+00 0. -1.
<scales pt_clust_4="550.00000" pt_clust_5="550.00000" pt_clust_6="33.94276"></scales>
<mgrwt>
<rscale>  0 0.30000000E+03</rscale>
<asrwt>  1 0.33942760E+02</asrwt>
<pdfrwt beam="1">  1        1 0.88513546E+00 0.30000000E+03</pdfrwt>
<pdfrwt beam="2">0</pdfrwt>
<totfact> 0.16995894E-04</totfact>
</mgrwt>
<clustering>
<clus scale="   33.943">  1  6  2 -1</clus>
<clus scale="  475.310">  4  5 -1 -1</clus>
<clus scale="  300.000">  1  4  2 -1</clus>
</clustering>
</event>
<event>
 6    1  0.9843879E-012  0.3000000E+03  0.7818608E-02  0.1093470E+00
          1   -1    0    0  502    0  0.00000000000E+00  0.00000000000E+00  0.23634696272E+03  0.23634696272E+03  0.00000000000E+00 0.  1.
         13   -1    0    0    0    0 -0.00000000000E+00 -0.00000000000E+00 -0.27500000000E+03  0.27500000000E+03  0.00000000000E+00 0.  1.
    9000005    2    1    2  501    0 -0.34529966778E+02 -0.60095735481E+01 -0.14620919785E+02  0.46885018341E+03  0.46730962927E+03 0.  0.
         13    1    3    3    0    0  0.10686947010E+03  0.15677739971E+03 -0.12440740516E+03  0.22688640144E+03  0.00000000000E+00 0.  1.
          1    1    3    3  501    0 -0.14139943688E+03 -0.16278697326E+03  0.10978648537E+03  0.24196378197E+03  0.00000000000E+00 0.  1.
         21    1    1    2  502  501  0.34529966778E+02  0.60095735481E+01 -0.24032117499E+02  0.42496779306E+02  0.00000000000E+00 0.  1.
<scales pt_clust_4="550.00000" pt_clust_5="550.00000" pt_clust_6="35.04903"></scales>
<mgrwt>
<rscale>  0 0.30000000E+03</rscale>
<asrwt>  1 0.35049034E+02</asrwt>
<pdfrwt beam="1">  1        1 0.85944350E+00 0.30000000E+03</pdfrwt>
<pdfrwt beam="2">0</pdfrwt>
<totfact> 0.32781878E-04</totfact>
</mgrwt>
<clustering>
<clus scale="   35.049">  1  6  2 -1</clus>
<clus scale="  467.310">  4  5 -1 -1</clus>
<clus scale="  300.000">  1  4  2 -1</clus>
</clustering>
</event>
<event>
 6    1  0.9843879E-012  0.3000000E+03  0.7818608E-02  0.1093470E+00
          1   -1    0    0  502    0  0.00000000000E+00  0.00000000000E+00  0.24961117849E+03  0.24961117849E+03  0.00000000000E+00 0.  1.
         13   -1    0    0    0    0 -0.00000000000E+00 -0.00000000000E+00 -0.27500000000E+03  0.27500000000E+03  0.00000000000E+00 0.  1.
    9000005    2    1    2  501    0  0.41621267453E+02 -0.22554364221E+02 -0.53037123992E+02  0.46978912198E+03  0.46437899754E+03 0.  0.
         13    1    3    3    0    0  0.15146843174E+02 -0.21069919224E+03  0.92349625061E+02  0.23054723967E+03  0.00000000000E+00 0.  1.
          1    1    3    3  501    0  0.26474424279E+02  0.18814482802E+03 -0.14538674905E+03  0.23924188231E+03  0.00000000000E+00 0.  1.
         21    1    1    2  502  501 -0.41621267453E+02  0.22554364221E+02  0.27648302480E+02  0.54822056509E+02  0.00000000000E+00 0.  1.
<scales pt_clust_4="550.00000" pt_clust_5="550.00000" pt_clust_6="47.33951"></scales>
<mgrwt>
<rscale>  0 0.30000000E+03</rscale>
<asrwt>  1 0.47339510E+02</asrwt>
<pdfrwt beam="1">  1        1 0.90767701E+00 0.30000000E+03</pdfrwt>
<pdfrwt beam="2">0</pdfrwt>
<totfact> 0.77067700E-05</totfact>
</mgrwt>
<clustering>
<clus scale="   47.340">  1  6  2 -1</clus>
<clus scale="  464.379">  4  5 -1 -1</clus>
<clus scale="  300.000">  1  4  2 -1</clus>
</clustering>
</event>
<event>
 6    1  0.9843879E-012  0.3000000E+03  0.7818608E-02  0.1093470E+00
          1   -1    0    0  502    0  0.00000000000E+00  0.00000000000E+00  0.24391388449E+03  0.24391388449E+03  0.00000000000E+00 0.  1.
         13   -1    0    0    0    0 -0.00000000000E+00 -0.00000000000E+00 -0.27500000000E+03  0.27500000000E+03  0.00000000000E+00 0.  1.
    9000005    2    1    2  501    0  0.21183459994E+02  0.37726788337E+02 -0.40382998513E+02  0.47465914950E+03  0.47095485144E+03 0.  0.
         13    1    3    3    0    0  0.60246999192E+02 -0.20262166201E+03 -0.83658881727E+02  0.22734125741E+03  0.00000000000E+00 0.  1.
          3    1    3    3  501    0 -0.39063539197E+02  0.24034845035E+03  0.43275883214E+02  0.24731789209E+03  0.00000000000E+00 0.  1.
         21    1    1    2  502  501 -0.21183459994E+02 -0.37726788337E+02  0.92968830014E+01  0.44254734990E+02  0.00000000000E+00 0. -1.
<scales pt_clust_4="550.00000" pt_clust_5="550.00000" pt_clust_6="43.26719"></scales>
<mgrwt>
<rscale>  0 0.30000000E+03</rscale>
<asrwt>  1 0.43267188E+02</asrwt>
<pdfrwt beam="1">  1        1 0.88695958E+00 0.30000000E+03</pdfrwt>
<pdfrwt beam="2">0</pdfrwt>
<totfact> 0.15339297E-04</totfact>
</mgrwt>
<clustering>
<clus scale="   43.267">  1  6  2 -1</clus>
<clus scale="  470.955">  4  5 -1 -1</clus>
<clus scale="  300.000">  1  4  2 -1</clus>
</clustering>
</event>
<event>
 6    1  0.9843879E-012  0.3000000E+03  0.7818608E-02  0.1093470E+00
          1   -1    0    0  502    0  0.00000000000E+00  0.00000000000E+00  0.24010050390E+03  0.24010050390E+03  0.00000000000E+00 0.  1.
         13   -1    0    0    0    0 -0.00000000000E+00 -0.00000000000E+00 -0.27500000000E+03  0.27500000000E+03  0.00000000000E+00 0.  1.
    9000005    2    1    2  501    0  0.25963666896E+02  0.19517861544E+02 -0.44509458924E+02  0.48122705850E+03  0.47806205766E+03 0.  0.
         13    1    3    3    0    0  0.23878740226E+03 -0.67151941677E+02 -0.40932020635E+02  0.25140452873E+03  0.00000000000E+00 0.  1.
          3    1    3    3  501    0 -0.21282373537E+03  0.86669803221E+02 -0.35774382891E+01  0.22982252977E+03  0.00000000000E+00 0.  1.
         21    1    1    2  502  501 -0.25963666896E+02 -0.19517861544E+02  0.96099628237E+01  0.33873445402E+02  0.00000000000E+00 0.  1.
<scales pt_clust_4="550.00000" pt_clust_5="550.00000" pt_clust_6="32.48167"></scales>
<mgrwt>
<rscale>  0 0.30000000E+03</rscale>
<asrwt>  1 0.32481670E+02</asrwt>
<pdfrwt beam="1">  1        1 0.87309274E+00 0.30000000E+03</pdfrwt>
<pdfrwt beam="2">0</pdfrwt>
<totfact> 0.23879662E-04</totfact>
</mgrwt>
<clustering>
<clus scale="   32.482">  1  6  2 -1</clus>
<clus scale="  478.062">  4  5 -1 -1</clus>
<clus scale="  300.000">  1  4  2 -1</clus>
</clustering>
</event>
<event>
 6    1  0.9843879E-012  0.3000000E+03  0.7818608E-02  0.1093470E+00
          1   -1    0    0  502    0  0.00000000000E+00  0.00000000000E+00  0.23591567885E+03  0.23591567885E+03  0.00000000000E+00 0.  1.
         13   -1    0    0    0    0 -0.00000000000E+00 -0.00000000000E+00 -0.27500000000E+03  0.27500000000E+03  0.00000000000E+00 0.  1.
    9000005    2    1    2  501    0 -0.31040165803E+02 -0.10480939727E+02 -0.72927844981E+01  0.46526435036E+03  0.46405214041E+03 0.  0.
         13    1    3    3    0    0  0.14305960806E+02 -0.20757939613E+03  0.10592635528E+03  0.23348288793E+03  0.00000000000E+00 0.  1.
          3    1    3    3  501    0 -0.45346126609E+02  0.19709845641E+03 -0.11321913978E+03  0.23178146243E+03  0.00000000000E+00 0.  1.
         21    1    1    2  502  501  0.31040165803E+02  0.10480939727E+02 -0.31791536648E+02  0.45651328492E+02  0.00000000000E+00 0.  1.
<scales pt_clust_4="550.00000" pt_clust_5="550.00000" pt_clust_6="32.76191"></scales>
<mgrwt>
<rscale>  0 0.30000000E+03</rscale>
<asrwt>  1 0.32761915E+02</asrwt>
<pdfrwt beam="1">  1        1 0.85787520E+00 0.30000000E+03</pdfrwt>
<pdfrwt beam="2">0</pdfrwt>
<totfact> 0.34485920E-04</totfact>
</mgrwt>
<clustering>
<clus scale="   32.762">  1  6  2 -1</clus>
<clus scale="  464.052">  4  5 -1 -1</clus>
<clus scale="  300.000">  1  4  2 -1</clus>
</clustering>
</event>
<event>
 6    1  0.9843879E-012  0.3000000E+03  0.7818608E-02  0.1093470E+00
          1   -1    0    0  502    0  0.00000000000E+00  0.00000000000E+00  0.23443166140E+03  0.23443166140E+03  0.00000000000E+00 0.  1.
         13   -1    0    0    0    0 -0.00000000000E+00 -0.00000000000E+00 -0.27500000000E+03  0.27500000000E+03  0.00000000000E+00 0.  1.
    9000005    2    1    2  501    0 -0.30095990938E+02  0.17271247699E+02 -0.50067667665E+02  0.47345525357E+03  0.46952001142E+03 0.  0.
         13    1    3    3    0    0  0.10642953538E+03  0.14050217333E+03  0.12770816003E+03  0.21766368749E+03  0.00000000000E+00 0.  1.
          3    1    3    3  501    0 -0.13652552632E+03 -0.12323092563E+03 -0.17777582770E+03  0.25579156609E+03  0.00000000000E+00 0.  1.
         21    1    1    2  502  501  0.30095990938E+02 -0.17271247699E+02  0.94993290663E+01  0.35976407830E+02  0.00000000000E+00 0.  1.
<scales pt_clust_4="550.00000" pt_clust_5="550.00000" pt_clust_6="34.69963"></scales>
<mgrwt>
<rscale>  0 0.30000000E+03</rscale>
<asrwt>  1 0.34699635E+02</asrwt>
<pdfrwt beam="1">  1        1 0.85247877E+00 0.30000000E+03</pdfrwt>
<pdfrwt beam="2">0</pdfrwt>
<totfact> 0.38612107E-04</totfact>
</mgrwt>
<clustering>
<clus scale="   34.700">  1  6  2 -1</clus>
<clus scale="  469.520">  4  5 -1 -1</clus>
<clus scale="  300.000">  1  4  2 -1</clus>
</clustering>
</event>
<event>
 6    1  0.9843879E-012  0.3000000E+03  0.7818608E-02  0.1093470E+00
          1   -1    0    0  502    0  0.00000000000E+00  0.00000000000E+00  0.23732631173E+03  0.23732631173E+03  0.00000000000E+00 0.  1.
         13   -1    0    0    0    0 -0.00000000000E+00 -0.00000000000E+00 -0.27500000000E+03  0.27500000000E+03  0.00000000000E+00 0.  1.
    9000005    2    1    2  501    0 -0.19495622118E+01  0.30449451313E+02 -0.36053329041E+02  0.48177151763E+03  0.47945070945E+03 0.  0.
         13    1    3    3    0    0  0.80115036304E+02  0.22492370390E+03 -0.10342063968E+03  0.26020169164E+03  0.00000000000E+00 0.  1.
          3    1    3    3  501    0 -0.82064598515E+02 -0.19447425259E+03  0.67367310635E+02  0.22156982600E+03  0.00000000000E+00 0.  1.
         21    1    1    2  502  501  0.19495622118E+01 -0.30449451313E+02 -0.16203592338E+01  0.30554794094E+02  0.00000000000E+00 0.  1.
<scales pt_clust_4="550.00000" pt_clust_5="550.00000" pt_clust_6="30.51180"></scales>
<mgrwt>
<rscale>  0 0.30000000E+03</rscale>
<asrwt>  1 0.30511799E+02</asrwt>
<pdfrwt beam="1">  1        1 0.86300477E+00 0.30000000E+03</pdfrwt>
<pdfrwt beam="2">0</pdfrwt>
<totfact> 0.30814914E-04</totfact>
</mgrwt>
<clustering>
<clus scale="   30.512">  1  6  2 -1</clus>
<clus scale="  479.451">  4  5 -1 -1</clus>
<clus scale="  300.000">  1  4  2 -1</clus>
</clustering>
</event>
<event>
 6    1  0.9843879E-012  0.3000000E+03  0.7818608E-02  0.1093470E+00
          1   -1    0    0  502    0  0.00000000000E+00  0.00000000000E+00  0.23607781142E+03  0.23607781142E+03  0.00000000000E+00 0.  1.
         13   -1    0    0    0    0 -0.00000000000E+00 -0.00000000000E+00 -0.27500000000E+03  0.27500000000E+03  0.00000000000E+00 0.  1.
    9000005    2    1    2  501    0 -0.32558532657E+02  0.16820335872E+02 -0.42394738237E+02  0.47426693872E+03  0.47094461838E+03 0.  0.
         13    1    3    3    0    0 -0.70760147567E+02  0.23132045987E+03  0.32070226905E+02  0.24401773110E+03  0.00000000000E+00 0.  1.
          3    1    3    3  501    0  0.38201614910E+02 -0.21450012400E+03 -0.74464965142E+02  0.23024920762E+03  0.00000000000E+00 0.  1.
         21    1    1    2  502  501  0.32558532657E+02 -0.16820335872E+02  0.34725496542E+01  0.36810872698E+02  0.00000000000E+00 0. -1.
<scales pt_clust_4="550.00000" pt_clust_5="550.00000" pt_clust_6="36.64672"></scales>
<mgrwt>
<rscale>  0 0.30000000E+03</rscale>
<asrwt>  1 0.36646715E+02</asrwt>
<pdfrwt beam="1">  1        1 0.85846477E+00 0.30000000E+03</pdfrwt>
<pdfrwt beam="2">0</pdfrwt>
<totfact> 0.33293444E-04</totfact>
</mgrwt>
<clustering>
<clus scale="   36.647">  1  6  2 -1</clus>
<clus scale="  470.945">  4  5 -1 -1</clus>
<clus scale="  300.000">  1  4  2 -1</clus>
</clustering>
</event>
<event>
 6    1  0.9843879E-012  0.3000000E+03  0.7818608E-02  0.1093470E+00
          1   -1    0    0  502    0  0.00000000000E+00  0.00000000000E+00  0.22315823171E+03  0.22315823171E+03  0.00000000000E+00 0.  1.
         13   -1    0    0    0    0 -0.00000000000E+00 -0.00000000000E+00 -0.27500000000E+03  0.27500000000E+03  0.00000000000E+00 0.  1.
    9000005    2    1    2  501    0  0.29507840104E+02  0.67391726039E+01 -0.67794355770E+02  0.46394399312E+03  0.45796487311E+03 0.  0.
         13    1    3    3    0    0 -0.36061745904E+02  0.22584075524E+03 -0.14789546671E+02  0.22917946447E+03  0.00000000000E+00 0.  1.
          3    1    3    3  501    0  0.65569586008E+02 -0.21910158264E+03 -0.53004809099E+02  0.23476452865E+03  0.00000000000E+00 0.  1.
         21    1    1    2  502  501 -0.29507840104E+02 -0.67391726039E+01  0.15952587485E+02  0.34214238592E+02  0.00000000000E+00 0. -1.
<scales pt_clust_4="550.00000" pt_clust_5="550.00000" pt_clust_6="30.26762"></scales>
<mgrwt>
<rscale>  0 0.30000000E+03</rscale>
<asrwt>  1 0.30267624E+02</asrwt>
<pdfrwt beam="1">  1        1 0.81148448E+00 0.30000000E+03</pdfrwt>
<pdfrwt beam="2">0</pdfrwt>
<totfact> 0.87281821E-04</totfact>
</mgrwt>
<clustering>
<clus scale="   30.268">  1  6  2 -1</clus>
<clus scale="  457.965">  4  5 -1 -1</clus>
<clus scale="  300.000">  1  4  2 -1</clus>
</clustering>
</event>
<event>
 6    1  0.9843879E-012  0.3000000E+03  0.7818608E-02  0.1093470E+00
          1   -1    0    0  502    0  0.00000000000E+00  0.00000000000E+00  0.24346378971E+03  0.24346378971E+03  0.00000000000E+00 0.  1.
         13   -1    0    0    0    0 -0.00000000000E+00 -0.00000000000E+00 -0.27500000000E+03  0.27500000000E+03  0.00000000000E+00 0.  1.
    9000005    2    1    2  501    0 -0.79986236417E+01 -0.35336422036E+02 -0.52567813997E+02  0.47657143889E+03  0.47227568284E+03 0.  0.
         13    1    3    3    0    0  0.18455473175E+03  0.71342823639E+02 -0.13715122709E+03  0.24075029925E+03  0.00000000000E+00 0.  1.
          3    1    3    3  501    0 -0.19255335540E+03 -0.10667924568E+03  0.84583413090E+02  0.23582113964E+03  0.00000000000E+00 0.  1.
         21    1    1    2  502  501  0.79986236417E+01  0.35336422036E+02  0.21031603707E+02  0.41892350817E+02  0.00000000000E+00 0.  1.
<scales pt_clust_4="550.00000" pt_clust_5="550.00000" pt_clust_6="36.23038"></scales>
<mgrwt>
<rscale>  0 0.30000000E+03</rscale>
<asrwt>  1 0.36230384E+02</asrwt>
<pdfrwt beam="1">  1        1 0.88532287E+00 0.30000000E+03</pdfrwt>
<pdfrwt beam="2">0</pdfrwt>
<totfact> 0.16690724E-04</totfact>
</mgrwt>
<clustering>
<clus scale="   36.230">  1  6  2 -1</clus>
<clus scale="  472.276">  4  5 -1 -1</clus>
<clus scale="  300.000">  1  4  2 -1</clus>
</clustering>
</event>
<event>
 6    1  0.9843879E-012  0.3000000E+03  0.7818608E-02  0.1093470E+00
          1   -1    0    0  502    0  0.00000000000E+00  0.00000000000E+00  0.23280158705E+03  0.23280158705E+03  0.00000000000E+00 0.  1.
         13   -1    0    0    0    0 -0.00000000000E+00 -0.00000000000E+00 -0.27500000000E+03  0.27500000000E+03  0.00000000000E+00 0.  1.
    9000005    2    1    2  501    0  0.35980321487E+02  0.21309706825E+02 -0.51408828864E+02  0.46498197822E+03  0.46023546717E+03 0.  0.
         13    1    3    3    0    0  0.17829348867E+03 -0.98493609476E+02 -0.15139148527E+03  0.25378916648E+03  0.00000000000E+00 0.  1.
          1    1    3    3  501    0 -0.14231316718E+03  0.11980331630E+03  0.99982656410E+02  0.21119281174E+03  0.00000000000E+00 0.  1.
         21    1    1    2  502  501 -0.35980321487E+02 -0.21309706825E+02  0.92104159177E+01  0.42819608833E+02  0.00000000000E+00 0.  1.
<scales pt_clust_4="550.00000" pt_clust_5="550.00000" pt_clust_6="41.81731"></scales>
<mgrwt>
<rscale>  0 0.30000000E+03</rscale>
<asrwt>  1 0.41817307E+02</asrwt>
<pdfrwt beam="1">  1        1 0.84655123E+00 0.30000000E+03</pdfrwt>
<pdfrwt beam="2">0</pdfrwt>
<totfact> 0.42366289E-04</totfact>
</mgrwt>
<clustering>
<clus scale="   41.817">  1  6  2 -1</clus>
<clus scale="  460.235">  4  5 -1 -1</clus>
<clus scale="  300.000">  1  4  2 -1</clus>
</clustering>
</event>
<event>
 6    1  0.9843879E-012  0.3000000E+03  0.7818608E-02  0.1093470E+00
          1   -1    0    0  502    0  0.00000000000E+00  0.00000000000E+00  0.25295949581E+03  0.25295949581E+03  0.00000000000E+00 0.  1.
         13   -1    0    0    0    0 -0.00000000000E+00 -0.00000000000E+00 -0.27500000000E+03  0.27500000000E+03  0.00000000000E+00 0.  1.
    9000005    2    1    2  501    0 -0.24657171821E+02  0.29104074066E+02 -0.52638684107E+01  0.48628841762E+03  0.48476148110E+03 0.  0.
         13    1    3    3    0    0 -0.17291663025E+03  0.19707664673E+03  0.33635873805E-01  0.26218193460E+03  0.00000000000E+00 0.  1.
          3    1    3    3  501    0  0.14825945843E+03 -0.16797257266E+03 -0.52975042845E+01  0.22410648302E+03  0.00000000000E+00 0.  1.
         21    1    1    2  502  501  0.24657171821E+02 -0.29104074066E+02 -0.16776635776E+02  0.41671078189E+02  0.00000000000E+00 0. -1.
<scales pt_clust_4="550.00000" pt_clust_5="550.00000" pt_clust_6="38.14479"></scales>
<mgrwt>
<rscale>  0 0.30000000E+03</rscale>
<asrwt>  1 0.38144786E+02</asrwt>
<pdfrwt beam="1">  1        1 0.91985271E+00 0.30000000E+03</pdfrwt>
<pdfrwt beam="2">0</pdfrwt>
<totfact> 0.41442260E-05</totfact>
</mgrwt>
<clustering>
<clus scale="   38.145">  1  6  2 -1</clus>
<clus scale="  484.761">  4  5 -1 -1</clus>
<clus scale="  300.000">  1  4  2 -1</clus>
</clustering>
</event>
<event>
 6    1  0.9843879E-012  0.3000000E+03  0.7818608E-02  0.1093470E+00
          1   -1    0    0  502    0  0.00000000000E+00  0.00000000000E+00  0.22382374600E+03  0.22382374600E+03  0.00000000000E+00 0.  1.
         13   -1    0    0    0    0 -0.00000000000E+00 -0.00000000000E+00 -0.27500000000E+03  0.27500000000E+03  0.00000000000E+00 0.  1.
    9000005    2    1    2  501    0 -0.27387624000E+01  0.29965024032E+02 -0.54137037891E+02  0.46858850619E+03  0.46447708854E+03 0.  0.
         13    1    3    3    0    0  0.11045884213E+03 -0.18582423952E+03 -0.61652778529E+02  0.22479517098E+03  0.00000000000E+00 0.  1.
          1    1    3    3  501    0 -0.11319760453E+03  0.21578926355E+03  0.75157406380E+01  0.24379333521E+03  0.00000000000E+00 0.  1.
         21    1    1    2  502  501  0.27387624000E+01 -0.29965024032E+02  0.29607838884E+01  0.30235239803E+02  0.00000000000E+00 0.  1.
<scales pt_clust_4="550.00000" pt_clust_5="550.00000" pt_clust_6="30.08992"></scales>
<mgrwt>
<rscale>  0 0.30000000E+03</rscale>
<asrwt>  1 0.30089923E+02</asrwt>
<pdfrwt beam="1">  1        1 0.81390453E+00 0.30000000E+03</pdfrwt>
<pdfrwt beam="2">0</pdfrwt>
<totfact> 0.83599812E-04</totfact>
</mgrwt>
<clustering>
<clus scale="   30.090">  1  6  2 -1</clus>
<clus scale="  464.477">  4  5 -1 -1</clus>
<clus scale="  300.000">  1  4  2 -1</clus>
</clustering>
</event>
<event>
 6    1  0.9843879E-012  0.3000000E+03  0.7818608E-02  0.1093470E+00
          1   -1    0    0  502    0  0.00000000000E+00  0.00000000000E+00  0.22436833432E+03  0.22436833432E+03  0.00000000000E+00 0.  1.
         13   -1    0    0    0    0 -0.00000000000E+00 -0.00000000000E+00 -0.27500000000E+03  0.27500000000E+03  0.00000000000E+00 0.  1.
    9000005    2    1    2  501    0 -0.25744618032E+02  0.18377368759E+02 -0.60203421931E+02  0.46632092054E+03  0.46133527491E+03 0.  0.
         13    1    3    3    0    0  0.93704035031E+02 -0.17523868596E+03 -0.11863730563E+03  0.23143866040E+03  0.00000000000E+00 0.  1.
          1    1    3    3  501    0 -0.11944865306E+03  0.19361605472E+03  0.58433883701E+02  0.23488226014E+03  0.00000000000E+00 0.  1.
         21    1    1    2  502  501  0.25744618032E+02 -0.18377368759E+02  0.95717562530E+01  0.33047413785E+02  0.00000000000E+00 0.  1.
<scales pt_clust_4="550.00000" pt_clust_5="550.00000" pt_clust_6="31.63089"></scales>
<mgrwt>
<rscale>  0 0.30000000E+03</rscale>
<asrwt>  1 0.31630887E+02</asrwt>
<pdfrwt beam="1">  1        1 0.81588485E+00 0.30000000E+03</pdfrwt>
<pdfrwt beam="2">0</pdfrwt>
<totfact> 0.79809630E-04</totfact>
</mgrwt>
<clustering>
<clus scale="   31.631">  1  6  2 -1</clus>
<clus scale="  461.335">  4  5 -1 -1</clus>
<clus scale="  300.000">  1  4  2 -1</clus>
</clustering>
</event>
<event>
 6    1  0.9843879E-012  0.3000000E+03  0.7818608E-02  0.1093470E+00
          1   -1    0    0  502    0  0.00000000000E+00  0.00000000000E+00  0.21878099721E+03  0.21878099721E+03  0.00000000000E+00 0.  1.
         13   -1    0    0    0    0 -0.00000000000E+00 -0.00000000000E+00 -0.27500000000E+03  0.27500000000E+03  0.00000000000E+00 0.  1.
    9000005    2    1    2  501    0 -0.30313411253E+02 -0.32123237721E+01 -0.60701013573E+02  0.46297011689E+03  0.45796014472E+03 0.  0.
         13    1    3    3    0    0  0.15116766215E+03  0.98684222216E+02 -0.15171207477E+03  0.23581092304E+03  0.00000000000E+00 0.  1.
          1    1    3    3  501    0 -0.18148107341E+03 -0.10189654599E+03  0.91011061195E+02  0.22715919385E+03  0.00000000000E+00 0.  1.
         21    1    1    2  502  501  0.30313411253E+02  0.32123237721E+01  0.44820107863E+01  0.30810880327E+02  0.00000000000E+00 0.  1.
<scales pt_clust_4="550.00000" pt_clust_5="550.00000" pt_clust_6="30.48314"></scales>
<mgrwt>
<rscale>  0 0.30000000E+03</rscale>
<asrwt>  1 0.30483142E+02</asrwt>
<pdfrwt beam="1">  1        1 0.79556726E+00 0.30000000E+03</pdfrwt>
<pdfrwt beam="2">0</pdfrwt>
<totfact> 0.11468120E-03</totfact>
</mgrwt>
<clustering>
<clus scale="   30.483">  1  6  2 -1</clus>
<clus scale="  457.960">  4  5 -1 -1</clus>
<clus scale="  300.000">  1  4  2 -1</clus>
</clustering>
</event>
<event>
 6    1  0.9843879E-012  0.3000000E+03  0.7818608E-02  0.1093470E+00
          1   -1    0    0  502    0  0.00000000000E+00  0.00000000000E+00  0.22504783876E+03  0.22504783876E+03  0.00000000000E+00 0.  1.
         13   -1    0    0    0    0 -0.00000000000E+00 -0.00000000000E+00 -0.27500000000E+03  0.27500000000E+03  0.00000000000E+00 0.  1.
    9000005    2    1    2  501    0  0.33085730936E+02  0.24429540642E+01 -0.52229883415E+02  0.46679394223E+03  0.46267482120E+03 0.  0.
         13    1    3    3    0    0 -0.35824851566E+02  0.17283351465E+03  0.12118140663E+03  0.21410225849E+03  0.00000000000E+00 0.  1.
          3    1    3    3  501    0  0.68910582502E+02 -0.17039056059E+03 -0.17341129005E+03  0.25269168375E+03  0.00000000000E+00 0.  1.
         21    1    1    2  502  501 -0.33085730936E+02 -0.24429540642E+01  0.22777221793E+01  0.33253896530E+02  0.00000000000E+00 0.  1.
<scales pt_clust_4="550.00000" pt_clust_5="550.00000" pt_clust_6="33.17580"></scales>
<mgrwt>
<rscale>  0 0.30000000E+03</rscale>
<asrwt>  1 0.33175799E+02</asrwt>
<pdfrwt beam="1">  1        1 0.81835578E+00 0.30000000E+03</pdfrwt>
<pdfrwt beam="2">0</pdfrwt>
<totfact> 0.75462148E-04</totfact>
</mgrwt>
<clustering>
<clus scale="   33.176">  1  6  2 -1</clus>
<clus scale="  462.675">  4  5 -1 -1</clus>
<clus scale="  300.000">  1  4  2 -1</clus>
</clustering>
</event>
<event>
 6    1  0.9843879E-012  0.3000000E+03  0.7818608E-02  0.1093470E+00
          1   -1    0    0  502    0  0.00000000000E+00  0.00000000000E+00  0.22422750935E+03  0.22422750935E+03  0.00000000000E+00 0.  1.
         13   -1    0    0    0    0 -0.00000000000E+00 -0.00000000000E+00 -0.27500000000E+03  0.27500000000E+03  0.00000000000E+00 0.  1.
    9000005    2    1    2  501    0  0.13846741682E+02 -0.30235883321E+02 -0.58854931860E+02  0.46500373470E+03  0.46006372318E+03 0.  0.
         13    1    3    3    0    0 -0.16901945352E+03  0.13322455530E+03 -0.40979611926E+02  0.21907917837E+03  0.00000000000E+00 0.  1.
          1    1    3    3  501    0  0.18286619520E+03 -0.16346043862E+03 -0.17875319934E+02  0.24592455633E+03  0.00000000000E+00 0.  1.
         21    1    1    2  502  501 -0.13846741682E+02  0.30235883321E+02  0.80824412094E+01  0.34223774650E+02  0.00000000000E+00 0. -1.
<scales pt_clust_4="550.00000" pt_clust_5="550.00000" pt_clust_6="33.25569"></scales>
<mgrwt>
<rscale>  0 0.30000000E+03</rscale>
<asrwt>  1 0.33255690E+02</asrwt>
<pdfrwt beam="1">  1        1 0.81537276E+00 0.30000000E+03</pdfrwt>
<pdfrwt beam="2">0</pdfrwt>
<totfact> 0.79816067E-04</totfact>
</mgrwt>
<clustering>
<clus scale="   33.256">  1  6  2 -1</clus>
<clus scale="  460.064">  4  5 -1 -1</clus>
<clus scale="  300.000">  1  4  2 -1</clus>
</clustering>
</event>
<event>
 6    1  0.9843879E-012  0.3000000E+03  0.7818608E-02  0.1093470E+00
          1   -1    0    0  502    0  0.00000000000E+00  0.00000000000E+00  0.25488839927E+03  0.25488839927E+03  0.00000000000E+00 0.  1.
         13   -1    0    0    0    0 -0.00000000000E+00 -0.00000000000E+00 -0.27500000000E+03  0.27500000000E+03  0.00000000000E+00 0.  1.
    9000005    2    1    2  501    0 -0.18450123211E+02  0.35265054662E+02 -0.48003960382E+02  0.48128783493E+03  0.47723114810E+03 0.  0.
         13    1    3    3    0    0  0.10256419417E+03  0.12373549649E+03 -0.20746152063E+03  0.26243126636E+03  0.00000000000E+00 0.  1.
          1    1    3    3  501    0 -0.12101431739E+03 -0.88470441832E+02  0.15945756025E+03  0.21885656858E+03  0.00000000000E+00 0.  1.
         21    1    1    2  502  501  0.18450123211E+02 -0.35265054662E+02  0.27892359653E+02  0.48600564336E+02  0.00000000000E+00 0. -1.
<scales pt_clust_4="550.00000" pt_clust_5="550.00000" pt_clust_6="39.79989"></scales>
<mgrwt>
<rscale>  0 0.30000000E+03</rscale>
<asrwt>  1 0.39799889E+02</asrwt>
<pdfrwt beam="1">  1        1 0.92686691E+00 0.30000000E+03</pdfrwt>
<pdfrwt beam="2">0</pdfrwt>
<totfact> 0.29308587E-05</totfact>
</mgrwt>
<clustering>
<clus scale="   39.800">  1  6  2 -1</clus>
<clus scale="  477.231">  4  5 -1 -1</clus>
<clus scale="  300.000">  1  4  2 -1</clus>
</clustering>
</event>
<event>
 6    1  0.9843879E-012  0.3000000E+03  0.7818608E-02  0.1093470E+00
          1   -1    0    0  502    0  0.00000000000E+00  0.00000000000E+00  0.24154774872E+03  0.24154774872E+03  0.00000000000E+00 0.  1.
         13   -1    0    0    0    0 -0.00000000000E+00 -0.00000000000E+00 -0.27500000000E+03  0.27500000000E+03  0.00000000000E+00 0.  1.
    9000005    2    1    2  501    0 -0.39308498321E+02 -0.23281031605E+02 -0.55788832980E+02  0.46569416129E+03  0.46007770376E+03 0.  0.
         13    1    3    3    0    0 -0.23585819445E+03  0.51787939898E+01  0.49290155691E+02  0.24100918498E+03  0.00000000000E+00 0.  1.
          3    1    3    3  501    0  0.19654969613E+03 -0.28459825595E+02 -0.10507898867E+03  0.22468497631E+03  0.00000000000E+00 0.  1.
         21    1    1    2  502  501  0.39308498321E+02  0.23281031605E+02  0.22336581704E+02  0.50853587435E+02  0.00000000000E+00 0. -1.
<scales pt_clust_4="550.00000" pt_clust_5="550.00000" pt_clust_6="45.68550"></scales>
<mgrwt>
<rscale>  0 0.30000000E+03</rscale>
<asrwt>  1 0.45685495E+02</asrwt>
<pdfrwt beam="1">  1        1 0.87835545E+00 0.30000000E+03</pdfrwt>
<pdfrwt beam="2">0</pdfrwt>
<totfact> 0.19673471E-04</totfact>
</mgrwt>
<clustering>
<clus scale="   45.685">  1  6  2 -1</clus>
<clus scale="  460.078">  4  5 -1 -1</clus>
<clus scale="  300.000">  1  4  2 -1</clus>
</clustering>
</event>
<event>
 6    1  0.9843879E-012  0.3000000E+03  0.7818608E-02  0.1093470E+00
          1   -1    0    0  502    0  0.00000000000E+00  0.00000000000E+00  0.26129969191E+03  0.26129969191E+03  0.00000000000E+00 0.  1.
         13   -1    0    0    0    0 -0.00000000000E+00 -0.00000000000E+00 -0.27500000000E+03  0.27500000000E+03  0.00000000000E+00 0.  1.
    9000005    2    1    2  501    0  0.35609850977E+02  0.25752852923E+02 -0.12574753778E+02  0.49233905278E+03  0.49021255342E+03 0.  0.
         13    1    3    3    0    0  0.19708003084E+02  0.15890374165E+03  0.19058069692E+03  0.24891726845E+03  0.00000000000E+00 0.  1.
          3    1    3    3  501    0  0.15901847892E+02 -0.13315088873E+03 -0.20315545070E+03  0.24342178432E+03  0.00000000000E+00 0.  1.
         21    1    1    2  502  501 -0.35609850977E+02 -0.25752852923E+02 -0.11255543159E+01  0.43960639130E+02  0.00000000000E+00 0.  1.
<scales pt_clust_4="550.00000" pt_clust_5="550.00000" pt_clust_6="43.94625"></scales>
<mgrwt>
<rscale>  0 0.30000000E+03</rscale>
<asrwt>  1 0.43946250E+02</asrwt>
<pdfrwt beam="1">  1        1 0.95018070E+00 0.30000000E+03</pdfrwt>
<pdfrwt beam="2">0</pdfrwt>
<totfact> 0.11731451E-05</totfact>
</mgrwt>
<clustering>
<clus scale="   43.946">  1  6  2 -1</clus>
<clus scale="  490.213">  4  5 -1 -1</clus>
<clus scale="  300.000">  1  4  2 -1</clus>
</clustering>
</event>
<event>
 6    1  0.9843879E-012  0.3000000E+03  0.7818608E-02  0.1093470E+00
          1   -1    0    0  502    0  0.00000000000E+00  0.00000000000E+00  0.25219854157E+03  0.25219854157E+03  0.00000000000E+00 0.  1.
         13   -1    0    0    0    0 -0.00000000000E+00 -0.00000000000E+00 -0.27500000000E+03  0.27500000000E+03  0.00000000000E+00 0.  1.
    9000005    2    1    2  501    0  0.70913601252E+01  0.45269864245E+02 -0.43066518767E+02  0.47709544119E+03  0.47293306817E+03 0.  0.
         13    1    3    3    0    0 -0.21989266820E+03  0.46827341728E+02  0.52397319057E+02  0.23084857484E+03  0.00000000000E+00 0.  1.
          3    1    3    3  501    0  0.22698402833E+03 -0.15574774836E+01 -0.95463837825E+02  0.24624686635E+03  0.00000000000E+00 0.  1.
         21    1    1    2  502  501 -0.70913601252E+01 -0.45269864245E+02  0.20265060335E+02  0.50103100378E+02  0.00000000000E+00 0.  1.
<scales pt_clust_4="550.00000" pt_clust_5="550.00000" pt_clust_6="45.82192"></scales>
<mgrwt>
<rscale>  0 0.30000000E+03</rscale>
<asrwt>  1 0.45821916E+02</asrwt>
<pdfrwt beam="1">  1        1 0.91708561E+00 0.30000000E+03</pdfrwt>
<pdfrwt beam="2">0</pdfrwt>
<totfact> 0.46174348E-05</totfact>
</mgrwt>
<clustering>
<clus scale="   45.822">  1  6  2 -1</clus>
<clus scale="  472.933">  4  5 -1 -1</clus>
<clus scale="  300.000">  1  4  2 -1</clus>
</clustering>
</event>
<event>
 6    1  0.9843879E-012  0.3000000E+03  0.7818608E-02  0.1093470E+00
          1   -1    0    0  502    0  0.00000000000E+00  0.00000000000E+00  0.23114112138E+03  0.23114112138E+03  0.00000000000E+00 0.  1.
         13   -1    0    0    0    0 -0.00000000000E+00 -0.00000000000E+00 -0.27500000000E+03  0.27500000000E+03  0.00000000000E+00 0.  1.
    9000005    2    1    2  501    0  0.97797148711E+01 -0.41384574247E+02 -0.24797755144E+02  0.45954013173E+03  0.45689591615E+03 0.  0.
         13    1    3    3    0    0  0.91933992946E+02 -0.21448757156E+03  0.72873439972E+02  0.24447354799E+03  0.00000000000E+00 0.  1.
          1    1    3    3  501    0 -0.82154278075E+02  0.17310299731E+03 -0.97671195116E+02  0.21506658374E+03  0.00000000000E+00 0.  1.
         21    1    1    2  502  501 -0.97797148711E+01  0.41384574247E+02 -0.19061123476E+02  0.46600989654E+02  0.00000000000E+00 0.  1.
<scales pt_clust_4="550.00000" pt_clust_5="550.00000" pt_clust_6="42.52444"></scales>
<mgrwt>
<rscale>  0 0.30000000E+03</rscale>
<asrwt>  1 0.42524436E+02</asrwt>
<pdfrwt beam="1">  1        1 0.84051317E+00 0.30000000E+03</pdfrwt>
<pdfrwt beam="2">0</pdfrwt>
<totfact> 0.47521220E-04</totfact>
</mgrwt>
<clustering>
<clus scale="   42.524">  1  6  2 -1</clus>
<clus scale="  456.896">  4  5 -1 -1</clus>
<clus scale="  300.000">  1  4  2 -1</clus>
</clustering>
</event>
<event>
 6    1  0.9843879E-012  0.3000000E+03  0.7818608E-02  0.1093470E+00
          1   -1    0    0  502    0  0.00000000000E+00  0.00000000000E+00  0.22296737488E+03  0.22296737488E+03  0.00000000000E+00 0.  1.
         13   -1    0    0    0    0 -0.00000000000E+00 -0.00000000000E+00 -0.27500000000E+03  0.27500000000E+03  0.00000000000E+00 0.  1.
    9000005    2    1    2  501    0  0.32681407399E+02 -0.10978647540E+02 -0.49673123311E+02  0.46341057613E+03  0.45944895015E+03 0.  0.
         13    1    3    3    0    0  0.45413473115E+02 -0.17350723987E+03 -0.18044457910E+03  0.25441578559E+03  0.00000000000E+00 0.  1.
          1    1    3    3  501    0 -0.12732065716E+02  0.16252859233E+03  0.13077145579E+03  0.20899479054E+03  0.00000000000E+00 0.  1.
         21    1    1    2  502  501 -0.32681407399E+02  0.10978647540E+02 -0.23595018083E+01  0.34556798755E+02  0.00000000000E+00 0. -1.
<scales pt_clust_4="550.00000" pt_clust_5="550.00000" pt_clust_6="34.47615"></scales>
<mgrwt>
<rscale>  0 0.30000000E+03</rscale>
<asrwt>  1 0.34476153E+02</asrwt>
<pdfrwt beam="1">  1        1 0.81079045E+00 0.30000000E+03</pdfrwt>
<pdfrwt beam="2">0</pdfrwt>
<totfact> 0.86225926E-04</totfact>
</mgrwt>
<clustering>
<clus scale="   34.476">  1  6  2 -1</clus>
<clus scale="  459.449">  4  5 -1 -1</clus>
<clus scale="  300.000">  1  4  2 -1</clus>
</clustering>
</event>
<event>
 6    1  0.9843879E-012  0.3000000E+03  0.7818608E-02  0.1093470E+00
          1   -1    0    0  502    0  0.00000000000E+00  0.00000000000E+00  0.23691596030E+03  0.23691596030E+03  0.00000000000E+00 0.  1.
         13   -1    0    0    0    0 -0.00000000000E+00 -0.00000000000E+00 -0.27500000000E+03  0.27500000000E+03  0.00000000000E+00 0.  1.
    9000005    2    1    2  501    0  0.18344371173E+01 -0.35517784736E+02 -0.54125893552E+02  0.47290033180E+03  0.46844448259E+03 0.  0.
         13    1    3    3    0    0  0.11394128858E+03  0.18766367112E+03 -0.36113299380E+02  0.22249593501E+03  0.00000000000E+00 0.  1.
          3    1    3    3  501    0 -0.11210685146E+03 -0.22318145586E+03 -0.18012594173E+02  0.25040439679E+03  0.00000000000E+00 0.  1.
         21    1    1    2  502  501 -0.18344371173E+01  0.35517784736E+02  0.16041853848E+02  0.39015628497E+02  0.00000000000E+00 0. -1.
<scales pt_clust_4="550.00000" pt_clust_5="550.00000" pt_clust_6="35.56513"></scales>
<mgrwt>
<rscale>  0 0.30000000E+03</rscale>
<asrwt>  1 0.35565126E+02</asrwt>
<pdfrwt beam="1">  1        1 0.86151258E+00 0.30000000E+03</pdfrwt>
<pdfrwt beam="2">0</pdfrwt>
<totfact> 0.31066827E-04</totfact>
</mgrwt>
<clustering>
<clus scale="   35.565">  1  6  2 -1</clus>
<clus scale="  468.444">  4  5 -1 -1</clus>
<clus scale="  300.000">  1  4  2 -1</clus>
</clustering>
</event>
<event>
 6    1  0.9843879E-012  0.3000000E+03  0.7818608E-02  0.1093470E+00
          1   -1    0    0  502    0  0.00000000000E+00  0.00000000000E+00  0.23397762229E+03  0.23397762229E+03  0.00000000000E+00 0.  1.
         13   -1    0    0    0    0 -0.00000000000E+00 -0.00000000000E+00 -0.27500000000E+03  0.27500000000E+03  0.00000000000E+00 0.  1.
    9000005    2    1    2  501    0  0.31028226836E+02  0.94417632968E+01 -0.40743949843E+02  0.47654345393E+03  0.47368945131E+03 0.  0.
         13    1    3    3    0    0  0.18739460002E+02  0.15293024381E+03  0.16477628253E+03  0.22558823134E+03  0.00000000000E+00 0.  1.
          3    1    3    3  501    0  0.12288766834E+02 -0.14348848051E+03 -0.20552023238E+03  0.25095522259E+03  0.00000000000E+00 0.  1.
         21    1    1    2  502  501 -0.31028226836E+02 -0.94417632968E+01 -0.27842787176E+00  0.32434168354E+02  0.00000000000E+00 0. -1.
<scales pt_clust_4="550.00000" pt_clust_5="550.00000" pt_clust_6="32.43297"></scales>
<mgrwt>
<rscale>  0 0.30000000E+03</rscale>
<asrwt>  1 0.32432973E+02</asrwt>
<pdfrwt beam="1">  1        1 0.85082772E+00 0.30000000E+03</pdfrwt>
<pdfrwt beam="2">0</pdfrwt>
<totfact> 0.40551709E-04</totfact>
</mgrwt>
<clustering>
<clus scale="   32.433">  1  6  2 -1</clus>
<clus scale="  473.689">  4  5 -1 -1</clus>
<clus scale="  300.000">  1  4  2 -1</clus>
</clustering>
</event>
<event>
 6    1  0.9843879E-012  0.3000000E+03  0.7818608E-02  0.1093470E+00
          1   -1    0    0  502    0  0.00000000000E+00  0.00000000000E+00  0.24731450305E+03  0.24731450305E+03  0.00000000000E+00 0.  1.
         13   -1    0    0    0    0 -0.00000000000E+00 -0.00000000000E+00 -0.27500000000E+03  0.27500000000E+03  0.00000000000E+00 0.  1.
    9000005    2    1    2  501    0 -0.27140499548E+02  0.16308047260E+02 -0.69943258519E+02  0.46951035990E+03  0.46319041389E+03 0.  0.
         13    1    3    3    0    0 -0.38012720231E+02  0.68365357999E+02  0.18932292840E+03  0.20484618691E+03  0.00000000000E+00 0.  1.
          1    1    3    3  501    0  0.10872220683E+02 -0.52057310739E+02 -0.25926618692E+03  0.26466417299E+03  0.00000000000E+00 0.  1.
         21    1    1    2  502  501  0.27140499548E+02 -0.16308047260E+02  0.42257761566E+02  0.52804143150E+02  0.00000000000E+00 0. -1.
<scales pt_clust_4="550.00000" pt_clust_5="550.00000" pt_clust_6="31.66321"></scales>
<mgrwt>
<rscale>  0 0.30000000E+03</rscale>
<asrwt>  1 0.31663214E+02</asrwt>
<pdfrwt beam="1">  1        1 0.89932547E+00 0.30000000E+03</pdfrwt>
<pdfrwt beam="2">0</pdfrwt>
<totfact> 0.11472514E-04</totfact>
</mgrwt>
<clustering>
<clus scale="   31.663">  1  6  2 -1</clus>
<clus scale="  463.190">  4  5 -1 -1</clus>
<clus scale="  300.000">  1  4  2 -1</clus>
</clustering>
</event>
<event>
 6    1  0.9843879E-012  0.3000000E+03  0.7818608E-02  0.1093470E+00
          1   -1    0    0  502    0  0.00000000000E+00  0.00000000000E+00  0.23517185849E+03  0.23517185849E+03  0.00000000000E+00 0.  1.
         13   -1    0    0    0    0 -0.00000000000E+00 -0.00000000000E+00 -0.27500000000E+03  0.27500000000E+03  0.00000000000E+00 0.  1.
    9000005    2    1    2  501    0  0.29870301859E+02  0.23043809040E+02 -0.58176210797E+02  0.46822065213E+03  0.46305815565E+03 0.  0.
         13    1    3    3    0    0 -0.20771069086E+03  0.51080921305E+02  0.24066136630E+02  0.21524908955E+03  0.00000000000E+00 0.  1.
          1    1    3    3  501    0  0.23758099272E+03 -0.28037112265E+02 -0.82242347427E+02  0.25297156258E+03  0.00000000000E+00 0.  1.
         21    1    1    2  502  501 -0.29870301859E+02 -0.23043809040E+02  0.18348069286E+02  0.41951206356E+02  0.00000000000E+00 0. -1.
<scales pt_clust_4="550.00000" pt_clust_5="550.00000" pt_clust_6="37.72601"></scales>
<mgrwt>
<rscale>  0 0.30000000E+03</rscale>
<asrwt>  1 0.37726013E+02</asrwt>
<pdfrwt beam="1">  1        1 0.85517039E+00 0.30000000E+03</pdfrwt>
<pdfrwt beam="2">0</pdfrwt>
<totfact> 0.35789778E-04</totfact>
</mgrwt>
<clustering>
<clus scale="   37.726">  1  6  2 -1</clus>
<clus scale="  463.058">  4  5 -1 -1</clus>
<clus scale="  300.000">  1  4  2 -1</clus>
</clustering>
</event>
<event>
 6    1  0.9843879E-012  0.3000000E+03  0.7818608E-02  0.1093470E+00
          1   -1    0    0  502    0  0.00000000000E+00  0.00000000000E+00  0.25303732437E+03  0.25303732437E+03  0.00000000000E+00 0.  1.
         13   -1    0    0    0    0 -0.00000000000E+00 -0.00000000000E+00 -0.27500000000E+03  0.27500000000E+03  0.00000000000E+00 0.  1.
    9000005    2    1    2  501    0 -0.45216495713E+01 -0.36369603460E+02 -0.64583237375E+02  0.47182606523E+03  0.46594597102E+03 0.  0.
         13    1    3    3    0    0  0.26072154823E+02  0.17135775164E+03 -0.16479774017E+03  0.23916841654E+03  0.00000000000E+00 0.  1.
          3    1    3    3  501    0 -0.30593804395E+02 -0.20772735510E+03  0.10021450279E+03  0.23265764869E+03  0.00000000000E+00 0.  1.
         21    1    1    2  502  501  0.45216495713E+01  0.36369603460E+02  0.42620561748E+02  0.56211259143E+02  0.00000000000E+00 0.  1.
<scales pt_clust_4="550.00000" pt_clust_5="550.00000" pt_clust_6="36.64960"></scales>
<mgrwt>
<rscale>  0 0.30000000E+03</rscale>
<asrwt>  1 0.36649603E+02</asrwt>
<pdfrwt beam="1">  1        1 0.92013573E+00 0.30000000E+03</pdfrwt>
<pdfrwt beam="2">0</pdfrwt>
<totfact> 0.41163198E-05</totfact>
</mgrwt>
<clustering>
<clus scale="   36.650">  1  6  2 -1</clus>
<clus scale="  465.946">  4  5 -1 -1</clus>
<clus scale="  300.000">  1  4  2 -1</clus>
</clustering>
</event>
<event>
 6    1  0.9843879E-012  0.3000000E+03  0.7818608E-02  0.1093470E+00
          1   -1    0    0  502    0  0.00000000000E+00  0.00000000000E+00  0.23460253647E+03  0.23460253647E+03  0.00000000000E+00 0.  1.
         13   -1    0    0    0    0 -0.00000000000E+00 -0.00000000000E+00 -0.27500000000E+03  0.27500000000E+03  0.00000000000E+00 0.  1.
    9000005    2    1    2  501    0  0.15524777838E+02 -0.36433672516E+02 -0.63182182335E+02  0.46391255255E+03  0.45788037414E+03 0.  0.
         13    1    3    3    0    0  0.41627001045E+01 -0.22911262607E+03 -0.12527318626E+03  0.26115760508E+03  0.00000000000E+00 0.  1.
          1    1    3    3  501    0  0.11362077733E+02  0.19267895355E+03  0.62091003928E+02  0.20275494746E+03  0.00000000000E+00 0.  1.
         21    1    1    2  502  501 -0.15524777838E+02  0.36433672516E+02  0.22784718805E+02  0.45689983923E+02  0.00000000000E+00 0. -1.
<scales pt_clust_4="550.00000" pt_clust_5="550.00000" pt_clust_6="39.60342"></scales>
<mgrwt>
<rscale>  0 0.30000000E+03</rscale>
<asrwt>  1 0.39603424E+02</asrwt>
<pdfrwt beam="1">  1        1 0.85310013E+00 0.30000000E+03</pdfrwt>
<pdfrwt beam="2">0</pdfrwt>
<totfact> 0.37162980E-04</totfact>
</mgrwt>
<clustering>
<clus scale="   39.603">  1  6  2 -1</clus>
<clus scale="  457.880">  4  5 -1 -1</clus>
<clus scale="  300.000">  1  4  2 -1</clus>
</clustering>
</event>
<event>
 6    1  0.9843879E-012  0.3000000E+03  0.7818608E-02  0.1093470E+00
          1   -1    0    0  502    0  0.00000000000E+00  0.00000000000E+00  0.24954571837E+03  0.24954571837E+03  0.00000000000E+00 0.  1.
         13   -1    0    0    0    0 -0.00000000000E+00 -0.00000000000E+00 -0.27500000000E+03  0.27500000000E+03  0.00000000000E+00 0.  1.
    9000005    2    1    2  501    0 -0.32795522170E+02 -0.13177171987E+02 -0.36270184931E+02  0.48758400980E+03  0.48494685911E+03 0.  0.
         13    1    3    3    0    0 -0.53776705033E+02 -0.22386320580E+03 -0.12032870929E+03  0.25978003618E+03  0.00000000000E+00 0.  1.
          3    1    3    3  501    0  0.20981182863E+02  0.21068603382E+03  0.84058524363E+02  0.22780397362E+03  0.00000000000E+00 0.  1.
         21    1    1    2  502  501  0.32795522170E+02  0.13177171987E+02  0.10815903299E+02  0.36961708566E+02  0.00000000000E+00 0.  1.
<scales pt_clust_4="550.00000" pt_clust_5="550.00000" pt_clust_6="35.34380"></scales>
<mgrwt>
<rscale>  0 0.30000000E+03</rscale>
<asrwt>  1 0.35343799E+02</asrwt>
<pdfrwt beam="1">  1        1 0.90743898E+00 0.30000000E+03</pdfrwt>
<pdfrwt beam="2">0</pdfrwt>
<totfact> 0.82263439E-05</totfact>
</mgrwt>
<clustering>
<clus scale="   35.344">  1  6  2 -1</clus>
<clus scale="  484.947">  4  5 -1 -1</clus>
<clus scale="  300.000">  1  4  2 -1</clus>
</clustering>
</event>
<event>
 6    1  0.9843879E-012  0.3000000E+03  0.7818608E-02  0.1093470E+00
          1   -1    0    0  502    0  0.00000000000E+00  0.00000000000E+00  0.24384850962E+03  0.24384850962E+03  0.00000000000E+00 0.  1.
         13   -1    0    0    0    0 -0.00000000000E+00 -0.00000000000E+00 -0.27500000000E+03  0.27500000000E+03  0.00000000000E+00 0.  1.
    9000005    2    1    2  501    0  0.28414988745E+02 -0.20406755496E+02 -0.42979476863E+02  0.48191954376E+03  0.47872263783E+03 0.  0.
         13    1    3    3    0    0 -0.20897622557E+03 -0.84700528277E+02 -0.65869989282E+02  0.23491295799E+03  0.00000000000E+00 0.  1.
          3    1    3    3  501    0  0.23739121432E+03  0.64293772781E+02  0.22890512419E+02  0.24700658577E+03  0.00000000000E+00 0.  1.
         21    1    1    2  502  501 -0.28414988745E+02  0.20406755496E+02  0.11827986485E+02  0.36928965860E+02  0.00000000000E+00 0.  1.
<scales pt_clust_4="550.00000" pt_clust_5="550.00000" pt_clust_6="34.98353"></scales>
<mgrwt>
<rscale>  0 0.30000000E+03</rscale>
<asrwt>  1 0.34983528E+02</asrwt>
<pdfrwt beam="1">  1        1 0.88672185E+00 0.30000000E+03</pdfrwt>
<pdfrwt beam="2">0</pdfrwt>
<totfact> 0.16070139E-04</totfact>
</mgrwt>
<clustering>
<clus scale="   34.984">  1  6  2 -1</clus>
<clus scale="  478.723">  4  5 -1 -1</clus>
<clus scale="  300.000">  1  4  2 -1</clus>
</clustering>
</event>
<event>
 6    1  0.9843879E-012  0.3000000E+03  0.7818608E-02  0.1093470E+00
          1   -1    0    0  502    0  0.00000000000E+00  0.00000000000E+00  0.23343012037E+03  0.23343012037E+03  0.00000000000E+00 0.  1.
         13   -1    0    0    0    0 -0.00000000000E+00 -0.00000000000E+00 -0.27500000000E+03  0.27500000000E+03  0.00000000000E+00 0.  1.
    9000005    2    1    2  501    0  0.19170275690E+02  0.27296681109E+02 -0.57951023618E+02  0.47126898276E+03  0.46650136624E+03 0.  0.
         13    1    3    3    0    0 -0.10836333993E+03 -0.11439464556E+03  0.12946618569E+03  0.20393685692E+03  0.00000000000E+00 0.  1.
          3    1    3    3  501    0  0.12753361562E+03  0.14169132667E+03 -0.18741720930E+03  0.26733212585E+03  0.00000000000E+00 0.  1.
         21    1    1    2  502  501 -0.19170275690E+02 -0.27296681109E+02  0.16381143984E+02  0.37161137601E+02  0.00000000000E+00 0.  1.
<scales pt_clust_4="550.00000" pt_clust_5="550.00000" pt_clust_6="33.35578"></scales>
<mgrwt>
<rscale>  0 0.30000000E+03</rscale>
<asrwt>  1 0.33355783E+02</asrwt>
<pdfrwt beam="1">  1        1 0.84883680E+00 0.30000000E+03</pdfrwt>
<pdfrwt beam="2">0</pdfrwt>
<totfact> 0.42106139E-04</totfact>
</mgrwt>
<clustering>
<clus scale="   33.356">  1  6  2 -1</clus>
<clus scale="  466.501">  4  5 -1 -1</clus>
<clus scale="  300.000">  1  4  2 -1</clus>
</clustering>
</event>
<event>
 6    1  0.9843879E-012  0.3000000E+03  0.7818608E-02  0.1093470E+00
          1   -1    0    0  502    0  0.00000000000E+00  0.00000000000E+00  0.24620242977E+03  0.24620242977E+03  0.00000000000E+00 0.  1.
         13   -1    0    0    0    0 -0.00000000000E+00 -0.00000000000E+00 -0.27500000000E+03  0.27500000000E+03  0.00000000000E+00 0.  1.
    9000005    2    1    2  501    0  0.50049819622E+02  0.35643880854E+01 -0.52891088732E+02  0.46554107028E+03  0.45979705473E+03 0.  0.
         13    1    3    3    0    0  0.22238500824E+03  0.85327367170E+02  0.57660763854E+02  0.24507267324E+03  0.00000000000E+00 0.  1.
          1    1    3    3  501    0 -0.17233518862E+03 -0.81762979085E+02 -0.11055185259E+03  0.22046839704E+03  0.00000000000E+00 0.  1.
         21    1    1    2  502  501 -0.50049819622E+02 -0.35643880854E+01  0.24093518505E+02  0.55661359493E+02  0.00000000000E+00 0. -1.
<scales pt_clust_4="550.00000" pt_clust_5="550.00000" pt_clust_6="50.17658"></scales>
<mgrwt>
<rscale>  0 0.30000000E+03</rscale>
<asrwt>  1 0.50176581E+02</asrwt>
<pdfrwt beam="1">  1        1 0.89528156E+00 0.30000000E+03</pdfrwt>
<pdfrwt beam="2">0</pdfrwt>
<totfact> 0.11727879E-04</totfact>
</mgrwt>
<clustering>
<clus scale="   50.177">  1  6  2 -1</clus>
<clus scale="  459.797">  4  5 -1 -1</clus>
<clus scale="  300.000">  1  4  2 -1</clus>
</clustering>
</event>
<event>
 6    1  0.9843879E-012  0.3000000E+03  0.7818608E-02  0.1093470E+00
          1   -1    0    0  502    0  0.00000000000E+00  0.00000000000E+00  0.24786199235E+03  0.24786199235E+03  0.00000000000E+00 0.  1.
         13   -1    0    0    0    0 -0.00000000000E+00 -0.00000000000E+00 -0.27500000000E+03  0.27500000000E+03  0.00000000000E+00 0.  1.
    9000005    2    1    2  501    0 -0.12105460944E+01  0.34178928012E+02 -0.67812554611E+02  0.46971988746E+03  0.46353917371E+03 0.  0.
         13    1    3    3    0    0  0.15670617453E+03 -0.11166213694E+03 -0.14541082755E+03  0.24118367841E+03  0.00000000000E+00 0.  1.
          3    1    3    3  501    0 -0.15791672063E+03  0.14584106495E+03  0.77598272942E+02  0.22853620904E+03  0.00000000000E+00 0.  1.
         21    1    1    2  502  501  0.12105460944E+01 -0.34178928012E+02  0.40674546957E+02  0.53142104890E+02  0.00000000000E+00 0.  1.
<scales pt_clust_4="550.00000" pt_clust_5="550.00000" pt_clust_6="34.20036"></scales>
<mgrwt>
<rscale>  0 0.30000000E+03</rscale>
<asrwt>  1 0.34200359E+02</asrwt>
<pdfrwt beam="1">  1        1 0.90131634E+00 0.30000000E+03</pdfrwt>
<pdfrwt beam="2">0</pdfrwt>
<totfact> 0.10659608E-04</totfact>
</mgrwt>
<clustering>
<clus scale="   34.200">  1  6  2 -1</clus>
<clus scale="  463.539">  4  5 -1 -1</clus>
<clus scale="  300.000">  1  4  2 -1</clus>
</clustering>
</event>
<event>
 6    1  0.9843879E-012  0.3000000E+03  0.7818608E-02  0.1093470E+00
          1   -1    0    0  502    0  0.00000000000E+00  0.00000000000E+00  0.24708030347E+03  0.24708030347E+03  0.00000000000E+00 0.  1.
         13   -1    0    0    0    0 -0.00000000000E+00 -0.00000000000E+00 -0.27500000000E+03  0.27500000000E+03  0.00000000000E+00 0.  1.
    9000005    2    1    2  501    0 -0.36994316046E+02 -0.21771121691E+02 -0.12865551540E+02  0.47659197045E+03  0.47448058202E+03 0.  0.
         13    1    3    3    0    0 -0.13361674866E+03  0.19033982852E+03 -0.56831164120E+02  0.23940022360E+03  0.00000000000E+00 0.  1.
          3    1    3    3  501    0  0.96622432610E+02 -0.21211095021E+03  0.43965612580E+02  0.23719174685E+03  0.00000000000E+00 0.  1.
         21    1    1    2  502  501  0.36994316046E+02  0.21771121691E+02 -0.15054144994E+02  0.45488333020E+02  0.00000000000E+00 0.  1.
<scales pt_clust_4="550.00000" pt_clust_5="550.00000" pt_clust_6="42.92509"></scales>
<mgrwt>
<rscale>  0 0.30000000E+03</rscale>
<asrwt>  1 0.42925086E+02</asrwt>
<pdfrwt beam="1">  1        1 0.89847383E+00 0.30000000E+03</pdfrwt>
<pdfrwt beam="2">0</pdfrwt>
<totfact> 0.11098815E-04</totfact>
</mgrwt>
<clustering>
<clus scale="   42.925">  1  6  2 -1</clus>
<clus scale="  474.481">  4  5 -1 -1</clus>
<clus scale="  300.000">  1  4  2 -1</clus>
</clustering>
</event>
<event>
 6    1  0.9843879E-012  0.3000000E+03  0.7818608E-02  0.1093470E+00
          1   -1    0    0  502    0  0.00000000000E+00  0.00000000000E+00  0.27074058833E+03  0.27074058833E+03  0.00000000000E+00 0.  1.
         13   -1    0    0    0    0 -0.00000000000E+00 -0.00000000000E+00 -0.27500000000E+03  0.27500000000E+03  0.00000000000E+00 0.  1.
    9000005    2    1    2  501    0  0.43458548807E+02  0.88860862163E+00 -0.16118096481E+02  0.50068436240E+03  0.49853345187E+03 0.  0.
         13    1    3    3    0    0 -0.19174510378E+03 -0.12957737464E+03 -0.10498312522E+02  0.23166073342E+03  0.00000000000E+00 0.  1.
          3    1    3    3  501    0  0.23520365259E+03  0.13046598326E+03 -0.56197839594E+01  0.26902362898E+03  0.00000000000E+00 0.  1.
         21    1    1    2  502  501 -0.43458548807E+02 -0.88860862163E+00  0.11858684816E+02  0.45056225932E+02  0.00000000000E+00 0. -1.
<scales pt_clust_4="550.00000" pt_clust_5="550.00000" pt_clust_6="43.46763"></scales>
<mgrwt>
<rscale>  0 0.30000000E+03</rscale>
<asrwt>  1 0.43467633E+02</asrwt>
<pdfrwt beam="1">  1        1 0.98451123E+00 0.30000000E+03</pdfrwt>
<pdfrwt beam="2">0</pdfrwt>
<totfact> 0.16439068E-06</totfact>
</mgrwt>
<clustering>
<clus scale="   43.468">  1  6  2 -1</clus>
<clus scale="  498.533">  4  5 -1 -1</clus>
<clus scale="  300.000">  1  4  2 -1</clus>
</clustering>
</event>
<event>
 6    1  0.9843879E-012  0.3000000E+03  0.7818608E-02  0.1093470E+00
          1   -1    0    0  502    0  0.00000000000E+00  0.00000000000E+00  0.22557298281E+03  0.22557298281E+03  0.00000000000E+00 0.  1.
         13   -1    0    0    0    0 -0.00000000000E+00 -0.00000000000E+00 -0.27500000000E+03  0.27500000000E+03  0.00000000000E+00 0.  1.
    9000005    2    1    2  501    0  0.26960750959E+02  0.26915357673E+02 -0.56793884160E+02  0.46177105889E+03  0.45667893205E+03 0.  0.
         13    1    3    3    0    0  0.24158040998E+03 -0.14623764180E+01 -0.36636449207E+02  0.24434701235E+03  0.00000000000E+00 0.  1.
          3    1    3    3  501    0 -0.21461965902E+03  0.28377734091E+02 -0.20157434953E+02  0.21742404654E+03  0.00000000000E+00 0.  1.
         21    1    1    2  502  501 -0.26960750959E+02 -0.26915357673E+02  0.73668669699E+01  0.38801923920E+02  0.00000000000E+00 0.  1.
<scales pt_clust_4="550.00000" pt_clust_5="550.00000" pt_clust_6="38.09618"></scales>
<mgrwt>
<rscale>  0 0.30000000E+03</rscale>
<asrwt>  1 0.38096175E+02</asrwt>
<pdfrwt beam="1">  1        1 0.82026539E+00 0.30000000E+03</pdfrwt>
<pdfrwt beam="2">0</pdfrwt>
<totfact> 0.70823536E-04</totfact>
</mgrwt>
<clustering>
<clus scale="   38.096">  1  6  2 -1</clus>
<clus scale="  456.679">  4  5 -1 -1</clus>
<clus scale="  300.000">  1  4  2 -1</clus>
</clustering>
</event>
<event>
 6    1  0.9843879E-012  0.3000000E+03  0.7818608E-02  0.1093470E+00
          1   -1    0    0  502    0  0.00000000000E+00  0.00000000000E+00  0.23260266442E+03  0.23260266442E+03  0.00000000000E+00 0.  1.
         13   -1    0    0    0    0 -0.00000000000E+00 -0.00000000000E+00 -0.27500000000E+03  0.27500000000E+03  0.00000000000E+00 0.  1.
    9000005    2    1    2  501    0 -0.26778681523E+02 -0.27502768852E+02 -0.53767096873E+02  0.46756803503E+03  0.46287737749E+03 0.  0.
         13    1    3    3    0    0  0.15931243465E+03 -0.68561293154E+02 -0.17121805754E+03  0.24371443532E+03  0.00000000000E+00 0.  1.
          1    1    3    3  501    0 -0.18609111618E+03  0.41058524301E+02  0.11745096067E+03  0.22385359970E+03  0.00000000000E+00 0.  1.
         21    1    1    2  502  501  0.26778681523E+02  0.27502768852E+02  0.11369761289E+02  0.40034629391E+02  0.00000000000E+00 0.  1.
<scales pt_clust_4="550.00000" pt_clust_5="550.00000" pt_clust_6="38.38620"></scales>
<mgrwt>
<rscale>  0 0.30000000E+03</rscale>
<asrwt>  1 0.38386196E+02</asrwt>
<pdfrwt beam="1">  1        1 0.84582787E+00 0.30000000E+03</pdfrwt>
<pdfrwt beam="2">0</pdfrwt>
<totfact> 0.43676366E-04</totfact>
</mgrwt>
<clustering>
<clus scale="   38.386">  1  6  2 -1</clus>
<clus scale="  462.877">  4  5 -1 -1</clus>
<clus scale="  300.000">  1  4  2 -1</clus>
</clustering>
</event>
<event>
 6    1  0.9843879E-012  0.3000000E+03  0.7818608E-02  0.1093470E+00
          1   -1    0    0  502    0  0.00000000000E+00  0.00000000000E+00  0.23804465015E+03  0.23804465015E+03  0.00000000000E+00 0.  1.
         13   -1    0    0    0    0 -0.00000000000E+00 -0.00000000000E+00 -0.27500000000E+03  0.27500000000E+03  0.00000000000E+00 0.  1.
    9000005    2    1    2  501    0 -0.21837524558E+02  0.22727340522E+02 -0.46865471918E+02  0.48000497694E+03  0.47667074165E+03 0.  0.
         13    1    3    3    0    0  0.21784506480E+02 -0.12563736999E+03 -0.21600007582E+03  0.25082931690E+03  0.00000000000E+00 0.  1.
          3    1    3    3  501    0 -0.43622031038E+02  0.14836471051E+03  0.16913460391E+03  0.22917566004E+03  0.00000000000E+00 0.  1.
         21    1    1    2  502  501  0.21837524558E+02 -0.22727340522E+02  0.99101220648E+01  0.33039673203E+02  0.00000000000E+00 0. -1.
<scales pt_clust_4="550.00000" pt_clust_5="550.00000" pt_clust_6="31.51840"></scales>
<mgrwt>
<rscale>  0 0.30000000E+03</rscale>
<asrwt>  1 0.31518399E+02</asrwt>
<pdfrwt beam="1">  1        1 0.86561691E+00 0.30000000E+03</pdfrwt>
<pdfrwt beam="2">0</pdfrwt>
<totfact> 0.28700097E-04</totfact>
</mgrwt>
<clustering>
<clus scale="   31.518">  1  6  2 -1</clus>
<clus scale="  476.671">  4  5 -1 -1</clus>
<clus scale="  300.000">  1  4  2 -1</clus>
</clustering>
</event>
<event>
 6    1  0.9843879E-012  0.3000000E+03  0.7818608E-02  0.1093470E+00
          1   -1    0    0  502    0  0.00000000000E+00  0.00000000000E+00  0.22096368179E+03  0.22096368179E+03  0.00000000000E+00 0.  1.
         13   -1    0    0    0    0 -0.00000000000E+00 -0.00000000000E+00 -0.27500000000E+03  0.27500000000E+03  0.00000000000E+00 0.  1.
    9000005    2    1    2  501    0  0.34209892001E+02  0.61019410143E+01 -0.51438742790E+02  0.46111690585E+03  0.45691936511E+03 0.  0.
         13    1    3    3    0    0 -0.17305081817E+03 -0.10281385525E+03  0.47689165181E+02  0.20686113936E+03  0.00000000000E+00 0.  1.
          1    1    3    3  501    0  0.20726071017E+03  0.10891579627E+03 -0.99127907972E+02  0.25425576649E+03  0.00000000000E+00 0.  1.
         21    1    1    2  502  501 -0.34209892001E+02 -0.61019410143E+01 -0.25975754223E+01  0.34846775934E+02  0.00000000000E+00 0.  1.
<scales pt_clust_4="550.00000" pt_clust_5="550.00000" pt_clust_6="34.74983"></scales>
<mgrwt>
<rscale>  0 0.30000000E+03</rscale>
<asrwt>  1 0.34749826E+02</asrwt>
<pdfrwt beam="1">  1        1 0.80350430E+00 0.30000000E+03</pdfrwt>
<pdfrwt beam="2">0</pdfrwt>
<totfact> 0.97911586E-04</totfact>
</mgrwt>
<clustering>
<clus scale="   34.750">  1  6  2 -1</clus>
<clus scale="  456.919">  4  5 -1 -1</clus>
<clus scale="  300.000">  1  4  2 -1</clus>
</clustering>
</event>
<event>
 6    1  0.9843879E-012  0.3000000E+03  0.7818608E-02  0.1093470E+00
          1   -1    0    0  502    0  0.00000000000E+00  0.00000000000E+00  0.21908609199E+03  0.21908609199E+03  0.00000000000E+00 0.  1.
         13   -1    0    0    0    0 -0.00000000000E+00 -0.00000000000E+00 -0.27500000000E+03  0.27500000000E+03  0.00000000000E+00 0.  1.
    9000005    2    1    2  501    0  0.38948196618E+01  0.31505225619E+02 -0.59860143953E+02  0.46209669312E+03  0.45710214187E+03 0.  0.
         13    1    3    3    0    0  0.20717917179E+03 -0.79544905278E+02 -0.62089995894E+02  0.23044688926E+03  0.00000000000E+00 0.  1.
          3    1    3    3  501    0 -0.20328435213E+03  0.11105013090E+03  0.22298519406E+01  0.23164980387E+03  0.00000000000E+00 0.  1.
         21    1    1    2  502  501 -0.38948196618E+01 -0.31505225619E+02  0.39462359393E+01  0.31989398862E+02  0.00000000000E+00 0. -1.
<scales pt_clust_4="550.00000" pt_clust_5="550.00000" pt_clust_6="31.74506"></scales>
<mgrwt>
<rscale>  0 0.30000000E+03</rscale>
<asrwt>  1 0.31745060E+02</asrwt>
<pdfrwt beam="1">  1        1 0.79667670E+00 0.30000000E+03</pdfrwt>
<pdfrwt beam="2">0</pdfrwt>
<totfact> 0.11166988E-03</totfact>
</mgrwt>
<clustering>
<clus scale="   31.745">  1  6  2 -1</clus>
<clus scale="  457.102">  4  5 -1 -1</clus>
<clus scale="  300.000">  1  4  2 -1</clus>
</clustering>
</event>
<event>
 6    1  0.9843879E-012  0.3000000E+03  0.7818608E-02  0.1093470E+00
          1   -1    0    0  502    0  0.00000000000E+00  0.00000000000E+00  0.23243317290E+03  0.23243317290E+03  0.00000000000E+00 0.  1.
         13   -1    0    0    0    0 -0.00000000000E+00 -0.00000000000E+00 -0.27500000000E+03  0.27500000000E+03  0.00000000000E+00 0.  1.
    9000005    2    1    2  501    0  0.31346941497E+02 -0.21323726690E+02 -0.36673133317E+02  0.46906563861E+03  0.46609046606E+03 0.  0.
         13    1    3    3    0    0  0.12157927838E+03 -0.70250106578E+02 -0.21881478816E+03  0.25999328822E+03  0.00000000000E+00 0.  1.
          1    1    3    3  501    0 -0.90232336879E+02  0.48926379888E+02  0.18214165484E+03  0.20907235039E+03  0.00000000000E+00 0.  1.
         21    1    1    2  502  501 -0.31346941497E+02  0.21323726690E+02 -0.58936937823E+01  0.38367534291E+02  0.00000000000E+00 0.  1.
<scales pt_clust_4="550.00000" pt_clust_5="550.00000" pt_clust_6="37.91218"></scales>
<mgrwt>
<rscale>  0 0.30000000E+03</rscale>
<asrwt>  1 0.37912181E+02</asrwt>
<pdfrwt beam="1">  1        1 0.84521154E+00 0.30000000E+03</pdfrwt>
<pdfrwt beam="2">0</pdfrwt>
<totfact> 0.44327399E-04</totfact>
</mgrwt>
<clustering>
<clus scale="   37.912">  1  6  2 -1</clus>
<clus scale="  466.090">  4  5 -1 -1</clus>
<clus scale="  300.000">  1  4  2 -1</clus>
</clustering>
</event>
<event>
 6    1  0.9843879E-012  0.3000000E+03  0.7818608E-02  0.1093470E+00
          1   -1    0    0  502    0  0.00000000000E+00  0.00000000000E+00  0.23620144131E+03  0.23620144131E+03  0.00000000000E+00 0.  1.
         13   -1    0    0    0    0 -0.00000000000E+00 -0.00000000000E+00 -0.27500000000E+03  0.27500000000E+03  0.00000000000E+00 0.  1.
    9000005    2    1    2  501    0  0.33593054212E+02 -0.20801869251E+02 -0.35476535297E+02  0.47154987268E+03  0.46855041011E+03 0.  0.
         13    1    3    3    0    0 -0.14486882045E+02  0.58790127607E+02 -0.23965969905E+03  0.24719004875E+03  0.00000000000E+00 0.  1.
          1    1    3    3  501    0  0.48079936257E+02 -0.79591996858E+02  0.20418316375E+03  0.22435982393E+03  0.00000000000E+00 0.  1.
         21    1    1    2  502  501 -0.33593054212E+02  0.20801869251E+02 -0.33220233911E+01  0.39651568632E+02  0.00000000000E+00 0.  1.
<scales pt_clust_4="550.00000" pt_clust_5="550.00000" pt_clust_6="39.51218"></scales>
<mgrwt>
<rscale>  0 0.30000000E+03</rscale>
<asrwt>  1 0.39512183E+02</asrwt>
<pdfrwt beam="1">  1        1 0.85891433E+00 0.30000000E+03</pdfrwt>
<pdfrwt beam="2">0</pdfrwt>
<totfact> 0.32479243E-04</totfact>
</mgrwt>
<clustering>
<clus scale="   39.512">  1  6  2 -1</clus>
<clus scale="  468.550">  4  5 -1 -1</clus>
<clus scale="  300.000">  1  4  2 -1</clus>
</clustering>
</event>
<event>
 6    1  0.9843879E-012  0.3000000E+03  0.7818608E-02  0.1093470E+00
          1   -1    0    0  502    0  0.00000000000E+00  0.00000000000E+00  0.22605333246E+03  0.22605333246E+03  0.00000000000E+00 0.  1.
         13   -1    0    0    0    0 -0.00000000000E+00 -0.00000000000E+00 -0.27500000000E+03  0.27500000000E+03  0.00000000000E+00 0.  1.
    9000005    2    1    2  501    0 -0.12578896371E+02 -0.33979380485E+02 -0.38864196806E+02  0.46344371736E+03  0.46038769144E+03 0.  0.
         13    1    3    3    0    0 -0.10401564544E+03 -0.18236451884E+03  0.10748149134E+03  0.23585661578E+03  0.00000000000E+00 0.  1.
          3    1    3    3  501    0  0.91436749071E+02  0.14838513835E+03 -0.14634568815E+03  0.22758710158E+03  0.00000000000E+00 0.  1.
         21    1    1    2  502  501  0.12578896371E+02  0.33979380485E+02 -0.10082470734E+02  0.37609615103E+02  0.00000000000E+00 0. -1.
<scales pt_clust_4="550.00000" pt_clust_5="550.00000" pt_clust_6="36.23297"></scales>
<mgrwt>
<rscale>  0 0.30000000E+03</rscale>
<asrwt>  1 0.36232972E+02</asrwt>
<pdfrwt beam="1">  1        1 0.82201212E+00 0.30000000E+03</pdfrwt>
<pdfrwt beam="2">0</pdfrwt>
<totfact> 0.69002898E-04</totfact>
</mgrwt>
<clustering>
<clus scale="   36.233">  1  6  2 -1</clus>
<clus scale="  460.388">  4  5 -1 -1</clus>
<clus scale="  300.000">  1  4  2 -1</clus>
</clustering>
</event>
<event>
 6    1  0.9843879E-012  0.3000000E+03  0.7818608E-02  0.1093470E+00
          1   -1    0    0  502    0  0.00000000000E+00  0.00000000000E+00  0.23971592034E+03  0.23971592034E+03  0.00000000000E+00 0.  1.
         13   -1    0    0    0    0 -0.00000000000E+00 -0.00000000000E+00 -0.27500000000E+03  0.27500000000E+03  0.00000000000E+00 0.  1.
    9000005    2    1    2  501    0  0.20188062874E+02  0.30661350963E+02 -0.52563800019E+02  0.47414172828E+03  0.46978691882E+03 0.  0.
         13    1    3    3    0    0  0.12655728131E+03 -0.15198907782E+02  0.17634739309E+03  0.21759171699E+03  0.00000000000E+00 0.  1.
          3    1    3    3  501    0 -0.10636921843E+03  0.45860258745E+02 -0.22891119311E+03  0.25655001129E+03  0.00000000000E+00 0.  1.
         21    1    1    2  502  501 -0.20188062874E+02 -0.30661350963E+02  0.17279720355E+02  0.40574192057E+02  0.00000000000E+00 0.  1.
<scales pt_clust_4="550.00000" pt_clust_5="550.00000" pt_clust_6="36.71071"></scales>
<mgrwt>
<rscale>  0 0.30000000E+03</rscale>
<asrwt>  1 0.36710711E+02</asrwt>
<pdfrwt beam="1">  1        1 0.87169426E+00 0.30000000E+03</pdfrwt>
<pdfrwt beam="2">0</pdfrwt>
<totfact> 0.24120875E-04</totfact>
</mgrwt>
<clustering>
<clus scale="   36.711">  1  6  2 -1</clus>
<clus scale="  469.787">  4  5 -1 -1</clus>
<clus scale="  300.000">  1  4  2 -1</clus>
</clustering>
</event>
<event>
 6    1  0.9843879E-012  0.3000000E+03  0.7818608E-02  0.1093470E+00
          1   -1    0    0  502    0  0.00000000000E+00  0.00000000000E+00  0.22887793662E+03  0.22887793662E+03  0.00000000000E+00 0.  1.
         13   -1    0    0    0    0 -0.00000000000E+00 -0.00000000000E+00 -0.27500000000E+03  0.27500000000E+03  0.00000000000E+00 0.  1.
    9000005    2    1    2  501    0 -0.75092694643E+00 -0.40292854793E+02 -0.36494684976E+02  0.46244408026E+03  0.45923696203E+03 0.  0.
         13    1    3    3    0    0 -0.13650643116E+03  0.13294714084E+03 -0.12207227340E+03  0.22629756503E+03  0.00000000000E+00 0.  1.
          1    1    3    3  501    0  0.13575550421E+03 -0.17323999563E+03  0.85577588428E+02  0.23614651522E+03  0.00000000000E+00 0.  1.
         21    1    1    2  502  501  0.75092694643E+00  0.40292854793E+02 -0.96273783997E+01  0.41433856368E+02  0.00000000000E+00 0. -1.
<scales pt_clust_4="550.00000" pt_clust_5="550.00000" pt_clust_6="40.29987"></scales>
<mgrwt>
<rscale>  0 0.30000000E+03</rscale>
<asrwt>  1 0.40299872E+02</asrwt>
<pdfrwt beam="1">  1        1 0.83228341E+00 0.30000000E+03</pdfrwt>
<pdfrwt beam="2">0</pdfrwt>
<totfact> 0.55226189E-04</totfact>
</mgrwt>
<clustering>
<clus scale="   40.300">  1  6  2 -1</clus>
<clus scale="  459.237">  4  5 -1 -1</clus>
<clus scale="  300.000">  1  4  2 -1</clus>
</clustering>
</event>
<event>
 6    1  0.9843879E-012  0.3000000E+03  0.7818608E-02  0.1093470E+00
          1   -1    0    0  502    0  0.00000000000E+00  0.00000000000E+00  0.24716140294E+03  0.24716140294E+03  0.00000000000E+00 0.  1.
         13   -1    0    0    0    0 -0.00000000000E+00 -0.00000000000E+00 -0.27500000000E+03  0.27500000000E+03  0.00000000000E+00 0.  1.
    9000005    2    1    2  501    0 -0.11867101933E+02  0.41106635709E+02 -0.64971010871E+02  0.46550983841E+03  0.45896360836E+03 0.  0.
         13    1    3    3    0    0  0.20908790344E+03  0.99566683015E+02 -0.46502560507E+02  0.23620703602E+03  0.00000000000E+00 0.  1.
          1    1    3    3  501    0 -0.22095500537E+03 -0.58460047306E+02 -0.18468450364E+02  0.22930280240E+03  0.00000000000E+00 0.  1.
         21    1    1    2  502  501  0.11867101933E+02 -0.41106635709E+02  0.37132413807E+02  0.56651564522E+02  0.00000000000E+00 0. -1.
<scales pt_clust_4="550.00000" pt_clust_5="550.00000" pt_clust_6="42.78532"></scales>
<mgrwt>
<rscale>  0 0.30000000E+03</rscale>
<asrwt>  1 0.42785320E+02</asrwt>
<pdfrwt beam="1">  1        1 0.89876874E+00 0.30000000E+03</pdfrwt>
<pdfrwt beam="2">0</pdfrwt>
<totfact> 0.11017301E-04</totfact>
</mgrwt>
<clustering>
<clus scale="   42.785">  1  6  2 -1</clus>
<clus scale="  458.964">  4  5 -1 -1</clus>
<clus scale="  300.000">  1  4  2 -1</clus>
</clustering>
</event>
<event>
 6    1  0.9843879E-012  0.3000000E+03  0.7818608E-02  0.1093470E+00
          1   -1    0    0  502    0  0.00000000000E+00  0.00000000000E+00  0.22054013192E+03  0.22054013192E+03  0.00000000000E+00 0.  1.
         13   -1    0    0    0    0 -0.00000000000E+00 -0.00000000000E+00 -0.27500000000E+03  0.27500000000E+03  0.00000000000E+00 0.  1.
    9000005    2    1    2  501    0  0.33961254528E+01  0.32012506203E+02 -0.58112639666E+02  0.46314141340E+03  0.45835199977E+03 0.  0.
         13    1    3    3    0    0  0.17337237770E+03  0.46085541860E+02 -0.17951694334E+03  0.25378768974E+03  0.00000000000E+00 0.  1.
          3    1    3    3  501    0 -0.16997625224E+03 -0.14073035657E+02  0.12140430367E+03  0.20935372366E+03  0.00000000000E+00 0.  1.
         21    1    1    2  502  501 -0.33961254528E+01 -0.32012506203E+02  0.36527715857E+01  0.32398718520E+02  0.00000000000E+00 0. -1.
<scales pt_clust_4="550.00000" pt_clust_5="550.00000" pt_clust_6="32.19215"></scales>
<mgrwt>
<rscale>  0 0.30000000E+03</rscale>
<asrwt>  1 0.32192145E+02</asrwt>
<pdfrwt beam="1">  1        1 0.80196412E+00 0.30000000E+03</pdfrwt>
<pdfrwt beam="2">0</pdfrwt>
<totfact> 0.10195152E-03</totfact>
</mgrwt>
<clustering>
<clus scale="   32.192">  1  6  2 -1</clus>
<clus scale="  458.352">  4  5 -1 -1</clus>
<clus scale="  300.000">  1  4  2 -1</clus>
</clustering>
</event>
<event>
 6    1  0.9843879E-012  0.3000000E+03  0.7818608E-02  0.1093470E+00
          1   -1    0    0  502    0  0.00000000000E+00  0.00000000000E+00  0.22470755697E+03  0.22470755697E+03  0.00000000000E+00 0.  1.
         13   -1    0    0    0    0 -0.00000000000E+00 -0.00000000000E+00 -0.27500000000E+03  0.27500000000E+03  0.00000000000E+00 0.  1.
    9000005    2    1    2  501    0  0.19157162000E+02  0.28843157844E+02 -0.49699616846E+02  0.46507699167E+03  0.46111563805E+03 0.  0.
         13    1    3    3    0    0  0.17671990686E+02  0.36552609046E+02 -0.25571198757E+03  0.25891506923E+03  0.00000000000E+00 0.  1.
          3    1    3    3  501    0  0.14851713139E+01 -0.77094512015E+01  0.20601237073E+03  0.20616192244E+03  0.00000000000E+00 0.  1.
         21    1    1    2  502  501 -0.19157162000E+02 -0.28843157844E+02 -0.59282618294E+00  0.34630565303E+02  0.00000000000E+00 0.  1.
<scales pt_clust_4="550.00000" pt_clust_5="550.00000" pt_clust_6="34.62549"></scales>
<mgrwt>
<rscale>  0 0.30000000E+03</rscale>
<asrwt>  1 0.34625491E+02</asrwt>
<pdfrwt beam="1">  1        1 0.81711839E+00 0.30000000E+03</pdfrwt>
<pdfrwt beam="2">0</pdfrwt>
<totfact> 0.76652308E-04</totfact>
</mgrwt>
<clustering>
<clus scale="   34.625">  1  6  2 -1</clus>
<clus scale="  461.116">  4  5 -1 -1</clus>
<clus scale="  300.000">  1  4  2 -1</clus>
</clustering>
</event>
<event>
 6    1  0.9843879E-012  0.3000000E+03  0.7818608E-02  0.1093470E+00
          1   -1    0    0  502    0  0.00000000000E+00  0.00000000000E+00  0.23625480718E+03  0.23625480718E+03  0.00000000000E+00 0.  1.
         13   -1    0    0    0    0 -0.00000000000E+00 -0.00000000000E+00 -0.27500000000E+03  0.27500000000E+03  0.00000000000E+00 0.  1.
    9000005    2    1    2  501    0 -0.51491729560E+00  0.32823478229E+02 -0.73191952393E+02  0.46367093273E+03  0.45667934713E+03 0.  0.
         13    1    3    3    0    0  0.18659230364E+03  0.14427982450E+03 -0.67135364817E+01  0.23596276636E+03  0.00000000000E+00 0.  1.
          1    1    3    3  501    0 -0.18710722093E+03 -0.11145634627E+03 -0.66478415911E+02  0.22770816637E+03  0.00000000000E+00 0.  1.
         21    1    1    2  502  501  0.51491729560E+00 -0.32823478229E+02  0.34446759571E+02  0.47583874451E+02  0.00000000000E+00 0.  1.
<scales pt_clust_4="550.00000" pt_clust_5="550.00000" pt_clust_6="32.82752"></scales>
<mgrwt>
<rscale>  0 0.30000000E+03</rscale>
<asrwt>  1 0.32827517E+02</asrwt>
<pdfrwt beam="1">  1        1 0.85910839E+00 0.30000000E+03</pdfrwt>
<pdfrwt beam="2">0</pdfrwt>
<totfact> 0.33460545E-04</totfact>
</mgrwt>
<clustering>
<clus scale="   32.828">  1  6  2 -1</clus>
<clus scale="  456.679">  4  5 -1 -1</clus>
<clus scale="  300.000">  1  4  2 -1</clus>
</clustering>
</event>
<event>
 6    1  0.9843879E-012  0.3000000E+03  0.7818608E-02  0.1093470E+00
          1   -1    0    0  502    0  0.00000000000E+00  0.00000000000E+00  0.23381141385E+03  0.23381141385E+03  0.00000000000E+00 0.  1.
         13   -1    0    0    0    0 -0.00000000000E+00 -0.00000000000E+00 -0.27500000000E+03  0.27500000000E+03  0.00000000000E+00 0.  1.
    9000005    2    1    2  501    0  0.13695076538E+02  0.36379982562E+02 -0.63892475356E+02  0.46379447440E+03  0.45772481670E+03 0.  0.
         13    1    3    3    0    0 -0.19453179470E+03  0.12452497360E+03 -0.55373640710E+02  0.23751911141E+03  0.00000000000E+00 0.  1.
          1    1    3    3  501    0  0.20822687124E+03 -0.88144991042E+02 -0.85188346460E+01  0.22627536299E+03  0.00000000000E+00 0.  1.
         21    1    1    2  502  501 -0.13695076538E+02 -0.36379982562E+02  0.22703889205E+02  0.45016939452E+02  0.00000000000E+00 0.  1.
<scales pt_clust_4="550.00000" pt_clust_5="550.00000" pt_clust_6="38.87233"></scales>
<mgrwt>
<rscale>  0 0.30000000E+03</rscale>
<asrwt>  1 0.38872333E+02</asrwt>
<pdfrwt beam="1">  1        1 0.85022332E+00 0.30000000E+03</pdfrwt>
<pdfrwt beam="2">0</pdfrwt>
<totfact> 0.39722769E-04</totfact>
</mgrwt>
<clustering>
<clus scale="   38.872">  1  6  2 -1</clus>
<clus scale="  457.725">  4  5 -1 -1</clus>
<clus scale="  300.000">  1  4  2 -1</clus>
</clustering>
</event>
<event>
 6    1  0.9843879E-012  0.3000000E+03  0.7818608E-02  0.1093470E+00
          1   -1    0    0  502    0  0.00000000000E+00  0.00000000000E+00  0.22882014411E+03  0.22882014411E+03  0.00000000000E+00 0.  1.
         13   -1    0    0    0    0 -0.00000000000E+00 -0.00000000000E+00 -0.27500000000E+03  0.27500000000E+03  0.00000000000E+00 0.  1.
    9000005    2    1    2  501    0  0.26601253166E+02  0.17008594050E+02 -0.39941240343E+02  0.47163568722E+03  0.46887951527E+03 0.  0.
         13    1    3    3    0    0 -0.11571189601E+03 -0.19858341128E+02  0.17529884331E+03  0.21098170787E+03  0.00000000000E+00 0.  1.
          1    1    3    3  501    0  0.14231314918E+03  0.36866935178E+02 -0.21524008366E+03  0.26065397935E+03  0.00000000000E+00 0.  1.
         21    1    1    2  502  501 -0.26601253166E+02 -0.17008594050E+02 -0.62386155424E+01  0.32184456893E+02  0.00000000000E+00 0. -1.
<scales pt_clust_4="550.00000" pt_clust_5="550.00000" pt_clust_6="31.57404"></scales>
<mgrwt>
<rscale>  0 0.30000000E+03</rscale>
<asrwt>  1 0.31574039E+02</asrwt>
<pdfrwt beam="1">  1        1 0.83207325E+00 0.30000000E+03</pdfrwt>
<pdfrwt beam="2">0</pdfrwt>
<totfact> 0.58011837E-04</totfact>
</mgrwt>
<clustering>
<clus scale="   31.574">  1  6  2 -1</clus>
<clus scale="  468.880">  4  5 -1 -1</clus>
<clus scale="  300.000">  1  4  2 -1</clus>
</clustering>
</event>
<event>
 6    1  0.9843879E-012  0.3000000E+03  0.7818608E-02  0.1093470E+00
          1   -1    0    0  502    0  0.00000000000E+00  0.00000000000E+00  0.25117597897E+03  0.25117597897E+03  0.00000000000E+00 0.  1.
         13   -1    0    0    0    0 -0.00000000000E+00 -0.00000000000E+00 -0.27500000000E+03  0.27500000000E+03  0.00000000000E+00 0.  1.
    9000005    2    1    2  501    0  0.41384749879E+02 -0.37470106142E+01 -0.29334563535E+02  0.48425815830E+03  0.48157939081E+03 0.  0.
         13    1    3    3    0    0 -0.48641104430E+02  0.22708351782E+03 -0.42724268969E+02  0.23613183662E+03  0.00000000000E+00 0.  1.
          3    1    3    3  501    0  0.90025854309E+02 -0.23083052843E+03  0.13389705434E+02  0.24812632168E+03  0.00000000000E+00 0.  1.
         21    1    1    2  502  501 -0.41384749879E+02  0.37470106142E+01  0.55105425095E+01  0.41917820672E+02  0.00000000000E+00 0. -1.
<scales pt_clust_4="550.00000" pt_clust_5="550.00000" pt_clust_6="41.55403"></scales>
<mgrwt>
<rscale>  0 0.30000000E+03</rscale>
<asrwt>  1 0.41554032E+02</asrwt>
<pdfrwt beam="1">  1        1 0.91336720E+00 0.30000000E+03</pdfrwt>
<pdfrwt beam="2">0</pdfrwt>
<totfact> 0.57422091E-05</totfact>
</mgrwt>
<clustering>
<clus scale="   41.554">  1  6  2 -1</clus>
<clus scale="  481.579">  4  5 -1 -1</clus>
<clus scale="  300.000">  1  4  2 -1</clus>
</clustering>
</event>
<event>
 6    1  0.9843879E-012  0.3000000E+03  0.7818608E-02  0.1093470E+00
          1   -1    0    0  502    0  0.00000000000E+00  0.00000000000E+00  0.24421594070E+03  0.24421594070E+03  0.00000000000E+00 0.  1.
         13   -1    0    0    0    0 -0.00000000000E+00 -0.00000000000E+00 -0.27500000000E+03  0.27500000000E+03  0.00000000000E+00 0.  1.
    9000005    2    1    2  501    0 -0.35775216620E+02 -0.28419082037E+02 -0.23174331169E+02  0.47289728020E+03  0.47011411130E+03 0.  0.
         13    1    3    3    0    0  0.76333080595E+00 -0.31717005323E+02  0.22237278551E+03  0.22462459090E+03  0.00000000000E+00 0.  1.
          1    1    3    3  501    0 -0.36538547426E+02  0.32979232864E+01 -0.24554711668E+03  0.24827268930E+03  0.00000000000E+00 0.  1.
         21    1    1    2  502  501  0.35775216620E+02  0.28419082037E+02 -0.76097281329E+01  0.46318660498E+02  0.00000000000E+00 0. -1.
<scales pt_clust_4="550.00000" pt_clust_5="550.00000" pt_clust_6="45.68930"></scales>
<mgrwt>
<rscale>  0 0.30000000E+03</rscale>
<asrwt>  1 0.45689303E+02</asrwt>
<pdfrwt beam="1">  1        1 0.88805797E+00 0.30000000E+03</pdfrwt>
<pdfrwt beam="2">0</pdfrwt>
<totfact> 0.14669943E-04</totfact>
</mgrwt>
<clustering>
<clus scale="   45.689">  1  6  2 -1</clus>
<clus scale="  470.114">  4  5 -1 -1</clus>
<clus scale="  300.000">  1  4  2 -1</clus>
</clustering>
</event>
<event>
 6    1  0.9843879E-012  0.3000000E+03  0.7818608E-02  0.1093470E+00
          1   -1    0    0  502    0  0.00000000000E+00  0.00000000000E+00  0.22991957973E+03  0.22991957973E+03  0.00000000000E+00 0.  1.
         13   -1    0    0    0    0 -0.00000000000E+00 -0.00000000000E+00 -0.27500000000E+03  0.27500000000E+03  0.00000000000E+00 0.  1.
    9000005    2    1    2  501    0  0.81386769945E+01  0.34244249805E+02 -0.35144937459E+02  0.46834608486E+03  0.46569730713E+03 0.  0.
         13    1    3    3    0    0  0.20603750027E+03  0.31283707373E+02 -0.13333905095E+03  0.24740538469E+03  0.00000000000E+00 0.  1.
          1    1    3    3  501    0 -0.19789882328E+03  0.29605424319E+01  0.98194113490E+02  0.22094070017E+03  0.00000000000E+00 0.  1.
         21    1    1    2  502  501 -0.81386769945E+01 -0.34244249805E+02 -0.99354828160E+01  0.36573494866E+02  0.00000000000E+00 0.  1.
<scales pt_clust_4="550.00000" pt_clust_5="550.00000" pt_clust_6="35.19812"></scales>
<mgrwt>
<rscale>  0 0.30000000E+03</rscale>
<asrwt>  1 0.35198124E+02</asrwt>
<pdfrwt beam="1">  1        1 0.83607120E+00 0.30000000E+03</pdfrwt>
<pdfrwt beam="2">0</pdfrwt>
<totfact> 0.53081316E-04</totfact>
</mgrwt>
<clustering>
<clus scale="   35.198">  1  6  2 -1</clus>
<clus scale="  465.697">  4  5 -1 -1</clus>
<clus scale="  300.000">  1  4  2 -1</clus>
</clustering>
</event>
<event>
 6    1  0.9843879E-012  0.3000000E+03  0.7818608E-02  0.1093470E+00
          1   -1    0    0  502    0  0.00000000000E+00  0.00000000000E+00  0.24859763869E+03  0.24859763869E+03  0.00000000000E+00 0.  1.
         13   -1    0    0    0    0 -0.00000000000E+00 -0.00000000000E+00 -0.27500000000E+03  0.27500000000E+03  0.00000000000E+00 0.  1.
    9000005    2    1    2  501    0  0.19245853221E+02  0.37066675829E+02 -0.62403546929E+02  0.46845757441E+03  0.46240021088E+03 0.  0.
         13    1    3    3    0    0 -0.18155446396E+03  0.14666741980E+03 -0.53884459754E+02  0.23953473739E+03  0.00000000000E+00 0.  1.
          3    1    3    3  501    0  0.20080031718E+03 -0.10960074397E+03 -0.85190871747E+01  0.22892283701E+03  0.00000000000E+00 0.  1.
         21    1    1    2  502  501 -0.19245853221E+02 -0.37066675829E+02  0.36001185619E+02  0.55140064283E+02  0.00000000000E+00 0. -1.
<scales pt_clust_4="550.00000" pt_clust_5="550.00000" pt_clust_6="41.76531"></scales>
<mgrwt>
<rscale>  0 0.30000000E+03</rscale>
<asrwt>  1 0.41765312E+02</asrwt>
<pdfrwt beam="1">  1        1 0.90399141E+00 0.30000000E+03</pdfrwt>
<pdfrwt beam="2">0</pdfrwt>
<totfact> 0.93369566E-05</totfact>
</mgrwt>
<clustering>
<clus scale="   41.765">  1  6  2 -1</clus>
<clus scale="  462.400">  4  5 -1 -1</clus>
<clus scale="  300.000">  1  4  2 -1</clus>
</clustering>
</event>
<event>
 6    1  0.9843879E-012  0.3000000E+03  0.7818608E-02  0.1093470E+00
          1   -1    0    0  502    0  0.00000000000E+00  0.00000000000E+00  0.27360273813E+03  0.27360273813E+03  0.00000000000E+00 0.  1.
         13   -1    0    0    0    0 -0.00000000000E+00 -0.00000000000E+00 -0.27500000000E+03  0.27500000000E+03  0.00000000000E+00 0.  1.
    9000005    2    1    2  501    0 -0.15336010569E+02  0.51894712320E+02 -0.29997975773E+02  0.48739607818E+03  0.48345300090E+03 0.  0.
         13    1    3    3    0    0 -0.22806229792E+02  0.13011712857E+03 -0.23403927234E+03  0.26874704140E+03  0.00000000000E+00 0.  1.
          3    1    3    3  501    0  0.74702192233E+01 -0.78222416250E+02  0.20404129656E+03  0.21864903678E+03  0.00000000000E+00 0.  1.
         21    1    1    2  502  501  0.15336010569E+02 -0.51894712320E+02  0.28600713901E+02  0.61206659953E+02  0.00000000000E+00 0.  1.
<scales pt_clust_4="550.00000" pt_clust_5="550.00000" pt_clust_6="54.11335"></scales>
<mgrwt>
<rscale>  0 0.30000000E+03</rscale>
<asrwt>  1 0.54113348E+02</asrwt>
<pdfrwt beam="1">  1        1 0.99491905E+00 0.30000000E+03</pdfrwt>
<pdfrwt beam="2">0</pdfrwt>
<totfact> 0.31713181E-07</totfact>
</mgrwt>
<clustering>
<clus scale="   54.113">  1  6  2 -1</clus>
<clus scale="  483.453">  4  5 -1 -1</clus>
<clus scale="  300.000">  1  4  2 -1</clus>
</clustering>
</event>
<event>
 6    1  0.9843879E-012  0.3000000E+03  0.7818608E-02  0.1093470E+00
          1   -1    0    0  502    0  0.00000000000E+00  0.00000000000E+00  0.22800025234E+03  0.22800025234E+03  0.00000000000E+00 0.  1.
         13   -1    0    0    0    0 -0.00000000000E+00 -0.00000000000E+00 -0.27500000000E+03  0.27500000000E+03  0.00000000000E+00 0.  1.
    9000005    2    1    2  501    0 -0.27812049998E+02 -0.20570629783E+02 -0.41484172090E+02  0.46797051485E+03  0.46484277482E+03 0.  0.
         13    1    3    3    0    0  0.61418787291E+02  0.14927578410E+02 -0.23960524694E+03  0.24780188537E+03  0.00000000000E+00 0.  1.
          3    1    3    3  501    0 -0.89230837289E+02 -0.35498208194E+02  0.19812107485E+03  0.22016862948E+03  0.00000000000E+00 0.  1.
         21    1    1    2  502  501  0.27812049998E+02  0.20570629783E+02 -0.55155755707E+01  0.35029737490E+02  0.00000000000E+00 0. -1.
<scales pt_clust_4="550.00000" pt_clust_5="550.00000" pt_clust_6="34.59280"></scales>
<mgrwt>
<rscale>  0 0.30000000E+03</rscale>
<asrwt>  1 0.34592805E+02</asrwt>
<pdfrwt beam="1">  1        1 0.82909183E+00 0.30000000E+03</pdfrwt>
<pdfrwt beam="2">0</pdfrwt>
<totfact> 0.60276516E-04</totfact>
</mgrwt>
<clustering>
<clus scale="   34.593">  1  6  2 -1</clus>
<clus scale="  464.843">  4  5 -1 -1</clus>
<clus scale="  300.000">  1  4  2 -1</clus>
</clustering>
</event>
<event>
 6    1  0.9843879E-012  0.3000000E+03  0.7818608E-02  0.1093470E+00
          1   -1    0    0  502    0  0.00000000000E+00  0.00000000000E+00  0.23526779170E+03  0.23526779170E+03  0.00000000000E+00 0.  1.
         13   -1    0    0    0    0 -0.00000000000E+00 -0.00000000000E+00 -0.27500000000E+03  0.27500000000E+03  0.00000000000E+00 0.  1.
    9000005    2    1    2  501    0 -0.22513888421E+02 -0.24285243388E+02 -0.71284188895E+02  0.46452748455E+03  0.45782933512E+03 0.  0.
         13    1    3    3    0    0  0.95359224970E+02 -0.21402223957E+03 -0.18692220916E+02  0.23504956911E+03  0.00000000000E+00 0.  1.
          1    1    3    3  501    0 -0.11787311339E+03  0.18973699618E+03 -0.52591967979E+02  0.22947791544E+03  0.00000000000E+00 0.  1.
         21    1    1    2  502  501  0.22513888421E+02  0.24285243388E+02  0.31551980591E+02  0.45740307142E+02  0.00000000000E+00 0. -1.
<scales pt_clust_4="550.00000" pt_clust_5="550.00000" pt_clust_6="33.11568"></scales>
<mgrwt>
<rscale>  0 0.30000000E+03</rscale>
<asrwt>  1 0.33115679E+02</asrwt>
<pdfrwt beam="1">  1        1 0.85551924E+00 0.30000000E+03</pdfrwt>
<pdfrwt beam="2">0</pdfrwt>
<totfact> 0.36378605E-04</totfact>
</mgrwt>
<clustering>
<clus scale="   33.116">  1  6  2 -1</clus>
<clus scale="  457.829">  4  5 -1 -1</clus>
<clus scale="  300.000">  1  4  2 -1</clus>
</clustering>
</event>
<event>
 6    1  0.9843879E-012  0.3000000E+03  0.7818608E-02  0.1093470E+00
          1   -1    0    0  502    0  0.00000000000E+00  0.00000000000E+00  0.22727572616E+03  0.22727572616E+03  0.00000000000E+00 0.  1.
         13   -1    0    0    0    0 -0.00000000000E+00 -0.00000000000E+00 -0.27500000000E+03  0.27500000000E+03  0.00000000000E+00 0.  1.
    9000005    2    1    2  501    0  0.34396534946E+02 -0.10002626649E+02 -0.58801650645E+02  0.46478062737E+03  0.45965228522E+03 0.  0.
         13    1    3    3    0    0  0.10255025072E+03  0.18931758231E+02 -0.24398882363E+03  0.26534036905E+03  0.00000000000E+00 0.  1.
          1    1    3    3  501    0 -0.68153715773E+02 -0.28934384880E+02  0.18518717298E+03  0.19944025832E+03  0.00000000000E+00 0.  1.
         21    1    1    2  502  501 -0.34396534946E+02  0.10002626649E+02  0.11077376801E+02  0.37495098786E+02  0.00000000000E+00 0. -1.
<scales pt_clust_4="550.00000" pt_clust_5="550.00000" pt_clust_6="35.82142"></scales>
<mgrwt>
<rscale>  0 0.30000000E+03</rscale>
<asrwt>  1 0.35821420E+02</asrwt>
<pdfrwt beam="1">  1        1 0.82645719E+00 0.30000000E+03</pdfrwt>
<pdfrwt beam="2">0</pdfrwt>
<totfact> 0.63123463E-04</totfact>
</mgrwt>
<clustering>
<clus scale="   35.821">  1  6  2 -1</clus>
<clus scale="  459.652">  4  5 -1 -1</clus>
<clus scale="  300.000">  1  4  2 -1</clus>
</clustering>
</event>
<event>
 6    1  0.9843879E-012  0.3000000E+03  0.7818608E-02  0.1093470E+00
          1   -1    0    0  502    0  0.00000000000E+00  0.00000000000E+00  0.21911566479E+03  0.21911566479E+03  0.00000000000E+00 0.  1.
         13   -1    0    0    0    0 -0.00000000000E+00 -0.00000000000E+00 -0.27500000000E+03  0.27500000000E+03  0.00000000000E+00 0.  1.
    9000005    2    1    2  501    0  0.93403509854E+01 -0.31301270809E+02 -0.52081809262E+02  0.46122993970E+03  0.45711435190E+03 0.  0.
         13    1    3    3    0    0  0.14198754153E+02  0.18808492550E+03 -0.12920749968E+03  0.22863097295E+03  0.00000000000E+00 0.  1.
          3    1    3    3  501    0 -0.48584031675E+01 -0.21938619631E+03  0.77125690416E+02  0.23259896675E+03  0.00000000000E+00 0.  1.
         21    1    1    2  502  501 -0.93403509854E+01  0.31301270809E+02 -0.38025259526E+01  0.32885725085E+02  0.00000000000E+00 0.  1.
<scales pt_clust_4="550.00000" pt_clust_5="550.00000" pt_clust_6="32.66516"></scales>
<mgrwt>
<rscale>  0 0.30000000E+03</rscale>
<asrwt>  1 0.32665162E+02</asrwt>
<pdfrwt beam="1">  1        1 0.79678424E+00 0.30000000E+03</pdfrwt>
<pdfrwt beam="2">0</pdfrwt>
<totfact> 0.11086388E-03</totfact>
</mgrwt>
<clustering>
<clus scale="   32.665">  1  6  2 -1</clus>
<clus scale="  457.114">  4  5 -1 -1</clus>
<clus scale="  300.000">  1  4  2 -1</clus>
</clustering>
</event>
<event>
 6    1  0.9843879E-012  0.3000000E+03  0.7818608E-02  0.1093470E+00
          1   -1    0    0  502    0  0.00000000000E+00  0.00000000000E+00  0.24707846995E+03  0.24707846995E+03  0.00000000000E+00 0.  1.
         13   -1    0    0    0    0 -0.00000000000E+00 -0.00000000000E+00 -0.27500000000E+03  0.27500000000E+03  0.00000000000E+00 0.  1.
    9000005    2    1    2  501    0  0.39046160063E+02 -0.62482284044E+01 -0.70565508496E+02  0.46392219882E+03  0.45681579723E+03 0.  0.
         13    1    3    3    0    0  0.11625673959E+02 -0.13518182544E+03 -0.22384664706E+03  0.26175676424E+03  0.00000000000E+00 0.  1.
          1    1    3    3  501    0  0.27420486104E+02  0.12893359704E+03  0.15328113856E+03  0.20216543459E+03  0.00000000000E+00 0.  1.
         21    1    1    2  502  501 -0.39046160063E+02  0.62482284044E+01  0.42643978451E+02  0.58156271132E+02  0.00000000000E+00 0.  1.
<scales pt_clust_4="550.00000" pt_clust_5="550.00000" pt_clust_6="39.54293"></scales>
<mgrwt>
<rscale>  0 0.30000000E+03</rscale>
<asrwt>  1 0.39542926E+02</asrwt>
<pdfrwt beam="1">  1        1 0.89846716E+00 0.30000000E+03</pdfrwt>
<pdfrwt beam="2">0</pdfrwt>
<totfact> 0.11267357E-04</totfact>
</mgrwt>
<clustering>
<clus scale="   39.543">  1  6  2 -1</clus>
<clus scale="  456.816">  4  5 -1 -1</clus>
<clus scale="  300.000">  1  4  2 -1</clus>
</clustering>
</event>
<event>
 6    1  0.9843879E-012  0.3000000E+03  0.7818608E-02  0.1093470E+00
          1   -1    0    0  502    0  0.00000000000E+00  0.00000000000E+00  0.22362723018E+03  0.22362723018E+03  0.00000000000E+00 0.  1.
         13   -1    0    0    0    0 -0.00000000000E+00 -0.00000000000E+00 -0.27500000000E+03  0.27500000000E+03  0.00000000000E+00 0.  1.
    9000005    2    1    2  501    0 -0.35577446195E+02 -0.62856999840E+01 -0.58994639519E+02  0.46170355756E+03  0.45649155838E+03 0.  0.
         13    1    3    3    0    0 -0.18773557302E+03 -0.42021885560E+02  0.11791290699E+03  0.22564117062E+03  0.00000000000E+00 0.  1.
          1    1    3    3  501    0  0.15215812682E+03  0.35736185576E+02 -0.17690754651E+03  0.23606238695E+03  0.00000000000E+00 0.  1.
         21    1    1    2  502  501  0.35577446195E+02  0.62856999840E+01  0.76218697034E+01  0.36923672621E+02  0.00000000000E+00 0. -1.
<scales pt_clust_4="550.00000" pt_clust_5="550.00000" pt_clust_6="36.12845"></scales>
<mgrwt>
<rscale>  0 0.30000000E+03</rscale>
<asrwt>  1 0.36128447E+02</asrwt>
<pdfrwt beam="1">  1        1 0.81318993E+00 0.30000000E+03</pdfrwt>
<pdfrwt beam="2">0</pdfrwt>
<totfact> 0.81825475E-04</totfact>
</mgrwt>
<clustering>
<clus scale="   36.128">  1  6  2 -1</clus>
<clus scale="  456.492">  4  5 -1 -1</clus>
<clus scale="  300.000">  1  4  2 -1</clus>
</clustering>
</event>
<event>
 6    1  0.9843879E-012  0.3000000E+03  0.7818608E-02  0.1093470E+00
          1   -1    0    0  502    0  0.00000000000E+00  0.00000000000E+00  0.24852514400E+03  0.24852514400E+03  0.00000000000E+00 0.  1.
         13   -1    0    0    0    0 -0.00000000000E+00 -0.00000000000E+00 -0.27500000000E+03  0.27500000000E+03  0.00000000000E+00 0.  1.
    9000005    2    1    2  501    0 -0.41233793210E+02 -0.36245932598E+02 -0.52719297919E+02  0.46267480247E+03  0.45637118131E+03 0.  0.
         13    1    3    3    0    0  0.10111344865E+03 -0.70112808373E+02  0.16163638617E+03  0.20314048520E+03  0.00000000000E+00 0.  1.
          1    1    3    3  501    0 -0.14234724186E+03  0.33866875774E+02 -0.21435568408E+03  0.25953431727E+03  0.00000000000E+00 0.  1.
         21    1    1    2  502  501  0.41233793210E+02  0.36245932598E+02  0.26244441915E+02  0.60850341526E+02  0.00000000000E+00 0. -1.
<scales pt_clust_4="550.00000" pt_clust_5="550.00000" pt_clust_6="54.89985"></scales>
<mgrwt>
<rscale>  0 0.30000000E+03</rscale>
<asrwt>  1 0.54899848E+02</asrwt>
<pdfrwt beam="1">  1        1 0.90372780E+00 0.30000000E+03</pdfrwt>
<pdfrwt beam="2">0</pdfrwt>
<totfact> 0.89903107E-05</totfact>
</mgrwt>
<clustering>
<clus scale="   54.900">  1  6  2 -1</clus>
<clus scale="  456.371">  4  5 -1 -1</clus>
<clus scale="  300.000">  1  4  2 -1</clus>
</clustering>
</event>
<event>
 6    1  0.9843879E-012  0.3000000E+03  0.7818608E-02  0.1093470E+00
          1   -1    0    0  502    0  0.00000000000E+00  0.00000000000E+00  0.22624836388E+03  0.22624836388E+03  0.00000000000E+00 0.  1.
         13   -1    0    0    0    0 -0.00000000000E+00 -0.00000000000E+00 -0.27500000000E+03  0.27500000000E+03  0.00000000000E+00 0.  1.
    9000005    2    1    2  501    0 -0.94949160799E+01  0.35999331800E+02 -0.54287028275E+02  0.46360867887E+03  0.45891156050E+03 0.  0.
         13    1    3    3    0    0  0.10836227303E+02  0.24539629479E+03  0.26823379775E+01  0.24565007685E+03  0.00000000000E+00 0.  1.
          3    1    3    3  501    0 -0.20331143383E+02 -0.20939696299E+03 -0.56969366253E+02  0.21795860202E+03  0.00000000000E+00 0.  1.
         21    1    1    2  502  501  0.94949160799E+01 -0.35999331800E+02  0.55353921571E+01  0.37639685011E+02  0.00000000000E+00 0.  1.
<scales pt_clust_4="550.00000" pt_clust_5="550.00000" pt_clust_6="37.23044"></scales>
<mgrwt>
<rscale>  0 0.30000000E+03</rscale>
<asrwt>  1 0.37230435E+02</asrwt>
<pdfrwt beam="1">  1        1 0.82272132E+00 0.30000000E+03</pdfrwt>
<pdfrwt beam="2">0</pdfrwt>
<totfact> 0.67667718E-04</totfact>
</mgrwt>
<clustering>
<clus scale="   37.230">  1  6  2 -1</clus>
<clus scale="  458.912">  4  5 -1 -1</clus>
<clus scale="  300.000">  1  4  2 -1</clus>
</clustering>
</event>
<event>
 6    1  0.9843879E-012  0.3000000E+03  0.7818608E-02  0.1093470E+00
          1   -1    0    0  502    0  0.00000000000E+00  0.00000000000E+00  0.23055177830E+03  0.23055177830E+03  0.00000000000E+00 0.  1.
         13   -1    0    0    0    0 -0.00000000000E+00 -0.00000000000E+00 -0.27500000000E+03  0.27500000000E+03  0.00000000000E+00 0.  1.
    9000005    2    1    2  501    0 -0.24990681869E+02 -0.19340211977E+02 -0.38875829665E+02  0.47346393742E+03  0.47080589623E+03 0.  0.
         13    1    3    3    0    0 -0.14351673317E+03  0.17619463797E+03 -0.80437968318E+02  0.24106403692E+03  0.00000000000E+00 0.  1.
          3    1    3    3  501    0  0.11852605130E+03 -0.19553484994E+03  0.41562138653E+02  0.23239990049E+03  0.00000000000E+00 0.  1.
         21    1    1    2  502  501  0.24990681869E+02  0.19340211977E+02 -0.55723920349E+01  0.32087840884E+02  0.00000000000E+00 0. -1.
<scales pt_clust_4="550.00000" pt_clust_5="550.00000" pt_clust_6="31.60030"></scales>
<mgrwt>
<rscale>  0 0.30000000E+03</rscale>
<asrwt>  1 0.31600300E+02</asrwt>
<pdfrwt beam="1">  1        1 0.83837010E+00 0.30000000E+03</pdfrwt>
<pdfrwt beam="2">0</pdfrwt>
<totfact> 0.52121414E-04</totfact>
</mgrwt>
<clustering>
<clus scale="   31.600">  1  6  2 -1</clus>
<clus scale="  470.806">  4  5 -1 -1</clus>
<clus scale="  300.000">  1  4  2 -1</clus>
</clustering>
</event>
<event>
 6    1  0.9843879E-012  0.3000000E+03  0.7818608E-02  0.1093470E+00
          1   -1    0    0  502    0  0.00000000000E+00  0.00000000000E+00  0.24153957248E+03  0.24153957248E+03  0.00000000000E+00 0.  1.
         13   -1    0    0    0    0 -0.00000000000E+00 -0.00000000000E+00 -0.27500000000E+03  0.27500000000E+03  0.00000000000E+00 0.  1.
    9000005    2    1    2  501    0 -0.56756619122E+01  0.36092597787E+02 -0.53631113184E+02  0.47480535015E+03  0.47034980119E+03 0.  0.
         13    1    3    3    0    0  0.12133007041E+03  0.15583324627E+03 -0.17364326494E+03  0.26297712845E+03  0.00000000000E+00 0.  1.
          3    1    3    3  501    0 -0.12700573232E+03 -0.11974064848E+03  0.12001215175E+03  0.21182822170E+03  0.00000000000E+00 0.  1.
         21    1    1    2  502  501  0.56756619122E+01 -0.36092597787E+02  0.20170685665E+02  0.41734222329E+02  0.00000000000E+00 0. -1.
<scales pt_clust_4="550.00000" pt_clust_5="550.00000" pt_clust_6="36.53613"></scales>
<mgrwt>
<rscale>  0 0.30000000E+03</rscale>
<asrwt>  1 0.36536129E+02</asrwt>
<pdfrwt beam="1">  1        1 0.87832572E+00 0.30000000E+03</pdfrwt>
<pdfrwt beam="2">0</pdfrwt>
<totfact> 0.20505597E-04</totfact>
</mgrwt>
<clustering>
<clus scale="   36.536">  1  6  2 -1</clus>
<clus scale="  470.350">  4  5 -1 -1</clus>
<clus scale="  300.000">  1  4  2 -1</clus>
</clustering>
</event>
<event>
 6    1  0.9843879E-012  0.3000000E+03  0.7818608E-02  0.1093470E+00
          1   -1    0    0  502    0  0.00000000000E+00  0.00000000000E+00  0.23436095005E+03  0.23436095005E+03  0.00000000000E+00 0.  1.
         13   -1    0    0    0    0 -0.00000000000E+00 -0.00000000000E+00 -0.27500000000E+03  0.27500000000E+03  0.00000000000E+00 0.  1.
    9000005    2    1    2  501    0  0.31459894949E+02 -0.17790398713E+01 -0.40236727990E+02  0.47784822507E+03  0.47510740043E+03 0.  0.
         13    1    3    3    0    0  0.22354642520E+03 -0.87182579726E+02  0.56397888492E+02  0.24648433673E+03  0.00000000000E+00 0.  1.
          3    1    3    3  501    0 -0.19208653025E+03  0.85403539855E+02 -0.96634616482E+02  0.23136388834E+03  0.00000000000E+00 0.  1.
         21    1    1    2  502  501 -0.31459894949E+02  0.17790398713E+01 -0.40232195868E+00  0.31512724986E+02  0.00000000000E+00 0. -1.
<scales pt_clust_4="550.00000" pt_clust_5="550.00000" pt_clust_6="31.51016"></scales>
<mgrwt>
<rscale>  0 0.30000000E+03</rscale>
<asrwt>  1 0.31510157E+02</asrwt>
<pdfrwt beam="1">  1        1 0.85222164E+00 0.30000000E+03</pdfrwt>
<pdfrwt beam="2">0</pdfrwt>
<totfact> 0.39546439E-04</totfact>
</mgrwt>
<clustering>
<clus scale="   31.510">  1  6  2 -1</clus>
<clus scale="  475.107">  4  5 -1 -1</clus>
<clus scale="  300.000">  1  4  2 -1</clus>
</clustering>
</event>
<event>
 6    1  0.9843879E-012  0.3000000E+03  0.7818608E-02  0.1093470E+00
          1   -1    0    0  502    0  0.00000000000E+00  0.00000000000E+00  0.24109706509E+03  0.24109706509E+03  0.00000000000E+00 0.  1.
         13   -1    0    0    0    0 -0.00000000000E+00 -0.00000000000E+00 -0.27500000000E+03  0.27500000000E+03  0.00000000000E+00 0.  1.
    9000005    2    1    2  501    0  0.39059745982E+02 -0.31860829201E+02 -0.49187344773E+02  0.46342459240E+03  0.45804168125E+03 0.  0.
         13    1    3    3    0    0 -0.11203572678E+03  0.17140048651E+03  0.32054247518E+01  0.20479356826E+03  0.00000000000E+00 0.  1.
          1    1    3    3  501    0  0.15109547276E+03 -0.20326131571E+03 -0.52392769525E+02  0.25863102415E+03  0.00000000000E+00 0.  1.
         21    1    1    2  502  501 -0.39059745982E+02  0.31860829201E+02  0.15284409859E+02  0.52672472681E+02  0.00000000000E+00 0.  1.
<scales pt_clust_4="550.00000" pt_clust_5="550.00000" pt_clust_6="50.40611"></scales>
<mgrwt>
<rscale>  0 0.30000000E+03</rscale>
<asrwt>  1 0.50406113E+02</asrwt>
<pdfrwt beam="1">  1        1 0.87671660E+00 0.30000000E+03</pdfrwt>
<pdfrwt beam="2">0</pdfrwt>
<totfact> 0.20177542E-04</totfact>
</mgrwt>
<clustering>
<clus scale="   50.406">  1  6  2 -1</clus>
<clus scale="  458.042">  4  5 -1 -1</clus>
<clus scale="  300.000">  1  4  2 -1</clus>
</clustering>
</event>
<event>
 6    1  0.9843879E-012  0.3000000E+03  0.7818608E-02  0.1093470E+00
          1   -1    0    0  502    0  0.00000000000E+00  0.00000000000E+00  0.24522576696E+03  0.24522576696E+03  0.00000000000E+00 0.  1.
         13   -1    0    0    0    0 -0.00000000000E+00 -0.00000000000E+00 -0.27500000000E+03  0.27500000000E+03  0.00000000000E+00 0.  1.
    9000005    2    1    2  501    0  0.38708451634E+02  0.22731439667E+01 -0.33735229151E+02  0.48124883915E+03  0.47849646612E+03 0.  0.
         13    1    3    3    0    0  0.20380778949E+03  0.11647980991E+03 -0.11894819701E+03  0.26316123336E+03  0.00000000000E+00 0.  1.
          1    1    3    3  501    0 -0.16509933786E+03 -0.11420666594E+03  0.85212967860E+02  0.21808760579E+03  0.00000000000E+00 0.  1.
         21    1    1    2  502  501 -0.38708451634E+02 -0.22731439667E+01  0.39609961135E+01  0.38976927811E+02  0.00000000000E+00 0.  1.
<scales pt_clust_4="550.00000" pt_clust_5="550.00000" pt_clust_6="38.77514"></scales>
<mgrwt>
<rscale>  0 0.30000000E+03</rscale>
<asrwt>  1 0.38775139E+02</asrwt>
<pdfrwt beam="1">  1        1 0.89173006E+00 0.30000000E+03</pdfrwt>
<pdfrwt beam="2">0</pdfrwt>
<totfact> 0.13511441E-04</totfact>
</mgrwt>
<clustering>
<clus scale="   38.775">  1  6  2 -1</clus>
<clus scale="  478.496">  4  5 -1 -1</clus>
<clus scale="  300.000">  1  4  2 -1</clus>
</clustering>
</event>
<event>
 6    1  0.9843879E-012  0.3000000E+03  0.7818608E-02  0.1093470E+00
          1   -1    0    0  502    0  0.00000000000E+00  0.00000000000E+00  0.26024071329E+03  0.26024071329E+03  0.00000000000E+00 0.  1.
         13   -1    0    0    0    0 -0.00000000000E+00 -0.00000000000E+00 -0.27500000000E+03  0.27500000000E+03  0.00000000000E+00 0.  1.
    9000005    2    1    2  501    0 -0.30333184642E+02 -0.21514208743E+02 -0.40590712442E+02  0.48996129386E+03  0.48685880939E+03 0.  0.
         13    1    3    3    0    0 -0.96678039881E+02 -0.11073896614E+03 -0.22845220584E+03  0.27166187139E+03  0.00000000000E+00 0.  1.
          3    1    3    3  501    0  0.66344855239E+02  0.89224757395E+02  0.18786149340E+03  0.21829942247E+03  0.00000000000E+00 0.  1.
         21    1    1    2  502  501  0.30333184642E+02  0.21514208743E+02  0.25831425732E+02  0.45279419428E+02  0.00000000000E+00 0.  1.
<scales pt_clust_4="550.00000" pt_clust_5="550.00000" pt_clust_6="37.18821"></scales>
<mgrwt>
<rscale>  0 0.30000000E+03</rscale>
<asrwt>  1 0.37188214E+02</asrwt>
<pdfrwt beam="1">  1        1 0.94632987E+00 0.30000000E+03</pdfrwt>
<pdfrwt beam="2">0</pdfrwt>
<totfact> 0.14479692E-05</totfact>
</mgrwt>
<clustering>
<clus scale="   37.188">  1  6  2 -1</clus>
<clus scale="  486.859">  4  5 -1 -1</clus>
<clus scale="  300.000">  1  4  2 -1</clus>
</clustering>
</event>
<event>
 6    1  0.9843879E-012  0.3000000E+03  0.7818608E-02  0.1093470E+00
          1   -1    0    0  502    0  0.00000000000E+00  0.00000000000E+00  0.23549207618E+03  0.23549207618E+03  0.00000000000E+00 0.  1.
         13   -1    0    0    0    0 -0.00000000000E+00 -0.00000000000E+00 -0.27500000000E+03  0.27500000000E+03  0.00000000000E+00 0.  1.
    9000005    2    1    2  501    0  0.22002428702E+02  0.30512599465E+02 -0.50311057337E+02  0.47135343429E+03  0.46714851165E+03 0.  0.
         13    1    3    3    0    0  0.41078552480E+02 -0.11160006632E+03  0.17061800709E+03  0.20797241793E+03  0.00000000000E+00 0.  1.
          1    1    3    3  501    0 -0.19076123778E+02  0.14211266578E+03 -0.22092906442E+03  0.26338101637E+03  0.00000000000E+00 0.  1.
         21    1    1    2  502  501 -0.22002428702E+02 -0.30512599465E+02  0.10803133520E+02  0.39138641887E+02  0.00000000000E+00 0. -1.
<scales pt_clust_4="550.00000" pt_clust_5="550.00000" pt_clust_6="37.61816"></scales>
<mgrwt>
<rscale>  0 0.30000000E+03</rscale>
<asrwt>  1 0.37618155E+02</asrwt>
<pdfrwt beam="1">  1        1 0.85633482E+00 0.30000000E+03</pdfrwt>
<pdfrwt beam="2">0</pdfrwt>
<totfact> 0.34855800E-04</totfact>
</mgrwt>
<clustering>
<clus scale="   37.618">  1  6  2 -1</clus>
<clus scale="  467.149">  4  5 -1 -1</clus>
<clus scale="  300.000">  1  4  2 -1</clus>
</clustering>
</event>
<event>
 6    1  0.9843879E-012  0.3000000E+03  0.7818608E-02  0.1093470E+00
          1   -1    0    0  502    0  0.00000000000E+00  0.00000000000E+00  0.23603008592E+03  0.23603008592E+03  0.00000000000E+00 0.  1.
         13   -1    0    0    0    0 -0.00000000000E+00 -0.00000000000E+00 -0.27500000000E+03  0.27500000000E+03  0.00000000000E+00 0.  1.
    9000005    2    1    2  501    0  0.18674672890E+02  0.28981244333E+02 -0.46658520827E+02  0.47570628935E+03  0.47215548311E+03 0.  0.
         13    1    3    3    0    0  0.15622636237E+03  0.10555351082E+03 -0.18645472055E+03  0.26516708461E+03  0.00000000000E+00 0.  1.
          3    1    3    3  501    0 -0.13755168948E+03 -0.76572266491E+02  0.13979619972E+03  0.21053920473E+03  0.00000000000E+00 0.  1.
         21    1    1    2  502  501 -0.18674672890E+02 -0.28981244333E+02  0.76886067465E+01  0.35323796573E+02  0.00000000000E+00 0. -1.
<scales pt_clust_4="550.00000" pt_clust_5="550.00000" pt_clust_6="34.47689"></scales>
<mgrwt>
<rscale>  0 0.30000000E+03</rscale>
<asrwt>  1 0.34476890E+02</asrwt>
<pdfrwt beam="1">  1        1 0.85829122E+00 0.30000000E+03</pdfrwt>
<pdfrwt beam="2">0</pdfrwt>
<totfact> 0.33816011E-04</totfact>
</mgrwt>
<clustering>
<clus scale="   34.477">  1  6  2 -1</clus>
<clus scale="  472.155">  4  5 -1 -1</clus>
<clus scale="  300.000">  1  4  2 -1</clus>
</clustering>
</event>
<event>
 6    1  0.9843879E-012  0.3000000E+03  0.7818608E-02  0.1093470E+00
          1   -1    0    0  502    0  0.00000000000E+00  0.00000000000E+00  0.23165218882E+03  0.23165218882E+03  0.00000000000E+00 0.  1.
         13   -1    0    0    0    0 -0.00000000000E+00 -0.00000000000E+00 -0.27500000000E+03  0.27500000000E+03  0.00000000000E+00 0.  1.
    9000005    2    1    2  501    0 -0.25544350957E+02  0.22600456436E+02 -0.48454757523E+02  0.47216486654E+03  0.46843196216E+03 0.  0.
         13    1    3    3    0    0  0.86114392324E+02  0.13964582827E+03  0.14572293421E+03  0.21943522842E+03  0.00000000000E+00 0.  1.
          1    1    3    3  501    0 -0.11165874328E+03 -0.11704537184E+03 -0.19417769173E+03  0.25272963812E+03  0.00000000000E+00 0.  1.
         21    1    1    2  502  501  0.25544350957E+02 -0.22600456436E+02  0.51069463452E+01  0.34487322278E+02  0.00000000000E+00 0.  1.
<scales pt_clust_4="550.00000" pt_clust_5="550.00000" pt_clust_6="34.10710"></scales>
<mgrwt>
<rscale>  0 0.30000000E+03</rscale>
<asrwt>  1 0.34107103E+02</asrwt>
<pdfrwt beam="1">  1        1 0.84237160E+00 0.30000000E+03</pdfrwt>
<pdfrwt beam="2">0</pdfrwt>
<totfact> 0.47808780E-04</totfact>
</mgrwt>
<clustering>
<clus scale="   34.107">  1  6  2 -1</clus>
<clus scale="  468.432">  4  5 -1 -1</clus>
<clus scale="  300.000">  1  4  2 -1</clus>
</clustering>
</event>
<event>
 6    1  0.9843879E-012  0.3000000E+03  0.7818608E-02  0.1093470E+00
          1   -1    0    0  502    0  0.00000000000E+00  0.00000000000E+00  0.23617463740E+03  0.23617463740E+03  0.00000000000E+00 0.  1.
         13   -1    0    0    0    0 -0.00000000000E+00 -0.00000000000E+00 -0.27500000000E+03  0.27500000000E+03  0.00000000000E+00 0.  1.
    9000005    2    1    2  501    0 -0.44398490544E+01 -0.32430767569E+02 -0.60218673240E+02  0.47207040892E+03  0.46706821282E+03 0.  0.
         13    1    3    3    0    0 -0.20744067056E+00 -0.23176102192E+03 -0.12386261579E+03  0.26278348864E+03  0.00000000000E+00 0.  1.
          1    1    3    3  501    0 -0.42324083839E+01  0.19933025435E+03  0.63643942549E+02  0.20928692028E+03  0.00000000000E+00 0.  1.
         21    1    1    2  502  501  0.44398490544E+01  0.32430767569E+02  0.21393310641E+02  0.39104228479E+02  0.00000000000E+00 0.  1.
<scales pt_clust_4="550.00000" pt_clust_5="550.00000" pt_clust_6="32.73327"></scales>
<mgrwt>
<rscale>  0 0.30000000E+03</rscale>
<asrwt>  1 0.32733270E+02</asrwt>
<pdfrwt beam="1">  1        1 0.85881686E+00 0.30000000E+03</pdfrwt>
<pdfrwt beam="2">0</pdfrwt>
<totfact> 0.33716856E-04</totfact>
</mgrwt>
<clustering>
<clus scale="   32.733">  1  6  2 -1</clus>
<clus scale="  467.068">  4  5 -1 -1</clus>
<clus scale="  300.000">  1  4  2 -1</clus>
</clustering>
</event>
<event>
 6    1  0.9843879E-012  0.3000000E+03  0.7818608E-02  0.1093470E+00
          1   -1    0    0  502    0  0.00000000000E+00  0.00000000000E+00  0.24153071161E+03  0.24153071161E+03  0.00000000000E+00 0.  1.
         13   -1    0    0    0    0 -0.00000000000E+00 -0.00000000000E+00 -0.27500000000E+03  0.27500000000E+03  0.00000000000E+00 0.  1.
    9000005    2    1    2  501    0 -0.43827577070E+02 -0.19703663480E+02 -0.28324174614E+02  0.46820304808E+03  0.46486852389E+03 0.  0.
         13    1    3    3    0    0 -0.29110394603E+02  0.20684068537E+03 -0.98004964110E+02  0.23072810229E+03  0.00000000000E+00 0.  1.
          3    1    3    3  501    0 -0.14717182466E+02 -0.22654434885E+03  0.69680789496E+02  0.23747494579E+03  0.00000000000E+00 0.  1.
         21    1    1    2  502  501  0.43827577070E+02  0.19703663480E+02 -0.51451137759E+01  0.48327663528E+02  0.00000000000E+00 0. -1.
<scales pt_clust_4="550.00000" pt_clust_5="550.00000" pt_clust_6="48.05302"></scales>
<mgrwt>
<rscale>  0 0.30000000E+03</rscale>
<asrwt>  1 0.48053025E+02</asrwt>
<pdfrwt beam="1">  1        1 0.87829350E+00 0.30000000E+03</pdfrwt>
<pdfrwt beam="2">0</pdfrwt>
<totfact> 0.19530287E-04</totfact>
</mgrwt>
<clustering>
<clus scale="   48.053">  1  6  2 -1</clus>
<clus scale="  464.869">  4  5 -1 -1</clus>
<clus scale="  300.000">  1  4  2 -1</clus>
</clustering>
</event>
<event>
 6    1  0.9843879E-012  0.3000000E+03  0.7818608E-02  0.1093470E+00
          1   -1    0    0  502    0  0.00000000000E+00  0.00000000000E+00  0.24533571990E+03  0.24533571990E+03  0.00000000000E+00 0.  1.
         13   -1    0    0    0    0 -0.00000000000E+00 -0.00000000000E+00 -0.27500000000E+03  0.27500000000E+03  0.00000000000E+00 0.  1.
    9000005    2    1    2  501    0  0.46151731925E+01  0.48953727849E+02 -0.34297719060E+02  0.47094709722E+03  0.46711568969E+03 0.  0.
         13    1    3    3    0    0  0.23378698470E+03  0.41213071872E+02 -0.44019592355E+02  0.24143859679E+03  0.00000000000E+00 0.  1.
          1    1    3    3  501    0 -0.22917181151E+03  0.77406559776E+01  0.97218732955E+01  0.22950850042E+03  0.00000000000E+00 0.  1.
         21    1    1    2  502  501 -0.46151731925E+01 -0.48953727849E+02  0.46334389594E+01  0.49388622683E+02  0.00000000000E+00 0.  1.
<scales pt_clust_4="550.00000" pt_clust_5="550.00000" pt_clust_6="49.17080"></scales>
<mgrwt>
<rscale>  0 0.30000000E+03</rscale>
<asrwt>  1 0.49170797E+02</asrwt>
<pdfrwt beam="1">  1        1 0.89212989E+00 0.30000000E+03</pdfrwt>
<pdfrwt beam="2">0</pdfrwt>
<totfact> 0.12801448E-04</totfact>
</mgrwt>
<clustering>
<clus scale="   49.171">  1  6  2 -1</clus>
<clus scale="  467.116">  4  5 -1 -1</clus>
<clus scale="  300.000">  1  4  2 -1</clus>
</clustering>
</event>
<event>
 6    1  0.9843879E-012  0.3000000E+03  0.7818608E-02  0.1093470E+00
          1   -1    0    0  502    0  0.00000000000E+00  0.00000000000E+00  0.23943991611E+03  0.23943991611E+03  0.00000000000E+00 0.  1.
         13   -1    0    0    0    0 -0.00000000000E+00 -0.00000000000E+00 -0.27500000000E+03  0.27500000000E+03  0.00000000000E+00 0.  1.
    9000005    2    1    2  501    0 -0.10084339136E+01 -0.30028514755E+02 -0.40348758215E+02  0.48401525442E+03  0.48139382587E+03 0.  0.
         13    1    3    3    0    0  0.72970663222E+02 -0.17250799671E+03 -0.18837363626E+03  0.26564704677E+03  0.00000000000E+00 0.  1.
          1    1    3    3  501    0 -0.73979097135E+02  0.14247948196E+03  0.14802487804E+03  0.21836820765E+03  0.00000000000E+00 0.  1.
         21    1    1    2  502  501  0.10084339136E+01  0.30028514755E+02  0.47886743283E+01  0.30424661694E+02  0.00000000000E+00 0. -1.
<scales pt_clust_4="550.00000" pt_clust_5="550.00000" pt_clust_6="30.04544"></scales>
<mgrwt>
<rscale>  0 0.30000000E+03</rscale>
<asrwt>  1 0.30045443E+02</asrwt>
<pdfrwt beam="1">  1        1 0.87069060E+00 0.30000000E+03</pdfrwt>
<pdfrwt beam="2">0</pdfrwt>
<totfact> 0.25649279E-04</totfact>
</mgrwt>
<clustering>
<clus scale="   30.045">  1  6  2 -1</clus>
<clus scale="  481.394">  4  5 -1 -1</clus>
<clus scale="  300.000">  1  4  2 -1</clus>
</clustering>
</event>
<event>
 6    1  0.9843879E-012  0.3000000E+03  0.7818608E-02  0.1093470E+00
          1   -1    0    0  502    0  0.00000000000E+00  0.00000000000E+00  0.22028708166E+03  0.22028708166E+03  0.00000000000E+00 0.  1.
         13   -1    0    0    0    0 -0.00000000000E+00 -0.00000000000E+00 -0.27500000000E+03  0.27500000000E+03  0.00000000000E+00 0.  1.
    9000005    2    1    2  501    0 -0.31135888584E+02 -0.36850795738E+00 -0.49149095859E+02  0.46365583956E+03  0.45999078749E+03 0.  0.
         13    1    3    3    0    0 -0.14116168055E+03  0.18477436297E+03  0.29471244862E+02  0.23438587744E+03  0.00000000000E+00 0.  1.
          1    1    3    3  501    0  0.11002579197E+03 -0.18514287093E+03 -0.78620340721E+02  0.22926996212E+03  0.00000000000E+00 0.  1.
         21    1    1    2  502  501  0.31135888584E+02  0.36850795738E+00 -0.55638224852E+01  0.31631242098E+02  0.00000000000E+00 0.  1.
<scales pt_clust_4="550.00000" pt_clust_5="550.00000" pt_clust_6="31.13808"></scales>
<mgrwt>
<rscale>  0 0.30000000E+03</rscale>
<asrwt>  1 0.31138085E+02</asrwt>
<pdfrwt beam="1">  1        1 0.80104393E+00 0.30000000E+03</pdfrwt>
<pdfrwt beam="2">0</pdfrwt>
<totfact> 0.10419206E-03</totfact>
</mgrwt>
<clustering>
<clus scale="   31.138">  1  6  2 -1</clus>
<clus scale="  459.991">  4  5 -1 -1</clus>
<clus scale="  300.000">  1  4  2 -1</clus>
</clustering>
</event>
<event>
 6    1  0.9843879E-012  0.3000000E+03  0.7818608E-02  0.1093470E+00
          1   -1    0    0  502    0  0.00000000000E+00  0.00000000000E+00  0.24937834524E+03  0.24937834524E+03  0.00000000000E+00 0.  1.
         13   -1    0    0    0    0 -0.00000000000E+00 -0.00000000000E+00 -0.27500000000E+03  0.27500000000E+03  0.00000000000E+00 0.  1.
    9000005    2    1    2  501    0 -0.24875677031E+02  0.32396936630E+02 -0.35080269609E+02  0.48245190721E+03  0.47943806341E+03 0.  0.
         13    1    3    3    0    0 -0.50676643398E+02  0.15566283497E+03  0.17366468713E+03  0.23865972415E+03  0.00000000000E+00 0.  1.
          1    1    3    3  501    0  0.25800966367E+02 -0.12326589834E+03 -0.20874495674E+03  0.24379218306E+03  0.00000000000E+00 0.  1.
         21    1    1    2  502  501  0.24875677031E+02 -0.32396936630E+02  0.94586148503E+01  0.41926438027E+02  0.00000000000E+00 0. -1.
<scales pt_clust_4="550.00000" pt_clust_5="550.00000" pt_clust_6="40.84557"></scales>
<mgrwt>
<rscale>  0 0.30000000E+03</rscale>
<asrwt>  1 0.40845573E+02</asrwt>
<pdfrwt beam="1">  1        1 0.90683035E+00 0.30000000E+03</pdfrwt>
<pdfrwt beam="2">0</pdfrwt>
<totfact> 0.82564564E-05</totfact>
</mgrwt>
<clustering>
<clus scale="   40.846">  1  6  2 -1</clus>
<clus scale="  479.438">  4  5 -1 -1</clus>
<clus scale="  300.000">  1  4  2 -1</clus>
</clustering>
</event>
<event>
 6    1  0.9843879E-012  0.3000000E+03  0.7818608E-02  0.1093470E+00
          1   -1    0    0  502    0  0.00000000000E+00  0.00000000000E+00  0.25899246633E+03  0.25899246633E+03  0.00000000000E+00 0.  1.
         13   -1    0    0    0    0 -0.00000000000E+00 -0.00000000000E+00 -0.27500000000E+03  0.27500000000E+03  0.00000000000E+00 0.  1.
    9000005    2    1    2  501    0  0.67945202174E+02 -0.62979242028E+01  0.55602150815E+01  0.46242863374E+03  0.45733260431E+03 0.  0.
         13    1    3    3    0    0  0.16269147175E+03  0.86894653505E+02 -0.16412623729E+03  0.24689393989E+03  0.00000000000E+00 0.  1.
          1    1    3    3  501    0 -0.94746269574E+02 -0.93192577708E+02  0.16968645237E+03  0.21553469385E+03  0.00000000000E+00 0.  1.
         21    1    1    2  502  501 -0.67945202174E+02  0.62979242028E+01 -0.21567748756E+02  0.71563832584E+02  0.00000000000E+00 0.  1.
<scales pt_clust_4="550.00000" pt_clust_5="550.00000" pt_clust_6="68.23649"></scales>
<mgrwt>
<rscale>  0 0.30000000E+03</rscale>
<asrwt>  1 0.68236493E+02</asrwt>
<pdfrwt beam="1">  1        1 0.94179079E+00 0.30000000E+03</pdfrwt>
<pdfrwt beam="2">0</pdfrwt>
<totfact> 0.15855688E-05</totfact>
</mgrwt>
<clustering>
<clus scale="   68.236">  1  6  2 -1</clus>
<clus scale="  457.333">  4  5 -1 -1</clus>
<clus scale="  300.000">  1  4  2 -1</clus>
</clustering>
</event>
<event>
 6    1  0.9843879E-012  0.3000000E+03  0.7818608E-02  0.1093470E+00
          1   -1    0    0  502    0  0.00000000000E+00  0.00000000000E+00  0.24466675782E+03  0.24466675782E+03  0.00000000000E+00 0.  1.
         13   -1    0    0    0    0 -0.00000000000E+00 -0.00000000000E+00 -0.27500000000E+03  0.27500000000E+03  0.00000000000E+00 0.  1.
    9000005    2    1    2  501    0  0.37998187900E+02 -0.25287808900E+02 -0.62394042380E+02  0.46388835275E+03  0.45740141204E+03 0.  0.
         13    1    3    3    0    0  0.24105745278E+03 -0.54035417318E+02  0.76917785903E+01  0.24715923070E+03  0.00000000000E+00 0.  1.
          1    1    3    3  501    0 -0.20305926488E+03  0.28747608418E+02 -0.70085820970E+02  0.21672912205E+03  0.00000000000E+00 0.  1.
         21    1    1    2  502  501 -0.37998187900E+02  0.25287808900E+02  0.32060800204E+02  0.55778405071E+02  0.00000000000E+00 0. -1.
<scales pt_clust_4="550.00000" pt_clust_5="550.00000" pt_clust_6="45.64357"></scales>
<mgrwt>
<rscale>  0 0.30000000E+03</rscale>
<asrwt>  1 0.45643571E+02</asrwt>
<pdfrwt beam="1">  1        1 0.88969730E+00 0.30000000E+03</pdfrwt>
<pdfrwt beam="2">0</pdfrwt>
<totfact> 0.13938848E-04</totfact>
</mgrwt>
<clustering>
<clus scale="   45.644">  1  6  2 -1</clus>
<clus scale="  457.401">  4  5 -1 -1</clus>
<clus scale="  300.000">  1  4  2 -1</clus>
</clustering>
</event>
<event>
 6    1  0.9843879E-012  0.3000000E+03  0.7818608E-02  0.1093470E+00
          1   -1    0    0  502    0  0.00000000000E+00  0.00000000000E+00  0.24897803169E+03  0.24897803169E+03  0.00000000000E+00 0.  1.
         13   -1    0    0    0    0 -0.00000000000E+00 -0.00000000000E+00 -0.27500000000E+03  0.27500000000E+03  0.00000000000E+00 0.  1.
    9000005    2    1    2  501    0  0.16552861988E+02 -0.30879362952E+02 -0.34066807000E+02  0.48803012875E+03  0.48557731303E+03 0.  0.
         13    1    3    3    0    0 -0.80052501482E+02  0.10763669170E+03  0.17422293438E+03  0.21988108435E+03  0.00000000000E+00 0.  1.
          1    1    3    3  501    0  0.96605363470E+02 -0.13851605465E+03 -0.20828974138E+03  0.26814904440E+03  0.00000000000E+00 0.  1.
         21    1    1    2  502  501 -0.16552861988E+02  0.30879362952E+02  0.80448386931E+01  0.35947902942E+02  0.00000000000E+00 0.  1.
<scales pt_clust_4="550.00000" pt_clust_5="550.00000" pt_clust_6="35.03616"></scales>
<mgrwt>
<rscale>  0 0.30000000E+03</rscale>
<asrwt>  1 0.35036157E+02</asrwt>
<pdfrwt beam="1">  1        1 0.90537466E+00 0.30000000E+03</pdfrwt>
<pdfrwt beam="2">0</pdfrwt>
<totfact> 0.90931674E-05</totfact>
</mgrwt>
<clustering>
<clus scale="   35.036">  1  6  2 -1</clus>
<clus scale="  485.577">  4  5 -1 -1</clus>
<clus scale="  300.000">  1  4  2 -1</clus>
</clustering>
</event>
<event>
 6    1  0.9843879E-012  0.3000000E+03  0.7818608E-02  0.1093470E+00
          1   -1    0    0  502    0  0.00000000000E+00  0.00000000000E+00  0.23385703980E+03  0.23385703980E+03  0.00000000000E+00 0.  1.
         13   -1    0    0    0    0 -0.00000000000E+00 -0.00000000000E+00 -0.27500000000E+03  0.27500000000E+03  0.00000000000E+00 0.  1.
    9000005    2    1    2  501    0  0.17603229855E+02 -0.26671357438E+02 -0.68206429207E+02  0.46698023998E+03  0.46086569902E+03 0.  0.
         13    1    3    3    0    0  0.10535951734E+03 -0.11361159653E+02 -0.24614580695E+03  0.26798780218E+03  0.00000000000E+00 0.  1.
          3    1    3    3  501    0 -0.87756287482E+02 -0.15310197784E+02  0.17793937774E+03  0.19899243779E+03  0.00000000000E+00 0.  1.
         21    1    1    2  502  501 -0.17603229855E+02  0.26671357438E+02  0.27063469009E+02  0.41876799827E+02  0.00000000000E+00 0.  1.
<scales pt_clust_4="550.00000" pt_clust_5="550.00000" pt_clust_6="31.95677"></scales>
<mgrwt>
<rscale>  0 0.30000000E+03</rscale>
<asrwt>  1 0.31956768E+02</asrwt>
<pdfrwt beam="1">  1        1 0.85038924E+00 0.30000000E+03</pdfrwt>
<pdfrwt beam="2">0</pdfrwt>
<totfact> 0.41055494E-04</totfact>
</mgrwt>
<clustering>
<clus scale="   31.957">  1  6  2 -1</clus>
<clus scale="  460.866">  4  5 -1 -1</clus>
<clus scale="  300.000">  1  4  2 -1</clus>
</clustering>
</event>
<event>
 6    1  0.9843879E-012  0.3000000E+03  0.7818608E-02  0.1093470E+00
          1   -1    0    0  502    0  0.00000000000E+00  0.00000000000E+00  0.23826668215E+03  0.23826668215E+03  0.00000000000E+00 0.  1.
         13   -1    0    0    0    0 -0.00000000000E+00 -0.00000000000E+00 -0.27500000000E+03  0.27500000000E+03  0.00000000000E+00 0.  1.
    9000005    2    1    2  501    0  0.12759097086E+02 -0.34881823076E+02  0.37707877172E+01  0.45831107545E+03  0.45678801090E+03 0.  0.
         13    1    3    3    0    0 -0.22187868846E+03 -0.27044403276E+02  0.30221689352E+01  0.22354123925E+03  0.00000000000E+00 0.  1.
          1    1    3    3  501    0  0.23463778555E+03 -0.78374198005E+01  0.74861878207E+00  0.23476983619E+03  0.00000000000E+00 0.  1.
         21    1    1    2  502  501 -0.12759097086E+02  0.34881823076E+02 -0.40504105570E+02  0.54955606699E+02  0.00000000000E+00 0. -1.
<scales pt_clust_4="550.00000" pt_clust_5="550.00000" pt_clust_6="37.14213"></scales>
<mgrwt>
<rscale>  0 0.30000000E+03</rscale>
<asrwt>  1 0.37142126E+02</asrwt>
<pdfrwt beam="1">  1        1 0.86642430E+00 0.30000000E+03</pdfrwt>
<pdfrwt beam="2">0</pdfrwt>
<totfact> 0.27282140E-04</totfact>
</mgrwt>
<clustering>
<clus scale="   37.142">  1  6  2 -1</clus>
<clus scale="  456.788">  4  5 -1 -1</clus>
<clus scale="  300.000">  1  4  2 -1</clus>
</clustering>
</event>
<event>
 6    1  0.9843879E-012  0.3000000E+03  0.7818608E-02  0.1093470E+00
          1   -1    0    0  502    0  0.00000000000E+00  0.00000000000E+00  0.25141639032E+03  0.25141639032E+03  0.00000000000E+00 0.  1.
         13   -1    0    0    0    0 -0.00000000000E+00 -0.00000000000E+00 -0.27500000000E+03  0.27500000000E+03  0.00000000000E+00 0.  1.
    9000005    2    1    2  501    0  0.67100680145E+01  0.29524605539E+02 -0.60294712865E+02  0.47883033730E+03  0.47405306894E+03 0.  0.
         13    1    3    3    0    0 -0.17633455040E+03 -0.35684942230E+02 -0.17682110585E+03  0.25225580715E+03  0.00000000000E+00 0.  1.
          1    1    3    3  501    0  0.18304461842E+03  0.65209547769E+02  0.11652639298E+03  0.22657453015E+03  0.00000000000E+00 0.  1.
         21    1    1    2  502  501 -0.67100680145E+01 -0.29524605539E+02  0.36711103187E+02  0.47586053022E+02  0.00000000000E+00 0.  1.
<scales pt_clust_4="550.00000" pt_clust_5="550.00000" pt_clust_6="30.27751"></scales>
<mgrwt>
<rscale>  0 0.30000000E+03</rscale>
<asrwt>  1 0.30277506E+02</asrwt>
<pdfrwt beam="1">  1        1 0.91424142E+00 0.30000000E+03</pdfrwt>
<pdfrwt beam="2">0</pdfrwt>
<totfact> 0.57996604E-05</totfact>
</mgrwt>
<clustering>
<clus scale="   30.278">  1  6  2 -1</clus>
<clus scale="  474.053">  4  5 -1 -1</clus>
<clus scale="  300.000">  1  4  2 -1</clus>
</clustering>
</event>
<event>
 6    1  0.9843879E-012  0.3000000E+03  0.7818608E-02  0.1093470E+00
          1   -1    0    0  502    0  0.00000000000E+00  0.00000000000E+00  0.25846859276E+03  0.25846859276E+03  0.00000000000E+00 0.  1.
         13   -1    0    0    0    0 -0.00000000000E+00 -0.00000000000E+00 -0.27500000000E+03  0.27500000000E+03  0.00000000000E+00 0.  1.
    9000005    2    1    2  501    0 -0.13576490200E+02  0.41065865903E+02 -0.60279682616E+02  0.47194918097E+03  0.46608117625E+03 0.  0.
         13    1    3    3    0    0  0.14491715082E+03 -0.13865034489E+03  0.52198418493E+02  0.20724278910E+03  0.00000000000E+00 0.  1.
          3    1    3    3  501    0 -0.15849364102E+03  0.17971621080E+03 -0.11247810111E+03  0.26470639187E+03  0.00000000000E+00 0.  1.
         21    1    1    2  502  501  0.13576490200E+02 -0.41065865903E+02  0.43748275371E+02  0.61519411786E+02  0.00000000000E+00 0.  1.
<scales pt_clust_4="550.00000" pt_clust_5="550.00000" pt_clust_6="43.25190"></scales>
<mgrwt>
<rscale>  0 0.30000000E+03</rscale>
<asrwt>  1 0.43251895E+02</asrwt>
<pdfrwt beam="1">  1        1 0.93988579E+00 0.30000000E+03</pdfrwt>
<pdfrwt beam="2">0</pdfrwt>
<totfact> 0.18509695E-05</totfact>
</mgrwt>
<clustering>
<clus scale="   43.252">  1  6  2 -1</clus>
<clus scale="  466.081">  4  5 -1 -1</clus>
<clus scale="  300.000">  1  4  2 -1</clus>
</clustering>
</event>
<event>
 6    1  0.9843879E-012  0.3000000E+03  0.7818608E-02  0.1093470E+00
          1   -1    0    0  502    0  0.00000000000E+00  0.00000000000E+00  0.23963242012E+03  0.23963242012E+03  0.00000000000E+00 0.  1.
         13   -1    0    0    0    0 -0.00000000000E+00 -0.00000000000E+00 -0.27500000000E+03  0.27500000000E+03  0.00000000000E+00 0.  1.
    9000005    2    1    2  501    0  0.19306063953E+02  0.33863257348E+02 -0.43165428606E+02  0.47488005228E+03  0.47130496022E+03 0.  0.
         13    1    3    3    0    0 -0.44500152330E+02  0.14037193881E+03  0.17202244197E+03  0.22644263138E+03  0.00000000000E+00 0.  1.
          1    1    3    3  501    0  0.63806216283E+02 -0.10650868146E+03 -0.21518787058E+03  0.24843742091E+03  0.00000000000E+00 0.  1.
         21    1    1    2  502  501 -0.19306063953E+02 -0.33863257348E+02  0.77978487226E+01  0.39752367832E+02  0.00000000000E+00 0.  1.
<scales pt_clust_4="550.00000" pt_clust_5="550.00000" pt_clust_6="38.98005"></scales>
<mgrwt>
<rscale>  0 0.30000000E+03</rscale>
<asrwt>  1 0.38980050E+02</asrwt>
<pdfrwt beam="1">  1        1 0.87139062E+00 0.30000000E+03</pdfrwt>
<pdfrwt beam="2">0</pdfrwt>
<totfact> 0.24026458E-04</totfact>
</mgrwt>
<clustering>
<clus scale="   38.980">  1  6  2 -1</clus>
<clus scale="  471.305">  4  5 -1 -1</clus>
<clus scale="  300.000">  1  4  2 -1</clus>
</clustering>
</event>
<event>
 6    1  0.9843879E-012  0.3000000E+03  0.7818608E-02  0.1093470E+00
          1   -1    0    0  502    0  0.00000000000E+00  0.00000000000E+00  0.23305175160E+03  0.23305175160E+03  0.00000000000E+00 0.  1.
         13   -1    0    0    0    0 -0.00000000000E+00 -0.00000000000E+00 -0.27500000000E+03  0.27500000000E+03  0.00000000000E+00 0.  1.
    9000005    2    1    2  501    0 -0.37192180940E+02  0.28850746971E+00 -0.61087412027E+02  0.46622294402E+03  0.46070469941E+03 0.  0.
         13    1    3    3    0    0 -0.48353553619E+02  0.11195532577E+03  0.17006390662E+03  0.20926966682E+03  0.00000000000E+00 0.  1.
          1    1    3    3  501    0  0.11161372679E+02 -0.11166681830E+03 -0.23115131865E+03  0.25695327720E+03  0.00000000000E+00 0.  1.
         21    1    1    2  502  501  0.37192180940E+02 -0.28850746971E+00  0.19139163631E+02  0.41828807587E+02  0.00000000000E+00 0. -1.
<scales pt_clust_4="550.00000" pt_clust_5="550.00000" pt_clust_6="37.19330"></scales>
<mgrwt>
<rscale>  0 0.30000000E+03</rscale>
<asrwt>  1 0.37193300E+02</asrwt>
<pdfrwt beam="1">  1        1 0.84746091E+00 0.30000000E+03</pdfrwt>
<pdfrwt beam="2">0</pdfrwt>
<totfact> 0.42474059E-04</totfact>
</mgrwt>
<clustering>
<clus scale="   37.193">  1  6  2 -1</clus>
<clus scale="  460.705">  4  5 -1 -1</clus>
<clus scale="  300.000">  1  4  2 -1</clus>
</clustering>
</event>
<event>
 6    1  0.9843879E-012  0.3000000E+03  0.7818608E-02  0.1093470E+00
          1   -1    0    0  502    0  0.00000000000E+00  0.00000000000E+00  0.24173175350E+03  0.24173175350E+03  0.00000000000E+00 0.  1.
         13   -1    0    0    0    0 -0.00000000000E+00 -0.00000000000E+00 -0.27500000000E+03  0.27500000000E+03  0.00000000000E+00 0.  1.
    9000005    2    1    2  501    0  0.20587376007E+02 -0.32955392882E+02 -0.23428201793E+02  0.47664778599E+03  0.47448322761E+03 0.  0.
         13    1    3    3    0    0 -0.68912119245E+02  0.16421207709E+03  0.12195248336E+03  0.21583997461E+03  0.00000000000E+00 0.  1.
          3    1    3    3  501    0  0.89499495253E+02 -0.19716746997E+03 -0.14538068516E+03  0.26080781139E+03  0.00000000000E+00 0.  1.
         21    1    1    2  502  501 -0.20587376007E+02  0.32955392882E+02 -0.98400447106E+01  0.40083967503E+02  0.00000000000E+00 0.  1.
<scales pt_clust_4="550.00000" pt_clust_5="550.00000" pt_clust_6="38.85743"></scales>
<mgrwt>
<rscale>  0 0.30000000E+03</rscale>
<asrwt>  1 0.38857425E+02</asrwt>
<pdfrwt beam="1">  1        1 0.87902456E+00 0.30000000E+03</pdfrwt>
<pdfrwt beam="2">0</pdfrwt>
<totfact> 0.19893517E-04</totfact>
</mgrwt>
<clustering>
<clus scale="   38.857">  1  6  2 -1</clus>
<clus scale="  474.483">  4  5 -1 -1</clus>
<clus scale="  300.000">  1  4  2 -1</clus>
</clustering>
</event>
<event>
 6    1  0.9843879E-012  0.3000000E+03  0.7818608E-02  0.1093470E+00
          1   -1    0    0  502    0  0.00000000000E+00  0.00000000000E+00  0.21795430084E+03  0.21795430084E+03  0.00000000000E+00 0.  1.
         13   -1    0    0    0    0 -0.00000000000E+00 -0.00000000000E+00 -0.27500000000E+03  0.27500000000E+03  0.00000000000E+00 0.  1.
    9000005    2    1    2  501    0  0.16063743161E+02  0.25916810610E+02 -0.49307464184E+02  0.46149630985E+03  0.45784046683E+03 0.  0.
         13    1    3    3    0    0 -0.16123817197E+03  0.15212418046E+03  0.41767463452E+02  0.22557489972E+03  0.00000000000E+00 0.  1.
          1    1    3    3  501    0  0.17730191513E+03 -0.12620736985E+03 -0.91074927636E+02  0.23592141013E+03  0.00000000000E+00 0.  1.
         21    1    1    2  502  501 -0.16063743161E+02 -0.25916810610E+02 -0.77382349752E+01  0.31457990989E+02  0.00000000000E+00 0. -1.
<scales pt_clust_4="550.00000" pt_clust_5="550.00000" pt_clust_6="30.49141"></scales>
<mgrwt>
<rscale>  0 0.30000000E+03</rscale>
<asrwt>  1 0.30491406E+02</asrwt>
<pdfrwt beam="1">  1        1 0.79256109E+00 0.30000000E+03</pdfrwt>
<pdfrwt beam="2">0</pdfrwt>
<totfact> 0.12085106E-03</totfact>
</mgrwt>
<clustering>
<clus scale="   30.491">  1  6  2 -1</clus>
<clus scale="  457.840">  4  5 -1 -1</clus>
<clus scale="  300.000">  1  4  2 -1</clus>
</clustering>
</event>
<event>
 6    1  0.9843879E-012  0.3000000E+03  0.7818608E-02  0.1093470E+00
          1   -1    0    0  502    0  0.00000000000E+00  0.00000000000E+00  0.27046531890E+03  0.27046531890E+03  0.00000000000E+00 0.  1.
         13   -1    0    0    0    0 -0.00000000000E+00 -0.00000000000E+00 -0.27500000000E+03  0.27500000000E+03  0.00000000000E+00 0.  1.
    9000005    2    1    2  501    0 -0.28147651870E+02  0.12267256891E+02 -0.60823906315E+02  0.48134626734E+03  0.47649963862E+03 0.  0.
         13    1    3    3    0    0 -0.20300974289E+03  0.79805619043E+01  0.11490007678E+03  0.23340666812E+03  0.00000000000E+00 0.  1.
          3    1    3    3  501    0  0.17486209102E+03  0.42866949865E+01 -0.17572398310E+03  0.24793959923E+03  0.00000000000E+00 0.  1.
         21    1    1    2  502  501  0.28147651870E+02 -0.12267256891E+02  0.56289225216E+02  0.64119051559E+02  0.00000000000E+00 0. -1.
<scales pt_clust_4="550.00000" pt_clust_5="550.00000" pt_clust_6="30.70466"></scales>
<mgrwt>
<rscale>  0 0.30000000E+03</rscale>
<asrwt>  1 0.30704656E+02</asrwt>
<pdfrwt beam="1">  1        1 0.98351025E+00 0.30000000E+03</pdfrwt>
<pdfrwt beam="2">0</pdfrwt>
<totfact> 0.20001207E-06</totfact>
</mgrwt>
<clustering>
<clus scale="   30.705">  1  6  2 -1</clus>
<clus scale="  476.500">  4  5 -1 -1</clus>
<clus scale="  300.000">  1  4  2 -1</clus>
</clustering>
</event>
<event>
 6    1  0.9843879E-012  0.3000000E+03  0.7818608E-02  0.1093470E+00
          1   -1    0    0  502    0  0.00000000000E+00  0.00000000000E+00  0.25991582424E+03  0.25991582424E+03  0.00000000000E+00 0.  1.
         13   -1    0    0    0    0 -0.00000000000E+00 -0.00000000000E+00 -0.27500000000E+03  0.27500000000E+03  0.00000000000E+00 0.  1.
    9000005    2    1    2  501    0 -0.30338359800E+02 -0.11726935809E+02 -0.47009878040E+02  0.48933965103E+03  0.48598912368E+03 0.  0.
         13    1    3    3    0    0  0.13707152751E+03  0.16042500904E+03 -0.11427602597E+03  0.23996624198E+03  0.00000000000E+00 0.  1.
          3    1    3    3  501    0 -0.16740988731E+03 -0.17215194485E+03  0.67266147927E+02  0.24937340905E+03  0.00000000000E+00 0.  1.
         21    1    1    2  502  501  0.30338359800E+02  0.11726935809E+02  0.31925702280E+02  0.45576173215E+02  0.00000000000E+00 0. -1.
<scales pt_clust_4="550.00000" pt_clust_5="550.00000" pt_clust_6="32.52595"></scales>
<mgrwt>
<rscale>  0 0.30000000E+03</rscale>
<asrwt>  1 0.32525945E+02</asrwt>
<pdfrwt beam="1">  1        1 0.94514845E+00 0.30000000E+03</pdfrwt>
<pdfrwt beam="2">0</pdfrwt>
<totfact> 0.15660133E-05</totfact>
</mgrwt>
<clustering>
<clus scale="   32.526">  1  6  2 -1</clus>
<clus scale="  485.989">  4  5 -1 -1</clus>
<clus scale="  300.000">  1  4  2 -1</clus>
</clustering>
</event>
<event>
 6    1  0.9843879E-012  0.3000000E+03  0.7818608E-02  0.1093470E+00
          1   -1    0    0  502    0  0.00000000000E+00  0.00000000000E+00  0.23124802154E+03  0.23124802154E+03  0.00000000000E+00 0.  1.
         13   -1    0    0    0    0 -0.00000000000E+00 -0.00000000000E+00 -0.27500000000E+03  0.27500000000E+03  0.00000000000E+00 0.  1.
    9000005    2    1    2  501    0  0.13212629534E+02 -0.29025703926E+02 -0.21790540620E+02  0.46752632453E+03  0.46592807535E+03 0.  0.
         13    1    3    3    0    0  0.10482732437E+03 -0.11906627797E+03 -0.19532012734E+03  0.25162571139E+03  0.00000000000E+00 0.  1.
          1    1    3    3  501    0 -0.91614694840E+02  0.90040574048E+02  0.17352958672E+03  0.21590061314E+03  0.00000000000E+00 0.  1.
         21    1    1    2  502  501 -0.13212629534E+02  0.29025703926E+02 -0.21961437839E+02  0.38721697013E+02  0.00000000000E+00 0.  1.
<scales pt_clust_4="550.00000" pt_clust_5="550.00000" pt_clust_6="31.89147"></scales>
<mgrwt>
<rscale>  0 0.30000000E+03</rscale>
<asrwt>  1 0.31891474E+02</asrwt>
<pdfrwt beam="1">  1        1 0.84090190E+00 0.30000000E+03</pdfrwt>
<pdfrwt beam="2">0</pdfrwt>
<totfact> 0.49772584E-04</totfact>
</mgrwt>
<clustering>
<clus scale="   31.891">  1  6  2 -1</clus>
<clus scale="  465.928">  4  5 -1 -1</clus>
<clus scale="  300.000">  1  4  2 -1</clus>
</clustering>
</event>
<event>
 6    1  0.9843879E-012  0.3000000E+03  0.7818608E-02  0.1093470E+00
          1   -1    0    0  502    0  0.00000000000E+00  0.00000000000E+00  0.23590974165E+03  0.23590974165E+03  0.00000000000E+00 0.  1.
         13   -1    0    0    0    0 -0.00000000000E+00 -0.00000000000E+00 -0.27500000000E+03  0.27500000000E+03  0.00000000000E+00 0.  1.
    9000005    2    1    2  501    0 -0.21578622581E+02  0.42846071405E+02 -0.50488698807E+02  0.46160104838E+03  0.45631677196E+03 0.  0.
         13    1    3    3    0    0 -0.17818945886E+03  0.11883960025E+03  0.95407754168E+02  0.23447168996E+03  0.00000000000E+00 0.  1.
          3    1    3    3  501    0  0.15661083628E+03 -0.75993528846E+02 -0.14589645298E+03  0.22712935842E+03  0.00000000000E+00 0.  1.
         21    1    1    2  502  501  0.21578622581E+02 -0.42846071405E+02  0.11398440457E+02  0.49308693272E+02  0.00000000000E+00 0. -1.
<scales pt_clust_4="550.00000" pt_clust_5="550.00000" pt_clust_6="47.97315"></scales>
<mgrwt>
<rscale>  0 0.30000000E+03</rscale>
<asrwt>  1 0.47973147E+02</asrwt>
<pdfrwt beam="1">  1        1 0.85785361E+00 0.30000000E+03</pdfrwt>
<pdfrwt beam="2">0</pdfrwt>
<totfact> 0.32179591E-04</totfact>
</mgrwt>
<clustering>
<clus scale="   47.973">  1  6  2 -1</clus>
<clus scale="  456.317">  4  5 -1 -1</clus>
<clus scale="  300.000">  1  4  2 -1</clus>
</clustering>
</event>
<event>
 6    1  0.9843879E-012  0.3000000E+03  0.7818608E-02  0.1093470E+00
          1   -1    0    0  502    0  0.00000000000E+00  0.00000000000E+00  0.25093769176E+03  0.25093769176E+03  0.00000000000E+00 0.  1.
         13   -1    0    0    0    0 -0.00000000000E+00 -0.00000000000E+00 -0.27500000000E+03  0.27500000000E+03  0.00000000000E+00 0.  1.
    9000005    2    1    2  501    0  0.23297277889E+02 -0.33000798345E+02 -0.45354747683E+02  0.48027387867E+03  0.47641801976E+03 0.  0.
         13    1    3    3    0    0 -0.17470875155E+03 -0.14587121694E+03 -0.95636724520E+02  0.24687637165E+03  0.00000000000E+00 0.  1.
          1    1    3    3  501    0  0.19800602944E+03  0.11287041860E+03  0.50281976836E+02  0.23339750702E+03  0.00000000000E+00 0.  1.
         21    1    1    2  502  501 -0.23297277889E+02  0.33000798345E+02  0.21292439446E+02  0.45663813091E+02  0.00000000000E+00 0.  1.
<scales pt_clust_4="550.00000" pt_clust_5="550.00000" pt_clust_6="40.39574"></scales>
<mgrwt>
<rscale>  0 0.30000000E+03</rscale>
<asrwt>  1 0.40395740E+02</asrwt>
<pdfrwt beam="1">  1        1 0.91250070E+00 0.30000000E+03</pdfrwt>
<pdfrwt beam="2">0</pdfrwt>
<totfact> 0.60657108E-05</totfact>
</mgrwt>
<clustering>
<clus scale="   40.396">  1  6  2 -1</clus>
<clus scale="  476.418">  4  5 -1 -1</clus>
<clus scale="  300.000">  1  4  2 -1</clus>
</clustering>
</event>
<event>
 6    1  0.9843879E-012  0.3000000E+03  0.7818608E-02  0.1093470E+00
          1   -1    0    0  502    0  0.00000000000E+00  0.00000000000E+00  0.24421163810E+03  0.24421163810E+03  0.00000000000E+00 0.  1.
         13   -1    0    0    0    0 -0.00000000000E+00 -0.00000000000E+00 -0.27500000000E+03  0.27500000000E+03  0.00000000000E+00 0.  1.
    9000005    2    1    2  501    0 -0.84665753368E+00 -0.41692281276E+02 -0.36639587605E+02  0.47710225685E+03  0.47386194294E+03 0.  0.
         13    1    3    3    0    0  0.20398446737E+03 -0.94605273010E+02 -0.11367726050E+03  0.25195702047E+03  0.00000000000E+00 0.  1.
          3    1    3    3  501    0 -0.20483112490E+03  0.52912991734E+02  0.77037672895E+02  0.22514523639E+03  0.00000000000E+00 0.  1.
         21    1    1    2  502  501  0.84665753368E+00  0.41692281276E+02  0.58512257099E+01  0.42109381250E+02  0.00000000000E+00 0.  1.
<scales pt_clust_4="550.00000" pt_clust_5="550.00000" pt_clust_6="41.70088"></scales>
<mgrwt>
<rscale>  0 0.30000000E+03</rscale>
<asrwt>  1 0.41700877E+02</asrwt>
<pdfrwt beam="1">  1        1 0.88804232E+00 0.30000000E+03</pdfrwt>
<pdfrwt beam="2">0</pdfrwt>
<totfact> 0.14920046E-04</totfact>
</mgrwt>
<clustering>
<clus scale="   41.701">  1  6  2 -1</clus>
<clus scale="  473.862">  4  5 -1 -1</clus>
<clus scale="  300.000">  1  4  2 -1</clus>
</clustering>
</event>
<event>
 6    1  0.9843879E-012  0.3000000E+03  0.7818608E-02  0.1093470E+00
          1   -1    0    0  502    0  0.00000000000E+00  0.00000000000E+00  0.23812645048E+03  0.23812645048E+03  0.00000000000E+00 0.  1.
         13   -1    0    0    0    0 -0.00000000000E+00 -0.00000000000E+00 -0.27500000000E+03  0.27500000000E+03  0.00000000000E+00 0.  1.
    9000005    2    1    2  501    0  0.46400695938E+02  0.90651762019E+01 -0.20947541646E+02  0.46323817801E+03  0.46034292441E+03 0.  0.
         13    1    3    3    0    0  0.12516045022E+03 -0.17367800990E+03 -0.11514143909E+03  0.24307764277E+03  0.00000000000E+00 0.  1.
          1    1    3    3  501    0 -0.78759754279E+02  0.18274318610E+03  0.94193897440E+02  0.22016053523E+03  0.00000000000E+00 0.  1.
         21    1    1    2  502  501 -0.46400695938E+02 -0.90651762019E+01 -0.15926007879E+02  0.49888272470E+02  0.00000000000E+00 0.  1.
<scales pt_clust_4="550.00000" pt_clust_5="550.00000" pt_clust_6="47.27795"></scales>
<mgrwt>
<rscale>  0 0.30000000E+03</rscale>
<asrwt>  1 0.47277947E+02</asrwt>
<pdfrwt beam="1">  1        1 0.86591437E+00 0.30000000E+03</pdfrwt>
<pdfrwt beam="2">0</pdfrwt>
<totfact> 0.26444987E-04</totfact>
</mgrwt>
<clustering>
<clus scale="   47.278">  1  6  2 -1</clus>
<clus scale="  460.343">  4  5 -1 -1</clus>
<clus scale="  300.000">  1  4  2 -1</clus>
</clustering>
</event>
<event>
 6    1  0.9843879E-012  0.3000000E+03  0.7818608E-02  0.1093470E+00
          1   -1    0    0  502    0  0.00000000000E+00  0.00000000000E+00  0.24780381392E+03  0.24780381392E+03  0.00000000000E+00 0.  1.
         13   -1    0    0    0    0 -0.00000000000E+00 -0.00000000000E+00 -0.27500000000E+03  0.27500000000E+03  0.00000000000E+00 0.  1.
    9000005    2    1    2  501    0  0.16725482384E+02 -0.52873236101E+02 -0.47310815191E+02  0.46381297428E+03  0.45804895046E+03 0.  0.
         13    1    3    3    0    0  0.18820250893E+03 -0.16146921579E+03 -0.74742696384E+02  0.25899606692E+03  0.00000000000E+00 0.  1.
          3    1    3    3  501    0 -0.17147702654E+03  0.10859597969E+03  0.27431881193E+02  0.20481690737E+03  0.00000000000E+00 0.  1.
         21    1    1    2  502  501 -0.16725482384E+02  0.52873236101E+02  0.20114629109E+02  0.58990839636E+02  0.00000000000E+00 0. -1.
<scales pt_clust_4="550.00000" pt_clust_5="550.00000" pt_clust_6="55.45558"></scales>
<mgrwt>
<rscale>  0 0.30000000E+03</rscale>
<asrwt>  1 0.55455576E+02</asrwt>
<pdfrwt beam="1">  1        1 0.90110478E+00 0.30000000E+03</pdfrwt>
<pdfrwt beam="2">0</pdfrwt>
<totfact> 0.98374933E-05</totfact>
</mgrwt>
<clustering>
<clus scale="   55.456">  1  6  2 -1</clus>
<clus scale="  458.049">  4  5 -1 -1</clus>
<clus scale="  300.000">  1  4  2 -1</clus>
</clustering>
</event>
<event>
 6    1  0.9843879E-012  0.3000000E+03  0.7818608E-02  0.1093470E+00
          1   -1    0    0  502    0  0.00000000000E+00  0.00000000000E+00  0.24130169708E+03  0.24130169708E+03  0.00000000000E+00 0.  1.
         13   -1    0    0    0    0 -0.00000000000E+00 -0.00000000000E+00 -0.27500000000E+03  0.27500000000E+03  0.00000000000E+00 0.  1.
    9000005    2    1    2  501    0  0.26179421911E+02 -0.31534947546E+02 -0.30281192624E+02  0.47517394865E+03  0.47243360994E+03 0.  0.
         13    1    3    3    0    0  0.63475402699E+02  0.19067921315E+03  0.89496594327E+02  0.21999393053E+03  0.00000000000E+00 0.  1.
          1    1    3    3  501    0 -0.37295980788E+02 -0.22221416070E+03 -0.11977778695E+03  0.25518001811E+03  0.00000000000E+00 0.  1.
         21    1    1    2  502  501 -0.26179421911E+02  0.31534947546E+02 -0.34171102968E+01  0.41127748432E+02  0.00000000000E+00 0. -1.
<scales pt_clust_4="550.00000" pt_clust_5="550.00000" pt_clust_6="40.98557"></scales>
<mgrwt>
<rscale>  0 0.30000000E+03</rscale>
<asrwt>  1 0.40985567E+02</asrwt>
<pdfrwt beam="1">  1        1 0.87746072E+00 0.30000000E+03</pdfrwt>
<pdfrwt beam="2">0</pdfrwt>
<totfact> 0.20540106E-04</totfact>
</mgrwt>
<clustering>
<clus scale="   40.986">  1  6  2 -1</clus>
<clus scale="  472.434">  4  5 -1 -1</clus>
<clus scale="  300.000">  1  4  2 -1</clus>
</clustering>
</event>
<event>
 6    1  0.9843879E-012  0.3000000E+03  0.7818608E-02  0.1093470E+00
          1   -1    0    0  502    0  0.00000000000E+00  0.00000000000E+00  0.21736614718E+03  0.21736614718E+03  0.00000000000E+00 0.  1.
         13   -1    0    0    0    0 -0.00000000000E+00 -0.00000000000E+00 -0.27500000000E+03  0.27500000000E+03  0.00000000000E+00 0.  1.
    9000005    2    1    2  501    0 -0.30574481217E+02 -0.61545649565E+01 -0.54940311441E+02  0.46106226984E+03  0.45671358780E+03 0.  0.
         13    1    3    3    0    0  0.49967155898E+02 -0.11554032917E+03 -0.21622262892E+03  0.25019694160E+03  0.00000000000E+00 0.  1.
          1    1    3    3  501    0 -0.80541637115E+02  0.10938576421E+03  0.16128231748E+03  0.21086532823E+03  0.00000000000E+00 0.  1.
         21    1    1    2  502  501  0.30574481217E+02  0.61545649565E+01 -0.26935413775E+01  0.31303877342E+02  0.00000000000E+00 0.  1.
<scales pt_clust_4="550.00000" pt_clust_5="550.00000" pt_clust_6="31.18778"></scales>
<mgrwt>
<rscale>  0 0.30000000E+03</rscale>
<asrwt>  1 0.31187779E+02</asrwt>
<pdfrwt beam="1">  1        1 0.79042235E+00 0.30000000E+03</pdfrwt>
<pdfrwt beam="2">0</pdfrwt>
<totfact> 0.12506839E-03</totfact>
</mgrwt>
<clustering>
<clus scale="   31.188">  1  6  2 -1</clus>
<clus scale="  456.714">  4  5 -1 -1</clus>
<clus scale="  300.000">  1  4  2 -1</clus>
</clustering>
</event>
<event>
 6    1  0.9843879E-012  0.3000000E+03  0.7818608E-02  0.1093470E+00
          1   -1    0    0  502    0  0.00000000000E+00  0.00000000000E+00  0.24941790533E+03  0.24941790533E+03  0.00000000000E+00 0.  1.
         13   -1    0    0    0    0 -0.00000000000E+00 -0.00000000000E+00 -0.27500000000E+03  0.27500000000E+03  0.00000000000E+00 0.  1.
    9000005    2    1    2  501    0 -0.98126756940E+01 -0.29656531128E+02 -0.58044768505E+02  0.47936656089E+03  0.47481291696E+03 0.  0.
         13    1    3    3    0    0  0.94707534207E+02 -0.12709066421E+03  0.15575090106E+03  0.22221587960E+03  0.00000000000E+00 0.  1.
          1    1    3    3  501    0 -0.10452020990E+03  0.97434133081E+02 -0.21379566956E+03  0.25715068130E+03  0.00000000000E+00 0.  1.
         21    1    1    2  502  501  0.98126756940E+01  0.29656531128E+02  0.32462673834E+02  0.45051344433E+02  0.00000000000E+00 0.  1.
<scales pt_clust_4="550.00000" pt_clust_5="550.00000" pt_clust_6="31.23777"></scales>
<mgrwt>
<rscale>  0 0.30000000E+03</rscale>
<asrwt>  1 0.31237773E+02</asrwt>
<pdfrwt beam="1">  1        1 0.90697420E+00 0.30000000E+03</pdfrwt>
<pdfrwt beam="2">0</pdfrwt>
<totfact> 0.86183846E-05</totfact>
</mgrwt>
<clustering>
<clus scale="   31.238">  1  6  2 -1</clus>
<clus scale="  474.813">  4  5 -1 -1</clus>
<clus scale="  300.000">  1  4  2 -1</clus>
</clustering>
</event>
<event>
 6    1  0.9843879E-012  0.3000000E+03  0.7818608E-02  0.1093470E+00
          1   -1    0    0  502    0  0.00000000000E+00  0.00000000000E+00  0.24152629646E+03  0.24152629646E+03  0.00000000000E+00 0.  1.
         13   -1    0    0    0    0 -0.00000000000E+00 -0.00000000000E+00 -0.27500000000E+03  0.27500000000E+03  0.00000000000E+00 0.  1.
    9000005    2    1    2  501    0  0.21616161807E+02  0.44340875151E+02 -0.17955073098E+02  0.46481363310E+03  0.46183975274E+03 0.  0.
         13    1    3    3    0    0 -0.11858726394E+03  0.96109928098E+02  0.16750818836E+03  0.22662535299E+03  0.00000000000E+00 0.  1.
          1    1    3    3  501    0  0.14020342575E+03 -0.51769052947E+02 -0.18546326146E+03  0.23818828012E+03  0.00000000000E+00 0.  1.
         21    1    1    2  502  501 -0.21616161807E+02 -0.44340875151E+02 -0.15518630443E+02  0.51712663354E+02  0.00000000000E+00 0. -1.
<scales pt_clust_4="550.00000" pt_clust_5="550.00000" pt_clust_6="49.32924"></scales>
<mgrwt>
<rscale>  0 0.30000000E+03</rscale>
<asrwt>  1 0.49329242E+02</asrwt>
<pdfrwt beam="1">  1        1 0.87827744E+00 0.30000000E+03</pdfrwt>
<pdfrwt beam="2">0</pdfrwt>
<totfact> 0.19448672E-04</totfact>
</mgrwt>
<clustering>
<clus scale="   49.329">  1  6  2 -1</clus>
<clus scale="  461.840">  4  5 -1 -1</clus>
<clus scale="  300.000">  1  4  2 -1</clus>
</clustering>
</event>
<event>
 6    1  0.9843879E-012  0.3000000E+03  0.7818608E-02  0.1093470E+00
          1   -1    0    0  502    0  0.00000000000E+00  0.00000000000E+00  0.22448138832E+03  0.22448138832E+03  0.00000000000E+00 0.  1.
         13   -1    0    0    0    0 -0.00000000000E+00 -0.00000000000E+00 -0.27500000000E+03  0.27500000000E+03  0.00000000000E+00 0.  1.
    9000005    2    1    2  501    0 -0.30748206736E+02 -0.12530510298E+02 -0.63384954580E+02  0.46387227874E+03  0.45832016387E+03 0.  0.
         13    1    3    3    0    0 -0.12631754902E+03  0.14985949422E+03 -0.15918190769E+03  0.25249330869E+03  0.00000000000E+00 0.  1.
          1    1    3    3  501    0  0.95569342288E+02 -0.16239000452E+03  0.95796953108E+02  0.21137897004E+03  0.00000000000E+00 0.  1.
         21    1    1    2  502  501  0.30748206736E+02  0.12530510298E+02  0.12866342904E+02  0.35609109586E+02  0.00000000000E+00 0. -1.
<scales pt_clust_4="550.00000" pt_clust_5="550.00000" pt_clust_6="33.20340"></scales>
<mgrwt>
<rscale>  0 0.30000000E+03</rscale>
<asrwt>  1 0.33203402E+02</asrwt>
<pdfrwt beam="1">  1        1 0.81629596E+00 0.30000000E+03</pdfrwt>
<pdfrwt beam="2">0</pdfrwt>
<totfact> 0.78469757E-04</totfact>
</mgrwt>
<clustering>
<clus scale="   33.203">  1  6  2 -1</clus>
<clus scale="  458.320">  4  5 -1 -1</clus>
<clus scale="  300.000">  1  4  2 -1</clus>
</clustering>
</event>
<event>
 6    1  0.9843879E-012  0.3000000E+03  0.7818608E-02  0.1093470E+00
          1   -1    0    0  502    0  0.00000000000E+00  0.00000000000E+00  0.23337699798E+03  0.23337699798E+03  0.00000000000E+00 0.  1.
         13   -1    0    0    0    0 -0.00000000000E+00 -0.00000000000E+00 -0.27500000000E+03  0.27500000000E+03  0.00000000000E+00 0.  1.
    9000005    2    1    2  501    0  0.23671356733E+02 -0.25859596738E+02 -0.63727166446E+02  0.46693250549E+03  0.46123287075E+03 0.  0.
         13    1    3    3    0    0  0.74373971795E+02 -0.13129075482E+03 -0.22303474771E+03  0.26928284139E+03  0.00000000000E+00 0.  1.
          1    1    3    3  501    0 -0.50702615062E+02  0.10543115808E+03  0.15930758126E+03  0.19764966409E+03  0.00000000000E+00 0.  1.
         21    1    1    2  502  501 -0.23671356733E+02  0.25859596738E+02  0.22104164422E+02  0.41444492491E+02  0.00000000000E+00 0.  1.
<scales pt_clust_4="550.00000" pt_clust_5="550.00000" pt_clust_6="35.05784"></scales>
<mgrwt>
<rscale>  0 0.30000000E+03</rscale>
<asrwt>  1 0.35057836E+02</asrwt>
<pdfrwt beam="1">  1        1 0.84864363E+00 0.30000000E+03</pdfrwt>
<pdfrwt beam="2">0</pdfrwt>
<totfact> 0.41886210E-04</totfact>
</mgrwt>
<clustering>
<clus scale="   35.058">  1  6  2 -1</clus>
<clus scale="  461.233">  4  5 -1 -1</clus>
<clus scale="  300.000">  1  4  2 -1</clus>
</clustering>
</event>
<event>
 6    1  0.9843879E-012  0.3000000E+03  0.7818608E-02  0.1093470E+00
          1   -1    0    0  502    0  0.00000000000E+00  0.00000000000E+00  0.24541452373E+03  0.24541452373E+03  0.00000000000E+00 0.  1.
         13   -1    0    0    0    0 -0.00000000000E+00 -0.00000000000E+00 -0.27500000000E+03  0.27500000000E+03  0.00000000000E+00 0.  1.
    9000005    2    1    2  501    0 -0.29417392938E+02  0.18116627297E+02 -0.49183489305E+01  0.47796381863E+03  0.47668818589E+03 0.  0.
         13    1    3    3    0    0  0.12331203356E+03 -0.17416490195E+03  0.64230275800E+02  0.22285600513E+03  0.00000000000E+00 0.  1.
          3    1    3    3  501    0 -0.15272942650E+03  0.19228152925E+03 -0.69148624731E+02  0.25510781350E+03  0.00000000000E+00 0.  1.
         21    1    1    2  502  501  0.29417392938E+02 -0.18116627297E+02 -0.24667127344E+02  0.42450705098E+02  0.00000000000E+00 0. -1.
<scales pt_clust_4="550.00000" pt_clust_5="550.00000" pt_clust_6="34.54846"></scales>
<mgrwt>
<rscale>  0 0.30000000E+03</rscale>
<asrwt>  1 0.34548464E+02</asrwt>
<pdfrwt beam="1">  1        1 0.89241645E+00 0.30000000E+03</pdfrwt>
<pdfrwt beam="2">0</pdfrwt>
<totfact> 0.13539938E-04</totfact>
</mgrwt>
<clustering>
<clus scale="   34.548">  1  6  2 -1</clus>
<clus scale="  476.688">  4  5 -1 -1</clus>
<clus scale="  300.000">  1  4  2 -1</clus>
</clustering>
</event>
<event>
 6    1  0.9843879E-012  0.3000000E+03  0.7818608E-02  0.1093470E+00
          1   -1    0    0  502    0  0.00000000000E+00  0.00000000000E+00  0.24120229649E+03  0.24120229649E+03  0.00000000000E+00 0.  1.
         13   -1    0    0    0    0 -0.00000000000E+00 -0.00000000000E+00 -0.27500000000E+03  0.27500000000E+03  0.00000000000E+00 0.  1.
    9000005    2    1    2  501    0 -0.22290638394E+02  0.23137874941E+02 -0.53866752183E+02  0.47832089563E+03  0.47419090922E+03 0.  0.
         13    1    3    3    0    0 -0.29779519040E+02 -0.68367548619E+02 -0.25047070002E+03  0.26133601556E+03  0.00000000000E+00 0.  1.
          3    1    3    3  501    0  0.74888806464E+01  0.91505423561E+02  0.19660394784E+03  0.21698488007E+03  0.00000000000E+00 0.  1.
         21    1    1    2  502  501  0.22290638394E+02 -0.23137874941E+02  0.20069048673E+02  0.37881400865E+02  0.00000000000E+00 0.  1.
<scales pt_clust_4="550.00000" pt_clust_5="550.00000" pt_clust_6="32.12840"></scales>
<mgrwt>
<rscale>  0 0.30000000E+03</rscale>
<asrwt>  1 0.32128396E+02</asrwt>
<pdfrwt beam="1">  1        1 0.87709926E+00 0.30000000E+03</pdfrwt>
<pdfrwt beam="2">0</pdfrwt>
<totfact> 0.21692039E-04</totfact>
</mgrwt>
<clustering>
<clus scale="   32.128">  1  6  2 -1</clus>
<clus scale="  474.191">  4  5 -1 -1</clus>
<clus scale="  300.000">  1  4  2 -1</clus>
</clustering>
</event>
<event>
 6    1  0.9843879E-012  0.3000000E+03  0.7818608E-02  0.1093470E+00
          1   -1    0    0  502    0  0.00000000000E+00  0.00000000000E+00  0.23308449060E+03  0.23308449060E+03  0.00000000000E+00 0.  1.
         13   -1    0    0    0    0 -0.00000000000E+00 -0.00000000000E+00 -0.27500000000E+03  0.27500000000E+03  0.00000000000E+00 0.  1.
    9000005    2    1    2  501    0  0.13409106101E+02  0.38482641145E+02 -0.55983954042E+02  0.46497255570E+03  0.45978751250E+03 0.  0.
         13    1    3    3    0    0  0.11524796320E+03  0.16173718316E+03  0.11612705319E+03  0.23005760566E+03  0.00000000000E+00 0.  1.
          1    1    3    3  501    0 -0.10183885710E+03 -0.12325454202E+03 -0.17211100723E+03  0.23491495004E+03  0.00000000000E+00 0.  1.
         21    1    1    2  502  501 -0.13409106101E+02 -0.38482641145E+02  0.14068444643E+02  0.43111934898E+02  0.00000000000E+00 0.  1.
<scales pt_clust_4="550.00000" pt_clust_5="550.00000" pt_clust_6="40.75191"></scales>
<mgrwt>
<rscale>  0 0.30000000E+03</rscale>
<asrwt>  1 0.40751905E+02</asrwt>
<pdfrwt beam="1">  1        1 0.84757997E+00 0.30000000E+03</pdfrwt>
<pdfrwt beam="2">0</pdfrwt>
<totfact> 0.41664370E-04</totfact>
</mgrwt>
<clustering>
<clus scale="   40.752">  1  6  2 -1</clus>
<clus scale="  459.788">  4  5 -1 -1</clus>
<clus scale="  300.000">  1  4  2 -1</clus>
</clustering>
</event>
<event>
 6    1  0.9843879E-012  0.3000000E+03  0.7818608E-02  0.1093470E+00
          1   -1    0    0  502    0  0.00000000000E+00  0.00000000000E+00  0.22774502893E+03  0.22774502893E+03  0.00000000000E+00 0.  1.
         13   -1    0    0    0    0 -0.00000000000E+00 -0.00000000000E+00 -0.27500000000E+03  0.27500000000E+03  0.00000000000E+00 0.  1.
    9000005    2    1    2  501    0 -0.27536934053E+02 -0.29374264845E+02 -0.56407288163E+02  0.46145465378E+03  0.45622087322E+03 0.  0.
         13    1    3    3    0    0 -0.22894810447E+03  0.34932525005E+02 -0.87853337624E+02  0.24770087763E+03  0.00000000000E+00 0.  1.
          3    1    3    3  501    0  0.20141117042E+03 -0.64306789850E+02  0.31446049461E+02  0.21375377615E+03  0.00000000000E+00 0.  1.
         21    1    1    2  502  501  0.27536934053E+02  0.29374264845E+02  0.91523170914E+01  0.41290375154E+02  0.00000000000E+00 0.  1.
<scales pt_clust_4="550.00000" pt_clust_5="550.00000" pt_clust_6="40.26326"></scales>
<mgrwt>
<rscale>  0 0.30000000E+03</rscale>
<asrwt>  1 0.40263261E+02</asrwt>
<pdfrwt beam="1">  1        1 0.82816374E+00 0.30000000E+03</pdfrwt>
<pdfrwt beam="2">0</pdfrwt>
<totfact> 0.59690316E-04</totfact>
</mgrwt>
<clustering>
<clus scale="   40.263">  1  6  2 -1</clus>
<clus scale="  456.221">  4  5 -1 -1</clus>
<clus scale="  300.000">  1  4  2 -1</clus>
</clustering>
</event>
<event>
 6    1  0.9843879E-012  0.3000000E+03  0.7818608E-02  0.1093470E+00
          1   -1    0    0  502    0  0.00000000000E+00  0.00000000000E+00  0.22646935069E+03  0.22646935069E+03  0.00000000000E+00 0.  1.
         13   -1    0    0    0    0 -0.00000000000E+00 -0.00000000000E+00 -0.27500000000E+03  0.27500000000E+03  0.00000000000E+00 0.  1.
    9000005    2    1    2  501    0  0.31911195819E+02  0.17224562978E+00 -0.68269968567E+02  0.46394609374E+03  0.45778470399E+03 0.  0.
         13    1    3    3    0    0  0.18156213976E+03 -0.58127787105E+02 -0.18480782711E+03  0.26551380979E+03  0.00000000000E+00 0.  1.
          3    1    3    3  501    0 -0.14965094394E+03  0.58300032735E+02  0.11653785855E+03  0.19843228395E+03  0.00000000000E+00 0.  1.
         21    1    1    2  502  501 -0.31911195819E+02 -0.17224562978E+00  0.19739319260E+02  0.37523256949E+02  0.00000000000E+00 0.  1.
<scales pt_clust_4="550.00000" pt_clust_5="550.00000" pt_clust_6="31.91166"></scales>
<mgrwt>
<rscale>  0 0.30000000E+03</rscale>
<asrwt>  1 0.31911661E+02</asrwt>
<pdfrwt beam="1">  1        1 0.82352491E+00 0.30000000E+03</pdfrwt>
<pdfrwt beam="2">0</pdfrwt>
<totfact> 0.68513217E-04</totfact>
</mgrwt>
<clustering>
<clus scale="   31.912">  1  6  2 -1</clus>
<clus scale="  457.785">  4  5 -1 -1</clus>
<clus scale="  300.000">  1  4  2 -1</clus>
</clustering>
</event>
<event>
 6    1  0.9843879E-012  0.3000000E+03  0.7818608E-02  0.1093470E+00
          1   -1    0    0  502    0  0.00000000000E+00  0.00000000000E+00  0.23714226050E+03  0.23714226050E+03  0.00000000000E+00 0.  1.
         13   -1    0    0    0    0 -0.00000000000E+00 -0.00000000000E+00 -0.27500000000E+03  0.27500000000E+03  0.00000000000E+00 0.  1.
    9000005    2    1    2  501    0 -0.30944199549E+02 -0.72957887413E+01 -0.72954772685E+02  0.46478643977E+03  0.45792277047E+03 0.  0.
         13    1    3    3    0    0 -0.16361334980E+03  0.15846607997E+03  0.28366465274E+02  0.22953318515E+03  0.00000000000E+00 0.  1.
          1    1    3    3  501    0  0.13266915025E+03 -0.16576186871E+03 -0.10132123796E+03  0.23525325462E+03  0.00000000000E+00 0.  1.
         21    1    1    2  502  501  0.30944199549E+02  0.72957887413E+01  0.35097033185E+02  0.47355820735E+02  0.00000000000E+00 0. -1.
<scales pt_clust_4="550.00000" pt_clust_5="550.00000" pt_clust_6="31.79264"></scales>
<mgrwt>
<rscale>  0 0.30000000E+03</rscale>
<asrwt>  1 0.31792641E+02</asrwt>
<pdfrwt beam="1">  1        1 0.86233549E+00 0.30000000E+03</pdfrwt>
<pdfrwt beam="2">0</pdfrwt>
<totfact> 0.31087561E-04</totfact>
</mgrwt>
<clustering>
<clus scale="   31.793">  1  6  2 -1</clus>
<clus scale="  457.923">  4  5 -1 -1</clus>
<clus scale="  300.000">  1  4  2 -1</clus>
</clustering>
</event>
<event>
 6    1  0.9843879E-012  0.3000000E+03  0.7818608E-02  0.1093470E+00
          1   -1    0    0  502    0  0.00000000000E+00  0.00000000000E+00  0.23085422845E+03  0.23085422845E+03  0.00000000000E+00 0.  1.
         13   -1    0    0    0    0 -0.00000000000E+00 -0.00000000000E+00 -0.27500000000E+03  0.27500000000E+03  0.00000000000E+00 0.  1.
    9000005    2    1    2  501    0 -0.32038867793E+02 -0.82504418519E+01 -0.67279595813E+02  0.46548428090E+03  0.45940669663E+03 0.  0.
         13    1    3    3    0    0  0.48890762338E+02  0.26008735383E+02 -0.25354788724E+03  0.25952512804E+03  0.00000000000E+00 0.  1.
          3    1    3    3  501    0 -0.80929630131E+02 -0.34259177235E+02  0.18626829143E+03  0.20595915287E+03  0.00000000000E+00 0.  1.
         21    1    1    2  502  501  0.32038867793E+02  0.82504418519E+01  0.23133824263E+02  0.40369947551E+02  0.00000000000E+00 0.  1.
<scales pt_clust_4="550.00000" pt_clust_5="550.00000" pt_clust_6="33.08412"></scales>
<mgrwt>
<rscale>  0 0.30000000E+03</rscale>
<asrwt>  1 0.33084118E+02</asrwt>
<pdfrwt beam="1">  1        1 0.83946992E+00 0.30000000E+03</pdfrwt>
<pdfrwt beam="2">0</pdfrwt>
<totfact> 0.50702069E-04</totfact>
</mgrwt>
<clustering>
<clus scale="   33.084">  1  6  2 -1</clus>
<clus scale="  459.407">  4  5 -1 -1</clus>
<clus scale="  300.000">  1  4  2 -1</clus>
</clustering>
</event>
<event>
 6    1  0.9843879E-012  0.3000000E+03  0.7818608E-02  0.1093470E+00
          1   -1    0    0  502    0  0.00000000000E+00  0.00000000000E+00  0.23629326517E+03  0.23629326517E+03  0.00000000000E+00 0.  1.
         13   -1    0    0    0    0 -0.00000000000E+00 -0.00000000000E+00 -0.27500000000E+03  0.27500000000E+03  0.00000000000E+00 0.  1.
    9000005    2    1    2  501    0  0.20988673064E+00  0.32570990335E+02 -0.58265756758E+02  0.47330025525E+03  0.46856943962E+03 0.  0.
         13    1    3    3    0    0 -0.10981406970E+03 -0.17124079037E+03  0.61545949081E+02  0.21253339041E+03  0.00000000000E+00 0.  1.
          3    1    3    3  501    0  0.11002395643E+03  0.20381178070E+03 -0.11981170584E+03  0.26076686484E+03  0.00000000000E+00 0.  1.
         21    1    1    2  502  501 -0.20988673064E+00 -0.32570990335E+02  0.19559021927E+02  0.37993009917E+02  0.00000000000E+00 0.  1.
<scales pt_clust_4="550.00000" pt_clust_5="550.00000" pt_clust_6="32.57167"></scales>
<mgrwt>
<rscale>  0 0.30000000E+03</rscale>
<asrwt>  1 0.32571667E+02</asrwt>
<pdfrwt beam="1">  1        1 0.85924824E+00 0.30000000E+03</pdfrwt>
<pdfrwt beam="2">0</pdfrwt>
<totfact> 0.33396169E-04</totfact>
</mgrwt>
<clustering>
<clus scale="   32.572">  1  6  2 -1</clus>
<clus scale="  468.569">  4  5 -1 -1</clus>
<clus scale="  300.000">  1  4  2 -1</clus>
</clustering>
</event>
<event>
 6    1  0.9843879E-012  0.3000000E+03  0.7818608E-02  0.1093470E+00
          1   -1    0    0  502    0  0.00000000000E+00  0.00000000000E+00  0.22271030307E+03  0.22271030307E+03  0.00000000000E+00 0.  1.
         13   -1    0    0    0    0 -0.00000000000E+00 -0.00000000000E+00 -0.27500000000E+03  0.27500000000E+03  0.00000000000E+00 0.  1.
    9000005    2    1    2  501    0  0.27131019510E+02  0.17020728177E+02 -0.53526887614E+02  0.46565834450E+03  0.46146155711E+03 0.  0.
         13    1    3    3    0    0 -0.27931221225E+02  0.22637709490E+03 -0.91710300218E+02  0.24584043886E+03  0.00000000000E+00 0.  1.
          3    1    3    3  501    0  0.55062240735E+02 -0.20935636672E+03  0.38183412603E+02  0.21981790564E+03  0.00000000000E+00 0.  1.
         21    1    1    2  502  501 -0.27131019510E+02 -0.17020728177E+02  0.12371906799E+01  0.32051958569E+02  0.00000000000E+00 0. -1.
<scales pt_clust_4="550.00000" pt_clust_5="550.00000" pt_clust_6="32.02807"></scales>
<mgrwt>
<rscale>  0 0.30000000E+03</rscale>
<asrwt>  1 0.32028072E+02</asrwt>
<pdfrwt beam="1">  1        1 0.80985565E+00 0.30000000E+03</pdfrwt>
<pdfrwt beam="2">0</pdfrwt>
<totfact> 0.88916315E-04</totfact>
</mgrwt>
<clustering>
<clus scale="   32.028">  1  6  2 -1</clus>
<clus scale="  461.462">  4  5 -1 -1</clus>
<clus scale="  300.000">  1  4  2 -1</clus>
</clustering>
</event>
<event>
 6    1  0.9843879E-012  0.3000000E+03  0.7818608E-02  0.1093470E+00
          1   -1    0    0  502    0  0.00000000000E+00  0.00000000000E+00  0.22084577369E+03  0.22084577369E+03  0.00000000000E+00 0.  1.
         13   -1    0    0    0    0 -0.00000000000E+00 -0.00000000000E+00 -0.27500000000E+03  0.27500000000E+03  0.00000000000E+00 0.  1.
    9000005    2    1    2  501    0 -0.30668813610E+02 -0.82004095943E+01 -0.41043984438E+02  0.46149899382E+03  0.45857266577E+03 0.  0.
         13    1    3    3    0    0 -0.24199404574E+03  0.11936038255E+02  0.12356227154E+02  0.24260309877E+03  0.00000000000E+00 0.  1.
          3    1    3    3  501    0  0.21132523213E+03 -0.20136447850E+02 -0.53400211592E+02  0.21889589504E+03  0.00000000000E+00 0.  1.
         21    1    1    2  502  501  0.30668813610E+02  0.82004095943E+01 -0.13110241872E+02  0.34346779874E+02  0.00000000000E+00 0.  1.
<scales pt_clust_4="550.00000" pt_clust_5="550.00000" pt_clust_6="31.74624"></scales>
<mgrwt>
<rscale>  0 0.30000000E+03</rscale>
<asrwt>  1 0.31746242E+02</asrwt>
<pdfrwt beam="1">  1        1 0.80307554E+00 0.30000000E+03</pdfrwt>
<pdfrwt beam="2">0</pdfrwt>
<totfact> 0.10032548E-03</totfact>
</mgrwt>
<clustering>
<clus scale="   31.746">  1  6  2 -1</clus>
<clus scale="  458.573">  4  5 -1 -1</clus>
<clus scale="  300.000">  1  4  2 -1</clus>
</clustering>
</event>
<event>
 6    1  0.9843879E-012  0.3000000E+03  0.7818608E-02  0.1093470E+00
          1   -1    0    0  502    0  0.00000000000E+00  0.00000000000E+00  0.22498156675E+03  0.22498156675E+03  0.00000000000E+00 0.  1.
         13   -1    0    0    0    0 -0.00000000000E+00 -0.00000000000E+00 -0.27500000000E+03  0.27500000000E+03  0.00000000000E+00 0.  1.
    9000005    2    1    2  501    0 -0.20001271935E+02  0.22847763723E+02 -0.56570088675E+02  0.46891719206E+03  0.46450090085E+03 0.  0.
         13    1    3    3    0    0  0.17665632612E+03 -0.35981454400E+02 -0.15821339807E+03  0.23986163084E+03  0.00000000000E+00 0.  1.
          3    1    3    3  501    0 -0.19665759806E+03  0.58829218122E+02  0.10164330940E+03  0.22905556122E+03  0.00000000000E+00 0.  1.
         21    1    1    2  502  501  0.20001271935E+02 -0.22847763723E+02  0.65516554269E+01  0.31064374692E+02  0.00000000000E+00 0.  1.
<scales pt_clust_4="550.00000" pt_clust_5="550.00000" pt_clust_6="30.36563"></scales>
<mgrwt>
<rscale>  0 0.30000000E+03</rscale>
<asrwt>  1 0.30365625E+02</asrwt>
<pdfrwt beam="1">  1        1 0.81811479E+00 0.30000000E+03</pdfrwt>
<pdfrwt beam="2">0</pdfrwt>
<totfact> 0.77103863E-04</totfact>
</mgrwt>
<clustering>
<clus scale="   30.366">  1  6  2 -1</clus>
<clus scale="  464.501">  4  5 -1 -1</clus>
<clus scale="  300.000">  1  4  2 -1</clus>
</clustering>
</event>
<event>
 6    1  0.9843879E-012  0.3000000E+03  0.7818608E-02  0.1093470E+00
          1   -1    0    0  502    0  0.00000000000E+00  0.00000000000E+00  0.22674462339E+03  0.22674462339E+03  0.00000000000E+00 0.  1.
         13   -1    0    0    0    0 -0.00000000000E+00 -0.00000000000E+00 -0.27500000000E+03  0.27500000000E+03  0.00000000000E+00 0.  1.
    9000005    2    1    2  501    0  0.23078554730E+02  0.22960497214E+02 -0.53510086495E+02  0.46876863065E+03  0.46456527594E+03 0.  0.
         13    1    3    3    0    0 -0.11453964381E+03  0.16926457598E+03  0.88566201635E+02  0.22274155149E+03  0.00000000000E+00 0.  1.
          1    1    3    3  501    0  0.13761819854E+03 -0.14630407877E+03 -0.14207628813E+03  0.24602707917E+03  0.00000000000E+00 0.  1.
         21    1    1    2  502  501 -0.23078554730E+02 -0.22960497214E+02  0.52547098820E+01  0.32975992732E+02  0.00000000000E+00 0. -1.
<scales pt_clust_4="550.00000" pt_clust_5="550.00000" pt_clust_6="32.55463"></scales>
<mgrwt>
<rscale>  0 0.30000000E+03</rscale>
<asrwt>  1 0.32554633E+02</asrwt>
<pdfrwt beam="1">  1        1 0.82452590E+00 0.30000000E+03</pdfrwt>
<pdfrwt beam="2">0</pdfrwt>
<totfact> 0.66862784E-04</totfact>
</mgrwt>
<clustering>
<clus scale="   32.555">  1  6  2 -1</clus>
<clus scale="  464.565">  4  5 -1 -1</clus>
<clus scale="  300.000">  1  4  2 -1</clus>
</clustering>
</event>
<event>
 6    1  0.9843879E-012  0.3000000E+03  0.7818608E-02  0.1093470E+00
          1   -1    0    0  502    0  0.00000000000E+00  0.00000000000E+00  0.25437326936E+03  0.25437326936E+03  0.00000000000E+00 0.  1.
         13   -1    0    0    0    0 -0.00000000000E+00 -0.00000000000E+00 -0.27500000000E+03  0.27500000000E+03  0.00000000000E+00 0.  1.
    9000005    2    1    2  501    0  0.11659843415E+02 -0.27797836334E+02 -0.38456406901E+02  0.49435086212E+03  0.49193008446E+03 0.  0.
         13    1    3    3    0    0 -0.15389854887E+03 -0.17669481039E+03 -0.11219241792E+03  0.25979406845E+03  0.00000000000E+00 0.  1.
          1    1    3    3  501    0  0.16555839228E+03  0.14889697405E+03  0.73736011022E+02  0.23455679367E+03  0.00000000000E+00 0.  1.
         21    1    1    2  502  501 -0.11659843415E+02  0.27797836334E+02  0.17829676258E+02  0.35022407238E+02  0.00000000000E+00 0.  1.
<scales pt_clust_4="550.00000" pt_clust_5="550.00000" pt_clust_6="30.14418"></scales>
<mgrwt>
<rscale>  0 0.30000000E+03</rscale>
<asrwt>  1 0.30144181E+02</asrwt>
<pdfrwt beam="1">  1        1 0.92499371E+00 0.30000000E+03</pdfrwt>
<pdfrwt beam="2">0</pdfrwt>
<totfact> 0.33746745E-05</totfact>
</mgrwt>
<clustering>
<clus scale="   30.144">  1  6  2 -1</clus>
<clus scale="  491.930">  4  5 -1 -1</clus>
<clus scale="  300.000">  1  4  2 -1</clus>
</clustering>
</event>
<event>
 6    1  0.9843879E-012  0.3000000E+03  0.7818608E-02  0.1093470E+00
          1   -1    0    0  502    0  0.00000000000E+00  0.00000000000E+00  0.24691352551E+03  0.24691352551E+03  0.00000000000E+00 0.  1.
         13   -1    0    0    0    0 -0.00000000000E+00 -0.00000000000E+00 -0.27500000000E+03  0.27500000000E+03  0.00000000000E+00 0.  1.
    9000005    2    1    2  501    0  0.26353061270E+02  0.21595940410E+02 -0.58817049699E+02  0.47603066669E+03  0.47115271602E+03 0.  0.
         13    1    3    3    0    0 -0.21227145760E+03  0.39607119559E+02 -0.91470968577E+02  0.23450977319E+03  0.00000000000E+00 0.  1.
          3    1    3    3  501    0  0.23862451887E+03 -0.18011179149E+02  0.32653918878E+02  0.24152089350E+03  0.00000000000E+00 0.  1.
         21    1    1    2  502  501 -0.26353061270E+02 -0.21595940410E+02  0.30730575213E+02  0.45882858820E+02  0.00000000000E+00 0. -1.
<scales pt_clust_4="550.00000" pt_clust_5="550.00000" pt_clust_6="34.07152"></scales>
<mgrwt>
<rscale>  0 0.30000000E+03</rscale>
<asrwt>  1 0.34071520E+02</asrwt>
<pdfrwt beam="1">  1        1 0.89786737E+00 0.30000000E+03</pdfrwt>
<pdfrwt beam="2">0</pdfrwt>
<totfact> 0.11768800E-04</totfact>
</mgrwt>
<clustering>
<clus scale="   34.072">  1  6  2 -1</clus>
<clus scale="  471.153">  4  5 -1 -1</clus>
<clus scale="  300.000">  1  4  2 -1</clus>
</clustering>
</event>
<event>
 6    1  0.9843879E-012  0.3000000E+03  0.7818608E-02  0.1093470E+00
          1   -1    0    0  502    0  0.00000000000E+00  0.00000000000E+00  0.23252425234E+03  0.23252425234E+03  0.00000000000E+00 0.  1.
         13   -1    0    0    0    0 -0.00000000000E+00 -0.00000000000E+00 -0.27500000000E+03  0.27500000000E+03  0.00000000000E+00 0.  1.
    9000005    2    1    2  501    0  0.15311421741E+02 -0.31858540005E+02 -0.57463697846E+02  0.46913096051E+03  0.46425464492E+03 0.  0.
         13    1    3    3    0    0 -0.20433359937E+03  0.18781372386E+02  0.61558448616E+02  0.21422978873E+03  0.00000000000E+00 0.  1.
          3    1    3    3  501    0  0.21964502111E+03 -0.50639912391E+02 -0.11902214646E+03  0.25490117178E+03  0.00000000000E+00 0.  1.
         21    1    1    2  502  501 -0.15311421741E+02  0.31858540005E+02  0.14987950185E+02  0.38393291832E+02  0.00000000000E+00 0. -1.
<scales pt_clust_4="550.00000" pt_clust_5="550.00000" pt_clust_6="35.34694"></scales>
<mgrwt>
<rscale>  0 0.30000000E+03</rscale>
<asrwt>  1 0.35346941E+02</asrwt>
<pdfrwt beam="1">  1        1 0.84554274E+00 0.30000000E+03</pdfrwt>
<pdfrwt beam="2">0</pdfrwt>
<totfact> 0.44607248E-04</totfact>
</mgrwt>
<clustering>
<clus scale="   35.347">  1  6  2 -1</clus>
<clus scale="  464.255">  4  5 -1 -1</clus>
<clus scale="  300.000">  1  4  2 -1</clus>
</clustering>
</event>
<event>
 6    1  0.9843879E-012  0.3000000E+03  0.7818608E-02  0.1093470E+00
          1   -1    0    0  502    0  0.00000000000E+00  0.00000000000E+00  0.23727706222E+03  0.23727706222E+03  0.00000000000E+00 0.  1.
         13   -1    0    0    0    0 -0.00000000000E+00 -0.00000000000E+00 -0.27500000000E+03  0.27500000000E+03  0.00000000000E+00 0.  1.
    9000005    2    1    2  501    0 -0.37151773983E+02 -0.27454903239E+02 -0.54919430532E+02  0.46298461467E+03  0.45738887563E+03 0.  0.
         13    1    3    3    0    0 -0.29360250680E+02 -0.22163691006E+03  0.67210027369E+02  0.23345691679E+03  0.00000000000E+00 0.  1.
          1    1    3    3  501    0 -0.77915233033E+01  0.19418200682E+03 -0.12212945790E+03  0.22952769788E+03  0.00000000000E+00 0.  1.
         21    1    1    2  502  501  0.37151773983E+02  0.27454903239E+02  0.17196492748E+02  0.49292447543E+02  0.00000000000E+00 0.  1.
<scales pt_clust_4="550.00000" pt_clust_5="550.00000" pt_clust_6="46.19552"></scales>
<mgrwt>
<rscale>  0 0.30000000E+03</rscale>
<asrwt>  1 0.46195520E+02</asrwt>
<pdfrwt beam="1">  1        1 0.86282568E+00 0.30000000E+03</pdfrwt>
<pdfrwt beam="2">0</pdfrwt>
<totfact> 0.28669965E-04</totfact>
</mgrwt>
<clustering>
<clus scale="   46.196">  1  6  2 -1</clus>
<clus scale="  457.389">  4  5 -1 -1</clus>
<clus scale="  300.000">  1  4  2 -1</clus>
</clustering>
</event>
<event>
 6    1  0.9843879E-012  0.3000000E+03  0.7818608E-02  0.1093470E+00
          1   -1    0    0  502    0  0.00000000000E+00  0.00000000000E+00  0.24686116455E+03  0.24686116455E+03  0.00000000000E+00 0.  1.
         13   -1    0    0    0    0 -0.00000000000E+00 -0.00000000000E+00 -0.27500000000E+03  0.27500000000E+03  0.00000000000E+00 0.  1.
    9000005    2    1    2  501    0  0.36293699957E+02 -0.13746065832E+02 -0.67944907915E+02  0.46626700670E+03  0.45965446157E+03 0.  0.
         13    1    3    3    0    0  0.46628565948E+01 -0.76332164533E+01 -0.26572740189E+03  0.26587790495E+03  0.00000000000E+00 0.  1.
          1    1    3    3  501    0  0.31630843362E+02 -0.61128493791E+01  0.19778249397E+03  0.20038910175E+03  0.00000000000E+00 0.  1.
         21    1    1    2  502  501 -0.36293699957E+02  0.13746065832E+02  0.39806072468E+02  0.55594157856E+02  0.00000000000E+00 0.  1.
<scales pt_clust_4="550.00000" pt_clust_5="550.00000" pt_clust_6="38.80962"></scales>
<mgrwt>
<rscale>  0 0.30000000E+03</rscale>
<asrwt>  1 0.38809625E+02</asrwt>
<pdfrwt beam="1">  1        1 0.89767696E+00 0.30000000E+03</pdfrwt>
<pdfrwt beam="2">0</pdfrwt>
<totfact> 0.11545132E-04</totfact>
</mgrwt>
<clustering>
<clus scale="   38.810">  1  6  2 -1</clus>
<clus scale="  459.654">  4  5 -1 -1</clus>
<clus scale="  300.000">  1  4  2 -1</clus>
</clustering>
</event>
<event>
 6    1  0.9843879E-012  0.3000000E+03  0.7818608E-02  0.1093470E+00
          1   -1    0    0  502    0  0.00000000000E+00  0.00000000000E+00  0.22369933953E+03  0.22369933953E+03  0.00000000000E+00 0.  1.
         13   -1    0    0    0    0 -0.00000000000E+00 -0.00000000000E+00 -0.27500000000E+03  0.27500000000E+03  0.00000000000E+00 0.  1.
    9000005    2    1    2  501    0 -0.30842453458E+02  0.96240041345E+01 -0.37746138932E+02  0.46366216720E+03  0.46099235991E+03 0.  0.
         13    1    3    3    0    0 -0.17381091471E+03  0.92582034009E+02 -0.16351053073E+03  0.25596359263E+03  0.00000000000E+00 0.  1.
          1    1    3    3  501    0  0.14296846125E+03 -0.82958029874E+02  0.12576439180E+03  0.20769857457E+03  0.00000000000E+00 0.  1.
         21    1    1    2  502  501  0.30842453458E+02 -0.96240041345E+01 -0.13554521535E+02  0.35037172331E+02  0.00000000000E+00 0. -1.
<scales pt_clust_4="550.00000" pt_clust_5="550.00000" pt_clust_6="32.30912"></scales>
<mgrwt>
<rscale>  0 0.30000000E+03</rscale>
<asrwt>  1 0.32309123E+02</asrwt>
<pdfrwt beam="1">  1        1 0.81345214E+00 0.30000000E+03</pdfrwt>
<pdfrwt beam="2">0</pdfrwt>
<totfact> 0.83159855E-04</totfact>
</mgrwt>
<clustering>
<clus scale="   32.309">  1  6  2 -1</clus>
<clus scale="  460.992">  4  5 -1 -1</clus>
<clus scale="  300.000">  1  4  2 -1</clus>
</clustering>
</event>
<event>
 6    1  0.9843879E-012  0.3000000E+03  0.7818608E-02  0.1093470E+00
          1   -1    0    0  502    0  0.00000000000E+00  0.00000000000E+00  0.24225871443E+03  0.24225871443E+03  0.00000000000E+00 0.  1.
         13   -1    0    0    0    0 -0.00000000000E+00 -0.00000000000E+00 -0.27500000000E+03  0.27500000000E+03  0.00000000000E+00 0.  1.
    9000005    2    1    2  501    0  0.24168075258E+01  0.30941872937E+02 -0.52427567486E+02  0.48050561721E+03  0.47662748335E+03 0.  0.
         13    1    3    3    0    0  0.20185289023E+03  0.10702279999E+03 -0.11808357306E+03  0.25718125756E+03  0.00000000000E+00 0.  1.
          1    1    3    3  501    0 -0.19943608271E+03 -0.76080927054E+02  0.65656005571E+02  0.22332435965E+03  0.00000000000E+00 0.  1.
         21    1    1    2  502  501 -0.24168075258E+01 -0.30941872937E+02  0.19686281921E+02  0.36753097221E+02  0.00000000000E+00 0. -1.
<scales pt_clust_4="550.00000" pt_clust_5="550.00000" pt_clust_6="31.03612"></scales>
<mgrwt>
<rscale>  0 0.30000000E+03</rscale>
<asrwt>  1 0.31036115E+02</asrwt>
<pdfrwt beam="1">  1        1 0.88094078E+00 0.30000000E+03</pdfrwt>
<pdfrwt beam="2">0</pdfrwt>
<totfact> 0.19652112E-04</totfact>
</mgrwt>
<clustering>
<clus scale="   31.036">  1  6  2 -1</clus>
<clus scale="  476.627">  4  5 -1 -1</clus>
<clus scale="  300.000">  1  4  2 -1</clus>
</clustering>
</event>
<event>
 6    1  0.9843879E-012  0.3000000E+03  0.7818608E-02  0.1093470E+00
          1   -1    0    0  502    0  0.00000000000E+00  0.00000000000E+00  0.24473199442E+03  0.24473199442E+03  0.00000000000E+00 0.  1.
         13   -1    0    0    0    0 -0.00000000000E+00 -0.00000000000E+00 -0.27500000000E+03  0.27500000000E+03  0.00000000000E+00 0.  1.
    9000005    2    1    2  501    0 -0.58264516895E+02  0.15194690109E+01 -0.27590687692E+02  0.46138620841E+03  0.45685766333E+03 0.  0.
         13    1    3    3    0    0 -0.92266933009E+02  0.20964045195E+03  0.53908866019E+02  0.23530506126E+03  0.00000000000E+00 0.  1.
          1    1    3    3  501    0  0.34002416114E+02 -0.20812098294E+03 -0.81499553710E+02  0.22608114715E+03  0.00000000000E+00 0.  1.
         21    1    1    2  502  501  0.58264516895E+02 -0.15194690109E+01 -0.26773178847E+01  0.58345786018E+02  0.00000000000E+00 0.  1.
<scales pt_clust_4="550.00000" pt_clust_5="550.00000" pt_clust_6="58.28433"></scales>
<mgrwt>
<rscale>  0 0.30000000E+03</rscale>
<asrwt>  1 0.58284326E+02</asrwt>
<pdfrwt beam="1">  1        1 0.88993453E+00 0.30000000E+03</pdfrwt>
<pdfrwt beam="2">0</pdfrwt>
<totfact> 0.13259859E-04</totfact>
</mgrwt>
<clustering>
<clus scale="   58.284">  1  6  2 -1</clus>
<clus scale="  456.858">  4  5 -1 -1</clus>
<clus scale="  300.000">  1  4  2 -1</clus>
</clustering>
</event>
<event>
 6    1  0.9843879E-012  0.3000000E+03  0.7818608E-02  0.1093470E+00
          1   -1    0    0  502    0  0.00000000000E+00  0.00000000000E+00  0.24283445131E+03  0.24283445131E+03  0.00000000000E+00 0.  1.
         13   -1    0    0    0    0 -0.00000000000E+00 -0.00000000000E+00 -0.27500000000E+03  0.27500000000E+03  0.00000000000E+00 0.  1.
    9000005    2    1    2  501    0 -0.19501554454E+02  0.36424933054E+02 -0.40894443846E+01  0.46788093284E+03  0.46603514609E+03 0.  0.
         13    1    3    3    0    0 -0.18490603881E+03 -0.13002123429E+03  0.38768502494E+02  0.22934419840E+03  0.00000000000E+00 0.  1.
          3    1    3    3  501    0  0.16540448436E+03  0.16644616734E+03 -0.42857946879E+02  0.23853673444E+03  0.00000000000E+00 0.  1.
         21    1    1    2  502  501  0.19501554454E+02 -0.36424933054E+02 -0.28076104307E+02  0.49953518466E+02  0.00000000000E+00 0. -1.
<scales pt_clust_4="550.00000" pt_clust_5="550.00000" pt_clust_6="41.31692"></scales>
<mgrwt>
<rscale>  0 0.30000000E+03</rscale>
<asrwt>  1 0.41316922E+02</asrwt>
<pdfrwt beam="1">  1        1 0.88303437E+00 0.30000000E+03</pdfrwt>
<pdfrwt beam="2">0</pdfrwt>
<totfact> 0.17499225E-04</totfact>
</mgrwt>
<clustering>
<clus scale="   41.317">  1  6  2 -1</clus>
<clus scale="  466.035">  4  5 -1 -1</clus>
<clus scale="  300.000">  1  4  2 -1</clus>
</clustering>
</event>
<event>
 6    1  0.9843879E-012  0.3000000E+03  0.7818608E-02  0.1093470E+00
          1   -1    0    0  502    0  0.00000000000E+00  0.00000000000E+00  0.24043698772E+03  0.24043698772E+03  0.00000000000E+00 0.  1.
         13   -1    0    0    0    0 -0.00000000000E+00 -0.00000000000E+00 -0.27500000000E+03  0.27500000000E+03  0.00000000000E+00 0.  1.
    9000005    2    1    2  501    0  0.39301116463E+02  0.55691106808E+01 -0.68551255244E+02  0.46317999385E+03  0.45635604450E+03 0.  0.
         13    1    3    3    0    0 -0.66925488042E+02 -0.12195663675E+03 -0.20539258258E+03  0.24806965791E+03  0.00000000000E+00 0.  1.
          1    1    3    3  501    0  0.10622660450E+03  0.12752574743E+03  0.13684132733E+03  0.21511033594E+03  0.00000000000E+00 0.  1.
         21    1    1    2  502  501 -0.39301116463E+02 -0.55691106808E+01  0.33988242968E+02  0.52256993877E+02  0.00000000000E+00 0.  1.
<scales pt_clust_4="550.00000" pt_clust_5="550.00000" pt_clust_6="39.69374"></scales>
<mgrwt>
<rscale>  0 0.30000000E+03</rscale>
<asrwt>  1 0.39693737E+02</asrwt>
<pdfrwt beam="1">  1        1 0.87431632E+00 0.30000000E+03</pdfrwt>
<pdfrwt beam="2">0</pdfrwt>
<totfact> 0.22342227E-04</totfact>
</mgrwt>
<clustering>
<clus scale="   39.694">  1  6  2 -1</clus>
<clus scale="  456.356">  4  5 -1 -1</clus>
<clus scale="  300.000">  1  4  2 -1</clus>
</clustering>
</event>
<event>
 6    1  0.9843879E-012  0.3000000E+03  0.7818608E-02  0.1093470E+00
          1   -1    0    0  502    0  0.00000000000E+00  0.00000000000E+00  0.22778263671E+03  0.22778263671E+03  0.00000000000E+00 0.  1.
         13   -1    0    0    0    0 -0.00000000000E+00 -0.00000000000E+00 -0.27500000000E+03  0.27500000000E+03  0.00000000000E+00 0.  1.
    9000005    2    1    2  501    0 -0.79037337603E+01 -0.33352238765E+02 -0.61713347454E+02  0.46556739259E+03  0.46018433149E+03 0.  0.
         13    1    3    3    0    0 -0.10026288816E+03 -0.22143281278E+03 -0.78309304907E+02  0.25537714180E+03  0.00000000000E+00 0.  1.
          3    1    3    3  501    0  0.92359154395E+02  0.18808057402E+03  0.16595957453E+02  0.21019025079E+03  0.00000000000E+00 0.  1.
         21    1    1    2  502  501  0.79037337603E+01  0.33352238765E+02  0.14495984160E+02  0.37215244118E+02  0.00000000000E+00 0. -1.
<scales pt_clust_4="550.00000" pt_clust_5="550.00000" pt_clust_6="34.27595"></scales>
<mgrwt>
<rscale>  0 0.30000000E+03</rscale>
<asrwt>  1 0.34275951E+02</asrwt>
<pdfrwt beam="1">  1        1 0.82830050E+00 0.30000000E+03</pdfrwt>
<pdfrwt beam="2">0</pdfrwt>
<totfact> 0.61328103E-04</totfact>
</mgrwt>
<clustering>
<clus scale="   34.276">  1  6  2 -1</clus>
<clus scale="  460.184">  4  5 -1 -1</clus>
<clus scale="  300.000">  1  4  2 -1</clus>
</clustering>
</event>
<event>
 6    1  0.9843879E-012  0.3000000E+03  0.7818608E-02  0.1093470E+00
          1   -1    0    0  502    0  0.00000000000E+00  0.00000000000E+00  0.21900155627E+03  0.21900155627E+03  0.00000000000E+00 0.  1.
         13   -1    0    0    0    0 -0.00000000000E+00 -0.00000000000E+00 -0.27500000000E+03  0.27500000000E+03  0.00000000000E+00 0.  1.
    9000005    2    1    2  501    0  0.27770097813E+02  0.12165369408E+02 -0.65486043251E+02  0.46223381965E+03  0.45656599482E+03 0.  0.
         13    1    3    3    0    0 -0.73791546902E+02  0.90828901230E+02  0.16267418392E+03  0.20039454036E+03  0.00000000000E+00 0.  1.
          3    1    3    3  501    0  0.10156164471E+03 -0.78663531822E+02 -0.22816022717E+03  0.26183927929E+03  0.00000000000E+00 0.  1.
         21    1    1    2  502  501 -0.27770097813E+02 -0.12165369408E+02  0.94875995244E+01  0.31767736622E+02  0.00000000000E+00 0.  1.
<scales pt_clust_4="550.00000" pt_clust_5="550.00000" pt_clust_6="30.31789"></scales>
<mgrwt>
<rscale>  0 0.30000000E+03</rscale>
<asrwt>  1 0.30317892E+02</asrwt>
<pdfrwt beam="1">  1        1 0.79636930E+00 0.30000000E+03</pdfrwt>
<pdfrwt beam="2">0</pdfrwt>
<totfact> 0.11324489E-03</totfact>
</mgrwt>
<clustering>
<clus scale="   30.318">  1  6  2 -1</clus>
<clus scale="  456.566">  4  5 -1 -1</clus>
<clus scale="  300.000">  1  4  2 -1</clus>
</clustering>
</event>
<event>
 6    1  0.9843879E-012  0.3000000E+03  0.7818608E-02  0.1093470E+00
          1   -1    0    0  502    0  0.00000000000E+00  0.00000000000E+00  0.23616456831E+03  0.23616456831E+03  0.00000000000E+00 0.  1.
         13   -1    0    0    0    0 -0.00000000000E+00 -0.00000000000E+00 -0.27500000000E+03  0.27500000000E+03  0.00000000000E+00 0.  1.
    9000005    2    1    2  501    0 -0.16639753751E+02  0.28173549928E+02 -0.44349562878E+02  0.47798270635E+03  0.47479464353E+03 0.  0.
         13    1    3    3    0    0 -0.51388606975E+02  0.36482843480E+02 -0.25584390029E+03  0.26349172305E+03  0.00000000000E+00 0.  1.
          1    1    3    3  501    0  0.34748853224E+02 -0.83092935518E+01  0.21149433742E+03  0.21449098330E+03  0.00000000000E+00 0.  1.
         21    1    1    2  502  501  0.16639753751E+02 -0.28173549928E+02  0.55141311902E+01  0.33181861962E+02  0.00000000000E+00 0. -1.
<scales pt_clust_4="550.00000" pt_clust_5="550.00000" pt_clust_6="32.72049"></scales>
<mgrwt>
<rscale>  0 0.30000000E+03</rscale>
<asrwt>  1 0.32720488E+02</asrwt>
<pdfrwt beam="1">  1        1 0.85878025E+00 0.30000000E+03</pdfrwt>
<pdfrwt beam="2">0</pdfrwt>
<totfact> 0.33749319E-04</totfact>
</mgrwt>
<clustering>
<clus scale="   32.720">  1  6  2 -1</clus>
<clus scale="  474.795">  4  5 -1 -1</clus>
<clus scale="  300.000">  1  4  2 -1</clus>
</clustering>
</event>
<event>
 6    1  0.9843879E-012  0.3000000E+03  0.7818608E-02  0.1093470E+00
          1   -1    0    0  502    0  0.00000000000E+00  0.00000000000E+00  0.23679705072E+03  0.23679705072E+03  0.00000000000E+00 0.  1.
         13   -1    0    0    0    0 -0.00000000000E+00 -0.00000000000E+00 -0.27500000000E+03  0.27500000000E+03  0.00000000000E+00 0.  1.
    9000005    2    1    2  501    0  0.48406831834E+01  0.38084750320E+02 -0.57956903318E+02  0.46862183653E+03  0.46343666515E+03 0.  0.
         13    1    3    3    0    0 -0.39901806603E+01  0.73716295760E+02 -0.25639769815E+03  0.26681415521E+03  0.00000000000E+00 0.  1.
          3    1    3    3  501    0  0.88308638437E+01 -0.35631545440E+02  0.19844079483E+03  0.20180768132E+03  0.00000000000E+00 0.  1.
         21    1    1    2  502  501 -0.48406831834E+01 -0.38084750320E+02  0.19753954041E+02  0.43175214196E+02  0.00000000000E+00 0. -1.
<scales pt_clust_4="550.00000" pt_clust_5="550.00000" pt_clust_6="38.39115"></scales>
<mgrwt>
<rscale>  0 0.30000000E+03</rscale>
<asrwt>  1 0.38391150E+02</asrwt>
<pdfrwt beam="1">  1        1 0.86108018E+00 0.30000000E+03</pdfrwt>
<pdfrwt beam="2">0</pdfrwt>
<totfact> 0.30960108E-04</totfact>
</mgrwt>
<clustering>
<clus scale="   38.391">  1  6  2 -1</clus>
<clus scale="  463.437">  4  5 -1 -1</clus>
<clus scale="  300.000">  1  4  2 -1</clus>
</clustering>
</event>
<event>
 6    1  0.9843879E-012  0.3000000E+03  0.7818608E-02  0.1093470E+00
          1   -1    0    0  502    0  0.00000000000E+00  0.00000000000E+00  0.24868388956E+03  0.24868388956E+03  0.00000000000E+00 0.  1.
         13   -1    0    0    0    0 -0.00000000000E+00 -0.00000000000E+00 -0.27500000000E+03  0.27500000000E+03  0.00000000000E+00 0.  1.
    9000005    2    1    2  501    0  0.33263635743E+02 -0.19583138381E+02 -0.17868543757E+02  0.48417021908E+03  0.48229819346E+03 0.  0.
         13    1    3    3    0    0  0.19859677330E+03  0.60510372044E+02 -0.15148901600E+03  0.25700409619E+03  0.00000000000E+00 0.  1.
          3    1    3    3  501    0 -0.16533313756E+03 -0.80093510425E+02  0.13362047224E+03  0.22716612289E+03  0.00000000000E+00 0.  1.
         21    1    1    2  502  501 -0.33263635743E+02  0.19583138381E+02 -0.84475666864E+01  0.39513670477E+02  0.00000000000E+00 0.  1.
<scales pt_clust_4="550.00000" pt_clust_5="550.00000" pt_clust_6="38.60013"></scales>
<mgrwt>
<rscale>  0 0.30000000E+03</rscale>
<asrwt>  1 0.38600133E+02</asrwt>
<pdfrwt beam="1">  1        1 0.90430505E+00 0.30000000E+03</pdfrwt>
<pdfrwt beam="2">0</pdfrwt>
<totfact> 0.93517677E-05</totfact>
</mgrwt>
<clustering>
<clus scale="   38.600">  1  6  2 -1</clus>
<clus scale="  482.298">  4  5 -1 -1</clus>
<clus scale="  300.000">  1  4  2 -1</clus>
</clustering>
</event>
<event>
 6    1  0.9843879E-012  0.3000000E+03  0.7818608E-02  0.1093470E+00
          1   -1    0    0  502    0  0.00000000000E+00  0.00000000000E+00  0.25002919995E+03  0.25002919995E+03  0.00000000000E+00 0.  1.
         13   -1    0    0    0    0 -0.00000000000E+00 -0.00000000000E+00 -0.27500000000E+03  0.27500000000E+03  0.00000000000E+00 0.  1.
    9000005    2    1    2  501    0 -0.16612091352E+02 -0.28242225332E+02  0.86404747175E+01  0.47808984906E+03  0.47688747215E+03 0.  0.
         13    1    3    3    0    0  0.13786807318E+03 -0.20059861785E+03 -0.22961910174E+02  0.24448856907E+03  0.00000000000E+00 0.  1.
          3    1    3    3  501    0 -0.15448016454E+03  0.17235639252E+03  0.31602384892E+02  0.23360127998E+03  0.00000000000E+00 0.  1.
         21    1    1    2  502  501  0.16612091352E+02  0.28242225332E+02 -0.33611274768E+02  0.46939350894E+02  0.00000000000E+00 0.  1.
<scales pt_clust_4="550.00000" pt_clust_5="550.00000" pt_clust_6="32.76562"></scales>
<mgrwt>
<rscale>  0 0.30000000E+03</rscale>
<asrwt>  1 0.32765621E+02</asrwt>
<pdfrwt beam="1">  1        1 0.90919709E+00 0.30000000E+03</pdfrwt>
<pdfrwt beam="2">0</pdfrwt>
<totfact> 0.76059862E-05</totfact>
</mgrwt>
<clustering>
<clus scale="   32.766">  1  6  2 -1</clus>
<clus scale="  476.887">  4  5 -1 -1</clus>
<clus scale="  300.000">  1  4  2 -1</clus>
</clustering>
</event>
<event>
 6    1  0.9843879E-012  0.3000000E+03  0.7818608E-02  0.1093470E+00
          1   -1    0    0  502    0  0.00000000000E+00  0.00000000000E+00  0.23161346344E+03  0.23161346344E+03  0.00000000000E+00 0.  1.
         13   -1    0    0    0    0 -0.00000000000E+00 -0.00000000000E+00 -0.27500000000E+03  0.27500000000E+03  0.00000000000E+00 0.  1.
    9000005    2    1    2  501    0 -0.56162904967E+01 -0.29608419748E+02 -0.63593627480E+02  0.47032947575E+03  0.46503490737E+03 0.  0.
         13    1    3    3    0    0  0.16586944417E+03  0.63848029222E+02 -0.17168547816E+03  0.24711363126E+03  0.00000000000E+00 0.  1.
          1    1    3    3  501    0 -0.17148573467E+03 -0.93456448970E+02  0.10809185068E+03  0.22321584449E+03  0.00000000000E+00 0.  1.
         21    1    1    2  502  501  0.56162904967E+01  0.29608419748E+02  0.20207090920E+02  0.36283987686E+02  0.00000000000E+00 0.  1.
<scales pt_clust_4="550.00000" pt_clust_5="550.00000" pt_clust_6="30.13638"></scales>
<mgrwt>
<rscale>  0 0.30000000E+03</rscale>
<asrwt>  1 0.30136377E+02</asrwt>
<pdfrwt beam="1">  1        1 0.84223078E+00 0.30000000E+03</pdfrwt>
<pdfrwt beam="2">0</pdfrwt>
<totfact> 0.49079501E-04</totfact>
</mgrwt>
<clustering>
<clus scale="   30.136">  1  6  2 -1</clus>
<clus scale="  465.035">  4  5 -1 -1</clus>
<clus scale="  300.000">  1  4  2 -1</clus>
</clustering>
</event>
<event>
 6    1  0.9843879E-012  0.3000000E+03  0.7818608E-02  0.1093470E+00
          1   -1    0    0  502    0  0.00000000000E+00  0.00000000000E+00  0.23698649672E+03  0.23698649672E+03  0.00000000000E+00 0.  1.
         13   -1    0    0    0    0 -0.00000000000E+00 -0.00000000000E+00 -0.27500000000E+03  0.27500000000E+03  0.00000000000E+00 0.  1.
    9000005    2    1    2  501    0 -0.61647345596E+01  0.30728075310E+02 -0.51697776719E+02  0.47778886663E+03  0.47394864953E+03 0.  0.
         13    1    3    3    0    0  0.19701522381E+02  0.18097190946E+03 -0.19626298555E+03  0.26769038364E+03  0.00000000000E+00 0.  1.
          3    1    3    3  501    0 -0.25866256941E+02 -0.15024383415E+03  0.14456520883E+03  0.21009848299E+03  0.00000000000E+00 0.  1.
         21    1    1    2  502  501  0.61647345596E+01 -0.30728075310E+02  0.13684273443E+02  0.34197630095E+02  0.00000000000E+00 0. -1.
<scales pt_clust_4="550.00000" pt_clust_5="550.00000" pt_clust_6="31.34037"></scales>
<mgrwt>
<rscale>  0 0.30000000E+03</rscale>
<asrwt>  1 0.31340366E+02</asrwt>
<pdfrwt beam="1">  1        1 0.86176908E+00 0.30000000E+03</pdfrwt>
<pdfrwt beam="2">0</pdfrwt>
<totfact> 0.31614958E-04</totfact>
</mgrwt>
<clustering>
<clus scale="   31.340">  1  6  2 -1</clus>
<clus scale="  473.949">  4  5 -1 -1</clus>
<clus scale="  300.000">  1  4  2 -1</clus>
</clustering>
</event>
<event>
 6    1  0.9843879E-012  0.3000000E+03  0.7818608E-02  0.1093470E+00
          1   -1    0    0  502    0  0.00000000000E+00  0.00000000000E+00  0.22130226761E+03  0.22130226761E+03  0.00000000000E+00 0.  1.
         13   -1    0    0    0    0 -0.00000000000E+00 -0.00000000000E+00 -0.27500000000E+03  0.27500000000E+03  0.00000000000E+00 0.  1.
    9000005    2    1    2  501    0  0.80891219769E+01  0.28909693890E+02 -0.54761270070E+02  0.46626336937E+03  0.46206225622E+03 0.  0.
         13    1    3    3    0    0  0.20429443464E+02 -0.91160039561E+02  0.17971345957E+03  0.20254491483E+03  0.00000000000E+00 0.  1.
          3    1    3    3  501    0 -0.12340321488E+02  0.12006973345E+03 -0.23447472964E+03  0.26371845454E+03  0.00000000000E+00 0.  1.
         21    1    1    2  502  501 -0.80891219769E+01 -0.28909693890E+02  0.10635376841E+01  0.30038898242E+02  0.00000000000E+00 0. -1.
<scales pt_clust_4="550.00000" pt_clust_5="550.00000" pt_clust_6="30.02006"></scales>
<mgrwt>
<rscale>  0 0.30000000E+03</rscale>
<asrwt>  1 0.30020065E+02</asrwt>
<pdfrwt beam="1">  1        1 0.80473552E+00 0.30000000E+03</pdfrwt>
<pdfrwt beam="2">0</pdfrwt>
<totfact> 0.98563224E-04</totfact>
</mgrwt>
<clustering>
<clus scale="   30.020">  1  6  2 -1</clus>
<clus scale="  462.062">  4  5 -1 -1</clus>
<clus scale="  300.000">  1  4  2 -1</clus>
</clustering>
</event>
<event>
 6    1  0.9843879E-012  0.3000000E+03  0.7818608E-02  0.1093470E+00
          1   -1    0    0  502    0  0.00000000000E+00  0.00000000000E+00  0.22555578146E+03  0.22555578146E+03  0.00000000000E+00 0.  1.
         13   -1    0    0    0    0 -0.00000000000E+00 -0.00000000000E+00 -0.27500000000E+03  0.27500000000E+03  0.00000000000E+00 0.  1.
    9000005    2    1    2  501    0  0.31103811914E+02 -0.10382698671E+02 -0.59846672589E+02  0.46615434839E+03  0.46113230721E+03 0.  0.
         13    1    3    3    0    0  0.12581341920E+03  0.19727537033E+03 -0.34646350846E+02  0.23653109271E+03  0.00000000000E+00 0.  1.
          3    1    3    3  501    0 -0.94709607289E+02 -0.20765806900E+03 -0.25200321743E+02  0.22962325568E+03  0.00000000000E+00 0.  1.
         21    1    1    2  502  501 -0.31103811914E+02  0.10382698671E+02  0.10402454047E+02  0.34401433073E+02  0.00000000000E+00 0. -1.
<scales pt_clust_4="550.00000" pt_clust_5="550.00000" pt_clust_6="32.79097"></scales>
<mgrwt>
<rscale>  0 0.30000000E+03</rscale>
<asrwt>  1 0.32790967E+02</asrwt>
<pdfrwt beam="1">  1        1 0.82020284E+00 0.30000000E+03</pdfrwt>
<pdfrwt beam="2">0</pdfrwt>
<totfact> 0.72925836E-04</totfact>
</mgrwt>
<clustering>
<clus scale="   32.791">  1  6  2 -1</clus>
<clus scale="  461.132">  4  5 -1 -1</clus>
<clus scale="  300.000">  1  4  2 -1</clus>
</clustering>
</event>
<event>
 6    1  0.9843879E-012  0.3000000E+03  0.7818608E-02  0.1093470E+00
          1   -1    0    0  502    0  0.00000000000E+00  0.00000000000E+00  0.22530107047E+03  0.22530107047E+03  0.00000000000E+00 0.  1.
         13   -1    0    0    0    0 -0.00000000000E+00 -0.00000000000E+00 -0.27500000000E+03  0.27500000000E+03  0.00000000000E+00 0.  1.
    9000005    2    1    2  501    0 -0.27533429049E+02 -0.13345044893E+02 -0.53250059472E+02  0.46949862799E+03  0.46546451306E+03 0.  0.
         13    1    3    3    0    0 -0.29507771112E+02 -0.18748737515E+03  0.11943258364E+03  0.22424621833E+03  0.00000000000E+00 0.  1.
          1    1    3    3  501    0  0.19743420631E+01  0.17414233026E+03 -0.17268264311E+03  0.24525240967E+03  0.00000000000E+00 0.  1.
         21    1    1    2  502  501  0.27533429049E+02  0.13345044893E+02  0.35511299376E+01  0.30802442471E+02  0.00000000000E+00 0.  1.
<scales pt_clust_4="550.00000" pt_clust_5="550.00000" pt_clust_6="30.59706"></scales>
<mgrwt>
<rscale>  0 0.30000000E+03</rscale>
<asrwt>  1 0.30597058E+02</asrwt>
<pdfrwt beam="1">  1        1 0.81927662E+00 0.30000000E+03</pdfrwt>
<pdfrwt beam="2">0</pdfrwt>
<totfact> 0.75266404E-04</totfact>
</mgrwt>
<clustering>
<clus scale="   30.597">  1  6  2 -1</clus>
<clus scale="  465.465">  4  5 -1 -1</clus>
<clus scale="  300.000">  1  4  2 -1</clus>
</clustering>
</event>
<event>
 6    1  0.9843879E-012  0.3000000E+03  0.7818608E-02  0.1093470E+00
          1   -1    0    0  502    0  0.00000000000E+00  0.00000000000E+00  0.25956092395E+03  0.25956092395E+03  0.00000000000E+00 0.  1.
         13   -1    0    0    0    0 -0.00000000000E+00 -0.00000000000E+00 -0.27500000000E+03  0.27500000000E+03  0.00000000000E+00 0.  1.
    9000005    2    1    2  501    0  0.13362005807E+02 -0.32985309854E+02 -0.48382748799E+02  0.48606495051E+03  0.48233978881E+03 0.  0.
         13    1    3    3    0    0  0.10603428142E+03 -0.14547049654E+03  0.15384082731E+03  0.23679513159E+03  0.00000000000E+00 0.  1.
          3    1    3    3  501    0 -0.92672275609E+02  0.11248518669E+03 -0.20222357611E+03  0.24926981892E+03  0.00000000000E+00 0.  1.
         21    1    1    2  502  501 -0.13362005807E+02  0.32985309854E+02  0.32943672750E+02  0.48495973437E+02  0.00000000000E+00 0.  1.
<scales pt_clust_4="550.00000" pt_clust_5="550.00000" pt_clust_6="35.58896"></scales>
<mgrwt>
<rscale>  0 0.30000000E+03</rscale>
<asrwt>  1 0.35588957E+02</asrwt>
<pdfrwt beam="1">  1        1 0.94385791E+00 0.30000000E+03</pdfrwt>
<pdfrwt beam="2">0</pdfrwt>
<totfact> 0.16295951E-05</totfact>
</mgrwt>
<clustering>
<clus scale="   35.589">  1  6  2 -1</clus>
<clus scale="  482.340">  4  5 -1 -1</clus>
<clus scale="  300.000">  1  4  2 -1</clus>
</clustering>
</event>
<event>
 6    1  0.9843879E-012  0.3000000E+03  0.7818608E-02  0.1093470E+00
          1   -1    0    0  502    0  0.00000000000E+00  0.00000000000E+00  0.24656838710E+03  0.24656838710E+03  0.00000000000E+00 0.  1.
         13   -1    0    0    0    0 -0.00000000000E+00 -0.00000000000E+00 -0.27500000000E+03  0.27500000000E+03  0.00000000000E+00 0.  1.
    9000005    2    1    2  501    0  0.34166946333E+02 -0.15127182919E+02 -0.43133956338E+02  0.48141405001E+03  0.47801959946E+03 0.  0.
         13    1    3    3    0    0 -0.15893691528E+03 -0.13395702441E+03  0.80806184927E+02  0.22301360261E+03  0.00000000000E+00 0.  1.
          1    1    3    3  501    0  0.19310386161E+03  0.11882984149E+03 -0.12394014126E+03  0.25840044740E+03  0.00000000000E+00 0.  1.
         21    1    1    2  502  501 -0.34166946333E+02  0.15127182919E+02  0.14702343440E+02  0.40154337093E+02  0.00000000000E+00 0. -1.
<scales pt_clust_4="550.00000" pt_clust_5="550.00000" pt_clust_6="37.36592"></scales>
<mgrwt>
<rscale>  0 0.30000000E+03</rscale>
<asrwt>  1 0.37365919E+02</asrwt>
<pdfrwt beam="1">  1        1 0.89661232E+00 0.30000000E+03</pdfrwt>
<pdfrwt beam="2">0</pdfrwt>
<totfact> 0.11951202E-04</totfact>
</mgrwt>
<clustering>
<clus scale="   37.366">  1  6  2 -1</clus>
<clus scale="  478.020">  4  5 -1 -1</clus>
<clus scale="  300.000">  1  4  2 -1</clus>
</clustering>
</event>
<event>
 6    1  0.9843879E-012  0.3000000E+03  0.7818608E-02  0.1093470E+00
          1   -1    0    0  502    0  0.00000000000E+00  0.00000000000E+00  0.23204738674E+03  0.23204738674E+03  0.00000000000E+00 0.  1.
         13   -1    0    0    0    0 -0.00000000000E+00 -0.00000000000E+00 -0.27500000000E+03  0.27500000000E+03  0.00000000000E+00 0.  1.
    9000005    2    1    2  501    0  0.25154343614E+02 -0.29194251573E+02 -0.51569272546E+02  0.46755951335E+03  0.46310631968E+03 0.  0.
         13    1    3    3    0    0 -0.74211776571E+02  0.17660961447E+03 -0.12355199107E+03  0.22795490387E+03  0.00000000000E+00 0.  1.
          1    1    3    3  501    0  0.99366120186E+02 -0.20580386604E+03  0.71982718522E+02  0.23960460948E+03  0.00000000000E+00 0.  1.
         21    1    1    2  502  501 -0.25154343614E+02  0.29194251573E+02  0.86166592863E+01  0.39487873389E+02  0.00000000000E+00 0. -1.
<scales pt_clust_4="550.00000" pt_clust_5="550.00000" pt_clust_6="38.53629"></scales>
<mgrwt>
<rscale>  0 0.30000000E+03</rscale>
<asrwt>  1 0.38536286E+02</asrwt>
<pdfrwt beam="1">  1        1 0.84380868E+00 0.30000000E+03</pdfrwt>
<pdfrwt beam="2">0</pdfrwt>
<totfact> 0.45448696E-04</totfact>
</mgrwt>
<clustering>
<clus scale="   38.536">  1  6  2 -1</clus>
<clus scale="  463.106">  4  5 -1 -1</clus>
<clus scale="  300.000">  1  4  2 -1</clus>
</clustering>
</event>
<event>
 6    1  0.9843879E-012  0.3000000E+03  0.7818608E-02  0.1093470E+00
          1   -1    0    0  502    0  0.00000000000E+00  0.00000000000E+00  0.22233109194E+03  0.22233109194E+03  0.00000000000E+00 0.  1.
         13   -1    0    0    0    0 -0.00000000000E+00 -0.00000000000E+00 -0.27500000000E+03  0.27500000000E+03  0.00000000000E+00 0.  1.
    9000005    2    1    2  501    0 -0.23674111245E+02  0.18446872320E+02 -0.53146249554E+02  0.46731478809E+03  0.46331181367E+03 0.  0.
         13    1    3    3    0    0 -0.59448616880E+02 -0.65365639873E+02 -0.24199945829E+03  0.25762481002E+03  0.00000000000E+00 0.  1.
          1    1    3    3  501    0  0.35774505635E+02  0.83812512192E+02  0.18885320874E+03  0.20968997807E+03  0.00000000000E+00 0.  1.
         21    1    1    2  502  501  0.23674111245E+02 -0.18446872320E+02  0.47734149228E+00  0.30016303845E+02  0.00000000000E+00 0.  1.
<scales pt_clust_4="550.00000" pt_clust_5="550.00000" pt_clust_6="30.01251"></scales>
<mgrwt>
<rscale>  0 0.30000000E+03</rscale>
<asrwt>  1 0.30012508E+02</asrwt>
<pdfrwt beam="1">  1        1 0.80847670E+00 0.30000000E+03</pdfrwt>
<pdfrwt beam="2">0</pdfrwt>
<totfact> 0.92275539E-04</totfact>
</mgrwt>
<clustering>
<clus scale="   30.013">  1  6  2 -1</clus>
<clus scale="  463.312">  4  5 -1 -1</clus>
<clus scale="  300.000">  1  4  2 -1</clus>
</clustering>
</event>
<event>
 6    1  0.9843879E-012  0.3000000E+03  0.7818608E-02  0.1093470E+00
          1   -1    0    0  502    0  0.00000000000E+00  0.00000000000E+00  0.22534744478E+03  0.22534744478E+03  0.00000000000E+00 0.  1.
         13   -1    0    0    0    0 -0.00000000000E+00 -0.00000000000E+00 -0.27500000000E+03  0.27500000000E+03  0.00000000000E+00 0.  1.
    9000005    2    1    2  501    0  0.28991565688E+02 -0.11607087617E+02 -0.51529137670E+02  0.46906235367E+03  0.46517631522E+03 0.  0.
         13    1    3    3    0    0 -0.18378930938E+02 -0.23608320734E+03 -0.27357481505E+02  0.23837260263E+03  0.00000000000E+00 0.  1.
          1    1    3    3  501    0  0.47370496626E+02  0.22447611972E+03 -0.24171656165E+02  0.23068975104E+03  0.00000000000E+00 0.  1.
         21    1    1    2  502  501 -0.28991565688E+02  0.11607087617E+02  0.18765824507E+01  0.31285091109E+02  0.00000000000E+00 0. -1.
<scales pt_clust_4="550.00000" pt_clust_5="550.00000" pt_clust_6="31.22876"></scales>
<mgrwt>
<rscale>  0 0.30000000E+03</rscale>
<asrwt>  1 0.31228759E+02</asrwt>
<pdfrwt beam="1">  1        1 0.81944525E+00 0.30000000E+03</pdfrwt>
<pdfrwt beam="2">0</pdfrwt>
<totfact> 0.74723242E-04</totfact>
</mgrwt>
<clustering>
<clus scale="   31.229">  1  6  2 -1</clus>
<clus scale="  465.176">  4  5 -1 -1</clus>
<clus scale="  300.000">  1  4  2 -1</clus>
</clustering>
</event>
<event>
 6    1  0.9843879E-012  0.3000000E+03  0.7818608E-02  0.1093470E+00
          1   -1    0    0  502    0  0.00000000000E+00  0.00000000000E+00  0.23002903456E+03  0.23002903456E+03  0.00000000000E+00 0.  1.
         13   -1    0    0    0    0 -0.00000000000E+00 -0.00000000000E+00 -0.27500000000E+03  0.27500000000E+03  0.00000000000E+00 0.  1.
    9000005    2    1    2  501    0  0.27276722547E+02  0.20383298917E+02 -0.47061844722E+02  0.47091349200E+03  0.46731702436E+03 0.  0.
         13    1    3    3    0    0  0.13301608526E+03 -0.26885619412E+02  0.17440837433E+03  0.22098505946E+03  0.00000000000E+00 0.  1.
          1    1    3    3  501    0 -0.10573936272E+03  0.47268918329E+02 -0.22147021905E+03  0.24992843254E+03  0.00000000000E+00 0.  1.
         21    1    1    2  502  501 -0.27276722547E+02 -0.20383298917E+02  0.20908792813E+01  0.34115542555E+02  0.00000000000E+00 0. -1.
<scales pt_clust_4="550.00000" pt_clust_5="550.00000" pt_clust_6="34.05141"></scales>
<mgrwt>
<rscale>  0 0.30000000E+03</rscale>
<asrwt>  1 0.34051409E+02</asrwt>
<pdfrwt beam="1">  1        1 0.83646922E+00 0.30000000E+03</pdfrwt>
<pdfrwt beam="2">0</pdfrwt>
<totfact> 0.53057908E-04</totfact>
</mgrwt>
<clustering>
<clus scale="   34.051">  1  6  2 -1</clus>
<clus scale="  467.317">  4  5 -1 -1</clus>
<clus scale="  300.000">  1  4  2 -1</clus>
</clustering>
</event>
<event>
 6    1  0.9843879E-012  0.3000000E+03  0.7818608E-02  0.1093470E+00
          1   -1    0    0  502    0  0.00000000000E+00  0.00000000000E+00  0.24277528972E+03  0.24277528972E+03  0.00000000000E+00 0.  1.
         13   -1    0    0    0    0 -0.00000000000E+00 -0.00000000000E+00 -0.27500000000E+03  0.27500000000E+03  0.00000000000E+00 0.  1.
    9000005    2    1    2  501    0  0.24624367676E+02  0.49150502854E+02 -0.30718932950E+02  0.46278075564E+03  0.45847600104E+03 0.  0.
         13    1    3    3    0    0  0.11855449211E+03 -0.17833154792E+03 -0.32922795042E+02  0.21665922324E+03  0.00000000000E+00 0.  1.
          1    1    3    3  501    0 -0.93930124436E+02  0.22748205077E+03  0.22038620918E+01  0.24612153239E+03  0.00000000000E+00 0.  1.
         21    1    1    2  502  501 -0.24624367676E+02 -0.49150502854E+02 -0.15057773258E+01  0.54994534088E+02  0.00000000000E+00 0.  1.
<scales pt_clust_4="550.00000" pt_clust_5="550.00000" pt_clust_6="54.97392"></scales>
<mgrwt>
<rscale>  0 0.30000000E+03</rscale>
<asrwt>  1 0.54973916E+02</asrwt>
<pdfrwt beam="1">  1        1 0.88281924E+00 0.30000000E+03</pdfrwt>
<pdfrwt beam="2">0</pdfrwt>
<totfact> 0.16747151E-04</totfact>
</mgrwt>
<clustering>
<clus scale="   54.974">  1  6  2 -1</clus>
<clus scale="  458.476">  4  5 -1 -1</clus>
<clus scale="  300.000">  1  4  2 -1</clus>
</clustering>
</event>
<event>
 6    1  0.9843879E-012  0.3000000E+03  0.7818608E-02  0.1093470E+00
          1   -1    0    0  502    0  0.00000000000E+00  0.00000000000E+00  0.22929551904E+03  0.22929551904E+03  0.00000000000E+00 0.  1.
         13   -1    0    0    0    0 -0.00000000000E+00 -0.00000000000E+00 -0.27500000000E+03  0.27500000000E+03  0.00000000000E+00 0.  1.
    9000005    2    1    2  501    0  0.17691607652E+02 -0.24417766847E+02 -0.67154719107E+02  0.46729101883E+03  0.46145630309E+03 0.  0.
         13    1    3    3    0    0  0.42742906784E+02 -0.18882596134E+03  0.11133375898E+03  0.22333250020E+03  0.00000000000E+00 0.  1.
          1    1    3    3  501    0 -0.25051299132E+02  0.16440819449E+03 -0.17848847809E+03  0.24395851863E+03  0.00000000000E+00 0.  1.
         21    1    1    2  502  501 -0.17691607652E+02  0.24417766847E+02  0.21450238149E+02  0.37004500209E+02  0.00000000000E+00 0. -1.
<scales pt_clust_4="550.00000" pt_clust_5="550.00000" pt_clust_6="30.15328"></scales>
<mgrwt>
<rscale>  0 0.30000000E+03</rscale>
<asrwt>  1 0.30153280E+02</asrwt>
<pdfrwt beam="1">  1        1 0.83380189E+00 0.30000000E+03</pdfrwt>
<pdfrwt beam="2">0</pdfrwt>
<totfact> 0.56791066E-04</totfact>
</mgrwt>
<clustering>
<clus scale="   30.153">  1  6  2 -1</clus>
<clus scale="  461.456">  4  5 -1 -1</clus>
<clus scale="  300.000">  1  4  2 -1</clus>
</clustering>
</event>
<event>
 6    1  0.9843879E-012  0.3000000E+03  0.7818608E-02  0.1093470E+00
          1   -1    0    0  502    0  0.00000000000E+00  0.00000000000E+00  0.23058472436E+03  0.23058472436E+03  0.00000000000E+00 0.  1.
         13   -1    0    0    0    0 -0.00000000000E+00 -0.00000000000E+00 -0.27500000000E+03  0.27500000000E+03  0.00000000000E+00 0.  1.
    9000005    2    1    2  501    0  0.32451605458E+02  0.68434574066E+01 -0.43922289112E+02  0.47241572314E+03  0.46919879410E+03 0.  0.
         13    1    3    3    0    0 -0.19093623227E+03  0.49933749552E+02  0.80459810464E+02  0.21312861197E+03  0.00000000000E+00 0.  1.
          1    1    3    3  501    0  0.22338783773E+03 -0.43090292145E+02 -0.12438209958E+03  0.25928711117E+03  0.00000000000E+00 0.  1.
         21    1    1    2  502  501 -0.32451605458E+02 -0.68434574066E+01 -0.49298653187E+00  0.33169001218E+02  0.00000000000E+00 0.  1.
<scales pt_clust_4="550.00000" pt_clust_5="550.00000" pt_clust_6="33.16534"></scales>
<mgrwt>
<rscale>  0 0.30000000E+03</rscale>
<asrwt>  1 0.33165337E+02</asrwt>
<pdfrwt beam="1">  1        1 0.83848991E+00 0.30000000E+03</pdfrwt>
<pdfrwt beam="2">0</pdfrwt>
<totfact> 0.51540322E-04</totfact>
</mgrwt>
<clustering>
<clus scale="   33.165">  1  6  2 -1</clus>
<clus scale="  469.199">  4  5 -1 -1</clus>
<clus scale="  300.000">  1  4  2 -1</clus>
</clustering>
</event>
<event>
 6    1  0.9843879E-012  0.3000000E+03  0.7818608E-02  0.1093470E+00
          1   -1    0    0  502    0  0.00000000000E+00  0.00000000000E+00  0.24460424897E+03  0.24460424897E+03  0.00000000000E+00 0.  1.
         13   -1    0    0    0    0 -0.00000000000E+00 -0.00000000000E+00 -0.27500000000E+03  0.27500000000E+03  0.00000000000E+00 0.  1.
    9000005    2    1    2  501    0  0.29399615418E+02 -0.15692985222E+02 -0.52983916826E+02  0.47934468606E+03  0.47524038700E+03 0.  0.
         13    1    3    3    0    0  0.33566310983E+02  0.11718796513E+02  0.21096683590E+03  0.21394165858E+03  0.00000000000E+00 0.  1.
          3    1    3    3  501    0 -0.41666955654E+01 -0.27411781735E+02 -0.26395075273E+03  0.26540302748E+03  0.00000000000E+00 0.  1.
         21    1    1    2  502  501 -0.29399615418E+02  0.15692985222E+02  0.22588165799E+02  0.40259562914E+02  0.00000000000E+00 0.  1.
<scales pt_clust_4="550.00000" pt_clust_5="550.00000" pt_clust_6="33.32577"></scales>
<mgrwt>
<rscale>  0 0.30000000E+03</rscale>
<asrwt>  1 0.33325773E+02</asrwt>
<pdfrwt beam="1">  1        1 0.88947000E+00 0.30000000E+03</pdfrwt>
<pdfrwt beam="2">0</pdfrwt>
<totfact> 0.14870631E-04</totfact>
</mgrwt>
<clustering>
<clus scale="   33.326">  1  6  2 -1</clus>
<clus scale="  475.240">  4  5 -1 -1</clus>
<clus scale="  300.000">  1  4  2 -1</clus>
</clustering>
</event>
<event>
 6    1  0.9843879E-012  0.3000000E+03  0.7818608E-02  0.1093470E+00
          1   -1    0    0  502    0  0.00000000000E+00  0.00000000000E+00  0.24729903380E+03  0.24729903380E+03  0.00000000000E+00 0.  1.
         13   -1    0    0    0    0 -0.00000000000E+00 -0.00000000000E+00 -0.27500000000E+03  0.27500000000E+03  0.00000000000E+00 0.  1.
    9000005    2    1    2  501    0  0.27033140192E+02 -0.25173963687E+02 -0.41310333858E+02  0.48293237273E+03  0.47974223686E+03 0.  0.
         13    1    3    3    0    0 -0.17720275957E+03 -0.67830899758E+02 -0.15528890008E+03  0.24518664615E+03  0.00000000000E+00 0.  1.
          3    1    3    3  501    0  0.20423589976E+03  0.42656936071E+02  0.11397856622E+03  0.23774572658E+03  0.00000000000E+00 0.  1.
         21    1    1    2  502  501 -0.27033140192E+02  0.25173963687E+02  0.13609367662E+02  0.39366661079E+02  0.00000000000E+00 0.  1.
<scales pt_clust_4="550.00000" pt_clust_5="550.00000" pt_clust_6="36.93940"></scales>
<mgrwt>
<rscale>  0 0.30000000E+03</rscale>
<asrwt>  1 0.36939398E+02</asrwt>
<pdfrwt beam="1">  1        1 0.89926921E+00 0.30000000E+03</pdfrwt>
<pdfrwt beam="2">0</pdfrwt>
<totfact> 0.11162565E-04</totfact>
</mgrwt>
<clustering>
<clus scale="   36.939">  1  6  2 -1</clus>
<clus scale="  479.742">  4  5 -1 -1</clus>
<clus scale="  300.000">  1  4  2 -1</clus>
</clustering>
</event>
<event>
 6    1  0.9843879E-012  0.3000000E+03  0.7818608E-02  0.1093470E+00
          1   -1    0    0  502    0  0.00000000000E+00  0.00000000000E+00  0.21781015686E+03  0.21781015686E+03  0.00000000000E+00 0.  1.
         13   -1    0    0    0    0 -0.00000000000E+00 -0.00000000000E+00 -0.27500000000E+03  0.27500000000E+03  0.00000000000E+00 0.  1.
    9000005    2    1    2  501    0 -0.18967633809E+02 -0.24727618454E+02 -0.47064649019E+02  0.46004209615E+03  0.45656590192E+03 0.  0.
         13    1    3    3    0    0  0.20229070915E+03 -0.93146884279E+02  0.46025291221E+01  0.22275335313E+03  0.00000000000E+00 0.  1.
          1    1    3    3  501    0 -0.22125834296E+03  0.68419265825E+02 -0.51667178141E+02  0.23728874301E+03  0.00000000000E+00 0.  1.
         21    1    1    2  502  501  0.18967633809E+02  0.24727618454E+02 -0.10125194124E+02  0.32768060711E+02  0.00000000000E+00 0. -1.
<scales pt_clust_4="550.00000" pt_clust_5="550.00000" pt_clust_6="31.16452"></scales>
<mgrwt>
<rscale>  0 0.30000000E+03</rscale>
<asrwt>  1 0.31164519E+02</asrwt>
<pdfrwt beam="1">  1        1 0.79203693E+00 0.30000000E+03</pdfrwt>
<pdfrwt beam="2">0</pdfrwt>
<totfact> 0.12148138E-03</totfact>
</mgrwt>
<clustering>
<clus scale="   31.165">  1  6  2 -1</clus>
<clus scale="  456.566">  4  5 -1 -1</clus>
<clus scale="  300.000">  1  4  2 -1</clus>
</clustering>
</event>
<event>
 6    1  0.9843879E-012  0.3000000E+03  0.7818608E-02  0.1093470E+00
          1   -1    0    0  502    0  0.00000000000E+00  0.00000000000E+00  0.23964523130E+03  0.23964523130E+03  0.00000000000E+00 0.  1.
         13   -1    0    0    0    0 -0.00000000000E+00 -0.00000000000E+00 -0.27500000000E+03  0.27500000000E+03  0.00000000000E+00 0.  1.
    9000005    2    1    2  501    0  0.32738192493E+02 -0.26983386393E+02 -0.41909268709E+02  0.47171675754E+03  0.46793206788E+03 0.  0.
         13    1    3    3    0    0 -0.14391392735E+02  0.19326197233E+03  0.86751042085E+02  0.21232768411E+03  0.00000000000E+00 0.  1.
          1    1    3    3  501    0  0.47129585228E+02 -0.22024535873E+03 -0.12866031079E+03  0.25938907344E+03  0.00000000000E+00 0.  1.
         21    1    1    2  502  501 -0.32738192493E+02  0.26983386393E+02  0.65545000113E+01  0.42928473760E+02  0.00000000000E+00 0.  1.
<scales pt_clust_4="550.00000" pt_clust_5="550.00000" pt_clust_6="42.42514"></scales>
<mgrwt>
<rscale>  0 0.30000000E+03</rscale>
<asrwt>  1 0.42425139E+02</asrwt>
<pdfrwt beam="1">  1        1 0.87143720E+00 0.30000000E+03</pdfrwt>
<pdfrwt beam="2">0</pdfrwt>
<totfact> 0.23633291E-04</totfact>
</mgrwt>
<clustering>
<clus scale="   42.425">  1  6  2 -1</clus>
<clus scale="  467.932">  4  5 -1 -1</clus>
<clus scale="  300.000">  1  4  2 -1</clus>
</clustering>
</event>
<event>
 6    1  0.9843879E-012  0.3000000E+03  0.7818608E-02  0.1093470E+00
          1   -1    0    0  502    0  0.00000000000E+00  0.00000000000E+00  0.23284030811E+03  0.23284030811E+03  0.00000000000E+00 0.  1.
         13   -1    0    0    0    0 -0.00000000000E+00 -0.00000000000E+00 -0.27500000000E+03  0.27500000000E+03  0.00000000000E+00 0.  1.
    9000005    2    1    2  501    0  0.25739557560E+02  0.19280057821E+02 -0.53222898087E+02  0.47383089788E+03  0.46973268723E+03 0.  0.
         13    1    3    3    0    0  0.15138541416E+03  0.14263022560E+03 -0.16481109828E+03  0.26537449574E+03  0.00000000000E+00 0.  1.
          3    1    3    3  501    0 -0.12564585660E+03 -0.12335016778E+03  0.11158820019E+03  0.20845640214E+03  0.00000000000E+00 0.  1.
         21    1    1    2  502  501 -0.25739557560E+02 -0.19280057821E+02  0.11063206201E+02  0.34009410233E+02  0.00000000000E+00 0. -1.
<scales pt_clust_4="550.00000" pt_clust_5="550.00000" pt_clust_6="32.15969"></scales>
<mgrwt>
<rscale>  0 0.30000000E+03</rscale>
<asrwt>  1 0.32159687E+02</asrwt>
<pdfrwt beam="1">  1        1 0.84669203E+00 0.30000000E+03</pdfrwt>
<pdfrwt beam="2">0</pdfrwt>
<totfact> 0.44351298E-04</totfact>
</mgrwt>
<clustering>
<clus scale="   32.160">  1  6  2 -1</clus>
<clus scale="  469.733">  4  5 -1 -1</clus>
<clus scale="  300.000">  1  4  2 -1</clus>
</clustering>
</event>
<event>
 6    1  0.9843879E-012  0.3000000E+03  0.7818608E-02  0.1093470E+00
          1   -1    0    0  502    0  0.00000000000E+00  0.00000000000E+00  0.24715356556E+03  0.24715356556E+03  0.00000000000E+00 0.  1.
         13   -1    0    0    0    0 -0.00000000000E+00 -0.00000000000E+00 -0.27500000000E+03  0.27500000000E+03  0.00000000000E+00 0.  1.
    9000005    2    1    2  501    0 -0.40460232315E+02  0.17282950043E+02 -0.25961441285E+02  0.47811626364E+03  0.47537925318E+03 0.  0.
         13    1    3    3    0    0  0.37632377450E+02  0.73860701587E+02  0.20862045608E+03  0.22448628859E+03  0.00000000000E+00 0.  1.
          1    1    3    3  501    0 -0.78092609766E+02 -0.56577751544E+02 -0.23458189736E+03  0.25362997504E+03  0.00000000000E+00 0.  1.
         21    1    1    2  502  501  0.40460232315E+02 -0.17282950043E+02 -0.18849931592E+01  0.44037301920E+02  0.00000000000E+00 0. -1.
<scales pt_clust_4="550.00000" pt_clust_5="550.00000" pt_clust_6="43.99694"></scales>
<mgrwt>
<rscale>  0 0.30000000E+03</rscale>
<asrwt>  1 0.43996940E+02</asrwt>
<pdfrwt beam="1">  1        1 0.89874024E+00 0.30000000E+03</pdfrwt>
<pdfrwt beam="2">0</pdfrwt>
<totfact> 0.10970592E-04</totfact>
</mgrwt>
<clustering>
<clus scale="   43.997">  1  6  2 -1</clus>
<clus scale="  475.379">  4  5 -1 -1</clus>
<clus scale="  300.000">  1  4  2 -1</clus>
</clustering>
</event>
<event>
 6    1  0.9843879E-012  0.3000000E+03  0.7818608E-02  0.1093470E+00
          1   -1    0    0  502    0  0.00000000000E+00  0.00000000000E+00  0.23557574470E+03  0.23557574470E+03  0.00000000000E+00 0.  1.
         13   -1    0    0    0    0 -0.00000000000E+00 -0.00000000000E+00 -0.27500000000E+03  0.27500000000E+03  0.00000000000E+00 0.  1.
    9000005    2    1    2  501    0 -0.29549014147E+02 -0.17259651000E+02 -0.57001560686E+02  0.47210495767E+03  0.46740012126E+03 0.  0.
         13    1    3    3    0    0  0.91197778070E+02  0.15467947468E+03 -0.15782492115E+03  0.23906375791E+03  0.00000000000E+00 0.  1.
          1    1    3    3  501    0 -0.12074679222E+03 -0.17193912568E+03  0.10082336047E+03  0.23304119976E+03  0.00000000000E+00 0.  1.
         21    1    1    2  502  501  0.29549014147E+02  0.17259651000E+02  0.17577305383E+02  0.38470787024E+02  0.00000000000E+00 0.  1.
<scales pt_clust_4="550.00000" pt_clust_5="550.00000" pt_clust_6="34.22046"></scales>
<mgrwt>
<rscale>  0 0.30000000E+03</rscale>
<asrwt>  1 0.34220459E+02</asrwt>
<pdfrwt beam="1">  1        1 0.85663907E+00 0.30000000E+03</pdfrwt>
<pdfrwt beam="2">0</pdfrwt>
<totfact> 0.35223274E-04</totfact>
</mgrwt>
<clustering>
<clus scale="   34.220">  1  6  2 -1</clus>
<clus scale="  467.400">  4  5 -1 -1</clus>
<clus scale="  300.000">  1  4  2 -1</clus>
</clustering>
</event>
<event>
 6    1  0.9843879E-012  0.3000000E+03  0.7818608E-02  0.1093470E+00
          1   -1    0    0  502    0  0.00000000000E+00  0.00000000000E+00  0.21966532569E+03  0.21966532569E+03  0.00000000000E+00 0.  1.
         13   -1    0    0    0    0 -0.00000000000E+00 -0.00000000000E+00 -0.27500000000E+03  0.27500000000E+03  0.00000000000E+00 0.  1.
    9000005    2    1    2  501    0  0.30124549971E+02 -0.94249704577E+01 -0.60579227466E+02  0.46266807711E+03  0.45759762696E+03 0.  0.
         13    1    3    3    0    0  0.23003770488E+03  0.68572012648E+02 -0.13118675737E+01  0.24004413674E+03  0.00000000000E+00 0.  1.
          3    1    3    3  501    0 -0.19991315491E+03 -0.77996983106E+02 -0.59267359892E+02  0.22262394037E+03  0.00000000000E+00 0.  1.
         21    1    1    2  502  501 -0.30124549971E+02  0.94249704577E+01  0.52445531587E+01  0.31997248584E+02  0.00000000000E+00 0. -1.
<scales pt_clust_4="550.00000" pt_clust_5="550.00000" pt_clust_6="31.56451"></scales>
<mgrwt>
<rscale>  0 0.30000000E+03</rscale>
<asrwt>  1 0.31564515E+02</asrwt>
<pdfrwt beam="1">  1        1 0.79878300E+00 0.30000000E+03</pdfrwt>
<pdfrwt beam="2">0</pdfrwt>
<totfact> 0.10791131E-03</totfact>
</mgrwt>
<clustering>
<clus scale="   31.565">  1  6  2 -1</clus>
<clus scale="  457.598">  4  5 -1 -1</clus>
<clus scale="  300.000">  1  4  2 -1</clus>
</clustering>
</event>
<event>
 6    1  0.9843879E-012  0.3000000E+03  0.7818608E-02  0.1093470E+00
          1   -1    0    0  502    0  0.00000000000E+00  0.00000000000E+00  0.23409338989E+03  0.23409338989E+03  0.00000000000E+00 0.  1.
         13   -1    0    0    0    0 -0.00000000000E+00 -0.00000000000E+00 -0.27500000000E+03  0.27500000000E+03  0.00000000000E+00 0.  1.
    9000005    2    1    2  501    0  0.40321413483E+01  0.31077613677E+02 -0.66331858900E+02  0.46873847059E+03  0.46296194451E+03 0.  0.
         13    1    3    3    0    0 -0.91436840915E+02  0.55800689715E+02 -0.24347333206E+03  0.26599563206E+03  0.00000000000E+00 0.  1.
          1    1    3    3  501    0  0.95468982264E+02 -0.24723076038E+02  0.17714147316E+03  0.20274283853E+03  0.00000000000E+00 0.  1.
         21    1    1    2  502  501 -0.40321413483E+01 -0.31077613677E+02  0.25425248785E+02  0.40354919297E+02  0.00000000000E+00 0.  1.
<scales pt_clust_4="550.00000" pt_clust_5="550.00000" pt_clust_6="31.33810"></scales>
<mgrwt>
<rscale>  0 0.30000000E+03</rscale>
<asrwt>  1 0.31338096E+02</asrwt>
<pdfrwt beam="1">  1        1 0.85124869E+00 0.30000000E+03</pdfrwt>
<pdfrwt beam="2">0</pdfrwt>
<totfact> 0.40443980E-04</totfact>
</mgrwt>
<clustering>
<clus scale="   31.338">  1  6  2 -1</clus>
<clus scale="  462.962">  4  5 -1 -1</clus>
<clus scale="  300.000">  1  4  2 -1</clus>
</clustering>
</event>
<event>
 6    1  0.9843879E-012  0.3000000E+03  0.7818608E-02  0.1093470E+00
          1   -1    0    0  502    0  0.00000000000E+00  0.00000000000E+00  0.22379665734E+03  0.22379665734E+03  0.00000000000E+00 0.  1.
         13   -1    0    0    0    0 -0.00000000000E+00 -0.00000000000E+00 -0.27500000000E+03  0.27500000000E+03  0.00000000000E+00 0.  1.
    9000005    2    1    2  501    0 -0.25792680953E+02 -0.21877218213E+02 -0.49253006433E+02  0.46491924778E+03  0.46106417476E+03 0.  0.
         13    1    3    3    0    0  0.69071782079E+02 -0.10201898740E+03 -0.22097440662E+03  0.25299895899E+03  0.00000000000E+00 0.  1.
          3    1    3    3  501    0 -0.94864463032E+02  0.80141769184E+02  0.17172140019E+03  0.21192028878E+03  0.00000000000E+00 0.  1.
         21    1    1    2  502  501  0.25792680953E+02  0.21877218213E+02 -0.19503362250E+01  0.33877409565E+02  0.00000000000E+00 0.  1.
<scales pt_clust_4="550.00000" pt_clust_5="550.00000" pt_clust_6="33.82122"></scales>
<mgrwt>
<rscale>  0 0.30000000E+03</rscale>
<asrwt>  1 0.33821222E+02</asrwt>
<pdfrwt beam="1">  1        1 0.81380603E+00 0.30000000E+03</pdfrwt>
<pdfrwt beam="2">0</pdfrwt>
<totfact> 0.81908823E-04</totfact>
</mgrwt>
<clustering>
<clus scale="   33.821">  1  6  2 -1</clus>
<clus scale="  461.064">  4  5 -1 -1</clus>
<clus scale="  300.000">  1  4  2 -1</clus>
</clustering>
</event>
<event>
 6    1  0.9843879E-012  0.3000000E+03  0.7818608E-02  0.1093470E+00
          1   -1    0    0  502    0  0.00000000000E+00  0.00000000000E+00  0.23777576236E+03  0.23777576236E+03  0.00000000000E+00 0.  1.
         13   -1    0    0    0    0 -0.00000000000E+00 -0.00000000000E+00 -0.27500000000E+03  0.27500000000E+03  0.00000000000E+00 0.  1.
    9000005    2    1    2  501    0  0.31480335389E+02 -0.19586589133E+02 -0.54827156206E+02  0.47173299525E+03  0.46706675729E+03 0.  0.
         13    1    3    3    0    0 -0.19330176735E+03 -0.30088821265E+02  0.77797104004E+02  0.21053099490E+03  0.00000000000E+00 0.  1.
          1    1    3    3  501    0  0.22478210273E+03  0.10502232131E+02 -0.13262426021E+03  0.26120200035E+03  0.00000000000E+00 0.  1.
         21    1    1    2  502  501 -0.31480335389E+02  0.19586589133E+02  0.17602918570E+02  0.41042767113E+02  0.00000000000E+00 0.  1.
<scales pt_clust_4="550.00000" pt_clust_5="550.00000" pt_clust_6="37.07622"></scales>
<mgrwt>
<rscale>  0 0.30000000E+03</rscale>
<asrwt>  1 0.37076219E+02</asrwt>
<pdfrwt beam="1">  1        1 0.86463914E+00 0.30000000E+03</pdfrwt>
<pdfrwt beam="2">0</pdfrwt>
<totfact> 0.28519551E-04</totfact>
</mgrwt>
<clustering>
<clus scale="   37.076">  1  6  2 -1</clus>
<clus scale="  467.067">  4  5 -1 -1</clus>
<clus scale="  300.000">  1  4  2 -1</clus>
</clustering>
</event>
<event>
 6    1  0.9843879E-012  0.3000000E+03  0.7818608E-02  0.1093470E+00
          1   -1    0    0  502    0  0.00000000000E+00  0.00000000000E+00  0.23687867573E+03  0.23687867573E+03  0.00000000000E+00 0.  1.
         13   -1    0    0    0    0 -0.00000000000E+00 -0.00000000000E+00 -0.27500000000E+03  0.27500000000E+03  0.00000000000E+00 0.  1.
    9000005    2    1    2  501    0  0.28690397984E+01 -0.42695431159E+02 -0.55497518826E+02  0.46569357674E+03  0.46039048816E+03 0.  0.
         13    1    3    3    0    0  0.32561709392E+02  0.18829327862E+03 -0.11797126978E+03  0.22457035465E+03  0.00000000000E+00 0.  1.
          3    1    3    3  501    0 -0.29692669593E+02 -0.23098870978E+03  0.62473750955E+02  0.24112322209E+03  0.00000000000E+00 0.  1.
         21    1    1    2  502  501 -0.28690397984E+01  0.42695431159E+02  0.17376194554E+02  0.46185098987E+02  0.00000000000E+00 0.  1.
<scales pt_clust_4="550.00000" pt_clust_5="550.00000" pt_clust_6="42.79172"></scales>
<mgrwt>
<rscale>  0 0.30000000E+03</rscale>
<asrwt>  1 0.42791719E+02</asrwt>
<pdfrwt beam="1">  1        1 0.86137700E+00 0.30000000E+03</pdfrwt>
<pdfrwt beam="2">0</pdfrwt>
<totfact> 0.30132121E-04</totfact>
</mgrwt>
<clustering>
<clus scale="   42.792">  1  6  2 -1</clus>
<clus scale="  460.390">  4  5 -1 -1</clus>
<clus scale="  300.000">  1  4  2 -1</clus>
</clustering>
</event>
<event>
 6    1  0.9843879E-012  0.3000000E+03  0.7818608E-02  0.1093470E+00
          1   -1    0    0  502    0  0.00000000000E+00  0.00000000000E+00  0.24796869731E+03  0.24796869731E+03  0.00000000000E+00 0.  1.
         13   -1    0    0    0    0 -0.00000000000E+00 -0.00000000000E+00 -0.27500000000E+03  0.27500000000E+03  0.00000000000E+00 0.  1.
    9000005    2    1    2  501    0  0.22928177889E+02 -0.37122543524E+02 -0.45858420816E+02  0.47544770241E+03  0.47121517207E+03 0.  0.
         13    1    3    3    0    0  0.19324043220E+03 -0.59222891288E+02 -0.16954164032E+03  0.26380595765E+03  0.00000000000E+00 0.  1.
          3    1    3    3  501    0 -0.17031225431E+03  0.22100347764E+02  0.12368321951E+03  0.21164174476E+03  0.00000000000E+00 0.  1.
         21    1    1    2  502  501 -0.22928177889E+02  0.37122543524E+02  0.18827118126E+02  0.47520994896E+02  0.00000000000E+00 0.  1.
<scales pt_clust_4="550.00000" pt_clust_5="550.00000" pt_clust_6="43.63238"></scales>
<mgrwt>
<rscale>  0 0.30000000E+03</rscale>
<asrwt>  1 0.43632380E+02</asrwt>
<pdfrwt beam="1">  1        1 0.90170435E+00 0.30000000E+03</pdfrwt>
<pdfrwt beam="2">0</pdfrwt>
<totfact> 0.10066711E-04</totfact>
</mgrwt>
<clustering>
<clus scale="   43.632">  1  6  2 -1</clus>
<clus scale="  471.215">  4  5 -1 -1</clus>
<clus scale="  300.000">  1  4  2 -1</clus>
</clustering>
</event>
<event>
 6    1  0.9843879E-012  0.3000000E+03  0.7818608E-02  0.1093470E+00
          1   -1    0    0  502    0  0.00000000000E+00  0.00000000000E+00  0.23167513492E+03  0.23167513492E+03  0.00000000000E+00 0.  1.
         13   -1    0    0    0    0 -0.00000000000E+00 -0.00000000000E+00 -0.27500000000E+03  0.27500000000E+03  0.00000000000E+00 0.  1.
    9000005    2    1    2  501    0  0.32118876814E+02  0.15079346494E+02 -0.40246118878E+02  0.47105930112E+03  0.46799370311E+03 0.  0.
         13    1    3    3    0    0  0.75867874475E+02  0.16207668866E+03  0.14516992370E+03  0.23043240686E+03  0.00000000000E+00 0.  1.
          1    1    3    3  501    0 -0.43748997661E+02 -0.14699734216E+03 -0.18541604258E+03  0.24062689427E+03  0.00000000000E+00 0.  1.
         21    1    1    2  502  501 -0.32118876814E+02 -0.15079346494E+02 -0.30787462052E+01  0.35615833792E+02  0.00000000000E+00 0.  1.
<scales pt_clust_4="550.00000" pt_clust_5="550.00000" pt_clust_6="35.48253"></scales>
<mgrwt>
<rscale>  0 0.30000000E+03</rscale>
<asrwt>  1 0.35482534E+02</asrwt>
<pdfrwt beam="1">  1        1 0.84245504E+00 0.30000000E+03</pdfrwt>
<pdfrwt beam="2">0</pdfrwt>
<totfact> 0.47380287E-04</totfact>
</mgrwt>
<clustering>
<clus scale="   35.483">  1  6  2 -1</clus>
<clus scale="  467.994">  4  5 -1 -1</clus>
<clus scale="  300.000">  1  4  2 -1</clus>
</clustering>
</event>
<event>
 6    1  0.9843879E-012  0.3000000E+03  0.7818608E-02  0.1093470E+00
          1   -1    0    0  502    0  0.00000000000E+00  0.00000000000E+00  0.23122170551E+03  0.23122170551E+03  0.00000000000E+00 0.  1.
         13   -1    0    0    0    0 -0.00000000000E+00 -0.00000000000E+00 -0.27500000000E+03  0.27500000000E+03  0.00000000000E+00 0.  1.
    9000005    2    1    2  501    0  0.21372502092E+02 -0.23797940280E+02 -0.42984744093E+02  0.47422552559E+03  0.47118895900E+03 0.  0.
         13    1    3    3    0    0  0.15318823688E+03 -0.71420758793E+02 -0.20125826244E+03  0.26281637869E+03  0.00000000000E+00 0.  1.
          1    1    3    3  501    0 -0.13181573479E+03  0.47622818513E+02  0.15827351835E+03  0.21140914690E+03  0.00000000000E+00 0.  1.
         21    1    1    2  502  501 -0.21372502092E+02  0.23797940280E+02 -0.79355040052E+00  0.31996179920E+02  0.00000000000E+00 0. -1.
<scales pt_clust_4="550.00000" pt_clust_5="550.00000" pt_clust_6="31.98634"></scales>
<mgrwt>
<rscale>  0 0.30000000E+03</rscale>
<asrwt>  1 0.31986338E+02</asrwt>
<pdfrwt beam="1">  1        1 0.84080620E+00 0.30000000E+03</pdfrwt>
<pdfrwt beam="2">0</pdfrwt>
<totfact> 0.49831112E-04</totfact>
</mgrwt>
<clustering>
<clus scale="   31.986">  1  6  2 -1</clus>
<clus scale="  471.189">  4  5 -1 -1</clus>
<clus scale="  300.000">  1  4  2 -1</clus>
</clustering>
</event>
<event>
 6    1  0.9843879E-012  0.3000000E+03  0.7818608E-02  0.1093470E+00
          1   -1    0    0  502    0  0.00000000000E+00  0.00000000000E+00  0.23080736419E+03  0.23080736419E+03  0.00000000000E+00 0.  1.
         13   -1    0    0    0    0 -0.00000000000E+00 -0.00000000000E+00 -0.27500000000E+03  0.27500000000E+03  0.00000000000E+00 0.  1.
    9000005    2    1    2  501    0 -0.15800846452E+02 -0.26395937034E+02 -0.72322994042E+02  0.46412128384E+03  0.45741834070E+03 0.  0.
         13    1    3    3    0    0  0.15939566114E+02  0.18644450194E+03  0.76838223265E+02  0.20228626900E+03  0.00000000000E+00 0.  1.
          3    1    3    3  501    0 -0.31740412566E+02 -0.21284043897E+03 -0.14916121731E+03  0.26183501485E+03  0.00000000000E+00 0.  1.
         21    1    1    2  502  501  0.15800846452E+02  0.26395937034E+02  0.28130358231E+02  0.41686080347E+02  0.00000000000E+00 0.  1.
<scales pt_clust_4="550.00000" pt_clust_5="550.00000" pt_clust_6="30.76381"></scales>
<mgrwt>
<rscale>  0 0.30000000E+03</rscale>
<asrwt>  1 0.30763814E+02</asrwt>
<pdfrwt beam="1">  1        1 0.83929951E+00 0.30000000E+03</pdfrwt>
<pdfrwt beam="2">0</pdfrwt>
<totfact> 0.51560982E-04</totfact>
</mgrwt>
<clustering>
<clus scale="   30.764">  1  6  2 -1</clus>
<clus scale="  457.418">  4  5 -1 -1</clus>
<clus scale="  300.000">  1  4  2 -1</clus>
</clustering>
</event>
<event>
 6    1  0.9843879E-012  0.3000000E+03  0.7818608E-02  0.1093470E+00
          1   -1    0    0  502    0  0.00000000000E+00  0.00000000000E+00  0.22156492355E+03  0.22156492355E+03  0.00000000000E+00 0.  1.
         13   -1    0    0    0    0 -0.00000000000E+00 -0.00000000000E+00 -0.27500000000E+03  0.27500000000E+03  0.00000000000E+00 0.  1.
    9000005    2    1    2  501    0 -0.18922390644E+01 -0.33518286434E+02 -0.61773197853E+02  0.46197330083E+03  0.45659210091E+03 0.  0.
         13    1    3    3    0    0  0.20058855218E+03 -0.84475836866E+02 -0.11547032326E+03  0.24638451622E+03  0.00000000000E+00 0.  1.
          3    1    3    3  501    0 -0.20248079125E+03  0.50957550432E+02  0.53697125407E+02  0.21558878460E+03  0.00000000000E+00 0.  1.
         21    1    1    2  502  501  0.18922390644E+01  0.33518286434E+02  0.83381214066E+01  0.34591622724E+02  0.00000000000E+00 0.  1.
<scales pt_clust_4="550.00000" pt_clust_5="550.00000" pt_clust_6="33.57166"></scales>
<mgrwt>
<rscale>  0 0.30000000E+03</rscale>
<asrwt>  1 0.33571656E+02</asrwt>
<pdfrwt beam="1">  1        1 0.80569063E+00 0.30000000E+03</pdfrwt>
<pdfrwt beam="2">0</pdfrwt>
<totfact> 0.94887967E-04</totfact>
</mgrwt>
<clustering>
<clus scale="   33.572">  1  6  2 -1</clus>
<clus scale="  456.592">  4  5 -1 -1</clus>
<clus scale="  300.000">  1  4  2 -1</clus>
</clustering>
</event>
<event>
 6    1  0.9843879E-012  0.3000000E+03  0.7818608E-02  0.1093470E+00
          1   -1    0    0  502    0  0.00000000000E+00  0.00000000000E+00  0.22834535025E+03  0.22834535025E+03  0.00000000000E+00 0.  1.
         13   -1    0    0    0    0 -0.00000000000E+00 -0.00000000000E+00 -0.27500000000E+03  0.27500000000E+03  0.00000000000E+00 0.  1.
    9000005    2    1    2  501    0 -0.64760555441E+00  0.31422842410E+02 -0.29749556901E+02  0.46765786530E+03  0.46565118750E+03 0.  0.
         13    1    3    3    0    0 -0.45104609689E+02  0.12859447645E+03 -0.21455942301E+03  0.25417850262E+03  0.00000000000E+00 0.  1.
          3    1    3    3  501    0  0.44457004135E+02 -0.97171634039E+02  0.18480986611E+03  0.21347936268E+03  0.00000000000E+00 0.  1.
         21    1    1    2  502  501  0.64760555441E+00 -0.31422842410E+02 -0.16905092847E+02  0.35687484952E+02  0.00000000000E+00 0.  1.
<scales pt_clust_4="550.00000" pt_clust_5="550.00000" pt_clust_6="31.42953"></scales>
<mgrwt>
<rscale>  0 0.30000000E+03</rscale>
<asrwt>  1 0.31429531E+02</asrwt>
<pdfrwt beam="1">  1        1 0.83034673E+00 0.30000000E+03</pdfrwt>
<pdfrwt beam="2">0</pdfrwt>
<totfact> 0.59921129E-04</totfact>
</mgrwt>
<clustering>
<clus scale="   31.430">  1  6  2 -1</clus>
<clus scale="  465.651">  4  5 -1 -1</clus>
<clus scale="  300.000">  1  4  2 -1</clus>
</clustering>
</event>
<event>
 6    1  0.9843879E-012  0.3000000E+03  0.7818608E-02  0.1093470E+00
          1   -1    0    0  502    0  0.00000000000E+00  0.00000000000E+00  0.24880299964E+03  0.24880299964E+03  0.00000000000E+00 0.  1.
         13   -1    0    0    0    0 -0.00000000000E+00 -0.00000000000E+00 -0.27500000000E+03  0.27500000000E+03  0.00000000000E+00 0.  1.
    9000005    2    1    2  501    0  0.27683142277E+02  0.20927437393E+02 -0.52185374175E+02  0.48044738206E+03  0.47634237650E+03 0.  0.
         13    1    3    3    0    0 -0.21698900486E+03  0.63884193179E+02  0.19342346235E+01  0.22620601149E+03  0.00000000000E+00 0.  1.
          1    1    3    3  501    0  0.24467214714E+03 -0.42956755786E+02 -0.54119608798E+02  0.25424137057E+03  0.00000000000E+00 0.  1.
         21    1    1    2  502  501 -0.27683142277E+02 -0.20927437393E+02  0.25988373815E+02  0.43355617580E+02  0.00000000000E+00 0.  1.
<scales pt_clust_4="550.00000" pt_clust_5="550.00000" pt_clust_6="34.70323"></scales>
<mgrwt>
<rscale>  0 0.30000000E+03</rscale>
<asrwt>  1 0.34703228E+02</asrwt>
<pdfrwt beam="1">  1        1 0.90473818E+00 0.30000000E+03</pdfrwt>
<pdfrwt beam="2">0</pdfrwt>
<totfact> 0.93663651E-05</totfact>
</mgrwt>
<clustering>
<clus scale="   34.703">  1  6  2 -1</clus>
<clus scale="  476.342">  4  5 -1 -1</clus>
<clus scale="  300.000">  1  4  2 -1</clus>
</clustering>
</event>
<event>
 6    1  0.9843879E-012  0.3000000E+03  0.7818608E-02  0.1093470E+00
          1   -1    0    0  502    0  0.00000000000E+00  0.00000000000E+00  0.23853873284E+03  0.23853873284E+03  0.00000000000E+00 0.  1.
         13   -1    0    0    0    0 -0.00000000000E+00 -0.00000000000E+00 -0.27500000000E+03  0.27500000000E+03  0.00000000000E+00 0.  1.
    9000005    2    1    2  501    0 -0.12459847517E+02  0.30671778715E+02 -0.71568069626E+02  0.46528426787E+03  0.45855365611E+03 0.  0.
         13    1    3    3    0    0  0.10990411881E+03  0.20735450239E+02  0.16466452044E+03  0.19905596831E+03  0.00000000000E+00 0.  1.
          1    1    3    3  501    0 -0.12236396633E+03  0.99363284760E+01 -0.23623259007E+03  0.26622829956E+03  0.00000000000E+00 0.  1.
         21    1    1    2  502  501  0.12459847517E+02 -0.30671778715E+02  0.35106802464E+02  0.48254464964E+02  0.00000000000E+00 0. -1.
<scales pt_clust_4="550.00000" pt_clust_5="550.00000" pt_clust_6="33.10598"></scales>
<mgrwt>
<rscale>  0 0.30000000E+03</rscale>
<asrwt>  1 0.33105978E+02</asrwt>
<pdfrwt beam="1">  1        1 0.86741357E+00 0.30000000E+03</pdfrwt>
<pdfrwt beam="2">0</pdfrwt>
<totfact> 0.27214435E-04</totfact>
</mgrwt>
<clustering>
<clus scale="   33.106">  1  6  2 -1</clus>
<clus scale="  458.554">  4  5 -1 -1</clus>
<clus scale="  300.000">  1  4  2 -1</clus>
</clustering>
</event>
<event>
 6    1  0.9843879E-012  0.3000000E+03  0.7818608E-02  0.1093470E+00
          1   -1    0    0  502    0  0.00000000000E+00  0.00000000000E+00  0.22641001077E+03  0.22641001077E+03  0.00000000000E+00 0.  1.
         13   -1    0    0    0    0 -0.00000000000E+00 -0.00000000000E+00 -0.27500000000E+03  0.27500000000E+03  0.00000000000E+00 0.  1.
    9000005    2    1    2  501    0 -0.24288922185E+02 -0.27414691427E+02 -0.56197449937E+02  0.46400158250E+03  0.45912721346E+03 0.  0.
         13    1    3    3    0    0 -0.21972196497E+02 -0.18293884357E+03 -0.18570527303E+03  0.26160245859E+03  0.00000000000E+00 0.  1.
          3    1    3    3  501    0 -0.23167256890E+01  0.15552415214E+03  0.12950782310E+03  0.20239912391E+03  0.00000000000E+00 0.  1.
         21    1    1    2  502  501  0.24288922185E+02  0.27414691427E+02  0.76074607018E+01  0.37408428266E+02  0.00000000000E+00 0.  1.
<scales pt_clust_4="550.00000" pt_clust_5="550.00000" pt_clust_6="36.62673"></scales>
<mgrwt>
<rscale>  0 0.30000000E+03</rscale>
<asrwt>  1 0.36626726E+02</asrwt>
<pdfrwt beam="1">  1        1 0.82330913E+00 0.30000000E+03</pdfrwt>
<pdfrwt beam="2">0</pdfrwt>
<totfact> 0.67059072E-04</totfact>
</mgrwt>
<clustering>
<clus scale="   36.627">  1  6  2 -1</clus>
<clus scale="  459.127">  4  5 -1 -1</clus>
<clus scale="  300.000">  1  4  2 -1</clus>
</clustering>
</event>
<event>
 6    1  0.9843879E-012  0.3000000E+03  0.7818608E-02  0.1093470E+00
          1   -1    0    0  502    0  0.00000000000E+00  0.00000000000E+00  0.24057931125E+03  0.24057931125E+03  0.00000000000E+00 0.  1.
         13   -1    0    0    0    0 -0.00000000000E+00 -0.00000000000E+00 -0.27500000000E+03  0.27500000000E+03  0.00000000000E+00 0.  1.
    9000005    2    1    2  501    0  0.68202265085E+00 -0.32170356952E+02 -0.75420897668E+02  0.46346008109E+03  0.45614859195E+03 0.  0.
         13    1    3    3    0    0 -0.28552691671E+02 -0.52883228648E+02  0.18812416232E+03  0.19749074034E+03  0.00000000000E+00 0.  1.
          3    1    3    3  501    0  0.29234714322E+02  0.20712871696E+02 -0.26354505998E+03  0.26596934075E+03  0.00000000000E+00 0.  1.
         21    1    1    2  502  501 -0.68202265085E+00  0.32170356952E+02  0.41000208917E+02  0.52119230161E+02  0.00000000000E+00 0.  1.
<scales pt_clust_4="550.00000" pt_clust_5="550.00000" pt_clust_6="32.17759"></scales>
<mgrwt>
<rscale>  0 0.30000000E+03</rscale>
<asrwt>  1 0.32177586E+02</asrwt>
<pdfrwt beam="1">  1        1 0.87483386E+00 0.30000000E+03</pdfrwt>
<pdfrwt beam="2">0</pdfrwt>
<totfact> 0.22944557E-04</totfact>
</mgrwt>
<clustering>
<clus scale="   32.178">  1  6  2 -1</clus>
<clus scale="  456.149">  4  5 -1 -1</clus>
<clus scale="  300.000">  1  4  2 -1</clus>
</clustering>
</event>
<event>
 6    1  0.9843879E-012  0.3000000E+03  0.7818608E-02  0.1093470E+00
          1   -1    0    0  502    0  0.00000000000E+00  0.00000000000E+00  0.23945182293E+03  0.23945182293E+03  0.00000000000E+00 0.  1.
         13   -1    0    0    0    0 -0.00000000000E+00 -0.00000000000E+00 -0.27500000000E+03  0.27500000000E+03  0.00000000000E+00 0.  1.
    9000005    2    1    2  501    0 -0.30820091116E+02 -0.48835839878E+01 -0.53431638459E+02  0.47848592797E+03  0.47446824537E+03 0.  0.
         13    1    3    3    0    0 -0.30310115097E+02 -0.19836361809E+03 -0.16085925053E+03  0.25718189388E+03  0.00000000000E+00 0.  1.
          3    1    3    3  501    0 -0.50997601897E+00  0.19348003410E+03  0.10742761207E+03  0.22130403409E+03  0.00000000000E+00 0.  1.
         21    1    1    2  502  501  0.30820091116E+02  0.48835839878E+01  0.17883461389E+02  0.35965894959E+02  0.00000000000E+00 0.  1.
<scales pt_clust_4="550.00000" pt_clust_5="550.00000" pt_clust_6="31.20461"></scales>
<mgrwt>
<rscale>  0 0.30000000E+03</rscale>
<asrwt>  1 0.31204606E+02</asrwt>
<pdfrwt beam="1">  1        1 0.87073390E+00 0.30000000E+03</pdfrwt>
<pdfrwt beam="2">0</pdfrwt>
<totfact> 0.25437726E-04</totfact>
</mgrwt>
<clustering>
<clus scale="   31.205">  1  6  2 -1</clus>
<clus scale="  474.468">  4  5 -1 -1</clus>
<clus scale="  300.000">  1  4  2 -1</clus>
</clustering>
</event>
<event>
 6    1  0.9843879E-012  0.3000000E+03  0.7818608E-02  0.1093470E+00
          1   -1    0    0  502    0  0.00000000000E+00  0.00000000000E+00  0.23392768090E+03  0.23392768090E+03  0.00000000000E+00 0.  1.
         13   -1    0    0    0    0 -0.00000000000E+00 -0.00000000000E+00 -0.27500000000E+03  0.27500000000E+03  0.00000000000E+00 0.  1.
    9000005    2    1    2  501    0  0.12330504523E+02  0.33100524520E+02 -0.46668630449E+02  0.47316450478E+03  0.46953061823E+03 0.  0.
         13    1    3    3    0    0 -0.21321700541E+03  0.99709783381E+02 -0.31792630531E+02  0.23751695445E+03  0.00000000000E+00 0.  1.
          3    1    3    3  501    0  0.22554750993E+03 -0.66609258861E+02 -0.14875999917E+02  0.23564755033E+03  0.00000000000E+00 0.  1.
         21    1    1    2  502  501 -0.12330504523E+02 -0.33100524520E+02  0.55963113497E+01  0.35763176117E+02  0.00000000000E+00 0.  1.
<scales pt_clust_4="550.00000" pt_clust_5="550.00000" pt_clust_6="35.32260"></scales>
<mgrwt>
<rscale>  0 0.30000000E+03</rscale>
<asrwt>  1 0.35322600E+02</asrwt>
<pdfrwt beam="1">  1        1 0.85064611E+00 0.30000000E+03</pdfrwt>
<pdfrwt beam="2">0</pdfrwt>
<totfact> 0.40063769E-04</totfact>
</mgrwt>
<clustering>
<clus scale="   35.323">  1  6  2 -1</clus>
<clus scale="  469.531">  4  5 -1 -1</clus>
<clus scale="  300.000">  1  4  2 -1</clus>
</clustering>
</event>
<event>
 6    1  0.9843879E-012  0.3000000E+03  0.7818608E-02  0.1093470E+00
          1   -1    0    0  502    0  0.00000000000E+00  0.00000000000E+00  0.24961895085E+03  0.24961895085E+03  0.00000000000E+00 0.  1.
         13   -1    0    0    0    0 -0.00000000000E+00 -0.00000000000E+00 -0.27500000000E+03  0.27500000000E+03  0.00000000000E+00 0.  1.
    9000005    2    1    2  501    0 -0.59719978739E+01  0.43388293133E+02 -0.59371731544E+02  0.46917911653E+03  0.46334202501E+03 0.  0.
         13    1    3    3    0    0 -0.13456230960E+03  0.82211183073E+02  0.15181678184E+03  0.21889273409E+03  0.00000000000E+00 0.  1.
          1    1    3    3  501    0  0.12859031173E+03 -0.38822889939E+02 -0.21118851338E+03  0.25028638245E+03  0.00000000000E+00 0.  1.
         21    1    1    2  502  501  0.59719978739E+01 -0.43388293133E+02  0.33990682395E+02  0.55439834319E+02  0.00000000000E+00 0.  1.
<scales pt_clust_4="550.00000" pt_clust_5="550.00000" pt_clust_6="43.79736"></scales>
<mgrwt>
<rscale>  0 0.30000000E+03</rscale>
<asrwt>  1 0.43797360E+02</asrwt>
<pdfrwt beam="1">  1        1 0.90770528E+00 0.30000000E+03</pdfrwt>
<pdfrwt beam="2">0</pdfrwt>
<totfact> 0.78030843E-05</totfact>
</mgrwt>
<clustering>
<clus scale="   43.797">  1  6  2 -1</clus>
<clus scale="  463.342">  4  5 -1 -1</clus>
<clus scale="  300.000">  1  4  2 -1</clus>
</clustering>
</event>
<event>
 6    1  0.9843879E-012  0.3000000E+03  0.7818608E-02  0.1093470E+00
          1   -1    0    0  502    0  0.00000000000E+00  0.00000000000E+00  0.22684834226E+03  0.22684834226E+03  0.00000000000E+00 0.  1.
         13   -1    0    0    0    0 -0.00000000000E+00 -0.00000000000E+00 -0.27500000000E+03  0.27500000000E+03  0.00000000000E+00 0.  1.
    9000005    2    1    2  501    0 -0.13298407877E+02 -0.27127209890E+02 -0.48006219317E+02  0.47163651807E+03  0.46821327930E+03 0.  0.
         13    1    3    3    0    0 -0.54831084930E+01 -0.14983067792E+03  0.16670757442E+03  0.22421131080E+03  0.00000000000E+00 0.  1.
          3    1    3    3  501    0 -0.78152993842E+01  0.12270346803E+03 -0.21471379373E+03  0.24742520727E+03  0.00000000000E+00 0.  1.
         21    1    1    2  502  501  0.13298407877E+02  0.27127209890E+02 -0.14543842342E+00  0.30211824189E+02  0.00000000000E+00 0.  1.
<scales pt_clust_4="550.00000" pt_clust_5="550.00000" pt_clust_6="30.21147"></scales>
<mgrwt>
<rscale>  0 0.30000000E+03</rscale>
<asrwt>  1 0.30211474E+02</asrwt>
<pdfrwt beam="1">  1        1 0.82490306E+00 0.30000000E+03</pdfrwt>
<pdfrwt beam="2">0</pdfrwt>
<totfact> 0.67299363E-04</totfact>
</mgrwt>
<clustering>
<clus scale="   30.211">  1  6  2 -1</clus>
<clus scale="  468.213">  4  5 -1 -1</clus>
<clus scale="  300.000">  1  4  2 -1</clus>
</clustering>
</event>
<event>
 6    1  0.9843879E-012  0.3000000E+03  0.7818608E-02  0.1093470E+00
          1   -1    0    0  502    0  0.00000000000E+00  0.00000000000E+00  0.22986076044E+03  0.22986076044E+03  0.00000000000E+00 0.  1.
         13   -1    0    0    0    0 -0.00000000000E+00 -0.00000000000E+00 -0.27500000000E+03  0.27500000000E+03  0.00000000000E+00 0.  1.
    9000005    2    1    2  501    0 -0.36030681989E+02  0.16076920963E+02 -0.26151735236E+02  0.46107488655E+03  0.45863870347E+03 0.  0.
         13    1    3    3    0    0 -0.19105236667E+03 -0.39156778932E+00  0.13724577282E+03  0.23523937233E+03  0.00000000000E+00 0.  1.
          3    1    3    3  501    0  0.15502168468E+03  0.16468488752E+02 -0.16339750806E+03  0.22583551422E+03  0.00000000000E+00 0.  1.
         21    1    1    2  502  501  0.36030681989E+02 -0.16076920963E+02 -0.18987504321E+02  0.43785873893E+02  0.00000000000E+00 0.  1.
<scales pt_clust_4="550.00000" pt_clust_5="550.00000" pt_clust_6="39.45477"></scales>
<mgrwt>
<rscale>  0 0.30000000E+03</rscale>
<asrwt>  1 0.39454771E+02</asrwt>
<pdfrwt beam="1">  1        1 0.83585731E+00 0.30000000E+03</pdfrwt>
<pdfrwt beam="2">0</pdfrwt>
<totfact> 0.52158610E-04</totfact>
</mgrwt>
<clustering>
<clus scale="   39.455">  1  6  2 -1</clus>
<clus scale="  458.639">  4  5 -1 -1</clus>
<clus scale="  300.000">  1  4  2 -1</clus>
</clustering>
</event>
<event>
 6    1  0.9843879E-012  0.3000000E+03  0.7818608E-02  0.1093470E+00
          1   -1    0    0  502    0  0.00000000000E+00  0.00000000000E+00  0.23745480389E+03  0.23745480389E+03  0.00000000000E+00 0.  1.
         13   -1    0    0    0    0 -0.00000000000E+00 -0.00000000000E+00 -0.27500000000E+03  0.27500000000E+03  0.00000000000E+00 0.  1.
    9000005    2    1    2  501    0  0.43225757812E+02 -0.96120233625E+01 -0.54133292869E+02  0.46516820869E+03  0.45988062782E+03 0.  0.
         13    1    3    3    0    0  0.14549972653E+03  0.18046117972E+03  0.29518442728E+02  0.23368300381E+03  0.00000000000E+00 0.  1.
          1    1    3    3  501    0 -0.10227396872E+03 -0.19007320309E+03 -0.83651735597E+02  0.23148520488E+03  0.00000000000E+00 0.  1.
         21    1    1    2  502  501 -0.43225757812E+02  0.96120233625E+01  0.16588096756E+02  0.47286595200E+02  0.00000000000E+00 0. -1.
<scales pt_clust_4="550.00000" pt_clust_5="550.00000" pt_clust_6="44.28157"></scales>
<mgrwt>
<rscale>  0 0.30000000E+03</rscale>
<asrwt>  1 0.44281566E+02</asrwt>
<pdfrwt beam="1">  1        1 0.86347201E+00 0.30000000E+03</pdfrwt>
<pdfrwt beam="2">0</pdfrwt>
<totfact> 0.28425842E-04</totfact>
</mgrwt>
<clustering>
<clus scale="   44.282">  1  6  2 -1</clus>
<clus scale="  459.881">  4  5 -1 -1</clus>
<clus scale="  300.000">  1  4  2 -1</clus>
</clustering>
</event>
<event>
 6    1  0.9843879E-012  0.3000000E+03  0.7818608E-02  0.1093470E+00
          1   -1    0    0  502    0  0.00000000000E+00  0.00000000000E+00  0.24319277046E+03  0.24319277046E+03  0.00000000000E+00 0.  1.
         13   -1    0    0    0    0 -0.00000000000E+00 -0.00000000000E+00 -0.27500000000E+03  0.27500000000E+03  0.00000000000E+00 0.  1.
    9000005    2    1    2  501    0 -0.98651547995E+01 -0.32876864758E+02 -0.74277287944E+02  0.46358585353E+03  0.45630748249E+03 0.  0.
         13    1    3    3    0    0 -0.15373467034E+02 -0.22872128871E+03 -0.12513920615E+03  0.26116966193E+03  0.00000000000E+00 0.  1.
          1    1    3    3  501    0  0.55083122346E+01  0.19584442395E+03  0.50861918205E+02  0.20241619160E+03  0.00000000000E+00 0.  1.
         21    1    1    2  502  501  0.98651547995E+01  0.32876864758E+02  0.42470058401E+02  0.54606916926E+02  0.00000000000E+00 0. -1.
<scales pt_clust_4="550.00000" pt_clust_5="550.00000" pt_clust_6="34.32506"></scales>
<mgrwt>
<rscale>  0 0.30000000E+03</rscale>
<asrwt>  1 0.34325057E+02</asrwt>
<pdfrwt beam="1">  1        1 0.88433735E+00 0.30000000E+03</pdfrwt>
<pdfrwt beam="2">0</pdfrwt>
<totfact> 0.17391319E-04</totfact>
</mgrwt>
<clustering>
<clus scale="   34.325">  1  6  2 -1</clus>
<clus scale="  456.307">  4  5 -1 -1</clus>
<clus scale="  300.000">  1  4  2 -1</clus>
</clustering>
</event>
<event>
 6    1  0.9843879E-012  0.3000000E+03  0.7818608E-02  0.1093470E+00
          1   -1    0    0  502    0  0.00000000000E+00  0.00000000000E+00  0.22587518134E+03  0.22587518134E+03  0.00000000000E+00 0.  1.
         13   -1    0    0    0    0 -0.00000000000E+00 -0.00000000000E+00 -0.27500000000E+03  0.27500000000E+03  0.00000000000E+00 0.  1.
    9000005    2    1    2  501    0  0.22765948961E+02 -0.20321524778E+02 -0.69531193425E+02  0.46416451624E+03  0.45791140898E+03 0.  0.
         13    1    3    3    0    0  0.29281832658E+02 -0.15859497329E+03 -0.21143728942E+03  0.26592389632E+03  0.00000000000E+00 0.  1.
          1    1    3    3  501    0 -0.65158836966E+01  0.13827344852E+03  0.14190609599E+03  0.19824061992E+03  0.00000000000E+00 0.  1.
         21    1    1    2  502  501 -0.22765948961E+02  0.20321524778E+02  0.20406374770E+02  0.36710665108E+02  0.00000000000E+00 0.  1.
<scales pt_clust_4="550.00000" pt_clust_5="550.00000" pt_clust_6="30.51643"></scales>
<mgrwt>
<rscale>  0 0.30000000E+03</rscale>
<asrwt>  1 0.30516435E+02</asrwt>
<pdfrwt beam="1">  1        1 0.82136430E+00 0.30000000E+03</pdfrwt>
<pdfrwt beam="2">0</pdfrwt>
<totfact> 0.72222527E-04</totfact>
</mgrwt>
<clustering>
<clus scale="   30.516">  1  6  2 -1</clus>
<clus scale="  457.911">  4  5 -1 -1</clus>
<clus scale="  300.000">  1  4  2 -1</clus>
</clustering>
</event>
<event>
 6    1  0.9843879E-012  0.3000000E+03  0.7818608E-02  0.1093470E+00
          1   -1    0    0  502    0  0.00000000000E+00  0.00000000000E+00  0.24753876087E+03  0.24753876087E+03  0.00000000000E+00 0.  1.
         13   -1    0    0    0    0 -0.00000000000E+00 -0.00000000000E+00 -0.27500000000E+03  0.27500000000E+03  0.00000000000E+00 0.  1.
    9000005    2    1    2  501    0 -0.29469257249E+01 -0.32404732733E+02 -0.93276241020E+01  0.48528853847E+03  0.48410661008E+03 0.  0.
         13    1    3    3    0    0  0.47468664116E+02 -0.25371650426E+03 -0.84735745597E-01  0.25811885981E+03  0.00000000000E+00 0.  1.
          3    1    3    3  501    0 -0.50415589841E+02  0.22131177153E+03 -0.92428883564E+01  0.22716967866E+03  0.00000000000E+00 0.  1.
         21    1    1    2  502  501  0.29469257249E+01  0.32404732733E+02 -0.18133615031E+02  0.37250222400E+02  0.00000000000E+00 0.  1.
<scales pt_clust_4="550.00000" pt_clust_5="550.00000" pt_clust_6="32.53847"></scales>
<mgrwt>
<rscale>  0 0.30000000E+03</rscale>
<asrwt>  1 0.32538472E+02</asrwt>
<pdfrwt beam="1">  1        1 0.90014095E+00 0.30000000E+03</pdfrwt>
<pdfrwt beam="2">0</pdfrwt>
<totfact> 0.11151188E-04</totfact>
</mgrwt>
<clustering>
<clus scale="   32.538">  1  6  2 -1</clus>
<clus scale="  484.107">  4  5 -1 -1</clus>
<clus scale="  300.000">  1  4  2 -1</clus>
</clustering>
</event>
<event>
 6    1  0.9843879E-012  0.3000000E+03  0.7818608E-02  0.1093470E+00
          1   -1    0    0  502    0  0.00000000000E+00  0.00000000000E+00  0.24133041238E+03  0.24133041238E+03  0.00000000000E+00 0.  1.
         13   -1    0    0    0    0 -0.00000000000E+00 -0.00000000000E+00 -0.27500000000E+03  0.27500000000E+03  0.00000000000E+00 0.  1.
    9000005    2    1    2  501    0  0.41899871992E+02  0.14661581190E+02 -0.49768237737E+02  0.46911041903E+03  0.46434593411E+03 0.  0.
         13    1    3    3    0    0 -0.55222570242E+01 -0.10083711923E+03 -0.22922967556E+03  0.25048924946E+03  0.00000000000E+00 0.  1.
          3    1    3    3  501    0  0.47422129017E+02  0.11549870042E+03  0.17946143783E+03  0.21862116957E+03  0.00000000000E+00 0.  1.
         21    1    1    2  502  501 -0.41899871992E+02 -0.14661581190E+02  0.16098650113E+02  0.47219993344E+02  0.00000000000E+00 0.  1.
<scales pt_clust_4="550.00000" pt_clust_5="550.00000" pt_clust_6="44.39100"></scales>
<mgrwt>
<rscale>  0 0.30000000E+03</rscale>
<asrwt>  1 0.44391004E+02</asrwt>
<pdfrwt beam="1">  1        1 0.87756514E+00 0.30000000E+03</pdfrwt>
<pdfrwt beam="2">0</pdfrwt>
<totfact> 0.20191646E-04</totfact>
</mgrwt>
<clustering>
<clus scale="   44.391">  1  6  2 -1</clus>
<clus scale="  464.346">  4  5 -1 -1</clus>
<clus scale="  300.000">  1  4  2 -1</clus>
</clustering>
</event>
<event>
 6    1  0.9843879E-012  0.3000000E+03  0.7818608E-02  0.1093470E+00
          1   -1    0    0  502    0  0.00000000000E+00  0.00000000000E+00  0.23494824919E+03  0.23494824919E+03  0.00000000000E+00 0.  1.
         13   -1    0    0    0    0 -0.00000000000E+00 -0.00000000000E+00 -0.27500000000E+03  0.27500000000E+03  0.00000000000E+00 0.  1.
    9000005    2    1    2  501    0 -0.10093947195E+01  0.31447187136E+02 -0.58541832399E+02  0.47345403631E+03  0.46876607589E+03 0.  0.
         13    1    3    3    0    0  0.14470317745E+03  0.19687285079E+03  0.37942725164E+01  0.24436105550E+03  0.00000000000E+00 0.  1.
          1    1    3    3  501    0 -0.14571257216E+03 -0.16542566365E+03 -0.62336104915E+02  0.22909298081E+03  0.00000000000E+00 0.  1.
         21    1    1    2  502  501  0.10093947195E+01 -0.31447187136E+02  0.18490081585E+02  0.36494212877E+02  0.00000000000E+00 0. -1.
<scales pt_clust_4="550.00000" pt_clust_5="550.00000" pt_clust_6="31.46338"></scales>
<mgrwt>
<rscale>  0 0.30000000E+03</rscale>
<asrwt>  1 0.31463383E+02</asrwt>
<pdfrwt beam="1">  1        1 0.85435727E+00 0.30000000E+03</pdfrwt>
<pdfrwt beam="2">0</pdfrwt>
<totfact> 0.37720083E-04</totfact>
</mgrwt>
<clustering>
<clus scale="   31.463">  1  6  2 -1</clus>
<clus scale="  468.766">  4  5 -1 -1</clus>
<clus scale="  300.000">  1  4  2 -1</clus>
</clustering>
</event>
<event>
 6    1  0.9843879E-012  0.3000000E+03  0.7818608E-02  0.1093470E+00
          1   -1    0    0  502    0  0.00000000000E+00  0.00000000000E+00  0.24893101698E+03  0.24893101698E+03  0.00000000000E+00 0.  1.
         13   -1    0    0    0    0 -0.00000000000E+00 -0.00000000000E+00 -0.27500000000E+03  0.27500000000E+03  0.00000000000E+00 0.  1.
    9000005    2    1    2  501    0  0.33033424457E+02 -0.37069947552E+02 -0.49379458424E+02  0.46907879363E+03  0.46382237503E+03 0.  0.
         13    1    3    3    0    0  0.79684001227E+01  0.50993692522E+02 -0.24643945222E+03  0.25178613084E+03  0.00000000000E+00 0.  1.
          1    1    3    3  501    0  0.25065024334E+02 -0.88063640074E+02  0.19705999379E+03  0.21729266279E+03  0.00000000000E+00 0.  1.
         21    1    1    2  502  501 -0.33033424457E+02  0.37069947552E+02  0.23310475405E+02  0.54852223350E+02  0.00000000000E+00 0.  1.
<scales pt_clust_4="550.00000" pt_clust_5="550.00000" pt_clust_6="49.65268"></scales>
<mgrwt>
<rscale>  0 0.30000000E+03</rscale>
<asrwt>  1 0.49652675E+02</asrwt>
<pdfrwt beam="1">  1        1 0.90520370E+00 0.30000000E+03</pdfrwt>
<pdfrwt beam="2">0</pdfrwt>
<totfact> 0.86016390E-05</totfact>
</mgrwt>
<clustering>
<clus scale="   49.653">  1  6  2 -1</clus>
<clus scale="  463.822">  4  5 -1 -1</clus>
<clus scale="  300.000">  1  4  2 -1</clus>
</clustering>
</event>
<event>
 6    1  0.9843879E-012  0.3000000E+03  0.7818608E-02  0.1093470E+00
          1   -1    0    0  502    0  0.00000000000E+00  0.00000000000E+00  0.23647862689E+03  0.23647862689E+03  0.00000000000E+00 0.  1.
         13   -1    0    0    0    0 -0.00000000000E+00 -0.00000000000E+00 -0.27500000000E+03  0.27500000000E+03  0.00000000000E+00 0.  1.
    9000005    2    1    2  501    0  0.38823052986E+02  0.18372393635E+02 -0.21711402883E+02  0.46535542893E+03  0.46286014727E+03 0.  0.
         13    1    3    3    0    0 -0.14358119185E+03  0.66649983743E+02 -0.16483086423E+03  0.22853225765E+03  0.00000000000E+00 0.  1.
          1    1    3    3  501    0  0.18240424483E+03 -0.48277590108E+02  0.14311946134E+03  0.23682317128E+03  0.00000000000E+00 0.  1.
         21    1    1    2  502  501 -0.38823052986E+02 -0.18372393635E+02 -0.16809970226E+02  0.46123197959E+02  0.00000000000E+00 0.  1.
<scales pt_clust_4="550.00000" pt_clust_5="550.00000" pt_clust_6="42.95086"></scales>
<mgrwt>
<rscale>  0 0.30000000E+03</rscale>
<asrwt>  1 0.42950857E+02</asrwt>
<pdfrwt beam="1">  1        1 0.85992228E+00 0.30000000E+03</pdfrwt>
<pdfrwt beam="2">0</pdfrwt>
<totfact> 0.31213084E-04</totfact>
</mgrwt>
<clustering>
<clus scale="   42.951">  1  6  2 -1</clus>
<clus scale="  462.860">  4  5 -1 -1</clus>
<clus scale="  300.000">  1  4  2 -1</clus>
</clustering>
</event>
<event>
 6    1  0.9843879E-012  0.3000000E+03  0.7818608E-02  0.1093470E+00
          1   -1    0    0  502    0  0.00000000000E+00  0.00000000000E+00  0.23818419825E+03  0.23818419825E+03  0.00000000000E+00 0.  1.
         13   -1    0    0    0    0 -0.00000000000E+00 -0.00000000000E+00 -0.27500000000E+03  0.27500000000E+03  0.00000000000E+00 0.  1.
    9000005    2    1    2  501    0 -0.18392938681E+02  0.28389034376E+02 -0.66794035252E+02  0.46798539351E+03  0.46195740921E+03 0.  0.
         13    1    3    3    0    0 -0.21449574913E+03  0.63428174115E+02  0.60330280974E+02  0.23167067675E+03  0.00000000000E+00 0.  1.
          3    1    3    3  501    0  0.19610281045E+03 -0.35039139740E+02 -0.12712431623E+03  0.23631471675E+03  0.00000000000E+00 0.  1.
         21    1    1    2  502  501  0.18392938681E+02 -0.28389034376E+02  0.29978233503E+02  0.45198804742E+02  0.00000000000E+00 0. -1.
<scales pt_clust_4="550.00000" pt_clust_5="550.00000" pt_clust_6="33.82658"></scales>
<mgrwt>
<rscale>  0 0.30000000E+03</rscale>
<asrwt>  1 0.33826579E+02</asrwt>
<pdfrwt beam="1">  1        1 0.86612436E+00 0.30000000E+03</pdfrwt>
<pdfrwt beam="2">0</pdfrwt>
<totfact> 0.27967055E-04</totfact>
</mgrwt>
<clustering>
<clus scale="   33.827">  1  6  2 -1</clus>
<clus scale="  461.957">  4  5 -1 -1</clus>
<clus scale="  300.000">  1  4  2 -1</clus>
</clustering>
</event>
<event>
 6    1  0.9843879E-012  0.3000000E+03  0.7818608E-02  0.1093470E+00
          1   -1    0    0  502    0  0.00000000000E+00  0.00000000000E+00  0.22956801118E+03  0.22956801118E+03  0.00000000000E+00 0.  1.
         13   -1    0    0    0    0 -0.00000000000E+00 -0.00000000000E+00 -0.27500000000E+03  0.27500000000E+03  0.00000000000E+00 0.  1.
    9000005    2    1    2  501    0  0.31654348424E+02  0.15172348208E+02 -0.23267403106E+02  0.46305335372E+03  0.46113429543E+03 0.  0.
         13    1    3    3    0    0  0.15900166218E+03 -0.10731721688E+03  0.12786705366E+03  0.23053957800E+03  0.00000000000E+00 0.  1.
          1    1    3    3  501    0 -0.12734731375E+03  0.12248956509E+03 -0.15113445677E+03  0.23251377572E+03  0.00000000000E+00 0.  1.
         21    1    1    2  502  501 -0.31654348424E+02 -0.15172348208E+02 -0.22164585713E+02  0.41514657461E+02  0.00000000000E+00 0.  1.
<scales pt_clust_4="550.00000" pt_clust_5="550.00000" pt_clust_6="35.10269"></scales>
<mgrwt>
<rscale>  0 0.30000000E+03</rscale>
<asrwt>  1 0.35102694E+02</asrwt>
<pdfrwt beam="1">  1        1 0.83479277E+00 0.30000000E+03</pdfrwt>
<pdfrwt beam="2">0</pdfrwt>
<totfact> 0.54258288E-04</totfact>
</mgrwt>
<clustering>
<clus scale="   35.103">  1  6  2 -1</clus>
<clus scale="  461.134">  4  5 -1 -1</clus>
<clus scale="  300.000">  1  4  2 -1</clus>
</clustering>
</event>
<event>
 6    1  0.9843879E-012  0.3000000E+03  0.7818608E-02  0.1093470E+00
          1   -1    0    0  502    0  0.00000000000E+00  0.00000000000E+00  0.21892993215E+03  0.21892993215E+03  0.00000000000E+00 0.  1.
         13   -1    0    0    0    0 -0.00000000000E+00 -0.00000000000E+00 -0.27500000000E+03  0.27500000000E+03  0.00000000000E+00 0.  1.
    9000005    2    1    2  501    0  0.30522454533E+02 -0.63417283743E+01 -0.64353267917E+02  0.46167393809E+03  0.45610266856E+03 0.  0.
         13    1    3    3    0    0  0.13855979422E+02  0.44874991431E+02  0.19305782823E+03  0.19868839438E+03  0.00000000000E+00 0.  1.
          3    1    3    3  501    0  0.16666475111E+02 -0.51216719805E+02 -0.25741109614E+03  0.26298554371E+03  0.00000000000E+00 0.  1.
         21    1    1    2  502  501 -0.30522454533E+02  0.63417283743E+01  0.82832000649E+01  0.32255994060E+02  0.00000000000E+00 0.  1.
<scales pt_clust_4="550.00000" pt_clust_5="550.00000" pt_clust_6="31.17431"></scales>
<mgrwt>
<rscale>  0 0.30000000E+03</rscale>
<asrwt>  1 0.31174312E+02</asrwt>
<pdfrwt beam="1">  1        1 0.79610884E+00 0.30000000E+03</pdfrwt>
<pdfrwt beam="2">0</pdfrwt>
<totfact> 0.11314052E-03</totfact>
</mgrwt>
<clustering>
<clus scale="   31.174">  1  6  2 -1</clus>
<clus scale="  456.103">  4  5 -1 -1</clus>
<clus scale="  300.000">  1  4  2 -1</clus>
</clustering>
</event>
<event>
 6    1  0.9843879E-012  0.3000000E+03  0.7818608E-02  0.1093470E+00
          1   -1    0    0  502    0  0.00000000000E+00  0.00000000000E+00  0.21833986835E+03  0.21833986835E+03  0.00000000000E+00 0.  1.
         13   -1    0    0    0    0 -0.00000000000E+00 -0.00000000000E+00 -0.27500000000E+03  0.27500000000E+03  0.00000000000E+00 0.  1.
    9000005    2    1    2  501    0 -0.26544563818E+02 -0.17006371479E+02 -0.58534134333E+02  0.46175913965E+03  0.45694794849E+03 0.  0.
         13    1    3    3    0    0 -0.14097686241E+03  0.63241031598E+02  0.14695960749E+03  0.21323937265E+03  0.00000000000E+00 0.  1.
          3    1    3    3  501    0  0.11443229859E+03 -0.80247403077E+02 -0.20549374182E+03  0.24851976700E+03  0.00000000000E+00 0.  1.
         21    1    1    2  502  501  0.26544563818E+02  0.17006371479E+02  0.18740026828E+01  0.31580728700E+02  0.00000000000E+00 0.  1.
<scales pt_clust_4="550.00000" pt_clust_5="550.00000" pt_clust_6="31.52508"></scales>
<mgrwt>
<rscale>  0 0.30000000E+03</rscale>
<asrwt>  1 0.31525078E+02</asrwt>
<pdfrwt beam="1">  1        1 0.79396316E+00 0.30000000E+03</pdfrwt>
<pdfrwt beam="2">0</pdfrwt>
<totfact> 0.11714635E-03</totfact>
</mgrwt>
<clustering>
<clus scale="   31.525">  1  6  2 -1</clus>
<clus scale="  456.948">  4  5 -1 -1</clus>
<clus scale="  300.000">  1  4  2 -1</clus>
</clustering>
</event>
<event>
 6    1  0.9843879E-012  0.3000000E+03  0.7818608E-02  0.1093470E+00
          1   -1    0    0  502    0  0.00000000000E+00  0.00000000000E+00  0.23514262394E+03  0.23514262394E+03  0.00000000000E+00 0.  1.
         13   -1    0    0    0    0 -0.00000000000E+00 -0.00000000000E+00 -0.27500000000E+03  0.27500000000E+03  0.00000000000E+00 0.  1.
    9000005    2    1    2  501    0  0.29554945934E+01  0.40206729667E+02 -0.52220984564E+02  0.46797421308E+03  0.46330067648E+03 0.  0.
         13    1    3    3    0    0 -0.16871471218E+03  0.13015090927E+03 -0.14026805452E+03  0.25510593958E+03  0.00000000000E+00 0.  1.
          3    1    3    3  501    0  0.17167020678E+03 -0.89944179599E+02  0.88047069953E+02  0.21286827351E+03  0.00000000000E+00 0.  1.
         21    1    1    2  502  501 -0.29554945934E+01 -0.40206729667E+02  0.12363608502E+02  0.42168410854E+02  0.00000000000E+00 0.  1.
<scales pt_clust_4="550.00000" pt_clust_5="550.00000" pt_clust_6="40.31521"></scales>
<mgrwt>
<rscale>  0 0.30000000E+03</rscale>
<asrwt>  1 0.40315209E+02</asrwt>
<pdfrwt beam="1">  1        1 0.85506409E+00 0.30000000E+03</pdfrwt>
<pdfrwt beam="2">0</pdfrwt>
<totfact> 0.35443058E-04</totfact>
</mgrwt>
<clustering>
<clus scale="   40.315">  1  6  2 -1</clus>
<clus scale="  463.301">  4  5 -1 -1</clus>
<clus scale="  300.000">  1  4  2 -1</clus>
</clustering>
</event>
<event>
 6    1  0.9843879E-012  0.3000000E+03  0.7818608E-02  0.1093470E+00
          1   -1    0    0  502    0  0.00000000000E+00  0.00000000000E+00  0.24064848444E+03  0.24064848444E+03  0.00000000000E+00 0.  1.
         13   -1    0    0    0    0 -0.00000000000E+00 -0.00000000000E+00 -0.27500000000E+03  0.27500000000E+03  0.00000000000E+00 0.  1.
    9000005    2    1    2  501    0  0.19110670732E+02 -0.24707561585E+02 -0.50793370790E+02  0.48034953348E+03  0.47663405928E+03 0.  0.
         13    1    3    3    0    0  0.95492358081E+01 -0.94646591308E+02  0.19911040939E+03  0.22066744272E+03  0.00000000000E+00 0.  1.
          3    1    3    3  501    0  0.95614349244E+01  0.69939029723E+02 -0.24990378018E+03  0.25968209076E+03  0.00000000000E+00 0.  1.
         21    1    1    2  502  501 -0.19110670732E+02  0.24707561585E+02  0.16441855230E+02  0.35298950958E+02  0.00000000000E+00 0.  1.
<scales pt_clust_4="550.00000" pt_clust_5="550.00000" pt_clust_6="31.23590"></scales>
<mgrwt>
<rscale>  0 0.30000000E+03</rscale>
<asrwt>  1 0.31235898E+02</asrwt>
<pdfrwt beam="1">  1        1 0.87508540E+00 0.30000000E+03</pdfrwt>
<pdfrwt beam="2">0</pdfrwt>
<totfact> 0.22933926E-04</totfact>
</mgrwt>
<clustering>
<clus scale="   31.236">  1  6  2 -1</clus>
<clus scale="  476.634">  4  5 -1 -1</clus>
<clus scale="  300.000">  1  4  2 -1</clus>
</clustering>
</event>
<event>
 6    1  0.9843879E-012  0.3000000E+03  0.7818608E-02  0.1093470E+00
          1   -1    0    0  502    0  0.00000000000E+00  0.00000000000E+00  0.23484392083E+03  0.23484392083E+03  0.00000000000E+00 0.  1.
         13   -1    0    0    0    0 -0.00000000000E+00 -0.00000000000E+00 -0.27500000000E+03  0.27500000000E+03  0.00000000000E+00 0.  1.
    9000005    2    1    2  501    0  0.15340493459E+02 -0.35312429234E+02 -0.69453360462E+01  0.45899854881E+03  0.45732825379E+03 0.  0.
         13    1    3    3    0    0 -0.37311067851E+02 -0.21629106524E+03 -0.10856478385E+03  0.24486782758E+03  0.00000000000E+00 0.  1.
          1    1    3    3  501    0  0.52651561310E+02  0.18097863601E+03  0.10161944781E+03  0.21413072123E+03  0.00000000000E+00 0.  1.
         21    1    1    2  502  501 -0.15340493459E+02  0.35312429234E+02 -0.33210743121E+02  0.50845372028E+02  0.00000000000E+00 0.  1.
<scales pt_clust_4="550.00000" pt_clust_5="550.00000" pt_clust_6="38.50065"></scales>
<mgrwt>
<rscale>  0 0.30000000E+03</rscale>
<asrwt>  1 0.38500648E+02</asrwt>
<pdfrwt beam="1">  1        1 0.85397789E+00 0.30000000E+03</pdfrwt>
<pdfrwt beam="2">0</pdfrwt>
<totfact> 0.36631463E-04</totfact>
</mgrwt>
<clustering>
<clus scale="   38.501">  1  6  2 -1</clus>
<clus scale="  457.328">  4  5 -1 -1</clus>
<clus scale="  300.000">  1  4  2 -1</clus>
</clustering>
</event>
<event>
 6    1  0.9843879E-012  0.3000000E+03  0.7818608E-02  0.1093470E+00
          1   -1    0    0  502    0  0.00000000000E+00  0.00000000000E+00  0.24171484105E+03  0.24171484105E+03  0.00000000000E+00 0.  1.
         13   -1    0    0    0    0 -0.00000000000E+00 -0.00000000000E+00 -0.27500000000E+03  0.27500000000E+03  0.00000000000E+00 0.  1.
    9000005    2    1    2  501    0  0.14602255289E+02  0.36368390031E+02 -0.41572339795E+02  0.47665784392E+03  0.47322146515E+03 0.  0.
         13    1    3    3    0    0 -0.13663777986E+03  0.16205290104E+03 -0.14270371760E+03  0.25552960032E+03  0.00000000000E+00 0.  1.
          1    1    3    3  501    0  0.15124003515E+03 -0.12568451101E+03  0.10113137781E+03  0.22112824360E+03  0.00000000000E+00 0.  1.
         21    1    1    2  502  501 -0.14602255289E+02 -0.36368390031E+02  0.82871808473E+01  0.40056997134E+02  0.00000000000E+00 0.  1.
<scales pt_clust_4="550.00000" pt_clust_5="550.00000" pt_clust_6="39.19038"></scales>
<mgrwt>
<rscale>  0 0.30000000E+03</rscale>
<asrwt>  1 0.39190377E+02</asrwt>
<pdfrwt beam="1">  1        1 0.87896306E+00 0.30000000E+03</pdfrwt>
<pdfrwt beam="2">0</pdfrwt>
<totfact> 0.19895955E-04</totfact>
</mgrwt>
<clustering>
<clus scale="   39.190">  1  6  2 -1</clus>
<clus scale="  473.221">  4  5 -1 -1</clus>
<clus scale="  300.000">  1  4  2 -1</clus>
</clustering>
</event>
<event>
 6    1  0.9843879E-012  0.3000000E+03  0.7818608E-02  0.1093470E+00
          1   -1    0    0  502    0  0.00000000000E+00  0.00000000000E+00  0.25769991891E+03  0.25769991891E+03  0.00000000000E+00 0.  1.
         13   -1    0    0    0    0 -0.00000000000E+00 -0.00000000000E+00 -0.27500000000E+03  0.27500000000E+03  0.00000000000E+00 0.  1.
    9000005    2    1    2  501    0  0.36423457006E+02 -0.62663509875E+00 -0.56212938325E+02  0.47939634164E+03  0.47469347694E+03 0.  0.
         13    1    3    3    0    0 -0.89166271278E+02  0.17909175163E+03  0.86317899943E+02  0.21788818070E+03  0.00000000000E+00 0.  1.
          3    1    3    3  501    0  0.12558972828E+03 -0.17971838673E+03 -0.14253083827E+03  0.26150816094E+03  0.00000000000E+00 0.  1.
         21    1    1    2  502  501 -0.36423457006E+02  0.62663509875E+00  0.38912857233E+02  0.53303577271E+02  0.00000000000E+00 0.  1.
<scales pt_clust_4="550.00000" pt_clust_5="550.00000" pt_clust_6="36.42885"></scales>
<mgrwt>
<rscale>  0 0.30000000E+03</rscale>
<asrwt>  1 0.36428847E+02</asrwt>
<pdfrwt beam="1">  1        1 0.93709061E+00 0.30000000E+03</pdfrwt>
<pdfrwt beam="2">0</pdfrwt>
<totfact> 0.21050239E-05</totfact>
</mgrwt>
<clustering>
<clus scale="   36.429">  1  6  2 -1</clus>
<clus scale="  474.693">  4  5 -1 -1</clus>
<clus scale="  300.000">  1  4  2 -1</clus>
</clustering>
</event>
<event>
 6    1  0.9843879E-012  0.3000000E+03  0.7818608E-02  0.1093470E+00
          1   -1    0    0  502    0  0.00000000000E+00  0.00000000000E+00  0.24009520751E+03  0.24009520751E+03  0.00000000000E+00 0.  1.
         13   -1    0    0    0    0 -0.00000000000E+00 -0.00000000000E+00 -0.27500000000E+03  0.27500000000E+03  0.00000000000E+00 0.  1.
    9000005    2    1    2  501    0 -0.23883722248E+02 -0.22488137926E+02 -0.36804253171E+02  0.48223555920E+03  0.47970869595E+03 0.  0.
         13    1    3    3    0    0 -0.49141543333E+02 -0.24793297965E+03 -0.22671008227E+01  0.25276628222E+03  0.00000000000E+00 0.  1.
          3    1    3    3  501    0  0.25257821084E+02  0.22544484173E+03 -0.34537152349E+02  0.22946927698E+03  0.00000000000E+00 0.  1.
         21    1    1    2  502  501  0.23883722248E+02  0.22488137926E+02  0.18994606798E+01  0.32859648305E+02  0.00000000000E+00 0. -1.
<scales pt_clust_4="550.00000" pt_clust_5="550.00000" pt_clust_6="32.80470"></scales>
<mgrwt>
<rscale>  0 0.30000000E+03</rscale>
<asrwt>  1 0.32804703E+02</asrwt>
<pdfrwt beam="1">  1        1 0.87307348E+00 0.30000000E+03</pdfrwt>
<pdfrwt beam="2">0</pdfrwt>
<totfact> 0.23845820E-04</totfact>
</mgrwt>
<clustering>
<clus scale="   32.805">  1  6  2 -1</clus>
<clus scale="  479.709">  4  5 -1 -1</clus>
<clus scale="  300.000">  1  4  2 -1</clus>
</clustering>
</event>
<event>
 6    1  0.9843879E-012  0.3000000E+03  0.7818608E-02  0.1093470E+00
          1   -1    0    0  502    0  0.00000000000E+00  0.00000000000E+00  0.24291762324E+03  0.24291762324E+03  0.00000000000E+00 0.  1.
         13   -1    0    0    0    0 -0.00000000000E+00 -0.00000000000E+00 -0.27500000000E+03  0.27500000000E+03  0.00000000000E+00 0.  1.
    9000005    2    1    2  501    0  0.27763026588E+02  0.11693158162E+02 -0.38371243823E+02  0.48714319486E+03  0.48469436180E+03 0.  0.
         13    1    3    3    0    0  0.14294974119E+03  0.10284301452E+03 -0.20151343770E+03  0.26761722611E+03  0.00000000000E+00 0.  1.
          3    1    3    3  501    0 -0.11518671460E+03 -0.91149856353E+02  0.16314219387E+03  0.21952596875E+03  0.00000000000E+00 0.  1.
         21    1    1    2  502  501 -0.27763026588E+02 -0.11693158162E+02  0.62888670669E+01  0.30774428380E+02  0.00000000000E+00 0.  1.
<scales pt_clust_4="550.00000" pt_clust_5="550.00000" pt_clust_6="30.12500"></scales>
<mgrwt>
<rscale>  0 0.30000000E+03</rscale>
<asrwt>  1 0.30124999E+02</asrwt>
<pdfrwt beam="1">  1        1 0.88333681E+00 0.30000000E+03</pdfrwt>
<pdfrwt beam="2">0</pdfrwt>
<totfact> 0.18391240E-04</totfact>
</mgrwt>
<clustering>
<clus scale="   30.125">  1  6  2 -1</clus>
<clus scale="  484.694">  4  5 -1 -1</clus>
<clus scale="  300.000">  1  4  2 -1</clus>
</clustering>
</event>
<event>
 6    1  0.9843879E-012  0.3000000E+03  0.7818608E-02  0.1093470E+00
          1   -1    0    0  502    0  0.00000000000E+00  0.00000000000E+00  0.24008486898E+03  0.24008486898E+03  0.00000000000E+00 0.  1.
         13   -1    0    0    0    0 -0.00000000000E+00 -0.00000000000E+00 -0.27500000000E+03  0.27500000000E+03  0.00000000000E+00 0.  1.
    9000005    2    1    2  501    0 -0.47228721809E+01  0.42977437783E+02 -0.19350093746E+02  0.46913232754E+03  0.46673477365E+03 0.  0.
         13    1    3    3    0    0 -0.14089441750E+03 -0.74260214318E+02 -0.17123494504E+03  0.23385299382E+03  0.00000000000E+00 0.  1.
          3    1    3    3  501    0  0.13617154532E+03  0.11723765210E+03  0.15188485130E+03  0.23527933372E+03  0.00000000000E+00 0.  1.
         21    1    1    2  502  501  0.47228721809E+01 -0.42977437783E+02 -0.15565037270E+02  0.45952541445E+02  0.00000000000E+00 0. -1.
<scales pt_clust_4="550.00000" pt_clust_5="550.00000" pt_clust_6="43.23618"></scales>
<mgrwt>
<rscale>  0 0.30000000E+03</rscale>
<asrwt>  1 0.43236183E+02</asrwt>
<pdfrwt beam="1">  1        1 0.87303589E+00 0.30000000E+03</pdfrwt>
<pdfrwt beam="2">0</pdfrwt>
<totfact> 0.22681462E-04</totfact>
</mgrwt>
<clustering>
<clus scale="   43.236">  1  6  2 -1</clus>
<clus scale="  466.735">  4  5 -1 -1</clus>
<clus scale="  300.000">  1  4  2 -1</clus>
</clustering>
</event>
<event>
 6    1  0.9843879E-012  0.3000000E+03  0.7818608E-02  0.1093470E+00
          1   -1    0    0  502    0  0.00000000000E+00  0.00000000000E+00  0.24390493085E+03  0.24390493085E+03  0.00000000000E+00 0.  1.
         13   -1    0    0    0    0 -0.00000000000E+00 -0.00000000000E+00 -0.27500000000E+03  0.27500000000E+03  0.00000000000E+00 0.  1.
    9000005    2    1    2  501    0  0.33043773862E+02 -0.21100802232E+02 -0.46807752298E+02  0.47666723136E+03  0.47274046678E+03 0.  0.
         13    1    3    3    0    0 -0.65851661351E+02 -0.40373499810E+02  0.19767818212E+03  0.21223365538E+03  0.00000000000E+00 0.  1.
          1    1    3    3  501    0  0.98895435213E+02  0.19272697578E+02 -0.24448593442E+03  0.26443357598E+03  0.00000000000E+00 0.  1.
         21    1    1    2  502  501 -0.33043773862E+02  0.21100802232E+02  0.15712683144E+02  0.42237699481E+02  0.00000000000E+00 0.  1.
<scales pt_clust_4="550.00000" pt_clust_5="550.00000" pt_clust_6="39.20631"></scales>
<mgrwt>
<rscale>  0 0.30000000E+03</rscale>
<asrwt>  1 0.39206311E+02</asrwt>
<pdfrwt beam="1">  1        1 0.88692702E+00 0.30000000E+03</pdfrwt>
<pdfrwt beam="2">0</pdfrwt>
<totfact> 0.15632303E-04</totfact>
</mgrwt>
<clustering>
<clus scale="   39.206">  1  6  2 -1</clus>
<clus scale="  472.740">  4  5 -1 -1</clus>
<clus scale="  300.000">  1  4  2 -1</clus>
</clustering>
</event>
<event>
 6    1  0.9843879E-012  0.3000000E+03  0.7818608E-02  0.1093470E+00
          1   -1    0    0  502    0  0.00000000000E+00  0.00000000000E+00  0.22218398139E+03  0.22218398139E+03  0.00000000000E+00 0.  1.
         13   -1    0    0    0    0 -0.00000000000E+00 -0.00000000000E+00 -0.27500000000E+03  0.27500000000E+03  0.00000000000E+00 0.  1.
    9000005    2    1    2  501    0  0.15844383310E+02  0.25630711904E+02 -0.62215262860E+02  0.46561938623E+03  0.46045922298E+03 0.  0.
         13    1    3    3    0    0 -0.40389703668E+02 -0.17297646188E+03  0.99320321733E+02  0.20351095999E+03  0.00000000000E+00 0.  1.
          1    1    3    3  501    0  0.56234086977E+02  0.19860717378E+03 -0.16153558459E+03  0.26210842624E+03  0.00000000000E+00 0.  1.
         21    1    1    2  502  501 -0.15844383310E+02 -0.25630711904E+02  0.93992442524E+01  0.31564595162E+02  0.00000000000E+00 0.  1.
<scales pt_clust_4="550.00000" pt_clust_5="550.00000" pt_clust_6="30.13267"></scales>
<mgrwt>
<rscale>  0 0.30000000E+03</rscale>
<asrwt>  1 0.30132671E+02</asrwt>
<pdfrwt beam="1">  1        1 0.80794175E+00 0.30000000E+03</pdfrwt>
<pdfrwt beam="2">0</pdfrwt>
<totfact> 0.93085656E-04</totfact>
</mgrwt>
<clustering>
<clus scale="   30.133">  1  6  2 -1</clus>
<clus scale="  460.459">  4  5 -1 -1</clus>
<clus scale="  300.000">  1  4  2 -1</clus>
</clustering>
</event>
<event>
 6    1  0.9843879E-012  0.3000000E+03  0.7818608E-02  0.1093470E+00
          1   -1    0    0  502    0  0.00000000000E+00  0.00000000000E+00  0.23049752120E+03  0.23049752120E+03  0.00000000000E+00 0.  1.
         13   -1    0    0    0    0 -0.00000000000E+00 -0.00000000000E+00 -0.27500000000E+03  0.27500000000E+03  0.00000000000E+00 0.  1.
    9000005    2    1    2  501    0 -0.25428518350E+02  0.21525475087E+02 -0.55199110346E+02  0.47050647163E+03  0.46606806632E+03 0.  0.
         13    1    3    3    0    0 -0.11605776373E+03 -0.51069534557E+02 -0.22883793157E+03  0.26161861709E+03  0.00000000000E+00 0.  1.
          3    1    3    3  501    0  0.90629245376E+02  0.72595009644E+02  0.17363882122E+03  0.20888785455E+03  0.00000000000E+00 0.  1.
         21    1    1    2  502  501  0.25428518350E+02 -0.21525475087E+02  0.10696631545E+02  0.34991049564E+02  0.00000000000E+00 0.  1.
<scales pt_clust_4="550.00000" pt_clust_5="550.00000" pt_clust_6="33.31600"></scales>
<mgrwt>
<rscale>  0 0.30000000E+03</rscale>
<asrwt>  1 0.33315997E+02</asrwt>
<pdfrwt beam="1">  1        1 0.83817280E+00 0.30000000E+03</pdfrwt>
<pdfrwt beam="2">0</pdfrwt>
<totfact> 0.51774340E-04</totfact>
</mgrwt>
<clustering>
<clus scale="   33.316">  1  6  2 -1</clus>
<clus scale="  466.068">  4  5 -1 -1</clus>
<clus scale="  300.000">  1  4  2 -1</clus>
</clustering>
</event>
<event>
 6    1  0.9843879E-012  0.3000000E+03  0.7818608E-02  0.1093470E+00
          1   -1    0    0  502    0  0.00000000000E+00  0.00000000000E+00  0.22980048227E+03  0.22980048227E+03  0.00000000000E+00 0.  1.
         13   -1    0    0    0    0 -0.00000000000E+00 -0.00000000000E+00 -0.27500000000E+03  0.27500000000E+03  0.00000000000E+00 0.  1.
    9000005    2    1    2  501    0  0.19199236987E+02  0.24944647082E+02 -0.61405799801E+02  0.46939582583E+03  0.46429615866E+03 0.  0.
         13    1    3    3    0    0 -0.13774324157E+03 -0.35804650225E+02  0.14493520255E+03  0.20312898984E+03  0.00000000000E+00 0.  1.
          1    1    3    3  501    0  0.15694247856E+03  0.60749297307E+02 -0.20634100235E+03  0.26626683599E+03  0.00000000000E+00 0.  1.
         21    1    1    2  502  501 -0.19199236987E+02 -0.24944647082E+02  0.16206282074E+02  0.35404656439E+02  0.00000000000E+00 0.  1.
<scales pt_clust_4="550.00000" pt_clust_5="550.00000" pt_clust_6="31.47771"></scales>
<mgrwt>
<rscale>  0 0.30000000E+03</rscale>
<asrwt>  1 0.31477708E+02</asrwt>
<pdfrwt beam="1">  1        1 0.83563812E+00 0.30000000E+03</pdfrwt>
<pdfrwt beam="2">0</pdfrwt>
<totfact> 0.54606510E-04</totfact>
</mgrwt>
<clustering>
<clus scale="   31.478">  1  6  2 -1</clus>
<clus scale="  464.296">  4  5 -1 -1</clus>
<clus scale="  300.000">  1  4  2 -1</clus>
</clustering>
</event>
<event>
 6    1  0.9843879E-012  0.3000000E+03  0.7818608E-02  0.1093470E+00
          1   -1    0    0  502    0  0.00000000000E+00  0.00000000000E+00  0.22905114941E+03  0.22905114941E+03  0.00000000000E+00 0.  1.
         13   -1    0    0    0    0 -0.00000000000E+00 -0.00000000000E+00 -0.27500000000E+03  0.27500000000E+03  0.00000000000E+00 0.  1.
    9000005    2    1    2  501    0 -0.43223784712E+01 -0.32168556262E+02 -0.61477662747E+02  0.46807000192E+03  0.46287852047E+03 0.  0.
         13    1    3    3    0    0  0.50825836359E+01  0.18722005318E+03  0.83373279833E+02  0.20500801145E+03  0.00000000000E+00 0.  1.
          1    1    3    3  501    0 -0.94049621071E+01 -0.21938860944E+03 -0.14485094258E+03  0.26306199047E+03  0.00000000000E+00 0.  1.
         21    1    1    2  502  501  0.43223784712E+01  0.32168556262E+02  0.15528812154E+02  0.35981147488E+02  0.00000000000E+00 0.  1.
<scales pt_clust_4="550.00000" pt_clust_5="550.00000" pt_clust_6="32.45765"></scales>
<mgrwt>
<rscale>  0 0.30000000E+03</rscale>
<asrwt>  1 0.32457649E+02</asrwt>
<pdfrwt beam="1">  1        1 0.83291327E+00 0.30000000E+03</pdfrwt>
<pdfrwt beam="2">0</pdfrwt>
<totfact> 0.56861963E-04</totfact>
</mgrwt>
<clustering>
<clus scale="   32.458">  1  6  2 -1</clus>
<clus scale="  462.879">  4  5 -1 -1</clus>
<clus scale="  300.000">  1  4  2 -1</clus>
</clustering>
</event>
<event>
 6    1  0.9843879E-012  0.3000000E+03  0.7818608E-02  0.1093470E+00
          1   -1    0    0  502    0  0.00000000000E+00  0.00000000000E+00  0.23551304207E+03  0.23551304207E+03  0.00000000000E+00 0.  1.
         13   -1    0    0    0    0 -0.00000000000E+00 -0.00000000000E+00 -0.27500000000E+03  0.27500000000E+03  0.00000000000E+00 0.  1.
    9000005    2    1    2  501    0  0.19898743388E+02 -0.22650194183E+02 -0.54462798297E+02  0.47684900964E+03  0.47276822049E+03 0.  0.
         13    1    3    3    0    0  0.40912795507E+02 -0.19279601350E+03 -0.17797285317E+03  0.26555318888E+03  0.00000000000E+00 0.  1.
          1    1    3    3  501    0 -0.21014052119E+02  0.17014581931E+03  0.12351005488E+03  0.21129582076E+03  0.00000000000E+00 0.  1.
         21    1    1    2  502  501 -0.19898743388E+02  0.22650194183E+02  0.14975840368E+02  0.33664032434E+02  0.00000000000E+00 0.  1.
<scales pt_clust_4="550.00000" pt_clust_5="550.00000" pt_clust_6="30.14948"></scales>
<mgrwt>
<rscale>  0 0.30000000E+03</rscale>
<asrwt>  1 0.30149482E+02</asrwt>
<pdfrwt beam="1">  1        1 0.85641106E+00 0.30000000E+03</pdfrwt>
<pdfrwt beam="2">0</pdfrwt>
<totfact> 0.36275316E-04</totfact>
</mgrwt>
<clustering>
<clus scale="   30.149">  1  6  2 -1</clus>
<clus scale="  472.768">  4  5 -1 -1</clus>
<clus scale="  300.000">  1  4  2 -1</clus>
</clustering>
</event>
<event>
 6    1  0.9843879E-012  0.3000000E+03  0.7818608E-02  0.1093470E+00
          1   -1    0    0  502    0  0.00000000000E+00  0.00000000000E+00  0.22577258367E+03  0.22577258367E+03  0.00000000000E+00 0.  1.
         13   -1    0    0    0    0 -0.00000000000E+00 -0.00000000000E+00 -0.27500000000E+03  0.27500000000E+03  0.00000000000E+00 0.  1.
    9000005    2    1    2  501    0  0.26340172558E+02 -0.18626652275E+02 -0.59003386612E+02  0.46706314196E+03  0.46219673526E+03 0.  0.
         13    1    3    3    0    0 -0.60682814902E+02 -0.70333648134E+02  0.18273263450E+03  0.20498888212E+03  0.00000000000E+00 0.  1.
          3    1    3    3  501    0  0.87022987460E+02  0.51706995858E+02 -0.24173602111E+03  0.26207425984E+03  0.00000000000E+00 0.  1.
         21    1    1    2  502  501 -0.26340172558E+02  0.18626652275E+02  0.97759702852E+01  0.33709441710E+02  0.00000000000E+00 0.  1.
<scales pt_clust_4="550.00000" pt_clust_5="550.00000" pt_clust_6="32.26076"></scales>
<mgrwt>
<rscale>  0 0.30000000E+03</rscale>
<asrwt>  1 0.32260764E+02</asrwt>
<pdfrwt beam="1">  1        1 0.82099121E+00 0.30000000E+03</pdfrwt>
<pdfrwt beam="2">0</pdfrwt>
<totfact> 0.72001575E-04</totfact>
</mgrwt>
<clustering>
<clus scale="   32.261">  1  6  2 -1</clus>
<clus scale="  462.197">  4  5 -1 -1</clus>
<clus scale="  300.000">  1  4  2 -1</clus>
</clustering>
</event>
<event>
 6    1  0.9843879E-012  0.3000000E+03  0.7818608E-02  0.1093470E+00
          1   -1    0    0  502    0  0.00000000000E+00  0.00000000000E+00  0.22792806683E+03  0.22792806683E+03  0.00000000000E+00 0.  1.
         13   -1    0    0    0    0 -0.00000000000E+00 -0.00000000000E+00 -0.27500000000E+03  0.27500000000E+03  0.00000000000E+00 0.  1.
    9000005    2    1    2  501    0  0.34725735594E+02  0.15185712335E+02 -0.39539328980E+02  0.46428582702E+03  0.46104391121E+03 0.  0.
         13    1    3    3    0    0  0.50887151103E+01 -0.10657189139E+03  0.18130323907E+03  0.21036712565E+03  0.00000000000E+00 0.  1.
          1    1    3    3  501    0  0.29637020483E+02  0.12175760373E+03 -0.22084256805E+03  0.25391870138E+03  0.00000000000E+00 0.  1.
         21    1    1    2  502  501 -0.34725735594E+02 -0.15185712335E+02 -0.75326041862E+01  0.38642239809E+02  0.00000000000E+00 0.  1.
<scales pt_clust_4="550.00000" pt_clust_5="550.00000" pt_clust_6="37.90098"></scales>
<mgrwt>
<rscale>  0 0.30000000E+03</rscale>
<asrwt>  1 0.37900976E+02</asrwt>
<pdfrwt beam="1">  1        1 0.82882933E+00 0.30000000E+03</pdfrwt>
<pdfrwt beam="2">0</pdfrwt>
<totfact> 0.59566818E-04</totfact>
</mgrwt>
<clustering>
<clus scale="   37.901">  1  6  2 -1</clus>
<clus scale="  461.044">  4  5 -1 -1</clus>
<clus scale="  300.000">  1  4  2 -1</clus>
</clustering>
</event>
<event>
 6    1  0.9843879E-012  0.3000000E+03  0.7818608E-02  0.1093470E+00
          1   -1    0    0  502    0  0.00000000000E+00  0.00000000000E+00  0.23490179630E+03  0.23490179630E+03  0.00000000000E+00 0.  1.
         13   -1    0    0    0    0 -0.00000000000E+00 -0.00000000000E+00 -0.27500000000E+03  0.27500000000E+03  0.00000000000E+00 0.  1.
    9000005    2    1    2  501    0  0.22224482266E+02  0.20618921793E+02 -0.50491342342E+02  0.47785363132E+03  0.47421055425E+03 0.  0.
         13    1    3    3    0    0 -0.71020842986E+02  0.37315994857E+01  0.19881108459E+03  0.21114860248E+03  0.00000000000E+00 0.  1.
          1    1    3    3  501    0  0.93245325252E+02  0.16887322307E+02 -0.24930242693E+03  0.26670502884E+03  0.00000000000E+00 0.  1.
         21    1    1    2  502  501 -0.22224482266E+02 -0.20618921793E+02  0.10393138644E+02  0.32048164983E+02  0.00000000000E+00 0. -1.
<scales pt_clust_4="550.00000" pt_clust_5="550.00000" pt_clust_6="30.31613"></scales>
<mgrwt>
<rscale>  0 0.30000000E+03</rscale>
<asrwt>  1 0.30316127E+02</asrwt>
<pdfrwt beam="1">  1        1 0.85418835E+00 0.30000000E+03</pdfrwt>
<pdfrwt beam="2">0</pdfrwt>
<totfact> 0.38134025E-04</totfact>
</mgrwt>
<clustering>
<clus scale="   30.316">  1  6  2 -1</clus>
<clus scale="  474.211">  4  5 -1 -1</clus>
<clus scale="  300.000">  1  4  2 -1</clus>
</clustering>
</event>
<event>
 6    1  0.9843879E-012  0.3000000E+03  0.7818608E-02  0.1093470E+00
          1   -1    0    0  502    0  0.00000000000E+00  0.00000000000E+00  0.24586216628E+03  0.24586216628E+03  0.00000000000E+00 0.  1.
         13   -1    0    0    0    0 -0.00000000000E+00 -0.00000000000E+00 -0.27500000000E+03  0.27500000000E+03  0.00000000000E+00 0.  1.
    9000005    2    1    2  501    0  0.28631092226E+02 -0.18780310147E+02 -0.65347353458E+02  0.47102674905E+03  0.46521337279E+03 0.  0.
         13    1    3    3    0    0  0.47940524423E+02 -0.97997416890E+02  0.18111114308E+03  0.21143091956E+03  0.00000000000E+00 0.  1.
          3    1    3    3  501    0 -0.19309432197E+02  0.79217106743E+02 -0.24645849654E+03  0.25959582949E+03  0.00000000000E+00 0.  1.
         21    1    1    2  502  501 -0.28631092226E+02  0.18780310147E+02  0.36209519739E+02  0.49835417235E+02  0.00000000000E+00 0. -1.
<scales pt_clust_4="550.00000" pt_clust_5="550.00000" pt_clust_6="34.24090"></scales>
<mgrwt>
<rscale>  0 0.30000000E+03</rscale>
<asrwt>  1 0.34240904E+02</asrwt>
<pdfrwt beam="1">  1        1 0.89404424E+00 0.30000000E+03</pdfrwt>
<pdfrwt beam="2">0</pdfrwt>
<totfact> 0.12980306E-04</totfact>
</mgrwt>
<clustering>
<clus scale="   34.241">  1  6  2 -1</clus>
<clus scale="  465.213">  4  5 -1 -1</clus>
<clus scale="  300.000">  1  4  2 -1</clus>
</clustering>
</event>
<event>
 6    1  0.9843879E-012  0.3000000E+03  0.7818608E-02  0.1093470E+00
          1   -1    0    0  502    0  0.00000000000E+00  0.00000000000E+00  0.23360709111E+03  0.23360709111E+03  0.00000000000E+00 0.  1.
         13   -1    0    0    0    0 -0.00000000000E+00 -0.00000000000E+00 -0.27500000000E+03  0.27500000000E+03  0.00000000000E+00 0.  1.
    9000005    2    1    2  501    0  0.71966423491E+01 -0.36589205665E+02 -0.51224835758E+02  0.47004249053E+03  0.46575250667E+03 0.  0.
         13    1    3    3    0    0  0.12450436323E+03  0.18087889925E+03 -0.35648785236E+02  0.22246201596E+03  0.00000000000E+00 0.  1.
          3    1    3    3  501    0 -0.11730772088E+03 -0.21746810492E+03 -0.15576050522E+02  0.24758047456E+03  0.00000000000E+00 0.  1.
         21    1    1    2  502  501 -0.71966423491E+01  0.36589205665E+02  0.98319268686E+01  0.38564600584E+02  0.00000000000E+00 0.  1.
<scales pt_clust_4="550.00000" pt_clust_5="550.00000" pt_clust_6="37.29024"></scales>
<mgrwt>
<rscale>  0 0.30000000E+03</rscale>
<asrwt>  1 0.37290235E+02</asrwt>
<pdfrwt beam="1">  1        1 0.84948033E+00 0.30000000E+03</pdfrwt>
<pdfrwt beam="2">0</pdfrwt>
<totfact> 0.40674486E-04</totfact>
</mgrwt>
<clustering>
<clus scale="   37.290">  1  6  2 -1</clus>
<clus scale="  465.753">  4  5 -1 -1</clus>
<clus scale="  300.000">  1  4  2 -1</clus>
</clustering>
</event>
<event>
 6    1  0.9843879E-012  0.3000000E+03  0.7818608E-02  0.1093470E+00
          1   -1    0    0  502    0  0.00000000000E+00  0.00000000000E+00  0.23966624677E+03  0.23966624677E+03  0.00000000000E+00 0.  1.
         13   -1    0    0    0    0 -0.00000000000E+00 -0.00000000000E+00 -0.27500000000E+03  0.27500000000E+03  0.00000000000E+00 0.  1.
    9000005    2    1    2  501    0  0.97664428577E+01 -0.42468223408E+02 -0.60498129359E+02  0.46434548335E+03  0.45832059832E+03 0.  0.
         13    1    3    3    0    0  0.22119877764E+03  0.11705506845E+02  0.38245976971E+02  0.22478583780E+03  0.00000000000E+00 0.  1.
          3    1    3    3  501    0 -0.21143233478E+03 -0.54173730253E+02 -0.98744106330E+02  0.23955964555E+03  0.00000000000E+00 0.  1.
         21    1    1    2  502  501 -0.97664428577E+01  0.42468223408E+02  0.25164376130E+02  0.50320763423E+02  0.00000000000E+00 0.  1.
<scales pt_clust_4="550.00000" pt_clust_5="550.00000" pt_clust_6="43.57675"></scales>
<mgrwt>
<rscale>  0 0.30000000E+03</rscale>
<asrwt>  1 0.43576753E+02</asrwt>
<pdfrwt beam="1">  1        1 0.87151362E+00 0.30000000E+03</pdfrwt>
<pdfrwt beam="2">0</pdfrwt>
<totfact> 0.23477355E-04</totfact>
</mgrwt>
<clustering>
<clus scale="   43.577">  1  6  2 -1</clus>
<clus scale="  458.321">  4  5 -1 -1</clus>
<clus scale="  300.000">  1  4  2 -1</clus>
</clustering>
</event>
<event>
 6    1  0.9843879E-012  0.3000000E+03  0.7818608E-02  0.1093470E+00
          1   -1    0    0  502    0  0.00000000000E+00  0.00000000000E+00  0.23540194101E+03  0.23540194101E+03  0.00000000000E+00 0.  1.
         13   -1    0    0    0    0 -0.00000000000E+00 -0.00000000000E+00 -0.27500000000E+03  0.27500000000E+03  0.00000000000E+00 0.  1.
    9000005    2    1    2  501    0  0.27605847185E+02  0.20491284856E+02 -0.38070363825E+02  0.47598814427E+03  0.47321600282E+03 0.  0.
         13    1    3    3    0    0  0.74267885691E+02 -0.21842099108E+03 -0.95899353174E+01  0.23090131019E+03  0.00000000000E+00 0.  1.
          1    1    3    3  501    0 -0.46662038506E+02  0.23891227593E+03 -0.28480428507E+02  0.24508683408E+03  0.00000000000E+00 0.  1.
         21    1    1    2  502  501 -0.27605847185E+02 -0.20491284856E+02 -0.15276951659E+01  0.34413796744E+02  0.00000000000E+00 0. -1.
<scales pt_clust_4="550.00000" pt_clust_5="550.00000" pt_clust_6="34.37987"></scales>
<mgrwt>
<rscale>  0 0.30000000E+03</rscale>
<asrwt>  1 0.34379871E+02</asrwt>
<pdfrwt beam="1">  1        1 0.85600706E+00 0.30000000E+03</pdfrwt>
<pdfrwt beam="2">0</pdfrwt>
<totfact> 0.35716937E-04</totfact>
</mgrwt>
<clustering>
<clus scale="   34.380">  1  6  2 -1</clus>
<clus scale="  473.216">  4  5 -1 -1</clus>
<clus scale="  300.000">  1  4  2 -1</clus>
</clustering>
</event>
<event>
 6    1  0.9843879E-012  0.3000000E+03  0.7818608E-02  0.1093470E+00
          1   -1    0    0  502    0  0.00000000000E+00  0.00000000000E+00  0.24794492697E+03  0.24794492697E+03  0.00000000000E+00 0.  1.
         13   -1    0    0    0    0 -0.00000000000E+00 -0.00000000000E+00 -0.27500000000E+03  0.27500000000E+03  0.00000000000E+00 0.  1.
    9000005    2    1    2  501    0  0.15087833288E+02 -0.42182994871E+02 -0.31284043388E+02  0.47794568297E+03  0.47481189616E+03 0.  0.
         13    1    3    3    0    0 -0.92335288626E+02  0.15007262908E+03  0.11783981312E+03  0.21197599176E+03  0.00000000000E+00 0.  1.
          3    1    3    3  501    0  0.10742312191E+03 -0.19225562395E+03 -0.14912385651E+03  0.26596969121E+03  0.00000000000E+00 0.  1.
         21    1    1    2  502  501 -0.15087833288E+02  0.42182994871E+02  0.42289703538E+01  0.44999243992E+02  0.00000000000E+00 0.  1.
<scales pt_clust_4="550.00000" pt_clust_5="550.00000" pt_clust_6="44.80009"></scales>
<mgrwt>
<rscale>  0 0.30000000E+03</rscale>
<asrwt>  1 0.44800087E+02</asrwt>
<pdfrwt beam="1">  1        1 0.90161792E+00 0.30000000E+03</pdfrwt>
<pdfrwt beam="2">0</pdfrwt>
<totfact> 0.10047422E-04</totfact>
</mgrwt>
<clustering>
<clus scale="   44.800">  1  6  2 -1</clus>
<clus scale="  474.812">  4  5 -1 -1</clus>
<clus scale="  300.000">  1  4  2 -1</clus>
</clustering>
</event>
<event>
 6    1  0.9843879E-012  0.3000000E+03  0.7818608E-02  0.1093470E+00
          1   -1    0    0  502    0  0.00000000000E+00  0.00000000000E+00  0.24171402093E+03  0.24171402093E+03  0.00000000000E+00 0.  1.
         13   -1    0    0    0    0 -0.00000000000E+00 -0.00000000000E+00 -0.27500000000E+03  0.27500000000E+03  0.00000000000E+00 0.  1.
    9000005    2    1    2  501    0  0.41789456189E+01  0.35762412444E+02 -0.35192287644E+02  0.48065784611E+03  0.47801365481E+03 0.  0.
         13    1    3    3    0    0  0.23195457243E+03  0.24835867630E+02 -0.83104936444E+02  0.24764122124E+03  0.00000000000E+00 0.  1.
          1    1    3    3  501    0 -0.22777562682E+03  0.10926544814E+02  0.47912648801E+02  0.23301662487E+03  0.00000000000E+00 0.  1.
         21    1    1    2  502  501 -0.41789456189E+01 -0.35762412444E+02  0.19063085763E+01  0.36056174821E+02  0.00000000000E+00 0.  1.
<scales pt_clust_4="550.00000" pt_clust_5="550.00000" pt_clust_6="36.00575"></scales>
<mgrwt>
<rscale>  0 0.30000000E+03</rscale>
<asrwt>  1 0.36005746E+02</asrwt>
<pdfrwt beam="1">  1        1 0.87896008E+00 0.30000000E+03</pdfrwt>
<pdfrwt beam="2">0</pdfrwt>
<totfact> 0.20211400E-04</totfact>
</mgrwt>
<clustering>
<clus scale="   36.006">  1  6  2 -1</clus>
<clus scale="  478.014">  4  5 -1 -1</clus>
<clus scale="  300.000">  1  4  2 -1</clus>
</clustering>
</event>
<event>
 6    1  0.9843879E-012  0.3000000E+03  0.7818608E-02  0.1093470E+00
          1   -1    0    0  502    0  0.00000000000E+00  0.00000000000E+00  0.25739880073E+03  0.25739880073E+03  0.00000000000E+00 0.  1.
         13   -1    0    0    0    0 -0.00000000000E+00 -0.00000000000E+00 -0.27500000000E+03  0.27500000000E+03  0.00000000000E+00 0.  1.
    9000005    2    1    2  501    0 -0.32020100770E+02  0.15028237072E+02 -0.48208590674E+02  0.48562330318E+03  0.48192819964E+03 0.  0.
         13    1    3    3    0    0  0.76830780046E+02  0.22603923802E+03  0.17163023093E+02  0.23935595929E+03  0.00000000000E+00 0.  1.
          3    1    3    3  501    0 -0.10885088082E+03 -0.21101100095E+03 -0.65371613767E+02  0.24626734388E+03  0.00000000000E+00 0.  1.
         21    1    1    2  502  501  0.32020100770E+02 -0.15028237072E+02  0.30607391400E+02  0.46775497551E+02  0.00000000000E+00 0. -1.
<scales pt_clust_4="550.00000" pt_clust_5="550.00000" pt_clust_6="35.37138"></scales>
<mgrwt>
<rscale>  0 0.30000000E+03</rscale>
<asrwt>  1 0.35371383E+02</asrwt>
<pdfrwt beam="1">  1        1 0.93599564E+00 0.30000000E+03</pdfrwt>
<pdfrwt beam="2">0</pdfrwt>
<totfact> 0.21858263E-05</totfact>
</mgrwt>
<clustering>
<clus scale="   35.371">  1  6  2 -1</clus>
<clus scale="  481.928">  4  5 -1 -1</clus>
<clus scale="  300.000">  1  4  2 -1</clus>
</clustering>
</event>
<event>
 6    1  0.9843879E-012  0.3000000E+03  0.7818608E-02  0.1093470E+00
          1   -1    0    0  502    0  0.00000000000E+00  0.00000000000E+00  0.24636234692E+03  0.24636234692E+03  0.00000000000E+00 0.  1.
         13   -1    0    0    0    0 -0.00000000000E+00 -0.00000000000E+00 -0.27500000000E+03  0.27500000000E+03  0.00000000000E+00 0.  1.
    9000005    2    1    2  501    0  0.17274970951E+02  0.29616480987E+02 -0.49386219310E+02  0.48128662399E+03  0.47751675909E+03 0.  0.
         13    1    3    3    0    0  0.92174503716E+02  0.15055796931E+02  0.19986922818E+03  0.22061397174E+03  0.00000000000E+00 0.  1.
          1    1    3    3  501    0 -0.74899532766E+02  0.14560684056E+02 -0.24925544749E+03  0.26067265225E+03  0.00000000000E+00 0.  1.
         21    1    1    2  502  501 -0.17274970951E+02 -0.29616480987E+02  0.20748566228E+02  0.40075722924E+02  0.00000000000E+00 0. -1.
<scales pt_clust_4="550.00000" pt_clust_5="550.00000" pt_clust_6="34.28645"></scales>
<mgrwt>
<rscale>  0 0.30000000E+03</rscale>
<asrwt>  1 0.34286449E+02</asrwt>
<pdfrwt beam="1">  1        1 0.89586308E+00 0.30000000E+03</pdfrwt>
<pdfrwt beam="2">0</pdfrwt>
<totfact> 0.12380080E-04</totfact>
</mgrwt>
<clustering>
<clus scale="   34.286">  1  6  2 -1</clus>
<clus scale="  477.517">  4  5 -1 -1</clus>
<clus scale="  300.000">  1  4  2 -1</clus>
</clustering>
</event>
<event>
 6    1  0.9843879E-012  0.3000000E+03  0.7818608E-02  0.1093470E+00
          1   -1    0    0  502    0  0.00000000000E+00  0.00000000000E+00  0.23651982532E+03  0.23651982532E+03  0.00000000000E+00 0.  1.
         13   -1    0    0    0    0 -0.00000000000E+00 -0.00000000000E+00 -0.27500000000E+03  0.27500000000E+03  0.00000000000E+00 0.  1.
    9000005    2    1    2  501    0  0.32339023821E+02 -0.23832683534E+02 -0.60684598839E+02  0.46561943623E+03  0.45989675971E+03 0.  0.
         13    1    3    3    0    0  0.83931761096E+02 -0.23223816806E+03 -0.34123150982E+02  0.24928597365E+03  0.00000000000E+00 0.  1.
          3    1    3    3  501    0 -0.51592737275E+02  0.20840548453E+03 -0.26561447857E+02  0.21633346258E+03  0.00000000000E+00 0.  1.
         21    1    1    2  502  501 -0.32339023821E+02  0.23832683534E+02  0.22204424160E+02  0.45900389088E+02  0.00000000000E+00 0. -1.
<scales pt_clust_4="550.00000" pt_clust_5="550.00000" pt_clust_6="40.17224"></scales>
<mgrwt>
<rscale>  0 0.30000000E+03</rscale>
<asrwt>  1 0.40172245E+02</asrwt>
<pdfrwt beam="1">  1        1 0.86007209E+00 0.30000000E+03</pdfrwt>
<pdfrwt beam="2">0</pdfrwt>
<totfact> 0.31477579E-04</totfact>
</mgrwt>
<clustering>
<clus scale="   40.172">  1  6  2 -1</clus>
<clus scale="  459.897">  4  5 -1 -1</clus>
<clus scale="  300.000">  1  4  2 -1</clus>
</clustering>
</event>
<event>
 6    1  0.9843879E-012  0.3000000E+03  0.7818608E-02  0.1093470E+00
          1   -1    0    0  502    0  0.00000000000E+00  0.00000000000E+00  0.22782067995E+03  0.22782067995E+03  0.00000000000E+00 0.  1.
         13   -1    0    0    0    0 -0.00000000000E+00 -0.00000000000E+00 -0.27500000000E+03  0.27500000000E+03  0.00000000000E+00 0.  1.
    9000005    2    1    2  501    0  0.30991546539E+02  0.24443410838E+02 -0.55972606909E+02  0.46238210698E+03  0.45728144926E+03 0.  0.
         13    1    3    3    0    0 -0.82314663138E+02 -0.18411687205E+03 -0.93122832434E+02  0.22214091982E+03  0.00000000000E+00 0.  1.
          1    1    3    3  501    0  0.11330620968E+03  0.20856028289E+03  0.37150225525E+02  0.24024118715E+03  0.00000000000E+00 0.  1.
         21    1    1    2  502  501 -0.30991546539E+02 -0.24443410838E+02  0.87932868619E+01  0.40438572974E+02  0.00000000000E+00 0.  1.
<scales pt_clust_4="550.00000" pt_clust_5="550.00000" pt_clust_6="39.47096"></scales>
<mgrwt>
<rscale>  0 0.30000000E+03</rscale>
<asrwt>  1 0.39470955E+02</asrwt>
<pdfrwt beam="1">  1        1 0.82843884E+00 0.30000000E+03</pdfrwt>
<pdfrwt beam="2">0</pdfrwt>
<totfact> 0.59581260E-04</totfact>
</mgrwt>
<clustering>
<clus scale="   39.471">  1  6  2 -1</clus>
<clus scale="  457.281">  4  5 -1 -1</clus>
<clus scale="  300.000">  1  4  2 -1</clus>
</clustering>
</event>
<event>
 6    1  0.9843879E-012  0.3000000E+03  0.7818608E-02  0.1093470E+00
          1   -1    0    0  502    0  0.00000000000E+00  0.00000000000E+00  0.24609679444E+03  0.24609679444E+03  0.00000000000E+00 0.  1.
         13   -1    0    0    0    0 -0.00000000000E+00 -0.00000000000E+00 -0.27500000000E+03  0.27500000000E+03  0.00000000000E+00 0.  1.
    9000005    2    1    2  501    0  0.51013573855E+02 -0.29350205679E+02 -0.37082234290E+02  0.46167696777E+03  0.45640630054E+03 0.  0.
         13    1    3    3    0    0  0.76468594561E+02 -0.21868198378E+03  0.70852323540E+02  0.24225876193E+03  0.00000000000E+00 0.  1.
          3    1    3    3  501    0 -0.25455020706E+02  0.18933177810E+03 -0.10793455783E+03  0.21941820583E+03  0.00000000000E+00 0.  1.
         21    1    1    2  502  501 -0.51013573855E+02  0.29350205679E+02  0.81790287285E+01  0.59419826672E+02  0.00000000000E+00 0.  1.
<scales pt_clust_4="550.00000" pt_clust_5="550.00000" pt_clust_6="58.85422"></scales>
<mgrwt>
<rscale>  0 0.30000000E+03</rscale>
<asrwt>  1 0.58854221E+02</asrwt>
<pdfrwt beam="1">  1        1 0.89489743E+00 0.30000000E+03</pdfrwt>
<pdfrwt beam="2">0</pdfrwt>
<totfact> 0.11522591E-04</totfact>
</mgrwt>
<clustering>
<clus scale="   58.854">  1  6  2 -1</clus>
<clus scale="  456.406">  4  5 -1 -1</clus>
<clus scale="  300.000">  1  4  2 -1</clus>
</clustering>
</event>
<event>
 6    1  0.9843879E-012  0.3000000E+03  0.7818608E-02  0.1093470E+00
          1   -1    0    0  502    0  0.00000000000E+00  0.00000000000E+00  0.23772652107E+03  0.23772652107E+03  0.00000000000E+00 0.  1.
         13   -1    0    0    0    0 -0.00000000000E+00 -0.00000000000E+00 -0.27500000000E+03  0.27500000000E+03  0.00000000000E+00 0.  1.
    9000005    2    1    2  501    0  0.26087268203E+02 -0.42937223941E+02 -0.45208683377E+02  0.46186279892E+03  0.45689087232E+03 0.  0.
         13    1    3    3    0    0  0.23295737303E+03  0.17736801367E+02 -0.72347718743E+02  0.24457703118E+03  0.00000000000E+00 0.  1.
          1    1    3    3  501    0 -0.20687010483E+03 -0.60674025308E+02  0.27139035366E+02  0.21728576774E+03  0.00000000000E+00 0.  1.
         21    1    1    2  502  501 -0.26087268203E+02  0.42937223941E+02  0.79352044505E+01  0.50863722158E+02  0.00000000000E+00 0.  1.
<scales pt_clust_4="550.00000" pt_clust_5="550.00000" pt_clust_6="50.24093"></scales>
<mgrwt>
<rscale>  0 0.30000000E+03</rscale>
<asrwt>  1 0.50240927E+02</asrwt>
<pdfrwt beam="1">  1        1 0.86446008E+00 0.30000000E+03</pdfrwt>
<pdfrwt beam="2">0</pdfrwt>
<totfact> 0.27121764E-04</totfact>
</mgrwt>
<clustering>
<clus scale="   50.241">  1  6  2 -1</clus>
<clus scale="  456.891">  4  5 -1 -1</clus>
<clus scale="  300.000">  1  4  2 -1</clus>
</clustering>
</event>
<event>
 6    1  0.9843879E-012  0.3000000E+03  0.7818608E-02  0.1093470E+00
          1   -1    0    0  502    0  0.00000000000E+00  0.00000000000E+00  0.22915727663E+03  0.22915727663E+03  0.00000000000E+00 0.  1.
         13   -1    0    0    0    0 -0.00000000000E+00 -0.00000000000E+00 -0.27500000000E+03  0.27500000000E+03  0.00000000000E+00 0.  1.
    9000005    2    1    2  501    0  0.27904617518E+02 -0.16555006737E+02 -0.69569837236E+02  0.46396135819E+03  0.45756687349E+03 0.  0.
         13    1    3    3    0    0  0.19027061868E+03 -0.12199705232E+03 -0.13051117953E+03  0.26099685264E+03  0.00000000000E+00 0.  1.
          1    1    3    3  501    0 -0.16236600117E+03  0.10544204558E+03  0.60941342294E+02  0.20296450554E+03  0.00000000000E+00 0.  1.
         21    1    1    2  502  501 -0.27904617518E+02  0.16555006737E+02  0.23727113863E+02  0.40195918439E+02  0.00000000000E+00 0.  1.
<scales pt_clust_4="550.00000" pt_clust_5="550.00000" pt_clust_6="32.44589"></scales>
<mgrwt>
<rscale>  0 0.30000000E+03</rscale>
<asrwt>  1 0.32445892E+02</asrwt>
<pdfrwt beam="1">  1        1 0.83329919E+00 0.30000000E+03</pdfrwt>
<pdfrwt beam="2">0</pdfrwt>
<totfact> 0.56486863E-04</totfact>
</mgrwt>
<clustering>
<clus scale="   32.446">  1  6  2 -1</clus>
<clus scale="  457.567">  4  5 -1 -1</clus>
<clus scale="  300.000">  1  4  2 -1</clus>
</clustering>
</event>
<event>
 6    1  0.9843879E-012  0.3000000E+03  0.7818608E-02  0.1093470E+00
          1   -1    0    0  502    0  0.00000000000E+00  0.00000000000E+00  0.23169240188E+03  0.23169240188E+03  0.00000000000E+00 0.  1.
         13   -1    0    0    0    0 -0.00000000000E+00 -0.00000000000E+00 -0.27500000000E+03  0.27500000000E+03  0.00000000000E+00 0.  1.
    9000005    2    1    2  501    0 -0.25933888564E+02  0.17078580165E+02 -0.61169601405E+02  0.47086928591E+03  0.46584538186E+03 0.  0.
         13    1    3    3    0    0  0.72237667941E+02  0.18516111232E+03 -0.15758700628E+03  0.25364657051E+03  0.00000000000E+00 0.  1.
          3    1    3    3  501    0 -0.98171556505E+02 -0.16808253215E+03  0.96417404874E+02  0.21722271540E+03  0.00000000000E+00 0.  1.
         21    1    1    2  502  501  0.25933888564E+02 -0.17078580165E+02  0.17862003282E+02  0.35823115969E+02  0.00000000000E+00 0. -1.
<scales pt_clust_4="550.00000" pt_clust_5="550.00000" pt_clust_6="31.05229"></scales>
<mgrwt>
<rscale>  0 0.30000000E+03</rscale>
<asrwt>  1 0.31052286E+02</asrwt>
<pdfrwt beam="1">  1        1 0.84251783E+00 0.30000000E+03</pdfrwt>
<pdfrwt beam="2">0</pdfrwt>
<totfact> 0.48530471E-04</totfact>
</mgrwt>
<clustering>
<clus scale="   31.052">  1  6  2 -1</clus>
<clus scale="  465.845">  4  5 -1 -1</clus>
<clus scale="  300.000">  1  4  2 -1</clus>
</clustering>
</event>
<event>
 6    1  0.9843879E-012  0.3000000E+03  0.7818608E-02  0.1093470E+00
          1   -1    0    0  502    0  0.00000000000E+00  0.00000000000E+00  0.26349626046E+03  0.26349626046E+03  0.00000000000E+00 0.  1.
         13   -1    0    0    0    0 -0.00000000000E+00 -0.00000000000E+00 -0.27500000000E+03  0.27500000000E+03  0.00000000000E+00 0.  1.
    9000005    2    1    2  501    0  0.52491022903E+01  0.59265669464E+02 -0.52014602433E+02  0.46651638366E+03  0.45977390607E+03 0.  0.
         13    1    3    3    0    0  0.10000643854E+03  0.21496034242E+03 -0.12755396331E+03  0.26921970604E+03  0.00000000000E+00 0.  1.
          3    1    3    3  501    0 -0.94757336248E+02 -0.15569467296E+03  0.75539360873E+02  0.19729667762E+03  0.00000000000E+00 0.  1.
         21    1    1    2  502  501 -0.52491022903E+01 -0.59265669464E+02  0.40510862895E+02  0.71979876801E+02  0.00000000000E+00 0. -1.
<scales pt_clust_4="550.00000" pt_clust_5="550.00000" pt_clust_6="59.49767"></scales>
<mgrwt>
<rscale>  0 0.30000000E+03</rscale>
<asrwt>  1 0.59497669E+02</asrwt>
<pdfrwt beam="1">  1        1 0.95816822E+00 0.30000000E+03</pdfrwt>
<pdfrwt beam="2">0</pdfrwt>
<totfact> 0.75562761E-06</totfact>
</mgrwt>
<clustering>
<clus scale="   59.498">  1  6  2 -1</clus>
<clus scale="  459.774">  4  5 -1 -1</clus>
<clus scale="  300.000">  1  4  2 -1</clus>
</clustering>
</event>
<event>
 6    1  0.9843879E-012  0.3000000E+03  0.7818608E-02  0.1093470E+00
          1   -1    0    0  502    0  0.00000000000E+00  0.00000000000E+00  0.22987140253E+03  0.22987140253E+03  0.00000000000E+00 0.  1.
         13   -1    0    0    0    0 -0.00000000000E+00 -0.00000000000E+00 -0.27500000000E+03  0.27500000000E+03  0.00000000000E+00 0.  1.
    9000005    2    1    2  501    0 -0.18558349041E+02 -0.25236268824E+02 -0.58917355476E+02  0.47064551422E+03  0.46589125737E+03 0.  0.
         13    1    3    3    0    0 -0.22911756683E+03  0.30707748654E+02 -0.94792965460E+02  0.24984701631E+03  0.00000000000E+00 0.  1.
          3    1    3    3  501    0  0.21055921779E+03 -0.55944017478E+02  0.35875609984E+02  0.22079849791E+03  0.00000000000E+00 0.  1.
         21    1    1    2  502  501  0.18558349041E+02  0.25236268824E+02  0.13788758009E+02  0.34225888312E+02  0.00000000000E+00 0.  1.
<scales pt_clust_4="550.00000" pt_clust_5="550.00000" pt_clust_6="31.32541"></scales>
<mgrwt>
<rscale>  0 0.30000000E+03</rscale>
<asrwt>  1 0.31325414E+02</asrwt>
<pdfrwt beam="1">  1        1 0.83589601E+00 0.30000000E+03</pdfrwt>
<pdfrwt beam="2">0</pdfrwt>
<totfact> 0.54421929E-04</totfact>
</mgrwt>
<clustering>
<clus scale="   31.325">  1  6  2 -1</clus>
<clus scale="  465.891">  4  5 -1 -1</clus>
<clus scale="  300.000">  1  4  2 -1</clus>
</clustering>
</event>
<event>
 6    1  0.9843879E-012  0.3000000E+03  0.7818608E-02  0.1093470E+00
          1   -1    0    0  502    0  0.00000000000E+00  0.00000000000E+00  0.22501590452E+03  0.22501590452E+03  0.00000000000E+00 0.  1.
         13   -1    0    0    0    0 -0.00000000000E+00 -0.00000000000E+00 -0.27500000000E+03  0.27500000000E+03  0.00000000000E+00 0.  1.
    9000005    2    1    2  501    0 -0.34274563380E+02  0.10411731623E+02 -0.56127103964E+02  0.46367190359E+03  0.45886624688E+03 0.  0.
         13    1    3    3    0    0  0.10605333444E+03  0.27942348827E+02  0.16682794273E+03  0.19964880936E+03  0.00000000000E+00 0.  1.
          1    1    3    3  501    0 -0.14032789782E+03 -0.17530617204E+02 -0.22295504669E+03  0.26402309423E+03  0.00000000000E+00 0.  1.
         21    1    1    2  502  501  0.34274563380E+02 -0.10411731623E+02  0.61430084818E+01  0.36344000928E+02  0.00000000000E+00 0.  1.
<scales pt_clust_4="550.00000" pt_clust_5="550.00000" pt_clust_6="35.82108"></scales>
<mgrwt>
<rscale>  0 0.30000000E+03</rscale>
<asrwt>  1 0.35821081E+02</asrwt>
<pdfrwt beam="1">  1        1 0.81823965E+00 0.30000000E+03</pdfrwt>
<pdfrwt beam="2">0</pdfrwt>
<totfact> 0.74551575E-04</totfact>
</mgrwt>
<clustering>
<clus scale="   35.821">  1  6  2 -1</clus>
<clus scale="  458.866">  4  5 -1 -1</clus>
<clus scale="  300.000">  1  4  2 -1</clus>
</clustering>
</event>
<event>
 6    1  0.9843879E-012  0.3000000E+03  0.7818608E-02  0.1093470E+00
          1   -1    0    0  502    0  0.00000000000E+00  0.00000000000E+00  0.24682343140E+03  0.24682343140E+03  0.00000000000E+00 0.  1.
         13   -1    0    0    0    0 -0.00000000000E+00 -0.00000000000E+00 -0.27500000000E+03  0.27500000000E+03  0.00000000000E+00 0.  1.
    9000005    2    1    2  501    0  0.29546000135E+02 -0.29609880745E+02  0.10675056650E+02  0.46473437862E+03  0.46272494495E+03 0.  0.
         13    1    3    3    0    0  0.16298483959E+03 -0.14989687015E+03 -0.11105762018E+03  0.24772348419E+03  0.00000000000E+00 0.  1.
          1    1    3    3  501    0 -0.13343883946E+03  0.12028698941E+03  0.12173267683E+03  0.21701089444E+03  0.00000000000E+00 0.  1.
         21    1    1    2  502  501 -0.29546000135E+02  0.29609880745E+02 -0.38851625253E+02  0.57089052773E+02  0.00000000000E+00 0. -1.
<scales pt_clust_4="550.00000" pt_clust_5="550.00000" pt_clust_6="41.82957"></scales>
<mgrwt>
<rscale>  0 0.30000000E+03</rscale>
<asrwt>  1 0.41829570E+02</asrwt>
<pdfrwt beam="1">  1        1 0.89753975E+00 0.30000000E+03</pdfrwt>
<pdfrwt beam="2">0</pdfrwt>
<totfact> 0.11429496E-04</totfact>
</mgrwt>
<clustering>
<clus scale="   41.830">  1  6  2 -1</clus>
<clus scale="  462.725">  4  5 -1 -1</clus>
<clus scale="  300.000">  1  4  2 -1</clus>
</clustering>
</event>
<event>
 6    1  0.9843879E-012  0.3000000E+03  0.7818608E-02  0.1093470E+00
          1   -1    0    0  502    0  0.00000000000E+00  0.00000000000E+00  0.24348315189E+03  0.24348315189E+03  0.00000000000E+00 0.  1.
         13   -1    0    0    0    0 -0.00000000000E+00 -0.00000000000E+00 -0.27500000000E+03  0.27500000000E+03  0.00000000000E+00 0.  1.
    9000005    2    1    2  501    0 -0.34428407045E+02 -0.73809922144E+01 -0.37451815803E+02  0.48277575631E+03  0.48003124702E+03 0.  0.
         13    1    3    3    0    0  0.18188820333E+03 -0.55201306370E+02 -0.14252761067E+03  0.23758077056E+03  0.00000000000E+00 0.  1.
          1    1    3    3  501    0 -0.21631661038E+03  0.47820314156E+02  0.10507579486E+03  0.24519498575E+03  0.00000000000E+00 0.  1.
         21    1    1    2  502  501  0.34428407045E+02  0.73809922144E+01  0.59349676934E+01  0.35707395582E+02  0.00000000000E+00 0.  1.
<scales pt_clust_4="550.00000" pt_clust_5="550.00000" pt_clust_6="35.21071"></scales>
<mgrwt>
<rscale>  0 0.30000000E+03</rscale>
<asrwt>  1 0.35210712E+02</asrwt>
<pdfrwt beam="1">  1        1 0.88539328E+00 0.30000000E+03</pdfrwt>
<pdfrwt beam="2">0</pdfrwt>
<totfact> 0.16742422E-04</totfact>
</mgrwt>
<clustering>
<clus scale="   35.211">  1  6  2 -1</clus>
<clus scale="  480.031">  4  5 -1 -1</clus>
<clus scale="  300.000">  1  4  2 -1</clus>
</clustering>
</event>
<event>
 6    1  0.9843879E-012  0.3000000E+03  0.7818608E-02  0.1093470E+00
          1   -1    0    0  502    0  0.00000000000E+00  0.00000000000E+00  0.23883927175E+03  0.23883927175E+03  0.00000000000E+00 0.  1.
         13   -1    0    0    0    0 -0.00000000000E+00 -0.00000000000E+00 -0.27500000000E+03  0.27500000000E+03  0.00000000000E+00 0.  1.
    9000005    2    1    2  501    0 -0.25957091281E+02 -0.16171860525E+02 -0.72935213421E+02  0.46600975764E+03  0.45924965890E+03 0.  0.
         13    1    3    3    0    0  0.11025859127E+03  0.12850621726E+03 -0.17424253130E+03  0.24296350454E+03  0.00000000000E+00 0.  1.
          1    1    3    3  501    0 -0.13621568255E+03 -0.14467807779E+03  0.10130731788E+03  0.22304625310E+03  0.00000000000E+00 0.  1.
         21    1    1    2  502  501  0.25957091281E+02  0.16171860525E+02  0.36774485174E+02  0.47829514114E+02  0.00000000000E+00 0. -1.
<scales pt_clust_4="550.00000" pt_clust_5="550.00000" pt_clust_6="30.58267"></scales>
<mgrwt>
<rscale>  0 0.30000000E+03</rscale>
<asrwt>  1 0.30582669E+02</asrwt>
<pdfrwt beam="1">  1        1 0.86850644E+00 0.30000000E+03</pdfrwt>
<pdfrwt beam="2">0</pdfrwt>
<totfact> 0.26915040E-04</totfact>
</mgrwt>
<clustering>
<clus scale="   30.583">  1  6  2 -1</clus>
<clus scale="  459.250">  4  5 -1 -1</clus>
<clus scale="  300.000">  1  4  2 -1</clus>
</clustering>
</event>
<event>
 6    1  0.9843879E-012  0.3000000E+03  0.7818608E-02  0.1093470E+00
          1   -1    0    0  502    0  0.00000000000E+00  0.00000000000E+00  0.26063486204E+03  0.26063486204E+03  0.00000000000E+00 0.  1.
         13   -1    0    0    0    0 -0.00000000000E+00 -0.00000000000E+00 -0.27500000000E+03  0.27500000000E+03  0.00000000000E+00 0.  1.
    9000005    2    1    2  501    0 -0.16845878613E+02  0.29151117352E+02 -0.50051747851E+02  0.48657260165E+03  0.48281895980E+03 0.  0.
         13    1    3    3    0    0  0.32313784410E+02  0.74116936119E+02 -0.25686667871E+03  0.26929164769E+03  0.00000000000E+00 0.  1.
          1    1    3    3  501    0 -0.49159663023E+02 -0.44965818766E+02  0.20681493086E+03  0.21728095396E+03  0.00000000000E+00 0.  1.
         21    1    1    2  502  501  0.16845878613E+02 -0.29151117352E+02  0.35686609888E+02  0.49062260388E+02  0.00000000000E+00 0. -1.
<scales pt_clust_4="550.00000" pt_clust_5="550.00000" pt_clust_6="33.66855"></scales>
<mgrwt>
<rscale>  0 0.30000000E+03</rscale>
<asrwt>  1 0.33668550E+02</asrwt>
<pdfrwt beam="1">  1        1 0.94776313E+00 0.30000000E+03</pdfrwt>
<pdfrwt beam="2">0</pdfrwt>
<totfact> 0.13807240E-05</totfact>
</mgrwt>
<clustering>
<clus scale="   33.669">  1  6  2 -1</clus>
<clus scale="  482.819">  4  5 -1 -1</clus>
<clus scale="  300.000">  1  4  2 -1</clus>
</clustering>
</event>
<event>
 6    1  0.9843879E-012  0.3000000E+03  0.7818608E-02  0.1093470E+00
          1   -1    0    0  502    0  0.00000000000E+00  0.00000000000E+00  0.23875267798E+03  0.23875267798E+03  0.00000000000E+00 0.  1.
         13   -1    0    0    0    0 -0.00000000000E+00 -0.00000000000E+00 -0.27500000000E+03  0.27500000000E+03  0.00000000000E+00 0.  1.
    9000005    2    1    2  501    0  0.31602486041E+02 -0.30930411990E+01 -0.61856362197E+02  0.47295921077E+03  0.46782039447E+03 0.  0.
         13    1    3    3    0    0 -0.14062189797E+02 -0.11563507065E+03  0.17299699195E+03  0.20855976114E+03  0.00000000000E+00 0.  1.
          3    1    3    3  501    0  0.45664675838E+02  0.11254202945E+03 -0.23485335415E+03  0.26439944963E+03  0.00000000000E+00 0.  1.
         21    1    1    2  502  501 -0.31602486041E+02  0.30930411990E+01  0.25609040175E+02  0.40793467204E+02  0.00000000000E+00 0.  1.
<scales pt_clust_4="550.00000" pt_clust_5="550.00000" pt_clust_6="31.75349"></scales>
<mgrwt>
<rscale>  0 0.30000000E+03</rscale>
<asrwt>  1 0.31753488E+02</asrwt>
<pdfrwt beam="1">  1        1 0.86819156E+00 0.30000000E+03</pdfrwt>
<pdfrwt beam="2">0</pdfrwt>
<totfact> 0.26923684E-04</totfact>
</mgrwt>
<clustering>
<clus scale="   31.753">  1  6  2 -1</clus>
<clus scale="  467.820">  4  5 -1 -1</clus>
<clus scale="  300.000">  1  4  2 -1</clus>
</clustering>
</event>
<event>
 6    1  0.9843879E-012  0.3000000E+03  0.7818608E-02  0.1093470E+00
          1   -1    0    0  502    0  0.00000000000E+00  0.00000000000E+00  0.23470574136E+03  0.23470574136E+03  0.00000000000E+00 0.  1.
         13   -1    0    0    0    0 -0.00000000000E+00 -0.00000000000E+00 -0.27500000000E+03  0.27500000000E+03  0.00000000000E+00 0.  1.
    9000005    2    1    2  501    0 -0.18960664192E+02  0.25884302815E+02 -0.56298470862E+02  0.47384993670E+03  0.46939827521E+03 0.  0.
         13    1    3    3    0    0 -0.19055822656E+03  0.80897855551E+02  0.10489217213E+03  0.23207599728E+03  0.00000000000E+00 0.  1.
          3    1    3    3  501    0  0.17159756236E+03 -0.55013552736E+02 -0.16119064299E+03  0.24177393942E+03  0.00000000000E+00 0.  1.
         21    1    1    2  502  501  0.18960664192E+02 -0.25884302815E+02  0.16004212222E+02  0.35855804658E+02  0.00000000000E+00 0.  1.
<scales pt_clust_4="550.00000" pt_clust_5="550.00000" pt_clust_6="32.08588"></scales>
<mgrwt>
<rscale>  0 0.30000000E+03</rscale>
<asrwt>  1 0.32085883E+02</asrwt>
<pdfrwt beam="1">  1        1 0.85347542E+00 0.30000000E+03</pdfrwt>
<pdfrwt beam="2">0</pdfrwt>
<totfact> 0.38328617E-04</totfact>
</mgrwt>
<clustering>
<clus scale="   32.086">  1  6  2 -1</clus>
<clus scale="  469.398">  4  5 -1 -1</clus>
<clus scale="  300.000">  1  4  2 -1</clus>
</clustering>
</event>
<event>
 6    1  0.9843879E-012  0.3000000E+03  0.7818608E-02  0.1093470E+00
          1   -1    0    0  502    0  0.00000000000E+00  0.00000000000E+00  0.22251283593E+03  0.22251283593E+03  0.00000000000E+00 0.  1.
         13   -1    0    0    0    0 -0.00000000000E+00 -0.00000000000E+00 -0.27500000000E+03  0.27500000000E+03  0.00000000000E+00 0.  1.
    9000005    2    1    2  501    0  0.10980059494E+02  0.29567211639E+02 -0.39167904985E+02  0.46327565770E+03  0.46053819442E+03 0.  0.
         13    1    3    3    0    0  0.10811650689E+03 -0.25874842132E+02  0.18324161216E+03  0.21432726132E+03  0.00000000000E+00 0.  1.
          3    1    3    3  501    0 -0.97136447395E+02  0.55442053771E+02 -0.22240951715E+03  0.24894839638E+03  0.00000000000E+00 0.  1.
         21    1    1    2  502  501 -0.10980059494E+02 -0.29567211639E+02 -0.13319259086E+02  0.34237178231E+02  0.00000000000E+00 0.  1.
<scales pt_clust_4="550.00000" pt_clust_5="550.00000" pt_clust_6="31.54018"></scales>
<mgrwt>
<rscale>  0 0.30000000E+03</rscale>
<asrwt>  1 0.31540176E+02</asrwt>
<pdfrwt beam="1">  1        1 0.80913759E+00 0.30000000E+03</pdfrwt>
<pdfrwt beam="2">0</pdfrwt>
<totfact> 0.90330417E-04</totfact>
</mgrwt>
<clustering>
<clus scale="   31.540">  1  6  2 -1</clus>
<clus scale="  460.538">  4  5 -1 -1</clus>
<clus scale="  300.000">  1  4  2 -1</clus>
</clustering>
</event>
<event>
 6    1  0.9843879E-012  0.3000000E+03  0.7818608E-02  0.1093470E+00
          1   -1    0    0  502    0  0.00000000000E+00  0.00000000000E+00  0.23876715999E+03  0.23876715999E+03  0.00000000000E+00 0.  1.
         13   -1    0    0    0    0 -0.00000000000E+00 -0.00000000000E+00 -0.27500000000E+03  0.27500000000E+03  0.00000000000E+00 0.  1.
    9000005    2    1    2  501    0  0.15060484480E+02 -0.27217734213E+02 -0.59301935511E+02  0.47503982577E+03  0.47029617611E+03 0.  0.
         13    1    3    3    0    0  0.47748555365E+02  0.21732333897E+03 -0.57641728719E+01  0.22258163422E+03  0.00000000000E+00 0.  1.
          1    1    3    3  501    0 -0.32688070885E+02 -0.24454107319E+03 -0.53537762639E+02  0.25245819155E+03  0.00000000000E+00 0.  1.
         21    1    1    2  502  501 -0.15060484480E+02  0.27217734213E+02  0.23069095503E+02  0.38727334220E+02  0.00000000000E+00 0.  1.
<scales pt_clust_4="550.00000" pt_clust_5="550.00000" pt_clust_6="31.10664"></scales>
<mgrwt>
<rscale>  0 0.30000000E+03</rscale>
<asrwt>  1 0.31106643E+02</asrwt>
<pdfrwt beam="1">  1        1 0.86824422E+00 0.30000000E+03</pdfrwt>
<pdfrwt beam="2">0</pdfrwt>
<totfact> 0.26995716E-04</totfact>
</mgrwt>
<clustering>
<clus scale="   31.107">  1  6  2 -1</clus>
<clus scale="  470.296">  4  5 -1 -1</clus>
<clus scale="  300.000">  1  4  2 -1</clus>
</clustering>
</event>
<event>
 6    1  0.9843879E-012  0.3000000E+03  0.7818608E-02  0.1093470E+00
          1   -1    0    0  502    0  0.00000000000E+00  0.00000000000E+00  0.23379052232E+03  0.23379052232E+03  0.00000000000E+00 0.  1.
         13   -1    0    0    0    0 -0.00000000000E+00 -0.00000000000E+00 -0.27500000000E+03  0.27500000000E+03  0.00000000000E+00 0.  1.
    9000005    2    1    2  501    0 -0.40030265497E+02 -0.91726908655E+00 -0.45442054684E+02  0.46852666450E+03  0.46459551384E+03 0.  0.
         13    1    3    3    0    0 -0.17561992966E+02  0.32265935938E+02 -0.25375184714E+03  0.25639718046E+03  0.00000000000E+00 0.  1.
          1    1    3    3  501    0 -0.22468272531E+02 -0.33183205025E+02  0.20830979246E+03  0.21212948404E+03  0.00000000000E+00 0.  1.
         21    1    1    2  502  501  0.40030265497E+02  0.91726908655E+00  0.42325770061E+01  0.40263857819E+02  0.00000000000E+00 0.  1.
<scales pt_clust_4="550.00000" pt_clust_5="550.00000" pt_clust_6="40.04077"></scales>
<mgrwt>
<rscale>  0 0.30000000E+03</rscale>
<asrwt>  1 0.40040773E+02</asrwt>
<pdfrwt beam="1">  1        1 0.85014735E+00 0.30000000E+03</pdfrwt>
<pdfrwt beam="2">0</pdfrwt>
<totfact> 0.39573219E-04</totfact>
</mgrwt>
<clustering>
<clus scale="   40.041">  1  6  2 -1</clus>
<clus scale="  464.596">  4  5 -1 -1</clus>
<clus scale="  300.000">  1  4  2 -1</clus>
</clustering>
</event>
<event>
 6    1  0.9843879E-012  0.3000000E+03  0.7818608E-02  0.1093470E+00
          1   -1    0    0  502    0  0.00000000000E+00  0.00000000000E+00  0.25761372822E+03  0.25761372822E+03  0.00000000000E+00 0.  1.
         13   -1    0    0    0    0 -0.00000000000E+00 -0.00000000000E+00 -0.27500000000E+03  0.27500000000E+03  0.00000000000E+00 0.  1.
    9000005    2    1    2  501    0 -0.26954460864E+02  0.15885702594E+02 -0.58455049870E+01  0.49926574768E+03  0.49825015642E+03 0.  0.
         13    1    3    3    0    0 -0.18781396007E+03 -0.14769045892E+03 -0.89399523826E+02  0.25510552741E+03  0.00000000000E+00 0.  1.
          3    1    3    3  501    0  0.16085949921E+03  0.16357616151E+03  0.83554018839E+02  0.24416022027E+03  0.00000000000E+00 0.  1.
         21    1    1    2  502  501  0.26954460864E+02 -0.15885702594E+02 -0.11540766797E+02  0.33347980533E+02  0.00000000000E+00 0. -1.
<scales pt_clust_4="550.00000" pt_clust_5="550.00000" pt_clust_6="31.28737"></scales>
<mgrwt>
<rscale>  0 0.30000000E+03</rscale>
<asrwt>  1 0.31287369E+02</asrwt>
<pdfrwt beam="1">  1        1 0.93677719E+00 0.30000000E+03</pdfrwt>
<pdfrwt beam="2">0</pdfrwt>
<totfact> 0.21867151E-05</totfact>
</mgrwt>
<clustering>
<clus scale="   31.287">  1  6  2 -1</clus>
<clus scale="  498.250">  4  5 -1 -1</clus>
<clus scale="  300.000">  1  4  2 -1</clus>
</clustering>
</event>
<event>
 6    1  0.9843879E-012  0.3000000E+03  0.7818608E-02  0.1093470E+00
          1   -1    0    0  502    0  0.00000000000E+00  0.00000000000E+00  0.23446428465E+03  0.23446428465E+03  0.00000000000E+00 0.  1.
         13   -1    0    0    0    0 -0.00000000000E+00 -0.00000000000E+00 -0.27500000000E+03  0.27500000000E+03  0.00000000000E+00 0.  1.
    9000005    2    1    2  501    0  0.28252524585E+02 -0.19390081035E+02 -0.51867604401E+02  0.47337284387E+03  0.46927328982E+03 0.  0.
         13    1    3    3    0    0  0.20070064731E+03 -0.29170215192E+02 -0.16956793917E+03  0.26435759357E+03  0.00000000000E+00 0.  1.
          1    1    3    3  501    0 -0.17244812272E+03  0.97801341564E+01  0.11770033477E+03  0.20901525030E+03  0.00000000000E+00 0.  1.
         21    1    1    2  502  501 -0.28252524585E+02  0.19390081035E+02  0.11331889051E+02  0.36091440778E+02  0.00000000000E+00 0.  1.
<scales pt_clust_4="550.00000" pt_clust_5="550.00000" pt_clust_6="34.26632"></scales>
<mgrwt>
<rscale>  0 0.30000000E+03</rscale>
<asrwt>  1 0.34266316E+02</asrwt>
<pdfrwt beam="1">  1        1 0.85259740E+00 0.30000000E+03</pdfrwt>
<pdfrwt beam="2">0</pdfrwt>
<totfact> 0.38601661E-04</totfact>
</mgrwt>
<clustering>
<clus scale="   34.266">  1  6  2 -1</clus>
<clus scale="  469.273">  4  5 -1 -1</clus>
<clus scale="  300.000">  1  4  2 -1</clus>
</clustering>
</event>
<event>
 6    1  0.9843879E-012  0.3000000E+03  0.7818608E-02  0.1093470E+00
          1   -1    0    0  502    0  0.00000000000E+00  0.00000000000E+00  0.23639498039E+03  0.23639498039E+03  0.00000000000E+00 0.  1.
         13   -1    0    0    0    0 -0.00000000000E+00 -0.00000000000E+00 -0.27500000000E+03  0.27500000000E+03  0.00000000000E+00 0.  1.
    9000005    2    1    2  501    0 -0.15503998040E+02 -0.39419115501E+02 -0.58627242949E+02  0.46454276540E+03  0.45887752903E+03 0.  0.
         13    1    3    3    0    0 -0.16346478484E+03 -0.59758248510E+02  0.13481632417E+03  0.22015273201E+03  0.00000000000E+00 0.  1.
          1    1    3    3  501    0  0.14796078680E+03  0.20339133009E+02 -0.19344356712E+03  0.24439003339E+03  0.00000000000E+00 0.  1.
         21    1    1    2  502  501  0.15503998040E+02  0.39419115501E+02  0.20022223342E+02  0.46852214992E+02  0.00000000000E+00 0.  1.
<scales pt_clust_4="550.00000" pt_clust_5="550.00000" pt_clust_6="42.35848"></scales>
<mgrwt>
<rscale>  0 0.30000000E+03</rscale>
<asrwt>  1 0.42358478E+02</asrwt>
<pdfrwt beam="1">  1        1 0.85961811E+00 0.30000000E+03</pdfrwt>
<pdfrwt beam="2">0</pdfrwt>
<totfact> 0.31525554E-04</totfact>
</mgrwt>
<clustering>
<clus scale="   42.358">  1  6  2 -1</clus>
<clus scale="  458.878">  4  5 -1 -1</clus>
<clus scale="  300.000">  1  4  2 -1</clus>
</clustering>
</event>
<event>
 6    1  0.9843879E-012  0.3000000E+03  0.7818608E-02  0.1093470E+00
          1   -1    0    0  502    0  0.00000000000E+00  0.00000000000E+00  0.24181168107E+03  0.24181168107E+03  0.00000000000E+00 0.  1.
         13   -1    0    0    0    0 -0.00000000000E+00 -0.00000000000E+00 -0.27500000000E+03  0.27500000000E+03  0.00000000000E+00 0.  1.
    9000005    2    1    2  501    0  0.46686950214E+02 -0.83300686059E+01 -0.11756948850E+02  0.46476972697E+03  0.46219434429E+03 0.  0.
         13    1    3    3    0    0 -0.29603116434E+02 -0.22816633397E+03  0.14841577353E+02  0.23055691896E+03  0.00000000000E+00 0.  1.
          3    1    3    3  501    0  0.76290066648E+02  0.21983626537E+03 -0.26598526203E+02  0.23421280801E+03  0.00000000000E+00 0.  1.
         21    1    1    2  502  501 -0.46686950214E+02  0.83300686059E+01 -0.21431370079E+02  0.52041954102E+02  0.00000000000E+00 0.  1.
<scales pt_clust_4="550.00000" pt_clust_5="550.00000" pt_clust_6="47.42429"></scales>
<mgrwt>
<rscale>  0 0.30000000E+03</rscale>
<asrwt>  1 0.47424293E+02</asrwt>
<pdfrwt beam="1">  1        1 0.87931520E+00 0.30000000E+03</pdfrwt>
<pdfrwt beam="2">0</pdfrwt>
<totfact> 0.19038752E-04</totfact>
</mgrwt>
<clustering>
<clus scale="   47.424">  1  6  2 -1</clus>
<clus scale="  462.194">  4  5 -1 -1</clus>
<clus scale="  300.000">  1  4  2 -1</clus>
</clustering>
</event>
<event>
 6    1  0.9843879E-012  0.3000000E+03  0.7818608E-02  0.1093470E+00
          1   -1    0    0  502    0  0.00000000000E+00  0.00000000000E+00  0.23212639476E+03  0.23212639476E+03  0.00000000000E+00 0.  1.
         13   -1    0    0    0    0 -0.00000000000E+00 -0.00000000000E+00 -0.27500000000E+03  0.27500000000E+03  0.00000000000E+00 0.  1.
    9000005    2    1    2  501    0  0.41585218886E+02 -0.71074101650E+01 -0.54512214248E+02  0.46336222073E+03  0.45820641679E+03 0.  0.
         13    1    3    3    0    0  0.22182458744E+03 -0.52425050187E+02  0.71423187968E+02  0.23886357039E+03  0.00000000000E+00 0.  1.
          3    1    3    3  501    0 -0.18023936855E+03  0.45317640022E+02 -0.12593540222E+03  0.22449865034E+03  0.00000000000E+00 0.  1.
         21    1    1    2  502  501 -0.41585218886E+02  0.71074101650E+01  0.11638609008E+02  0.43764174032E+02  0.00000000000E+00 0. -1.
<scales pt_clust_4="550.00000" pt_clust_5="550.00000" pt_clust_6="42.18822"></scales>
<mgrwt>
<rscale>  0 0.30000000E+03</rscale>
<asrwt>  1 0.42188218E+02</asrwt>
<pdfrwt beam="1">  1        1 0.84409598E+00 0.30000000E+03</pdfrwt>
<pdfrwt beam="2">0</pdfrwt>
<totfact> 0.44452219E-04</totfact>
</mgrwt>
<clustering>
<clus scale="   42.188">  1  6  2 -1</clus>
<clus scale="  458.206">  4  5 -1 -1</clus>
<clus scale="  300.000">  1  4  2 -1</clus>
</clustering>
</event>
<event>
 6    1  0.9843879E-012  0.3000000E+03  0.7818608E-02  0.1093470E+00
          1   -1    0    0  502    0  0.00000000000E+00  0.00000000000E+00  0.22502825169E+03  0.22502825169E+03  0.00000000000E+00 0.  1.
         13   -1    0    0    0    0 -0.00000000000E+00 -0.00000000000E+00 -0.27500000000E+03  0.27500000000E+03  0.00000000000E+00 0.  1.
    9000005    2    1    2  501    0  0.13115984678E+02 -0.27119224910E+02 -0.59283825119E+02  0.46849737494E+03  0.46375396170E+03 0.  0.
         13    1    3    3    0    0  0.20808786445E+03  0.93575395072E+02  0.11689124884E+02  0.22845907628E+03  0.00000000000E+00 0.  1.
          3    1    3    3  501    0 -0.19497187977E+03 -0.12069461998E+03 -0.70972950003E+02  0.24003829867E+03  0.00000000000E+00 0.  1.
         21    1    1    2  502  501 -0.13115984678E+02  0.27119224910E+02  0.93120768068E+01  0.31530876744E+02  0.00000000000E+00 0.  1.
<scales pt_clust_4="550.00000" pt_clust_5="550.00000" pt_clust_6="30.12443"></scales>
<mgrwt>
<rscale>  0 0.30000000E+03</rscale>
<asrwt>  1 0.30124432E+02</asrwt>
<pdfrwt beam="1">  1        1 0.81828455E+00 0.30000000E+03</pdfrwt>
<pdfrwt beam="2">0</pdfrwt>
<totfact> 0.76969402E-04</totfact>
</mgrwt>
<clustering>
<clus scale="   30.124">  1  6  2 -1</clus>
<clus scale="  463.754">  4  5 -1 -1</clus>
<clus scale="  300.000">  1  4  2 -1</clus>
</clustering>
</event>
<event>
 6    1  0.9843879E-012  0.3000000E+03  0.7818608E-02  0.1093470E+00
          1   -1    0    0  502    0  0.00000000000E+00  0.00000000000E+00  0.24548772390E+03  0.24548772390E+03  0.00000000000E+00 0.  1.
         13   -1    0    0    0    0 -0.00000000000E+00 -0.00000000000E+00 -0.27500000000E+03  0.27500000000E+03  0.00000000000E+00 0.  1.
    9000005    2    1    2  501    0 -0.13451769327E+02  0.32010551331E+02 -0.28466728272E+02  0.48574986754E+03  0.48367029442E+03 0.  0.
         13    1    3    3    0    0 -0.20685015290E+03  0.11643701576E+03  0.77385962082E+02  0.24966608004E+03  0.00000000000E+00 0.  1.
          1    1    3    3  501    0  0.19339838358E+03 -0.84426464428E+02 -0.10585269035E+03  0.23608378750E+03  0.00000000000E+00 0.  1.
         21    1    1    2  502  501  0.13451769327E+02 -0.32010551331E+02 -0.10455478246E+01  0.34737856365E+02  0.00000000000E+00 0. -1.
<scales pt_clust_4="550.00000" pt_clust_5="550.00000" pt_clust_6="34.72212"></scales>
<mgrwt>
<rscale>  0 0.30000000E+03</rscale>
<asrwt>  1 0.34722118E+02</asrwt>
<pdfrwt beam="1">  1        1 0.89268263E+00 0.30000000E+03</pdfrwt>
<pdfrwt beam="2">0</pdfrwt>
<totfact> 0.13428236E-04</totfact>
</mgrwt>
<clustering>
<clus scale="   34.722">  1  6  2 -1</clus>
<clus scale="  483.670">  4  5 -1 -1</clus>
<clus scale="  300.000">  1  4  2 -1</clus>
</clustering>
</event>
<event>
 6    1  0.9843879E-012  0.3000000E+03  0.7818608E-02  0.1093470E+00
          1   -1    0    0  502    0  0.00000000000E+00  0.00000000000E+00  0.21758607815E+03  0.21758607815E+03  0.00000000000E+00 0.  1.
         13   -1    0    0    0    0 -0.00000000000E+00 -0.00000000000E+00 -0.27500000000E+03  0.27500000000E+03  0.00000000000E+00 0.  1.
    9000005    2    1    2  501    0  0.58018286197E+01  0.30831572955E+02 -0.54797216308E+02  0.46110442867E+03  0.45676067269E+03 0.  0.
         13    1    3    3    0    0  0.48747871480E+02 -0.20752480421E+03 -0.49534604916E+02  0.21885286477E+03  0.00000000000E+00 0.  1.
          1    1    3    3  501    0 -0.42946042860E+02  0.23835637716E+03 -0.52626113917E+01  0.24225156390E+03  0.00000000000E+00 0.  1.
         21    1    1    2  502  501 -0.58018286197E+01 -0.30831572955E+02 -0.26167055397E+01  0.31481649481E+02  0.00000000000E+00 0. -1.
<scales pt_clust_4="550.00000" pt_clust_5="550.00000" pt_clust_6="31.37271"></scales>
<mgrwt>
<rscale>  0 0.30000000E+03</rscale>
<asrwt>  1 0.31372713E+02</asrwt>
<pdfrwt beam="1">  1        1 0.79122210E+00 0.30000000E+03</pdfrwt>
<pdfrwt beam="2">0</pdfrwt>
<totfact> 0.12312425E-03</totfact>
</mgrwt>
<clustering>
<clus scale="   31.373">  1  6  2 -1</clus>
<clus scale="  456.761">  4  5 -1 -1</clus>
<clus scale="  300.000">  1  4  2 -1</clus>
</clustering>
</event>
<event>
 6    1  0.9843879E-012  0.3000000E+03  0.7818608E-02  0.1093470E+00
          1   -1    0    0  502    0  0.00000000000E+00  0.00000000000E+00  0.23738827697E+03  0.23738827697E+03  0.00000000000E+00 0.  1.
         13   -1    0    0    0    0 -0.00000000000E+00 -0.00000000000E+00 -0.27500000000E+03  0.27500000000E+03  0.00000000000E+00 0.  1.
    9000005    2    1    2  501    0 -0.14881710492E+02  0.30693741435E+02 -0.30382840323E+02  0.47751955437E+03  0.47532960853E+03 0.  0.
         13    1    3    3    0    0  0.11859100045E+02  0.57087596265E+01  0.22205400428E+03  0.22244372099E+03  0.00000000000E+00 0.  1.
          1    1    3    3  501    0 -0.26740810537E+02  0.24984981808E+02 -0.25243684460E+03  0.25507583338E+03  0.00000000000E+00 0.  1.
         21    1    1    2  502  501  0.14881710492E+02 -0.30693741435E+02 -0.72288827109E+01  0.34868722599E+02  0.00000000000E+00 0. -1.
<scales pt_clust_4="550.00000" pt_clust_5="550.00000" pt_clust_6="34.11117"></scales>
<mgrwt>
<rscale>  0 0.30000000E+03</rscale>
<asrwt>  1 0.34111175E+02</asrwt>
<pdfrwt beam="1">  1        1 0.86323010E+00 0.30000000E+03</pdfrwt>
<pdfrwt beam="2">0</pdfrwt>
<totfact> 0.30000231E-04</totfact>
</mgrwt>
<clustering>
<clus scale="   34.111">  1  6  2 -1</clus>
<clus scale="  475.330">  4  5 -1 -1</clus>
<clus scale="  300.000">  1  4  2 -1</clus>
</clustering>
</event>
<event>
 6    1  0.9843879E-012  0.3000000E+03  0.7818608E-02  0.1093470E+00
          1   -1    0    0  502    0  0.00000000000E+00  0.00000000000E+00  0.22795947565E+03  0.22795947565E+03  0.00000000000E+00 0.  1.
         13   -1    0    0    0    0 -0.00000000000E+00 -0.00000000000E+00 -0.27500000000E+03  0.27500000000E+03  0.00000000000E+00 0.  1.
    9000005    2    1    2  501    0  0.17727689507E+02 -0.26894557077E+02 -0.57198151511E+02  0.46918425448E+03  0.46456931446E+03 0.  0.
         13    1    3    3    0    0 -0.13975045109E+03  0.16152641397E+03 -0.65717976636E+02  0.22347219837E+03  0.00000000000E+00 0.  1.
          3    1    3    3  501    0  0.15747814060E+03 -0.18842097104E+03  0.85198251245E+01  0.24571205611E+03  0.00000000000E+00 0.  1.
         21    1    1    2  502  501 -0.17727689507E+02  0.26894557077E+02  0.10157627157E+02  0.33775221171E+02  0.00000000000E+00 0.  1.
<scales pt_clust_4="550.00000" pt_clust_5="550.00000" pt_clust_6="32.21162"></scales>
<mgrwt>
<rscale>  0 0.30000000E+03</rscale>
<asrwt>  1 0.32211616E+02</asrwt>
<pdfrwt beam="1">  1        1 0.82894355E+00 0.30000000E+03</pdfrwt>
<pdfrwt beam="2">0</pdfrwt>
<totfact> 0.61270269E-04</totfact>
</mgrwt>
<clustering>
<clus scale="   32.212">  1  6  2 -1</clus>
<clus scale="  464.569">  4  5 -1 -1</clus>
<clus scale="  300.000">  1  4  2 -1</clus>
</clustering>
</event>
<event>
 6    1  0.9843879E-012  0.3000000E+03  0.7818608E-02  0.1093470E+00
          1   -1    0    0  502    0  0.00000000000E+00  0.00000000000E+00  0.23476978825E+03  0.23476978825E+03  0.00000000000E+00 0.  1.
         13   -1    0    0    0    0 -0.00000000000E+00 -0.00000000000E+00 -0.27500000000E+03  0.27500000000E+03  0.00000000000E+00 0.  1.
    9000005    2    1    2  501    0 -0.87662288739E+00  0.38606774609E+02 -0.58188283512E+02  0.46718171651E+03  0.46193249332E+03 0.  0.
         13    1    3    3    0    0 -0.13132363580E+03  0.10387318838E+03  0.14196253109E+03  0.21951969574E+03  0.00000000000E+00 0.  1.
          3    1    3    3  501    0  0.13044701291E+03 -0.65266413773E+02 -0.20015081460E+03  0.24766202077E+03  0.00000000000E+00 0.  1.
         21    1    1    2  502  501  0.87662288739E+00 -0.38606774609E+02  0.17958071766E+02  0.42588071745E+02  0.00000000000E+00 0.  1.
<scales pt_clust_4="550.00000" pt_clust_5="550.00000" pt_clust_6="38.61673"></scales>
<mgrwt>
<rscale>  0 0.30000000E+03</rscale>
<asrwt>  1 0.38616726E+02</asrwt>
<pdfrwt beam="1">  1        1 0.85370832E+00 0.30000000E+03</pdfrwt>
<pdfrwt beam="2">0</pdfrwt>
<totfact> 0.36832478E-04</totfact>
</mgrwt>
<clustering>
<clus scale="   38.617">  1  6  2 -1</clus>
<clus scale="  461.932">  4  5 -1 -1</clus>
<clus scale="  300.000">  1  4  2 -1</clus>
</clustering>
</event>
<event>
 6    1  0.9843879E-012  0.3000000E+03  0.7818608E-02  0.1093470E+00
          1   -1    0    0  502    0  0.00000000000E+00  0.00000000000E+00  0.23103316108E+03  0.23103316108E+03  0.00000000000E+00 0.  1.
         13   -1    0    0    0    0 -0.00000000000E+00 -0.00000000000E+00 -0.27500000000E+03  0.27500000000E+03  0.00000000000E+00 0.  1.
    9000005    2    1    2  501    0  0.20570758336E+02 -0.23830835639E+02 -0.72498928123E+02  0.46354616378E+03  0.45675801750E+03 0.  0.
         13    1    3    3    0    0  0.10587150952E+03 -0.19694375693E+03  0.57482052032E+02  0.23086750796E+03  0.00000000000E+00 0.  1.
          1    1    3    3  501    0 -0.85300751187E+02  0.17311292129E+03 -0.12998098015E+03  0.23267865582E+03  0.00000000000E+00 0.  1.
         21    1    1    2  502  501 -0.20570758336E+02  0.23830835639E+02  0.28532089205E+02  0.42486997307E+02  0.00000000000E+00 0.  1.
<scales pt_clust_4="550.00000" pt_clust_5="550.00000" pt_clust_6="31.48118"></scales>
<mgrwt>
<rscale>  0 0.30000000E+03</rscale>
<asrwt>  1 0.31481182E+02</asrwt>
<pdfrwt beam="1">  1        1 0.84012059E+00 0.30000000E+03</pdfrwt>
<pdfrwt beam="2">0</pdfrwt>
<totfact> 0.50600935E-04</totfact>
</mgrwt>
<clustering>
<clus scale="   31.481">  1  6  2 -1</clus>
<clus scale="  456.758">  4  5 -1 -1</clus>
<clus scale="  300.000">  1  4  2 -1</clus>
</clustering>
</event>
<event>
 6    1  0.9843879E-012  0.3000000E+03  0.7818608E-02  0.1093470E+00
          1   -1    0    0  502    0  0.00000000000E+00  0.00000000000E+00  0.24683242170E+03  0.24683242170E+03  0.00000000000E+00 0.  1.
         13   -1    0    0    0    0 -0.00000000000E+00 -0.00000000000E+00 -0.27500000000E+03  0.27500000000E+03  0.00000000000E+00 0.  1.
    9000005    2    1    2  501    0  0.65833561350E+01 -0.33034840693E+02 -0.75762050541E+02  0.46352397407E+03  0.45604818271E+03 0.  0.
         13    1    3    3    0    0 -0.67950832196E+02  0.19790883669E+03 -0.70457036119E+02  0.22079270181E+03  0.00000000000E+00 0.  1.
          1    1    3    3  501    0  0.74534188331E+02 -0.23094367738E+03 -0.53050144219E+01  0.24273127225E+03  0.00000000000E+00 0.  1.
         21    1    1    2  502  501 -0.65833561350E+01  0.33034840693E+02  0.47594472240E+02  0.58308447633E+02  0.00000000000E+00 0. -1.
<scales pt_clust_4="550.00000" pt_clust_5="550.00000" pt_clust_6="33.68444"></scales>
<mgrwt>
<rscale>  0 0.30000000E+03</rscale>
<asrwt>  1 0.33684437E+02</asrwt>
<pdfrwt beam="1">  1        1 0.89757244E+00 0.30000000E+03</pdfrwt>
<pdfrwt beam="2">0</pdfrwt>
<totfact> 0.11885648E-04</totfact>
</mgrwt>
<clustering>
<clus scale="   33.684">  1  6  2 -1</clus>
<clus scale="  456.048">  4  5 -1 -1</clus>
<clus scale="  300.000">  1  4  2 -1</clus>
</clustering>
</event>
<event>
 6    1  0.9843879E-012  0.3000000E+03  0.7818608E-02  0.1093470E+00
          1   -1    0    0  502    0  0.00000000000E+00  0.00000000000E+00  0.23489611747E+03  0.23489611747E+03  0.00000000000E+00 0.  1.
         13   -1    0    0    0    0 -0.00000000000E+00 -0.00000000000E+00 -0.27500000000E+03  0.27500000000E+03  0.00000000000E+00 0.  1.
    9000005    2    1    2  501    0  0.70020869362E+00  0.38012860746E+02 -0.20263553506E+02  0.46701131212E+03  0.46501987718E+03 0.  0.
         13    1    3    3    0    0 -0.12733205394E+03  0.20829438067E+03 -0.57314662018E+02  0.25076876094E+03  0.00000000000E+00 0.  1.
          3    1    3    3  501    0  0.12803226263E+03 -0.17028151992E+03  0.37051108512E+02  0.21624255119E+03  0.00000000000E+00 0.  1.
         21    1    1    2  502  501 -0.70020869362E+00 -0.38012860746E+02 -0.19840329020E+02  0.42884805351E+02  0.00000000000E+00 0.  1.
<scales pt_clust_4="550.00000" pt_clust_5="550.00000" pt_clust_6="38.01933"></scales>
<mgrwt>
<rscale>  0 0.30000000E+03</rscale>
<asrwt>  1 0.38019328E+02</asrwt>
<pdfrwt beam="1">  1        1 0.85416770E+00 0.30000000E+03</pdfrwt>
<pdfrwt beam="2">0</pdfrwt>
<totfact> 0.36560603E-04</totfact>
</mgrwt>
<clustering>
<clus scale="   38.019">  1  6  2 -1</clus>
<clus scale="  465.020">  4  5 -1 -1</clus>
<clus scale="  300.000">  1  4  2 -1</clus>
</clustering>
</event>
<event>
 6    1  0.9843879E-012  0.3000000E+03  0.7818608E-02  0.1093470E+00
          1   -1    0    0  502    0  0.00000000000E+00  0.00000000000E+00  0.24209102515E+03  0.24209102515E+03  0.00000000000E+00 0.  1.
         13   -1    0    0    0    0 -0.00000000000E+00 -0.00000000000E+00 -0.27500000000E+03  0.27500000000E+03  0.00000000000E+00 0.  1.
    9000005    2    1    2  501    0  0.31624636606E+02  0.22061004258E+02 -0.44909886050E+02  0.47670752086E+03  0.47301834745E+03 0.  0.
         13    1    3    3    0    0 -0.32730387906E+02 -0.20307089094E+03 -0.11056902772E+03  0.23352639022E+03  0.00000000000E+00 0.  1.
          1    1    3    3  501    0  0.64355024512E+02  0.22513189519E+03  0.65659141669E+02  0.24318113064E+03  0.00000000000E+00 0.  1.
         21    1    1    2  502  501 -0.31624636606E+02 -0.22061004258E+02  0.12000911198E+02  0.40383504292E+02  0.00000000000E+00 0.  1.
<scales pt_clust_4="550.00000" pt_clust_5="550.00000" pt_clust_6="38.55912"></scales>
<mgrwt>
<rscale>  0 0.30000000E+03</rscale>
<asrwt>  1 0.38559118E+02</asrwt>
<pdfrwt beam="1">  1        1 0.88033100E+00 0.30000000E+03</pdfrwt>
<pdfrwt beam="2">0</pdfrwt>
<totfact> 0.19204324E-04</totfact>
</mgrwt>
<clustering>
<clus scale="   38.559">  1  6  2 -1</clus>
<clus scale="  473.018">  4  5 -1 -1</clus>
<clus scale="  300.000">  1  4  2 -1</clus>
</clustering>
</event>
<event>
 6    1  0.9843879E-012  0.3000000E+03  0.7818608E-02  0.1093470E+00
          1   -1    0    0  502    0  0.00000000000E+00  0.00000000000E+00  0.23345642685E+03  0.23345642685E+03  0.00000000000E+00 0.  1.
         13   -1    0    0    0    0 -0.00000000000E+00 -0.00000000000E+00 -0.27500000000E+03  0.27500000000E+03  0.00000000000E+00 0.  1.
    9000005    2    1    2  501    0  0.28704403742E+02 -0.29815743684E+02 -0.52529463619E+02  0.46563574079E+03  0.46080839531E+03 0.  0.
         13    1    3    3    0    0  0.72680210598E+02  0.39539497569E+02 -0.24381268452E+03  0.25746924090E+03  0.00000000000E+00 0.  1.
          3    1    3    3  501    0 -0.43975806856E+02 -0.69355241253E+02  0.19128322090E+03  0.20816649989E+03  0.00000000000E+00 0.  1.
         21    1    1    2  502  501 -0.28704403742E+02  0.29815743684E+02  0.10985890473E+02  0.42820686065E+02  0.00000000000E+00 0. -1.
<scales pt_clust_4="550.00000" pt_clust_5="550.00000" pt_clust_6="41.38745"></scales>
<mgrwt>
<rscale>  0 0.30000000E+03</rscale>
<asrwt>  1 0.41387454E+02</asrwt>
<pdfrwt beam="1">  1        1 0.84893246E+00 0.30000000E+03</pdfrwt>
<pdfrwt beam="2">0</pdfrwt>
<totfact> 0.40376307E-04</totfact>
</mgrwt>
<clustering>
<clus scale="   41.387">  1  6  2 -1</clus>
<clus scale="  460.808">  4  5 -1 -1</clus>
<clus scale="  300.000">  1  4  2 -1</clus>
</clustering>
</event>
<event>
 6    1  0.9843879E-012  0.3000000E+03  0.7818608E-02  0.1093470E+00
          1   -1    0    0  502    0  0.00000000000E+00  0.00000000000E+00  0.23162847384E+03  0.23162847384E+03  0.00000000000E+00 0.  1.
         13   -1    0    0    0    0 -0.00000000000E+00 -0.00000000000E+00 -0.27500000000E+03  0.27500000000E+03  0.00000000000E+00 0.  1.
    9000005    2    1    2  501    0 -0.27456401865E+02  0.19096103671E+02 -0.37681630965E+02  0.47270370286E+03  0.47001103200E+03 0.  0.
         13    1    3    3    0    0  0.46832279527E+02 -0.16010122194E+03  0.13375996339E+03  0.21381625634E+03  0.00000000000E+00 0.  1.
          1    1    3    3  501    0 -0.74288681393E+02  0.17919732561E+03 -0.17144159435E+03  0.25888744651E+03  0.00000000000E+00 0.  1.
         21    1    1    2  502  501  0.27456401865E+02 -0.19096103671E+02 -0.56898951971E+01  0.33924770981E+02  0.00000000000E+00 0. -1.
<scales pt_clust_4="550.00000" pt_clust_5="550.00000" pt_clust_6="33.44423"></scales>
<mgrwt>
<rscale>  0 0.30000000E+03</rscale>
<asrwt>  1 0.33444227E+02</asrwt>
<pdfrwt beam="1">  1        1 0.84228536E+00 0.30000000E+03</pdfrwt>
<pdfrwt beam="2">0</pdfrwt>
<totfact> 0.48065061E-04</totfact>
</mgrwt>
<clustering>
<clus scale="   33.444">  1  6  2 -1</clus>
<clus scale="  470.011">  4  5 -1 -1</clus>
<clus scale="  300.000">  1  4  2 -1</clus>
</clustering>
</event>
<event>
 6    1  0.9843879E-012  0.3000000E+03  0.7818608E-02  0.1093470E+00
          1   -1    0    0  502    0  0.00000000000E+00  0.00000000000E+00  0.22266351643E+03  0.22266351643E+03  0.00000000000E+00 0.  1.
         13   -1    0    0    0    0 -0.00000000000E+00 -0.00000000000E+00 -0.27500000000E+03  0.27500000000E+03  0.00000000000E+00 0.  1.
    9000005    2    1    2  501    0  0.24215561048E+02 -0.27131529682E+02 -0.50092155672E+02  0.46122795265E+03  0.45705523402E+03 0.  0.
         13    1    3    3    0    0 -0.62532242950E+01 -0.20440827065E+03  0.99362286018E+02  0.22736470220E+03  0.00000000000E+00 0.  1.
          3    1    3    3  501    0  0.30468785343E+02  0.17727674097E+03 -0.14945444169E+03  0.23386325045E+03  0.00000000000E+00 0.  1.
         21    1    1    2  502  501 -0.24215561048E+02  0.27131529682E+02 -0.22443279024E+01  0.36435563773E+02  0.00000000000E+00 0. -1.
<scales pt_clust_4="550.00000" pt_clust_5="550.00000" pt_clust_6="36.36638"></scales>
<mgrwt>
<rscale>  0 0.30000000E+03</rscale>
<asrwt>  1 0.36366376E+02</asrwt>
<pdfrwt beam="1">  1        1 0.80968551E+00 0.30000000E+03</pdfrwt>
<pdfrwt beam="2">0</pdfrwt>
<totfact> 0.87084182E-04</totfact>
</mgrwt>
<clustering>
<clus scale="   36.366">  1  6  2 -1</clus>
<clus scale="  457.055">  4  5 -1 -1</clus>
<clus scale="  300.000">  1  4  2 -1</clus>
</clustering>
</event>
<event>
 6    1  0.9843879E-012  0.3000000E+03  0.7818608E-02  0.1093470E+00
          1   -1    0    0  502    0  0.00000000000E+00  0.00000000000E+00  0.23606018932E+03  0.23606018932E+03  0.00000000000E+00 0.  1.
         13   -1    0    0    0    0 -0.00000000000E+00 -0.00000000000E+00 -0.27500000000E+03  0.27500000000E+03  0.00000000000E+00 0.  1.
    9000005    2    1    2  501    0  0.40186090267E+02 -0.43277636517E+01 -0.49876988087E+02  0.46918808358E+03  0.46477531394E+03 0.  0.
         13    1    3    3    0    0  0.58431153410E+02 -0.14268513355E+03  0.15673442201E+03  0.21986115179E+03  0.00000000000E+00 0.  1.
          1    1    3    3  501    0 -0.18245063143E+02  0.13835736990E+03 -0.20661141009E+03  0.24932693179E+03  0.00000000000E+00 0.  1.
         21    1    1    2  502  501 -0.40186090267E+02  0.43277636517E+01  0.10937177402E+02  0.41872105735E+02  0.00000000000E+00 0.  1.
<scales pt_clust_4="550.00000" pt_clust_5="550.00000" pt_clust_6="40.41845"></scales>
<mgrwt>
<rscale>  0 0.30000000E+03</rscale>
<asrwt>  1 0.40418454E+02</asrwt>
<pdfrwt beam="1">  1        1 0.85840069E+00 0.30000000E+03</pdfrwt>
<pdfrwt beam="2">0</pdfrwt>
<totfact> 0.32750055E-04</totfact>
</mgrwt>
<clustering>
<clus scale="   40.418">  1  6  2 -1</clus>
<clus scale="  464.775">  4  5 -1 -1</clus>
<clus scale="  300.000">  1  4  2 -1</clus>
</clustering>
</event>
<event>
 6    1  0.9843879E-012  0.3000000E+03  0.7818608E-02  0.1093470E+00
          1   -1    0    0  502    0  0.00000000000E+00  0.00000000000E+00  0.22112186624E+03  0.22112186624E+03  0.00000000000E+00 0.  1.
         13   -1    0    0    0    0 -0.00000000000E+00 -0.00000000000E+00 -0.27500000000E+03  0.27500000000E+03  0.00000000000E+00 0.  1.
    9000005    2    1    2  501    0 -0.18676254026E+02 -0.27637540762E+02 -0.56814997701E+02  0.46263662631E+03  0.45792146479E+03 0.  0.
         13    1    3    3    0    0  0.57973900754E+02 -0.23274458473E+03 -0.21114298986E+02  0.24078377958E+03  0.00000000000E+00 0.  1.
          1    1    3    3  501    0 -0.76650154780E+02  0.20510704396E+03 -0.35700698715E+02  0.22185284673E+03  0.00000000000E+00 0.  1.
         21    1    1    2  502  501  0.18676254026E+02  0.27637540762E+02  0.29368639448E+01  0.33485239937E+02  0.00000000000E+00 0.  1.
<scales pt_clust_4="550.00000" pt_clust_5="550.00000" pt_clust_6="33.35620"></scales>
<mgrwt>
<rscale>  0 0.30000000E+03</rscale>
<asrwt>  1 0.33356201E+02</asrwt>
<pdfrwt beam="1">  1        1 0.80407951E+00 0.30000000E+03</pdfrwt>
<pdfrwt beam="2">0</pdfrwt>
<totfact> 0.97702306E-04</totfact>
</mgrwt>
<clustering>
<clus scale="   33.356">  1  6  2 -1</clus>
<clus scale="  457.921">  4  5 -1 -1</clus>
<clus scale="  300.000">  1  4  2 -1</clus>
</clustering>
</event>
<event>
 6    1  0.9843879E-012  0.3000000E+03  0.7818608E-02  0.1093470E+00
          1   -1    0    0  502    0  0.00000000000E+00  0.00000000000E+00  0.23500815420E+03  0.23500815420E+03  0.00000000000E+00 0.  1.
         13   -1    0    0    0    0 -0.00000000000E+00 -0.00000000000E+00 -0.27500000000E+03  0.27500000000E+03  0.00000000000E+00 0.  1.
    9000005    2    1    2  501    0  0.14111721220E+02  0.29196277102E+02 -0.62513580120E+02  0.47052661688E+03  0.46522659664E+03 0.  0.
         13    1    3    3    0    0  0.55718607809E+02  0.23528018555E+03  0.24424966899E+02  0.24301832848E+03  0.00000000000E+00 0.  1.
          3    1    3    3  501    0 -0.41606886589E+02 -0.20608390845E+03 -0.86938547019E+02  0.22750828840E+03  0.00000000000E+00 0.  1.
         21    1    1    2  502  501 -0.14111721220E+02 -0.29196277102E+02  0.22521734317E+02  0.39481537319E+02  0.00000000000E+00 0. -1.
<scales pt_clust_4="550.00000" pt_clust_5="550.00000" pt_clust_6="32.42782"></scales>
<mgrwt>
<rscale>  0 0.30000000E+03</rscale>
<asrwt>  1 0.32427816E+02</asrwt>
<pdfrwt beam="1">  1        1 0.85457511E+00 0.30000000E+03</pdfrwt>
<pdfrwt beam="2">0</pdfrwt>
<totfact> 0.37319991E-04</totfact>
</mgrwt>
<clustering>
<clus scale="   32.428">  1  6  2 -1</clus>
<clus scale="  465.227">  4  5 -1 -1</clus>
<clus scale="  300.000">  1  4  2 -1</clus>
</clustering>
</event>
<event>
 6    1  0.9843879E-012  0.3000000E+03  0.7818608E-02  0.1093470E+00
          1   -1    0    0  502    0  0.00000000000E+00  0.00000000000E+00  0.24152148042E+03  0.24152148042E+03  0.00000000000E+00 0.  1.
         13   -1    0    0    0    0 -0.00000000000E+00 -0.00000000000E+00 -0.27500000000E+03  0.27500000000E+03  0.00000000000E+00 0.  1.
    9000005    2    1    2  501    0  0.12675657216E+02  0.31085285425E+02 -0.31034233021E+02  0.48286227970E+03  0.48069313526E+03 0.  0.
         13    1    3    3    0    0  0.58773579073E+02 -0.24637631604E+02  0.21613278526E+03  0.22533248180E+03  0.00000000000E+00 0.  1.
          3    1    3    3  501    0 -0.46097921857E+02  0.55722917030E+02 -0.24716701828E+03  0.25752979791E+03  0.00000000000E+00 0.  1.
         21    1    1    2  502  501 -0.12675657216E+02 -0.31085285425E+02 -0.24442865609E+01  0.33659200713E+02  0.00000000000E+00 0. -1.
<scales pt_clust_4="550.00000" pt_clust_5="550.00000" pt_clust_6="33.57035"></scales>
<mgrwt>
<rscale>  0 0.30000000E+03</rscale>
<asrwt>  1 0.33570350E+02</asrwt>
<pdfrwt beam="1">  1        1 0.87825993E+00 0.30000000E+03</pdfrwt>
<pdfrwt beam="2">0</pdfrwt>
<totfact> 0.20869487E-04</totfact>
</mgrwt>
<clustering>
<clus scale="   33.570">  1  6  2 -1</clus>
<clus scale="  480.693">  4  5 -1 -1</clus>
<clus scale="  300.000">  1  4  2 -1</clus>
</clustering>
</event>
<event>
 6    1  0.9843879E-012  0.3000000E+03  0.7818608E-02  0.1093470E+00
          1   -1    0    0  502    0  0.00000000000E+00  0.00000000000E+00  0.22808938974E+03  0.22808938974E+03  0.00000000000E+00 0.  1.
         13   -1    0    0    0    0 -0.00000000000E+00 -0.00000000000E+00 -0.27500000000E+03  0.27500000000E+03  0.00000000000E+00 0.  1.
    9000005    2    1    2  501    0 -0.31892513286E+02 -0.93006011427E+00 -0.58186311767E+02  0.46924948933E+03  0.46453357138E+03 0.  0.
         13    1    3    3    0    0 -0.16246901643E+03 -0.62673289799E+02  0.14040214735E+03  0.22368926111E+03  0.00000000000E+00 0.  1.
          1    1    3    3  501    0  0.13057650315E+03  0.61743229684E+02 -0.19858845912E+03  0.24556022822E+03  0.00000000000E+00 0.  1.
         21    1    1    2  502  501  0.31892513286E+02  0.93006011427E+00  0.11275701505E+02  0.33839900413E+02  0.00000000000E+00 0.  1.
<scales pt_clust_4="550.00000" pt_clust_5="550.00000" pt_clust_6="31.90607"></scales>
<mgrwt>
<rscale>  0 0.30000000E+03</rscale>
<asrwt>  1 0.31906072E+02</asrwt>
<pdfrwt beam="1">  1        1 0.82941596E+00 0.30000000E+03</pdfrwt>
<pdfrwt beam="2">0</pdfrwt>
<totfact> 0.60819658E-04</totfact>
</mgrwt>
<clustering>
<clus scale="   31.906">  1  6  2 -1</clus>
<clus scale="  464.534">  4  5 -1 -1</clus>
<clus scale="  300.000">  1  4  2 -1</clus>
</clustering>
</event>
<event>
 6    1  0.9843879E-012  0.3000000E+03  0.7818608E-02  0.1093470E+00
          1   -1    0    0  502    0  0.00000000000E+00  0.00000000000E+00  0.24066645657E+03  0.24066645657E+03  0.00000000000E+00 0.  1.
         13   -1    0    0    0    0 -0.00000000000E+00 -0.00000000000E+00 -0.27500000000E+03  0.27500000000E+03  0.00000000000E+00 0.  1.
    9000005    2    1    2  501    0  0.49941062660E+01  0.43051096030E+02 -0.55722813074E+02  0.46733594010E+03  0.46197349604E+03 0.  0.
         13    1    3    3    0    0 -0.12312226663E+03  0.21443124608E+03 -0.55245330232E+02  0.25336120134E+03  0.00000000000E+00 0.  1.
          3    1    3    3  501    0  0.12811637290E+03 -0.17138015005E+03 -0.47748284233E+00  0.21397473875E+03  0.00000000000E+00 0.  1.
         21    1    1    2  502  501 -0.49941062660E+01 -0.43051096030E+02  0.21389269647E+02  0.48330516476E+02  0.00000000000E+00 0.  1.
<scales pt_clust_4="550.00000" pt_clust_5="550.00000" pt_clust_6="43.33980"></scales>
<mgrwt>
<rscale>  0 0.30000000E+03</rscale>
<asrwt>  1 0.43339797E+02</asrwt>
<pdfrwt beam="1">  1        1 0.87515075E+00 0.30000000E+03</pdfrwt>
<pdfrwt beam="2">0</pdfrwt>
<totfact> 0.21548768E-04</totfact>
</mgrwt>
<clustering>
<clus scale="   43.340">  1  6  2 -1</clus>
<clus scale="  461.973">  4  5 -1 -1</clus>
<clus scale="  300.000">  1  4  2 -1</clus>
</clustering>
</event>
<event>
 6    1  0.9843879E-012  0.3000000E+03  0.7818608E-02  0.1093470E+00
          1   -1    0    0  502    0  0.00000000000E+00  0.00000000000E+00  0.23816346325E+03  0.23816346325E+03  0.00000000000E+00 0.  1.
         13   -1    0    0    0    0 -0.00000000000E+00 -0.00000000000E+00 -0.27500000000E+03  0.27500000000E+03  0.00000000000E+00 0.  1.
    9000005    2    1    2  501    0 -0.31574211448E+02 -0.38973291077E+01 -0.68408369788E+02  0.46834270194E+03  0.46222620155E+03 0.  0.
         13    1    3    3    0    0 -0.20229672587E+03  0.12641083585E+03  0.12414711734E+02  0.23886772445E+03  0.00000000000E+00 0.  1.
          3    1    3    3  501    0  0.17072251442E+03 -0.13030816496E+03 -0.80823081521E+02  0.22947497749E+03  0.00000000000E+00 0.  1.
         21    1    1    2  502  501  0.31574211448E+02  0.38973291077E+01  0.31571833033E+02  0.44820761303E+02  0.00000000000E+00 0. -1.
<scales pt_clust_4="550.00000" pt_clust_5="550.00000" pt_clust_6="31.81383"></scales>
<mgrwt>
<rscale>  0 0.30000000E+03</rscale>
<asrwt>  1 0.31813834E+02</asrwt>
<pdfrwt beam="1">  1        1 0.86604896E+00 0.30000000E+03</pdfrwt>
<pdfrwt beam="2">0</pdfrwt>
<totfact> 0.28346113E-04</totfact>
</mgrwt>
<clustering>
<clus scale="   31.814">  1  6  2 -1</clus>
<clus scale="  462.226">  4  5 -1 -1</clus>
<clus scale="  300.000">  1  4  2 -1</clus>
</clustering>
</event>
<event>
 6    1  0.9843879E-012  0.3000000E+03  0.7818608E-02  0.1093470E+00
          1   -1    0    0  502    0  0.00000000000E+00  0.00000000000E+00  0.22890935367E+03  0.22890935367E+03  0.00000000000E+00 0.  1.
         13   -1    0    0    0    0 -0.00000000000E+00 -0.00000000000E+00 -0.27500000000E+03  0.27500000000E+03  0.00000000000E+00 0.  1.
    9000005    2    1    2  501    0  0.10511505533E+02 -0.31622013601E+02 -0.53041013868E+02  0.46986892034E+03  0.46567478958E+03 0.  0.
         13    1    3    3    0    0 -0.84137374674E+02 -0.18654574414E+03 -0.15945609853E+03  0.25943141643E+03  0.00000000000E+00 0.  1.
          3    1    3    3  501    0  0.94648880206E+02  0.15492373054E+03  0.10641508466E+03  0.21043750391E+03  0.00000000000E+00 0.  1.
         21    1    1    2  502  501 -0.10511505533E+02  0.31622013601E+02  0.69503675395E+01  0.34040433336E+02  0.00000000000E+00 0. -1.
<scales pt_clust_4="550.00000" pt_clust_5="550.00000" pt_clust_6="33.32332"></scales>
<mgrwt>
<rscale>  0 0.30000000E+03</rscale>
<asrwt>  1 0.33323318E+02</asrwt>
<pdfrwt beam="1">  1        1 0.83239765E+00 0.30000000E+03</pdfrwt>
<pdfrwt beam="2">0</pdfrwt>
<totfact> 0.57092697E-04</totfact>
</mgrwt>
<clustering>
<clus scale="   33.323">  1  6  2 -1</clus>
<clus scale="  465.675">  4  5 -1 -1</clus>
<clus scale="  300.000">  1  4  2 -1</clus>
</clustering>
</event>
<event>
 6    1  0.9843879E-012  0.3000000E+03  0.7818608E-02  0.1093470E+00
          1   -1    0    0  502    0  0.00000000000E+00  0.00000000000E+00  0.23698637324E+03  0.23698637324E+03  0.00000000000E+00 0.  1.
         13   -1    0    0    0    0 -0.00000000000E+00 -0.00000000000E+00 -0.27500000000E+03  0.27500000000E+03  0.00000000000E+00 0.  1.
    9000005    2    1    2  501    0 -0.46180978201E+01 -0.35041184006E+02 -0.50933222636E+02  0.47435490553E+03  0.47028626583E+03 0.  0.
         13    1    3    3    0    0  0.22090422820E+03 -0.62161373352E+02 -0.84894380494E+02  0.24468299944E+03  0.00000000000E+00 0.  1.
          3    1    3    3  501    0 -0.22552232602E+03  0.27120189345E+02  0.33961157858E+02  0.22967190609E+03  0.00000000000E+00 0.  1.
         21    1    1    2  502  501  0.46180978201E+01  0.35041184006E+02  0.12919595875E+02  0.37631467705E+02  0.00000000000E+00 0.  1.
<scales pt_clust_4="550.00000" pt_clust_5="550.00000" pt_clust_6="35.34418"></scales>
<mgrwt>
<rscale>  0 0.30000000E+03</rscale>
<asrwt>  1 0.35344185E+02</asrwt>
<pdfrwt beam="1">  1        1 0.86176863E+00 0.30000000E+03</pdfrwt>
<pdfrwt beam="2">0</pdfrwt>
<totfact> 0.30905806E-04</totfact>
</mgrwt>
<clustering>
<clus scale="   35.344">  1  6  2 -1</clus>
<clus scale="  470.286">  4  5 -1 -1</clus>
<clus scale="  300.000">  1  4  2 -1</clus>
</clustering>
</event>
<event>
 6    1  0.9843879E-012  0.3000000E+03  0.7818608E-02  0.1093470E+00
          1   -1    0    0  502    0  0.00000000000E+00  0.00000000000E+00  0.23524755611E+03  0.23524755611E+03  0.00000000000E+00 0.  1.
         13   -1    0    0    0    0 -0.00000000000E+00 -0.00000000000E+00 -0.27500000000E+03  0.27500000000E+03  0.00000000000E+00 0.  1.
    9000005    2    1    2  501    0 -0.18444239315E+02 -0.31779641233E+02 -0.23042396263E+02  0.46988220894E+03  0.46787626857E+03 0.  0.
         13    1    3    3    0    0  0.12496089876E+01  0.48160641857E+02  0.21378817698E+03  0.21914924951E+03  0.00000000000E+00 0.  1.
          1    1    3    3  501    0 -0.19693848302E+02 -0.79940283090E+02 -0.23683057324E+03  0.25073295943E+03  0.00000000000E+00 0.  1.
         21    1    1    2  502  501  0.18444239315E+02  0.31779641233E+02 -0.16710047624E+02  0.40365347173E+02  0.00000000000E+00 0.  1.
<scales pt_clust_4="550.00000" pt_clust_5="550.00000" pt_clust_6="36.74421"></scales>
<mgrwt>
<rscale>  0 0.30000000E+03</rscale>
<asrwt>  1 0.36744209E+02</asrwt>
<pdfrwt beam="1">  1        1 0.85544566E+00 0.30000000E+03</pdfrwt>
<pdfrwt beam="2">0</pdfrwt>
<totfact> 0.35738082E-04</totfact>
</mgrwt>
<clustering>
<clus scale="   36.744">  1  6  2 -1</clus>
<clus scale="  467.876">  4  5 -1 -1</clus>
<clus scale="  300.000">  1  4  2 -1</clus>
</clustering>
</event>
<event>
 6    1  0.9843879E-012  0.3000000E+03  0.7818608E-02  0.1093470E+00
          1   -1    0    0  502    0  0.00000000000E+00  0.00000000000E+00  0.23785804437E+03  0.23785804437E+03  0.00000000000E+00 0.  1.
         13   -1    0    0    0    0 -0.00000000000E+00 -0.00000000000E+00 -0.27500000000E+03  0.27500000000E+03  0.00000000000E+00 0.  1.
    9000005    2    1    2  501    0 -0.99467566112E+00  0.35022743500E+02 -0.71048120607E+02  0.46410140415E+03  0.45729060339E+03 0.  0.
         13    1    3    3    0    0  0.10832923502E+02  0.12125559655E+03  0.16927317833E+03  0.20850343121E+03  0.00000000000E+00 0.  1.
          3    1    3    3  501    0 -0.11827599163E+02 -0.86232853050E+02 -0.24032129894E+03  0.25559797294E+03  0.00000000000E+00 0.  1.
         21    1    1    2  502  501  0.99467566112E+00 -0.35022743500E+02  0.33906164979E+02  0.48756640220E+02  0.00000000000E+00 0.  1.
<scales pt_clust_4="550.00000" pt_clust_5="550.00000" pt_clust_6="35.03687"></scales>
<mgrwt>
<rscale>  0 0.30000000E+03</rscale>
<asrwt>  1 0.35036865E+02</asrwt>
<pdfrwt beam="1">  1        1 0.86493834E+00 0.30000000E+03</pdfrwt>
<pdfrwt beam="2">0</pdfrwt>
<totfact> 0.28608232E-04</totfact>
</mgrwt>
<clustering>
<clus scale="   35.037">  1  6  2 -1</clus>
<clus scale="  457.291">  4  5 -1 -1</clus>
<clus scale="  300.000">  1  4  2 -1</clus>
</clustering>
</event>
<event>
 6    1  0.9843879E-012  0.3000000E+03  0.7818608E-02  0.1093470E+00
          1   -1    0    0  502    0  0.00000000000E+00  0.00000000000E+00  0.24117817471E+03  0.24117817471E+03  0.00000000000E+00 0.  1.
         13   -1    0    0    0    0 -0.00000000000E+00 -0.00000000000E+00 -0.27500000000E+03  0.27500000000E+03  0.00000000000E+00 0.  1.
    9000005    2    1    2  501    0  0.34898072876E+02  0.27799990237E+02 -0.50260926355E+02  0.46862863221E+03  0.46378434564E+03 0.  0.
         13    1    3    3    0    0  0.24372844991E+03 -0.33538384366E+02 -0.37060507644E+01  0.24605307423E+03  0.00000000000E+00 0.  1.
          3    1    3    3  501    0 -0.20883037704E+03  0.61338374604E+02 -0.46554875590E+02  0.22257555799E+03  0.00000000000E+00 0.  1.
         21    1    1    2  502  501 -0.34898072876E+02 -0.27799990237E+02  0.16439101063E+02  0.47549542494E+02  0.00000000000E+00 0.  1.
<scales pt_clust_4="550.00000" pt_clust_5="550.00000" pt_clust_6="44.61743"></scales>
<mgrwt>
<rscale>  0 0.30000000E+03</rscale>
<asrwt>  1 0.44617429E+02</asrwt>
<pdfrwt beam="1">  1        1 0.87701154E+00 0.30000000E+03</pdfrwt>
<pdfrwt beam="2">0</pdfrwt>
<totfact> 0.20463562E-04</totfact>
</mgrwt>
<clustering>
<clus scale="   44.617">  1  6  2 -1</clus>
<clus scale="  463.784">  4  5 -1 -1</clus>
<clus scale="  300.000">  1  4  2 -1</clus>
</clustering>
</event>
<event>
 6    1  0.9843879E-012  0.3000000E+03  0.7818608E-02  0.1093470E+00
          1   -1    0    0  502    0  0.00000000000E+00  0.00000000000E+00  0.24111838581E+03  0.24111838581E+03  0.00000000000E+00 0.  1.
         13   -1    0    0    0    0 -0.00000000000E+00 -0.00000000000E+00 -0.27500000000E+03  0.27500000000E+03  0.00000000000E+00 0.  1.
    9000005    2    1    2  501    0 -0.34152997359E+02  0.39414177792E+01 -0.47872991860E+02  0.47900072624E+03  0.47536082126E+03 0.  0.
         13    1    3    3    0    0  0.20224221644E+03  0.87564536694E+02 -0.58529438009E+02  0.22802446647E+03  0.00000000000E+00 0.  1.
          1    1    3    3  501    0 -0.23639521380E+03 -0.83623118915E+02  0.10656446149E+02  0.25097625977E+03  0.00000000000E+00 0.  1.
         21    1    1    2  502  501  0.34152997359E+02 -0.39414177792E+01  0.13991377667E+02  0.37117659567E+02  0.00000000000E+00 0.  1.
<scales pt_clust_4="550.00000" pt_clust_5="550.00000" pt_clust_6="34.37967"></scales>
<mgrwt>
<rscale>  0 0.30000000E+03</rscale>
<asrwt>  1 0.34379674E+02</asrwt>
<pdfrwt beam="1">  1        1 0.87679413E+00 0.30000000E+03</pdfrwt>
<pdfrwt beam="2">0</pdfrwt>
<totfact> 0.21583968E-04</totfact>
</mgrwt>
<clustering>
<clus scale="   34.380">  1  6  2 -1</clus>
<clus scale="  475.361">  4  5 -1 -1</clus>
<clus scale="  300.000">  1  4  2 -1</clus>
</clustering>
</event>
<event>
 6    1  0.9843879E-012  0.3000000E+03  0.7818608E-02  0.1093470E+00
          1   -1    0    0  502    0  0.00000000000E+00  0.00000000000E+00  0.23060082347E+03  0.23060082347E+03  0.00000000000E+00 0.  1.
         13   -1    0    0    0    0 -0.00000000000E+00 -0.00000000000E+00 -0.27500000000E+03  0.27500000000E+03  0.00000000000E+00 0.  1.
    9000005    2    1    2  501    0 -0.30367830559E+02  0.30638581394E+01 -0.41565288065E+02  0.47494754823E+03  0.47213971241E+03 0.  0.
         13    1    3    3    0    0 -0.10124868987E+03 -0.20416284750E+03 -0.99097044615E+02  0.24850350048E+03  0.00000000000E+00 0.  1.
          1    1    3    3  501    0  0.70880859309E+02  0.20722670564E+03  0.57531756550E+02  0.22644404775E+03  0.00000000000E+00 0.  1.
         21    1    1    2  502  501  0.30367830559E+02 -0.30638581394E+01 -0.28338884614E+01  0.30653275247E+02  0.00000000000E+00 0. -1.
<scales pt_clust_4="550.00000" pt_clust_5="550.00000" pt_clust_6="30.52201"></scales>
<mgrwt>
<rscale>  0 0.30000000E+03</rscale>
<asrwt>  1 0.30522013E+02</asrwt>
<pdfrwt beam="1">  1        1 0.83854845E+00 0.30000000E+03</pdfrwt>
<pdfrwt beam="2">0</pdfrwt>
<totfact> 0.52309784E-04</totfact>
</mgrwt>
<clustering>
<clus scale="   30.522">  1  6  2 -1</clus>
<clus scale="  472.140">  4  5 -1 -1</clus>
<clus scale="  300.000">  1  4  2 -1</clus>
</clustering>
</event>
<event>
 6    1  0.9843879E-012  0.3000000E+03  0.7818608E-02  0.1093470E+00
          1   -1    0    0  502    0  0.00000000000E+00  0.00000000000E+00  0.24743353480E+03  0.24743353480E+03  0.00000000000E+00 0.  1.
         13   -1    0    0    0    0 -0.00000000000E+00 -0.00000000000E+00 -0.27500000000E+03  0.27500000000E+03  0.00000000000E+00 0.  1.
    9000005    2    1    2  501    0 -0.93496114015E+01  0.29712362925E+02 -0.60552547434E+02  0.47706480807E+03  0.47218002960E+03 0.  0.
         13    1    3    3    0    0  0.86891816733E+02  0.11908525812E+03 -0.22352344628E+03  0.26775775909E+03  0.00000000000E+00 0.  1.
          1    1    3    3  501    0 -0.96241428135E+02 -0.89372895191E+02  0.16297089884E+03  0.20930704898E+03  0.00000000000E+00 0.  1.
         21    1    1    2  502  501  0.93496114015E+01 -0.29712362925E+02  0.32986082235E+02  0.45368726731E+02  0.00000000000E+00 0. -1.
<scales pt_clust_4="550.00000" pt_clust_5="550.00000" pt_clust_6="31.14867"></scales>
<mgrwt>
<rscale>  0 0.30000000E+03</rscale>
<asrwt>  1 0.31148672E+02</asrwt>
<pdfrwt beam="1">  1        1 0.89975831E+00 0.30000000E+03</pdfrwt>
<pdfrwt beam="2">0</pdfrwt>
<totfact> 0.11368973E-04</totfact>
</mgrwt>
<clustering>
<clus scale="   31.149">  1  6  2 -1</clus>
<clus scale="  472.180">  4  5 -1 -1</clus>
<clus scale="  300.000">  1  4  2 -1</clus>
</clustering>
</event>
<event>
 6    1  0.9843879E-012  0.3000000E+03  0.7818608E-02  0.1093470E+00
          1   -1    0    0  502    0  0.00000000000E+00  0.00000000000E+00  0.23161462502E+03  0.23161462502E+03  0.00000000000E+00 0.  1.
         13   -1    0    0    0    0 -0.00000000000E+00 -0.00000000000E+00 -0.27500000000E+03  0.27500000000E+03  0.00000000000E+00 0.  1.
    9000005    2    1    2  501    0 -0.30442800936E+02 -0.61389238534E+01 -0.69583887198E+02  0.46598443234E+03  0.45971200040E+03 0.  0.
         13    1    3    3    0    0 -0.23934247827E+03 -0.43790492045E+02 -0.23554429206E+01  0.24332689373E+03  0.00000000000E+00 0.  1.
          1    1    3    3  501    0  0.20889967734E+03  0.37651568191E+02 -0.67228444278E+02  0.22265753861E+03  0.00000000000E+00 0.  1.
         21    1    1    2  502  501  0.30442800936E+02  0.61389238534E+01  0.26198512214E+02  0.40630192679E+02  0.00000000000E+00 0.  1.
<scales pt_clust_4="550.00000" pt_clust_5="550.00000" pt_clust_6="31.05560"></scales>
<mgrwt>
<rscale>  0 0.30000000E+03</rscale>
<asrwt>  1 0.31055604E+02</asrwt>
<pdfrwt beam="1">  1        1 0.84223500E+00 0.30000000E+03</pdfrwt>
<pdfrwt beam="2">0</pdfrwt>
<totfact> 0.48793328E-04</totfact>
</mgrwt>
<clustering>
<clus scale="   31.056">  1  6  2 -1</clus>
<clus scale="  459.712">  4  5 -1 -1</clus>
<clus scale="  300.000">  1  4  2 -1</clus>
</clustering>
</event>
<event>
 6    1  0.9843879E-012  0.3000000E+03  0.7818608E-02  0.1093470E+00
          1   -1    0    0  502    0  0.00000000000E+00  0.00000000000E+00  0.22448874969E+03  0.22448874969E+03  0.00000000000E+00 0.  1.
         13   -1    0    0    0    0 -0.00000000000E+00 -0.00000000000E+00 -0.27500000000E+03  0.27500000000E+03  0.00000000000E+00 0.  1.
    9000005    2    1    2  501    0  0.32393690503E+02  0.10723745235E+02 -0.63302938787E+02  0.46304732833E+03  0.45742891942E+03 0.  0.
         13    1    3    3    0    0 -0.12891828155E+03  0.13661508164E+00 -0.20890685040E+03  0.24548322575E+03  0.00000000000E+00 0.  1.
          3    1    3    3  501    0  0.16131197205E+03  0.10587130153E+02  0.14560391162E+03  0.21756410258E+03  0.00000000000E+00 0.  1.
         21    1    1    2  502  501 -0.32393690503E+02 -0.10723745235E+02  0.12791688473E+02  0.36441421354E+02  0.00000000000E+00 0.  1.
<scales pt_clust_4="550.00000" pt_clust_5="550.00000" pt_clust_6="34.12257"></scales>
<mgrwt>
<rscale>  0 0.30000000E+03</rscale>
<asrwt>  1 0.34122572E+02</asrwt>
<pdfrwt beam="1">  1        1 0.81632273E+00 0.30000000E+03</pdfrwt>
<pdfrwt beam="2">0</pdfrwt>
<totfact> 0.78027844E-04</totfact>
</mgrwt>
<clustering>
<clus scale="   34.123">  1  6  2 -1</clus>
<clus scale="  457.429">  4  5 -1 -1</clus>
<clus scale="  300.000">  1  4  2 -1</clus>
</clustering>
</event>
<event>
 6    1  0.9843879E-012  0.3000000E+03  0.7818608E-02  0.1093470E+00
          1   -1    0    0  502    0  0.00000000000E+00  0.00000000000E+00  0.22152958479E+03  0.22152958479E+03  0.00000000000E+00 0.  1.
         13   -1    0    0    0    0 -0.00000000000E+00 -0.00000000000E+00 -0.27500000000E+03  0.27500000000E+03  0.00000000000E+00 0.  1.
    9000005    2    1    2  501    0  0.23404848041E+02  0.23755137662E+02 -0.62802314970E+02  0.46190043767E+03  0.45639433616E+03 0.  0.
         13    1    3    3    0    0 -0.20705259585E+03 -0.45291220640E+02  0.48055400665E+01  0.21200274840E+03  0.00000000000E+00 0.  1.
          1    1    3    3  501    0  0.23045744389E+03  0.69046358302E+02 -0.67607855036E+02  0.24989768927E+03  0.00000000000E+00 0.  1.
         21    1    1    2  502  501 -0.23404848041E+02 -0.23755137662E+02  0.93318997561E+01  0.34629147119E+02  0.00000000000E+00 0. -1.
<scales pt_clust_4="550.00000" pt_clust_5="550.00000" pt_clust_6="33.34807"></scales>
<mgrwt>
<rscale>  0 0.30000000E+03</rscale>
<asrwt>  1 0.33348066E+02</asrwt>
<pdfrwt beam="1">  1        1 0.80556213E+00 0.30000000E+03</pdfrwt>
<pdfrwt beam="2">0</pdfrwt>
<totfact> 0.95222380E-04</totfact>
</mgrwt>
<clustering>
<clus scale="   33.348">  1  6  2 -1</clus>
<clus scale="  456.394">  4  5 -1 -1</clus>
<clus scale="  300.000">  1  4  2 -1</clus>
</clustering>
</event>
<event>
 6    1  0.9843879E-012  0.3000000E+03  0.7818608E-02  0.1093470E+00
          1   -1    0    0  502    0  0.00000000000E+00  0.00000000000E+00  0.25210560965E+03  0.25210560965E+03  0.00000000000E+00 0.  1.
         13   -1    0    0    0    0 -0.00000000000E+00 -0.00000000000E+00 -0.27500000000E+03  0.27500000000E+03  0.00000000000E+00 0.  1.
    9000005    2    1    2  501    0 -0.80164342730E+01 -0.31830237833E+02 -0.16357751851E+02  0.49363689438E+03  0.49227266854E+03 0.  0.
         13    1    3    3    0    0  0.17382240028E+03 -0.83964248529E+02 -0.16429811282E+03  0.25349179819E+03  0.00000000000E+00 0.  1.
          3    1    3    3  501    0 -0.18183883455E+03  0.52134010696E+02  0.14794036097E+03  0.24014509620E+03  0.00000000000E+00 0.  1.
         21    1    1    2  502  501  0.80164342730E+01  0.31830237833E+02 -0.65366384972E+01  0.33468715270E+02  0.00000000000E+00 0.  1.
<scales pt_clust_4="550.00000" pt_clust_5="550.00000" pt_clust_6="32.82420"></scales>
<mgrwt>
<rscale>  0 0.30000000E+03</rscale>
<asrwt>  1 0.32824204E+02</asrwt>
<pdfrwt beam="1">  1        1 0.91674767E+00 0.30000000E+03</pdfrwt>
<pdfrwt beam="2">0</pdfrwt>
<totfact> 0.49963871E-05</totfact>
</mgrwt>
<clustering>
<clus scale="   32.824">  1  6  2 -1</clus>
<clus scale="  492.273">  4  5 -1 -1</clus>
<clus scale="  300.000">  1  4  2 -1</clus>
</clustering>
</event>
<event>
 6    1  0.9843879E-012  0.3000000E+03  0.7818608E-02  0.1093470E+00
          1   -1    0    0  502    0  0.00000000000E+00  0.00000000000E+00  0.25016384364E+03  0.25016384364E+03  0.00000000000E+00 0.  1.
         13   -1    0    0    0    0 -0.00000000000E+00 -0.00000000000E+00 -0.27500000000E+03  0.27500000000E+03  0.00000000000E+00 0.  1.
    9000005    2    1    2  501    0 -0.11320057903E+02 -0.30077601649E+02 -0.45552005461E+02  0.48692835965E+03  0.48372661328E+03 0.  0.
         13    1    3    3    0    0 -0.43851172612E+02  0.17602872693E+03 -0.16608932443E+03  0.24595670703E+03  0.00000000000E+00 0.  1.
          3    1    3    3  501    0  0.32531114709E+02 -0.20610632858E+03  0.12053731896E+03  0.24097165262E+03  0.00000000000E+00 0.  1.
         21    1    1    2  502  501  0.11320057903E+02  0.30077601649E+02  0.20715849102E+02  0.38235483990E+02  0.00000000000E+00 0. -1.
<scales pt_clust_4="550.00000" pt_clust_5="550.00000" pt_clust_6="32.13730"></scales>
<mgrwt>
<rscale>  0 0.30000000E+03</rscale>
<asrwt>  1 0.32137297E+02</asrwt>
<pdfrwt beam="1">  1        1 0.90968670E+00 0.30000000E+03</pdfrwt>
<pdfrwt beam="2">0</pdfrwt>
<totfact> 0.74309778E-05</totfact>
</mgrwt>
<clustering>
<clus scale="   32.137">  1  6  2 -1</clus>
<clus scale="  483.727">  4  5 -1 -1</clus>
<clus scale="  300.000">  1  4  2 -1</clus>
</clustering>
</event>
<event>
 6    1  0.9843879E-012  0.3000000E+03  0.7818608E-02  0.1093470E+00
          1   -1    0    0  502    0  0.00000000000E+00  0.00000000000E+00  0.22184484479E+03  0.22184484479E+03  0.00000000000E+00 0.  1.
         13   -1    0    0    0    0 -0.00000000000E+00 -0.00000000000E+00 -0.27500000000E+03  0.27500000000E+03  0.00000000000E+00 0.  1.
    9000005    2    1    2  501    0  0.26891185472E+02 -0.23123775040E+02 -0.47248294408E+02  0.46089020902E+03  0.45708810816E+03 0.  0.
         13    1    3    3    0    0 -0.18586384194E+03  0.84988521803E+02  0.37219231905E+02  0.20773465720E+03  0.00000000000E+00 0.  1.
          1    1    3    3  501    0  0.21275502741E+03 -0.10811229684E+03 -0.84467526313E+02  0.25315555182E+03  0.00000000000E+00 0.  1.
         21    1    1    2  502  501 -0.26891185472E+02  0.23123775040E+02 -0.59068608063E+01  0.35954635762E+02  0.00000000000E+00 0.  1.
<scales pt_clust_4="550.00000" pt_clust_5="550.00000" pt_clust_6="35.46613"></scales>
<mgrwt>
<rscale>  0 0.30000000E+03</rscale>
<asrwt>  1 0.35466126E+02</asrwt>
<pdfrwt beam="1">  1        1 0.80670853E+00 0.30000000E+03</pdfrwt>
<pdfrwt beam="2">0</pdfrwt>
<totfact> 0.92247474E-04</totfact>
</mgrwt>
<clustering>
<clus scale="   35.466">  1  6  2 -1</clus>
<clus scale="  457.088">  4  5 -1 -1</clus>
<clus scale="  300.000">  1  4  2 -1</clus>
</clustering>
</event>
<event>
 6    1  0.9843879E-012  0.3000000E+03  0.7818608E-02  0.1093470E+00
          1   -1    0    0  502    0  0.00000000000E+00  0.00000000000E+00  0.24416242204E+03  0.24416242204E+03  0.00000000000E+00 0.  1.
         13   -1    0    0    0    0 -0.00000000000E+00 -0.00000000000E+00 -0.27500000000E+03  0.27500000000E+03  0.00000000000E+00 0.  1.
    9000005    2    1    2  501    0 -0.36262603000E+02  0.26604752137E+01 -0.15742354513E+02  0.47979339518E+03  0.47815460452E+03 0.  0.
         13    1    3    3    0    0 -0.44367806643E+02  0.15264680403E+03  0.17538569186E+03  0.23670591449E+03  0.00000000000E+00 0.  1.
          1    1    3    3  501    0  0.81052036424E+01 -0.14998632882E+03 -0.19112804637E+03  0.24308748069E+03  0.00000000000E+00 0.  1.
         21    1    1    2  502  501  0.36262603000E+02 -0.26604752137E+01 -0.15095223450E+02  0.39369026858E+02  0.00000000000E+00 0.  1.
<scales pt_clust_4="550.00000" pt_clust_5="550.00000" pt_clust_6="36.36009"></scales>
<mgrwt>
<rscale>  0 0.30000000E+03</rscale>
<asrwt>  1 0.36360086E+02</asrwt>
<pdfrwt beam="1">  1        1 0.88786335E+00 0.30000000E+03</pdfrwt>
<pdfrwt beam="2">0</pdfrwt>
<totfact> 0.15386713E-04</totfact>
</mgrwt>
<clustering>
<clus scale="   36.360">  1  6  2 -1</clus>
<clus scale="  478.155">  4  5 -1 -1</clus>
<clus scale="  300.000">  1  4  2 -1</clus>
</clustering>
</event>
<event>
 6    1  0.9843879E-012  0.3000000E+03  0.7818608E-02  0.1093470E+00
          1   -1    0    0  502    0  0.00000000000E+00  0.00000000000E+00  0.25194210071E+03  0.25194210071E+03  0.00000000000E+00 0.  1.
         13   -1    0    0    0    0 -0.00000000000E+00 -0.00000000000E+00 -0.27500000000E+03  0.27500000000E+03  0.00000000000E+00 0.  1.
    9000005    2    1    2  501    0 -0.36737806896E+02  0.18762059248E+02 -0.58529427871E+02  0.47253703971E+03  0.46708016297E+03 0.  0.
         13    1    3    3    0    0 -0.15106414084E+03 -0.11775601376E+03 -0.17525930040E+03  0.25962025307E+03  0.00000000000E+00 0.  1.
          3    1    3    3  501    0  0.11432633395E+03  0.13651807301E+03  0.11672987253E+03  0.21291678664E+03  0.00000000000E+00 0.  1.
         21    1    1    2  502  501  0.36737806896E+02 -0.18762059248E+02  0.35471528576E+02  0.54405060999E+02  0.00000000000E+00 0. -1.
<scales pt_clust_4="550.00000" pt_clust_5="550.00000" pt_clust_6="41.25144"></scales>
<mgrwt>
<rscale>  0 0.30000000E+03</rscale>
<asrwt>  1 0.41251440E+02</asrwt>
<pdfrwt beam="1">  1        1 0.91615309E+00 0.30000000E+03</pdfrwt>
<pdfrwt beam="2">0</pdfrwt>
<totfact> 0.49411033E-05</totfact>
</mgrwt>
<clustering>
<clus scale="   41.251">  1  6  2 -1</clus>
<clus scale="  467.080">  4  5 -1 -1</clus>
<clus scale="  300.000">  1  4  2 -1</clus>
</clustering>
</event>
<event>
 6    1  0.9843879E-012  0.3000000E+03  0.7818608E-02  0.1093470E+00
          1   -1    0    0  502    0  0.00000000000E+00  0.00000000000E+00  0.23305992596E+03  0.23305992596E+03  0.00000000000E+00 0.  1.
         13   -1    0    0    0    0 -0.00000000000E+00 -0.00000000000E+00 -0.27500000000E+03  0.27500000000E+03  0.00000000000E+00 0.  1.
    9000005    2    1    2  501    0 -0.22286168403E+01  0.34341272840E+02 -0.70822753290E+02  0.46313221832E+03  0.45638941652E+03 0.  0.
         13    1    3    3    0    0 -0.80049643534E+02  0.16716414258E+03 -0.19226609984E+03  0.26705439361E+03  0.00000000000E+00 0.  1.
          1    1    3    3  501    0  0.77821026693E+02 -0.13282286974E+03  0.12144334655E+03  0.19607782471E+03  0.00000000000E+00 0.  1.
         21    1    1    2  502  501  0.22286168403E+01 -0.34341272840E+02  0.28882679250E+02  0.44927707642E+02  0.00000000000E+00 0.  1.
<scales pt_clust_4="550.00000" pt_clust_5="550.00000" pt_clust_6="34.41351"></scales>
<mgrwt>
<rscale>  0 0.30000000E+03</rscale>
<asrwt>  1 0.34413511E+02</asrwt>
<pdfrwt beam="1">  1        1 0.84749064E+00 0.30000000E+03</pdfrwt>
<pdfrwt beam="2">0</pdfrwt>
<totfact> 0.43066469E-04</totfact>
</mgrwt>
<clustering>
<clus scale="   34.414">  1  6  2 -1</clus>
<clus scale="  456.389">  4  5 -1 -1</clus>
<clus scale="  300.000">  1  4  2 -1</clus>
</clustering>
</event>
<event>
 6    1  0.9843879E-012  0.3000000E+03  0.7818608E-02  0.1093470E+00
          1   -1    0    0  502    0  0.00000000000E+00  0.00000000000E+00  0.24079441050E+03  0.24079441050E+03  0.00000000000E+00 0.  1.
         13   -1    0    0    0    0 -0.00000000000E+00 -0.00000000000E+00 -0.27500000000E+03  0.27500000000E+03  0.00000000000E+00 0.  1.
    9000005    2    1    2  501    0  0.26044601949E+02 -0.17732906696E+02 -0.67020528849E+02  0.47030158123E+03  0.46443411669E+03 0.  0.
         13    1    3    3    0    0  0.22951093060E+03 -0.34073297504E+02 -0.11742659249E+03  0.26004857526E+03  0.00000000000E+00 0.  1.
          1    1    3    3  501    0 -0.20346632866E+03  0.16340390808E+02  0.50406063639E+02  0.21025300597E+03  0.00000000000E+00 0.  1.
         21    1    1    2  502  501 -0.26044601949E+02  0.17732906696E+02  0.32814939346E+02  0.45492829268E+02  0.00000000000E+00 0. -1.
<scales pt_clust_4="550.00000" pt_clust_5="550.00000" pt_clust_6="31.50837"></scales>
<mgrwt>
<rscale>  0 0.30000000E+03</rscale>
<asrwt>  1 0.31508368E+02</asrwt>
<pdfrwt beam="1">  1        1 0.87561604E+00 0.30000000E+03</pdfrwt>
<pdfrwt beam="2">0</pdfrwt>
<totfact> 0.22599775E-04</totfact>
</mgrwt>
<clustering>
<clus scale="   31.508">  1  6  2 -1</clus>
<clus scale="  464.434">  4  5 -1 -1</clus>
<clus scale="  300.000">  1  4  2 -1</clus>
</clustering>
</event>
<event>
 6    1  0.9843879E-012  0.3000000E+03  0.7818608E-02  0.1093470E+00
          1   -1    0    0  502    0  0.00000000000E+00  0.00000000000E+00  0.23353971904E+03  0.23353971904E+03  0.00000000000E+00 0.  1.
         13   -1    0    0    0    0 -0.00000000000E+00 -0.00000000000E+00 -0.27500000000E+03  0.27500000000E+03  0.00000000000E+00 0.  1.
    9000005    2    1    2  501    0  0.20356616199E+02  0.27580785965E+02 -0.67487003574E+02  0.46549925125E+03  0.45930378366E+03 0.  0.
         13    1    3    3    0    0  0.16326676336E+03 -0.60942134335E+02  0.12159215777E+03  0.21249619429E+03  0.00000000000E+00 0.  1.
          1    1    3    3  501    0 -0.14291014716E+03  0.88522920300E+02 -0.18907916134E+03  0.25300305697E+03  0.00000000000E+00 0.  1.
         21    1    1    2  502  501 -0.20356616199E+02 -0.27580785965E+02  0.26026722616E+02  0.43040467791E+02  0.00000000000E+00 0. -1.
<scales pt_clust_4="550.00000" pt_clust_5="550.00000" pt_clust_6="34.27961"></scales>
<mgrwt>
<rscale>  0 0.30000000E+03</rscale>
<asrwt>  1 0.34279609E+02</asrwt>
<pdfrwt beam="1">  1        1 0.84923534E+00 0.30000000E+03</pdfrwt>
<pdfrwt beam="2">0</pdfrwt>
<totfact> 0.41535154E-04</totfact>
</mgrwt>
<clustering>
<clus scale="   34.280">  1  6  2 -1</clus>
<clus scale="  459.304">  4  5 -1 -1</clus>
<clus scale="  300.000">  1  4  2 -1</clus>
</clustering>
</event>
<event>
 6    1  0.9843879E-012  0.3000000E+03  0.7818608E-02  0.1093470E+00
          1   -1    0    0  502    0  0.00000000000E+00  0.00000000000E+00  0.24676648560E+03  0.24676648560E+03  0.00000000000E+00 0.  1.
         13   -1    0    0    0    0 -0.00000000000E+00 -0.00000000000E+00 -0.27500000000E+03  0.27500000000E+03  0.00000000000E+00 0.  1.
    9000005    2    1    2  501    0 -0.26897720707E+02  0.36763756264E+02 -0.48887695427E+02  0.47174992487E+03  0.46699349427E+03 0.  0.
         13    1    3    3    0    0 -0.24697886600E+03  0.30964212495E+02 -0.31694094974E+02  0.25092201649E+03  0.00000000000E+00 0.  1.
          3    1    3    3  501    0  0.22008114529E+03  0.57995437686E+01 -0.17193600453E+02  0.22082790837E+03  0.00000000000E+00 0.  1.
         21    1    1    2  502  501  0.26897720707E+02 -0.36763756264E+02  0.20654181028E+02  0.50016560735E+02  0.00000000000E+00 0.  1.
<scales pt_clust_4="550.00000" pt_clust_5="550.00000" pt_clust_6="45.55284"></scales>
<mgrwt>
<rscale>  0 0.30000000E+03</rscale>
<asrwt>  1 0.45552839E+02</asrwt>
<pdfrwt beam="1">  1        1 0.89733267E+00 0.30000000E+03</pdfrwt>
<pdfrwt beam="2">0</pdfrwt>
<totfact> 0.11316591E-04</totfact>
</mgrwt>
<clustering>
<clus scale="   45.553">  1  6  2 -1</clus>
<clus scale="  466.993">  4  5 -1 -1</clus>
<clus scale="  300.000">  1  4  2 -1</clus>
</clustering>
</event>
<event>
 6    1  0.9843879E-012  0.3000000E+03  0.7818608E-02  0.1093470E+00
          1   -1    0    0  502    0  0.00000000000E+00  0.00000000000E+00  0.22338823013E+03  0.22338823013E+03  0.00000000000E+00 0.  1.
         13   -1    0    0    0    0 -0.00000000000E+00 -0.00000000000E+00 -0.27500000000E+03  0.27500000000E+03  0.00000000000E+00 0.  1.
    9000005    2    1    2  501    0 -0.49494719138E+01  0.31935458091E+02 -0.67234266819E+02  0.46249347889E+03  0.45643772919E+03 0.  0.
         13    1    3    3    0    0 -0.17777570159E+03  0.15785340952E+03 -0.72639751822E+02  0.24859290520E+03  0.00000000000E+00 0.  1.
          1    1    3    3  501    0  0.17282622967E+03 -0.12591795143E+03  0.54054850031E+01  0.21390057369E+03  0.00000000000E+00 0.  1.
         21    1    1    2  502  501  0.49494719138E+01 -0.31935458091E+02  0.15622496947E+02  0.35894751240E+02  0.00000000000E+00 0.  1.
<scales pt_clust_4="550.00000" pt_clust_5="550.00000" pt_clust_6="32.31673"></scales>
<mgrwt>
<rscale>  0 0.30000000E+03</rscale>
<asrwt>  1 0.32316726E+02</asrwt>
<pdfrwt beam="1">  1        1 0.81232084E+00 0.30000000E+03</pdfrwt>
<pdfrwt beam="2">0</pdfrwt>
<totfact> 0.84895846E-04</totfact>
</mgrwt>
<clustering>
<clus scale="   32.317">  1  6  2 -1</clus>
<clus scale="  456.438">  4  5 -1 -1</clus>
<clus scale="  300.000">  1  4  2 -1</clus>
</clustering>
</event>
<event>
 6    1  0.9843879E-012  0.3000000E+03  0.7818608E-02  0.1093470E+00
          1   -1    0    0  502    0  0.00000000000E+00  0.00000000000E+00  0.24894127258E+03  0.24894127258E+03  0.00000000000E+00 0.  1.
         13   -1    0    0    0    0 -0.00000000000E+00 -0.00000000000E+00 -0.27500000000E+03  0.27500000000E+03  0.00000000000E+00 0.  1.
    9000005    2    1    2  501    0 -0.64945549608E+01 -0.57098348343E+02 -0.40643123478E+02  0.46465294965E+03  0.45929086590E+03 0.  0.
         13    1    3    3    0    0  0.16898775011E+03  0.11626784429E+03  0.31766519093E+02  0.20756729762E+03  0.00000000000E+00 0.  1.
          3    1    3    3  501    0 -0.17548230507E+03 -0.17336619264E+03 -0.72409642571E+02  0.25708565203E+03  0.00000000000E+00 0.  1.
         21    1    1    2  502  501  0.64945549608E+01  0.57098348343E+02  0.14584396055E+02  0.59288322930E+02  0.00000000000E+00 0.  1.
<scales pt_clust_4="550.00000" pt_clust_5="550.00000" pt_clust_6="57.46652"></scales>
<mgrwt>
<rscale>  0 0.30000000E+03</rscale>
<asrwt>  1 0.57466517E+02</asrwt>
<pdfrwt beam="1">  1        1 0.90524099E+00 0.30000000E+03</pdfrwt>
<pdfrwt beam="2">0</pdfrwt>
<totfact> 0.83726261E-05</totfact>
</mgrwt>
<clustering>
<clus scale="   57.467">  1  6  2 -1</clus>
<clus scale="  459.291">  4  5 -1 -1</clus>
<clus scale="  300.000">  1  4  2 -1</clus>
</clustering>
</event>
<event>
 6    1  0.9843879E-012  0.3000000E+03  0.7818608E-02  0.1093470E+00
          1   -1    0    0  502    0  0.00000000000E+00  0.00000000000E+00  0.24070058430E+03  0.24070058430E+03  0.00000000000E+00 0.  1.
         13   -1    0    0    0    0 -0.00000000000E+00 -0.00000000000E+00 -0.27500000000E+03  0.27500000000E+03  0.00000000000E+00 0.  1.
    9000005    2    1    2  501    0 -0.36295137505E+02 -0.11209002312E+02 -0.23121142160E+02  0.47610345640E+03  0.47402208307E+03 0.  0.
         13    1    3    3    0    0  0.63382049945E+02 -0.22351332621E+03  0.33757147287E+02  0.23476591797E+03  0.00000000000E+00 0.  1.
          1    1    3    3  501    0 -0.99677187449E+02  0.21230432390E+03 -0.56878289447E+02  0.24133753843E+03  0.00000000000E+00 0.  1.
         21    1    1    2  502  501  0.36295137505E+02  0.11209002312E+02 -0.11178273535E+02  0.39597127908E+02  0.00000000000E+00 0.  1.
<scales pt_clust_4="550.00000" pt_clust_5="550.00000" pt_clust_6="37.98658"></scales>
<mgrwt>
<rscale>  0 0.30000000E+03</rscale>
<asrwt>  1 0.37986579E+02</asrwt>
<pdfrwt beam="1">  1        1 0.87527485E+00 0.30000000E+03</pdfrwt>
<pdfrwt beam="2">0</pdfrwt>
<totfact> 0.22005119E-04</totfact>
</mgrwt>
<clustering>
<clus scale="   37.987">  1  6  2 -1</clus>
<clus scale="  474.022">  4  5 -1 -1</clus>
<clus scale="  300.000">  1  4  2 -1</clus>
</clustering>
</event>
<event>
 6    1  0.9843879E-012  0.3000000E+03  0.7818608E-02  0.1093470E+00
          1   -1    0    0  502    0  0.00000000000E+00  0.00000000000E+00  0.26869312837E+03  0.26869312837E+03  0.00000000000E+00 0.  1.
         13   -1    0    0    0    0 -0.00000000000E+00 -0.00000000000E+00 -0.27500000000E+03  0.27500000000E+03  0.00000000000E+00 0.  1.
    9000005    2    1    2  501    0  0.40883734706E+01  0.41264971412E+02 -0.23421775209E+02  0.49883298361E+03  0.49655438103E+03 0.  0.
         13    1    3    3    0    0  0.17149424419E+03 -0.49032160282E+02  0.15629341324E+03  0.23715408399E+03  0.00000000000E+00 0.  1.
          3    1    3    3  501    0 -0.16740587072E+03  0.90297131694E+02 -0.17971518845E+03  0.26167889962E+03  0.00000000000E+00 0.  1.
         21    1    1    2  502  501 -0.40883734706E+01 -0.41264971412E+02  0.17114903576E+02  0.44860144758E+02  0.00000000000E+00 0. -1.
<scales pt_clust_4="550.00000" pt_clust_5="550.00000" pt_clust_6="41.46701"></scales>
<mgrwt>
<rscale>  0 0.30000000E+03</rscale>
<asrwt>  1 0.41467007E+02</asrwt>
<pdfrwt beam="1">  1        1 0.97706592E+00 0.30000000E+03</pdfrwt>
<pdfrwt beam="2">0</pdfrwt>
<totfact> 0.35045442E-06</totfact>
</mgrwt>
<clustering>
<clus scale="   41.467">  1  6  2 -1</clus>
<clus scale="  496.554">  4  5 -1 -1</clus>
<clus scale="  300.000">  1  4  2 -1</clus>
</clustering>
</event>
<event>
 6    1  0.9843879E-012  0.3000000E+03  0.7818608E-02  0.1093470E+00
          1   -1    0    0  502    0  0.00000000000E+00  0.00000000000E+00  0.23626613805E+03  0.23626613805E+03  0.00000000000E+00 0.  1.
         13   -1    0    0    0    0 -0.00000000000E+00 -0.00000000000E+00 -0.27500000000E+03  0.27500000000E+03  0.00000000000E+00 0.  1.
    9000005    2    1    2  501    0  0.24530901845E+02 -0.27225567872E+02 -0.55305100954E+02  0.47104670676E+03  0.46635110063E+03 0.  0.
         13    1    3    3    0    0  0.97115393498E+02  0.44695353101E+02  0.18289874058E+03  0.21185141856E+03  0.00000000000E+00 0.  1.
          3    1    3    3  501    0 -0.72584491653E+02 -0.71920920973E+02 -0.23820384153E+03  0.25919528819E+03  0.00000000000E+00 0.  1.
         21    1    1    2  502  501 -0.24530901845E+02  0.27225567872E+02  0.16571239000E+02  0.40219431290E+02  0.00000000000E+00 0.  1.
<scales pt_clust_4="550.00000" pt_clust_5="550.00000" pt_clust_6="36.64692"></scales>
<mgrwt>
<rscale>  0 0.30000000E+03</rscale>
<asrwt>  1 0.36646919E+02</asrwt>
<pdfrwt beam="1">  1        1 0.85914959E+00 0.30000000E+03</pdfrwt>
<pdfrwt beam="2">0</pdfrwt>
<totfact> 0.32744754E-04</totfact>
</mgrwt>
<clustering>
<clus scale="   36.647">  1  6  2 -1</clus>
<clus scale="  466.351">  4  5 -1 -1</clus>
<clus scale="  300.000">  1  4  2 -1</clus>
</clustering>
</event>
<event>
 6    1  0.9843879E-012  0.3000000E+03  0.7818608E-02  0.1093470E+00
          1   -1    0    0  502    0  0.00000000000E+00  0.00000000000E+00  0.24693461800E+03  0.24693461800E+03  0.00000000000E+00 0.  1.
         13   -1    0    0    0    0 -0.00000000000E+00 -0.00000000000E+00 -0.27500000000E+03  0.27500000000E+03  0.00000000000E+00 0.  1.
    9000005    2    1    2  501    0 -0.68901678778E+01  0.36493109727E+02 -0.39771713740E+01  0.47766879189E+03  0.47620629498E+03 0.  0.
         13    1    3    3    0    0  0.13019544267E+03 -0.17763311176E+03  0.25536489145E+02  0.22171262473E+03  0.00000000000E+00 0.  1.
          1    1    3    3  501    0 -0.13708561055E+03  0.21412622149E+03 -0.29513660519E+02  0.25595616716E+03  0.00000000000E+00 0.  1.
         21    1    1    2  502  501  0.68901678778E+01 -0.36493109727E+02 -0.24088210622E+02  0.44265826118E+02  0.00000000000E+00 0.  1.
<scales pt_clust_4="550.00000" pt_clust_5="550.00000" pt_clust_6="37.13789"></scales>
<mgrwt>
<rscale>  0 0.30000000E+03</rscale>
<asrwt>  1 0.37137890E+02</asrwt>
<pdfrwt beam="1">  1        1 0.89794407E+00 0.30000000E+03</pdfrwt>
<pdfrwt beam="2">0</pdfrwt>
<totfact> 0.11557786E-04</totfact>
</mgrwt>
<clustering>
<clus scale="   37.138">  1  6  2 -1</clus>
<clus scale="  476.206">  4  5 -1 -1</clus>
<clus scale="  300.000">  1  4  2 -1</clus>
</clustering>
</event>
<event>
 6    1  0.9843879E-012  0.3000000E+03  0.7818608E-02  0.1093470E+00
          1   -1    0    0  502    0  0.00000000000E+00  0.00000000000E+00  0.23556686590E+03  0.23556686590E+03  0.00000000000E+00 0.  1.
         13   -1    0    0    0    0 -0.00000000000E+00 -0.00000000000E+00 -0.27500000000E+03  0.27500000000E+03  0.00000000000E+00 0.  1.
    9000005    2    1    2  501    0 -0.29732205738E+02 -0.27943279862E+02 -0.24921390107E+02  0.46726072706E+03  0.46480821896E+03 0.  0.
         13    1    3    3    0    0  0.66848688313E+01 -0.15195064683E+03 -0.19898742344E+03  0.25045894121E+03  0.00000000000E+00 0.  1.
          3    1    3    3  501    0 -0.36417074569E+02  0.12400736697E+03  0.17406603334E+03  0.21680178584E+03  0.00000000000E+00 0.  1.
         21    1    1    2  502  501  0.29732205738E+02  0.27943279862E+02 -0.14511743997E+02  0.43306138841E+02  0.00000000000E+00 0. -1.
<scales pt_clust_4="550.00000" pt_clust_5="550.00000" pt_clust_6="40.80236"></scales>
<mgrwt>
<rscale>  0 0.30000000E+03</rscale>
<asrwt>  1 0.40802360E+02</asrwt>
<pdfrwt beam="1">  1        1 0.85660679E+00 0.30000000E+03</pdfrwt>
<pdfrwt beam="2">0</pdfrwt>
<totfact> 0.34122507E-04</totfact>
</mgrwt>
<clustering>
<clus scale="   40.802">  1  6  2 -1</clus>
<clus scale="  464.808">  4  5 -1 -1</clus>
<clus scale="  300.000">  1  4  2 -1</clus>
</clustering>
</event>
<event>
 6    1  0.9843879E-012  0.3000000E+03  0.7818608E-02  0.1093470E+00
          1   -1    0    0  502    0  0.00000000000E+00  0.00000000000E+00  0.22940274301E+03  0.22940274301E+03  0.00000000000E+00 0.  1.
         13   -1    0    0    0    0 -0.00000000000E+00 -0.00000000000E+00 -0.27500000000E+03  0.27500000000E+03  0.00000000000E+00 0.  1.
    9000005    2    1    2  501    0 -0.25851163137E+01 -0.30225478532E+02 -0.48929643859E+02  0.47388443407E+03  0.47037440877E+03 0.  0.
         13    1    3    3    0    0  0.22001470612E+03 -0.84148156485E+02  0.15171409760E+02  0.23604566258E+03  0.00000000000E+00 0.  1.
          3    1    3    3  501    0 -0.22259982244E+03  0.53922677953E+02 -0.64101053619E+02  0.23783877148E+03  0.00000000000E+00 0.  1.
         21    1    1    2  502  501  0.25851163137E+01  0.30225478532E+02  0.33323868728E+01  0.30518308949E+02  0.00000000000E+00 0. -1.
<scales pt_clust_4="550.00000" pt_clust_5="550.00000" pt_clust_6="30.33583"></scales>
<mgrwt>
<rscale>  0 0.30000000E+03</rscale>
<asrwt>  1 0.30335827E+02</asrwt>
<pdfrwt beam="1">  1        1 0.83419179E+00 0.30000000E+03</pdfrwt>
<pdfrwt beam="2">0</pdfrwt>
<totfact> 0.56349686E-04</totfact>
</mgrwt>
<clustering>
<clus scale="   30.336">  1  6  2 -1</clus>
<clus scale="  470.374">  4  5 -1 -1</clus>
<clus scale="  300.000">  1  4  2 -1</clus>
</clustering>
</event>
<event>
 6    1  0.9843879E-012  0.3000000E+03  0.7818608E-02  0.1093470E+00
          1   -1    0    0  502    0  0.00000000000E+00  0.00000000000E+00  0.22938545196E+03  0.22938545196E+03  0.00000000000E+00 0.  1.
         13   -1    0    0    0    0 -0.00000000000E+00 -0.00000000000E+00 -0.27500000000E+03  0.27500000000E+03  0.00000000000E+00 0.  1.
    9000005    2    1    2  501    0 -0.10150417768E+01  0.39547536270E+02 -0.61152449109E+02  0.46188293081E+03  0.45610435407E+03 0.  0.
         13    1    3    3    0    0 -0.50302499150E+02  0.22882220493E+03  0.46161055596E+02  0.23879025513E+03  0.00000000000E+00 0.  1.
          1    1    3    3  501    0  0.49287457373E+02 -0.18927466866E+03 -0.10731350471E+03  0.22309267568E+03  0.00000000000E+00 0.  1.
         21    1    1    2  502  501  0.10150417768E+01 -0.39547536270E+02  0.15537901072E+02  0.42502521155E+02  0.00000000000E+00 0. -1.
<scales pt_clust_4="550.00000" pt_clust_5="550.00000" pt_clust_6="39.56056"></scales>
<mgrwt>
<rscale>  0 0.30000000E+03</rscale>
<asrwt>  1 0.39560560E+02</asrwt>
<pdfrwt beam="1">  1        1 0.83412892E+00 0.30000000E+03</pdfrwt>
<pdfrwt beam="2">0</pdfrwt>
<totfact> 0.53671320E-04</totfact>
</mgrwt>
<clustering>
<clus scale="   39.561">  1  6  2 -1</clus>
<clus scale="  456.104">  4  5 -1 -1</clus>
<clus scale="  300.000">  1  4  2 -1</clus>
</clustering>
</event>
<event>
 6    1  0.9843879E-012  0.3000000E+03  0.7818608E-02  0.1093470E+00
          1   -1    0    0  502    0  0.00000000000E+00  0.00000000000E+00  0.24287743883E+03  0.24287743883E+03  0.00000000000E+00 0.  1.
         13   -1    0    0    0    0 -0.00000000000E+00 -0.00000000000E+00 -0.27500000000E+03  0.27500000000E+03  0.00000000000E+00 0.  1.
    9000005    2    1    2  501    0  0.36095577742E+02 -0.52999601664E+01 -0.61757770059E+02  0.47087503553E+03  0.46537973378E+03 0.  0.
         13    1    3    3    0    0 -0.93150392566E+02 -0.13610788716E+03 -0.18627187326E+03  0.24879622857E+03  0.00000000000E+00 0.  1.
          1    1    3    3  501    0  0.12924597031E+03  0.13080792700E+03  0.12451410320E+03  0.22207880696E+03  0.00000000000E+00 0.  1.
         21    1    1    2  502  501 -0.36095577742E+02  0.52999601664E+01  0.29635208885E+02  0.47002403300E+02  0.00000000000E+00 0.  1.
<scales pt_clust_4="550.00000" pt_clust_5="550.00000" pt_clust_6="36.48260"></scales>
<mgrwt>
<rscale>  0 0.30000000E+03</rscale>
<asrwt>  1 0.36482603E+02</asrwt>
<pdfrwt beam="1">  1        1 0.88319069E+00 0.30000000E+03</pdfrwt>
<pdfrwt beam="2">0</pdfrwt>
<totfact> 0.17817636E-04</totfact>
</mgrwt>
<clustering>
<clus scale="   36.483">  1  6  2 -1</clus>
<clus scale="  465.380">  4  5 -1 -1</clus>
<clus scale="  300.000">  1  4  2 -1</clus>
</clustering>
</event>
<event>
 6    1  0.9843879E-012  0.3000000E+03  0.7818608E-02  0.1093470E+00
          1   -1    0    0  502    0  0.00000000000E+00  0.00000000000E+00  0.22510761395E+03  0.22510761395E+03  0.00000000000E+00 0.  1.
         13   -1    0    0    0    0 -0.00000000000E+00 -0.00000000000E+00 -0.27500000000E+03  0.27500000000E+03  0.00000000000E+00 0.  1.
    9000005    2    1    2  501    0  0.34906073052E+02  0.95708980036E+01 -0.61671372067E+02  0.46204476414E+03  0.45647778687E+03 0.  0.
         13    1    3    3    0    0 -0.62151964903E+02  0.20858804202E+02  0.18524171513E+03  0.19650050758E+03  0.00000000000E+00 0.  1.
          1    1    3    3  501    0  0.97058037955E+02 -0.11287906198E+02 -0.24691308720E+03  0.26554425656E+03  0.00000000000E+00 0.  1.
         21    1    1    2  502  501 -0.34906073052E+02 -0.95708980036E+01  0.11778986021E+02  0.38062849817E+02  0.00000000000E+00 0.  1.
<scales pt_clust_4="550.00000" pt_clust_5="550.00000" pt_clust_6="36.19442"></scales>
<mgrwt>
<rscale>  0 0.30000000E+03</rscale>
<asrwt>  1 0.36194420E+02</asrwt>
<pdfrwt beam="1">  1        1 0.81857314E+00 0.30000000E+03</pdfrwt>
<pdfrwt beam="2">0</pdfrwt>
<totfact> 0.73928032E-04</totfact>
</mgrwt>
<clustering>
<clus scale="   36.194">  1  6  2 -1</clus>
<clus scale="  456.478">  4  5 -1 -1</clus>
<clus scale="  300.000">  1  4  2 -1</clus>
</clustering>
</event>
<event>
 6    1  0.9843879E-012  0.3000000E+03  0.7818608E-02  0.1093470E+00
          1   -1    0    0  502    0  0.00000000000E+00  0.00000000000E+00  0.23789233756E+03  0.23789233756E+03  0.00000000000E+00 0.  1.
         13   -1    0    0    0    0 -0.00000000000E+00 -0.00000000000E+00 -0.27500000000E+03  0.27500000000E+03  0.00000000000E+00 0.  1.
    9000005    2    1    2  501    0  0.13044189742E+02  0.27762160616E+02 -0.70716043211E+02  0.46739056060E+03  0.46099055188E+03 0.  0.
         13    1    3    3    0    0 -0.14254181912E+03  0.18858184470E+03 -0.57230624753E+02  0.24322135341E+03  0.00000000000E+00 0.  1.
          1    1    3    3  501    0  0.15558600886E+03 -0.16081968408E+03 -0.13485418458E+02  0.22416920719E+03  0.00000000000E+00 0.  1.
         21    1    1    2  502  501 -0.13044189742E+02 -0.27762160616E+02  0.33608380772E+02  0.45501776957E+02  0.00000000000E+00 0. -1.
<scales pt_clust_4="550.00000" pt_clust_5="550.00000" pt_clust_6="30.67391"></scales>
<mgrwt>
<rscale>  0 0.30000000E+03</rscale>
<asrwt>  1 0.30673905E+02</asrwt>
<pdfrwt beam="1">  1        1 0.86506305E+00 0.30000000E+03</pdfrwt>
<pdfrwt beam="2">0</pdfrwt>
<totfact> 0.29247231E-04</totfact>
</mgrwt>
<clustering>
<clus scale="   30.674">  1  6  2 -1</clus>
<clus scale="  460.991">  4  5 -1 -1</clus>
<clus scale="  300.000">  1  4  2 -1</clus>
</clustering>
</event>
<event>
 6    1  0.9843879E-012  0.3000000E+03  0.7818608E-02  0.1093470E+00
          1   -1    0    0  502    0  0.00000000000E+00  0.00000000000E+00  0.24570332063E+03  0.24570332063E+03  0.00000000000E+00 0.  1.
         13   -1    0    0    0    0 -0.00000000000E+00 -0.00000000000E+00 -0.27500000000E+03  0.27500000000E+03  0.00000000000E+00 0.  1.
    9000005    2    1    2  501    0 -0.19672343477E+02  0.28685714119E+02 -0.68037359981E+02  0.46863882575E+03  0.46236716510E+03 0.  0.
         13    1    3    3    0    0  0.35669821577E+02  0.21247495010E+03  0.76218398256E+02  0.22853267781E+03  0.00000000000E+00 0.  1.
          1    1    3    3  501    0 -0.55342165054E+02 -0.18378923599E+03 -0.14425575824E+03  0.24010614795E+03  0.00000000000E+00 0.  1.
         21    1    1    2  502  501  0.19672343477E+02 -0.28685714119E+02  0.38740680611E+02  0.52064494875E+02  0.00000000000E+00 0.  1.
<scales pt_clust_4="550.00000" pt_clust_5="550.00000" pt_clust_6="34.78320"></scales>
<mgrwt>
<rscale>  0 0.30000000E+03</rscale>
<asrwt>  1 0.34783204E+02</asrwt>
<pdfrwt beam="1">  1        1 0.89346662E+00 0.30000000E+03</pdfrwt>
<pdfrwt beam="2">0</pdfrwt>
<totfact> 0.13141842E-04</totfact>
</mgrwt>
<clustering>
<clus scale="   34.783">  1  6  2 -1</clus>
<clus scale="  462.367">  4  5 -1 -1</clus>
<clus scale="  300.000">  1  4  2 -1</clus>
</clustering>
</event>
<event>
 6    1  0.9843879E-012  0.3000000E+03  0.7818608E-02  0.1093470E+00
          1   -1    0    0  502    0  0.00000000000E+00  0.00000000000E+00  0.22542846724E+03  0.22542846724E+03  0.00000000000E+00 0.  1.
         13   -1    0    0    0    0 -0.00000000000E+00 -0.00000000000E+00 -0.27500000000E+03  0.27500000000E+03  0.00000000000E+00 0.  1.
    9000005    2    1    2  501    0  0.37092286462E+02  0.46095861645E+01 -0.35475124213E+02  0.46048106766E+03  0.45758850864E+03 0.  0.
         13    1    3    3    0    0  0.17930577640E+03 -0.14403484405E+02 -0.18165727334E+03  0.25565090802E+03  0.00000000000E+00 0.  1.
          3    1    3    3  501    0 -0.14221348994E+03  0.19013070569E+02  0.14618214913E+03  0.20483015964E+03  0.00000000000E+00 0.  1.
         21    1    1    2  502  501 -0.37092286462E+02 -0.46095861645E+01 -0.14096408542E+02  0.39947399582E+02  0.00000000000E+00 0. -1.
<scales pt_clust_4="550.00000" pt_clust_5="550.00000" pt_clust_6="37.37763"></scales>
<mgrwt>
<rscale>  0 0.30000000E+03</rscale>
<asrwt>  1 0.37377632E+02</asrwt>
<pdfrwt beam="1">  1        1 0.81973988E+00 0.30000000E+03</pdfrwt>
<pdfrwt beam="2">0</pdfrwt>
<totfact> 0.71821321E-04</totfact>
</mgrwt>
<clustering>
<clus scale="   37.378">  1  6  2 -1</clus>
<clus scale="  457.589">  4  5 -1 -1</clus>
<clus scale="  300.000">  1  4  2 -1</clus>
</clustering>
</event>
<event>
 6    1  0.9843879E-012  0.3000000E+03  0.7818608E-02  0.1093470E+00
          1   -1    0    0  502    0  0.00000000000E+00  0.00000000000E+00  0.25638354000E+03  0.25638354000E+03  0.00000000000E+00 0.  1.
         13   -1    0    0    0    0 -0.00000000000E+00 -0.00000000000E+00 -0.27500000000E+03  0.27500000000E+03  0.00000000000E+00 0.  1.
    9000005    2    1    2  501    0 -0.27736580951E+02  0.37228906784E+02 -0.54276442485E+02  0.47284343602E+03  0.46741809267E+03 0.  0.
         13    1    3    3    0    0  0.31138100630E+02  0.17140489881E+03 -0.20065579064E+03  0.26572912329E+03  0.00000000000E+00 0.  1.
          3    1    3    3  501    0 -0.58874681580E+02 -0.13417599203E+03  0.14637934816E+03  0.20711431273E+03  0.00000000000E+00 0.  1.
         21    1    1    2  502  501  0.27736580951E+02 -0.37228906784E+02  0.35659982484E+02  0.58540103980E+02  0.00000000000E+00 0.  1.
<scales pt_clust_4="550.00000" pt_clust_5="550.00000" pt_clust_6="46.42531"></scales>
<mgrwt>
<rscale>  0 0.30000000E+03</rscale>
<asrwt>  1 0.46425310E+02</asrwt>
<pdfrwt beam="1">  1        1 0.93230378E+00 0.30000000E+03</pdfrwt>
<pdfrwt beam="2">0</pdfrwt>
<totfact> 0.23123473E-05</totfact>
</mgrwt>
<clustering>
<clus scale="   46.425">  1  6  2 -1</clus>
<clus scale="  467.418">  4  5 -1 -1</clus>
<clus scale="  300.000">  1  4  2 -1</clus>
</clustering>
</event>
<event>
 6    1  0.9843879E-012  0.3000000E+03  0.7818608E-02  0.1093470E+00
          1   -1    0    0  502    0  0.00000000000E+00  0.00000000000E+00  0.24186230530E+03  0.24186230530E+03  0.00000000000E+00 0.  1.
         13   -1    0    0    0    0 -0.00000000000E+00 -0.00000000000E+00 -0.27500000000E+03  0.27500000000E+03  0.00000000000E+00 0.  1.
    9000005    2    1    2  501    0 -0.11215518242E+02 -0.49023912972E+02 -0.43471393300E+01  0.45891381118E+03  0.45612921040E+03 0.  0.
         13    1    3    3    0    0 -0.16066382692E+03 -0.19189311294E+03 -0.22977463571E+02  0.25132408541E+03  0.00000000000E+00 0.  1.
          1    1    3    3  501    0  0.14944830868E+03  0.14286919997E+03  0.18630324241E+02  0.20758972577E+03  0.00000000000E+00 0.  1.
         21    1    1    2  502  501  0.11215518242E+02  0.49023912972E+02 -0.28790555367E+02  0.57948494120E+02  0.00000000000E+00 0.  1.
<scales pt_clust_4="550.00000" pt_clust_5="550.00000" pt_clust_6="50.29050"></scales>
<mgrwt>
<rscale>  0 0.30000000E+03</rscale>
<asrwt>  1 0.50290500E+02</asrwt>
<pdfrwt beam="1">  1        1 0.87949929E+00 0.30000000E+03</pdfrwt>
<pdfrwt beam="2">0</pdfrwt>
<totfact> 0.18746846E-04</totfact>
</mgrwt>
<clustering>
<clus scale="   50.291">  1  6  2 -1</clus>
<clus scale="  456.129">  4  5 -1 -1</clus>
<clus scale="  300.000">  1  4  2 -1</clus>
</clustering>
</event>
<event>
 6    1  0.9843879E-012  0.3000000E+03  0.7818608E-02  0.1093470E+00
          1   -1    0    0  502    0  0.00000000000E+00  0.00000000000E+00  0.22145312201E+03  0.22145312201E+03  0.00000000000E+00 0.  1.
         13   -1    0    0    0    0 -0.00000000000E+00 -0.00000000000E+00 -0.27500000000E+03  0.27500000000E+03  0.00000000000E+00 0.  1.
    9000005    2    1    2  501    0  0.30938894897E+02  0.92611575318E+01 -0.37697615860E+02  0.46047836189E+03  0.45779496204E+03 0.  0.
         13    1    3    3    0    0  0.14382729712E+02 -0.35486080883E+02 -0.24488902020E+03  0.24786439249E+03  0.00000000000E+00 0.  1.
          3    1    3    3  501    0  0.16556165186E+02  0.44747238414E+02  0.20719140434E+03  0.21261396940E+03  0.00000000000E+00 0.  1.
         21    1    1    2  502  501 -0.30938894897E+02 -0.92611575318E+01 -0.15849262127E+02  0.35974760128E+02  0.00000000000E+00 0.  1.
<scales pt_clust_4="550.00000" pt_clust_5="550.00000" pt_clust_6="32.29528"></scales>
<mgrwt>
<rscale>  0 0.30000000E+03</rscale>
<asrwt>  1 0.32295283E+02</asrwt>
<pdfrwt beam="1">  1        1 0.80528408E+00 0.30000000E+03</pdfrwt>
<pdfrwt beam="2">0</pdfrwt>
<totfact> 0.96270908E-04</totfact>
</mgrwt>
<clustering>
<clus scale="   32.295">  1  6  2 -1</clus>
<clus scale="  457.795">  4  5 -1 -1</clus>
<clus scale="  300.000">  1  4  2 -1</clus>
</clustering>
</event>
<event>
 6    1  0.9843879E-012  0.3000000E+03  0.7818608E-02  0.1093470E+00
          1   -1    0    0  502    0  0.00000000000E+00  0.00000000000E+00  0.24197127892E+03  0.24197127892E+03  0.00000000000E+00 0.  1.
         13   -1    0    0    0    0 -0.00000000000E+00 -0.00000000000E+00 -0.27500000000E+03  0.27500000000E+03  0.00000000000E+00 0.  1.
    9000005    2    1    2  501    0 -0.13251038785E+02  0.38813275823E+02 -0.63202406282E+02  0.46605456568E+03  0.45992418247E+03 0.  0.
         13    1    3    3    0    0 -0.20340267294E+03  0.89768454651E+02  0.64383012820E+02  0.23146532170E+03  0.00000000000E+00 0.  1.
          3    1    3    3  501    0  0.19015163416E+03 -0.50955178828E+02 -0.12758541910E+03  0.23458924398E+03  0.00000000000E+00 0.  1.
         21    1    1    2  502  501  0.13251038785E+02 -0.38813275823E+02  0.30173685206E+02  0.50916713248E+02  0.00000000000E+00 0. -1.
<scales pt_clust_4="550.00000" pt_clust_5="550.00000" pt_clust_6="41.01293"></scales>
<mgrwt>
<rscale>  0 0.30000000E+03</rscale>
<asrwt>  1 0.41012930E+02</asrwt>
<pdfrwt beam="1">  1        1 0.87989556E+00 0.30000000E+03</pdfrwt>
<pdfrwt beam="2">0</pdfrwt>
<totfact> 0.19226066E-04</totfact>
</mgrwt>
<clustering>
<clus scale="   41.013">  1  6  2 -1</clus>
<clus scale="  459.924">  4  5 -1 -1</clus>
<clus scale="  300.000">  1  4  2 -1</clus>
</clustering>
</event>
<event>
 6    1  0.9843879E-012  0.3000000E+03  0.7818608E-02  0.1093470E+00
          1   -1    0    0  502    0  0.00000000000E+00  0.00000000000E+00  0.24581248518E+03  0.24581248518E+03  0.00000000000E+00 0.  1.
         13   -1    0    0    0    0 -0.00000000000E+00 -0.00000000000E+00 -0.27500000000E+03  0.27500000000E+03  0.00000000000E+00 0.  1.
    9000005    2    1    2  501    0 -0.18603545878E+02 -0.25319141571E+02 -0.25285245714E+02  0.48915212268E+03  0.48748672251E+03 0.  0.
         13    1    3    3    0    0  0.78981722116E+02 -0.20832196713E+03  0.10282910166E+03  0.24537721689E+03  0.00000000000E+00 0.  1.
          1    1    3    3  501    0 -0.97585267993E+02  0.18300282556E+03 -0.12811434737E+03  0.24377490580E+03  0.00000000000E+00 0.  1.
         21    1    1    2  502  501  0.18603545878E+02  0.25319141571E+02 -0.39022691078E+01  0.31660362495E+02  0.00000000000E+00 0.  1.
<scales pt_clust_4="550.00000" pt_clust_5="550.00000" pt_clust_6="31.41897"></scales>
<mgrwt>
<rscale>  0 0.30000000E+03</rscale>
<asrwt>  1 0.31418973E+02</asrwt>
<pdfrwt beam="1">  1        1 0.89386358E+00 0.30000000E+03</pdfrwt>
<pdfrwt beam="2">0</pdfrwt>
<totfact> 0.13256376E-04</totfact>
</mgrwt>
<clustering>
<clus scale="   31.419">  1  6  2 -1</clus>
<clus scale="  487.487">  4  5 -1 -1</clus>
<clus scale="  300.000">  1  4  2 -1</clus>
</clustering>
</event>
<event>
 6    1  0.9843879E-012  0.3000000E+03  0.7818608E-02  0.1093470E+00
          1   -1    0    0  502    0  0.00000000000E+00  0.00000000000E+00  0.23007198942E+03  0.23007198942E+03  0.00000000000E+00 0.  1.
         13   -1    0    0    0    0 -0.00000000000E+00 -0.00000000000E+00 -0.27500000000E+03  0.27500000000E+03  0.00000000000E+00 0.  1.
    9000005    2    1    2  501    0  0.39672317485E+02  0.20455095843E+01 -0.55286159976E+02  0.46401875395E+03  0.45899756823E+03 0.  0.
         13    1    3    3    0    0  0.52618686684E+02 -0.21612696306E+03 -0.95011163892E+02  0.24188160660E+03  0.00000000000E+00 0.  1.
          1    1    3    3  501    0 -0.12946369200E+02  0.21817247264E+03  0.39725003916E+02  0.22213714734E+03  0.00000000000E+00 0.  1.
         21    1    1    2  502  501 -0.39672317485E+02 -0.20455095843E+01  0.10358149398E+02  0.41053235476E+02  0.00000000000E+00 0.  1.
<scales pt_clust_4="550.00000" pt_clust_5="550.00000" pt_clust_6="39.72502"></scales>
<mgrwt>
<rscale>  0 0.30000000E+03</rscale>
<asrwt>  1 0.39725016E+02</asrwt>
<pdfrwt beam="1">  1        1 0.83662542E+00 0.30000000E+03</pdfrwt>
<pdfrwt beam="2">0</pdfrwt>
<totfact> 0.51429428E-04</totfact>
</mgrwt>
<clustering>
<clus scale="   39.725">  1  6  2 -1</clus>
<clus scale="  458.998">  4  5 -1 -1</clus>
<clus scale="  300.000">  1  4  2 -1</clus>
</clustering>
</event>
<event>
 6    1  0.9843879E-012  0.3000000E+03  0.7818608E-02  0.1093470E+00
          1   -1    0    0  502    0  0.00000000000E+00  0.00000000000E+00  0.25262792769E+03  0.25262792769E+03  0.00000000000E+00 0.  1.
         13   -1    0    0    0    0 -0.00000000000E+00 -0.00000000000E+00 -0.27500000000E+03  0.27500000000E+03  0.00000000000E+00 0.  1.
    9000005    2    1    2  501    0  0.38192965344E+01  0.31167819768E+02 -0.42901423761E+02  0.49011160743E+03  0.48721949423E+03 0.  0.
         13    1    3    3    0    0 -0.15031593137E+03  0.16974220708E+03 -0.13436927983E+03  0.26355720338E+03  0.00000000000E+00 0.  1.
          3    1    3    3  501    0  0.15413522790E+03 -0.13857438732E+03  0.91467856074E+02  0.22655440405E+03  0.00000000000E+00 0.  1.
         21    1    1    2  502  501 -0.38192965344E+01 -0.31167819768E+02  0.20529351455E+02  0.37516320265E+02  0.00000000000E+00 0.  1.
<scales pt_clust_4="550.00000" pt_clust_5="550.00000" pt_clust_6="31.40096"></scales>
<mgrwt>
<rscale>  0 0.30000000E+03</rscale>
<asrwt>  1 0.31400956E+02</asrwt>
<pdfrwt beam="1">  1        1 0.91864701E+00 0.30000000E+03</pdfrwt>
<pdfrwt beam="2">0</pdfrwt>
<totfact> 0.45680458E-05</totfact>
</mgrwt>
<clustering>
<clus scale="   31.401">  1  6  2 -1</clus>
<clus scale="  487.219">  4  5 -1 -1</clus>
<clus scale="  300.000">  1  4  2 -1</clus>
</clustering>
</event>
<event>
 6    1  0.9843879E-012  0.3000000E+03  0.7818608E-02  0.1093470E+00
          1   -1    0    0  502    0  0.00000000000E+00  0.00000000000E+00  0.23863956535E+03  0.23863956535E+03  0.00000000000E+00 0.  1.
         13   -1    0    0    0    0 -0.00000000000E+00 -0.00000000000E+00 -0.27500000000E+03  0.27500000000E+03  0.00000000000E+00 0.  1.
    9000005    2    1    2  501    0  0.26399630905E+02  0.28148691206E+02 -0.56389823297E+02  0.47016007895E+03  0.46516813985E+03 0.  0.
         13    1    3    3    0    0 -0.18759698318E+02 -0.21325357706E+03  0.14430277718E+02  0.21456292159E+03  0.00000000000E+00 0.  1.
          3    1    3    3  501    0  0.45159329222E+02  0.24140226826E+03 -0.70820101015E+02  0.25559715735E+03  0.00000000000E+00 0.  1.
         21    1    1    2  502  501 -0.26399630905E+02 -0.28148691206E+02  0.20029388647E+02  0.43479486406E+02  0.00000000000E+00 0.  1.
<scales pt_clust_4="550.00000" pt_clust_5="550.00000" pt_clust_6="38.59131"></scales>
<mgrwt>
<rscale>  0 0.30000000E+03</rscale>
<asrwt>  1 0.38591312E+02</asrwt>
<pdfrwt beam="1">  1        1 0.86778024E+00 0.30000000E+03</pdfrwt>
<pdfrwt beam="2">0</pdfrwt>
<totfact> 0.26215938E-04</totfact>
</mgrwt>
<clustering>
<clus scale="   38.591">  1  6  2 -1</clus>
<clus scale="  465.168">  4  5 -1 -1</clus>
<clus scale="  300.000">  1  4  2 -1</clus>
</clustering>
</event>
<event>
 6    1  0.9843879E-012  0.3000000E+03  0.7818608E-02  0.1093470E+00
          1   -1    0    0  502    0  0.00000000000E+00  0.00000000000E+00  0.22333984046E+03  0.22333984046E+03  0.00000000000E+00 0.  1.
         13   -1    0    0    0    0 -0.00000000000E+00 -0.00000000000E+00 -0.27500000000E+03  0.27500000000E+03  0.00000000000E+00 0.  1.
    9000005    2    1    2  501    0 -0.12931766478E+02  0.27708724327E+02 -0.69020988668E+02  0.46317732667E+03  0.45698395494E+03 0.  0.
         13    1    3    3    0    0 -0.14799627370E+03 -0.75122819021E+01 -0.21505414754E+03  0.26116588174E+03  0.00000000000E+00 0.  1.
          1    1    3    3  501    0  0.13506450722E+03  0.35221006229E+02  0.14603315887E+03  0.20201144493E+03  0.00000000000E+00 0.  1.
         21    1    1    2  502  501  0.12931766478E+02 -0.27708724327E+02  0.17360829127E+02  0.35162513790E+02  0.00000000000E+00 0.  1.
<scales pt_clust_4="550.00000" pt_clust_5="550.00000" pt_clust_6="30.57783"></scales>
<mgrwt>
<rscale>  0 0.30000000E+03</rscale>
<asrwt>  1 0.30577835E+02</asrwt>
<pdfrwt beam="1">  1        1 0.81214487E+00 0.30000000E+03</pdfrwt>
<pdfrwt beam="2">0</pdfrwt>
<totfact> 0.86072331E-04</totfact>
</mgrwt>
<clustering>
<clus scale="   30.578">  1  6  2 -1</clus>
<clus scale="  456.984">  4  5 -1 -1</clus>
<clus scale="  300.000">  1  4  2 -1</clus>
</clustering>
</event>
<event>
 6    1  0.9843879E-012  0.3000000E+03  0.7818608E-02  0.1093470E+00
          1   -1    0    0  502    0  0.00000000000E+00  0.00000000000E+00  0.23692473200E+03  0.23692473200E+03  0.00000000000E+00 0.  1.
         13   -1    0    0    0    0 -0.00000000000E+00 -0.00000000000E+00 -0.27500000000E+03  0.27500000000E+03  0.00000000000E+00 0.  1.
    9000005    2    1    2  501    0  0.47201370491E+02 -0.13726277743E+02 -0.29047814942E+02  0.46194598666E+03  0.45840368559E+03 0.  0.
         13    1    3    3    0    0  0.88360550790E+02  0.16491491021E+03 -0.15212946200E+03  0.24113873135E+03  0.00000000000E+00 0.  1.
          3    1    3    3  501    0 -0.41159180299E+02 -0.17864118795E+03  0.12308164706E+03  0.22080725531E+03  0.00000000000E+00 0.  1.
         21    1    1    2  502  501 -0.47201370491E+02  0.13726277743E+02 -0.90274530595E+01  0.49978745339E+02  0.00000000000E+00 0. -1.
<scales pt_clust_4="550.00000" pt_clust_5="550.00000" pt_clust_6="49.15671"></scales>
<mgrwt>
<rscale>  0 0.30000000E+03</rscale>
<asrwt>  1 0.49156714E+02</asrwt>
<pdfrwt beam="1">  1        1 0.86154448E+00 0.30000000E+03</pdfrwt>
<pdfrwt beam="2">0</pdfrwt>
<totfact> 0.29275278E-04</totfact>
</mgrwt>
<clustering>
<clus scale="   49.157">  1  6  2 -1</clus>
<clus scale="  458.404">  4  5 -1 -1</clus>
<clus scale="  300.000">  1  4  2 -1</clus>
</clustering>
</event>
<event>
 6    1  0.9843879E-012  0.3000000E+03  0.7818608E-02  0.1093470E+00
          1   -1    0    0  502    0  0.00000000000E+00  0.00000000000E+00  0.26041881218E+03  0.26041881218E+03  0.00000000000E+00 0.  1.
         13   -1    0    0    0    0 -0.00000000000E+00 -0.00000000000E+00 -0.27500000000E+03  0.27500000000E+03  0.00000000000E+00 0.  1.
    9000005    2    1    2  501    0  0.12338566654E+02 -0.36459167163E+02 -0.50889653492E+02  0.48250552673E+03  0.47826803719E+03 0.  0.
         13    1    3    3    0    0  0.17713109733E+03 -0.15268810003E+03 -0.12801508738E+03  0.26660259587E+03  0.00000000000E+00 0.  1.
          3    1    3    3  501    0 -0.16479253067E+03  0.11622893286E+03  0.77125433887E+02  0.21590293086E+03  0.00000000000E+00 0.  1.
         21    1    1    2  502  501 -0.12338566654E+02  0.36459167163E+02  0.36308465668E+02  0.52913285444E+02  0.00000000000E+00 0. -1.
<scales pt_clust_4="550.00000" pt_clust_5="550.00000" pt_clust_6="38.49040"></scales>
<mgrwt>
<rscale>  0 0.30000000E+03</rscale>
<asrwt>  1 0.38490403E+02</asrwt>
<pdfrwt beam="1">  1        1 0.94697750E+00 0.30000000E+03</pdfrwt>
<pdfrwt beam="2">0</pdfrwt>
<totfact> 0.13967115E-05</totfact>
</mgrwt>
<clustering>
<clus scale="   38.490">  1  6  2 -1</clus>
<clus scale="  478.268">  4  5 -1 -1</clus>
<clus scale="  300.000">  1  4  2 -1</clus>
</clustering>
</event>
<event>
 6    1  0.9843879E-012  0.3000000E+03  0.7818608E-02  0.1093470E+00
          1   -1    0    0  502    0  0.00000000000E+00  0.00000000000E+00  0.23113817635E+03  0.23113817635E+03  0.00000000000E+00 0.  1.
         13   -1    0    0    0    0 -0.00000000000E+00 -0.00000000000E+00 -0.27500000000E+03  0.27500000000E+03  0.00000000000E+00 0.  1.
    9000005    2    1    2  501    0  0.10606522663E+02 -0.34492652532E+02 -0.48788592402E+02  0.46971683025E+03  0.46578034787E+03 0.  0.
         13    1    3    3    0    0  0.12270555079E+02 -0.21192255744E+02 -0.25845994867E+03  0.25961745567E+03  0.00000000000E+00 0.  1.
          1    1    3    3  501    0 -0.16640324164E+01 -0.13300396788E+02  0.20967135626E+03  0.21009937457E+03  0.00000000000E+00 0.  1.
         21    1    1    2  502  501 -0.10606522663E+02  0.34492652532E+02  0.49267687516E+01  0.36421346104E+02  0.00000000000E+00 0.  1.
<scales pt_clust_4="550.00000" pt_clust_5="550.00000" pt_clust_6="36.08658"></scales>
<mgrwt>
<rscale>  0 0.30000000E+03</rscale>
<asrwt>  1 0.36086582E+02</asrwt>
<pdfrwt beam="1">  1        1 0.84050246E+00 0.30000000E+03</pdfrwt>
<pdfrwt beam="2">0</pdfrwt>
<totfact> 0.48981393E-04</totfact>
</mgrwt>
<clustering>
<clus scale="   36.087">  1  6  2 -1</clus>
<clus scale="  465.780">  4  5 -1 -1</clus>
<clus scale="  300.000">  1  4  2 -1</clus>
</clustering>
</event>
<event>
 6    1  0.9843879E-012  0.3000000E+03  0.7818608E-02  0.1093470E+00
          1   -1    0    0  502    0  0.00000000000E+00  0.00000000000E+00  0.22603065972E+03  0.22603065972E+03  0.00000000000E+00 0.  1.
         13   -1    0    0    0    0 -0.00000000000E+00 -0.00000000000E+00 -0.27500000000E+03  0.27500000000E+03  0.00000000000E+00 0.  1.
    9000005    2    1    2  501    0 -0.38907717295E+02  0.32453138206E+01 -0.36161404470E+02  0.45994068836E+03  0.45685166861E+03 0.  0.
         13    1    3    3    0    0  0.15874243382E+03  0.27561260047E+02 -0.15867358244E+03  0.22613290144E+03  0.00000000000E+00 0.  1.
          1    1    3    3  501    0 -0.19765015111E+03 -0.24315946226E+02  0.12251217797E+03  0.23380778692E+03  0.00000000000E+00 0.  1.
         21    1    1    2  502  501  0.38907717295E+02 -0.32453138206E+01 -0.12807935805E+02  0.41089971361E+02  0.00000000000E+00 0.  1.
<scales pt_clust_4="550.00000" pt_clust_5="550.00000" pt_clust_6="39.04285"></scales>
<mgrwt>
<rscale>  0 0.30000000E+03</rscale>
<asrwt>  1 0.39042849E+02</asrwt>
<pdfrwt beam="1">  1        1 0.82192967E+00 0.30000000E+03</pdfrwt>
<pdfrwt beam="2">0</pdfrwt>
<totfact> 0.68172556E-04</totfact>
</mgrwt>
<clustering>
<clus scale="   39.043">  1  6  2 -1</clus>
<clus scale="  456.852">  4  5 -1 -1</clus>
<clus scale="  300.000">  1  4  2 -1</clus>
</clustering>
</event>
<event>
 6    1  0.9843879E-012  0.3000000E+03  0.7818608E-02  0.1093470E+00
          1   -1    0    0  502    0  0.00000000000E+00  0.00000000000E+00  0.22506997117E+03  0.22506997117E+03  0.00000000000E+00 0.  1.
         13   -1    0    0    0    0 -0.00000000000E+00 -0.00000000000E+00 -0.27500000000E+03  0.27500000000E+03  0.00000000000E+00 0.  1.
    9000005    2    1    2  501    0 -0.24042828489E+02  0.20968012632E+02 -0.37183174803E+02  0.46571596931E+03  0.46313179596E+03 0.  0.
         13    1    3    3    0    0 -0.18032975073E+03  0.14575320323E+03 -0.10500497749E+03  0.25453656034E+03  0.00000000000E+00 0.  1.
          3    1    3    3  501    0  0.15628692224E+03 -0.12478519060E+03  0.67821802688E+02  0.21117940898E+03  0.00000000000E+00 0.  1.
         21    1    1    2  502  501  0.24042828489E+02 -0.20968012632E+02 -0.12746854032E+02  0.34354001851E+02  0.00000000000E+00 0.  1.
<scales pt_clust_4="550.00000" pt_clust_5="550.00000" pt_clust_6="31.90166"></scales>
<mgrwt>
<rscale>  0 0.30000000E+03</rscale>
<asrwt>  1 0.31901664E+02</asrwt>
<pdfrwt beam="1">  1        1 0.81843626E+00 0.30000000E+03</pdfrwt>
<pdfrwt beam="2">0</pdfrwt>
<totfact> 0.75905937E-04</totfact>
</mgrwt>
<clustering>
<clus scale="   31.902">  1  6  2 -1</clus>
<clus scale="  463.132">  4  5 -1 -1</clus>
<clus scale="  300.000">  1  4  2 -1</clus>
</clustering>
</event>
<event>
 6    1  0.9843879E-012  0.3000000E+03  0.7818608E-02  0.1093470E+00
          1   -1    0    0  502    0  0.00000000000E+00  0.00000000000E+00  0.21947340038E+03  0.21947340038E+03  0.00000000000E+00 0.  1.
         13   -1    0    0    0    0 -0.00000000000E+00 -0.00000000000E+00 -0.27500000000E+03  0.27500000000E+03  0.00000000000E+00 0.  1.
    9000005    2    1    2  501    0 -0.22336283115E+02  0.20584119154E+02 -0.51206582808E+02  0.46379314533E+03  0.45995581530E+03 0.  0.
         13    1    3    3    0    0 -0.80154470862E+02  0.18552565384E+03  0.10644222080E+03  0.22841728000E+03  0.00000000000E+00 0.  1.
          3    1    3    3  501    0  0.57818187747E+02 -0.16494153469E+03 -0.15764880361E+03  0.23537586533E+03  0.00000000000E+00 0.  1.
         21    1    1    2  502  501  0.22336283115E+02 -0.20584119154E+02 -0.43200168101E+01  0.30680255050E+02  0.00000000000E+00 0.  1.
<scales pt_clust_4="550.00000" pt_clust_5="550.00000" pt_clust_6="30.37460"></scales>
<mgrwt>
<rscale>  0 0.30000000E+03</rscale>
<asrwt>  1 0.30374602E+02</asrwt>
<pdfrwt beam="1">  1        1 0.79808509E+00 0.30000000E+03</pdfrwt>
<pdfrwt beam="2">0</pdfrwt>
<totfact> 0.10998272E-03</totfact>
</mgrwt>
<clustering>
<clus scale="   30.375">  1  6  2 -1</clus>
<clus scale="  459.956">  4  5 -1 -1</clus>
<clus scale="  300.000">  1  4  2 -1</clus>
</clustering>
</event>
<event>
 6    1  0.9843879E-012  0.3000000E+03  0.7818608E-02  0.1093470E+00
          1   -1    0    0  502    0  0.00000000000E+00  0.00000000000E+00  0.22205529313E+03  0.22205529313E+03  0.00000000000E+00 0.  1.
         13   -1    0    0    0    0 -0.00000000000E+00 -0.00000000000E+00 -0.27500000000E+03  0.27500000000E+03  0.00000000000E+00 0.  1.
    9000005    2    1    2  501    0  0.33719802203E+02  0.38315548467E+01 -0.55323754443E+02  0.46303521464E+03  0.45846394222E+03 0.  0.
         13    1    3    3    0    0  0.44800357175E+02 -0.18792502047E+03  0.98595347423E+02  0.21689612226E+03  0.00000000000E+00 0.  1.
          1    1    3    3  501    0 -0.11080554972E+02  0.19175657531E+03 -0.15391910187E+03  0.24613909237E+03  0.00000000000E+00 0.  1.
         21    1    1    2  502  501 -0.33719802203E+02 -0.38315548467E+01  0.23790475695E+01  0.34020078491E+02  0.00000000000E+00 0. -1.
<scales pt_clust_4="550.00000" pt_clust_5="550.00000" pt_clust_6="33.93679"></scales>
<mgrwt>
<rscale>  0 0.30000000E+03</rscale>
<asrwt>  1 0.33936792E+02</asrwt>
<pdfrwt beam="1">  1        1 0.80747379E+00 0.30000000E+03</pdfrwt>
<pdfrwt beam="2">0</pdfrwt>
<totfact> 0.91762150E-04</totfact>
</mgrwt>
<clustering>
<clus scale="   33.937">  1  6  2 -1</clus>
<clus scale="  458.464">  4  5 -1 -1</clus>
<clus scale="  300.000">  1  4  2 -1</clus>
</clustering>
</event>
<event>
 6    1  0.9843879E-012  0.3000000E+03  0.7818608E-02  0.1093470E+00
          1   -1    0    0  502    0  0.00000000000E+00  0.00000000000E+00  0.23997831309E+03  0.23997831309E+03  0.00000000000E+00 0.  1.
         13   -1    0    0    0    0 -0.00000000000E+00 -0.00000000000E+00 -0.27500000000E+03  0.27500000000E+03  0.00000000000E+00 0.  1.
    9000005    2    1    2  501    0  0.21299670208E+02  0.38306637798E+02 -0.60176818523E+02  0.46444263167E+03  0.45843716491E+03 0.  0.
         13    1    3    3    0    0 -0.20866687124E+03 -0.36187009993E+02  0.12131338558E+02  0.21212857473E+03  0.00000000000E+00 0.  1.
          1    1    3    3  501    0  0.22996654144E+03  0.74493647792E+02 -0.72308157081E+02  0.25231405693E+03  0.00000000000E+00 0.  1.
         21    1    1    2  502  501 -0.21299670208E+02 -0.38306637798E+02  0.25155131610E+02  0.50535681421E+02  0.00000000000E+00 0.  1.
<scales pt_clust_4="550.00000" pt_clust_5="550.00000" pt_clust_6="43.83006"></scales>
<mgrwt>
<rscale>  0 0.30000000E+03</rscale>
<asrwt>  1 0.43830063E+02</asrwt>
<pdfrwt beam="1">  1        1 0.87264841E+00 0.30000000E+03</pdfrwt>
<pdfrwt beam="2">0</pdfrwt>
<totfact> 0.22834327E-04</totfact>
</mgrwt>
<clustering>
<clus scale="   43.830">  1  6  2 -1</clus>
<clus scale="  458.437">  4  5 -1 -1</clus>
<clus scale="  300.000">  1  4  2 -1</clus>
</clustering>
</event>
<event>
 6    1  0.9843879E-012  0.3000000E+03  0.7818608E-02  0.1093470E+00
          1   -1    0    0  502    0  0.00000000000E+00  0.00000000000E+00  0.22624227343E+03  0.22624227343E+03  0.00000000000E+00 0.  1.
         13   -1    0    0    0    0 -0.00000000000E+00 -0.00000000000E+00 -0.27500000000E+03  0.27500000000E+03  0.00000000000E+00 0.  1.
    9000005    2    1    2  501    0  0.26777898914E+02 -0.23613282041E+02 -0.36615283259E+02  0.46353177239E+03  0.46070205349E+03 0.  0.
         13    1    3    3    0    0  0.27302227674E+02 -0.93863799981E+02 -0.23422518634E+03  0.25380556042E+03  0.00000000000E+00 0.  1.
          1    1    3    3  501    0 -0.52432876037E+00  0.70250517939E+02  0.19760990308E+03  0.20972621197E+03  0.00000000000E+00 0.  1.
         21    1    1    2  502  501 -0.26777898914E+02  0.23613282041E+02 -0.12142443312E+02  0.37710501039E+02  0.00000000000E+00 0.  1.
<scales pt_clust_4="550.00000" pt_clust_5="550.00000" pt_clust_6="35.70216"></scales>
<mgrwt>
<rscale>  0 0.30000000E+03</rscale>
<asrwt>  1 0.35702160E+02</asrwt>
<pdfrwt beam="1">  1        1 0.82269918E+00 0.30000000E+03</pdfrwt>
<pdfrwt beam="2">0</pdfrwt>
<totfact> 0.68227441E-04</totfact>
</mgrwt>
<clustering>
<clus scale="   35.702">  1  6  2 -1</clus>
<clus scale="  460.702">  4  5 -1 -1</clus>
<clus scale="  300.000">  1  4  2 -1</clus>
</clustering>
</event>
<event>
 6    1  0.9843879E-012  0.3000000E+03  0.7818608E-02  0.1093470E+00
          1   -1    0    0  502    0  0.00000000000E+00  0.00000000000E+00  0.22417061654E+03  0.22417061654E+03  0.00000000000E+00 0.  1.
         13   -1    0    0    0    0 -0.00000000000E+00 -0.00000000000E+00 -0.27500000000E+03  0.27500000000E+03  0.00000000000E+00 0.  1.
    9000005    2    1    2  501    0  0.35504276778E+02 -0.87959496609E+01 -0.40312269435E+02  0.46111103053E+03  0.45788686486E+03 0.  0.
         13    1    3    3    0    0  0.15684469133E+03 -0.17968418787E+03 -0.72007440316E+02  0.24914199973E+03  0.00000000000E+00 0.  1.
          1    1    3    3  501    0 -0.12134041455E+03  0.17088823821E+03  0.31695170881E+02  0.21196903080E+03  0.00000000000E+00 0.  1.
         21    1    1    2  502  501 -0.35504276778E+02  0.87959496609E+01 -0.10517114025E+02  0.38059586011E+02  0.00000000000E+00 0.  1.
<scales pt_clust_4="550.00000" pt_clust_5="550.00000" pt_clust_6="36.57764"></scales>
<mgrwt>
<rscale>  0 0.30000000E+03</rscale>
<asrwt>  1 0.36577640E+02</asrwt>
<pdfrwt beam="1">  1        1 0.81516588E+00 0.30000000E+03</pdfrwt>
<pdfrwt beam="2">0</pdfrwt>
<totfact> 0.78709513E-04</totfact>
</mgrwt>
<clustering>
<clus scale="   36.578">  1  6  2 -1</clus>
<clus scale="  457.887">  4  5 -1 -1</clus>
<clus scale="  300.000">  1  4  2 -1</clus>
</clustering>
</event>
<event>
 6    1  0.9843879E-012  0.3000000E+03  0.7818608E-02  0.1093470E+00
          1   -1    0    0  502    0  0.00000000000E+00  0.00000000000E+00  0.23000927588E+03  0.23000927588E+03  0.00000000000E+00 0.  1.
         13   -1    0    0    0    0 -0.00000000000E+00 -0.00000000000E+00 -0.27500000000E+03  0.27500000000E+03  0.00000000000E+00 0.  1.
    9000005    2    1    2  501    0 -0.31983589061E+02 -0.17005929055E+01 -0.50342931645E+02  0.47253639318E+03  0.46875408279E+03 0.  0.
         13    1    3    3    0    0 -0.19972693327E+03  0.33110402882E+02  0.11634992500E+03  0.23350471451E+03  0.00000000000E+00 0.  1.
          1    1    3    3  501    0  0.16774334421E+03 -0.34810995788E+02 -0.16669285664E+03  0.23903167867E+03  0.00000000000E+00 0.  1.
         21    1    1    2  502  501  0.31983589061E+02  0.17005929055E+01  0.53522075257E+01  0.32472882700E+02  0.00000000000E+00 0. -1.
<scales pt_clust_4="550.00000" pt_clust_5="550.00000" pt_clust_6="32.02877"></scales>
<mgrwt>
<rscale>  0 0.30000000E+03</rscale>
<asrwt>  1 0.32028768E+02</asrwt>
<pdfrwt beam="1">  1        1 0.83639737E+00 0.30000000E+03</pdfrwt>
<pdfrwt beam="2">0</pdfrwt>
<totfact> 0.53740156E-04</totfact>
</mgrwt>
<clustering>
<clus scale="   32.029">  1  6  2 -1</clus>
<clus scale="  468.754">  4  5 -1 -1</clus>
<clus scale="  300.000">  1  4  2 -1</clus>
</clustering>
</event>
<event>
 6    1  0.9843879E-012  0.3000000E+03  0.7818608E-02  0.1093470E+00
          1   -1    0    0  502    0  0.00000000000E+00  0.00000000000E+00  0.22558705230E+03  0.22558705230E+03  0.00000000000E+00 0.  1.
         13   -1    0    0    0    0 -0.00000000000E+00 -0.00000000000E+00 -0.27500000000E+03  0.27500000000E+03  0.00000000000E+00 0.  1.
    9000005    2    1    2  501    0  0.14035798952E+02  0.27348186632E+02 -0.23597183279E+02  0.46044504616E+03  0.45881138446E+03 0.  0.
         13    1    3    3    0    0  0.21814706105E+03  0.54210037182E+02  0.68393021889E+02  0.23495632321E+03  0.00000000000E+00 0.  1.
          1    1    3    3  501    0 -0.20411126210E+03 -0.26861850550E+02 -0.91990205168E+02  0.22548872295E+03  0.00000000000E+00 0.  1.
         21    1    1    2  502  501 -0.14035798952E+02 -0.27348186632E+02 -0.25815764420E+02  0.40142006139E+02  0.00000000000E+00 0.  1.
<scales pt_clust_4="550.00000" pt_clust_5="550.00000" pt_clust_6="30.73968"></scales>
<mgrwt>
<rscale>  0 0.30000000E+03</rscale>
<asrwt>  1 0.30739680E+02</asrwt>
<pdfrwt beam="1">  1        1 0.82031655E+00 0.30000000E+03</pdfrwt>
<pdfrwt beam="2">0</pdfrwt>
<totfact> 0.73661027E-04</totfact>
</mgrwt>
<clustering>
<clus scale="   30.740">  1  6  2 -1</clus>
<clus scale="  458.811">  4  5 -1 -1</clus>
<clus scale="  300.000">  1  4  2 -1</clus>
</clustering>
</event>
<event>
 6    1  0.9843879E-012  0.3000000E+03  0.7818608E-02  0.1093470E+00
          1   -1    0    0  502    0  0.00000000000E+00  0.00000000000E+00  0.25881259397E+03  0.25881259397E+03  0.00000000000E+00 0.  1.
         13   -1    0    0    0    0 -0.00000000000E+00 -0.00000000000E+00 -0.27500000000E+03  0.27500000000E+03  0.00000000000E+00 0.  1.
    9000005    2    1    2  501    0 -0.63241361075E+01  0.57676617283E+02 -0.29219645442E+02  0.47434473590E+03  0.46987504075E+03 0.  0.
         13    1    3    3    0    0 -0.17977607694E+03 -0.10057379952E+03 -0.10017505345E+03  0.22906236776E+03  0.00000000000E+00 0.  1.
          1    1    3    3  501    0  0.17345194083E+03  0.15825041680E+03  0.70955408008E+02  0.24528236814E+03  0.00000000000E+00 0.  1.
         21    1    1    2  502  501  0.63241361075E+01 -0.57676617283E+02  0.13032239409E+02  0.59467858065E+02  0.00000000000E+00 0. -1.
<scales pt_clust_4="550.00000" pt_clust_5="550.00000" pt_clust_6="58.02230"></scales>
<mgrwt>
<rscale>  0 0.30000000E+03</rscale>
<asrwt>  1 0.58022296E+02</asrwt>
<pdfrwt beam="1">  1        1 0.94113671E+00 0.30000000E+03</pdfrwt>
<pdfrwt beam="2">0</pdfrwt>
<totfact> 0.16733622E-05</totfact>
</mgrwt>
<clustering>
<clus scale="   58.022">  1  6  2 -1</clus>
<clus scale="  469.875">  4  5 -1 -1</clus>
<clus scale="  300.000">  1  4  2 -1</clus>
</clustering>
</event>
<event>
 6    1  0.9843879E-012  0.3000000E+03  0.7818608E-02  0.1093470E+00
          1   -1    0    0  502    0  0.00000000000E+00  0.00000000000E+00  0.25831541257E+03  0.25831541257E+03  0.00000000000E+00 0.  1.
         13   -1    0    0    0    0 -0.00000000000E+00 -0.00000000000E+00 -0.27500000000E+03  0.27500000000E+03  0.00000000000E+00 0.  1.
    9000005    2    1    2  501    0  0.43461506531E+02  0.28093165816E+02 -0.61430356503E+01  0.48050203519E+03  0.47766760453E+03 0.  0.
         13    1    3    3    0    0 -0.21023258975E+03  0.73488818338E+02 -0.69832185483E-01  0.22270687706E+03  0.00000000000E+00 0.  1.
          1    1    3    3  501    0  0.25369409628E+03 -0.45395652522E+02 -0.60732034648E+01  0.25779515813E+03  0.00000000000E+00 0.  1.
         21    1    1    2  502  501 -0.43461506531E+02 -0.28093165816E+02 -0.10541551784E+02  0.52813377373E+02  0.00000000000E+00 0.  1.
<scales pt_clust_4="550.00000" pt_clust_5="550.00000" pt_clust_6="51.75066"></scales>
<mgrwt>
<rscale>  0 0.30000000E+03</rscale>
<asrwt>  1 0.51750664E+02</asrwt>
<pdfrwt beam="1">  1        1 0.93932877E+00 0.30000000E+03</pdfrwt>
<pdfrwt beam="2">0</pdfrwt>
<totfact> 0.18318064E-05</totfact>
</mgrwt>
<clustering>
<clus scale="   51.751">  1  6  2 -1</clus>
<clus scale="  477.668">  4  5 -1 -1</clus>
<clus scale="  300.000">  1  4  2 -1</clus>
</clustering>
</event>
<event>
 6    1  0.9843879E-012  0.3000000E+03  0.7818608E-02  0.1093470E+00
          1   -1    0    0  502    0  0.00000000000E+00  0.00000000000E+00  0.23836000514E+03  0.23836000514E+03  0.00000000000E+00 0.  1.
         13   -1    0    0    0    0 -0.00000000000E+00 -0.00000000000E+00 -0.27500000000E+03  0.27500000000E+03  0.00000000000E+00 0.  1.
    9000005    2    1    2  501    0 -0.45193656528E+01 -0.46365397781E+02 -0.40998101419E+02  0.46657146093E+03  0.46242611199E+03 0.  0.
         13    1    3    3    0    0 -0.20584474929E+03 -0.12839543503E+03  0.11673100142E+02  0.24288620754E+03  0.00000000000E+00 0.  1.
          1    1    3    3  501    0  0.20132538364E+03  0.82030037248E+02 -0.52671201561E+02  0.22368525338E+03  0.00000000000E+00 0.  1.
         21    1    1    2  502  501  0.45193656528E+01  0.46365397781E+02  0.43581065622E+01  0.46788544218E+02  0.00000000000E+00 0. -1.
<scales pt_clust_4="550.00000" pt_clust_5="550.00000" pt_clust_6="46.58513"></scales>
<mgrwt>
<rscale>  0 0.30000000E+03</rscale>
<asrwt>  1 0.46585135E+02</asrwt>
<pdfrwt beam="1">  1        1 0.86676366E+00 0.30000000E+03</pdfrwt>
<pdfrwt beam="2">0</pdfrwt>
<totfact> 0.25969214E-04</totfact>
</mgrwt>
<clustering>
<clus scale="   46.585">  1  6  2 -1</clus>
<clus scale="  462.426">  4  5 -1 -1</clus>
<clus scale="  300.000">  1  4  2 -1</clus>
</clustering>
</event>
<event>
 6    1  0.9843879E-012  0.3000000E+03  0.7818608E-02  0.1093470E+00
          1   -1    0    0  502    0  0.00000000000E+00  0.00000000000E+00  0.23238605402E+03  0.23238605402E+03  0.00000000000E+00 0.  1.
         13   -1    0    0    0    0 -0.00000000000E+00 -0.00000000000E+00 -0.27500000000E+03  0.27500000000E+03  0.00000000000E+00 0.  1.
    9000005    2    1    2  501    0 -0.89414389144E+01  0.29225825055E+02 -0.71366515035E+02  0.46542406637E+03  0.45890334920E+03 0.  0.
         13    1    3    3    0    0  0.25336306236E+02  0.10632382256E+03 -0.24725981179E+03  0.27034070759E+03  0.00000000000E+00 0.  1.
          3    1    3    3  501    0 -0.34277745150E+02 -0.77097997500E+02  0.17589329675E+03  0.19508335878E+03  0.00000000000E+00 0.  1.
         21    1    1    2  502  501  0.89414389144E+01 -0.29225825055E+02  0.28752569053E+02  0.41961987646E+02  0.00000000000E+00 0. -1.
<scales pt_clust_4="550.00000" pt_clust_5="550.00000" pt_clust_6="30.56302"></scales>
<mgrwt>
<rscale>  0 0.30000000E+03</rscale>
<asrwt>  1 0.30563020E+02</asrwt>
<pdfrwt beam="1">  1        1 0.84504020E+00 0.30000000E+03</pdfrwt>
<pdfrwt beam="2">0</pdfrwt>
<totfact> 0.46320209E-04</totfact>
</mgrwt>
<clustering>
<clus scale="   30.563">  1  6  2 -1</clus>
<clus scale="  458.903">  4  5 -1 -1</clus>
<clus scale="  300.000">  1  4  2 -1</clus>
</clustering>
</event>
<event>
 6    1  0.9843879E-012  0.3000000E+03  0.7818608E-02  0.1093470E+00
          1   -1    0    0  502    0  0.00000000000E+00  0.00000000000E+00  0.23681621358E+03  0.23681621358E+03  0.00000000000E+00 0.  1.
         13   -1    0    0    0    0 -0.00000000000E+00 -0.00000000000E+00 -0.27500000000E+03  0.27500000000E+03  0.00000000000E+00 0.  1.
    9000005    2    1    2  501    0 -0.20724813015E+02 -0.29544286308E+02 -0.31483821923E+02  0.47511100615E+03  0.47269107713E+03 0.  0.
         13    1    3    3    0    0 -0.48246674669E+02 -0.15657551203E+03  0.16951213286E+03  0.23574985848E+03  0.00000000000E+00 0.  1.
          1    1    3    3  501    0  0.27521861655E+02  0.12703122572E+03 -0.20099595479E+03  0.23936114768E+03  0.00000000000E+00 0.  1.
         21    1    1    2  502  501  0.20724813015E+02  0.29544286308E+02 -0.66999644981E+01  0.36705207427E+02  0.00000000000E+00 0.  1.
<scales pt_clust_4="550.00000" pt_clust_5="550.00000" pt_clust_6="36.08856"></scales>
<mgrwt>
<rscale>  0 0.30000000E+03</rscale>
<asrwt>  1 0.36088558E+02</asrwt>
<pdfrwt beam="1">  1        1 0.86114987E+00 0.30000000E+03</pdfrwt>
<pdfrwt beam="2">0</pdfrwt>
<totfact> 0.31262338E-04</totfact>
</mgrwt>
<clustering>
<clus scale="   36.089">  1  6  2 -1</clus>
<clus scale="  472.691">  4  5 -1 -1</clus>
<clus scale="  300.000">  1  4  2 -1</clus>
</clustering>
</event>
<event>
 6    1  0.9843879E-012  0.3000000E+03  0.7818608E-02  0.1093470E+00
          1   -1    0    0  502    0  0.00000000000E+00  0.00000000000E+00  0.25048081830E+03  0.25048081830E+03  0.00000000000E+00 0.  1.
         13   -1    0    0    0    0 -0.00000000000E+00 -0.00000000000E+00 -0.27500000000E+03  0.27500000000E+03  0.00000000000E+00 0.  1.
    9000005    2    1    2  501    0  0.23544583216E+02  0.23379133816E+02 -0.14109126760E+02  0.49070581952E+03  0.48937940552E+03 0.  0.
         13    1    3    3    0    0  0.21139225886E+03 -0.12867619854E+03  0.11055836907E+02  0.24772259224E+03  0.00000000000E+00 0.  1.
          1    1    3    3  501    0 -0.18784767564E+03  0.15205533235E+03 -0.25164963667E+02  0.24298322728E+03  0.00000000000E+00 0.  1.
         21    1    1    2  502  501 -0.23544583216E+02 -0.23379133816E+02 -0.10410054938E+02  0.34774998787E+02  0.00000000000E+00 0. -1.
<scales pt_clust_4="550.00000" pt_clust_5="550.00000" pt_clust_6="33.18030"></scales>
<mgrwt>
<rscale>  0 0.30000000E+03</rscale>
<asrwt>  1 0.33180301E+02</asrwt>
<pdfrwt beam="1">  1        1 0.91083934E+00 0.30000000E+03</pdfrwt>
<pdfrwt beam="2">0</pdfrwt>
<totfact> 0.69219179E-05</totfact>
</mgrwt>
<clustering>
<clus scale="   33.180">  1  6  2 -1</clus>
<clus scale="  489.379">  4  5 -1 -1</clus>
<clus scale="  300.000">  1  4  2 -1</clus>
</clustering>
</event>
<event>
 6    1  0.9843879E-012  0.3000000E+03  0.7818608E-02  0.1093470E+00
          1   -1    0    0  502    0  0.00000000000E+00  0.00000000000E+00  0.25156689876E+03  0.25156689876E+03  0.00000000000E+00 0.  1.
         13   -1    0    0    0    0 -0.00000000000E+00 -0.00000000000E+00 -0.27500000000E+03  0.27500000000E+03  0.00000000000E+00 0.  1.
    9000005    2    1    2  501    0  0.47229134352E+02  0.12852604499E+02 -0.27510522871E+02  0.47745064950E+03  0.47413765223E+03 0.  0.
         13    1    3    3    0    0  0.12389397972E+03  0.20913282406E+03  0.58229556391E+02  0.24995387084E+03  0.00000000000E+00 0.  1.
          1    1    3    3  501    0 -0.76664845365E+02 -0.19628021956E+03 -0.85740079262E+02  0.22749677866E+03  0.00000000000E+00 0.  1.
         21    1    1    2  502  501 -0.47229134352E+02 -0.12852604499E+02  0.40774216269E+01  0.49116249258E+02  0.00000000000E+00 0.  1.
<scales pt_clust_4="550.00000" pt_clust_5="550.00000" pt_clust_6="48.94671"></scales>
<mgrwt>
<rscale>  0 0.30000000E+03</rscale>
<asrwt>  1 0.48946712E+02</asrwt>
<pdfrwt beam="1">  1        1 0.91478872E+00 0.30000000E+03</pdfrwt>
<pdfrwt beam="2">0</pdfrwt>
<totfact> 0.51530371E-05</totfact>
</mgrwt>
<clustering>
<clus scale="   48.947">  1  6  2 -1</clus>
<clus scale="  474.138">  4  5 -1 -1</clus>
<clus scale="  300.000">  1  4  2 -1</clus>
</clustering>
</event>
<event>
 6    1  0.9843879E-012  0.3000000E+03  0.7818608E-02  0.1093470E+00
          1   -1    0    0  502    0  0.00000000000E+00  0.00000000000E+00  0.23341761493E+03  0.23341761493E+03  0.00000000000E+00 0.  1.
         13   -1    0    0    0    0 -0.00000000000E+00 -0.00000000000E+00 -0.27500000000E+03  0.27500000000E+03  0.00000000000E+00 0.  1.
    9000005    2    1    2  501    0  0.47469278999E+01  0.30510701524E+02 -0.72903892336E+02  0.46443497006E+03  0.45763678575E+03 0.  0.
         13    1    3    3    0    0 -0.18224901751E+03 -0.11640228360E+03 -0.19071083592E+01  0.21625871791E+03  0.00000000000E+00 0.  1.
          3    1    3    3  501    0  0.18699594541E+03  0.14691298513E+03 -0.70996783977E+02  0.24817625215E+03  0.00000000000E+00 0.  1.
         21    1    1    2  502  501 -0.47469278999E+01 -0.30510701524E+02  0.31321507263E+02  0.43982644864E+02  0.00000000000E+00 0. -1.
<scales pt_clust_4="550.00000" pt_clust_5="550.00000" pt_clust_6="30.87776"></scales>
<mgrwt>
<rscale>  0 0.30000000E+03</rscale>
<asrwt>  1 0.30877763E+02</asrwt>
<pdfrwt beam="1">  1        1 0.84879133E+00 0.30000000E+03</pdfrwt>
<pdfrwt beam="2">0</pdfrwt>
<totfact> 0.42770001E-04</totfact>
</mgrwt>
<clustering>
<clus scale="   30.878">  1  6  2 -1</clus>
<clus scale="  457.637">  4  5 -1 -1</clus>
<clus scale="  300.000">  1  4  2 -1</clus>
</clustering>
</event>
<event>
 6    1  0.9843879E-012  0.3000000E+03  0.7818608E-02  0.1093470E+00
          1   -1    0    0  502    0  0.00000000000E+00  0.00000000000E+00  0.23639479679E+03  0.23639479679E+03  0.00000000000E+00 0.  1.
         13   -1    0    0    0    0 -0.00000000000E+00 -0.00000000000E+00 -0.27500000000E+03  0.27500000000E+03  0.00000000000E+00 0.  1.
    9000005    2    1    2  501    0  0.15132389023E+02  0.29446927320E+02 -0.57599960644E+02  0.47322528623E+03  0.46853847797E+03 0.  0.
         13    1    3    3    0    0  0.32283556973E+02  0.41572915656E+02  0.20405204931E+03  0.21073152160E+03  0.00000000000E+00 0.  1.
          1    1    3    3  501    0 -0.17151167950E+02 -0.12125988336E+02 -0.26165200996E+03  0.26249376463E+03  0.00000000000E+00 0.  1.
         21    1    1    2  502  501 -0.15132389023E+02 -0.29446927320E+02  0.18994757434E+02  0.38169510556E+02  0.00000000000E+00 0.  1.
<scales pt_clust_4="550.00000" pt_clust_5="550.00000" pt_clust_6="33.10756"></scales>
<mgrwt>
<rscale>  0 0.30000000E+03</rscale>
<asrwt>  1 0.33107563E+02</asrwt>
<pdfrwt beam="1">  1        1 0.85961744E+00 0.30000000E+03</pdfrwt>
<pdfrwt beam="2">0</pdfrwt>
<totfact> 0.32994217E-04</totfact>
</mgrwt>
<clustering>
<clus scale="   33.108">  1  6  2 -1</clus>
<clus scale="  468.538">  4  5 -1 -1</clus>
<clus scale="  300.000">  1  4  2 -1</clus>
</clustering>
</event>
<event>
 6    1  0.9843879E-012  0.3000000E+03  0.7818608E-02  0.1093470E+00
          1   -1    0    0  502    0  0.00000000000E+00  0.00000000000E+00  0.24023069483E+03  0.24023069483E+03  0.00000000000E+00 0.  1.
         13   -1    0    0    0    0 -0.00000000000E+00 -0.00000000000E+00 -0.27500000000E+03  0.27500000000E+03  0.00000000000E+00 0.  1.
    9000005    2    1    2  501    0  0.17727252044E+01  0.45755546878E+02 -0.43876791738E+02  0.46854387724E+03  0.46423213958E+03 0.  0.
         13    1    3    3    0    0  0.10646223761E+02  0.22000497427E+03  0.10047360388E+03  0.24209600546E+03  0.00000000000E+00 0.  1.
          1    1    3    3  501    0 -0.88734985565E+01 -0.17424942739E+03 -0.14435039561E+03  0.22644787178E+03  0.00000000000E+00 0.  1.
         21    1    1    2  502  501 -0.17727252044E+01 -0.45755546878E+02  0.91074865651E+01  0.46686817586E+02  0.00000000000E+00 0.  1.
<scales pt_clust_4="550.00000" pt_clust_5="550.00000" pt_clust_6="45.78987"></scales>
<mgrwt>
<rscale>  0 0.30000000E+03</rscale>
<asrwt>  1 0.45789875E+02</asrwt>
<pdfrwt beam="1">  1        1 0.87356616E+00 0.30000000E+03</pdfrwt>
<pdfrwt beam="2">0</pdfrwt>
<totfact> 0.22168453E-04</totfact>
</mgrwt>
<clustering>
<clus scale="   45.790">  1  6  2 -1</clus>
<clus scale="  464.232">  4  5 -1 -1</clus>
<clus scale="  300.000">  1  4  2 -1</clus>
</clustering>
</event>
<event>
 6    1  0.9843879E-012  0.3000000E+03  0.7818608E-02  0.1093470E+00
          1   -1    0    0  502    0  0.00000000000E+00  0.00000000000E+00  0.24296554360E+03  0.24296554360E+03  0.00000000000E+00 0.  1.
         13   -1    0    0    0    0 -0.00000000000E+00 -0.00000000000E+00 -0.27500000000E+03  0.27500000000E+03  0.00000000000E+00 0.  1.
    9000005    2    1    2  501    0  0.28180827586E+02  0.21420228316E+02  0.11546511726E+01  0.46944233177E+03  0.46810445887E+03 0.  0.
         13    1    3    3    0    0 -0.54121456582E+02  0.39779253504E+02  0.22258523254E+03  0.23249883186E+03  0.00000000000E+00 0.  1.
          3    1    3    3  501    0  0.82302284168E+02 -0.18359025188E+02 -0.22143058137E+03  0.23694349991E+03  0.00000000000E+00 0.  1.
         21    1    1    2  502  501 -0.28180827586E+02 -0.21420228316E+02 -0.33189107574E+02  0.48523211828E+02  0.00000000000E+00 0.  1.
<scales pt_clust_4="550.00000" pt_clust_5="550.00000" pt_clust_6="35.39755"></scales>
<mgrwt>
<rscale>  0 0.30000000E+03</rscale>
<asrwt>  1 0.35397549E+02</asrwt>
<pdfrwt beam="1">  1        1 0.88351107E+00 0.30000000E+03</pdfrwt>
<pdfrwt beam="2">0</pdfrwt>
<totfact> 0.17741914E-04</totfact>
</mgrwt>
<clustering>
<clus scale="   35.398">  1  6  2 -1</clus>
<clus scale="  468.104">  4  5 -1 -1</clus>
<clus scale="  300.000">  1  4  2 -1</clus>
</clustering>
</event>
<event>
 6    1  0.9843879E-012  0.3000000E+03  0.7818608E-02  0.1093470E+00
          1   -1    0    0  502    0  0.00000000000E+00  0.00000000000E+00  0.24210588345E+03  0.24210588345E+03  0.00000000000E+00 0.  1.
         13   -1    0    0    0    0 -0.00000000000E+00 -0.00000000000E+00 -0.27500000000E+03  0.27500000000E+03  0.00000000000E+00 0.  1.
    9000005    2    1    2  501    0 -0.22108555565E+02 -0.31856027644E+02 -0.67681035359E+02  0.46501246307E+03  0.45842368344E+03 0.  0.
         13    1    3    3    0    0 -0.16376968668E+03 -0.68030440987E+02 -0.20036719392E+03  0.26757366009E+03  0.00000000000E+00 0.  1.
          3    1    3    3  501    0  0.14166113112E+03  0.36174413343E+02  0.13268615856E+03  0.19743880298E+03  0.00000000000E+00 0.  1.
         21    1    1    2  502  501  0.22108555565E+02  0.31856027644E+02  0.34786918806E+02  0.52093420375E+02  0.00000000000E+00 0.  1.
<scales pt_clust_4="550.00000" pt_clust_5="550.00000" pt_clust_6="38.77621"></scales>
<mgrwt>
<rscale>  0 0.30000000E+03</rscale>
<asrwt>  1 0.38776213E+02</asrwt>
<pdfrwt beam="1">  1        1 0.88038503E+00 0.30000000E+03</pdfrwt>
<pdfrwt beam="2">0</pdfrwt>
<totfact> 0.19154822E-04</totfact>
</mgrwt>
<clustering>
<clus scale="   38.776">  1  6  2 -1</clus>
<clus scale="  458.424">  4  5 -1 -1</clus>
<clus scale="  300.000">  1  4  2 -1</clus>
</clustering>
</event>
<event>
 6    1  0.9843879E-012  0.3000000E+03  0.7818608E-02  0.1093470E+00
          1   -1    0    0  502    0  0.00000000000E+00  0.00000000000E+00  0.25051632431E+03  0.25051632431E+03  0.00000000000E+00 0.  1.
         13   -1    0    0    0    0 -0.00000000000E+00 -0.00000000000E+00 -0.27500000000E+03  0.27500000000E+03  0.00000000000E+00 0.  1.
    9000005    2    1    2  501    0  0.62339337958E+01  0.35325352543E+02 -0.54105861765E+02  0.47899518535E+03  0.47457581148E+03 0.  0.
         13    1    3    3    0    0 -0.20654675170E+03  0.45840875131E+02 -0.13515615987E+03  0.25105802919E+03  0.00000000000E+00 0.  1.
          3    1    3    3  501    0  0.21278068549E+03 -0.10515522587E+02  0.81050298103E+02  0.22793715616E+03  0.00000000000E+00 0.  1.
         21    1    1    2  502  501 -0.62339337958E+01 -0.35325352543E+02  0.29622186079E+02  0.46521138969E+02  0.00000000000E+00 0. -1.
<scales pt_clust_4="550.00000" pt_clust_5="550.00000" pt_clust_6="35.87119"></scales>
<mgrwt>
<rscale>  0 0.30000000E+03</rscale>
<asrwt>  1 0.35871193E+02</asrwt>
<pdfrwt beam="1">  1        1 0.91096845E+00 0.30000000E+03</pdfrwt>
<pdfrwt beam="2">0</pdfrwt>
<totfact> 0.67713409E-05</totfact>
</mgrwt>
<clustering>
<clus scale="   35.871">  1  6  2 -1</clus>
<clus scale="  474.576">  4  5 -1 -1</clus>
<clus scale="  300.000">  1  4  2 -1</clus>
</clustering>
</event>
<event>
 6    1  0.9843879E-012  0.3000000E+03  0.7818608E-02  0.1093470E+00
          1   -1    0    0  502    0  0.00000000000E+00  0.00000000000E+00  0.25074575310E+03  0.25074575310E+03  0.00000000000E+00 0.  1.
         13   -1    0    0    0    0 -0.00000000000E+00 -0.00000000000E+00 -0.27500000000E+03  0.27500000000E+03  0.00000000000E+00 0.  1.
    9000005    2    1    2  501    0  0.43478519048E+02 -0.10823833434E+02 -0.32280015828E+02  0.48022707610E+03  0.47704141142E+03 0.  0.
         13    1    3    3    0    0 -0.85096655731E+02 -0.11091723334E+03 -0.20154105215E+03  0.24528120427E+03  0.00000000000E+00 0.  1.
          1    1    3    3  501    0  0.12857517478E+03  0.10009339991E+03  0.16926103632E+03  0.23494587183E+03  0.00000000000E+00 0.  1.
         21    1    1    2  502  501 -0.43478519048E+02  0.10823833434E+02  0.80257689265E+01  0.45518676999E+02  0.00000000000E+00 0.  1.
<scales pt_clust_4="550.00000" pt_clust_5="550.00000" pt_clust_6="44.80555"></scales>
<mgrwt>
<rscale>  0 0.30000000E+03</rscale>
<asrwt>  1 0.44805546E+02</asrwt>
<pdfrwt beam="1">  1        1 0.91180274E+00 0.30000000E+03</pdfrwt>
<pdfrwt beam="2">0</pdfrwt>
<totfact> 0.61978516E-05</totfact>
</mgrwt>
<clustering>
<clus scale="   44.806">  1  6  2 -1</clus>
<clus scale="  477.041">  4  5 -1 -1</clus>
<clus scale="  300.000">  1  4  2 -1</clus>
</clustering>
</event>
<event>
 6    1  0.9843879E-012  0.3000000E+03  0.7818608E-02  0.1093470E+00
          1   -1    0    0  502    0  0.00000000000E+00  0.00000000000E+00  0.22864191429E+03  0.22864191429E+03  0.00000000000E+00 0.  1.
         13   -1    0    0    0    0 -0.00000000000E+00 -0.00000000000E+00 -0.27500000000E+03  0.27500000000E+03  0.00000000000E+00 0.  1.
    9000005    2    1    2  501    0  0.26193667343E+02  0.22921355922E+02 -0.49434435126E+02  0.46869966634E+03  0.46478394667E+03 0.  0.
         13    1    3    3    0    0 -0.10474897193E+03 -0.79179582246E+02 -0.20350249430E+03  0.24218798185E+03  0.00000000000E+00 0.  1.
          3    1    3    3  501    0  0.13094263927E+03  0.10210093817E+03  0.15406805917E+03  0.22651168449E+03  0.00000000000E+00 0.  1.
         21    1    1    2  502  501 -0.26193667343E+02 -0.22921355922E+02  0.30763494185E+01  0.34942247951E+02  0.00000000000E+00 0. -1.
<scales pt_clust_4="550.00000" pt_clust_5="550.00000" pt_clust_6="34.80656"></scales>
<mgrwt>
<rscale>  0 0.30000000E+03</rscale>
<asrwt>  1 0.34806562E+02</asrwt>
<pdfrwt beam="1">  1        1 0.83142514E+00 0.30000000E+03</pdfrwt>
<pdfrwt beam="2">0</pdfrwt>
<totfact> 0.57619566E-04</totfact>
</mgrwt>
<clustering>
<clus scale="   34.807">  1  6  2 -1</clus>
<clus scale="  464.784">  4  5 -1 -1</clus>
<clus scale="  300.000">  1  4  2 -1</clus>
</clustering>
</event>
<event>
 6    1  0.9843879E-012  0.3000000E+03  0.7818608E-02  0.1093470E+00
          1   -1    0    0  502    0  0.00000000000E+00  0.00000000000E+00  0.23002639689E+03  0.23002639689E+03  0.00000000000E+00 0.  1.
         13   -1    0    0    0    0 -0.00000000000E+00 -0.00000000000E+00 -0.27500000000E+03  0.27500000000E+03  0.00000000000E+00 0.  1.
    9000005    2    1    2  501    0 -0.37970736248E+02  0.11023449575E+01 -0.61964999867E+02  0.46341270276E+03  0.45767748458E+03 0.  0.
         13    1    3    3    0    0 -0.92880747459E+02 -0.21562033875E+03 -0.46281939193E+02  0.23929266939E+03  0.00000000000E+00 0.  1.
          1    1    3    3  501    0  0.54910011211E+02  0.21672268370E+03 -0.15683060674E+02  0.22412003336E+03  0.00000000000E+00 0.  1.
         21    1    1    2  502  501  0.37970736248E+02 -0.11023449575E+01  0.16991396755E+02  0.41613694132E+02  0.00000000000E+00 0.  1.
<scales pt_clust_4="550.00000" pt_clust_5="550.00000" pt_clust_6="37.98673"></scales>
<mgrwt>
<rscale>  0 0.30000000E+03</rscale>
<asrwt>  1 0.37986734E+02</asrwt>
<pdfrwt beam="1">  1        1 0.83645963E+00 0.30000000E+03</pdfrwt>
<pdfrwt beam="2">0</pdfrwt>
<totfact> 0.51997104E-04</totfact>
</mgrwt>
<clustering>
<clus scale="   37.987">  1  6  2 -1</clus>
<clus scale="  457.677">  4  5 -1 -1</clus>
<clus scale="  300.000">  1  4  2 -1</clus>
</clustering>
</event>
<event>
 6    1  0.9843879E-012  0.3000000E+03  0.7818608E-02  0.1093470E+00
          1   -1    0    0  502    0  0.00000000000E+00  0.00000000000E+00  0.24342228771E+03  0.24342228771E+03  0.00000000000E+00 0.  1.
         13   -1    0    0    0    0 -0.00000000000E+00 -0.00000000000E+00 -0.27500000000E+03  0.27500000000E+03  0.00000000000E+00 0.  1.
    9000005    2    1    2  501    0  0.26263413179E+01  0.32928617449E+02 -0.58513020373E+02  0.47579949642E+03  0.47103099232E+03 0.  0.
         13    1    3    3    0    0 -0.45919883592E+02 -0.16921234693E+03  0.11103869803E+03  0.20753565121E+03  0.00000000000E+00 0.  1.
          3    1    3    3  501    0  0.48546224910E+02  0.20214096438E+03 -0.16955171840E+03  0.26826384521E+03  0.00000000000E+00 0.  1.
         21    1    1    2  502  501 -0.26263413179E+01 -0.32928617449E+02  0.26935308080E+02  0.42622791288E+02  0.00000000000E+00 0.  1.
<scales pt_clust_4="550.00000" pt_clust_5="550.00000" pt_clust_6="33.03319"></scales>
<mgrwt>
<rscale>  0 0.30000000E+03</rscale>
<asrwt>  1 0.33033188E+02</asrwt>
<pdfrwt beam="1">  1        1 0.88517196E+00 0.30000000E+03</pdfrwt>
<pdfrwt beam="2">0</pdfrwt>
<totfact> 0.17063477E-04</totfact>
</mgrwt>
<clustering>
<clus scale="   33.033">  1  6  2 -1</clus>
<clus scale="  471.031">  4  5 -1 -1</clus>
<clus scale="  300.000">  1  4  2 -1</clus>
</clustering>
</event>
<event>
 6    1  0.9843879E-012  0.3000000E+03  0.7818608E-02  0.1093470E+00
          1   -1    0    0  502    0  0.00000000000E+00  0.00000000000E+00  0.22246935800E+03  0.22246935800E+03  0.00000000000E+00 0.  1.
         13   -1    0    0    0    0 -0.00000000000E+00 -0.00000000000E+00 -0.27500000000E+03  0.27500000000E+03  0.00000000000E+00 0.  1.
    9000005    2    1    2  501    0 -0.69646091124E+01  0.29281666900E+02 -0.62431256610E+02  0.46578428318E+03  0.46059897401E+03 0.  0.
         13    1    3    3    0    0  0.85514305168E+02 -0.75227114234E+02  0.16408050375E+03  0.19973539199E+03  0.00000000000E+00 0.  1.
          3    1    3    3  501    0 -0.92478914281E+02  0.10450878113E+03 -0.22651176036E+03  0.26604889119E+03  0.00000000000E+00 0.  1.
         21    1    1    2  502  501  0.69646091124E+01 -0.29281666900E+02  0.99006146072E+01  0.31685074816E+02  0.00000000000E+00 0.  1.
<scales pt_clust_4="550.00000" pt_clust_5="550.00000" pt_clust_6="30.09853"></scales>
<mgrwt>
<rscale>  0 0.30000000E+03</rscale>
<asrwt>  1 0.30098535E+02</asrwt>
<pdfrwt beam="1">  1        1 0.80897948E+00 0.30000000E+03</pdfrwt>
<pdfrwt beam="2">0</pdfrwt>
<totfact> 0.91401759E-04</totfact>
</mgrwt>
<clustering>
<clus scale="   30.099">  1  6  2 -1</clus>
<clus scale="  460.599">  4  5 -1 -1</clus>
<clus scale="  300.000">  1  4  2 -1</clus>
</clustering>
</event>
<event>
 6    1  0.9843879E-012  0.3000000E+03  0.7818608E-02  0.1093470E+00
          1   -1    0    0  502    0  0.00000000000E+00  0.00000000000E+00  0.22367406522E+03  0.22367406522E+03  0.00000000000E+00 0.  1.
         13   -1    0    0    0    0 -0.00000000000E+00 -0.00000000000E+00 -0.27500000000E+03  0.27500000000E+03  0.00000000000E+00 0.  1.
    9000005    2    1    2  501    0 -0.22663422532E+02  0.27897497033E+02 -0.42671815592E+02  0.46170387668E+03  0.45832050449E+03 0.  0.
         13    1    3    3    0    0 -0.62989408464E+02  0.53972462946E+02 -0.24244363229E+03  0.25624130653E+03  0.00000000000E+00 0.  1.
          3    1    3    3  501    0  0.40325985932E+02 -0.26074965913E+02  0.19977181669E+03  0.20546257015E+03  0.00000000000E+00 0.  1.
         21    1    1    2  502  501  0.22663422532E+02 -0.27897497033E+02 -0.86541191884E+01  0.36970188537E+02  0.00000000000E+00 0. -1.
<scales pt_clust_4="550.00000" pt_clust_5="550.00000" pt_clust_6="35.94304"></scales>
<mgrwt>
<rscale>  0 0.30000000E+03</rscale>
<asrwt>  1 0.35943043E+02</asrwt>
<pdfrwt beam="1">  1        1 0.81336024E+00 0.30000000E+03</pdfrwt>
<pdfrwt beam="2">0</pdfrwt>
<totfact> 0.81648225E-04</totfact>
</mgrwt>
<clustering>
<clus scale="   35.943">  1  6  2 -1</clus>
<clus scale="  458.321">  4  5 -1 -1</clus>
<clus scale="  300.000">  1  4  2 -1</clus>
</clustering>
</event>
<event>
 6    1  0.9843879E-012  0.3000000E+03  0.7818608E-02  0.1093470E+00
          1   -1    0    0  502    0  0.00000000000E+00  0.00000000000E+00  0.23910244956E+03  0.23910244956E+03  0.00000000000E+00 0.  1.
         13   -1    0    0    0    0 -0.00000000000E+00 -0.00000000000E+00 -0.27500000000E+03  0.27500000000E+03  0.00000000000E+00 0.  1.
    9000005    2    1    2  501    0  0.17526047834E+02  0.27311094151E+02 -0.48668780018E+02  0.47922892778E+03  0.47564551597E+03 0.  0.
         13    1    3    3    0    0 -0.13062576627E+03  0.24553141825E+02  0.16956188122E+03  0.21544646470E+03  0.00000000000E+00 0.  1.
          1    1    3    3  501    0  0.14815181410E+03  0.27579523262E+01 -0.21823066124E+03  0.26378246308E+03  0.00000000000E+00 0.  1.
         21    1    1    2  502  501 -0.17526047834E+02 -0.27311094151E+02  0.12771229581E+02  0.34873521781E+02  0.00000000000E+00 0.  1.
<scales pt_clust_4="550.00000" pt_clust_5="550.00000" pt_clust_6="32.45086"></scales>
<mgrwt>
<rscale>  0 0.30000000E+03</rscale>
<asrwt>  1 0.32450858E+02</asrwt>
<pdfrwt beam="1">  1        1 0.86946345E+00 0.30000000E+03</pdfrwt>
<pdfrwt beam="2">0</pdfrwt>
<totfact> 0.26015455E-04</totfact>
</mgrwt>
<clustering>
<clus scale="   32.451">  1  6  2 -1</clus>
<clus scale="  475.646">  4  5 -1 -1</clus>
<clus scale="  300.000">  1  4  2 -1</clus>
</clustering>
</event>
<event>
 6    1  0.9843879E-012  0.3000000E+03  0.7818608E-02  0.1093470E+00
          1   -1    0    0  502    0  0.00000000000E+00  0.00000000000E+00  0.21995691971E+03  0.21995691971E+03  0.00000000000E+00 0.  1.
         13   -1    0    0    0    0 -0.00000000000E+00 -0.00000000000E+00 -0.27500000000E+03  0.27500000000E+03  0.00000000000E+00 0.  1.
    9000005    2    1    2  501    0 -0.26694953550E+02  0.16051050486E+02 -0.65881583672E+02  0.46197616893E+03  0.45619221916E+03 0.  0.
         13    1    3    3    0    0  0.96609997619E+02 -0.58966055663E+02 -0.22210748074E+03  0.24928341373E+03  0.00000000000E+00 0.  1.
          3    1    3    3  501    0 -0.12330495117E+03  0.75017106149E+02  0.15622589707E+03  0.21269275520E+03  0.00000000000E+00 0.  1.
         21    1    1    2  502  501  0.26694953550E+02 -0.16051050486E+02  0.10838503381E+02  0.32980750784E+02  0.00000000000E+00 0. -1.
<scales pt_clust_4="550.00000" pt_clust_5="550.00000" pt_clust_6="31.14894"></scales>
<mgrwt>
<rscale>  0 0.30000000E+03</rscale>
<asrwt>  1 0.31148945E+02</asrwt>
<pdfrwt beam="1">  1        1 0.79984334E+00 0.30000000E+03</pdfrwt>
<pdfrwt beam="2">0</pdfrwt>
<totfact> 0.10629046E-03</totfact>
</mgrwt>
<clustering>
<clus scale="   31.149">  1  6  2 -1</clus>
<clus scale="  456.192">  4  5 -1 -1</clus>
<clus scale="  300.000">  1  4  2 -1</clus>
</clustering>
</event>
<event>
 6    1  0.9843879E-012  0.3000000E+03  0.7818608E-02  0.1093470E+00
          1   -1    0    0  502    0  0.00000000000E+00  0.00000000000E+00  0.22733028139E+03  0.22733028139E+03  0.00000000000E+00 0.  1.
         13   -1    0    0    0    0 -0.00000000000E+00 -0.00000000000E+00 -0.27500000000E+03  0.27500000000E+03  0.00000000000E+00 0.  1.
    9000005    2    1    2  501    0  0.22241635535E+01  0.36924633387E+02 -0.35775744145E+02  0.46347359492E+03  0.46060774404E+03 0.  0.
         13    1    3    3    0    0 -0.13522364696E+03  0.20444672704E+03 -0.10961578670E+02  0.24536514647E+03  0.00000000000E+00 0.  1.
          1    1    3    3  501    0  0.13744781051E+03 -0.16752209365E+03 -0.24814165476E+02  0.21810844845E+03  0.00000000000E+00 0.  1.
         21    1    1    2  502  501 -0.22241635535E+01 -0.36924633387E+02 -0.11893974469E+02  0.38856686464E+02  0.00000000000E+00 0.  1.
<scales pt_clust_4="550.00000" pt_clust_5="550.00000" pt_clust_6="36.99158"></scales>
<mgrwt>
<rscale>  0 0.30000000E+03</rscale>
<asrwt>  1 0.36991578E+02</asrwt>
<pdfrwt beam="1">  1        1 0.82665557E+00 0.30000000E+03</pdfrwt>
<pdfrwt beam="2">0</pdfrwt>
<totfact> 0.62494952E-04</totfact>
</mgrwt>
<clustering>
<clus scale="   36.992">  1  6  2 -1</clus>
<clus scale="  460.608">  4  5 -1 -1</clus>
<clus scale="  300.000">  1  4  2 -1</clus>
</clustering>
</event>
<event>
 6    1  0.9843879E-012  0.3000000E+03  0.7818608E-02  0.1093470E+00
          1   -1    0    0  502    0  0.00000000000E+00  0.00000000000E+00  0.26101387856E+03  0.26101387856E+03  0.00000000000E+00 0.  1.
         13   -1    0    0    0    0 -0.00000000000E+00 -0.00000000000E+00 -0.27500000000E+03  0.27500000000E+03  0.00000000000E+00 0.  1.
    9000005    2    1    2  501    0  0.34252782465E+02 -0.46874727365E+02 -0.37515645865E+02  0.47337098836E+03  0.46829710203E+03 0.  0.
         13    1    3    3    0    0 -0.49319502949E+01 -0.21004030918E+03 -0.16127889997E+03  0.26486249109E+03  0.00000000000E+00 0.  1.
          3    1    3    3  501    0  0.39184732760E+02  0.16316558181E+03  0.12376325410E+03  0.20850849727E+03  0.00000000000E+00 0.  1.
         21    1    1    2  502  501 -0.34252782465E+02  0.46874727365E+02  0.23529524421E+02  0.62642890192E+02  0.00000000000E+00 0.  1.
<scales pt_clust_4="550.00000" pt_clust_5="550.00000" pt_clust_6="58.05595"></scales>
<mgrwt>
<rscale>  0 0.30000000E+03</rscale>
<asrwt>  1 0.58055949E+02</asrwt>
<pdfrwt beam="1">  1        1 0.94914138E+00 0.30000000E+03</pdfrwt>
<pdfrwt beam="2">0</pdfrwt>
<totfact> 0.11737146E-05</totfact>
</mgrwt>
<clustering>
<clus scale="   58.056">  1  6  2 -1</clus>
<clus scale="  468.297">  4  5 -1 -1</clus>
<clus scale="  300.000">  1  4  2 -1</clus>
</clustering>
</event>
<event>
 6    1  0.9843879E-012  0.3000000E+03  0.7818608E-02  0.1093470E+00
          1   -1    0    0  502    0  0.00000000000E+00  0.00000000000E+00  0.22596064963E+03  0.22596064963E+03  0.00000000000E+00 0.  1.
         13   -1    0    0    0    0 -0.00000000000E+00 -0.00000000000E+00 -0.27500000000E+03  0.27500000000E+03  0.00000000000E+00 0.  1.
    9000005    2    1    2  501    0  0.75704083530E+01  0.37529438978E+02 -0.51430297238E+02  0.46260069004E+03  0.45813595480E+03 0.  0.
         13    1    3    3    0    0  0.34698829741E+02 -0.54729846943E+02  0.19105338012E+03  0.20174429109E+03  0.00000000000E+00 0.  1.
          3    1    3    3  501    0 -0.27128421388E+02  0.92259285921E+02 -0.24248367736E+03  0.26085639895E+03  0.00000000000E+00 0.  1.
         21    1    1    2  502  501 -0.75704083530E+01 -0.37529438978E+02  0.23909468636E+01  0.38359959587E+02  0.00000000000E+00 0.  1.
<scales pt_clust_4="550.00000" pt_clust_5="550.00000" pt_clust_6="38.28537"></scales>
<mgrwt>
<rscale>  0 0.30000000E+03</rscale>
<asrwt>  1 0.38285374E+02</asrwt>
<pdfrwt beam="1">  1        1 0.82167509E+00 0.30000000E+03</pdfrwt>
<pdfrwt beam="2">0</pdfrwt>
<totfact> 0.68773806E-04</totfact>
</mgrwt>
<clustering>
<clus scale="   38.285">  1  6  2 -1</clus>
<clus scale="  458.136">  4  5 -1 -1</clus>
<clus scale="  300.000">  1  4  2 -1</clus>
</clustering>
</event>
<event>
 6    1  0.9843879E-012  0.3000000E+03  0.7818608E-02  0.1093470E+00
          1   -1    0    0  502    0  0.00000000000E+00  0.00000000000E+00  0.22572730341E+03  0.22572730341E+03  0.00000000000E+00 0.  1.
         13   -1    0    0    0    0 -0.00000000000E+00 -0.00000000000E+00 -0.27500000000E+03  0.27500000000E+03  0.00000000000E+00 0.  1.
    9000005    2    1    2  501    0 -0.19248113623E+02  0.30839656344E+02 -0.47478411104E+02  0.46432958725E+03  0.46046301892E+03 0.  0.
         13    1    3    3    0    0  0.56159499986E+02 -0.18559027970E+03  0.70795203122E+02  0.20642093437E+03  0.00000000000E+00 0.  1.
          1    1    3    3  501    0 -0.75407613609E+02  0.21642993605E+03 -0.11827361423E+03  0.25790865288E+03  0.00000000000E+00 0.  1.
         21    1    1    2  502  501  0.19248113623E+02 -0.30839656344E+02 -0.17942854877E+01  0.36397716163E+02  0.00000000000E+00 0. -1.
<scales pt_clust_4="550.00000" pt_clust_5="550.00000" pt_clust_6="36.35346"></scales>
<mgrwt>
<rscale>  0 0.30000000E+03</rscale>
<asrwt>  1 0.36353463E+02</asrwt>
<pdfrwt beam="1">  1        1 0.82082656E+00 0.30000000E+03</pdfrwt>
<pdfrwt beam="2">0</pdfrwt>
<totfact> 0.70638899E-04</totfact>
</mgrwt>
<clustering>
<clus scale="   36.353">  1  6  2 -1</clus>
<clus scale="  460.463">  4  5 -1 -1</clus>
<clus scale="  300.000">  1  4  2 -1</clus>
</clustering>
</event>
<event>
 6    1  0.9843879E-012  0.3000000E+03  0.7818608E-02  0.1093470E+00
          1   -1    0    0  502    0  0.00000000000E+00  0.00000000000E+00  0.23183603938E+03  0.23183603938E+03  0.00000000000E+00 0.  1.
         13   -1    0    0    0    0 -0.00000000000E+00 -0.00000000000E+00 -0.27500000000E+03  0.27500000000E+03  0.00000000000E+00 0.  1.
    9000005    2    1    2  501    0  0.34635226212E+02 -0.58286638838E+01 -0.28350296400E+02  0.46871758105E+03  0.46653923657E+03 0.  0.
         13    1    3    3    0    0 -0.13606260038E+03 -0.17693557662E+03  0.12701851309E+02  0.22356333895E+03  0.00000000000E+00 0.  1.
          3    1    3    3  501    0  0.17069782660E+03  0.17110691273E+03 -0.41052147709E+02  0.24515424210E+03  0.00000000000E+00 0.  1.
         21    1    1    2  502  501 -0.34635226212E+02  0.58286638838E+01 -0.14813664223E+02  0.38118458326E+02  0.00000000000E+00 0. -1.
<scales pt_clust_4="550.00000" pt_clust_5="550.00000" pt_clust_6="35.12226"></scales>
<mgrwt>
<rscale>  0 0.30000000E+03</rscale>
<asrwt>  1 0.35122264E+02</asrwt>
<pdfrwt beam="1">  1        1 0.84304014E+00 0.30000000E+03</pdfrwt>
<pdfrwt beam="2">0</pdfrwt>
<totfact> 0.46937311E-04</totfact>
</mgrwt>
<clustering>
<clus scale="   35.122">  1  6  2 -1</clus>
<clus scale="  466.539">  4  5 -1 -1</clus>
<clus scale="  300.000">  1  4  2 -1</clus>
</clustering>
</event>
<event>
 6    1  0.9843879E-012  0.3000000E+03  0.7818608E-02  0.1093470E+00
          1   -1    0    0  502    0  0.00000000000E+00  0.00000000000E+00  0.23623902954E+03  0.23623902954E+03  0.00000000000E+00 0.  1.
         13   -1    0    0    0    0 -0.00000000000E+00 -0.00000000000E+00 -0.27500000000E+03  0.27500000000E+03  0.00000000000E+00 0.  1.
    9000005    2    1    2  501    0 -0.21844918704E+02  0.31394563299E+02 -0.31927648078E+02  0.47238657308E+03  0.46975193522E+03 0.  0.
         13    1    3    3    0    0  0.88379832961E+02 -0.17013944850E+03 -0.12021556964E+03  0.22629672997E+03  0.00000000000E+00 0.  1.
          3    1    3    3  501    0 -0.11022475167E+03  0.20153401180E+03  0.88287921558E+02  0.24608984312E+03  0.00000000000E+00 0.  1.
         21    1    1    2  502  501  0.21844918704E+02 -0.31394563299E+02 -0.68333223824E+01  0.38852456457E+02  0.00000000000E+00 0.  1.
<scales pt_clust_4="550.00000" pt_clust_5="550.00000" pt_clust_6="38.24684"></scales>
<mgrwt>
<rscale>  0 0.30000000E+03</rscale>
<asrwt>  1 0.38246837E+02</asrwt>
<pdfrwt beam="1">  1        1 0.85905102E+00 0.30000000E+03</pdfrwt>
<pdfrwt beam="2">0</pdfrwt>
<totfact> 0.32565308E-04</totfact>
</mgrwt>
<clustering>
<clus scale="   38.247">  1  6  2 -1</clus>
<clus scale="  469.752">  4  5 -1 -1</clus>
<clus scale="  300.000">  1  4  2 -1</clus>
</clustering>
</event>
<event>
 6    1  0.9843879E-012  0.3000000E+03  0.7818608E-02  0.1093470E+00
          1   -1    0    0  502    0  0.00000000000E+00  0.00000000000E+00  0.22375078944E+03  0.22375078944E+03  0.00000000000E+00 0.  1.
         13   -1    0    0    0    0 -0.00000000000E+00 -0.00000000000E+00 -0.27500000000E+03  0.27500000000E+03  0.00000000000E+00 0.  1.
    9000005    2    1    2  501    0 -0.72650342015E+00 -0.32239515903E+02 -0.57203381171E+02  0.46595801066E+03  0.46130762695E+03 0.  0.
         13    1    3    3    0    0 -0.17004756392E+03 -0.15145542725E+03 -0.10905751603E+03  0.25248457823E+03  0.00000000000E+00 0.  1.
          1    1    3    3  501    0  0.16932106050E+03  0.11921591135E+03  0.51854134863E+02  0.21347343242E+03  0.00000000000E+00 0.  1.
         21    1    1    2  502  501  0.72650342015E+00  0.32239515903E+02  0.59541706136E+01  0.32792778787E+02  0.00000000000E+00 0.  1.
<scales pt_clust_4="550.00000" pt_clust_5="550.00000" pt_clust_6="32.24770"></scales>
<mgrwt>
<rscale>  0 0.30000000E+03</rscale>
<asrwt>  1 0.32247701E+02</asrwt>
<pdfrwt beam="1">  1        1 0.81363923E+00 0.30000000E+03</pdfrwt>
<pdfrwt beam="2">0</pdfrwt>
<totfact> 0.82904134E-04</totfact>
</mgrwt>
<clustering>
<clus scale="   32.248">  1  6  2 -1</clus>
<clus scale="  461.308">  4  5 -1 -1</clus>
<clus scale="  300.000">  1  4  2 -1</clus>
</clustering>
</event>
<event>
 6    1  0.9843879E-012  0.3000000E+03  0.7818608E-02  0.1093470E+00
          1   -1    0    0  502    0  0.00000000000E+00  0.00000000000E+00  0.23559129811E+03  0.23559129811E+03  0.00000000000E+00 0.  1.
         13   -1    0    0    0    0 -0.00000000000E+00 -0.00000000000E+00 -0.27500000000E+03  0.27500000000E+03  0.00000000000E+00 0.  1.
    9000005    2    1    2  501    0 -0.28358341513E+02 -0.22199139500E+02 -0.61227877747E+02  0.46848341568E+03  0.46306679909E+03 0.  0.
         13    1    3    3    0    0  0.42217715624E+02 -0.11508472698E+01 -0.25641203028E+03  0.25986686828E+03  0.00000000000E+00 0.  1.
          3    1    3    3  501    0 -0.70576057136E+02 -0.21048292230E+02  0.19518415253E+03  0.20861654739E+03  0.00000000000E+00 0.  1.
         21    1    1    2  502  501  0.28358341513E+02  0.22199139500E+02  0.21819175852E+02  0.42107882430E+02  0.00000000000E+00 0.  1.
<scales pt_clust_4="550.00000" pt_clust_5="550.00000" pt_clust_6="36.01385"></scales>
<mgrwt>
<rscale>  0 0.30000000E+03</rscale>
<asrwt>  1 0.36013849E+02</asrwt>
<pdfrwt beam="1">  1        1 0.85669563E+00 0.30000000E+03</pdfrwt>
<pdfrwt beam="2">0</pdfrwt>
<totfact> 0.34842126E-04</totfact>
</mgrwt>
<clustering>
<clus scale="   36.014">  1  6  2 -1</clus>
<clus scale="  463.067">  4  5 -1 -1</clus>
<clus scale="  300.000">  1  4  2 -1</clus>
</clustering>
</event>
<event>
 6    1  0.9843879E-012  0.3000000E+03  0.7818608E-02  0.1093470E+00
          1   -1    0    0  502    0  0.00000000000E+00  0.00000000000E+00  0.22966663680E+03  0.22966663680E+03  0.00000000000E+00 0.  1.
         13   -1    0    0    0    0 -0.00000000000E+00 -0.00000000000E+00 -0.27500000000E+03  0.27500000000E+03  0.00000000000E+00 0.  1.
    9000005    2    1    2  501    0 -0.15365500220E+01  0.30185116441E+02 -0.47858761999E+02  0.47433711522E+03  0.47094769936E+03 0.  0.
         13    1    3    3    0    0 -0.22470395861E+03 -0.51994076836E+02 -0.52224282888E+02  0.23647965825E+03  0.00000000000E+00 0.  1.
          1    1    3    3  501    0  0.22316740859E+03  0.82179193277E+02  0.43655208893E+01  0.23785745697E+03  0.00000000000E+00 0.  1.
         21    1    1    2  502  501  0.15365500220E+01 -0.30185116441E+02  0.25253988035E+01  0.30329521586E+02  0.00000000000E+00 0.  1.
<scales pt_clust_4="550.00000" pt_clust_5="550.00000" pt_clust_6="30.22420"></scales>
<mgrwt>
<rscale>  0 0.30000000E+03</rscale>
<asrwt>  1 0.30224200E+02</asrwt>
<pdfrwt beam="1">  1        1 0.83515141E+00 0.30000000E+03</pdfrwt>
<pdfrwt beam="2">0</pdfrwt>
<totfact> 0.55483985E-04</totfact>
</mgrwt>
<clustering>
<clus scale="   30.224">  1  6  2 -1</clus>
<clus scale="  470.948">  4  5 -1 -1</clus>
<clus scale="  300.000">  1  4  2 -1</clus>
</clustering>
</event>
<event>
 6    1  0.9843879E-012  0.3000000E+03  0.7818608E-02  0.1093470E+00
          1   -1    0    0  502    0  0.00000000000E+00  0.00000000000E+00  0.23046326353E+03  0.23046326353E+03  0.00000000000E+00 0.  1.
         13   -1    0    0    0    0 -0.00000000000E+00 -0.00000000000E+00 -0.27500000000E+03  0.27500000000E+03  0.00000000000E+00 0.  1.
    9000005    2    1    2  501    0  0.32207836275E+02  0.12736352279E+02 -0.63320603732E+02  0.46606284404E+03  0.46044056766E+03 0.  0.
         13    1    3    3    0    0 -0.36963640743E+02  0.15945652468E+03  0.13335151813E+03  0.21112868442E+03  0.00000000000E+00 0.  1.
          1    1    3    3  501    0  0.69171477018E+02 -0.14672017240E+03 -0.19667212186E+03  0.25493415961E+03  0.00000000000E+00 0.  1.
         21    1    1    2  502  501 -0.32207836275E+02 -0.12736352279E+02  0.18783867265E+02  0.39400419494E+02  0.00000000000E+00 0.  1.
<scales pt_clust_4="550.00000" pt_clust_5="550.00000" pt_clust_6="34.63466"></scales>
<mgrwt>
<rscale>  0 0.30000000E+03</rscale>
<asrwt>  1 0.34634656E+02</asrwt>
<pdfrwt beam="1">  1        1 0.83804823E+00 0.30000000E+03</pdfrwt>
<pdfrwt beam="2">0</pdfrwt>
<totfact> 0.51506285E-04</totfact>
</mgrwt>
<clustering>
<clus scale="   34.635">  1  6  2 -1</clus>
<clus scale="  460.441">  4  5 -1 -1</clus>
<clus scale="  300.000">  1  4  2 -1</clus>
</clustering>
</event>
<event>
 6    1  0.9843879E-012  0.3000000E+03  0.7818608E-02  0.1093470E+00
          1   -1    0    0  502    0  0.00000000000E+00  0.00000000000E+00  0.23377721183E+03  0.23377721183E+03  0.00000000000E+00 0.  1.
         13   -1    0    0    0    0 -0.00000000000E+00 -0.00000000000E+00 -0.27500000000E+03  0.27500000000E+03  0.00000000000E+00 0.  1.
    9000005    2    1    2  501    0 -0.20150566281E+02 -0.36520888452E+02 -0.55000366241E+02  0.46484951815E+03  0.45969578378E+03 0.  0.
         13    1    3    3    0    0 -0.17379942733E+03  0.14282580555E+03 -0.16415229324E+02  0.22555467503E+03  0.00000000000E+00 0.  1.
          1    1    3    3  501    0  0.15364886105E+03 -0.17934669401E+03 -0.38585136917E+02  0.23929484312E+03  0.00000000000E+00 0.  1.
         21    1    1    2  502  501  0.20150566281E+02  0.36520888452E+02  0.13777578074E+02  0.43927693683E+02  0.00000000000E+00 0.  1.
<scales pt_clust_4="550.00000" pt_clust_5="550.00000" pt_clust_6="41.71116"></scales>
<mgrwt>
<rscale>  0 0.30000000E+03</rscale>
<asrwt>  1 0.41711157E+02</asrwt>
<pdfrwt beam="1">  1        1 0.85009895E+00 0.30000000E+03</pdfrwt>
<pdfrwt beam="2">0</pdfrwt>
<totfact> 0.39321559E-04</totfact>
</mgrwt>
<clustering>
<clus scale="   41.711">  1  6  2 -1</clus>
<clus scale="  459.696">  4  5 -1 -1</clus>
<clus scale="  300.000">  1  4  2 -1</clus>
</clustering>
</event>
<event>
 6    1  0.9843879E-012  0.3000000E+03  0.7818608E-02  0.1093470E+00
          1   -1    0    0  502    0  0.00000000000E+00  0.00000000000E+00  0.22236285056E+03  0.22236285056E+03  0.00000000000E+00 0.  1.
         13   -1    0    0    0    0 -0.00000000000E+00 -0.00000000000E+00 -0.27500000000E+03  0.27500000000E+03  0.00000000000E+00 0.  1.
    9000005    2    1    2  501    0 -0.24068381949E+02 -0.19402182179E+02 -0.49310505739E+02  0.46626947118E+03  0.46262291566E+03 0.  0.
         13    1    3    3    0    0  0.17311166538E+03 -0.85436402436E+02  0.93011514050E+02  0.21428525217E+03  0.00000000000E+00 0.  1.
          3    1    3    3  501    0 -0.19718004733E+03  0.66034220256E+02 -0.14232201979E+03  0.25198421901E+03  0.00000000000E+00 0.  1.
         21    1    1    2  502  501  0.24068381949E+02  0.19402182179E+02 -0.33266437009E+01  0.31093379380E+02  0.00000000000E+00 0. -1.
<scales pt_clust_4="550.00000" pt_clust_5="550.00000" pt_clust_6="30.91493"></scales>
<mgrwt>
<rscale>  0 0.30000000E+03</rscale>
<asrwt>  1 0.30914926E+02</asrwt>
<pdfrwt beam="1">  1        1 0.80859218E+00 0.30000000E+03</pdfrwt>
<pdfrwt beam="2">0</pdfrwt>
<totfact> 0.91563361E-04</totfact>
</mgrwt>
<clustering>
<clus scale="   30.915">  1  6  2 -1</clus>
<clus scale="  462.623">  4  5 -1 -1</clus>
<clus scale="  300.000">  1  4  2 -1</clus>
</clustering>
</event>
<event>
 6    1  0.9843879E-012  0.3000000E+03  0.7818608E-02  0.1093470E+00
          1   -1    0    0  502    0  0.00000000000E+00  0.00000000000E+00  0.24945016701E+03  0.24945016701E+03  0.00000000000E+00 0.  1.
         13   -1    0    0    0    0 -0.00000000000E+00 -0.00000000000E+00 -0.27500000000E+03  0.27500000000E+03  0.00000000000E+00 0.  1.
    9000005    2    1    2  501    0 -0.30124859496E+02 -0.11725405696E+02 -0.50651541664E+02  0.48352232714E+03  0.47977418633E+03 0.  0.
         13    1    3    3    0    0 -0.87727048956E+02  0.10592063626E+03  0.17501810380E+03  0.22259055003E+03  0.00000000000E+00 0.  1.
          3    1    3    3  501    0  0.57602189461E+02 -0.11764604196E+03 -0.22566964546E+03  0.26093177711E+03  0.00000000000E+00 0.  1.
         21    1    1    2  502  501  0.30124859496E+02  0.11725405696E+02  0.25101708674E+02  0.40927839874E+02  0.00000000000E+00 0.  1.
<scales pt_clust_4="550.00000" pt_clust_5="550.00000" pt_clust_6="32.32634"></scales>
<mgrwt>
<rscale>  0 0.30000000E+03</rscale>
<asrwt>  1 0.32326341E+02</asrwt>
<pdfrwt beam="1">  1        1 0.90709152E+00 0.30000000E+03</pdfrwt>
<pdfrwt beam="2">0</pdfrwt>
<totfact> 0.85127336E-05</totfact>
</mgrwt>
<clustering>
<clus scale="   32.326">  1  6  2 -1</clus>
<clus scale="  479.774">  4  5 -1 -1</clus>
<clus scale="  300.000">  1  4  2 -1</clus>
</clustering>
</event>
<event>
 6    1  0.9843879E-012  0.3000000E+03  0.7818608E-02  0.1093470E+00
          1   -1    0    0  502    0  0.00000000000E+00  0.00000000000E+00  0.25371664018E+03  0.25371664018E+03  0.00000000000E+00 0.  1.
         13   -1    0    0    0    0 -0.00000000000E+00 -0.00000000000E+00 -0.27500000000E+03  0.27500000000E+03  0.00000000000E+00 0.  1.
    9000005    2    1    2  501    0 -0.15209630708E+02  0.26925116227E+02 -0.57858163529E+02  0.48082080512E+03  0.47632424334E+03 0.  0.
         13    1    3    3    0    0 -0.79667243948E+02 -0.21356483315E+03 -0.17722649828E+02  0.22862830103E+03  0.00000000000E+00 0.  1.
          3    1    3    3  501    0  0.64457613241E+02  0.24048994938E+03 -0.40135513701E+02  0.25219250408E+03  0.00000000000E+00 0.  1.
         21    1    1    2  502  501  0.15209630708E+02 -0.26925116227E+02  0.36574803711E+02  0.47895835065E+02  0.00000000000E+00 0. -1.
<scales pt_clust_4="550.00000" pt_clust_5="550.00000" pt_clust_6="30.92402"></scales>
<mgrwt>
<rscale>  0 0.30000000E+03</rscale>
<asrwt>  1 0.30924016E+02</asrwt>
<pdfrwt beam="1">  1        1 0.92260596E+00 0.30000000E+03</pdfrwt>
<pdfrwt beam="2">0</pdfrwt>
<totfact> 0.37648008E-05</totfact>
</mgrwt>
<clustering>
<clus scale="   30.924">  1  6  2 -1</clus>
<clus scale="  476.324">  4  5 -1 -1</clus>
<clus scale="  300.000">  1  4  2 -1</clus>
</clustering>
</event>
<event>
 6    1  0.9843879E-012  0.3000000E+03  0.7818608E-02  0.1093470E+00
          1   -1    0    0  502    0  0.00000000000E+00  0.00000000000E+00  0.22081907195E+03  0.22081907195E+03  0.00000000000E+00 0.  1.
         13   -1    0    0    0    0 -0.00000000000E+00 -0.00000000000E+00 -0.27500000000E+03  0.27500000000E+03  0.00000000000E+00 0.  1.
    9000005    2    1    2  501    0  0.10690384931E+02 -0.31130962393E+02 -0.49780334983E+02  0.46261084452E+03  0.45874534392E+03 0.  0.
         13    1    3    3    0    0 -0.18271356692E+03  0.88617632499E+02  0.57577347253E+02  0.21107459165E+03  0.00000000000E+00 0.  1.
          3    1    3    3  501    0  0.19340395185E+03 -0.11974859489E+03 -0.10735768224E+03  0.25153625286E+03  0.00000000000E+00 0.  1.
         21    1    1    2  502  501 -0.10690384931E+02  0.31130962393E+02 -0.44005930718E+01  0.33208227427E+02  0.00000000000E+00 0.  1.
<scales pt_clust_4="550.00000" pt_clust_5="550.00000" pt_clust_6="32.91538"></scales>
<mgrwt>
<rscale>  0 0.30000000E+03</rscale>
<asrwt>  1 0.32915380E+02</asrwt>
<pdfrwt beam="1">  1        1 0.80297844E+00 0.30000000E+03</pdfrwt>
<pdfrwt beam="2">0</pdfrwt>
<totfact> 0.99803077E-04</totfact>
</mgrwt>
<clustering>
<clus scale="   32.915">  1  6  2 -1</clus>
<clus scale="  458.745">  4  5 -1 -1</clus>
<clus scale="  300.000">  1  4  2 -1</clus>
</clustering>
</event>
<event>
 6    1  0.9843879E-012  0.3000000E+03  0.7818608E-02  0.1093470E+00
          1   -1    0    0  502    0  0.00000000000E+00  0.00000000000E+00  0.23967706272E+03  0.23967706272E+03  0.00000000000E+00 0.  1.
         13   -1    0    0    0    0 -0.00000000000E+00 -0.00000000000E+00 -0.27500000000E+03  0.27500000000E+03  0.00000000000E+00 0.  1.
    9000005    2    1    2  501    0 -0.32750145467E+01 -0.32533845049E+02 -0.60017571071E+02  0.47370143909E+03  0.46874488559E+03 0.  0.
         13    1    3    3    0    0  0.12212365803E+03  0.15338358751E+03  0.77292889748E+02  0.21074843670E+03  0.00000000000E+00 0.  1.
          1    1    3    3  501    0 -0.12539867258E+03 -0.18591743256E+03 -0.13731046082E+03  0.26295300238E+03  0.00000000000E+00 0.  1.
         21    1    1    2  502  501  0.32750145467E+01  0.32533845049E+02  0.24694633791E+02  0.40975623632E+02  0.00000000000E+00 0. -1.
<scales pt_clust_4="550.00000" pt_clust_5="550.00000" pt_clust_6="32.69827"></scales>
<mgrwt>
<rscale>  0 0.30000000E+03</rscale>
<asrwt>  1 0.32698269E+02</asrwt>
<pdfrwt beam="1">  1        1 0.87155296E+00 0.30000000E+03</pdfrwt>
<pdfrwt beam="2">0</pdfrwt>
<totfact> 0.24731808E-04</totfact>
</mgrwt>
<clustering>
<clus scale="   32.698">  1  6  2 -1</clus>
<clus scale="  468.745">  4  5 -1 -1</clus>
<clus scale="  300.000">  1  4  2 -1</clus>
</clustering>
</event>
<event>
 6    1  0.9843879E-012  0.3000000E+03  0.7818608E-02  0.1093470E+00
          1   -1    0    0  502    0  0.00000000000E+00  0.00000000000E+00  0.23922295335E+03  0.23922295335E+03  0.00000000000E+00 0.  1.
         13   -1    0    0    0    0 -0.00000000000E+00 -0.00000000000E+00 -0.27500000000E+03  0.27500000000E+03  0.00000000000E+00 0.  1.
    9000005    2    1    2  501    0 -0.43971559224E+01 -0.36274988852E+02 -0.46230423160E+02  0.47621660024E+03  0.47255665112E+03 0.  0.
         13    1    3    3    0    0  0.13034208920E+02 -0.25273900499E+03 -0.54571402805E+02  0.25889174040E+03  0.00000000000E+00 0.  1.
          3    1    3    3  501    0 -0.17431364843E+02  0.21646401613E+03  0.83409796445E+01  0.21732485984E+03  0.00000000000E+00 0.  1.
         21    1    1    2  502  501  0.43971559224E+01  0.36274988852E+02  0.10453376509E+02  0.38006353112E+02  0.00000000000E+00 0.  1.
<scales pt_clust_4="550.00000" pt_clust_5="550.00000" pt_clust_6="36.54052"></scales>
<mgrwt>
<rscale>  0 0.30000000E+03</rscale>
<asrwt>  1 0.36540523E+02</asrwt>
<pdfrwt beam="1">  1        1 0.86990165E+00 0.30000000E+03</pdfrwt>
<pdfrwt beam="2">0</pdfrwt>
<totfact> 0.25180948E-04</totfact>
</mgrwt>
<clustering>
<clus scale="   36.541">  1  6  2 -1</clus>
<clus scale="  472.557">  4  5 -1 -1</clus>
<clus scale="  300.000">  1  4  2 -1</clus>
</clustering>
</event>
<event>
 6    1  0.9843879E-012  0.3000000E+03  0.7818608E-02  0.1093470E+00
          1   -1    0    0  502    0  0.00000000000E+00  0.00000000000E+00  0.23609816771E+03  0.23609816771E+03  0.00000000000E+00 0.  1.
         13   -1    0    0    0    0 -0.00000000000E+00 -0.00000000000E+00 -0.27500000000E+03  0.27500000000E+03  0.00000000000E+00 0.  1.
    9000005    2    1    2  501    0  0.34154469997E+02  0.89334719417E+01 -0.47479000243E+02  0.47476770457E+03  0.47106664401E+03 0.  0.
         13    1    3    3    0    0  0.17133106580E+03 -0.13216028613E+03 -0.13958077226E+03  0.25749459669E+03  0.00000000000E+00 0.  1.
          3    1    3    3  501    0 -0.13717659581E+03  0.14109375807E+03  0.92101772013E+02  0.21727310789E+03  0.00000000000E+00 0.  1.
         21    1    1    2  502  501 -0.34154469997E+02 -0.89334719417E+01  0.85771679537E+01  0.36330463138E+02  0.00000000000E+00 0.  1.
<scales pt_clust_4="550.00000" pt_clust_5="550.00000" pt_clust_6="35.30347"></scales>
<mgrwt>
<rscale>  0 0.30000000E+03</rscale>
<asrwt>  1 0.35303466E+02</asrwt>
<pdfrwt beam="1">  1        1 0.85853879E+00 0.30000000E+03</pdfrwt>
<pdfrwt beam="2">0</pdfrwt>
<totfact> 0.33465739E-04</totfact>
</mgrwt>
<clustering>
<clus scale="   35.303">  1  6  2 -1</clus>
<clus scale="  471.067">  4  5 -1 -1</clus>
<clus scale="  300.000">  1  4  2 -1</clus>
</clustering>
</event>
<event>
 6    1  0.9843879E-012  0.3000000E+03  0.7818608E-02  0.1093470E+00
          1   -1    0    0  502    0  0.00000000000E+00  0.00000000000E+00  0.22237849298E+03  0.22237849298E+03  0.00000000000E+00 0.  1.
         13   -1    0    0    0    0 -0.00000000000E+00 -0.00000000000E+00 -0.27500000000E+03  0.27500000000E+03  0.00000000000E+00 0.  1.
    9000005    2    1    2  501    0 -0.26931339169E+02 -0.14214457635E+02 -0.66803993685E+02  0.46378547639E+03  0.45793760132E+03 0.  0.
         13    1    3    3    0    0 -0.31987112967E+02  0.16686095922E+03 -0.18210745825E+03  0.24905598057E+03  0.00000000000E+00 0.  1.
          3    1    3    3  501    0  0.50557737983E+01 -0.18107541685E+03  0.11530346457E+03  0.21472949582E+03  0.00000000000E+00 0.  1.
         21    1    1    2  502  501  0.26931339169E+02  0.14214457635E+02  0.14182486661E+02  0.33593016584E+02  0.00000000000E+00 0.  1.
<scales pt_clust_4="550.00000" pt_clust_5="550.00000" pt_clust_6="30.45239"></scales>
<mgrwt>
<rscale>  0 0.30000000E+03</rscale>
<asrwt>  1 0.30452386E+02</asrwt>
<pdfrwt beam="1">  1        1 0.80864907E+00 0.30000000E+03</pdfrwt>
<pdfrwt beam="2">0</pdfrwt>
<totfact> 0.91735502E-04</totfact>
</mgrwt>
<clustering>
<clus scale="   30.452">  1  6  2 -1</clus>
<clus scale="  457.938">  4  5 -1 -1</clus>
<clus scale="  300.000">  1  4  2 -1</clus>
</clustering>
</event>
<event>
 6    1  0.9843879E-012  0.3000000E+03  0.7818608E-02  0.1093470E+00
          1   -1    0    0  502    0  0.00000000000E+00  0.00000000000E+00  0.22577059780E+03  0.22577059780E+03  0.00000000000E+00 0.  1.
         13   -1    0    0    0    0 -0.00000000000E+00 -0.00000000000E+00 -0.27500000000E+03  0.27500000000E+03  0.00000000000E+00 0.  1.
    9000005    2    1    2  501    0 -0.22837226434E+02 -0.23630757657E+02 -0.49180376470E+02  0.46790794389E+03  0.46415426628E+03 0.  0.
         13    1    3    3    0    0 -0.15258646389E+03 -0.19321064103E+03  0.97883765793E+01  0.24639154427E+03  0.00000000000E+00 0.  1.
          3    1    3    3  501    0  0.12974923745E+03  0.16957988338E+03 -0.58968753050E+02  0.22151639962E+03  0.00000000000E+00 0.  1.
         21    1    1    2  502  501  0.22837226434E+02  0.23630757657E+02 -0.49025730499E-01  0.32862653912E+02  0.00000000000E+00 0.  1.
<scales pt_clust_4="550.00000" pt_clust_5="550.00000" pt_clust_6="32.86262"></scales>
<mgrwt>
<rscale>  0 0.30000000E+03</rscale>
<asrwt>  1 0.32862617E+02</asrwt>
<pdfrwt beam="1">  1        1 0.82098399E+00 0.30000000E+03</pdfrwt>
<pdfrwt beam="2">0</pdfrwt>
<totfact> 0.71760209E-04</totfact>
</mgrwt>
<clustering>
<clus scale="   32.863">  1  6  2 -1</clus>
<clus scale="  464.154">  4  5 -1 -1</clus>
<clus scale="  300.000">  1  4  2 -1</clus>
</clustering>
</event>
<event>
 6    1  0.9843879E-012  0.3000000E+03  0.7818608E-02  0.1093470E+00
          1   -1    0    0  502    0  0.00000000000E+00  0.00000000000E+00  0.24774004867E+03  0.24774004867E+03  0.00000000000E+00 0.  1.
         13   -1    0    0    0    0 -0.00000000000E+00 -0.00000000000E+00 -0.27500000000E+03  0.27500000000E+03  0.00000000000E+00 0.  1.
    9000005    2    1    2  501    0  0.43622241893E+01 -0.36737625148E+02 -0.64126224653E+02  0.47051166357E+03  0.46465080519E+03 0.  0.
         13    1    3    3    0    0  0.45038810419E+02  0.66698494557E+02 -0.24518700968E+03  0.25805784882E+03  0.00000000000E+00 0.  1.
          1    1    3    3  501    0 -0.40676586229E+02 -0.10343611971E+03  0.18106078503E+03  0.21245381475E+03  0.00000000000E+00 0.  1.
         21    1    1    2  502  501 -0.43622241893E+01  0.36737625148E+02  0.36866273322E+02  0.52228385099E+02  0.00000000000E+00 0. -1.
<scales pt_clust_4="550.00000" pt_clust_5="550.00000" pt_clust_6="36.99570"></scales>
<mgrwt>
<rscale>  0 0.30000000E+03</rscale>
<asrwt>  1 0.36995704E+02</asrwt>
<pdfrwt beam="1">  1        1 0.90087290E+00 0.30000000E+03</pdfrwt>
<pdfrwt beam="2">0</pdfrwt>
<totfact> 0.10650688E-04</totfact>
</mgrwt>
<clustering>
<clus scale="   36.996">  1  6  2 -1</clus>
<clus scale="  464.651">  4  5 -1 -1</clus>
<clus scale="  300.000">  1  4  2 -1</clus>
</clustering>
</event>
<event>
 6    1  0.9843879E-012  0.3000000E+03  0.7818608E-02  0.1093470E+00
          1   -1    0    0  502    0  0.00000000000E+00  0.00000000000E+00  0.22779849863E+03  0.22779849863E+03  0.00000000000E+00 0.  1.
         13   -1    0    0    0    0 -0.00000000000E+00 -0.00000000000E+00 -0.27500000000E+03  0.27500000000E+03  0.00000000000E+00 0.  1.
    9000005    2    1    2  501    0 -0.24076180728E+02  0.22353024315E+02 -0.69242083230E+02  0.46323706004E+03  0.45685313563E+03 0.  0.
         13    1    3    3    0    0 -0.75308941579E+02 -0.19358164497E+03 -0.11384959026E+03  0.23686920263E+03  0.00000000000E+00 0.  1.
          1    1    3    3  501    0  0.51232760850E+02  0.21593466929E+03  0.44607507032E+02  0.22636785741E+03  0.00000000000E+00 0.  1.
         21    1    1    2  502  501  0.24076180728E+02 -0.22353024315E+02  0.22040581861E+02  0.39561438589E+02  0.00000000000E+00 0. -1.
<scales pt_clust_4="550.00000" pt_clust_5="550.00000" pt_clust_6="32.85301"></scales>
<mgrwt>
<rscale>  0 0.30000000E+03</rscale>
<asrwt>  1 0.32853009E+02</asrwt>
<pdfrwt beam="1">  1        1 0.82835818E+00 0.30000000E+03</pdfrwt>
<pdfrwt beam="2">0</pdfrwt>
<totfact> 0.61749503E-04</totfact>
</mgrwt>
<clustering>
<clus scale="   32.853">  1  6  2 -1</clus>
<clus scale="  456.853">  4  5 -1 -1</clus>
<clus scale="  300.000">  1  4  2 -1</clus>
</clustering>
</event>
<event>
 6    1  0.9843879E-012  0.3000000E+03  0.7818608E-02  0.1093470E+00
          1   -1    0    0  502    0  0.00000000000E+00  0.00000000000E+00  0.24167386531E+03  0.24167386531E+03  0.00000000000E+00 0.  1.
         13   -1    0    0    0    0 -0.00000000000E+00 -0.00000000000E+00 -0.27500000000E+03  0.27500000000E+03  0.00000000000E+00 0.  1.
    9000005    2    1    2  501    0 -0.28541540692E+02  0.19251653654E+02 -0.67303883450E+02  0.46830307739E+03  0.46216091770E+03 0.  0.
         13    1    3    3    0    0  0.60168250774E+02  0.22569138358E+02 -0.25377221540E+03  0.26178220283E+03  0.00000000000E+00 0.  1.
          1    1    3    3  501    0 -0.88709791466E+02 -0.33174847040E+01  0.18646833195E+03  0.20652087456E+03  0.00000000000E+00 0.  1.
         21    1    1    2  502  501  0.28541540692E+02 -0.19251653654E+02  0.33977748757E+02  0.48370787921E+02  0.00000000000E+00 0. -1.
<scales pt_clust_4="550.00000" pt_clust_5="550.00000" pt_clust_6="34.42740"></scales>
<mgrwt>
<rscale>  0 0.30000000E+03</rscale>
<asrwt>  1 0.34427398E+02</asrwt>
<pdfrwt beam="1">  1        1 0.87881406E+00 0.30000000E+03</pdfrwt>
<pdfrwt beam="2">0</pdfrwt>
<totfact> 0.20462832E-04</totfact>
</mgrwt>
<clustering>
<clus scale="   34.427">  1  6  2 -1</clus>
<clus scale="  462.161">  4  5 -1 -1</clus>
<clus scale="  300.000">  1  4  2 -1</clus>
</clustering>
</event>
<event>
 6    1  0.9843879E-012  0.3000000E+03  0.7818608E-02  0.1093470E+00
          1   -1    0    0  502    0  0.00000000000E+00  0.00000000000E+00  0.26443483089E+03  0.26443483089E+03  0.00000000000E+00 0.  1.
         13   -1    0    0    0    0 -0.00000000000E+00 -0.00000000000E+00 -0.27500000000E+03  0.27500000000E+03  0.00000000000E+00 0.  1.
    9000005    2    1    2  501    0 -0.23071133389E+02  0.35211553734E+02 -0.65185035146E+02  0.47047498404E+03  0.46403177810E+03 0.  0.
         13    1    3    3    0    0 -0.86762235677E+02 -0.93102513370E+02 -0.22336134268E+03  0.25707207733E+03  0.00000000000E+00 0.  1.
          1    1    3    3  501    0  0.63691102288E+02  0.12831406710E+03  0.15817630754E+03  0.21340290671E+03  0.00000000000E+00 0.  1.
         21    1    1    2  502  501  0.23071133389E+02 -0.35211553734E+02  0.54619866040E+02  0.68959846856E+02  0.00000000000E+00 0. -1.
<scales pt_clust_4="550.00000" pt_clust_5="550.00000" pt_clust_6="42.09668"></scales>
<mgrwt>
<rscale>  0 0.30000000E+03</rscale>
<asrwt>  1 0.42096683E+02</asrwt>
<pdfrwt beam="1">  1        1 0.96158120E+00 0.30000000E+03</pdfrwt>
<pdfrwt beam="2">0</pdfrwt>
<totfact> 0.67786310E-06</totfact>
</mgrwt>
<clustering>
<clus scale="   42.097">  1  6  2 -1</clus>
<clus scale="  464.032">  4  5 -1 -1</clus>
<clus scale="  300.000">  1  4  2 -1</clus>
</clustering>
</event>
<event>
 6    1  0.9843879E-012  0.3000000E+03  0.7818608E-02  0.1093470E+00
          1   -1    0    0  502    0  0.00000000000E+00  0.00000000000E+00  0.24113364036E+03  0.24113364036E+03  0.00000000000E+00 0.  1.
         13   -1    0    0    0    0 -0.00000000000E+00 -0.00000000000E+00 -0.27500000000E+03  0.27500000000E+03  0.00000000000E+00 0.  1.
    9000005    2    1    2  501    0 -0.12628917600E+00 -0.41438501778E+02 -0.63673831505E+02  0.46508806506E+03  0.45884135174E+03 0.  0.
         13    1    3    3    0    0  0.21048150044E+03 -0.42624383355E+02 -0.12142179719E+03  0.24670337030E+03  0.00000000000E+00 0.  1.
          1    1    3    3  501    0 -0.21060778962E+03  0.11858815771E+01  0.57747965687E+02  0.21838469476E+03  0.00000000000E+00 0.  1.
         21    1    1    2  502  501  0.12628917600E+00  0.41438501778E+02  0.29807471863E+02  0.51045575297E+02  0.00000000000E+00 0. -1.
<scales pt_clust_4="550.00000" pt_clust_5="550.00000" pt_clust_6="41.43869"></scales>
<mgrwt>
<rscale>  0 0.30000000E+03</rscale>
<asrwt>  1 0.41438694E+02</asrwt>
<pdfrwt beam="1">  1        1 0.87684960E+00 0.30000000E+03</pdfrwt>
<pdfrwt beam="2">0</pdfrwt>
<totfact> 0.20823711E-04</totfact>
</mgrwt>
<clustering>
<clus scale="   41.439">  1  6  2 -1</clus>
<clus scale="  458.841">  4  5 -1 -1</clus>
<clus scale="  300.000">  1  4  2 -1</clus>
</clustering>
</event>
<event>
 6    1  0.9843879E-012  0.3000000E+03  0.7818608E-02  0.1093470E+00
          1   -1    0    0  502    0  0.00000000000E+00  0.00000000000E+00  0.23843558007E+03  0.23843558007E+03  0.00000000000E+00 0.  1.
         13   -1    0    0    0    0 -0.00000000000E+00 -0.00000000000E+00 -0.27500000000E+03  0.27500000000E+03  0.00000000000E+00 0.  1.
    9000005    2    1    2  501    0 -0.68946515758E+01 -0.34383898817E+02 -0.34986179171E+02  0.47833174037E+03  0.47575984739E+03 0.  0.
         13    1    3    3    0    0 -0.92938145112E+02  0.20335014779E+03 -0.40332113358E+01  0.22361808562E+03  0.00000000000E+00 0.  1.
          1    1    3    3  501    0  0.86043493536E+02 -0.23773404661E+03 -0.30952967836E+02  0.25471365474E+03  0.00000000000E+00 0.  1.
         21    1    1    2  502  501  0.68946515758E+01  0.34383898817E+02 -0.15782407578E+01  0.35103839705E+02  0.00000000000E+00 0.  1.
<scales pt_clust_4="550.00000" pt_clust_5="550.00000" pt_clust_6="35.06834"></scales>
<mgrwt>
<rscale>  0 0.30000000E+03</rscale>
<asrwt>  1 0.35068344E+02</asrwt>
<pdfrwt beam="1">  1        1 0.86703847E+00 0.30000000E+03</pdfrwt>
<pdfrwt beam="2">0</pdfrwt>
<totfact> 0.27166482E-04</totfact>
</mgrwt>
<clustering>
<clus scale="   35.068">  1  6  2 -1</clus>
<clus scale="  475.760">  4  5 -1 -1</clus>
<clus scale="  300.000">  1  4  2 -1</clus>
</clustering>
</event>
<event>
 6    1  0.9843879E-012  0.3000000E+03  0.7818608E-02  0.1093470E+00
          1   -1    0    0  502    0  0.00000000000E+00  0.00000000000E+00  0.23630753023E+03  0.23630753023E+03  0.00000000000E+00 0.  1.
         13   -1    0    0    0    0 -0.00000000000E+00 -0.00000000000E+00 -0.27500000000E+03  0.27500000000E+03  0.00000000000E+00 0.  1.
    9000005    2    1    2  501    0 -0.76185839697E+00 -0.35675383324E+02 -0.48958690984E+02  0.47417656335E+03  0.47029049151E+03 0.  0.
         13    1    3    3    0    0  0.26768542621E+02 -0.13790780369E+03 -0.22704705754E+03  0.26699341477E+03  0.00000000000E+00 0.  1.
          3    1    3    3  501    0 -0.27530401018E+02  0.10223242036E+03  0.17808836656E+03  0.20718314858E+03  0.00000000000E+00 0.  1.
         21    1    1    2  502  501  0.76185839697E+00  0.35675383324E+02  0.10266221213E+02  0.37130966881E+02  0.00000000000E+00 0.  1.
<scales pt_clust_4="550.00000" pt_clust_5="550.00000" pt_clust_6="35.68352"></scales>
<mgrwt>
<rscale>  0 0.30000000E+03</rscale>
<asrwt>  1 0.35683517E+02</asrwt>
<pdfrwt beam="1">  1        1 0.85930011E+00 0.30000000E+03</pdfrwt>
<pdfrwt beam="2">0</pdfrwt>
<totfact> 0.32786858E-04</totfact>
</mgrwt>
<clustering>
<clus scale="   35.684">  1  6  2 -1</clus>
<clus scale="  470.290">  4  5 -1 -1</clus>
<clus scale="  300.000">  1  4  2 -1</clus>
</clustering>
</event>
<event>
 6    1  0.9843879E-012  0.3000000E+03  0.7818608E-02  0.1093470E+00
          1   -1    0    0  502    0  0.00000000000E+00  0.00000000000E+00  0.23507853191E+03  0.23507853191E+03  0.00000000000E+00 0.  1.
         13   -1    0    0    0    0 -0.00000000000E+00 -0.00000000000E+00 -0.27500000000E+03  0.27500000000E+03  0.00000000000E+00 0.  1.
    9000005    2    1    2  501    0 -0.22866306670E+02  0.20164447810E+02 -0.60302054504E+02  0.47340645481E+03  0.46855934602E+03 0.  0.
         13    1    3    3    0    0 -0.21828604291E+03 -0.18843128899E+02  0.76079598567E+02  0.23193094954E+03  0.00000000000E+00 0.  1.
          1    1    3    3  501    0  0.19541973624E+03  0.39007576709E+02 -0.13638165307E+03  0.24147550527E+03  0.00000000000E+00 0.  1.
         21    1    1    2  502  501  0.22866306670E+02 -0.20164447810E+02  0.20380586414E+02  0.36672077099E+02  0.00000000000E+00 0. -1.
<scales pt_clust_4="550.00000" pt_clust_5="550.00000" pt_clust_6="30.48726"></scales>
<mgrwt>
<rscale>  0 0.30000000E+03</rscale>
<asrwt>  1 0.30487259E+02</asrwt>
<pdfrwt beam="1">  1        1 0.85483103E+00 0.30000000E+03</pdfrwt>
<pdfrwt beam="2">0</pdfrwt>
<totfact> 0.37543492E-04</totfact>
</mgrwt>
<clustering>
<clus scale="   30.487">  1  6  2 -1</clus>
<clus scale="  468.559">  4  5 -1 -1</clus>
<clus scale="  300.000">  1  4  2 -1</clus>
</clustering>
</event>
<event>
 6    1  0.9843879E-012  0.3000000E+03  0.7818608E-02  0.1093470E+00
          1   -1    0    0  502    0  0.00000000000E+00  0.00000000000E+00  0.23403056623E+03  0.23403056623E+03  0.00000000000E+00 0.  1.
         13   -1    0    0    0    0 -0.00000000000E+00 -0.00000000000E+00 -0.27500000000E+03  0.27500000000E+03  0.00000000000E+00 0.  1.
    9000005    2    1    2  501    0  0.33805187614E+02 -0.66107180878E+01 -0.70124246741E+01  0.46066145656E+03  0.45931831137E+03 0.  0.
         13    1    3    3    0    0  0.13887337140E+03 -0.13399050583E+02  0.19092172685E+03  0.23646660149E+03  0.00000000000E+00 0.  1.
          1    1    3    3  501    0 -0.10506818378E+03  0.67883324949E+01 -0.19793415152E+03  0.22419485507E+03  0.00000000000E+00 0.  1.
         21    1    1    2  502  501 -0.33805187614E+02  0.66107180878E+01 -0.33957009095E+02  0.48369109666E+02  0.00000000000E+00 0. -1.
<scales pt_clust_4="550.00000" pt_clust_5="550.00000" pt_clust_6="34.44551"></scales>
<mgrwt>
<rscale>  0 0.30000000E+03</rscale>
<asrwt>  1 0.34445515E+02</asrwt>
<pdfrwt beam="1">  1        1 0.85102024E+00 0.30000000E+03</pdfrwt>
<pdfrwt beam="2">0</pdfrwt>
<totfact> 0.39925758E-04</totfact>
</mgrwt>
<clustering>
<clus scale="   34.446">  1  6  2 -1</clus>
<clus scale="  459.318">  4  5 -1 -1</clus>
<clus scale="  300.000">  1  4  2 -1</clus>
</clustering>
</event>
<event>
 6    1  0.9843879E-012  0.3000000E+03  0.7818608E-02  0.1093470E+00
          1   -1    0    0  502    0  0.00000000000E+00  0.00000000000E+00  0.21814049112E+03  0.21814049112E+03  0.00000000000E+00 0.  1.
         13   -1    0    0    0    0 -0.00000000000E+00 -0.00000000000E+00 -0.27500000000E+03  0.27500000000E+03  0.00000000000E+00 0.  1.
    9000005    2    1    2  501    0  0.29918476700E+02 -0.23450168993E+01 -0.60684893415E+02  0.46288742650E+03  0.45790992451E+03 0.  0.
         13    1    3    3    0    0 -0.67330528994E+02 -0.21044875625E+03 -0.73402216284E+02  0.23283033414E+03  0.00000000000E+00 0.  1.
          3    1    3    3  501    0  0.97249005695E+02  0.20810373935E+03  0.12717322869E+02  0.23005709235E+03  0.00000000000E+00 0.  1.
         21    1    1    2  502  501 -0.29918476700E+02  0.23450168993E+01  0.38253845368E+01  0.30253064625E+02  0.00000000000E+00 0. -1.
<scales pt_clust_4="550.00000" pt_clust_5="550.00000" pt_clust_6="30.01024"></scales>
<mgrwt>
<rscale>  0 0.30000000E+03</rscale>
<asrwt>  1 0.30010237E+02</asrwt>
<pdfrwt beam="1">  1        1 0.79323815E+00 0.30000000E+03</pdfrwt>
<pdfrwt beam="2">0</pdfrwt>
<totfact> 0.11977285E-03</totfact>
</mgrwt>
<clustering>
<clus scale="   30.010">  1  6  2 -1</clus>
<clus scale="  457.910">  4  5 -1 -1</clus>
<clus scale="  300.000">  1  4  2 -1</clus>
</clustering>
</event>
<event>
 6    1  0.9843879E-012  0.3000000E+03  0.7818608E-02  0.1093470E+00
          1   -1    0    0  502    0  0.00000000000E+00  0.00000000000E+00  0.24457194134E+03  0.24457194134E+03  0.00000000000E+00 0.  1.
         13   -1    0    0    0    0 -0.00000000000E+00 -0.00000000000E+00 -0.27500000000E+03  0.27500000000E+03  0.00000000000E+00 0.  1.
    9000005    2    1    2  501    0  0.15675899107E+02 -0.33065056685E+02 -0.55791856380E+02  0.47504830693E+03  0.47033937842E+03 0.  0.
         13    1    3    3    0    0  0.25566385699E+02 -0.11667505406E+03  0.18486175729E+03  0.22009220256E+03  0.00000000000E+00 0.  1.
          3    1    3    3  501    0 -0.98904865919E+01  0.83609997374E+02 -0.24065361367E+03  0.25495610437E+03  0.00000000000E+00 0.  1.
         21    1    1    2  502  501 -0.15675899107E+02  0.33065056685E+02  0.25363797722E+02  0.44523634412E+02  0.00000000000E+00 0. -1.
<scales pt_clust_4="550.00000" pt_clust_5="550.00000" pt_clust_6="36.59278"></scales>
<mgrwt>
<rscale>  0 0.30000000E+03</rscale>
<asrwt>  1 0.36592783E+02</asrwt>
<pdfrwt beam="1">  1        1 0.88935251E+00 0.30000000E+03</pdfrwt>
<pdfrwt beam="2">0</pdfrwt>
<totfact> 0.14666035E-04</totfact>
</mgrwt>
<clustering>
<clus scale="   36.593">  1  6  2 -1</clus>
<clus scale="  470.339">  4  5 -1 -1</clus>
<clus scale="  300.000">  1  4  2 -1</clus>
</clustering>
</event>
<event>
 6    1  0.9843879E-012  0.3000000E+03  0.7818608E-02  0.1093470E+00
          1   -1    0    0  502    0  0.00000000000E+00  0.00000000000E+00  0.22606912140E+03  0.22606912140E+03  0.00000000000E+00 0.  1.
         13   -1    0    0    0    0 -0.00000000000E+00 -0.00000000000E+00 -0.27500000000E+03  0.27500000000E+03  0.00000000000E+00 0.  1.
    9000005    2    1    2  501    0 -0.30345744548E+02  0.16599052118E+02 -0.56091756370E+02  0.46574673595E+03  0.46106110677E+03 0.  0.
         13    1    3    3    0    0 -0.14445908293E+03 -0.18088611380E+03 -0.27462565377E+01  0.23150756949E+03  0.00000000000E+00 0.  1.
          3    1    3    3  501    0  0.11411333838E+03  0.19748516591E+03 -0.53345499833E+02  0.23423916646E+03  0.00000000000E+00 0.  1.
         21    1    1    2  502  501  0.30345744548E+02 -0.16599052118E+02  0.71608777683E+01  0.35322385448E+02  0.00000000000E+00 0. -1.
<scales pt_clust_4="550.00000" pt_clust_5="550.00000" pt_clust_6="34.58891"></scales>
<mgrwt>
<rscale>  0 0.30000000E+03</rscale>
<asrwt>  1 0.34588911E+02</asrwt>
<pdfrwt beam="1">  1        1 0.82206953E+00 0.30000000E+03</pdfrwt>
<pdfrwt beam="2">0</pdfrwt>
<totfact> 0.69522113E-04</totfact>
</mgrwt>
<clustering>
<clus scale="   34.589">  1  6  2 -1</clus>
<clus scale="  461.061">  4  5 -1 -1</clus>
<clus scale="  300.000">  1  4  2 -1</clus>
</clustering>
</event>
<event>
 6    1  0.9843879E-012  0.3000000E+03  0.7818608E-02  0.1093470E+00
          1   -1    0    0  502    0  0.00000000000E+00  0.00000000000E+00  0.23207703239E+03  0.23207703239E+03  0.00000000000E+00 0.  1.
         13   -1    0    0    0    0 -0.00000000000E+00 -0.00000000000E+00 -0.27500000000E+03  0.27500000000E+03  0.00000000000E+00 0.  1.
    9000005    2    1    2  501    0  0.31261976436E+02  0.94413013892E+01 -0.48170061871E+02  0.47400164364E+03  0.47041551204E+03 0.  0.
         13    1    3    3    0    0 -0.19785479951E+03 -0.54575669042E+01 -0.12237719188E+03  0.23270686242E+03  0.00000000000E+00 0.  1.
          1    1    3    3  501    0  0.22911677595E+03  0.14898868293E+02  0.74207130008E+02  0.24129478122E+03  0.00000000000E+00 0.  1.
         21    1    1    2  502  501 -0.31261976436E+02 -0.94413013892E+01  0.52470942585E+01  0.33075388747E+02  0.00000000000E+00 0. -1.
<scales pt_clust_4="550.00000" pt_clust_5="550.00000" pt_clust_6="32.65654"></scales>
<mgrwt>
<rscale>  0 0.30000000E+03</rscale>
<asrwt>  1 0.32656536E+02</asrwt>
<pdfrwt beam="1">  1        1 0.84391648E+00 0.30000000E+03</pdfrwt>
<pdfrwt beam="2">0</pdfrwt>
<totfact> 0.46775010E-04</totfact>
</mgrwt>
<clustering>
<clus scale="   32.657">  1  6  2 -1</clus>
<clus scale="  470.416">  4  5 -1 -1</clus>
<clus scale="  300.000">  1  4  2 -1</clus>
</clustering>
</event>
<event>
 6    1  0.9843879E-012  0.3000000E+03  0.7818608E-02  0.1093470E+00
          1   -1    0    0  502    0  0.00000000000E+00  0.00000000000E+00  0.22313618376E+03  0.22313618376E+03  0.00000000000E+00 0.  1.
         13   -1    0    0    0    0 -0.00000000000E+00 -0.00000000000E+00 -0.27500000000E+03  0.27500000000E+03  0.00000000000E+00 0.  1.
    9000005    2    1    2  501    0 -0.18007457696E+01  0.31099068969E+02 -0.50812879156E+02  0.46696730112E+03  0.46314805068E+03 0.  0.
         13    1    3    3    0    0  0.24417022840E+02 -0.18984105041E+02  0.20381058399E+03  0.20614398220E+03  0.00000000000E+00 0.  1.
          1    1    3    3  501    0 -0.26217768610E+02  0.50083174011E+02 -0.25462346315E+03  0.26082331892E+03  0.00000000000E+00 0.  1.
         21    1    1    2  502  501  0.18007457696E+01 -0.31099068969E+02 -0.10509370879E+01  0.31168882637E+02  0.00000000000E+00 0. -1.
<scales pt_clust_4="550.00000" pt_clust_5="550.00000" pt_clust_6="31.15116"></scales>
<mgrwt>
<rscale>  0 0.30000000E+03</rscale>
<asrwt>  1 0.31151160E+02</asrwt>
<pdfrwt beam="1">  1        1 0.81140430E+00 0.30000000E+03</pdfrwt>
<pdfrwt beam="2">0</pdfrwt>
<totfact> 0.86927663E-04</totfact>
</mgrwt>
<clustering>
<clus scale="   31.151">  1  6  2 -1</clus>
<clus scale="  463.148">  4  5 -1 -1</clus>
<clus scale="  300.000">  1  4  2 -1</clus>
</clustering>
</event>
<event>
 6    1  0.9843879E-012  0.3000000E+03  0.7818608E-02  0.1093470E+00
          1   -1    0    0  502    0  0.00000000000E+00  0.00000000000E+00  0.23363347213E+03  0.23363347213E+03  0.00000000000E+00 0.  1.
         13   -1    0    0    0    0 -0.00000000000E+00 -0.00000000000E+00 -0.27500000000E+03  0.27500000000E+03  0.00000000000E+00 0.  1.
    9000005    2    1    2  501    0 -0.19200774643E+02  0.24616982446E+02 -0.61240887994E+02  0.47162461154E+03  0.46658832205E+03 0.  0.
         13    1    3    3    0    0 -0.27795039691E+02 -0.21046954110E+03  0.39113098035E+02  0.21586992936E+03  0.00000000000E+00 0.  1.
          1    1    3    3  501    0  0.85942650480E+01  0.23508652355E+03 -0.10035398603E+03  0.25575468218E+03  0.00000000000E+00 0.  1.
         21    1    1    2  502  501  0.19200774643E+02 -0.24616982446E+02  0.19874360122E+02  0.37008860586E+02  0.00000000000E+00 0.  1.
<scales pt_clust_4="550.00000" pt_clust_5="550.00000" pt_clust_6="31.21963"></scales>
<mgrwt>
<rscale>  0 0.30000000E+03</rscale>
<asrwt>  1 0.31219634E+02</asrwt>
<pdfrwt beam="1">  1        1 0.84957626E+00 0.30000000E+03</pdfrwt>
<pdfrwt beam="2">0</pdfrwt>
<totfact> 0.41969161E-04</totfact>
</mgrwt>
<clustering>
<clus scale="   31.220">  1  6  2 -1</clus>
<clus scale="  466.588">  4  5 -1 -1</clus>
<clus scale="  300.000">  1  4  2 -1</clus>
</clustering>
</event>
<event>
 6    1  0.9843879E-012  0.3000000E+03  0.7818608E-02  0.1093470E+00
          1   -1    0    0  502    0  0.00000000000E+00  0.00000000000E+00  0.24785676756E+03  0.24785676756E+03  0.00000000000E+00 0.  1.
         13   -1    0    0    0    0 -0.00000000000E+00 -0.00000000000E+00 -0.27500000000E+03  0.27500000000E+03  0.00000000000E+00 0.  1.
    9000005    2    1    2  501    0 -0.11857509643E+02 -0.48496097327E+02 -0.49145606986E+02  0.46829875736E+03  0.46302911730E+03 0.  0.
         13    1    3    3    0    0 -0.32720436005E+02 -0.99994803150E+02 -0.24397861132E+03  0.26569747905E+03  0.00000000000E+00 0.  1.
          3    1    3    3  501    0  0.20862926362E+02  0.51498705823E+02  0.19483300433E+03  0.20260127832E+03  0.00000000000E+00 0.  1.
         21    1    1    2  502  501  0.11857509643E+02  0.48496097327E+02  0.22002374542E+02  0.54558010194E+02  0.00000000000E+00 0.  1.
<scales pt_clust_4="550.00000" pt_clust_5="550.00000" pt_clust_6="49.92466"></scales>
<mgrwt>
<rscale>  0 0.30000000E+03</rscale>
<asrwt>  1 0.49924663E+02</asrwt>
<pdfrwt beam="1">  1        1 0.90129734E+00 0.30000000E+03</pdfrwt>
<pdfrwt beam="2">0</pdfrwt>
<totfact> 0.99583687E-05</totfact>
</mgrwt>
<clustering>
<clus scale="   49.925">  1  6  2 -1</clus>
<clus scale="  463.029">  4  5 -1 -1</clus>
<clus scale="  300.000">  1  4  2 -1</clus>
</clustering>
</event>
<event>
 6    1  0.9843879E-012  0.3000000E+03  0.7818608E-02  0.1093470E+00
          1   -1    0    0  502    0  0.00000000000E+00  0.00000000000E+00  0.23351192183E+03  0.23351192183E+03  0.00000000000E+00 0.  1.
         13   -1    0    0    0    0 -0.00000000000E+00 -0.00000000000E+00 -0.27500000000E+03  0.27500000000E+03  0.00000000000E+00 0.  1.
    9000005    2    1    2  501    0  0.21217882957E+02  0.27056034213E+02 -0.65696566933E+02  0.46646101848E+03  0.46052971165E+03 0.  0.
         13    1    3    3    0    0 -0.16719067125E+03  0.13272564931E+03 -0.11840180651E+03  0.24410613741E+03  0.00000000000E+00 0.  1.
          1    1    3    3  501    0  0.18840855421E+03 -0.10566961509E+03  0.52705239578E+02  0.22235488106E+03  0.00000000000E+00 0.  1.
         21    1    1    2  502  501 -0.21217882957E+02 -0.27056034213E+02  0.24208488767E+02  0.42050903355E+02  0.00000000000E+00 0. -1.
<scales pt_clust_4="550.00000" pt_clust_5="550.00000" pt_clust_6="34.38354"></scales>
<mgrwt>
<rscale>  0 0.30000000E+03</rscale>
<asrwt>  1 0.34383536E+02</asrwt>
<pdfrwt beam="1">  1        1 0.84913426E+00 0.30000000E+03</pdfrwt>
<pdfrwt beam="2">0</pdfrwt>
<totfact> 0.41601444E-04</totfact>
</mgrwt>
<clustering>
<clus scale="   34.384">  1  6  2 -1</clus>
<clus scale="  460.530">  4  5 -1 -1</clus>
<clus scale="  300.000">  1  4  2 -1</clus>
</clustering>
</event>
<event>
 6    1  0.9843879E-012  0.3000000E+03  0.7818608E-02  0.1093470E+00
          1   -1    0    0  502    0  0.00000000000E+00  0.00000000000E+00  0.22991615044E+03  0.22991615044E+03  0.00000000000E+00 0.  1.
         13   -1    0    0    0    0 -0.00000000000E+00 -0.00000000000E+00 -0.27500000000E+03  0.27500000000E+03  0.00000000000E+00 0.  1.
    9000005    2    1    2  501    0 -0.38182365581E+02  0.10594702763E+02 -0.44566256780E+02  0.46528776831E+03  0.46145033896E+03 0.  0.
         13    1    3    3    0    0 -0.11850683499E+03 -0.80067217035E+02 -0.21376807573E+03  0.25719918231E+03  0.00000000000E+00 0.  1.
          3    1    3    3  501    0  0.80324469406E+02  0.90661919798E+02  0.16920181895E+03  0.20808858600E+03  0.00000000000E+00 0.  1.
         21    1    1    2  502  501  0.38182365581E+02 -0.10594702763E+02 -0.51759277821E+00  0.39628382130E+02  0.00000000000E+00 0.  1.
<scales pt_clust_4="550.00000" pt_clust_5="550.00000" pt_clust_6="39.62500"></scales>
<mgrwt>
<rscale>  0 0.30000000E+03</rscale>
<asrwt>  1 0.39625002E+02</asrwt>
<pdfrwt beam="1">  1        1 0.83605873E+00 0.30000000E+03</pdfrwt>
<pdfrwt beam="2">0</pdfrwt>
<totfact> 0.51942466E-04</totfact>
</mgrwt>
<clustering>
<clus scale="   39.625">  1  6  2 -1</clus>
<clus scale="  461.450">  4  5 -1 -1</clus>
<clus scale="  300.000">  1  4  2 -1</clus>
</clustering>
</event>
<event>
 6    1  0.9843879E-012  0.3000000E+03  0.7818608E-02  0.1093470E+00
          1   -1    0    0  502    0  0.00000000000E+00  0.00000000000E+00  0.24726258315E+03  0.24726258315E+03  0.00000000000E+00 0.  1.
         13   -1    0    0    0    0 -0.00000000000E+00 -0.00000000000E+00 -0.27500000000E+03  0.27500000000E+03  0.00000000000E+00 0.  1.
    9000005    2    1    2  501    0  0.20822801057E+02 -0.27604383941E+02 -0.21653989675E+02  0.48715419180E+03  0.48544280844E+03 0.  0.
         13    1    3    3    0    0 -0.11941374495E+03 -0.21885345693E+03 -0.18175922325E+02  0.24997368310E+03  0.00000000000E+00 0.  1.
          3    1    3    3  501    0  0.14023654601E+03  0.19124907299E+03 -0.34780673501E+01  0.23718050870E+03  0.00000000000E+00 0.  1.
         21    1    1    2  502  501 -0.20822801057E+02  0.27604383941E+02 -0.60834271765E+01  0.35108391345E+02  0.00000000000E+00 0.  1.
<scales pt_clust_4="550.00000" pt_clust_5="550.00000" pt_clust_6="34.57734"></scales>
<mgrwt>
<rscale>  0 0.30000000E+03</rscale>
<asrwt>  1 0.34577337E+02</asrwt>
<pdfrwt beam="1">  1        1 0.89913667E+00 0.30000000E+03</pdfrwt>
<pdfrwt beam="2">0</pdfrwt>
<totfact> 0.11342421E-04</totfact>
</mgrwt>
<clustering>
<clus scale="   34.577">  1  6  2 -1</clus>
<clus scale="  485.443">  4  5 -1 -1</clus>
<clus scale="  300.000">  1  4  2 -1</clus>
</clustering>
</event>
<event>
 6    1  0.9843879E-012  0.3000000E+03  0.7818608E-02  0.1093470E+00
          1   -1    0    0  502    0  0.00000000000E+00  0.00000000000E+00  0.22613831164E+03  0.22613831164E+03  0.00000000000E+00 0.  1.
         13   -1    0    0    0    0 -0.00000000000E+00 -0.00000000000E+00 -0.27500000000E+03  0.27500000000E+03  0.00000000000E+00 0.  1.
    9000005    2    1    2  501    0 -0.31820892838E+01  0.35289560502E+02 -0.57739635378E+02  0.46461028519E+03  0.45964483337E+03 0.  0.
         13    1    3    3    0    0 -0.19555799272E+02  0.55997774029E+02 -0.25692513128E+03  0.26368295937E+03  0.00000000000E+00 0.  1.
          3    1    3    3  501    0  0.16373709989E+02 -0.20708213526E+02  0.19918549590E+03  0.20092732582E+03  0.00000000000E+00 0.  1.
         21    1    1    2  502  501  0.31820892838E+01 -0.35289560502E+02  0.88779470154E+01  0.36528026444E+02  0.00000000000E+00 0.  1.
<scales pt_clust_4="550.00000" pt_clust_5="550.00000" pt_clust_6="35.43274"></scales>
<mgrwt>
<rscale>  0 0.30000000E+03</rscale>
<asrwt>  1 0.35432736E+02</asrwt>
<pdfrwt beam="1">  1        1 0.82232113E+00 0.30000000E+03</pdfrwt>
<pdfrwt beam="2">0</pdfrwt>
<totfact> 0.68854661E-04</totfact>
</mgrwt>
<clustering>
<clus scale="   35.433">  1  6  2 -1</clus>
<clus scale="  459.645">  4  5 -1 -1</clus>
<clus scale="  300.000">  1  4  2 -1</clus>
</clustering>
</event>
<event>
 6    1  0.9843879E-012  0.3000000E+03  0.7818608E-02  0.1093470E+00
          1   -1    0    0  502    0  0.00000000000E+00  0.00000000000E+00  0.23395708224E+03  0.23395708224E+03  0.00000000000E+00 0.  1.
         13   -1    0    0    0    0 -0.00000000000E+00 -0.00000000000E+00 -0.27500000000E+03  0.27500000000E+03  0.00000000000E+00 0.  1.
    9000005    2    1    2  501    0 -0.27242519560E+01  0.36647718670E+02 -0.24541989010E+02  0.46867361811E+03  0.46658565586E+03 0.  0.
         13    1    3    3    0    0  0.20608099633E+03 -0.65590034316E+02  0.54649887134E+02  0.22306510219E+03  0.00000000000E+00 0.  1.
          3    1    3    3  501    0 -0.20880524829E+03  0.10223775299E+03 -0.79191876144E+02  0.24560851593E+03  0.00000000000E+00 0.  1.
         21    1    1    2  502  501  0.27242519560E+01 -0.36647718670E+02 -0.16500928750E+02  0.40283464127E+02  0.00000000000E+00 0. -1.
<scales pt_clust_4="550.00000" pt_clust_5="550.00000" pt_clust_6="36.74885"></scales>
<mgrwt>
<rscale>  0 0.30000000E+03</rscale>
<asrwt>  1 0.36748853E+02</asrwt>
<pdfrwt beam="1">  1        1 0.85075303E+00 0.30000000E+03</pdfrwt>
<pdfrwt beam="2">0</pdfrwt>
<totfact> 0.39677271E-04</totfact>
</mgrwt>
<clustering>
<clus scale="   36.749">  1  6  2 -1</clus>
<clus scale="  466.586">  4  5 -1 -1</clus>
<clus scale="  300.000">  1  4  2 -1</clus>
</clustering>
</event>
