<event>
 6    1  0.3125838E-002  0.3000000E+03  0.7818608E-02  0.1093470E+00
          3   -1    0    0  502    0  0.00000000000E+00  0.00000000000E+00  0.11289238844E+01  0.11289238844E+01  0.00000000000E+00 0.  1.
         13   -1    0    0    0    0 -0.00000000000E+00 -0.00000000000E+00 -0.10000000000E+04  0.10000000000E+04  0.00000000000E+00 0.  1.
    9000005    2    1    2  501    0 -0.30160589338E+02  0.14258348211E+02 -0.55177377341E+03  0.55278869623E+03  0.28432407796E+01 0.  0.
         13    1    3    3    0    0 -0.27875559360E+02  0.13384183786E+02 -0.49777939992E+03  0.49873892385E+03  0.00000000000E+00 0.  1.
          1    1    3    3  501    0 -0.22850299778E+01  0.87416442460E+00 -0.53994373493E+02  0.54049772381E+02  0.00000000000E+00 0.  1.
         21    1    1    2  502  501  0.30160589338E+02 -0.14258348211E+02 -0.44709730271E+03  0.44834022765E+03  0.00000000000E+00 0.  1.
<mgrwt>
<rscale>  1 0.30000000E+03</rscale>
<asrwt>0</asrwt>
<pdfrwt beam="1">  1        3 0.41051864E-02 0.30000000E+03</pdfrwt>
<pdfrwt beam="2">0</pdfrwt>
<totfact> 0.13407302E+03</totfact>
</mgrwt>
</event>
<event>
 6    1  0.3125838E-002  0.3000000E+03  0.7818608E-02  0.1093470E+00
          1   -1    0    0  502    0  0.00000000000E+00  0.00000000000E+00  0.15273568310E+01  0.15273568310E+01  0.00000000000E+00 0.  1.
         13   -1    0    0    0    0 -0.00000000000E+00 -0.00000000000E+00 -0.10000000000E+04  0.10000000000E+04  0.00000000000E+00 0.  1.
    9000005    2    1    2  501    0 -0.35426524164E+02  0.15624803546E+02 -0.43831888292E+03  0.44003701122E+03  0.31551566462E+01 0.  0.
         13    1    3    3    0    0 -0.67381096790E+00  0.84763331733E+00 -0.11782219465E+02  0.11831872167E+02  0.00000000000E+00 0.  1.
          3    1    3    3  501    0 -0.34752713196E+02  0.14777170229E+02 -0.42653666346E+03  0.42820513905E+03  0.00000000000E+00 0.  1.
         21    1    1    2  502  501  0.35426524164E+02 -0.15624803546E+02 -0.56015376025E+03  0.56149034562E+03  0.00000000000E+00 0.  1.
<mgrwt>
<rscale>  1 0.30000000E+03</rscale>
<asrwt>0</asrwt>
<pdfrwt beam="1">  1        1 0.55540366E-02 0.30000000E+03</pdfrwt>
<pdfrwt beam="2">0</pdfrwt>
<totfact> 0.17161568E+03</totfact>
</mgrwt>
</event>
<event>
 6    1  0.3125838E-002  0.3000000E+03  0.7818608E-02  0.1093470E+00
          1   -1    0    0  502    0  0.00000000000E+00  0.00000000000E+00  0.10031484215E+01  0.10031484215E+01  0.00000000000E+00 0.  1.
         13   -1    0    0    0    0 -0.00000000000E+00 -0.00000000000E+00 -0.10000000000E+04  0.10000000000E+04  0.00000000000E+00 0.  1.
    9000005    2    1    2  501    0  0.29792775086E+02  0.99089703203E+01 -0.55153382489E+03  0.55243993393E+03  0.38109663633E+01 0.  0.
         13    1    3    3    0    0  0.85402149495E+01  0.38933240509E+01 -0.19053394449E+03  0.19076497909E+03  0.00000000000E+00 0.  1.
          3    1    3    3  501    0  0.21252560136E+02  0.60156462694E+01 -0.36099988040E+03  0.36167495484E+03  0.00000000000E+00 0.  1.
         21    1    1    2  502  501 -0.29792775086E+02 -0.99089703203E+01 -0.44746302669E+03  0.44856321449E+03  0.00000000000E+00 0.  1.
<mgrwt>
<rscale>  1 0.30000000E+03</rscale>
<asrwt>0</asrwt>
<pdfrwt beam="1">  1        1 0.36478201E-02 0.30000000E+03</pdfrwt>
<pdfrwt beam="2">0</pdfrwt>
<totfact> 0.31001358E+03</totfact>
</mgrwt>
</event>
<event>
 6    1  0.3125838E-002  0.3000000E+03  0.7818608E-02  0.1093470E+00
          1   -1    0    0  502    0  0.00000000000E+00  0.00000000000E+00  0.51224174659E+01  0.51224174659E+01  0.00000000000E+00 0.  1.
         13   -1    0    0    0    0 -0.00000000000E+00 -0.00000000000E+00 -0.10000000000E+04  0.10000000000E+04  0.00000000000E+00 0.  1.
    9000005    2    1    2  501    0  0.42724350694E+02 -0.89912579967E+01 -0.89559416296E+03  0.89666316123E+03  0.31156222515E+01 0.  0.
         13    1    3    3    0    0  0.38906723064E+02 -0.90046063028E+01 -0.80979013162E+03  0.81077424312E+03  0.00000000000E+00 0.  1.
          3    1    3    3  501    0  0.38176276302E+01  0.13348306083E-01 -0.85804031343E+02  0.85888918107E+02  0.00000000000E+00 0.  1.
         21    1    1    2  502  501 -0.42724350694E+02  0.89912579967E+01 -0.99283419569E+02  0.10845925624E+03  0.00000000000E+00 0.  1.
<mgrwt>
<rscale>  1 0.30000000E+03</rscale>
<asrwt>0</asrwt>
<pdfrwt beam="1">  1        1 0.18627012E-01 0.30000000E+03</pdfrwt>
<pdfrwt beam="2">0</pdfrwt>
<totfact> 0.32384571E+02</totfact>
</mgrwt>
</event>
<event>
 6    1  0.3125838E-002  0.3000000E+03  0.7818608E-02  0.1093470E+00
          3   -1    0    0  502    0  0.00000000000E+00  0.00000000000E+00  0.81488851185E+01  0.81488851185E+01  0.00000000000E+00 0.  1.
         13   -1    0    0    0    0 -0.00000000000E+00 -0.00000000000E+00 -0.10000000000E+04  0.10000000000E+04  0.00000000000E+00 0.  1.
    9000005    2    1    2  501    0 -0.72591146165E+02 -0.49765503792E+02 -0.60718912597E+03  0.61354664794E+03  0.38437792560E+01 0.  0.
         13    1    3    3    0    0 -0.34261744719E+02 -0.23854263730E+02 -0.30124058296E+03  0.30411968347E+03  0.00000000000E+00 0.  1.
          3    1    3    3  501    0 -0.38329401446E+02 -0.25911240062E+02 -0.30594854300E+03  0.30942696447E+03  0.00000000000E+00 0.  1.
         21    1    1    2  502  501  0.72591146165E+02  0.49765503792E+02 -0.38466198891E+03  0.39460223718E+03  0.00000000000E+00 0.  1.
<mgrwt>
<rscale>  1 0.30000000E+03</rscale>
<asrwt>0</asrwt>
<pdfrwt beam="1">  1        3 0.29632372E-01 0.30000000E+03</pdfrwt>
<pdfrwt beam="2">0</pdfrwt>
<totfact> 0.47872688E+01</totfact>
</mgrwt>
</event>
<event>
 6    1  0.3419437E-002  0.3000000E+03  0.7818608E-02  0.1093470E+00
          1   -1    0    0  502    0  0.00000000000E+00  0.00000000000E+00  0.17778195571E+01  0.17778195571E+01  0.00000000000E+00 0.  1.
         13   -1    0    0    0    0 -0.00000000000E+00 -0.00000000000E+00 -0.10000000000E+04  0.10000000000E+04  0.00000000000E+00 0.  1.
    9000005    2    1    2  501    0 -0.15127022024E+02  0.34869449034E+02 -0.70888075044E+03  0.70995052750E+03  0.85514844729E+01 0.  0.
         13    1    3    3    0    0 -0.73893882057E+01  0.78826607114E+01 -0.21811362091E+03  0.21838106837E+03  0.00000000000E+00 0.  1.
          1    1    3    3  501    0 -0.77376338184E+01  0.26986788322E+02 -0.49076712953E+03  0.49156945913E+03  0.00000000000E+00 0.  1.
         21    1    1    2  502  501  0.15127022024E+02 -0.34869449034E+02 -0.28934143000E+03  0.29182729205E+03  0.00000000000E+00 0.  1.
<mgrwt>
<rscale>  1 0.30000000E+03</rscale>
<asrwt>0</asrwt>
<pdfrwt beam="1">  1        1 0.64648120E-02 0.30000000E+03</pdfrwt>
<pdfrwt beam="2">0</pdfrwt>
<totfact> 0.13869175E+03</totfact>
</mgrwt>
</event>
<event>
 6    1  0.3125838E-002  0.3000000E+03  0.7818608E-02  0.1093470E+00
          1   -1    0    0  502    0  0.00000000000E+00  0.00000000000E+00  0.12670079225E+01  0.12670079225E+01  0.00000000000E+00 0.  1.
         13   -1    0    0    0    0 -0.00000000000E+00 -0.00000000000E+00 -0.10000000000E+04  0.10000000000E+04  0.00000000000E+00 0.  1.
    9000005    2    1    2  501    0  0.26733664787E+02 -0.18804123106E+02 -0.69615098808E+03  0.69692484354E+03  0.31233728343E+01 0.  0.
         13    1    3    3    0    0  0.22293847991E+02 -0.15878026119E+02 -0.55650568924E+03  0.55717834624E+03  0.00000000000E+00 0.  1.
          1    1    3    3  501    0  0.44398167960E+01 -0.29260969868E+01 -0.13964529884E+03  0.13974649729E+03  0.00000000000E+00 0.  1.
         21    1    1    2  502  501 -0.26733664787E+02  0.18804123106E+02 -0.30258200400E+03  0.30434216439E+03  0.00000000000E+00 0.  1.
<mgrwt>
<rscale>  1 0.30000000E+03</rscale>
<asrwt>0</asrwt>
<pdfrwt beam="1">  1        1 0.46073113E-02 0.30000000E+03</pdfrwt>
<pdfrwt beam="2">0</pdfrwt>
<totfact> 0.22316351E+03</totfact>
</mgrwt>
</event>
<event>
 6    1  0.3125838E-002  0.3000000E+03  0.7818608E-02  0.1093470E+00
          1   -1    0    0  502    0  0.00000000000E+00  0.00000000000E+00  0.15576195156E+01  0.15576195156E+01  0.00000000000E+00 0.  1.
         13   -1    0    0    0    0 -0.00000000000E+00 -0.00000000000E+00 -0.10000000000E+04  0.10000000000E+04  0.00000000000E+00 0.  1.
    9000005    2    1    2  501    0 -0.32960534223E+02  0.27123292182E+01 -0.76963782393E+03  0.77037527018E+03  0.64748227129E+01 0.  0.
         13    1    3    3    0    0 -0.15602230181E+02  0.62786962566E+00 -0.29150185992E+03  0.29191978033E+03  0.00000000000E+00 0.  1.
          1    1    3    3  501    0 -0.17358304041E+02  0.20844595925E+01 -0.47813596401E+03  0.47845548985E+03  0.00000000000E+00 0.  1.
         21    1    1    2  502  501  0.32960534223E+02 -0.27123292182E+01 -0.22880455656E+03  0.23118234934E+03  0.00000000000E+00 0.  1.
<mgrwt>
<rscale>  1 0.30000000E+03</rscale>
<asrwt>0</asrwt>
<pdfrwt beam="1">  1        1 0.56640829E-02 0.30000000E+03</pdfrwt>
<pdfrwt beam="2">0</pdfrwt>
<totfact> 0.16695286E+03</totfact>
</mgrwt>
</event>
<event>
 6    1  0.3125838E-002  0.3000000E+03  0.7818608E-02  0.1093470E+00
          3   -1    0    0  502    0  0.00000000000E+00  0.00000000000E+00  0.20923832460E+01  0.20923832460E+01  0.00000000000E+00 0.  1.
         13   -1    0    0    0    0 -0.00000000000E+00 -0.00000000000E+00 -0.10000000000E+04  0.10000000000E+04  0.00000000000E+00 0.  1.
    9000005    2    1    2  501    0 -0.45669281373E+02 -0.10490088172E+01 -0.50408629962E+03  0.50616267357E+03  0.32971158529E+01 0.  0.
         13    1    3    3    0    0 -0.34066992252E+02 -0.22122917525E+01 -0.37716140716E+03  0.37870328920E+03  0.00000000000E+00 0.  1.
          1    1    3    3  501    0 -0.11602289122E+02  0.11632829353E+01 -0.12692489245E+03  0.12745938437E+03  0.00000000000E+00 0.  1.
         21    1    1    2  502  501  0.45669281373E+02  0.10490088172E+01 -0.49382131714E+03  0.49592970968E+03  0.00000000000E+00 0.  1.
<mgrwt>
<rscale>  1 0.30000000E+03</rscale>
<asrwt>0</asrwt>
<pdfrwt beam="1">  1        3 0.76086824E-02 0.30000000E+03</pdfrwt>
<pdfrwt beam="2">0</pdfrwt>
<totfact> 0.51332054E+02</totfact>
</mgrwt>
</event>
<event>
 6    1  0.3125838E-002  0.3000000E+03  0.7818608E-02  0.1093470E+00
          3   -1    0    0  502    0  0.00000000000E+00  0.00000000000E+00  0.16808394037E+01  0.16808394037E+01  0.00000000000E+00 0.  1.
         13   -1    0    0    0    0 -0.00000000000E+00 -0.00000000000E+00 -0.10000000000E+04  0.10000000000E+04  0.00000000000E+00 0.  1.
    9000005    2    1    2  501    0  0.51662670384E+00  0.38538851528E+02 -0.66863059402E+03  0.66974701932E+03  0.29476526544E+01 0.  0.
         13    1    3    3    0    0 -0.10407111050E+00  0.70297737467E+01 -0.14261004408E+03  0.14278323859E+03  0.00000000000E+00 0.  1.
          3    1    3    3  501    0  0.62069781435E+00  0.31509077782E+02 -0.52602054994E+03  0.52696378074E+03  0.00000000000E+00 0.  1.
         21    1    1    2  502  501 -0.51662670384E+00 -0.38538851528E+02 -0.32968856658E+03  0.33193382008E+03  0.00000000000E+00 0.  1.
<mgrwt>
<rscale>  1 0.30000000E+03</rscale>
<asrwt>0</asrwt>
<pdfrwt beam="1">  1        3 0.61121562E-02 0.30000000E+03</pdfrwt>
<pdfrwt beam="2">0</pdfrwt>
<totfact> 0.72446690E+02</totfact>
</mgrwt>
</event>
<event>
 6    1  0.3125838E-002  0.3000000E+03  0.7818608E-02  0.1093470E+00
          1   -1    0    0  502    0  0.00000000000E+00  0.00000000000E+00  0.11193528309E+01  0.11193528309E+01  0.00000000000E+00 0.  1.
         13   -1    0    0    0    0 -0.00000000000E+00 -0.00000000000E+00 -0.10000000000E+04  0.10000000000E+04  0.00000000000E+00 0.  1.
    9000005    2    1    2  501    0 -0.25378308252E+02 -0.21200457786E+02 -0.44250292632E+03  0.44375978648E+03  0.45155685558E+01 0.  0.
         13    1    3    3    0    0 -0.22426015868E+02 -0.19936771476E+02 -0.38522240585E+03  0.38638931535E+03  0.00000000000E+00 0.  1.
          1    1    3    3  501    0 -0.29522923836E+01 -0.12636863101E+01 -0.57280520468E+02  0.57370471137E+02  0.00000000000E+00 0.  1.
         21    1    1    2  502  501  0.25378308252E+02  0.21200457786E+02 -0.55637772085E+03  0.55735956635E+03  0.00000000000E+00 0.  1.
<mgrwt>
<rscale>  1 0.30000000E+03</rscale>
<asrwt>0</asrwt>
<pdfrwt beam="1">  1        1 0.40703825E-02 0.30000000E+03</pdfrwt>
<pdfrwt beam="2">0</pdfrwt>
<totfact> 0.26568947E+03</totfact>
</mgrwt>
</event>
<event>
 6    1  0.3125838E-002  0.3000000E+03  0.7818608E-02  0.1093470E+00
          1   -1    0    0  502    0  0.00000000000E+00  0.00000000000E+00  0.12216847998E+01  0.12216847998E+01  0.00000000000E+00 0.  1.
         13   -1    0    0    0    0 -0.00000000000E+00 -0.00000000000E+00 -0.10000000000E+04  0.10000000000E+04  0.00000000000E+00 0.  1.
    9000005    2    1    2  501    0  0.20205033921E+02 -0.28006193003E+02 -0.42977330565E+03  0.43116967740E+03  0.30993905042E+01 0.  0.
         13    1    3    3    0    0  0.14855217486E+02 -0.22384684530E+02 -0.34249523088E+03  0.34354728170E+03  0.00000000000E+00 0.  1.
          3    1    3    3  501    0  0.53498164345E+01 -0.56215084736E+01 -0.87278074766E+02  0.87622395700E+02  0.00000000000E+00 0.  1.
         21    1    1    2  502  501 -0.20205033921E+02  0.28006193003E+02 -0.56900500955E+03  0.57005200740E+03  0.00000000000E+00 0.  1.
<mgrwt>
<rscale>  1 0.30000000E+03</rscale>
<asrwt>0</asrwt>
<pdfrwt beam="1">  1        1 0.44424995E-02 0.30000000E+03</pdfrwt>
<pdfrwt beam="2">0</pdfrwt>
<totfact> 0.23490190E+03</totfact>
</mgrwt>
</event>
<event>
 6    1  0.3125838E-002  0.3000000E+03  0.7818608E-02  0.1093470E+00
          1   -1    0    0  502    0  0.00000000000E+00  0.00000000000E+00  0.22296171598E+01  0.22296171598E+01  0.00000000000E+00 0.  1.
         13   -1    0    0    0    0 -0.00000000000E+00 -0.00000000000E+00 -0.10000000000E+04  0.10000000000E+04  0.00000000000E+00 0.  1.
    9000005    2    1    2  501    0 -0.25360339956E+02  0.30252270204E+02 -0.77322564226E+03  0.77424126830E+03  0.36470522057E+01 0.  0.
         13    1    3    3    0    0 -0.16444295647E+01  0.79584701408E+00 -0.36044432265E+02  0.36090699887E+02  0.00000000000E+00 0.  1.
          1    1    3    3  501    0 -0.23715910391E+02  0.29456423190E+02 -0.73718121000E+03  0.73815056841E+03  0.00000000000E+00 0.  1.
         21    1    1    2  502  501  0.25360339956E+02 -0.30252270204E+02 -0.22454474058E+03  0.22798834886E+03  0.00000000000E+00 0.  1.
<mgrwt>
<rscale>  1 0.30000000E+03</rscale>
<asrwt>0</asrwt>
<pdfrwt beam="1">  1        1 0.81077159E-02 0.30000000E+03</pdfrwt>
<pdfrwt beam="2">0</pdfrwt>
<totfact> 0.10108459E+03</totfact>
</mgrwt>
</event>
<event>
 6    1  0.3125838E-002  0.3000000E+03  0.7818608E-02  0.1093470E+00
          1   -1    0    0  502    0  0.00000000000E+00  0.00000000000E+00  0.21008381434E+01  0.21008381434E+01  0.00000000000E+00 0.  1.
         13   -1    0    0    0    0 -0.00000000000E+00 -0.00000000000E+00 -0.10000000000E+04  0.10000000000E+04  0.00000000000E+00 0.  1.
    9000005    2    1    2  501    0  0.23445959073E+02 -0.20582038637E+02 -0.86524824510E+03  0.86583052213E+03  0.58850729424E+01 0.  0.
         13    1    3    3    0    0  0.62160119820E+01 -0.67429316065E+01 -0.32745434542E+03  0.32758274415E+03  0.00000000000E+00 0.  1.
          3    1    3    3  501    0  0.17229947091E+02 -0.13839107031E+02 -0.53779389969E+03  0.53824777798E+03  0.00000000000E+00 0.  1.
         21    1    1    2  502  501 -0.23445959073E+02  0.20582038637E+02 -0.13265091675E+03  0.13627031601E+03  0.00000000000E+00 0.  1.
<mgrwt>
<rscale>  1 0.30000000E+03</rscale>
<asrwt>0</asrwt>
<pdfrwt beam="1">  1        1 0.76394275E-02 0.30000000E+03</pdfrwt>
<pdfrwt beam="2">0</pdfrwt>
<totfact> 0.10982019E+03</totfact>
</mgrwt>
</event>
<event>
 6    1  0.3125838E-002  0.3000000E+03  0.7818608E-02  0.1093470E+00
          1   -1    0    0  502    0  0.00000000000E+00  0.00000000000E+00  0.11422919788E+01  0.11422919788E+01  0.00000000000E+00 0.  1.
         13   -1    0    0    0    0 -0.00000000000E+00 -0.00000000000E+00 -0.10000000000E+04  0.10000000000E+04  0.00000000000E+00 0.  1.
    9000005    2    1    2  501    0 -0.18279212451E+02 -0.27338436618E+02 -0.61133206180E+03  0.61222373212E+03  0.30803668594E+01 0.  0.
         13    1    3    3    0    0 -0.12799037701E+02 -0.20361138641E+02 -0.42364060117E+03  0.42432269595E+03  0.00000000000E+00 0.  1.
          3    1    3    3  501    0 -0.54801747500E+01 -0.69772979775E+01 -0.18769146063E+03  0.18790103617E+03  0.00000000000E+00 0.  1.
         21    1    1    2  502  501  0.18279212451E+02  0.27338436618E+02 -0.38752564622E+03  0.38891855986E+03  0.00000000000E+00 0.  1.
<mgrwt>
<rscale>  1 0.30000000E+03</rscale>
<asrwt>0</asrwt>
<pdfrwt beam="1">  1        1 0.41537978E-02 0.30000000E+03</pdfrwt>
<pdfrwt beam="2">0</pdfrwt>
<totfact> 0.25820800E+03</totfact>
</mgrwt>
</event>
<event>
 6    1  0.3125838E-002  0.3000000E+03  0.7818608E-02  0.1093470E+00
          1   -1    0    0  502    0  0.00000000000E+00  0.00000000000E+00  0.15077230847E+01  0.15077230847E+01  0.00000000000E+00 0.  1.
         13   -1    0    0    0    0 -0.00000000000E+00 -0.00000000000E+00 -0.10000000000E+04  0.10000000000E+04  0.00000000000E+00 0.  1.
    9000005    2    1    2  501    0 -0.10892003913E+02  0.29135390090E+02 -0.79862575416E+03  0.79923529881E+03  0.25418391378E+01 0.  0.
         13    1    3    3    0    0 -0.27093190481E+01  0.82360516319E+01 -0.25143227650E+03  0.25158172156E+03  0.00000000000E+00 0.  1.
          3    1    3    3  501    0 -0.81826848649E+01  0.20899338458E+02 -0.54719347766E+03  0.54765357725E+03  0.00000000000E+00 0.  1.
         21    1    1    2  502  501  0.10892003913E+02 -0.29135390090E+02 -0.19986652275E+03  0.20227242427E+03  0.00000000000E+00 0.  1.
<mgrwt>
<rscale>  1 0.30000000E+03</rscale>
<asrwt>0</asrwt>
<pdfrwt beam="1">  1        1 0.54826410E-02 0.30000000E+03</pdfrwt>
<pdfrwt beam="2">0</pdfrwt>
<totfact> 0.17476195E+03</totfact>
</mgrwt>
</event>
<event>
 6    1  0.3125838E-002  0.3000000E+03  0.7818608E-02  0.1093470E+00
          1   -1    0    0  502    0  0.00000000000E+00  0.00000000000E+00  0.15059462513E+01  0.15059462513E+01  0.00000000000E+00 0.  1.
         13   -1    0    0    0    0 -0.00000000000E+00 -0.00000000000E+00 -0.10000000000E+04  0.10000000000E+04  0.00000000000E+00 0.  1.
    9000005    2    1    2  501    0 -0.37255296402E+02 -0.35903181165E+01 -0.62817110899E+03  0.62929642070E+03  0.37676843840E+01 0.  0.
         13    1    3    3    0    0 -0.34134904022E+02 -0.26034348970E+01 -0.58551448243E+03  0.58651443177E+03  0.00000000000E+00 0.  1.
          1    1    3    3  501    0 -0.31203923805E+01 -0.98688321951E+00 -0.42656626566E+02  0.42781988934E+02  0.00000000000E+00 0.  1.
         21    1    1    2  502  501  0.37255296402E+02  0.35903181165E+01 -0.37032294476E+03  0.37220952555E+03  0.00000000000E+00 0.  1.
<mgrwt>
<rscale>  1 0.30000000E+03</rscale>
<asrwt>0</asrwt>
<pdfrwt beam="1">  1        1 0.54761797E-02 0.30000000E+03</pdfrwt>
<pdfrwt beam="2">0</pdfrwt>
<totfact> 0.17505157E+03</totfact>
</mgrwt>
</event>
<event>
 6    1  0.3125838E-002  0.3000000E+03  0.7818608E-02  0.1093470E+00
          1   -1    0    0  502    0  0.00000000000E+00  0.00000000000E+00  0.20975506159E+01  0.20975506159E+01  0.00000000000E+00 0.  1.
         13   -1    0    0    0    0 -0.00000000000E+00 -0.00000000000E+00 -0.10000000000E+04  0.10000000000E+04  0.00000000000E+00 0.  1.
    9000005    2    1    2  501    0  0.29168959887E+02 -0.17310533850E+02 -0.83525651460E+03  0.83595248477E+03  0.35537035192E+01 0.  0.
         13    1    3    3    0    0  0.25579091690E+02 -0.14444343281E+02 -0.74542555766E+03  0.74600414945E+03  0.00000000000E+00 0.  1.
          3    1    3    3  501    0  0.35898681972E+01 -0.28661905685E+01 -0.89830956937E+02  0.89948335317E+02  0.00000000000E+00 0.  1.
         21    1    1    2  502  501 -0.29168959887E+02  0.17310533850E+02 -0.16264593479E+03  0.16614506585E+03  0.00000000000E+00 0.  1.
<mgrwt>
<rscale>  1 0.30000000E+03</rscale>
<asrwt>0</asrwt>
<pdfrwt beam="1">  1        1 0.76274729E-02 0.30000000E+03</pdfrwt>
<pdfrwt beam="2">0</pdfrwt>
<totfact> 0.11006034E+03</totfact>
</mgrwt>
</event>
<event>
 6    1  0.3125838E-002  0.3000000E+03  0.7818608E-02  0.1093470E+00
          1   -1    0    0  502    0  0.00000000000E+00  0.00000000000E+00  0.48580653293E+01  0.48580653293E+01  0.00000000000E+00 0.  1.
         13   -1    0    0    0    0 -0.00000000000E+00 -0.00000000000E+00 -0.10000000000E+04  0.10000000000E+04  0.00000000000E+00 0.  1.
    9000005    2    1    2  501    0 -0.36002445520E+02 -0.34999955794E+02 -0.84579855494E+03  0.84729976482E+03  0.45302253473E+01 0.  0.
         13    1    3    3    0    0 -0.36123968540E+01 -0.18683117268E+01 -0.73990241815E+02  0.74101929014E+02  0.00000000000E+00 0.  1.
          3    1    3    3  501    0 -0.32390048667E+02 -0.33131644067E+02 -0.77180831313E+03  0.77319783581E+03  0.00000000000E+00 0.  1.
         21    1    1    2  502  501  0.36002445520E+02  0.34999955794E+02 -0.14934337973E+03  0.15755830051E+03  0.00000000000E+00 0.  1.
<mgrwt>
<rscale>  1 0.30000000E+03</rscale>
<asrwt>0</asrwt>
<pdfrwt beam="1">  1        1 0.17665729E-01 0.30000000E+03</pdfrwt>
<pdfrwt beam="2">0</pdfrwt>
<totfact> 0.34774289E+02</totfact>
</mgrwt>
</event>
<event>
 6    1  0.3125838E-002  0.3000000E+03  0.7818608E-02  0.1093470E+00
          3   -1    0    0  502    0  0.00000000000E+00  0.00000000000E+00  0.46205346437E+01  0.46205346437E+01  0.00000000000E+00 0.  1.
         13   -1    0    0    0    0 -0.00000000000E+00 -0.00000000000E+00 -0.10000000000E+04  0.10000000000E+04  0.00000000000E+00 0.  1.
    9000005    2    1    2  501    0 -0.47111155117E+02  0.48493398397E+02 -0.54708903390E+03  0.55126043323E+03  0.32532444422E+01 0.  0.
         13    1    3    3    0    0 -0.87881528482E+01  0.10668503938E+02 -0.11725408105E+03  0.11806594822E+03  0.00000000000E+00 0.  1.
          3    1    3    3  501    0 -0.38323002268E+02  0.37824894459E+02 -0.42983495285E+03  0.43319448501E+03  0.00000000000E+00 0.  1.
         21    1    1    2  502  501  0.47111155117E+02 -0.48493398397E+02 -0.44829043145E+03  0.45336010142E+03  0.00000000000E+00 0.  1.
<mgrwt>
<rscale>  1 0.30000000E+03</rscale>
<asrwt>0</asrwt>
<pdfrwt beam="1">  1        3 0.16801980E-01 0.30000000E+03</pdfrwt>
<pdfrwt beam="2">0</pdfrwt>
<totfact> 0.13650305E+02</totfact>
</mgrwt>
</event>
<event>
 6    1  0.3125838E-002  0.3000000E+03  0.7818608E-02  0.1093470E+00
          1   -1    0    0  502    0  0.00000000000E+00  0.00000000000E+00  0.16918074858E+01  0.16918074858E+01  0.00000000000E+00 0.  1.
         13   -1    0    0    0    0 -0.00000000000E+00 -0.00000000000E+00 -0.10000000000E+04  0.10000000000E+04  0.00000000000E+00 0.  1.
    9000005    2    1    2  501    0  0.10287910811E+01  0.32212758940E+02 -0.80918966257E+03  0.80984671732E+03  0.50075249932E+01 0.  0.
         13    1    3    3    0    0  0.27335207099E+01  0.21986220207E+02 -0.52195546767E+03  0.52242547435E+03  0.00000000000E+00 0.  1.
          3    1    3    3  501    0 -0.17047296288E+01  0.10226538733E+02 -0.28723419489E+03  0.28742124298E+03  0.00000000000E+00 0.  1.
         21    1    1    2  502  501 -0.10287910811E+01 -0.32212758940E+02 -0.18911852995E+03  0.19184509016E+03  0.00000000000E+00 0.  1.
<mgrwt>
<rscale>  1 0.30000000E+03</rscale>
<asrwt>0</asrwt>
<pdfrwt beam="1">  1        1 0.61520402E-02 0.30000000E+03</pdfrwt>
<pdfrwt beam="2">0</pdfrwt>
<totfact> 0.14867386E+03</totfact>
</mgrwt>
</event>
<event>
 6    1  0.3125838E-002  0.3000000E+03  0.7818608E-02  0.1093470E+00
          1   -1    0    0  502    0  0.00000000000E+00  0.00000000000E+00  0.11587267378E+03  0.11587267378E+03  0.00000000000E+00 0.  1.
         13   -1    0    0    0    0 -0.00000000000E+00 -0.00000000000E+00 -0.10000000000E+04  0.10000000000E+04  0.00000000000E+00 0.  1.
    9000005    2    1    2  501    0  0.59755668745E+02 -0.94740328364E+02 -0.96892495266E+03  0.97538385851E+03  0.34114211352E+01 0.  0.
         13    1    3    3    0    0  0.49634149158E+02 -0.79715799273E+02 -0.82183613617E+03  0.82718365079E+03  0.00000000000E+00 0.  1.
          1    1    3    3  501    0  0.10121519587E+02 -0.15024529091E+02 -0.14708881649E+03  0.14820020772E+03  0.00000000000E+00 0.  1.
         21    1    1    2  502  501 -0.59755668745E+02  0.94740328364E+02  0.84797626442E+02  0.14048881527E+03  0.00000000000E+00 0.  1.
<mgrwt>
<rscale>  1 0.30000000E+03</rscale>
<asrwt>0</asrwt>
<pdfrwt beam="1">  1        1 0.42135607E+00 0.30000000E+03</pdfrwt>
<pdfrwt beam="2">0</pdfrwt>
<totfact> 0.78673511E-01</totfact>
</mgrwt>
</event>
<event>
 6    1  0.3125838E-002  0.3000000E+03  0.7818608E-02  0.1093470E+00
          3   -1    0    0  502    0  0.00000000000E+00  0.00000000000E+00  0.13639212056E+01  0.13639212056E+01  0.00000000000E+00 0.  1.
         13   -1    0    0    0    0 -0.00000000000E+00 -0.00000000000E+00 -0.10000000000E+04  0.10000000000E+04  0.00000000000E+00 0.  1.
    9000005    2    1    2  501    0  0.20091510926E+02  0.27097921427E+02 -0.70129630592E+03  0.70211668781E+03  0.36562903438E+01 0.  0.
         13    1    3    3    0    0  0.15265532466E+02  0.22932689402E+02 -0.57517361190E+03  0.57583298668E+03  0.00000000000E+00 0.  1.
          1    1    3    3  501    0  0.48259784597E+01  0.41652320249E+01 -0.12612269402E+03  0.12628370114E+03  0.00000000000E+00 0.  1.
         21    1    1    2  502  501 -0.20091510926E+02 -0.27097921427E+02 -0.29733977288E+03  0.29924723339E+03  0.00000000000E+00 0.  1.
<mgrwt>
<rscale>  1 0.30000000E+03</rscale>
<asrwt>0</asrwt>
<pdfrwt beam="1">  1        3 0.49597239E-02 0.30000000E+03</pdfrwt>
<pdfrwt beam="2">0</pdfrwt>
<totfact> 0.10018242E+03</totfact>
</mgrwt>
</event>
<event>
 6    1  0.3125838E-002  0.3000000E+03  0.7818608E-02  0.1093470E+00
          1   -1    0    0  502    0  0.00000000000E+00  0.00000000000E+00  0.20552390822E+01  0.20552390822E+01  0.00000000000E+00 0.  1.
         13   -1    0    0    0    0 -0.00000000000E+00 -0.00000000000E+00 -0.10000000000E+04  0.10000000000E+04  0.00000000000E+00 0.  1.
    9000005    2    1    2  501    0  0.25323280095E+02 -0.37450909297E+02 -0.52666715092E+03  0.52861419227E+03  0.32920037160E+01 0.  0.
         13    1    3    3    0    0  0.24097718872E+02 -0.35984045956E+02 -0.51071968245E+03  0.51255257844E+03  0.00000000000E+00 0.  1.
          3    1    3    3  501    0  0.12255612236E+01 -0.14668633410E+01 -0.15947468466E+02  0.16061613830E+02  0.00000000000E+00 0.  1.
         21    1    1    2  502  501 -0.25323280095E+02  0.37450909297E+02 -0.47127761000E+03  0.47344104682E+03  0.00000000000E+00 0.  1.
<mgrwt>
<rscale>  1 0.30000000E+03</rscale>
<asrwt>0</asrwt>
<pdfrwt beam="1">  1        1 0.74736124E-02 0.30000000E+03</pdfrwt>
<pdfrwt beam="2">0</pdfrwt>
<totfact> 0.11323492E+03</totfact>
</mgrwt>
</event>
<event>
 6    1  0.3125838E-002  0.3000000E+03  0.7818608E-02  0.1093470E+00
          1   -1    0    0  502    0  0.00000000000E+00  0.00000000000E+00  0.10279997476E+02  0.10279997476E+02  0.00000000000E+00 0.  1.
         13   -1    0    0    0    0 -0.00000000000E+00 -0.00000000000E+00 -0.10000000000E+04  0.10000000000E+04  0.00000000000E+00 0.  1.
    9000005    2    1    2  501    0 -0.75797784975E+00  0.34729853651E+02 -0.96941200214E+03  0.97004130783E+03  0.37110288252E+01 0.  0.
         13    1    3    3    0    0 -0.12095137234E+01  0.49177841282E+01 -0.16121937824E+03  0.16129890094E+03  0.00000000000E+00 0.  1.
          3    1    3    3  501    0  0.45153587364E+00  0.29812069523E+02 -0.80819262390E+03  0.80874240689E+03  0.00000000000E+00 0.  1.
         21    1    1    2  502  501  0.75797784975E+00 -0.34729853651E+02 -0.20308000385E+02  0.40238689649E+02  0.00000000000E+00 0.  1.
<mgrwt>
<rscale>  1 0.30000000E+03</rscale>
<asrwt>0</asrwt>
<pdfrwt beam="1">  1        1 0.37381888E-01 0.30000000E+03</pdfrwt>
<pdfrwt beam="2">0</pdfrwt>
<totfact> 0.12912904E+02</totfact>
</mgrwt>
</event>
<event>
 6    1  0.3125838E-002  0.3000000E+03  0.7818608E-02  0.1093470E+00
          3   -1    0    0  502    0  0.00000000000E+00  0.00000000000E+00  0.28637569879E+01  0.28637569879E+01  0.00000000000E+00 0.  1.
         13   -1    0    0    0    0 -0.00000000000E+00 -0.00000000000E+00 -0.10000000000E+04  0.10000000000E+04  0.00000000000E+00 0.  1.
    9000005    2    1    2  501    0 -0.47856838426E+02 -0.23115740275E+02 -0.55085913237E+03  0.55343314620E+03  0.42248268321E+01 0.  0.
         13    1    3    3    0    0 -0.16849152131E+02 -0.86964371203E+01 -0.17659896235E+03  0.17761395060E+03  0.00000000000E+00 0.  1.
          1    1    3    3  501    0 -0.31007686295E+02 -0.14419303155E+02 -0.37426017002E+03  0.37581919559E+03  0.00000000000E+00 0.  1.
         21    1    1    2  502  501  0.47856838426E+02  0.23115740275E+02 -0.44627711064E+03  0.44943061079E+03  0.00000000000E+00 0.  1.
<mgrwt>
<rscale>  1 0.30000000E+03</rscale>
<asrwt>0</asrwt>
<pdfrwt beam="1">  1        3 0.10413684E-01 0.30000000E+03</pdfrwt>
<pdfrwt beam="2">0</pdfrwt>
<totfact> 0.30884277E+02</totfact>
</mgrwt>
</event>
<event>
 6    1  0.3125838E-002  0.3000000E+03  0.7818608E-02  0.1093470E+00
          1   -1    0    0  502    0  0.00000000000E+00  0.00000000000E+00  0.24509891691E+01  0.24509891691E+01  0.00000000000E+00 0.  1.
         13   -1    0    0    0    0 -0.00000000000E+00 -0.00000000000E+00 -0.10000000000E+04  0.10000000000E+04  0.00000000000E+00 0.  1.
    9000005    2    1    2  501    0 -0.30209910531E+01  0.43332708532E+02 -0.26090946199E+03  0.26453183714E+03  0.40614638711E+01 0.  0.
         13    1    3    3    0    0  0.58012154660E+00  0.20848149204E+02 -0.12460258171E+03  0.12633600134E+03  0.00000000000E+00 0.  1.
          3    1    3    3  501    0 -0.36011125997E+01  0.22484559328E+02 -0.13630688029E+03  0.13819583580E+03  0.00000000000E+00 0.  1.
         21    1    1    2  502  501  0.30209910531E+01 -0.43332708532E+02 -0.73663954884E+03  0.73791915203E+03  0.00000000000E+00 0.  1.
<mgrwt>
<rscale>  1 0.30000000E+03</rscale>
<asrwt>0</asrwt>
<pdfrwt beam="1">  1        1 0.89127067E-02 0.30000000E+03</pdfrwt>
<pdfrwt beam="2">0</pdfrwt>
<totfact> 0.88627422E+02</totfact>
</mgrwt>
</event>
<event>
 6    1  0.3125838E-002  0.3000000E+03  0.7818608E-02  0.1093470E+00
          1   -1    0    0  502    0  0.00000000000E+00  0.00000000000E+00  0.11045295581E+01  0.11045295581E+01  0.00000000000E+00 0.  1.
         13   -1    0    0    0    0 -0.00000000000E+00 -0.00000000000E+00 -0.10000000000E+04  0.10000000000E+04  0.00000000000E+00 0.  1.
    9000005    2    1    2  501    0 -0.58857311834E+00 -0.32714124293E+02 -0.42296078475E+03  0.42424118133E+03  0.37675128254E+01 0.  0.
         13    1    3    3    0    0 -0.36165922654E+00 -0.31827931011E+02 -0.41670083991E+03  0.41791474965E+03  0.00000000000E+00 0.  1.
          1    1    3    3  501    0 -0.22691389180E+00 -0.88619328240E+00 -0.62599448413E+01  0.63264316849E+01  0.00000000000E+00 0.  1.
         21    1    1    2  502  501  0.58857311834E+00  0.32714124293E+02 -0.57593468569E+03  0.57686334823E+03  0.00000000000E+00 0.  1.
<mgrwt>
<rscale>  1 0.30000000E+03</rscale>
<asrwt>0</asrwt>
<pdfrwt beam="1">  1        1 0.40164796E-02 0.30000000E+03</pdfrwt>
<pdfrwt beam="2">0</pdfrwt>
<totfact> 0.27072357E+03</totfact>
</mgrwt>
</event>
<event>
 6    1  0.3125838E-002  0.3000000E+03  0.7818608E-02  0.1093470E+00
          1   -1    0    0  502    0  0.00000000000E+00  0.00000000000E+00  0.33526113167E+02  0.33526113167E+02  0.00000000000E+00 0.  1.
         13   -1    0    0    0    0 -0.00000000000E+00 -0.00000000000E+00 -0.10000000000E+04  0.10000000000E+04  0.00000000000E+00 0.  1.
    9000005    2    1    2  501    0  0.88839461538E+00 -0.36385493045E+02 -0.98968445375E+03  0.99035872077E+03  0.32224932384E+01 0.  0.
         13    1    3    3    0    0  0.15163506826E+00 -0.21090933171E+02 -0.53083734513E+03  0.53125618814E+03  0.00000000000E+00 0.  1.
          1    1    3    3  501    0  0.73675954712E+00 -0.15294559874E+02 -0.45884710863E+03  0.45910253264E+03  0.00000000000E+00 0.  1.
         21    1    1    2  502  501 -0.88839461538E+00  0.36385493045E+02  0.23210566921E+02  0.43167392392E+02  0.00000000000E+00 0.  1.
<mgrwt>
<rscale>  1 0.30000000E+03</rscale>
<asrwt>0</asrwt>
<pdfrwt beam="1">  1        1 0.12191340E+00 0.30000000E+03</pdfrwt>
<pdfrwt beam="2">0</pdfrwt>
<totfact> 0.25359035E+01</totfact>
</mgrwt>
</event>
<event>
 6    1  0.3125838E-002  0.3000000E+03  0.7818608E-02  0.1093470E+00
          1   -1    0    0  502    0  0.00000000000E+00  0.00000000000E+00  0.66786937337E+01  0.66786937337E+01  0.00000000000E+00 0.  1.
         13   -1    0    0    0    0 -0.00000000000E+00 -0.00000000000E+00 -0.10000000000E+04  0.10000000000E+04  0.00000000000E+00 0.  1.
    9000005    2    1    2  501    0 -0.24840855918E+02 -0.18248963166E+02 -0.96280508214E+03  0.96330436130E+03  0.34019881001E+01 0.  0.
         13    1    3    3    0    0 -0.14049689228E+02 -0.97760890085E+01 -0.48311226428E+03  0.48341537582E+03  0.00000000000E+00 0.  1.
          1    1    3    3  501    0 -0.10791166689E+02 -0.84728741573E+01 -0.47969281786E+03  0.47988898548E+03  0.00000000000E+00 0.  1.
         21    1    1    2  502  501  0.24840855918E+02  0.18248963166E+02 -0.30516224129E+02  0.43374332438E+02  0.00000000000E+00 0.  1.
<mgrwt>
<rscale>  1 0.30000000E+03</rscale>
<asrwt>0</asrwt>
<pdfrwt beam="1">  1        1 0.24286210E-01 0.30000000E+03</pdfrwt>
<pdfrwt beam="2">0</pdfrwt>
<totfact> 0.22748007E+02</totfact>
</mgrwt>
</event>
<event>
 6    1  0.3125838E-002  0.3000000E+03  0.7818608E-02  0.1093470E+00
          1   -1    0    0  502    0  0.00000000000E+00  0.00000000000E+00  0.14368292298E+01  0.14368292298E+01  0.00000000000E+00 0.  1.
         13   -1    0    0    0    0 -0.00000000000E+00 -0.00000000000E+00 -0.10000000000E+04  0.10000000000E+04  0.00000000000E+00 0.  1.
    9000005    2    1    2  501    0  0.31577596687E+02  0.12198927651E+01 -0.77198656434E+03  0.77266709493E+03  0.72492284281E+01 0.  0.
         13    1    3    3    0    0  0.16624543528E+02 -0.16304098331E+01 -0.33616158230E+03  0.33657635552E+03  0.00000000000E+00 0.  1.
          3    1    3    3  501    0  0.14953053158E+02  0.28503025982E+01 -0.43582498204E+03  0.43609073941E+03  0.00000000000E+00 0.  1.
         21    1    1    2  502  501 -0.31577596687E+02 -0.12198927651E+01 -0.22657660643E+03  0.22876973430E+03  0.00000000000E+00 0.  1.
<mgrwt>
<rscale>  1 0.30000000E+03</rscale>
<asrwt>0</asrwt>
<pdfrwt beam="1">  1        1 0.52248446E-02 0.30000000E+03</pdfrwt>
<pdfrwt beam="2">0</pdfrwt>
<totfact> 0.18699298E+03</totfact>
</mgrwt>
</event>
<event>
 6    1  0.3125838E-002  0.3000000E+03  0.7818608E-02  0.1093470E+00
          3   -1    0    0  502    0  0.00000000000E+00  0.00000000000E+00  0.92877928278E+00  0.92877928278E+00  0.00000000000E+00 0.  1.
         13   -1    0    0    0    0 -0.00000000000E+00 -0.00000000000E+00 -0.10000000000E+04  0.10000000000E+04  0.00000000000E+00 0.  1.
    9000005    2    1    2  501    0  0.67097760719E+01 -0.29450223160E+02 -0.55448052736E+03  0.55531322596E+03  0.34332158040E+01 0.  0.
         13    1    3    3    0    0  0.59261313743E+01 -0.19419450840E+02 -0.38299680255E+03  0.38353459409E+03  0.00000000000E+00 0.  1.
          3    1    3    3  501    0  0.78364469762E+00 -0.10030772321E+02 -0.17148372481E+03  0.17177863187E+03  0.00000000000E+00 0.  1.
         21    1    1    2  502  501 -0.67097760719E+01  0.29450223160E+02 -0.44459069336E+03  0.44561555332E+03  0.00000000000E+00 0.  1.
<mgrwt>
<rscale>  1 0.30000000E+03</rscale>
<asrwt>0</asrwt>
<pdfrwt beam="1">  1        3 0.33773863E-02 0.30000000E+03</pdfrwt>
<pdfrwt beam="2">0</pdfrwt>
<totfact> 0.18107342E+03</totfact>
</mgrwt>
</event>
<event>
 6    1  0.3125838E-002  0.3000000E+03  0.7818608E-02  0.1093470E+00
          1   -1    0    0  502    0  0.00000000000E+00  0.00000000000E+00  0.15662207560E+02  0.15662207560E+02  0.00000000000E+00 0.  1.
         13   -1    0    0    0    0 -0.00000000000E+00 -0.00000000000E+00 -0.10000000000E+04  0.10000000000E+04  0.00000000000E+00 0.  1.
    9000005    2    1    2  501    0 -0.51522055918E+02  0.76139449633E+02 -0.83669084991E+03  0.84173303325E+03  0.33440863695E+01 0.  0.
         13    1    3    3    0    0 -0.23856961909E+02  0.34154215243E+02 -0.39331762868E+03  0.39551791626E+03  0.00000000000E+00 0.  1.
          3    1    3    3  501    0 -0.27665094008E+02  0.41985234390E+02 -0.44337322122E+03  0.44621511699E+03  0.00000000000E+00 0.  1.
         21    1    1    2  502  501  0.51522055918E+02 -0.76139449633E+02 -0.14764694253E+03  0.17392917431E+03  0.00000000000E+00 0.  1.
<mgrwt>
<rscale>  1 0.30000000E+03</rscale>
<asrwt>0</asrwt>
<pdfrwt beam="1">  1        1 0.56953602E-01 0.30000000E+03</pdfrwt>
<pdfrwt beam="2">0</pdfrwt>
<totfact> 0.74308931E+01</totfact>
</mgrwt>
</event>
<event>
 6    1  0.3125838E-002  0.3000000E+03  0.7818608E-02  0.1093470E+00
          1   -1    0    0  502    0  0.00000000000E+00  0.00000000000E+00  0.54779338452E+01  0.54779338452E+01  0.00000000000E+00 0.  1.
         13   -1    0    0    0    0 -0.00000000000E+00 -0.00000000000E+00 -0.10000000000E+04  0.10000000000E+04  0.00000000000E+00 0.  1.
    9000005    2    1    2  501    0 -0.21972612483E+02  0.40284130656E+02 -0.89144162036E+03  0.89264538009E+03  0.64811418747E+01 0.  0.
         13    1    3    3    0    0 -0.21284710727E+02  0.34730173815E+02 -0.77685732408E+03  0.77792449881E+03  0.00000000000E+00 0.  1.
          1    1    3    3  501    0 -0.68790175606E+00  0.55539568416E+01 -0.11458429629E+03  0.11472088128E+03  0.00000000000E+00 0.  1.
         21    1    1    2  502  501  0.21972612483E+02 -0.40284130656E+02 -0.10308044579E+03  0.11283255375E+03  0.00000000000E+00 0.  1.
<mgrwt>
<rscale>  1 0.30000000E+03</rscale>
<asrwt>0</asrwt>
<pdfrwt beam="1">  1        1 0.19919801E-01 0.30000000E+03</pdfrwt>
<pdfrwt beam="2">0</pdfrwt>
<totfact> 0.29600282E+02</totfact>
</mgrwt>
</event>
<event>
 6    1  0.3125838E-002  0.3000000E+03  0.7818608E-02  0.1093470E+00
          1   -1    0    0  502    0  0.00000000000E+00  0.00000000000E+00  0.10082351641E+01  0.10082351641E+01  0.00000000000E+00 0.  1.
         13   -1    0    0    0    0 -0.00000000000E+00 -0.00000000000E+00 -0.10000000000E+04  0.10000000000E+04  0.00000000000E+00 0.  1.
    9000005    2    1    2  501    0 -0.30912939913E+02 -0.52545992762E+01 -0.57493817138E+03  0.57579691030E+03  0.22271813036E+01 0.  0.
         13    1    3    3    0    0 -0.66989811829E+01 -0.52006284998E+00 -0.11105829544E+03  0.11126136706E+03  0.00000000000E+00 0.  1.
          1    1    3    3  501    0 -0.24213958730E+02 -0.47345364262E+01 -0.46387987594E+03  0.46453554324E+03  0.00000000000E+00 0.  1.
         21    1    1    2  502  501  0.30912939913E+02  0.52545992762E+01 -0.42405359346E+03  0.42521132487E+03  0.00000000000E+00 0.  1.
<mgrwt>
<rscale>  1 0.30000000E+03</rscale>
<asrwt>0</asrwt>
<pdfrwt beam="1">  1        1 0.36663174E-02 0.30000000E+03</pdfrwt>
<pdfrwt beam="2">0</pdfrwt>
<totfact> 0.30781508E+03</totfact>
</mgrwt>
</event>
<event>
 6    1  0.3125838E-002  0.3000000E+03  0.7818608E-02  0.1093470E+00
          1   -1    0    0  502    0  0.00000000000E+00  0.00000000000E+00  0.17480396552E+01  0.17480396552E+01  0.00000000000E+00 0.  1.
         13   -1    0    0    0    0 -0.00000000000E+00 -0.00000000000E+00 -0.10000000000E+04  0.10000000000E+04  0.00000000000E+00 0.  1.
    9000005    2    1    2  501    0  0.36868451341E+02 -0.44181585689E+01 -0.72828960216E+03  0.72924395223E+03  0.34920499554E+01 0.  0.
         13    1    3    3    0    0  0.11655746489E+02 -0.26930273897E+01 -0.25398715167E+03  0.25426872013E+03  0.00000000000E+00 0.  1.
          1    1    3    3  501    0  0.25212704852E+02 -0.17251311791E+01 -0.47430245050E+03  0.47497523210E+03  0.00000000000E+00 0.  1.
         21    1    1    2  502  501 -0.36868451341E+02  0.44181585689E+01 -0.26996235818E+03  0.27250408743E+03  0.00000000000E+00 0.  1.
<mgrwt>
<rscale>  1 0.30000000E+03</rscale>
<asrwt>0</asrwt>
<pdfrwt beam="1">  1        1 0.63565212E-02 0.30000000E+03</pdfrwt>
<pdfrwt beam="2">0</pdfrwt>
<totfact> 0.14201340E+03</totfact>
</mgrwt>
</event>
<event>
 6    1  0.3125838E-002  0.3000000E+03  0.7818608E-02  0.1093470E+00
          1   -1    0    0  502    0  0.00000000000E+00  0.00000000000E+00  0.27392461491E+01  0.27392461491E+01  0.00000000000E+00 0.  1.
         13   -1    0    0    0    0 -0.00000000000E+00 -0.00000000000E+00 -0.10000000000E+04  0.10000000000E+04  0.00000000000E+00 0.  1.
    9000005    2    1    2  501    0 -0.36658767569E+01  0.36971867317E+02 -0.85154327263E+03  0.85235991925E+03  0.33360391268E+01 0.  0.
         13    1    3    3    0    0  0.48791095775E+00  0.10084822712E+02 -0.23071089464E+03  0.23093171851E+03  0.00000000000E+00 0.  1.
          1    1    3    3  501    0 -0.41537877147E+01  0.26887044604E+02 -0.62083237799E+03  0.62142820075E+03  0.00000000000E+00 0.  1.
         21    1    1    2  502  501  0.36658767569E+01 -0.36971867317E+02 -0.14571748122E+03  0.15037932689E+03  0.00000000000E+00 0.  1.
<mgrwt>
<rscale>  1 0.30000000E+03</rscale>
<asrwt>0</asrwt>
<pdfrwt beam="1">  1        1 0.99609161E-02 0.30000000E+03</pdfrwt>
<pdfrwt beam="2">0</pdfrwt>
<totfact> 0.75983331E+02</totfact>
</mgrwt>
</event>
<event>
 6    1  0.3125838E-002  0.3000000E+03  0.7818608E-02  0.1093470E+00
          1   -1    0    0  502    0  0.00000000000E+00  0.00000000000E+00  0.13021694629E+01  0.13021694629E+01  0.00000000000E+00 0.  1.
         13   -1    0    0    0    0 -0.00000000000E+00 -0.00000000000E+00 -0.10000000000E+04  0.10000000000E+04  0.00000000000E+00 0.  1.
    9000005    2    1    2  501    0  0.18291564393E+02 -0.26473581997E+02 -0.72512226131E+03  0.72584069493E+03  0.26436156127E+01 0.  0.
         13    1    3    3    0    0  0.14507333067E+02 -0.20244706607E+02 -0.53686677824E+03  0.53744418170E+03  0.00000000000E+00 0.  1.
          1    1    3    3  501    0  0.37842313255E+01 -0.62288753899E+01 -0.18825548306E+03  0.18839651323E+03  0.00000000000E+00 0.  1.
         21    1    1    2  502  501 -0.18291564393E+02  0.26473581997E+02 -0.27357556923E+03  0.27546147453E+03  0.00000000000E+00 0.  1.
<mgrwt>
<rscale>  1 0.30000000E+03</rscale>
<asrwt>0</asrwt>
<pdfrwt beam="1">  1        1 0.47351717E-02 0.30000000E+03</pdfrwt>
<pdfrwt beam="2">0</pdfrwt>
<totfact> 0.21473352E+03</totfact>
</mgrwt>
</event>
<event>
 6    1  0.3125838E-002  0.3000000E+03  0.7818608E-02  0.1093470E+00
          3   -1    0    0  502    0  0.00000000000E+00  0.00000000000E+00  0.11715787716E+01  0.11715787716E+01  0.00000000000E+00 0.  1.
         13   -1    0    0    0    0 -0.00000000000E+00 -0.00000000000E+00 -0.10000000000E+04  0.10000000000E+04  0.00000000000E+00 0.  1.
    9000005    2    1    2  501    0 -0.30174950387E+02 -0.41159762491E+01 -0.72634948760E+03  0.72699601793E+03  0.34875576814E+01 0.  0.
         13    1    3    3    0    0 -0.39058973801E+01 -0.17358719740E+01 -0.98114629708E+02  0.98207687319E+02  0.00000000000E+00 0.  1.
          3    1    3    3  501    0 -0.26269053007E+02 -0.23801042751E+01 -0.62823485789E+03  0.62878833061E+03  0.00000000000E+00 0.  1.
         21    1    1    2  502  501  0.30174950387E+02  0.41159762491E+01 -0.27247893363E+03  0.27417556084E+03  0.00000000000E+00 0.  1.
<mgrwt>
<rscale>  1 0.30000000E+03</rscale>
<asrwt>0</asrwt>
<pdfrwt beam="1">  1        3 0.42602954E-02 0.30000000E+03</pdfrwt>
<pdfrwt beam="2">0</pdfrwt>
<totfact> 0.12664579E+03</totfact>
</mgrwt>
</event>
<event>
 6    1  0.3125838E-002  0.3000000E+03  0.7818608E-02  0.1093470E+00
          3   -1    0    0  502    0  0.00000000000E+00  0.00000000000E+00  0.15217687260E+01  0.15217687260E+01  0.00000000000E+00 0.  1.
         13   -1    0    0    0    0 -0.00000000000E+00 -0.00000000000E+00 -0.10000000000E+04  0.10000000000E+04  0.00000000000E+00 0.  1.
    9000005    2    1    2  501    0  0.21265711915E+02  0.32499408152E+02 -0.53723875328E+03  0.53864997428E+03  0.31424087263E+01 0.  0.
         13    1    3    3    0    0  0.48704823295E+00  0.71540393879E+00 -0.70161322242E+01  0.70693090302E+01  0.00000000000E+00 0.  1.
          1    1    3    3  501    0  0.20778663682E+02  0.31784004213E+02 -0.53022262106E+03  0.53158066525E+03  0.00000000000E+00 0.  1.
         21    1    1    2  502  501 -0.21265711915E+02 -0.32499408152E+02 -0.46123947799E+03  0.46287179445E+03  0.00000000000E+00 0.  1.
<mgrwt>
<rscale>  1 0.30000000E+03</rscale>
<asrwt>0</asrwt>
<pdfrwt beam="1">  1        3 0.55337161E-02 0.30000000E+03</pdfrwt>
<pdfrwt beam="2">0</pdfrwt>
<totfact> 0.84575111E+02</totfact>
</mgrwt>
</event>
<event>
 6    1  0.3125838E-002  0.3000000E+03  0.7818608E-02  0.1093470E+00
          1   -1    0    0  502    0  0.00000000000E+00  0.00000000000E+00  0.12408691695E+01  0.12408691695E+01  0.00000000000E+00 0.  1.
         13   -1    0    0    0    0 -0.00000000000E+00 -0.00000000000E+00 -0.10000000000E+04  0.10000000000E+04  0.00000000000E+00 0.  1.
    9000005    2    1    2  501    0  0.21579853030E+02  0.27208417166E+02 -0.57917136012E+03  0.58021844061E+03  0.28260250542E+01 0.  0.
         13    1    3    3    0    0  0.29936541086E+01  0.30808073715E+01 -0.86486120634E+02  0.86592738733E+02  0.00000000000E+00 0.  1.
          1    1    3    3  501    0  0.18586198921E+02  0.24127609794E+02 -0.49268523949E+03  0.49362570188E+03  0.00000000000E+00 0.  1.
         21    1    1    2  502  501 -0.21579853030E+02 -0.27208417166E+02 -0.41958777071E+03  0.42102242856E+03  0.00000000000E+00 0.  1.
<mgrwt>
<rscale>  1 0.30000000E+03</rscale>
<asrwt>0</asrwt>
<pdfrwt beam="1">  1        1 0.45122610E-02 0.30000000E+03</pdfrwt>
<pdfrwt beam="2">0</pdfrwt>
<totfact> 0.22980668E+03</totfact>
</mgrwt>
</event>
<event>
 6    1  0.3125838E-002  0.3000000E+03  0.7818608E-02  0.1093470E+00
          1   -1    0    0  502    0  0.00000000000E+00  0.00000000000E+00  0.22941013181E+01  0.22941013181E+01  0.00000000000E+00 0.  1.
         13   -1    0    0    0    0 -0.00000000000E+00 -0.00000000000E+00 -0.10000000000E+04  0.10000000000E+04  0.00000000000E+00 0.  1.
    9000005    2    1    2  501    0  0.31109394174E+02  0.41694409166E+00 -0.87917935270E+03  0.87975222949E+03  0.62994312287E+01 0.  0.
         13    1    3    3    0    0  0.25328510653E+02 -0.20417955789E+01 -0.72391552535E+03  0.72436136715E+03  0.00000000000E+00 0.  1.
          3    1    3    3  501    0  0.57808835210E+01  0.24587396706E+01 -0.15526382735E+03  0.15539086234E+03  0.00000000000E+00 0.  1.
         21    1    1    2  502  501 -0.31109394174E+02 -0.41694409166E+00 -0.11852654598E+03  0.12254187183E+03  0.00000000000E+00 0.  1.
<mgrwt>
<rscale>  1 0.30000000E+03</rscale>
<asrwt>0</asrwt>
<pdfrwt beam="1">  1        1 0.83422042E-02 0.30000000E+03</pdfrwt>
<pdfrwt beam="2">0</pdfrwt>
<totfact> 0.97154266E+02</totfact>
</mgrwt>
</event>
<event>
 6    1  0.3125838E-002  0.3000000E+03  0.7818608E-02  0.1093470E+00
          1   -1    0    0  502    0  0.00000000000E+00  0.00000000000E+00  0.32958944541E+02  0.32958944541E+02  0.00000000000E+00 0.  1.
         13   -1    0    0    0    0 -0.00000000000E+00 -0.00000000000E+00 -0.10000000000E+04  0.10000000000E+04  0.00000000000E+00 0.  1.
    9000005    2    1    2  501    0 -0.17108825032E+03 -0.22041580022E+02 -0.64441226002E+03  0.66710875622E+03  0.31481920453E+01 0.  0.
         13    1    3    3    0    0 -0.83021307365E+02 -0.11715673290E+02 -0.30853342886E+03  0.31972280369E+03  0.00000000000E+00 0.  1.
          3    1    3    3  501    0 -0.88066942957E+02 -0.10325906733E+02 -0.33587883116E+03  0.34738595253E+03  0.00000000000E+00 0.  1.
         21    1    1    2  502  501  0.17108825032E+03  0.22041580022E+02 -0.32262879544E+03  0.36585018832E+03  0.00000000000E+00 0.  1.
<mgrwt>
<rscale>  1 0.30000000E+03</rscale>
<asrwt>0</asrwt>
<pdfrwt beam="1">  1        1 0.11985096E+00 0.30000000E+03</pdfrwt>
<pdfrwt beam="2">0</pdfrwt>
<totfact> 0.26046529E+01</totfact>
</mgrwt>
</event>
<event>
 6    1  0.3125838E-002  0.3000000E+03  0.7818608E-02  0.1093470E+00
          3   -1    0    0  502    0  0.00000000000E+00  0.00000000000E+00  0.19234273873E+01  0.19234273873E+01  0.00000000000E+00 0.  1.
         13   -1    0    0    0    0 -0.00000000000E+00 -0.00000000000E+00 -0.10000000000E+04  0.10000000000E+04  0.00000000000E+00 0.  1.
    9000005    2    1    2  501    0 -0.29389053864E+02 -0.11271435395E+02 -0.84745615676E+03  0.84804922092E+03  0.38447025342E+01 0.  0.
         13    1    3    3    0    0 -0.58490697515E+01 -0.38926870168E+01 -0.19890177682E+03  0.19902583111E+03  0.00000000000E+00 0.  1.
          1    1    3    3  501    0 -0.23539984112E+02 -0.73787483785E+01 -0.64855437994E+03  0.64902338981E+03  0.00000000000E+00 0.  1.
         21    1    1    2  502  501  0.29389053864E+02  0.11271435395E+02 -0.15062041586E+03  0.15387420647E+03  0.00000000000E+00 0.  1.
<mgrwt>
<rscale>  1 0.30000000E+03</rscale>
<asrwt>0</asrwt>
<pdfrwt beam="1">  1        3 0.69942962E-02 0.30000000E+03</pdfrwt>
<pdfrwt beam="2">0</pdfrwt>
<totfact> 0.58649957E+02</totfact>
</mgrwt>
</event>
<event>
 6    1  0.3125838E-002  0.3000000E+03  0.7818608E-02  0.1093470E+00
          1   -1    0    0  502    0  0.00000000000E+00  0.00000000000E+00  0.20917614464E+01  0.20917614464E+01  0.00000000000E+00 0.  1.
         13   -1    0    0    0    0 -0.00000000000E+00 -0.00000000000E+00 -0.10000000000E+04  0.10000000000E+04  0.00000000000E+00 0.  1.
    9000005    2    1    2  501    0 -0.22403756159E+02  0.29841221769E+02 -0.78828225396E+03  0.78917046091E+03  0.29457856294E+01 0.  0.
         13    1    3    3    0    0 -0.16737232025E+02  0.23288225305E+02 -0.58138318075E+03  0.58209009546E+03  0.00000000000E+00 0.  1.
          1    1    3    3  501    0 -0.56665241342E+01  0.65529964635E+01 -0.20689907321E+03  0.20708036544E+03  0.00000000000E+00 0.  1.
         21    1    1    2  502  501  0.22403756159E+02 -0.29841221769E+02 -0.20962598459E+03  0.21292130054E+03  0.00000000000E+00 0.  1.
<mgrwt>
<rscale>  1 0.30000000E+03</rscale>
<asrwt>0</asrwt>
<pdfrwt beam="1">  1        1 0.76064213E-02 0.30000000E+03</pdfrwt>
<pdfrwt beam="2">0</pdfrwt>
<totfact> 0.11048548E+03</totfact>
</mgrwt>
</event>
<event>
 6    1  0.3125838E-002  0.3000000E+03  0.7818608E-02  0.1093470E+00
          1   -1    0    0  502    0  0.00000000000E+00  0.00000000000E+00  0.15430932381E+01  0.15430932381E+01  0.00000000000E+00 0.  1.
         13   -1    0    0    0    0 -0.00000000000E+00 -0.00000000000E+00 -0.10000000000E+04  0.10000000000E+04  0.00000000000E+00 0.  1.
    9000005    2    1    2  501    0  0.28933381368E+02 -0.13170185857E+02 -0.79060233056E+03  0.79127155640E+03  0.69308398108E+01 0.  0.
         13    1    3    3    0    0  0.22304375979E+02 -0.68203937293E+01 -0.58306747866E+03  0.58353379305E+03  0.00000000000E+00 0.  1.
          3    1    3    3  501    0  0.66290053895E+01 -0.63497921275E+01 -0.20753485189E+03  0.20773776335E+03  0.00000000000E+00 0.  1.
         21    1    1    2  502  501 -0.28933381368E+02  0.13170185857E+02 -0.20785457621E+03  0.21027153683E+03  0.00000000000E+00 0.  1.
<mgrwt>
<rscale>  1 0.30000000E+03</rscale>
<asrwt>0</asrwt>
<pdfrwt beam="1">  1        1 0.56112600E-02 0.30000000E+03</pdfrwt>
<pdfrwt beam="2">0</pdfrwt>
<totfact> 0.16916352E+03</totfact>
</mgrwt>
</event>
<event>
 6    1  0.3125838E-002  0.3000000E+03  0.7818608E-02  0.1093470E+00
          1   -1    0    0  502    0  0.00000000000E+00  0.00000000000E+00  0.10009529515E+02  0.10009529515E+02  0.00000000000E+00 0.  1.
         13   -1    0    0    0    0 -0.00000000000E+00 -0.00000000000E+00 -0.10000000000E+04  0.10000000000E+04  0.00000000000E+00 0.  1.
    9000005    2    1    2  501    0 -0.42274448874E+02 -0.11785787660E+01 -0.95264522408E+03  0.95358980331E+03  0.34744712563E+01 0.  0.
         13    1    3    3    0    0 -0.32398454571E+02 -0.13416402881E+01 -0.69709632647E+03  0.69785009008E+03  0.00000000000E+00 0.  1.
          3    1    3    3  501    0 -0.98759943034E+01  0.16306152207E+00 -0.25554889761E+03  0.25573971323E+03  0.00000000000E+00 0.  1.
         21    1    1    2  502  501  0.42274448874E+02  0.11785787660E+01 -0.37345246410E+02  0.56419726204E+02  0.00000000000E+00 0.  1.
<mgrwt>
<rscale>  1 0.30000000E+03</rscale>
<asrwt>0</asrwt>
<pdfrwt beam="1">  1        1 0.36398366E-01 0.30000000E+03</pdfrwt>
<pdfrwt beam="2">0</pdfrwt>
<totfact> 0.13370237E+02</totfact>
</mgrwt>
</event>
<event>
 6    1  0.3125838E-002  0.3000000E+03  0.7818608E-02  0.1093470E+00
          1   -1    0    0  502    0  0.00000000000E+00  0.00000000000E+00  0.41982650877E+01  0.41982650877E+01  0.00000000000E+00 0.  1.
         13   -1    0    0    0    0 -0.00000000000E+00 -0.00000000000E+00 -0.10000000000E+04  0.10000000000E+04  0.00000000000E+00 0.  1.
    9000005    2    1    2  501    0 -0.20553126610E+02  0.58324776897E+02 -0.64716833543E+03  0.65012276770E+03  0.29237115328E+01 0.  0.
         13    1    3    3    0    0 -0.19159088940E+02  0.54772025158E+02 -0.59934182108E+03  0.60214422186E+03  0.00000000000E+00 0.  1.
          1    1    3    3  501    0 -0.13940376705E+01  0.35527517391E+01 -0.47826514350E+02  0.47978545839E+02  0.00000000000E+00 0.  1.
         21    1    1    2  502  501  0.20553126610E+02 -0.58324776897E+02 -0.34863339949E+03  0.35407549739E+03  0.00000000000E+00 0.  1.
<mgrwt>
<rscale>  1 0.30000000E+03</rscale>
<asrwt>0</asrwt>
<pdfrwt beam="1">  1        1 0.15266451E-01 0.30000000E+03</pdfrwt>
<pdfrwt beam="2">0</pdfrwt>
<totfact> 0.42356244E+02</totfact>
</mgrwt>
</event>
<event>
 6    1  0.3125838E-002  0.3000000E+03  0.7818608E-02  0.1093470E+00
          1   -1    0    0  502    0  0.00000000000E+00  0.00000000000E+00  0.67465151200E+01  0.67465151200E+01  0.00000000000E+00 0.  1.
         13   -1    0    0    0    0 -0.00000000000E+00 -0.00000000000E+00 -0.10000000000E+04  0.10000000000E+04  0.00000000000E+00 0.  1.
    9000005    2    1    2  501    0 -0.74519045407E+02 -0.33814860111E+02 -0.46274842913E+03  0.46996709388E+03  0.60355424739E+01 0.  0.
         13    1    3    3    0    0 -0.48103419556E+02 -0.24855691833E+02 -0.30970493895E+03  0.31440243892E+03  0.00000000000E+00 0.  1.
          1    1    3    3  501    0 -0.26415625851E+02 -0.89591682778E+01 -0.15304349018E+03  0.15556465496E+03  0.00000000000E+00 0.  1.
         21    1    1    2  502  501  0.74519045407E+02  0.33814860111E+02 -0.53050505575E+03  0.53677942124E+03  0.00000000000E+00 0.  1.
<mgrwt>
<rscale>  1 0.30000000E+03</rscale>
<asrwt>0</asrwt>
<pdfrwt beam="1">  1        1 0.24532834E-01 0.30000000E+03</pdfrwt>
<pdfrwt beam="2">0</pdfrwt>
<totfact> 0.22446201E+02</totfact>
</mgrwt>
</event>
<event>
 6    1  0.3125838E-002  0.3000000E+03  0.7818608E-02  0.1093470E+00
          1   -1    0    0  502    0  0.00000000000E+00  0.00000000000E+00  0.12967083852E+01  0.12967083852E+01  0.00000000000E+00 0.  1.
         13   -1    0    0    0    0 -0.00000000000E+00 -0.00000000000E+00 -0.10000000000E+04  0.10000000000E+04  0.00000000000E+00 0.  1.
    9000005    2    1    2  501    0 -0.32445103464E+02  0.29642529394E+01 -0.71101578450E+03  0.71177024451E+03  0.34588476353E+01 0.  0.
         13    1    3    3    0    0 -0.18608418444E+02  0.17153731473E+01 -0.44440518531E+03  0.44479791420E+03  0.00000000000E+00 0.  1.
          1    1    3    3  501    0 -0.13836685020E+02  0.12488797921E+01 -0.26661059918E+03  0.26697233031E+03  0.00000000000E+00 0.  1.
         21    1    1    2  502  501  0.32445103464E+02 -0.29642529394E+01 -0.28768750712E+03  0.28952646388E+03  0.00000000000E+00 0.  1.
<mgrwt>
<rscale>  1 0.30000000E+03</rscale>
<asrwt>0</asrwt>
<pdfrwt beam="1">  1        1 0.47153132E-02 0.30000000E+03</pdfrwt>
<pdfrwt beam="2">0</pdfrwt>
<totfact> 0.21600658E+03</totfact>
</mgrwt>
</event>
<event>
 6    1  0.3125838E-002  0.3000000E+03  0.7818608E-02  0.1093470E+00
          3   -1    0    0  502    0  0.00000000000E+00  0.00000000000E+00  0.15464153967E+01  0.15464153967E+01  0.00000000000E+00 0.  1.
         13   -1    0    0    0    0 -0.00000000000E+00 -0.00000000000E+00 -0.10000000000E+04  0.10000000000E+04  0.00000000000E+00 0.  1.
    9000005    2    1    2  501    0  0.11340995185E+02  0.37491505675E+02 -0.47779447423E+03  0.47941602901E+03  0.42353395483E+01 0.  0.
         13    1    3    3    0    0  0.58250644310E+01  0.15769697936E+02 -0.22744388915E+03  0.22806432746E+03  0.00000000000E+00 0.  1.
          1    1    3    3  501    0  0.55159307539E+01  0.21721807739E+02 -0.25035058507E+03  0.25135170154E+03  0.00000000000E+00 0.  1.
         21    1    1    2  502  501 -0.11340995185E+02 -0.37491505675E+02 -0.52065911038E+03  0.52213038639E+03  0.00000000000E+00 0.  1.
<mgrwt>
<rscale>  1 0.30000000E+03</rscale>
<asrwt>0</asrwt>
<pdfrwt beam="1">  1        3 0.56233406E-02 0.30000000E+03</pdfrwt>
<pdfrwt beam="2">0</pdfrwt>
<totfact> 0.82492190E+02</totfact>
</mgrwt>
</event>
<event>
 6    1  0.3125838E-002  0.3000000E+03  0.7818608E-02  0.1093470E+00
          1   -1    0    0  502    0  0.00000000000E+00  0.00000000000E+00  0.17746814910E+01  0.17746814910E+01  0.00000000000E+00 0.  1.
         13   -1    0    0    0    0 -0.00000000000E+00 -0.00000000000E+00 -0.10000000000E+04  0.10000000000E+04  0.00000000000E+00 0.  1.
    9000005    2    1    2  501    0 -0.33818169816E+02 -0.71401828243E+01 -0.78509991891E+03  0.78586477719E+03  0.26295507665E+01 0.  0.
         13    1    3    3    0    0 -0.48378211311E+01 -0.40124923231E+00 -0.95550908667E+02  0.95674143118E+02  0.00000000000E+00 0.  1.
          1    1    3    3  501    0 -0.28980348685E+02 -0.67389335920E+01 -0.68954901024E+03  0.69019063407E+03  0.00000000000E+00 0.  1.
         21    1    1    2  502  501  0.33818169816E+02  0.71401828243E+01 -0.21312539960E+03  0.21590990430E+03  0.00000000000E+00 0.  1.
<mgrwt>
<rscale>  1 0.30000000E+03</rscale>
<asrwt>0</asrwt>
<pdfrwt beam="1">  1        1 0.64534008E-02 0.30000000E+03</pdfrwt>
<pdfrwt beam="2">0</pdfrwt>
<totfact> 0.13903542E+03</totfact>
</mgrwt>
</event>
<event>
 6    1  0.3125838E-002  0.3000000E+03  0.7818608E-02  0.1093470E+00
          1   -1    0    0  502    0  0.00000000000E+00  0.00000000000E+00  0.20894028588E+01  0.20894028588E+01  0.00000000000E+00 0.  1.
         13   -1    0    0    0    0 -0.00000000000E+00 -0.00000000000E+00 -0.10000000000E+04  0.10000000000E+04  0.00000000000E+00 0.  1.
    9000005    2    1    2  501    0 -0.30240875156E+02  0.27587023137E+02 -0.72118773400E+03  0.72235542680E+03  0.31718419894E+01 0.  0.
         13    1    3    3    0    0 -0.48505872990E+01  0.33083930061E+01 -0.90875185788E+02  0.91064664131E+02  0.00000000000E+00 0.  1.
          1    1    3    3  501    0 -0.25390287857E+02  0.24278630131E+02 -0.63031254821E+03  0.63129076267E+03  0.00000000000E+00 0.  1.
         21    1    1    2  502  501  0.30240875156E+02 -0.27587023137E+02 -0.27672286314E+03  0.27973397606E+03  0.00000000000E+00 0.  1.
<mgrwt>
<rscale>  1 0.30000000E+03</rscale>
<asrwt>0</asrwt>
<pdfrwt beam="1">  1        1 0.75978446E-02 0.30000000E+03</pdfrwt>
<pdfrwt beam="2">0</pdfrwt>
<totfact> 0.11065951E+03</totfact>
</mgrwt>
</event>
<event>
 6    1  0.3125838E-002  0.3000000E+03  0.7818608E-02  0.1093470E+00
          3   -1    0    0  502    0  0.00000000000E+00  0.00000000000E+00  0.20840087338E+01  0.20840087338E+01  0.00000000000E+00 0.  1.
         13   -1    0    0    0    0 -0.00000000000E+00 -0.00000000000E+00 -0.10000000000E+04  0.10000000000E+04  0.00000000000E+00 0.  1.
    9000005    2    1    2  501    0 -0.45166767113E+02  0.35400226979E+01 -0.45010519693E+03  0.45240297849E+03  0.46041325490E+01 0.  0.
         13    1    3    3    0    0 -0.43956415380E+02  0.27444268151E+01 -0.43164696277E+03  0.43388800260E+03  0.00000000000E+00 0.  1.
          1    1    3    3  501    0 -0.12103517327E+01  0.79559588279E+00 -0.18458234160E+02  0.18514975896E+02  0.00000000000E+00 0.  1.
         21    1    1    2  502  501  0.45166767113E+02 -0.35400226979E+01 -0.54781079434E+03  0.54968103024E+03  0.00000000000E+00 0.  1.
<mgrwt>
<rscale>  1 0.30000000E+03</rscale>
<asrwt>0</asrwt>
<pdfrwt beam="1">  1        3 0.75782296E-02 0.30000000E+03</pdfrwt>
<pdfrwt beam="2">0</pdfrwt>
<totfact> 0.51660288E+02</totfact>
</mgrwt>
</event>
<event>
 6    1  0.3125838E-002  0.3000000E+03  0.7818608E-02  0.1093470E+00
          3   -1    0    0  502    0  0.00000000000E+00  0.00000000000E+00  0.17928173029E+01  0.17928173029E+01  0.00000000000E+00 0.  1.
         13   -1    0    0    0    0 -0.00000000000E+00 -0.00000000000E+00 -0.10000000000E+04  0.10000000000E+04  0.00000000000E+00 0.  1.
    9000005    2    1    2  501    0  0.40554370147E+01  0.32246460725E+02 -0.81975094063E+03  0.82040122121E+03  0.32059801067E+01 0.  0.
         13    1    3    3    0    0  0.25214151000E+00  0.14787236255E+02 -0.37248708810E+03  0.37278057451E+03  0.00000000000E+00 0.  1.
          3    1    3    3  501    0  0.38032955047E+01  0.17459224470E+02 -0.44726385253E+03  0.44762064670E+03  0.00000000000E+00 0.  1.
         21    1    1    2  502  501 -0.40554370147E+01 -0.32246460725E+02 -0.17845624207E+03  0.18139159609E+03  0.00000000000E+00 0.  1.
<mgrwt>
<rscale>  1 0.30000000E+03</rscale>
<asrwt>0</asrwt>
<pdfrwt beam="1">  1        3 0.65193494E-02 0.30000000E+03</pdfrwt>
<pdfrwt beam="2">0</pdfrwt>
<totfact> 0.65498545E+02</totfact>
</mgrwt>
</event>
<event>
 6    1  0.3125838E-002  0.3000000E+03  0.7818608E-02  0.1093470E+00
          1   -1    0    0  502    0  0.00000000000E+00  0.00000000000E+00  0.95278294254E+01  0.95278294254E+01  0.00000000000E+00 0.  1.
         13   -1    0    0    0    0 -0.00000000000E+00 -0.00000000000E+00 -0.10000000000E+04  0.10000000000E+04  0.00000000000E+00 0.  1.
    9000005    2    1    2  501    0 -0.51768072825E+02  0.81320880305E+02 -0.57366695850E+03  0.58171992422E+03  0.33573844964E+01 0.  0.
         13    1    3    3    0    0 -0.44627949181E+02  0.71908603022E+02 -0.50019097535E+03  0.50730021965E+03  0.00000000000E+00 0.  1.
          3    1    3    3  501    0 -0.71401236434E+01  0.94122772829E+01 -0.73475983151E+02  0.74419704577E+02  0.00000000000E+00 0.  1.
         21    1    1    2  502  501  0.51768072825E+02 -0.81320880305E+02 -0.41680521208E+03  0.42780790520E+03  0.00000000000E+00 0.  1.
<mgrwt>
<rscale>  1 0.30000000E+03</rscale>
<asrwt>0</asrwt>
<pdfrwt beam="1">  1        1 0.34646726E-01 0.30000000E+03</pdfrwt>
<pdfrwt beam="2">0</pdfrwt>
<totfact> 0.14260048E+02</totfact>
</mgrwt>
</event>
<event>
 6    1  0.3125838E-002  0.3000000E+03  0.7818608E-02  0.1093470E+00
          1   -1    0    0  502    0  0.00000000000E+00  0.00000000000E+00  0.16250580778E+01  0.16250580778E+01  0.00000000000E+00 0.  1.
         13   -1    0    0    0    0 -0.00000000000E+00 -0.00000000000E+00 -0.10000000000E+04  0.10000000000E+04  0.00000000000E+00 0.  1.
    9000005    2    1    2  501    0  0.65135086543E+01  0.31599558724E+02 -0.79869006254E+03  0.79935047006E+03  0.37947421252E+01 0.  0.
         13    1    3    3    0    0  0.35921323283E+01  0.20136448738E+02 -0.54765612432E+03  0.54803796445E+03  0.00000000000E+00 0.  1.
          1    1    3    3  501    0  0.29213763260E+01  0.11463109986E+02 -0.25103393823E+03  0.25131250560E+03  0.00000000000E+00 0.  1.
         21    1    1    2  502  501 -0.65135086543E+01 -0.31599558724E+02 -0.19968487938E+03  0.20227458802E+03  0.00000000000E+00 0.  1.
<mgrwt>
<rscale>  1 0.30000000E+03</rscale>
<asrwt>0</asrwt>
<pdfrwt beam="1">  1        1 0.59093146E-02 0.30000000E+03</pdfrwt>
<pdfrwt beam="2">0</pdfrwt>
<totfact> 0.15731022E+03</totfact>
</mgrwt>
</event>
<event>
 6    1  0.3125838E-002  0.3000000E+03  0.7818608E-02  0.1093470E+00
          1   -1    0    0  502    0  0.00000000000E+00  0.00000000000E+00  0.12153981935E+02  0.12153981935E+02  0.00000000000E+00 0.  1.
         13   -1    0    0    0    0 -0.00000000000E+00 -0.00000000000E+00 -0.10000000000E+04  0.10000000000E+04  0.00000000000E+00 0.  1.
    9000005    2    1    2  501    0 -0.33216539399E+02  0.25041885357E+02 -0.96258380131E+03  0.96348557219E+03  0.25374709506E+01 0.  0.
         13    1    3    3    0    0 -0.10515220157E+02  0.92699120704E+01 -0.31160148777E+03  0.31191663679E+03  0.00000000000E+00 0.  1.
          1    1    3    3  501    0 -0.22701319242E+02  0.15771973286E+02 -0.65098231354E+03  0.65156893540E+03  0.00000000000E+00 0.  1.
         21    1    1    2  502  501  0.33216539399E+02 -0.25041885357E+02 -0.25262216754E+02  0.48668409746E+02  0.00000000000E+00 0.  1.
<mgrwt>
<rscale>  1 0.30000000E+03</rscale>
<asrwt>0</asrwt>
<pdfrwt beam="1">  1        1 0.44196391E-01 0.30000000E+03</pdfrwt>
<pdfrwt beam="2">0</pdfrwt>
<totfact> 0.10373828E+02</totfact>
</mgrwt>
</event>
<event>
 6    1  0.3125838E-002  0.3000000E+03  0.7818608E-02  0.1093470E+00
          1   -1    0    0  502    0  0.00000000000E+00  0.00000000000E+00  0.25453472410E+01  0.25453472410E+01  0.00000000000E+00 0.  1.
         13   -1    0    0    0    0 -0.00000000000E+00 -0.00000000000E+00 -0.10000000000E+04  0.10000000000E+04  0.00000000000E+00 0.  1.
    9000005    2    1    2  501    0 -0.98394248034E+01  0.46207874313E+02 -0.67361430752E+03  0.67527703051E+03  0.32940423260E+01 0.  0.
         13    1    3    3    0    0 -0.65025610394E+01  0.23362084564E+02 -0.33521037962E+03  0.33608640094E+03  0.00000000000E+00 0.  1.
          3    1    3    3  501    0 -0.33368637641E+01  0.22845789749E+02 -0.33840392790E+03  0.33919062957E+03  0.00000000000E+00 0.  1.
         21    1    1    2  502  501  0.98394248034E+01 -0.46207874313E+02 -0.32384034524E+03  0.32726831673E+03  0.00000000000E+00 0.  1.
<mgrwt>
<rscale>  1 0.30000000E+03</rscale>
<asrwt>0</asrwt>
<pdfrwt beam="1">  1        1 0.92558277E-02 0.30000000E+03</pdfrwt>
<pdfrwt beam="2">0</pdfrwt>
<totfact> 0.84105817E+02</totfact>
</mgrwt>
</event>
<event>
 6    1  0.3125838E-002  0.3000000E+03  0.7818608E-02  0.1093470E+00
          3   -1    0    0  502    0  0.00000000000E+00  0.00000000000E+00  0.10428552173E+01  0.10428552173E+01  0.00000000000E+00 0.  1.
         13   -1    0    0    0    0 -0.00000000000E+00 -0.00000000000E+00 -0.10000000000E+04  0.10000000000E+04  0.00000000000E+00 0.  1.
    9000005    2    1    2  501    0  0.16437649571E+02  0.27720329674E+02 -0.50457880042E+03  0.50561520119E+03  0.28901280007E+01 0.  0.
         13    1    3    3    0    0  0.44151420256E+01  0.68966643783E+01 -0.10993668398E+03  0.11024124429E+03  0.00000000000E+00 0.  1.
          3    1    3    3  501    0  0.12022507546E+02  0.20823665296E+02 -0.39464211644E+03  0.39537395690E+03  0.00000000000E+00 0.  1.
         21    1    1    2  502  501 -0.16437649571E+02 -0.27720329674E+02 -0.49437834436E+03  0.49542765403E+03  0.00000000000E+00 0.  1.
<mgrwt>
<rscale>  1 0.30000000E+03</rscale>
<asrwt>0</asrwt>
<pdfrwt beam="1">  1        3 0.37922088E-02 0.30000000E+03</pdfrwt>
<pdfrwt beam="2">0</pdfrwt>
<totfact> 0.15144801E+03</totfact>
</mgrwt>
</event>
<event>
 6    1  0.3125838E-002  0.3000000E+03  0.7818608E-02  0.1093470E+00
          1   -1    0    0  502    0  0.00000000000E+00  0.00000000000E+00  0.13232127202E+01  0.13232127202E+01  0.00000000000E+00 0.  1.
         13   -1    0    0    0    0 -0.00000000000E+00 -0.00000000000E+00 -0.10000000000E+04  0.10000000000E+04  0.00000000000E+00 0.  1.
    9000005    2    1    2  501    0  0.27386993669E+02  0.17464959523E+02 -0.72341593843E+03  0.72415249431E+03  0.33380848568E+01 0.  0.
         13    1    3    3    0    0  0.15152012894E+02  0.80755940202E+01 -0.40306114674E+03  0.40342668073E+03  0.00000000000E+00 0.  1.
          3    1    3    3  501    0  0.12234980775E+02  0.93893655028E+01 -0.32035479169E+03  0.32072581358E+03  0.00000000000E+00 0.  1.
         21    1    1    2  502  501 -0.27386993669E+02 -0.17464959523E+02 -0.27526084885E+03  0.27717071841E+03  0.00000000000E+00 0.  1.
<mgrwt>
<rscale>  1 0.30000000E+03</rscale>
<asrwt>0</asrwt>
<pdfrwt beam="1">  1        1 0.48116928E-02 0.30000000E+03</pdfrwt>
<pdfrwt beam="2">0</pdfrwt>
<totfact> 0.20994653E+03</totfact>
</mgrwt>
</event>
<event>
 6    1  0.3125838E-002  0.3000000E+03  0.7818608E-02  0.1093470E+00
          1   -1    0    0  502    0  0.00000000000E+00  0.00000000000E+00  0.12631709761E+01  0.12631709761E+01  0.00000000000E+00 0.  1.
         13   -1    0    0    0    0 -0.00000000000E+00 -0.00000000000E+00 -0.10000000000E+04  0.10000000000E+04  0.00000000000E+00 0.  1.
    9000005    2    1    2  501    0  0.28012862193E+02 -0.17021854643E+02 -0.69067505605E+03  0.69146239636E+03  0.37079036190E+01 0.  0.
         13    1    3    3    0    0  0.10485173478E+02 -0.44707799676E+01 -0.25344998716E+03  0.25370617400E+03  0.00000000000E+00 0.  1.
          3    1    3    3  501    0  0.17527688715E+02 -0.12551074675E+02 -0.43722506889E+03  0.43775622236E+03  0.00000000000E+00 0.  1.
         21    1    1    2  502  501 -0.28012862193E+02  0.17021854643E+02 -0.30806177298E+03  0.30980077462E+03  0.00000000000E+00 0.  1.
<mgrwt>
<rscale>  1 0.30000000E+03</rscale>
<asrwt>0</asrwt>
<pdfrwt beam="1">  1        1 0.45933587E-02 0.30000000E+03</pdfrwt>
<pdfrwt beam="2">0</pdfrwt>
<totfact> 0.22411786E+03</totfact>
</mgrwt>
</event>
<event>
 6    1  0.3125838E-002  0.3000000E+03  0.7818608E-02  0.1093470E+00
          1   -1    0    0  502    0  0.00000000000E+00  0.00000000000E+00  0.10162104344E+01  0.10162104344E+01  0.00000000000E+00 0.  1.
         13   -1    0    0    0    0 -0.00000000000E+00 -0.00000000000E+00 -0.10000000000E+04  0.10000000000E+04  0.00000000000E+00 0.  1.
    9000005    2    1    2  501    0 -0.20326265333E+02  0.23031322907E+02 -0.38075791211E+03  0.38202765282E+03  0.49940955549E+01 0.  0.
         13    1    3    3    0    0 -0.13555513930E+02  0.16192730992E+02 -0.28749969808E+03  0.28827423210E+03  0.00000000000E+00 0.  1.
          3    1    3    3  501    0 -0.67707514032E+01  0.68385919151E+01 -0.93258214026E+02  0.93753420723E+02  0.00000000000E+00 0.  1.
         21    1    1    2  502  501  0.20326265333E+02 -0.23031322907E+02 -0.61822587746E+03  0.61898855761E+03  0.00000000000E+00 0.  1.
<mgrwt>
<rscale>  1 0.30000000E+03</rscale>
<asrwt>0</asrwt>
<pdfrwt beam="1">  1        1 0.36953185E-02 0.30000000E+03</pdfrwt>
<pdfrwt beam="2">0</pdfrwt>
<totfact> 0.30442116E+03</totfact>
</mgrwt>
</event>
<event>
 6    1  0.3125838E-002  0.3000000E+03  0.7818608E-02  0.1093470E+00
          1   -1    0    0  502    0  0.00000000000E+00  0.00000000000E+00  0.15995107297E+01  0.15995107297E+01  0.00000000000E+00 0.  1.
         13   -1    0    0    0    0 -0.00000000000E+00 -0.00000000000E+00 -0.10000000000E+04  0.10000000000E+04  0.00000000000E+00 0.  1.
    9000005    2    1    2  501    0  0.55668479637E+01 -0.35806040481E+02 -0.30203890871E+03  0.30429576543E+03  0.74396338314E+01 0.  0.
         13    1    3    3    0    0 -0.16660454671E+01 -0.11000699530E+02 -0.85615194581E+02  0.86335118236E+02  0.00000000000E+00 0.  1.
          3    1    3    3  501    0  0.72328934308E+01 -0.24805340951E+02 -0.21642371413E+03  0.21796064720E+03  0.00000000000E+00 0.  1.
         21    1    1    2  502  501 -0.55668479637E+01  0.35806040481E+02 -0.69636158056E+03  0.69730374530E+03  0.00000000000E+00 0.  1.
<mgrwt>
<rscale>  1 0.30000000E+03</rscale>
<asrwt>0</asrwt>
<pdfrwt beam="1">  1        1 0.58164149E-02 0.30000000E+03</pdfrwt>
<pdfrwt beam="2">0</pdfrwt>
<totfact> 0.16084770E+03</totfact>
</mgrwt>
</event>
<event>
 6    1  0.3125838E-002  0.3000000E+03  0.7818608E-02  0.1093470E+00
          1   -1    0    0  502    0  0.00000000000E+00  0.00000000000E+00  0.13066649604E+01  0.13066649604E+01  0.00000000000E+00 0.  1.
         13   -1    0    0    0    0 -0.00000000000E+00 -0.00000000000E+00 -0.10000000000E+04  0.10000000000E+04  0.00000000000E+00 0.  1.
    9000005    2    1    2  501    0 -0.30573695653E+02  0.34481121766E+01 -0.76125738309E+03  0.76188554722E+03  0.31848713026E+01 0.  0.
         13    1    3    3    0    0 -0.26355116733E+02  0.25872906846E+01 -0.67788926217E+03  0.67840632222E+03  0.00000000000E+00 0.  1.
          1    1    3    3  501    0 -0.42185789201E+01  0.86082149194E+00 -0.83368120918E+02  0.83479225003E+02  0.00000000000E+00 0.  1.
         21    1    1    2  502  501  0.30573695653E+02 -0.34481121766E+01 -0.23743595195E+03  0.23942111774E+03  0.00000000000E+00 0.  1.
<mgrwt>
<rscale>  1 0.30000000E+03</rscale>
<asrwt>0</asrwt>
<pdfrwt beam="1">  1        1 0.47515190E-02 0.30000000E+03</pdfrwt>
<pdfrwt beam="2">0</pdfrwt>
<totfact> 0.21369520E+03</totfact>
</mgrwt>
</event>
<event>
 6    1  0.3125838E-002  0.3000000E+03  0.7818608E-02  0.1093470E+00
          1   -1    0    0  502    0  0.00000000000E+00  0.00000000000E+00  0.17424375433E+01  0.17424375433E+01  0.00000000000E+00 0.  1.
         13   -1    0    0    0    0 -0.00000000000E+00 -0.00000000000E+00 -0.10000000000E+04  0.10000000000E+04  0.00000000000E+00 0.  1.
    9000005    2    1    2  501    0 -0.25074420853E+02  0.29189607460E+02 -0.69127546252E+03  0.69235793656E+03  0.41215865826E+01 0.  0.
         13    1    3    3    0    0 -0.18613980986E+02  0.18809532610E+02 -0.46485656594E+03  0.46560917699E+03  0.00000000000E+00 0.  1.
          3    1    3    3  501    0 -0.64604398674E+01  0.10380074850E+02 -0.22641889658E+03  0.22674875957E+03  0.00000000000E+00 0.  1.
         21    1    1    2  502  501  0.25074420853E+02 -0.29189607460E+02 -0.30698209994E+03  0.30938450098E+03  0.00000000000E+00 0.  1.
<mgrwt>
<rscale>  1 0.30000000E+03</rscale>
<asrwt>0</asrwt>
<pdfrwt beam="1">  1        1 0.63361499E-02 0.30000000E+03</pdfrwt>
<pdfrwt beam="2">0</pdfrwt>
<totfact> 0.14265365E+03</totfact>
</mgrwt>
</event>
<event>
 6    1  0.3125838E-002  0.3000000E+03  0.7818608E-02  0.1093470E+00
          3   -1    0    0  502    0  0.00000000000E+00  0.00000000000E+00  0.23201251547E+01  0.23201251547E+01  0.00000000000E+00 0.  1.
         13   -1    0    0    0    0 -0.00000000000E+00 -0.00000000000E+00 -0.10000000000E+04  0.10000000000E+04  0.00000000000E+00 0.  1.
    9000005    2    1    2  501    0  0.29311947769E+02  0.12241663949E+02 -0.87535623030E+03  0.87593926176E+03  0.34657964161E+01 0.  0.
         13    1    3    3    0    0  0.29128037383E+02  0.11806225724E+02 -0.86718210508E+03  0.86775148107E+03  0.00000000000E+00 0.  1.
          3    1    3    3  501    0  0.18391038618E+00  0.43543822488E+00 -0.81741252135E+01  0.81877806812E+01  0.00000000000E+00 0.  1.
         21    1    1    2  502  501 -0.29311947769E+02 -0.12241663949E+02 -0.12232364455E+03  0.12638086340E+03  0.00000000000E+00 0.  1.
<mgrwt>
<rscale>  1 0.30000000E+03</rscale>
<asrwt>0</asrwt>
<pdfrwt beam="1">  1        3 0.84368365E-02 0.30000000E+03</pdfrwt>
<pdfrwt beam="2">0</pdfrwt>
<totfact> 0.43525646E+02</totfact>
</mgrwt>
</event>
<event>
 6    1  0.3125838E-002  0.3000000E+03  0.7818608E-02  0.1093470E+00
          1   -1    0    0  502    0  0.00000000000E+00  0.00000000000E+00  0.30765109557E+01  0.30765109557E+01  0.00000000000E+00 0.  1.
         13   -1    0    0    0    0 -0.00000000000E+00 -0.00000000000E+00 -0.10000000000E+04  0.10000000000E+04  0.00000000000E+00 0.  1.
    9000005    2    1    2  501    0  0.42911686832E+02 -0.10259177067E+01 -0.81580538653E+03  0.81694152651E+03  0.35445284351E+01 0.  0.
         13    1    3    3    0    0  0.20201799482E+02 -0.15496487820E+01 -0.35792328302E+03  0.35849629098E+03  0.00000000000E+00 0.  1.
          1    1    3    3  501    0  0.22709887349E+02  0.52373107527E+00 -0.45788210350E+03  0.45844523553E+03  0.00000000000E+00 0.  1.
         21    1    1    2  502  501 -0.42911686832E+02  0.10259177067E+01 -0.18111810252E+03  0.18613498444E+03  0.00000000000E+00 0.  1.
<mgrwt>
<rscale>  1 0.30000000E+03</rscale>
<asrwt>0</asrwt>
<pdfrwt beam="1">  1        1 0.11187336E-01 0.30000000E+03</pdfrwt>
<pdfrwt beam="2">0</pdfrwt>
<totfact> 0.64757307E+02</totfact>
</mgrwt>
</event>
<event>
 6    1  0.3125838E-002  0.3000000E+03  0.7818608E-02  0.1093470E+00
          1   -1    0    0  502    0  0.00000000000E+00  0.00000000000E+00  0.45626330060E+01  0.45626330060E+01  0.00000000000E+00 0.  1.
         13   -1    0    0    0    0 -0.00000000000E+00 -0.00000000000E+00 -0.10000000000E+04  0.10000000000E+04  0.00000000000E+00 0.  1.
    9000005    2    1    2  501    0  0.54523126732E+02  0.39722127356E+02 -0.51748084341E+03  0.52186908924E+03  0.32100256560E+01 0.  0.
         13    1    3    3    0    0  0.44093986817E+02  0.33517984774E+02 -0.42826852101E+03  0.43183522444E+03  0.00000000000E+00 0.  1.
          3    1    3    3  501    0  0.10429139915E+02  0.62041425818E+01 -0.89212322392E+02  0.90033864802E+02  0.00000000000E+00 0.  1.
         21    1    1    2  502  501 -0.54523126732E+02 -0.39722127356E+02 -0.47795652359E+03  0.48269354376E+03  0.00000000000E+00 0.  1.
<mgrwt>
<rscale>  1 0.30000000E+03</rscale>
<asrwt>0</asrwt>
<pdfrwt beam="1">  1        1 0.16591428E-01 0.30000000E+03</pdfrwt>
<pdfrwt beam="2">0</pdfrwt>
<totfact> 0.37843075E+02</totfact>
</mgrwt>
</event>
<event>
 6    1  0.3125838E-002  0.3000000E+03  0.7818608E-02  0.1093470E+00
          1   -1    0    0  502    0  0.00000000000E+00  0.00000000000E+00  0.99063245016E+00  0.99063245016E+00  0.00000000000E+00 0.  1.
         13   -1    0    0    0    0 -0.00000000000E+00 -0.00000000000E+00 -0.10000000000E+04  0.10000000000E+04  0.00000000000E+00 0.  1.
    9000005    2    1    2  501    0 -0.25994931533E+02  0.16532796116E+02 -0.51661495562E+03  0.51761351417E+03  0.91470143457E+01 0.  0.
         13    1    3    3    0    0 -0.13513890006E+02  0.11883586559E+02 -0.23740639199E+03  0.23808746252E+03  0.00000000000E+00 0.  1.
          1    1    3    3  501    0 -0.12481041527E+02  0.46492095574E+01 -0.27920856363E+03  0.27952605165E+03  0.00000000000E+00 0.  1.
         21    1    1    2  502  501  0.25994931533E+02 -0.16532796116E+02 -0.48239441193E+03  0.48337711828E+03  0.00000000000E+00 0.  1.
<mgrwt>
<rscale>  1 0.30000000E+03</rscale>
<asrwt>0</asrwt>
<pdfrwt beam="1">  1        1 0.36023074E-02 0.30000000E+03</pdfrwt>
<pdfrwt beam="2">0</pdfrwt>
<totfact> 0.31553836E+03</totfact>
</mgrwt>
</event>
<event>
 6    1  0.3125838E-002  0.3000000E+03  0.7818608E-02  0.1093470E+00
          1   -1    0    0  502    0  0.00000000000E+00  0.00000000000E+00  0.51295154747E+01  0.51295154747E+01  0.00000000000E+00 0.  1.
         13   -1    0    0    0    0 -0.00000000000E+00 -0.00000000000E+00 -0.10000000000E+04  0.10000000000E+04  0.00000000000E+00 0.  1.
    9000005    2    1    2  501    0 -0.34274740098E+02 -0.16765807410E+02 -0.92268905366E+03  0.92348388443E+03  0.33977863229E+01 0.  0.
         13    1    3    3    0    0 -0.24374952421E+02 -0.11159662705E+02 -0.61296442745E+03  0.61355037748E+03  0.00000000000E+00 0.  1.
          1    1    3    3  501    0 -0.98997876769E+01 -0.56061447053E+01 -0.30972462620E+03  0.30993350695E+03  0.00000000000E+00 0.  1.
         21    1    1    2  502  501  0.34274740098E+02  0.16765807410E+02 -0.72181430867E+02  0.81645631046E+02  0.00000000000E+00 0.  1.
<mgrwt>
<rscale>  1 0.30000000E+03</rscale>
<asrwt>0</asrwt>
<pdfrwt beam="1">  1        1 0.18652823E-01 0.30000000E+03</pdfrwt>
<pdfrwt beam="2">0</pdfrwt>
<totfact> 0.32324455E+02</totfact>
</mgrwt>
</event>
<event>
 6    1  0.3125838E-002  0.3000000E+03  0.7818608E-02  0.1093470E+00
          1   -1    0    0  502    0  0.00000000000E+00  0.00000000000E+00  0.31828700897E+01  0.31828700897E+01  0.00000000000E+00 0.  1.
         13   -1    0    0    0    0 -0.00000000000E+00 -0.00000000000E+00 -0.10000000000E+04  0.10000000000E+04  0.00000000000E+00 0.  1.
    9000005    2    1    2  501    0  0.14244724453E+02 -0.33941382017E+02 -0.87831034911E+03  0.87909102232E+03  0.41263273460E+01 0.  0.
         13    1    3    3    0    0  0.11305504513E+02 -0.29025669958E+02 -0.70930392954E+03  0.70998758328E+03  0.00000000000E+00 0.  1.
          1    1    3    3  501    0  0.29392199399E+01 -0.49157120587E+01 -0.16900641957E+03  0.16910343904E+03  0.00000000000E+00 0.  1.
         21    1    1    2  502  501 -0.14244724453E+02  0.33941382017E+02 -0.11850678080E+03  0.12409184777E+03  0.00000000000E+00 0.  1.
<mgrwt>
<rscale>  1 0.30000000E+03</rscale>
<asrwt>0</asrwt>
<pdfrwt beam="1">  1        1 0.11574097E-01 0.30000000E+03</pdfrwt>
<pdfrwt beam="2">0</pdfrwt>
<totfact> 0.61805483E+02</totfact>
</mgrwt>
</event>
<event>
 6    1  0.3125838E-002  0.3000000E+03  0.7818608E-02  0.1093470E+00
          3   -1    0    0  502    0  0.00000000000E+00  0.00000000000E+00  0.72576152045E+01  0.72576152045E+01  0.00000000000E+00 0.  1.
         13   -1    0    0    0    0 -0.00000000000E+00 -0.00000000000E+00 -0.10000000000E+04  0.10000000000E+04  0.00000000000E+00 0.  1.
    9000005    2    1    2  501    0 -0.49670600739E+02 -0.11856308765E+02 -0.89941364746E+03  0.90087155481E+03  0.41119798252E+01 0.  0.
         13    1    3    3    0    0 -0.25219535188E+02 -0.80434324672E+01 -0.45446473427E+03  0.45523501234E+03  0.00000000000E+00 0.  1.
          3    1    3    3  501    0 -0.24451065552E+02 -0.38128762974E+01 -0.44494891319E+03  0.44563654247E+03  0.00000000000E+00 0.  1.
         21    1    1    2  502  501  0.49670600739E+02  0.11856308765E+02 -0.93328737332E+02  0.10638606040E+03  0.00000000000E+00 0.  1.
<mgrwt>
<rscale>  1 0.30000000E+03</rscale>
<asrwt>0</asrwt>
<pdfrwt beam="1">  1        3 0.26391384E-01 0.30000000E+03</pdfrwt>
<pdfrwt beam="2">0</pdfrwt>
<totfact> 0.59603917E+01</totfact>
</mgrwt>
</event>
<event>
 6    1  0.3125838E-002  0.3000000E+03  0.7818608E-02  0.1093470E+00
          1   -1    0    0  502    0  0.00000000000E+00  0.00000000000E+00  0.71674228668E+01  0.71674228668E+01  0.00000000000E+00 0.  1.
         13   -1    0    0    0    0 -0.00000000000E+00 -0.00000000000E+00 -0.10000000000E+04  0.10000000000E+04  0.00000000000E+00 0.  1.
    9000005    2    1    2  501    0 -0.66869830933E+02 -0.21887283851E+02 -0.77632087329E+03  0.77950990512E+03  0.33115552965E+01 0.  0.
         13    1    3    3    0    0 -0.64850583540E+02 -0.21774302373E+02 -0.75587656308E+03  0.75896580756E+03  0.00000000000E+00 0.  1.
          1    1    3    3  501    0 -0.20192473935E+01 -0.11298147810E+00 -0.20444310204E+02  0.20544097561E+02  0.00000000000E+00 0.  1.
         21    1    1    2  502  501  0.66869830933E+02  0.21887283851E+02 -0.21651170385E+03  0.22765751774E+03  0.00000000000E+00 0.  1.
<mgrwt>
<rscale>  1 0.30000000E+03</rscale>
<asrwt>0</asrwt>
<pdfrwt beam="1">  1        1 0.26063411E-01 0.30000000E+03</pdfrwt>
<pdfrwt beam="2">0</pdfrwt>
<totfact> 0.20721336E+02</totfact>
</mgrwt>
</event>
<event>
 6    1  0.3125838E-002  0.3000000E+03  0.7818608E-02  0.1093470E+00
          1   -1    0    0  502    0  0.00000000000E+00  0.00000000000E+00  0.10475461675E+02  0.10475461675E+02  0.00000000000E+00 0.  1.
         13   -1    0    0    0    0 -0.00000000000E+00 -0.00000000000E+00 -0.10000000000E+04  0.10000000000E+04  0.00000000000E+00 0.  1.
    9000005    2    1    2  501    0 -0.12691717239E+02  0.85182967561E+02 -0.76754545313E+03  0.77237478567E+03  0.44237171408E+01 0.  0.
         13    1    3    3    0    0 -0.77083206234E+01  0.45223752838E+02 -0.39089744524E+03  0.39358025703E+03  0.00000000000E+00 0.  1.
          3    1    3    3  501    0 -0.49833966160E+01  0.39959214723E+02 -0.37664800789E+03  0.37879452864E+03  0.00000000000E+00 0.  1.
         21    1    1    2  502  501  0.12691717239E+02 -0.85182967561E+02 -0.22197908520E+03  0.23810067600E+03  0.00000000000E+00 0.  1.
<mgrwt>
<rscale>  1 0.30000000E+03</rscale>
<asrwt>0</asrwt>
<pdfrwt beam="1">  1        1 0.38092668E-01 0.30000000E+03</pdfrwt>
<pdfrwt beam="2">0</pdfrwt>
<totfact> 0.12599314E+02</totfact>
</mgrwt>
</event>
<event>
 6    1  0.3125838E-002  0.3000000E+03  0.7818608E-02  0.1093470E+00
          1   -1    0    0  502    0  0.00000000000E+00  0.00000000000E+00  0.93851134993E+00  0.93851134993E+00  0.00000000000E+00 0.  1.
         13   -1    0    0    0    0 -0.00000000000E+00 -0.00000000000E+00 -0.10000000000E+04  0.10000000000E+04  0.00000000000E+00 0.  1.
    9000005    2    1    2  501    0  0.16236330510E+02  0.25380185195E+02 -0.53571650685E+03  0.53661497718E+03  0.74622911048E+01 0.  0.
         13    1    3    3    0    0  0.10271178248E+01  0.18487970164E+01 -0.15390616659E+02  0.15535253541E+02  0.00000000000E+00 0.  1.
          1    1    3    3  501    0  0.15209212685E+02  0.23531388178E+02 -0.52032589019E+03  0.52107972364E+03  0.00000000000E+00 0.  1.
         21    1    1    2  502  501 -0.16236330510E+02 -0.25380185195E+02 -0.46334498180E+03  0.46432353417E+03  0.00000000000E+00 0.  1.
<mgrwt>
<rscale>  1 0.30000000E+03</rscale>
<asrwt>0</asrwt>
<pdfrwt beam="1">  1        1 0.34127757E-02 0.30000000E+03</pdfrwt>
<pdfrwt beam="2">0</pdfrwt>
<totfact> 0.34045918E+03</totfact>
</mgrwt>
</event>
<event>
 6    1  0.3125838E-002  0.3000000E+03  0.7818608E-02  0.1093470E+00
          1   -1    0    0  502    0  0.00000000000E+00  0.00000000000E+00  0.96754947091E+01  0.96754947091E+01  0.00000000000E+00 0.  1.
         13   -1    0    0    0    0 -0.00000000000E+00 -0.00000000000E+00 -0.10000000000E+04  0.10000000000E+04  0.00000000000E+00 0.  1.
    9000005    2    1    2  501    0 -0.34024139052E+02  0.32790573357E+01 -0.96851250732E+03  0.96912728253E+03  0.47768879128E+01 0.  0.
         13    1    3    3    0    0 -0.13670461284E+02  0.22801241053E+00 -0.32983303214E+03  0.33011628647E+03  0.00000000000E+00 0.  1.
          3    1    3    3  501    0 -0.20353677767E+02  0.30510449252E+01 -0.63867947518E+03  0.63901099606E+03  0.00000000000E+00 0.  1.
         21    1    1    2  502  501  0.34024139052E+02 -0.32790573357E+01 -0.21811997970E+02  0.40548212176E+02  0.00000000000E+00 0.  1.
<mgrwt>
<rscale>  1 0.30000000E+03</rscale>
<asrwt>0</asrwt>
<pdfrwt beam="1">  1        1 0.35183691E-01 0.30000000E+03</pdfrwt>
<pdfrwt beam="2">0</pdfrwt>
<totfact> 0.13976262E+02</totfact>
</mgrwt>
</event>
<event>
 6    1  0.3125838E-002  0.3000000E+03  0.7818608E-02  0.1093470E+00
          1   -1    0    0  502    0  0.00000000000E+00  0.00000000000E+00  0.30469100913E+01  0.30469100913E+01  0.00000000000E+00 0.  1.
         13   -1    0    0    0    0 -0.00000000000E+00 -0.00000000000E+00 -0.10000000000E+04  0.10000000000E+04  0.00000000000E+00 0.  1.
    9000005    2    1    2  501    0  0.23760620716E+00  0.54956257799E+02 -0.53842157853E+03  0.54123375128E+03  0.39913112290E+01 0.  0.
         13    1    3    3    0    0  0.11196643310E+01  0.16704188675E+02 -0.14943172324E+03  0.15036663020E+03  0.00000000000E+00 0.  1.
          3    1    3    3  501    0 -0.88205812380E+00  0.38252069124E+02 -0.38898985529E+03  0.39086712108E+03  0.00000000000E+00 0.  1.
         21    1    1    2  502  501 -0.23760620716E+00 -0.54956257799E+02 -0.45853151138E+03  0.46181315881E+03  0.00000000000E+00 0.  1.
<mgrwt>
<rscale>  1 0.30000000E+03</rscale>
<asrwt>0</asrwt>
<pdfrwt beam="1">  1        1 0.11079696E-01 0.30000000E+03</pdfrwt>
<pdfrwt beam="2">0</pdfrwt>
<totfact> 0.65623099E+02</totfact>
</mgrwt>
</event>
<event>
 6    1  0.3125838E-002  0.3000000E+03  0.7818608E-02  0.1093470E+00
          1   -1    0    0  502    0  0.00000000000E+00  0.00000000000E+00  0.15903282716E+01  0.15903282716E+01  0.00000000000E+00 0.  1.
         13   -1    0    0    0    0 -0.00000000000E+00 -0.00000000000E+00 -0.10000000000E+04  0.10000000000E+04  0.00000000000E+00 0.  1.
    9000005    2    1    2  501    0  0.14850178520E+02 -0.27606195840E+02 -0.80817239965E+03  0.80878771019E+03  0.35075275617E+01 0.  0.
         13    1    3    3    0    0  0.10748240192E+02 -0.16803599371E+02 -0.49175449955E+03  0.49215889044E+03  0.00000000000E+00 0.  1.
          1    1    3    3  501    0  0.41019383276E+01 -0.10802596469E+02 -0.31641790010E+03  0.31662881975E+03  0.00000000000E+00 0.  1.
         21    1    1    2  502  501 -0.14850178520E+02  0.27606195840E+02 -0.19023727208E+03  0.19280261808E+03  0.00000000000E+00 0.  1.
<mgrwt>
<rscale>  1 0.30000000E+03</rscale>
<asrwt>0</asrwt>
<pdfrwt beam="1">  1        1 0.57830241E-02 0.30000000E+03</pdfrwt>
<pdfrwt beam="2">0</pdfrwt>
<totfact> 0.16215279E+03</totfact>
</mgrwt>
</event>
<event>
 6    1  0.3125838E-002  0.3000000E+03  0.7818608E-02  0.1093470E+00
          1   -1    0    0  502    0  0.00000000000E+00  0.00000000000E+00  0.71461049311E+01  0.71461049311E+01  0.00000000000E+00 0.  1.
         13   -1    0    0    0    0 -0.00000000000E+00 -0.00000000000E+00 -0.10000000000E+04  0.10000000000E+04  0.00000000000E+00 0.  1.
    9000005    2    1    2  501    0  0.17098492362E+02 -0.80851880474E+02 -0.60188791251E+03  0.60754156975E+03  0.28835280563E+01 0.  0.
         13    1    3    3    0    0  0.16441631939E+01 -0.86941904528E+01 -0.71122650911E+02  0.71670940365E+02  0.00000000000E+00 0.  1.
          3    1    3    3  501    0  0.15454329168E+02 -0.72157690022E+02 -0.53076526160E+03  0.53587062939E+03  0.00000000000E+00 0.  1.
         21    1    1    2  502  501 -0.17098492362E+02  0.80851880474E+02 -0.39096598256E+03  0.39960453518E+03  0.00000000000E+00 0.  1.
<mgrwt>
<rscale>  1 0.30000000E+03</rscale>
<asrwt>0</asrwt>
<pdfrwt beam="1">  1        1 0.25985891E-01 0.30000000E+03</pdfrwt>
<pdfrwt beam="2">0</pdfrwt>
<totfact> 0.20802971E+02</totfact>
</mgrwt>
</event>
<event>
 6    1  0.3125838E-002  0.3000000E+03  0.7818608E-02  0.1093470E+00
          3   -1    0    0  502    0  0.00000000000E+00  0.00000000000E+00  0.13777080497E+01  0.13777080497E+01  0.00000000000E+00 0.  1.
         13   -1    0    0    0    0 -0.00000000000E+00 -0.00000000000E+00 -0.10000000000E+04  0.10000000000E+04  0.00000000000E+00 0.  1.
    9000005    2    1    2  501    0  0.90502835836E+01  0.35677423252E+02 -0.44012545897E+03  0.44166930306E+03  0.25627080341E+01 0.  0.
         13    1    3    3    0    0  0.56912398440E+01  0.21274358187E+02 -0.27775040453E+03  0.27862210203E+03  0.00000000000E+00 0.  1.
          1    1    3    3  501    0  0.33590437396E+01  0.14403065065E+02 -0.16237505444E+03  0.16304720103E+03  0.00000000000E+00 0.  1.
         21    1    1    2  502  501 -0.90502835836E+01 -0.35677423252E+02 -0.55849683298E+03  0.55970840499E+03  0.00000000000E+00 0.  1.
<mgrwt>
<rscale>  1 0.30000000E+03</rscale>
<asrwt>0</asrwt>
<pdfrwt beam="1">  1        3 0.50098580E-02 0.30000000E+03</pdfrwt>
<pdfrwt beam="2">0</pdfrwt>
<totfact> 0.98639078E+02</totfact>
</mgrwt>
</event>
<event>
 6    1  0.3125838E-002  0.3000000E+03  0.7818608E-02  0.1093470E+00
          1   -1    0    0  502    0  0.00000000000E+00  0.00000000000E+00  0.29534530732E+01  0.29534530732E+01  0.00000000000E+00 0.  1.
         13   -1    0    0    0    0 -0.00000000000E+00 -0.00000000000E+00 -0.10000000000E+04  0.10000000000E+04  0.00000000000E+00 0.  1.
    9000005    2    1    2  501    0 -0.44136530046E+02 -0.31588685710E+02 -0.48138065816E+03  0.48443904905E+03  0.28241525094E+01 0.  0.
         13    1    3    3    0    0 -0.10111206408E+02 -0.79128291756E+01 -0.12362355154E+03  0.12428850251E+03  0.00000000000E+00 0.  1.
          3    1    3    3  501    0 -0.34025323638E+02 -0.23675856534E+02 -0.35775710663E+03  0.36015054654E+03  0.00000000000E+00 0.  1.
         21    1    1    2  502  501  0.44136530046E+02  0.31588685710E+02 -0.51566588876E+03  0.51851440403E+03  0.00000000000E+00 0.  1.
<mgrwt>
<rscale>  1 0.30000000E+03</rscale>
<asrwt>0</asrwt>
<pdfrwt beam="1">  1        1 0.10739852E-01 0.30000000E+03</pdfrwt>
<pdfrwt beam="2">0</pdfrwt>
<totfact> 0.68494681E+02</totfact>
</mgrwt>
</event>
<event>
 6    1  0.3125838E-002  0.3000000E+03  0.7818608E-02  0.1093470E+00
          1   -1    0    0  502    0  0.00000000000E+00  0.00000000000E+00  0.12252467518E+02  0.12252467518E+02  0.00000000000E+00 0.  1.
         13   -1    0    0    0    0 -0.00000000000E+00 -0.00000000000E+00 -0.10000000000E+04  0.10000000000E+04  0.00000000000E+00 0.  1.
    9000005    2    1    2  501    0  0.73491194793E+02  0.56076363607E+02 -0.77216341100E+03  0.77768472101E+03  0.34172702060E+01 0.  0.
         13    1    3    3    0    0  0.58572422321E+02  0.43122320794E+02 -0.60182312436E+03  0.60620238882E+03  0.00000000000E+00 0.  1.
          3    1    3    3  501    0  0.14918772472E+02  0.12954042813E+02 -0.17034028664E+03  0.17148233218E+03  0.00000000000E+00 0.  1.
         21    1    1    2  502  501 -0.73491194793E+02 -0.56076363607E+02 -0.21558412148E+03  0.23456774651E+03  0.00000000000E+00 0.  1.
<mgrwt>
<rscale>  1 0.30000000E+03</rscale>
<asrwt>0</asrwt>
<pdfrwt beam="1">  1        1 0.44554521E-01 0.30000000E+03</pdfrwt>
<pdfrwt beam="2">0</pdfrwt>
<totfact> 0.10264816E+02</totfact>
</mgrwt>
</event>
<event>
 6    1  0.3125838E-002  0.3000000E+03  0.7818608E-02  0.1093470E+00
          1   -1    0    0  502    0  0.00000000000E+00  0.00000000000E+00  0.15844175080E+01  0.15844175080E+01  0.00000000000E+00 0.  1.
         13   -1    0    0    0    0 -0.00000000000E+00 -0.00000000000E+00 -0.10000000000E+04  0.10000000000E+04  0.00000000000E+00 0.  1.
    9000005    2    1    2  501    0  0.25477452970E+02  0.29351439058E+02 -0.60469992265E+03  0.60595500961E+03  0.29781941790E+01 0.  0.
         13    1    3    3    0    0  0.10321213607E+02  0.14145897767E+02 -0.27311182667E+03  0.27367262146E+03  0.00000000000E+00 0.  1.
          1    1    3    3  501    0  0.15156239363E+02  0.15205541291E+02 -0.33158809598E+03  0.33228238815E+03  0.00000000000E+00 0.  1.
         21    1    1    2  502  501 -0.25477452970E+02 -0.29351439058E+02 -0.39371565984E+03  0.39562940789E+03  0.00000000000E+00 0.  1.
<mgrwt>
<rscale>  1 0.30000000E+03</rscale>
<asrwt>0</asrwt>
<pdfrwt beam="1">  1        1 0.57615304E-02 0.30000000E+03</pdfrwt>
<pdfrwt beam="2">0</pdfrwt>
<totfact> 0.16300253E+03</totfact>
</mgrwt>
</event>
<event>
 6    1  0.3125838E-002  0.3000000E+03  0.7818608E-02  0.1093470E+00
          1   -1    0    0  502    0  0.00000000000E+00  0.00000000000E+00  0.97932068400E+00  0.97932068400E+00  0.00000000000E+00 0.  1.
         13   -1    0    0    0    0 -0.00000000000E+00 -0.00000000000E+00 -0.10000000000E+04  0.10000000000E+04  0.00000000000E+00 0.  1.
    9000005    2    1    2  501    0  0.30840280299E+02 -0.48107577484E+01 -0.50320180143E+03  0.50417893225E+03  0.31743478531E+01 0.  0.
         13    1    3    3    0    0  0.28914111629E+01  0.13086327076E+00 -0.36259246416E+02  0.36374583631E+02  0.00000000000E+00 0.  1.
          1    1    3    3  501    0  0.27948869136E+02 -0.49416210191E+01 -0.46694255502E+03  0.46780434862E+03  0.00000000000E+00 0.  1.
         21    1    1    2  502  501 -0.30840280299E+02  0.48107577484E+01 -0.49581887788E+03  0.49680038843E+03  0.00000000000E+00 0.  1.
<mgrwt>
<rscale>  1 0.30000000E+03</rscale>
<asrwt>0</asrwt>
<pdfrwt beam="1">  1        1 0.35611736E-02 0.30000000E+03</pdfrwt>
<pdfrwt beam="2">0</pdfrwt>
<totfact> 0.32067738E+03</totfact>
</mgrwt>
</event>
<event>
 6    1  0.3125838E-002  0.3000000E+03  0.7818608E-02  0.1093470E+00
          1   -1    0    0  502    0  0.00000000000E+00  0.00000000000E+00  0.11246018836E+01  0.11246018836E+01  0.00000000000E+00 0.  1.
         13   -1    0    0    0    0 -0.00000000000E+00 -0.00000000000E+00 -0.10000000000E+04  0.10000000000E+04  0.00000000000E+00 0.  1.
    9000005    2    1    2  501    0 -0.18596313626E+02  0.27186356161E+02 -0.48733215190E+03  0.48852201352E+03  0.87298672238E+01 0.  0.
         13    1    3    3    0    0 -0.61243904473E+01  0.15809603558E+02 -0.27310284656E+03  0.27362861057E+03  0.00000000000E+00 0.  1.
          1    1    3    3  501    0 -0.12471923178E+02  0.11376752603E+02 -0.21422930534E+03  0.21489340296E+03  0.00000000000E+00 0.  1.
         21    1    1    2  502  501  0.18596313626E+02 -0.27186356161E+02 -0.51154324622E+03  0.51260258836E+03  0.00000000000E+00 0.  1.
<mgrwt>
<rscale>  1 0.30000000E+03</rscale>
<asrwt>0</asrwt>
<pdfrwt beam="1">  1        1 0.40894700E-02 0.30000000E+03</pdfrwt>
<pdfrwt beam="2">0</pdfrwt>
<totfact> 0.26394507E+03</totfact>
</mgrwt>
</event>
<event>
 6    1  0.3125838E-002  0.3000000E+03  0.7818608E-02  0.1093470E+00
          3   -1    0    0  502    0  0.00000000000E+00  0.00000000000E+00  0.16704256934E+01  0.16704256934E+01  0.00000000000E+00 0.  1.
         13   -1    0    0    0    0 -0.00000000000E+00 -0.00000000000E+00 -0.10000000000E+04  0.10000000000E+04  0.00000000000E+00 0.  1.
    9000005    2    1    2  501    0 -0.32863168764E+02 -0.36933279240E+01 -0.79277998007E+03  0.79347757225E+03  0.35961560658E+01 0.  0.
         13    1    3    3    0    0 -0.27630309539E+02 -0.43384227974E+01 -0.65570337831E+03  0.65629960859E+03  0.00000000000E+00 0.  1.
          1    1    3    3  501    0 -0.52328592247E+01  0.64509487341E+00 -0.13707660176E+03  0.13717796366E+03  0.00000000000E+00 0.  1.
         21    1    1    2  502  501  0.32863168764E+02  0.36933279240E+01 -0.20554959424E+03  0.20819285344E+03  0.00000000000E+00 0.  1.
<mgrwt>
<rscale>  1 0.30000000E+03</rscale>
<asrwt>0</asrwt>
<pdfrwt beam="1">  1        3 0.60742881E-02 0.30000000E+03</pdfrwt>
<pdfrwt beam="2">0</pdfrwt>
<totfact> 0.73152745E+02</totfact>
</mgrwt>
</event>
<event>
 6    1  0.3125838E-002  0.3000000E+03  0.7818608E-02  0.1093470E+00
          1   -1    0    0  502    0  0.00000000000E+00  0.00000000000E+00  0.11573995509E+01  0.11573995509E+01  0.00000000000E+00 0.  1.
         13   -1    0    0    0    0 -0.00000000000E+00 -0.00000000000E+00 -0.10000000000E+04  0.10000000000E+04  0.00000000000E+00 0.  1.
    9000005    2    1    2  501    0  0.22536793261E+02 -0.20793436438E+02 -0.71084594421E+03  0.71153290464E+03  0.60699202217E+01 0.  0.
         13    1    3    3    0    0  0.16603912907E+02 -0.18345160955E+02 -0.54041171478E+03  0.54097787045E+03  0.00000000000E+00 0.  1.
          3    1    3    3  501    0  0.59328803545E+01 -0.24482754828E+01 -0.17043422944E+03  0.17055503419E+03  0.00000000000E+00 0.  1.
         21    1    1    2  502  501 -0.22536793261E+02  0.20793436438E+02 -0.28799665624E+03  0.28962449491E+03  0.00000000000E+00 0.  1.
<mgrwt>
<rscale>  1 0.30000000E+03</rscale>
<asrwt>0</asrwt>
<pdfrwt beam="1">  1        1 0.42087345E-02 0.30000000E+03</pdfrwt>
<pdfrwt beam="2">0</pdfrwt>
<totfact> 0.25347523E+03</totfact>
</mgrwt>
</event>
<event>
 6    1  0.3125838E-002  0.3000000E+03  0.7818608E-02  0.1093470E+00
          1   -1    0    0  502    0  0.00000000000E+00  0.00000000000E+00  0.34730629390E+01  0.34730629390E+01  0.00000000000E+00 0.  1.
         13   -1    0    0    0    0 -0.00000000000E+00 -0.00000000000E+00 -0.10000000000E+04  0.10000000000E+04  0.00000000000E+00 0.  1.
    9000005    2    1    2  501    0 -0.24699466691E+02 -0.27926644224E+02 -0.88669965817E+03  0.88749033879E+03  0.35856009548E+01 0.  0.
         13    1    3    3    0    0 -0.67667229656E+01 -0.74397604973E+01 -0.20342483603E+03  0.20367327387E+03  0.00000000000E+00 0.  1.
          1    1    3    3  501    0 -0.17932743725E+02 -0.20486883726E+02 -0.68327482214E+03  0.68381706492E+03  0.00000000000E+00 0.  1.
         21    1    1    2  502  501  0.24699466691E+02  0.27926644224E+02 -0.10982727889E+03  0.11598272415E+03  0.00000000000E+00 0.  1.
<mgrwt>
<rscale>  1 0.30000000E+03</rscale>
<asrwt>0</asrwt>
<pdfrwt beam="1">  1        1 0.12629346E-01 0.30000000E+03</pdfrwt>
<pdfrwt beam="2">0</pdfrwt>
<totfact> 0.54840086E+02</totfact>
</mgrwt>
</event>
<event>
 6    1  0.3125838E-002  0.3000000E+03  0.7818608E-02  0.1093470E+00
          1   -1    0    0  502    0  0.00000000000E+00  0.00000000000E+00  0.61280253162E+01  0.61280253162E+01  0.00000000000E+00 0.  1.
         13   -1    0    0    0    0 -0.00000000000E+00 -0.00000000000E+00 -0.10000000000E+04  0.10000000000E+04  0.00000000000E+00 0.  1.
    9000005    2    1    2  501    0 -0.88337614078E+01  0.40233238267E+02 -0.92467080864E+03  0.92559511165E+03  0.36684539145E+01 0.  0.
         13    1    3    3    0    0 -0.58684452028E+01  0.30398225853E+02 -0.66206515932E+03  0.66278862842E+03  0.00000000000E+00 0.  1.
          3    1    3    3  501    0 -0.29653162050E+01  0.98350124139E+01 -0.26260564932E+03  0.26280648322E+03  0.00000000000E+00 0.  1.
         21    1    1    2  502  501  0.88337614078E+01 -0.40233238267E+02 -0.69201166045E+02  0.80532913670E+02  0.00000000000E+00 0.  1.
<mgrwt>
<rscale>  1 0.30000000E+03</rscale>
<asrwt>0</asrwt>
<pdfrwt beam="1">  1        1 0.22283775E-01 0.30000000E+03</pdfrwt>
<pdfrwt beam="2">0</pdfrwt>
<totfact> 0.25493229E+02</totfact>
</mgrwt>
</event>
<event>
 6    1  0.3125838E-002  0.3000000E+03  0.7818608E-02  0.1093470E+00
          1   -1    0    0  502    0  0.00000000000E+00  0.00000000000E+00  0.61066305010E+01  0.61066305010E+01  0.00000000000E+00 0.  1.
         13   -1    0    0    0    0 -0.00000000000E+00 -0.00000000000E+00 -0.10000000000E+04  0.10000000000E+04  0.00000000000E+00 0.  1.
    9000005    2    1    2  501    0  0.24707304916E+01 -0.61181893751E+02 -0.80936749485E+03  0.81168665455E+03  0.31866643693E+01 0.  0.
         13    1    3    3    0    0  0.21723610337E+01 -0.20748074318E+02 -0.28490993248E+03  0.28567266471E+03  0.00000000000E+00 0.  1.
          3    1    3    3  501    0  0.29836945794E+00 -0.40433819434E+02 -0.52445756237E+03  0.52601398984E+03  0.00000000000E+00 0.  1.
         21    1    1    2  502  501 -0.24707304916E+01  0.61181893751E+02 -0.18452587465E+03  0.19441997595E+03  0.00000000000E+00 0.  1.
<mgrwt>
<rscale>  1 0.30000000E+03</rscale>
<asrwt>0</asrwt>
<pdfrwt beam="1">  1        1 0.22205976E-01 0.30000000E+03</pdfrwt>
<pdfrwt beam="2">0</pdfrwt>
<totfact> 0.25611806E+02</totfact>
</mgrwt>
</event>
<event>
 6    1  0.3125838E-002  0.3000000E+03  0.7818608E-02  0.1093470E+00
          1   -1    0    0  502    0  0.00000000000E+00  0.00000000000E+00  0.18914948902E+01  0.18914948902E+01  0.00000000000E+00 0.  1.
         13   -1    0    0    0    0 -0.00000000000E+00 -0.00000000000E+00 -0.10000000000E+04  0.10000000000E+04  0.00000000000E+00 0.  1.
    9000005    2    1    2  501    0 -0.39751921789E+02 -0.57938379078E+01 -0.30912408966E+03  0.31173694076E+03  0.29040639297E+01 0.  0.
         13    1    3    3    0    0 -0.31323666265E+02 -0.57214054871E+01 -0.24215452396E+03  0.24423906326E+03  0.00000000000E+00 0.  1.
          1    1    3    3  501    0 -0.84282555244E+01 -0.72432420705E-01 -0.66969565697E+02  0.67497877502E+02  0.00000000000E+00 0.  1.
         21    1    1    2  502  501  0.39751921789E+02  0.57938379078E+01 -0.68898441545E+03  0.69015455413E+03  0.00000000000E+00 0.  1.
<mgrwt>
<rscale>  1 0.30000000E+03</rscale>
<asrwt>0</asrwt>
<pdfrwt beam="1">  1        1 0.68781777E-02 0.30000000E+03</pdfrwt>
<pdfrwt beam="2">0</pdfrwt>
<totfact> 0.12716560E+03</totfact>
</mgrwt>
</event>
<event>
 6    1  0.3125838E-002  0.3000000E+03  0.7818608E-02  0.1093470E+00
          3   -1    0    0  502    0  0.00000000000E+00  0.00000000000E+00  0.10188006169E+01  0.10188006169E+01  0.00000000000E+00 0.  1.
         13   -1    0    0    0    0 -0.00000000000E+00 -0.00000000000E+00 -0.10000000000E+04  0.10000000000E+04  0.00000000000E+00 0.  1.
    9000005    2    1    2  501    0 -0.20510704966E+02 -0.21918183924E+02 -0.66647874877E+03  0.66716407852E+03  0.35901666559E+01 0.  0.
         13    1    3    3    0    0 -0.19322647577E+02 -0.20818675737E+02 -0.64461701524E+03  0.64524249574E+03  0.00000000000E+00 0.  1.
          3    1    3    3  501    0 -0.11880573891E+01 -0.10995081868E+01 -0.21861733530E+02  0.21921582779E+02  0.00000000000E+00 0.  1.
         21    1    1    2  502  501  0.20510704966E+02  0.21918183924E+02 -0.33250245061E+03  0.33385472210E+03  0.00000000000E+00 0.  1.
<mgrwt>
<rscale>  1 0.30000000E+03</rscale>
<asrwt>0</asrwt>
<pdfrwt beam="1">  1        3 0.37047373E-02 0.30000000E+03</pdfrwt>
<pdfrwt beam="2">0</pdfrwt>
<totfact> 0.15698623E+03</totfact>
</mgrwt>
</event>
<event>
 6    1  0.3125838E-002  0.3000000E+03  0.7818608E-02  0.1093470E+00
          1   -1    0    0  502    0  0.00000000000E+00  0.00000000000E+00  0.15979890485E+01  0.15979890485E+01  0.00000000000E+00 0.  1.
         13   -1    0    0    0    0 -0.00000000000E+00 -0.00000000000E+00 -0.10000000000E+04  0.10000000000E+04  0.00000000000E+00 0.  1.
    9000005    2    1    2  501    0  0.22561204396E+02 -0.24104259522E+02 -0.78090911461E+03  0.78161348225E+03  0.32507058248E+01 0.  0.
         13    1    3    3    0    0  0.22237922968E+02 -0.23722486747E+02 -0.77547181076E+03  0.77615321353E+03  0.00000000000E+00 0.  1.
          1    1    3    3  501    0  0.32328142752E+00 -0.38177277487E+00 -0.54373038534E+01  0.54602687230E+01  0.00000000000E+00 0.  1.
         21    1    1    2  502  501 -0.22561204396E+02  0.24104259522E+02 -0.21749289634E+03  0.21998450679E+03  0.00000000000E+00 0.  1.
<mgrwt>
<rscale>  1 0.30000000E+03</rscale>
<asrwt>0</asrwt>
<pdfrwt beam="1">  1        1 0.58108815E-02 0.30000000E+03</pdfrwt>
<pdfrwt beam="2">0</pdfrwt>
<totfact> 0.16106272E+03</totfact>
</mgrwt>
</event>
<event>
 6    1  0.3125838E-002  0.3000000E+03  0.7818608E-02  0.1093470E+00
          1   -1    0    0  502    0  0.00000000000E+00  0.00000000000E+00  0.12706778355E+02  0.12706778355E+02  0.00000000000E+00 0.  1.
         13   -1    0    0    0    0 -0.00000000000E+00 -0.00000000000E+00 -0.10000000000E+04  0.10000000000E+04  0.00000000000E+00 0.  1.
    9000005    2    1    2  501    0  0.33989206205E+02  0.30519432686E+02 -0.95655289126E+03  0.95764617699E+03  0.24626467024E+01 0.  0.
         13    1    3    3    0    0  0.29483749920E+02  0.25970239307E+02 -0.80560971353E+03  0.80656726649E+03  0.00000000000E+00 0.  1.
          1    1    3    3  501    0  0.45054562850E+01  0.45491933782E+01 -0.15094317773E+03  0.15107891051E+03  0.00000000000E+00 0.  1.
         21    1    1    2  502  501 -0.33989206205E+02 -0.30519432686E+02 -0.30740330387E+02  0.55060601360E+02  0.00000000000E+00 0.  1.
<mgrwt>
<rscale>  1 0.30000000E+03</rscale>
<asrwt>0</asrwt>
<pdfrwt beam="1">  1        1 0.46206564E-01 0.30000000E+03</pdfrwt>
<pdfrwt beam="2">0</pdfrwt>
<totfact> 0.97870263E+01</totfact>
</mgrwt>
</event>
<event>
 6    1  0.3125838E-002  0.3000000E+03  0.7818608E-02  0.1093470E+00
          3   -1    0    0  502    0  0.00000000000E+00  0.00000000000E+00  0.12440349227E+01  0.12440349227E+01  0.00000000000E+00 0.  1.
         13   -1    0    0    0    0 -0.00000000000E+00 -0.00000000000E+00 -0.10000000000E+04  0.10000000000E+04  0.00000000000E+00 0.  1.
    9000005    2    1    2  501    0 -0.18296134523E+02  0.29789263012E+02 -0.55561969952E+03  0.55673093210E+03  0.37324968423E+01 0.  0.
         13    1    3    3    0    0 -0.16787876172E+02  0.27735017552E+02 -0.49736309390E+03  0.49841861036E+03  0.00000000000E+00 0.  1.
          1    1    3    3  501    0 -0.15082583514E+01  0.20542454595E+01 -0.58256605625E+02  0.58312321740E+02  0.00000000000E+00 0.  1.
         21    1    1    2  502  501  0.18296134523E+02 -0.29789263012E+02 -0.44313626556E+03  0.44451310282E+03  0.00000000000E+00 0.  1.
<mgrwt>
<rscale>  1 0.30000000E+03</rscale>
<asrwt>0</asrwt>
<pdfrwt beam="1">  1        3 0.45237729E-02 0.30000000E+03</pdfrwt>
<pdfrwt beam="2">0</pdfrwt>
<totfact> 0.11546690E+03</totfact>
</mgrwt>
</event>
<event>
 6    1  0.3125838E-002  0.3000000E+03  0.7818608E-02  0.1093470E+00
          1   -1    0    0  502    0  0.00000000000E+00  0.00000000000E+00  0.55270698818E+01  0.55270698818E+01  0.00000000000E+00 0.  1.
         13   -1    0    0    0    0 -0.00000000000E+00 -0.00000000000E+00 -0.10000000000E+04  0.10000000000E+04  0.00000000000E+00 0.  1.
    9000005    2    1    2  501    0  0.71718459452E+01 -0.59873663542E+02 -0.79112887150E+03  0.79343016483E+03  0.32006514670E+01 0.  0.
         13    1    3    3    0    0  0.59913431167E+01 -0.46088690928E+02 -0.59252755464E+03  0.59434751335E+03  0.00000000000E+00 0.  1.
          1    1    3    3  501    0  0.11805028286E+01 -0.13784972614E+02 -0.19860131687E+03  0.19908265148E+03  0.00000000000E+00 0.  1.
         21    1    1    2  502  501 -0.71718459452E+01  0.59873663542E+02 -0.20334405861E+03  0.21209690505E+03  0.00000000000E+00 0.  1.
<mgrwt>
<rscale>  1 0.30000000E+03</rscale>
<asrwt>0</asrwt>
<pdfrwt beam="1">  1        1 0.20098478E-01 0.30000000E+03</pdfrwt>
<pdfrwt beam="2">0</pdfrwt>
<totfact> 0.29248863E+02</totfact>
</mgrwt>
</event>
<event>
 6    1  0.3125838E-002  0.3000000E+03  0.7818608E-02  0.1093470E+00
          1   -1    0    0  502    0  0.00000000000E+00  0.00000000000E+00  0.17807011921E+01  0.17807011921E+01  0.00000000000E+00 0.  1.
         13   -1    0    0    0    0 -0.00000000000E+00 -0.00000000000E+00 -0.10000000000E+04  0.10000000000E+04  0.00000000000E+00 0.  1.
    9000005    2    1    2  501    0  0.38482827481E+02 -0.88535873366E+00 -0.70333335720E+03  0.70439302419E+03  0.31637501803E+01 0.  0.
         13    1    3    3    0    0  0.26874546011E+02 -0.50375103533E+00 -0.51660859991E+03  0.51730739458E+03  0.00000000000E+00 0.  1.
          1    1    3    3  501    0  0.11608281470E+02 -0.38160769834E+00 -0.18672475729E+03  0.18708562961E+03  0.00000000000E+00 0.  1.
         21    1    1    2  502  501 -0.38482827481E+02  0.88535873366E+00 -0.29488594161E+03  0.29738767700E+03  0.00000000000E+00 0.  1.
<mgrwt>
<rscale>  1 0.30000000E+03</rscale>
<asrwt>0</asrwt>
<pdfrwt beam="1">  1        1 0.64752907E-02 0.30000000E+03</pdfrwt>
<pdfrwt beam="2">0</pdfrwt>
<totfact> 0.13837747E+03</totfact>
</mgrwt>
</event>
<event>
 6    1  0.3125838E-002  0.3000000E+03  0.7818608E-02  0.1093470E+00
          3   -1    0    0  502    0  0.00000000000E+00  0.00000000000E+00  0.21120776977E+01  0.21120776977E+01  0.00000000000E+00 0.  1.
         13   -1    0    0    0    0 -0.00000000000E+00 -0.00000000000E+00 -0.10000000000E+04  0.10000000000E+04  0.00000000000E+00 0.  1.
    9000005    2    1    2  501    0  0.21741677932E+02  0.25020135239E+02 -0.84567739124E+03  0.84633417974E+03  0.35476767423E+01 0.  0.
         13    1    3    3    0    0  0.44565883215E+01  0.35933993388E+01 -0.16932863530E+03  0.16942538308E+03  0.00000000000E+00 0.  1.
          1    1    3    3  501    0  0.17285089610E+02  0.21426735901E+02 -0.67634875594E+03  0.67690879666E+03  0.00000000000E+00 0.  1.
         21    1    1    2  502  501 -0.21741677932E+02 -0.25020135239E+02 -0.15221053106E+03  0.15577789796E+03  0.00000000000E+00 0.  1.
<mgrwt>
<rscale>  1 0.30000000E+03</rscale>
<asrwt>0</asrwt>
<pdfrwt beam="1">  1        3 0.76802987E-02 0.30000000E+03</pdfrwt>
<pdfrwt beam="2">0</pdfrwt>
<totfact> 0.50573023E+02</totfact>
</mgrwt>
</event>
<event>
 6    1  0.3125838E-002  0.3000000E+03  0.7818608E-02  0.1093470E+00
          1   -1    0    0  502    0  0.00000000000E+00  0.00000000000E+00  0.43642139549E+01  0.43642139549E+01  0.00000000000E+00 0.  1.
         13   -1    0    0    0    0 -0.00000000000E+00 -0.00000000000E+00 -0.10000000000E+04  0.10000000000E+04  0.00000000000E+00 0.  1.
    9000005    2    1    2  501    0 -0.28017593420E+02 -0.24887836362E+02 -0.91116861123E+03  0.91195699800E+03  0.57391780755E+01 0.  0.
         13    1    3    3    0    0 -0.21367720226E+02 -0.20458023696E+02 -0.76278200322E+03  0.76335541829E+03  0.00000000000E+00 0.  1.
          1    1    3    3  501    0 -0.66498731938E+01 -0.44298126665E+01 -0.14838660801E+03  0.14860157971E+03  0.00000000000E+00 0.  1.
         21    1    1    2  502  501  0.28017593420E+02  0.24887836362E+02 -0.84467174814E+02  0.92407215956E+02  0.00000000000E+00 0.  1.
<mgrwt>
<rscale>  1 0.30000000E+03</rscale>
<asrwt>0</asrwt>
<pdfrwt beam="1">  1        1 0.15869902E-01 0.30000000E+03</pdfrwt>
<pdfrwt beam="2">0</pdfrwt>
<totfact> 0.40188039E+02</totfact>
</mgrwt>
</event>
<event>
 6    1  0.3125838E-002  0.3000000E+03  0.7818608E-02  0.1093470E+00
          1   -1    0    0  502    0  0.00000000000E+00  0.00000000000E+00  0.11389953787E+02  0.11389953787E+02  0.00000000000E+00 0.  1.
         13   -1    0    0    0    0 -0.00000000000E+00 -0.00000000000E+00 -0.10000000000E+04  0.10000000000E+04  0.00000000000E+00 0.  1.
    9000005    2    1    2  501    0 -0.22989831379E+02 -0.70989037226E+02 -0.85579727202E+03  0.85905082966E+03  0.33736297595E+01 0.  0.
         13    1    3    3    0    0 -0.20346028502E+01 -0.50982742690E+01 -0.54323576413E+02  0.54600210289E+02  0.00000000000E+00 0.  1.
          3    1    3    3  501    0 -0.20955228529E+02 -0.65890762957E+02 -0.80147369561E+03  0.80445061937E+03  0.00000000000E+00 0.  1.
         21    1    1    2  502  501  0.22989831379E+02  0.70989037226E+02 -0.13281277419E+03  0.15233912413E+03  0.00000000000E+00 0.  1.
<mgrwt>
<rscale>  1 0.30000000E+03</rscale>
<asrwt>0</asrwt>
<pdfrwt beam="1">  1        1 0.41418101E-01 0.30000000E+03</pdfrwt>
<pdfrwt beam="2">0</pdfrwt>
<totfact> 0.11294221E+02</totfact>
</mgrwt>
</event>
<event>
 6    1  0.4918065E-002  0.3000000E+03  0.7818608E-02  0.1093470E+00
          1   -1    0    0  502    0  0.00000000000E+00  0.00000000000E+00  0.18126775730E+01  0.18126775730E+01  0.00000000000E+00 0.  1.
         13   -1    0    0    0    0 -0.00000000000E+00 -0.00000000000E+00 -0.10000000000E+04  0.10000000000E+04  0.00000000000E+00 0.  1.
    9000005    2    1    2  501    0 -0.15978760850E+02  0.35335974375E+02 -0.69717486142E+03  0.69831234221E+03  0.91317032724E+01 0.  0.
         13    1    3    3    0    0 -0.41815633722E+01  0.97542766178E+01 -0.27078610371E+03  0.27099399504E+03  0.00000000000E+00 0.  1.
          3    1    3    3  501    0 -0.11797197478E+02  0.25581697758E+02 -0.42638875771E+03  0.42731834717E+03  0.00000000000E+00 0.  1.
         21    1    1    2  502  501  0.15978760850E+02 -0.35335974375E+02 -0.30101246100E+03  0.30350033536E+03  0.00000000000E+00 0.  1.
<mgrwt>
<rscale>  1 0.30000000E+03</rscale>
<asrwt>0</asrwt>
<pdfrwt beam="1">  1        1 0.65915687E-02 0.30000000E+03</pdfrwt>
<pdfrwt beam="2">0</pdfrwt>
<totfact> 0.13497092E+03</totfact>
</mgrwt>
</event>
<event>
 6    1  0.3125838E-002  0.3000000E+03  0.7818608E-02  0.1093470E+00
          1   -1    0    0  502    0  0.00000000000E+00  0.00000000000E+00  0.12474321993E+01  0.12474321993E+01  0.00000000000E+00 0.  1.
         13   -1    0    0    0    0 -0.00000000000E+00 -0.00000000000E+00 -0.10000000000E+04  0.10000000000E+04  0.00000000000E+00 0.  1.
    9000005    2    1    2  501    0 -0.17991521145E+01  0.34457939689E+02 -0.39695609612E+03  0.39846257847E+03  0.27744620573E+01 0.  0.
         13    1    3    3    0    0 -0.49240266782E+00  0.25865982078E+02 -0.30655557127E+03  0.30764526612E+03  0.00000000000E+00 0.  1.
          3    1    3    3  501    0 -0.13067494466E+01  0.85919576103E+01 -0.90400524850E+02  0.90817312352E+02  0.00000000000E+00 0.  1.
         21    1    1    2  502  501  0.17991521145E+01 -0.34457939689E+02 -0.60179647168E+03  0.60278485372E+03  0.00000000000E+00 0.  1.
<mgrwt>
<rscale>  1 0.30000000E+03</rscale>
<asrwt>0</asrwt>
<pdfrwt beam="1">  1        1 0.45361267E-02 0.30000000E+03</pdfrwt>
<pdfrwt beam="2">0</pdfrwt>
<totfact> 0.22810700E+03</totfact>
</mgrwt>
</event>
<event>
 6    1  0.3125838E-002  0.3000000E+03  0.7818608E-02  0.1093470E+00
          3   -1    0    0  502    0  0.00000000000E+00  0.00000000000E+00  0.38671147604E+01  0.38671147604E+01  0.00000000000E+00 0.  1.
         13   -1    0    0    0    0 -0.00000000000E+00 -0.00000000000E+00 -0.10000000000E+04  0.10000000000E+04  0.00000000000E+00 0.  1.
    9000005    2    1    2  501    0 -0.97927823739E+01  0.49804172228E+02 -0.78785227509E+03  0.78949088772E+03  0.28810175881E+01 0.  0.
         13    1    3    3    0    0 -0.32888015099E+01  0.10648965710E+02 -0.17600642289E+03  0.17635894529E+03  0.00000000000E+00 0.  1.
          1    1    3    3  501    0 -0.65039808640E+01  0.39155206518E+02 -0.61184585220E+03  0.61313194243E+03  0.00000000000E+00 0.  1.
         21    1    1    2  502  501  0.97927823739E+01 -0.49804172228E+02 -0.20828061015E+03  0.21437622704E+03  0.00000000000E+00 0.  1.
<mgrwt>
<rscale>  1 0.30000000E+03</rscale>
<asrwt>0</asrwt>
<pdfrwt beam="1">  1        3 0.14062265E-01 0.30000000E+03</pdfrwt>
<pdfrwt beam="2">0</pdfrwt>
<totfact> 0.18604163E+02</totfact>
</mgrwt>
</event>
<event>
 6    1  0.3125838E-002  0.3000000E+03  0.7818608E-02  0.1093470E+00
          1   -1    0    0  502    0  0.00000000000E+00  0.00000000000E+00  0.24344308702E+01  0.24344308702E+01  0.00000000000E+00 0.  1.
         13   -1    0    0    0    0 -0.00000000000E+00 -0.00000000000E+00 -0.10000000000E+04  0.10000000000E+04  0.00000000000E+00 0.  1.
    9000005    2    1    2  501    0 -0.94075941664E+01  0.46967619199E+02 -0.38171023575E+03  0.38471908241E+03  0.34070818139E+01 0.  0.
         13    1    3    3    0    0 -0.61851238682E+01  0.28619989496E+02 -0.24591589582E+03  0.24765295753E+03  0.00000000000E+00 0.  1.
          3    1    3    3  501    0 -0.32224702982E+01  0.18347629703E+02 -0.13579433993E+03  0.13706612487E+03  0.00000000000E+00 0.  1.
         21    1    1    2  502  501  0.94075941664E+01 -0.46967619199E+02 -0.61585533338E+03  0.61771534846E+03  0.00000000000E+00 0.  1.
<mgrwt>
<rscale>  1 0.30000000E+03</rscale>
<asrwt>0</asrwt>
<pdfrwt beam="1">  1        1 0.88524946E-02 0.30000000E+03</pdfrwt>
<pdfrwt beam="2">0</pdfrwt>
<totfact> 0.89464772E+02</totfact>
</mgrwt>
</event>
<event>
 6    1  0.3125838E-002  0.3000000E+03  0.7818608E-02  0.1093470E+00
          1   -1    0    0  502    0  0.00000000000E+00  0.00000000000E+00  0.18342030975E+01  0.18342030975E+01  0.00000000000E+00 0.  1.
         13   -1    0    0    0    0 -0.00000000000E+00 -0.00000000000E+00 -0.10000000000E+04  0.10000000000E+04  0.00000000000E+00 0.  1.
    9000005    2    1    2  501    0  0.28480444973E+02  0.31450132978E+02 -0.56328106879E+03  0.56488457973E+03  0.29629978187E+01 0.  0.
         13    1    3    3    0    0  0.81474572486E+00  0.30812183225E+00 -0.10301821484E+02  0.10338581892E+02  0.00000000000E+00 0.  1.
          3    1    3    3  501    0  0.27665699249E+02  0.31142011146E+02 -0.55297924730E+03  0.55454599784E+03  0.00000000000E+00 0.  1.
         21    1    1    2  502  501 -0.28480444973E+02 -0.31450132978E+02 -0.43488472812E+03  0.43694962337E+03  0.00000000000E+00 0.  1.
<mgrwt>
<rscale>  1 0.30000000E+03</rscale>
<asrwt>0</asrwt>
<pdfrwt beam="1">  1        1 0.66698435E-02 0.30000000E+03</pdfrwt>
<pdfrwt beam="2">0</pdfrwt>
<totfact> 0.13275850E+03</totfact>
</mgrwt>
</event>
<event>
 6    1  0.3125838E-002  0.3000000E+03  0.7818608E-02  0.1093470E+00
          3   -1    0    0  502    0  0.00000000000E+00  0.00000000000E+00  0.50825578547E+01  0.50825578547E+01  0.00000000000E+00 0.  1.
         13   -1    0    0    0    0 -0.00000000000E+00 -0.00000000000E+00 -0.10000000000E+04  0.10000000000E+04  0.00000000000E+00 0.  1.
    9000005    2    1    2  501    0  0.17098152238E+02  0.28560156051E+02 -0.94182283328E+03  0.94241624462E+03  0.31779737912E+01 0.  0.
         13    1    3    3    0    0  0.10299103861E+02  0.19926147002E+02 -0.61727608368E+03  0.61768348396E+03  0.00000000000E+00 0.  1.
          1    1    3    3  501    0  0.67990483772E+01  0.86340090486E+01 -0.32454674960E+03  0.32473276066E+03  0.00000000000E+00 0.  1.
         21    1    1    2  502  501 -0.17098152238E+02 -0.28560156051E+02 -0.53094608867E+02  0.62666313234E+02  0.00000000000E+00 0.  1.
<mgrwt>
<rscale>  1 0.30000000E+03</rscale>
<asrwt>0</asrwt>
<pdfrwt beam="1">  1        3 0.18482068E-01 0.30000000E+03</pdfrwt>
<pdfrwt beam="2">0</pdfrwt>
<totfact> 0.11524282E+02</totfact>
</mgrwt>
</event>
<event>
 6    1  0.3125838E-002  0.3000000E+03  0.7818608E-02  0.1093470E+00
          1   -1    0    0  502    0  0.00000000000E+00  0.00000000000E+00  0.77628557413E+01  0.77628557413E+01  0.00000000000E+00 0.  1.
         13   -1    0    0    0    0 -0.00000000000E+00 -0.00000000000E+00 -0.10000000000E+04  0.10000000000E+04  0.00000000000E+00 0.  1.
    9000005    2    1    2  501    0 -0.37996398550E+02  0.44649438301E+02 -0.87218973883E+03  0.87416391041E+03  0.32098442304E+01 0.  0.
         13    1    3    3    0    0 -0.24931438703E+02  0.26924789964E+02 -0.54172338752E+03  0.54296477744E+03  0.00000000000E+00 0.  1.
          1    1    3    3  501    0 -0.13064959847E+02  0.17724648337E+02 -0.33046635131E+03  0.33119913297E+03  0.00000000000E+00 0.  1.
         21    1    1    2  502  501  0.37996398550E+02 -0.44649438301E+02 -0.12004740543E+03  0.13359894533E+03  0.00000000000E+00 0.  1.
<mgrwt>
<rscale>  1 0.30000000E+03</rscale>
<asrwt>0</asrwt>
<pdfrwt beam="1">  1        1 0.28228626E-01 0.30000000E+03</pdfrwt>
<pdfrwt beam="2">0</pdfrwt>
<totfact> 0.18654179E+02</totfact>
</mgrwt>
</event>
<event>
 6    1  0.3125838E-002  0.3000000E+03  0.7818608E-02  0.1093470E+00
          1   -1    0    0  502    0  0.00000000000E+00  0.00000000000E+00  0.14791473328E+01  0.14791473328E+01  0.00000000000E+00 0.  1.
         13   -1    0    0    0    0 -0.00000000000E+00 -0.00000000000E+00 -0.10000000000E+04  0.10000000000E+04  0.00000000000E+00 0.  1.
    9000005    2    1    2  501    0  0.37947819782E+02  0.45723028126E+01 -0.54659000955E+03  0.54793484967E+03  0.33193323090E+01 0.  0.
         13    1    3    3    0    0  0.36154523772E+02  0.46349422946E+01 -0.51004001892E+03  0.51134083856E+03  0.00000000000E+00 0.  1.
          1    1    3    3  501    0  0.17932960104E+01 -0.62639482079E-01 -0.36549990628E+02  0.36594011111E+02  0.00000000000E+00 0.  1.
         21    1    1    2  502  501 -0.37947819782E+02 -0.45723028126E+01 -0.45193084312E+03  0.45354429766E+03  0.00000000000E+00 0.  1.
<mgrwt>
<rscale>  1 0.30000000E+03</rscale>
<asrwt>0</asrwt>
<pdfrwt beam="1">  1        1 0.53787289E-02 0.30000000E+03</pdfrwt>
<pdfrwt beam="2">0</pdfrwt>
<totfact> 0.17952188E+03</totfact>
</mgrwt>
</event>
<event>
 6    1  0.3125838E-002  0.3000000E+03  0.7818608E-02  0.1093470E+00
          1   -1    0    0  502    0  0.00000000000E+00  0.00000000000E+00  0.29989917620E+01  0.29989917620E+01  0.00000000000E+00 0.  1.
         13   -1    0    0    0    0 -0.00000000000E+00 -0.00000000000E+00 -0.10000000000E+04  0.10000000000E+04  0.00000000000E+00 0.  1.
    9000005    2    1    2  501    0 -0.30687213111E+02  0.43090088795E+01 -0.91184585982E+03  0.91238071597E+03  0.39276188831E+01 0.  0.
         13    1    3    3    0    0 -0.65554998588E+01  0.25279650927E+01 -0.21629834569E+03  0.21641242925E+03  0.00000000000E+00 0.  1.
          1    1    3    3  501    0 -0.24131713252E+02  0.17810437868E+01 -0.69554751414E+03  0.69596828672E+03  0.00000000000E+00 0.  1.
         21    1    1    2  502  501  0.30687213111E+02 -0.43090088795E+01 -0.85155148414E+02  0.90618275792E+02  0.00000000000E+00 0.  1.
<mgrwt>
<rscale>  1 0.30000000E+03</rscale>
<asrwt>0</asrwt>
<pdfrwt beam="1">  1        1 0.10905448E-01 0.30000000E+03</pdfrwt>
<pdfrwt beam="2">0</pdfrwt>
<totfact> 0.67068458E+02</totfact>
</mgrwt>
</event>
<event>
 6    1  0.3125838E-002  0.3000000E+03  0.7818608E-02  0.1093470E+00
          1   -1    0    0  502    0  0.00000000000E+00  0.00000000000E+00  0.16523373435E+01  0.16523373435E+01  0.00000000000E+00 0.  1.
         13   -1    0    0    0    0 -0.00000000000E+00 -0.00000000000E+00 -0.10000000000E+04  0.10000000000E+04  0.00000000000E+00 0.  1.
    9000005    2    1    2  501    0  0.19342661613E+02  0.25443470936E+02 -0.80725947259E+03  0.80790971128E+03  0.53606642099E+01 0.  0.
         13    1    3    3    0    0  0.10482123238E+02  0.16975580829E+02 -0.54242835003E+03  0.54279513646E+03  0.00000000000E+00 0.  1.
          3    1    3    3  501    0  0.88605383755E+01  0.84678901069E+01 -0.26483112257E+03  0.26511457482E+03  0.00000000000E+00 0.  1.
         21    1    1    2  502  501 -0.19342661613E+02 -0.25443470936E+02 -0.19108819006E+03  0.19374262606E+03  0.00000000000E+00 0.  1.
<mgrwt>
<rscale>  1 0.30000000E+03</rscale>
<asrwt>0</asrwt>
<pdfrwt beam="1">  1        1 0.60085121E-02 0.30000000E+03</pdfrwt>
<pdfrwt beam="2">0</pdfrwt>
<totfact> 0.15367859E+03</totfact>
</mgrwt>
</event>
<event>
 6    1  0.3125838E-002  0.3000000E+03  0.7818608E-02  0.1093470E+00
          1   -1    0    0  502    0  0.00000000000E+00  0.00000000000E+00  0.18059615415E+02  0.18059615415E+02  0.00000000000E+00 0.  1.
         13   -1    0    0    0    0 -0.00000000000E+00 -0.00000000000E+00 -0.10000000000E+04  0.10000000000E+04  0.00000000000E+00 0.  1.
    9000005    2    1    2  501    0 -0.15911723016E+02  0.11189382744E+03 -0.76629506227E+03  0.77459233510E+03  0.34280586928E+01 0.  0.
         13    1    3    3    0    0 -0.15239008847E+02  0.10131761103E+03 -0.69824940827E+03  0.70572637887E+03  0.00000000000E+00 0.  1.
          3    1    3    3  501    0 -0.67271416878E+00  0.10576216407E+02 -0.68045654005E+02  0.68865956226E+02  0.00000000000E+00 0.  1.
         21    1    1    2  502  501  0.15911723016E+02 -0.11189382744E+03 -0.21564532231E+03  0.24346728032E+03  0.00000000000E+00 0.  1.
<mgrwt>
<rscale>  1 0.30000000E+03</rscale>
<asrwt>0</asrwt>
<pdfrwt beam="1">  1        1 0.65671467E-01 0.30000000E+03</pdfrwt>
<pdfrwt beam="2">0</pdfrwt>
<totfact> 0.61460958E+01</totfact>
</mgrwt>
</event>
<event>
 6    1  0.3125838E-002  0.3000000E+03  0.7818608E-02  0.1093470E+00
          3   -1    0    0  502    0  0.00000000000E+00  0.00000000000E+00  0.71414123253E+01  0.71414123253E+01  0.00000000000E+00 0.  1.
         13   -1    0    0    0    0 -0.00000000000E+00 -0.00000000000E+00 -0.10000000000E+04  0.10000000000E+04  0.00000000000E+00 0.  1.
    9000005    2    1    2  501    0 -0.99614216663E+01 -0.51876510206E+02 -0.88937439640E+03  0.89095457969E+03  0.47795268539E+01 0.  0.
         13    1    3    3    0    0 -0.63728457824E+01 -0.42889067909E+02 -0.73053656202E+03  0.73182221458E+03  0.00000000000E+00 0.  1.
          1    1    3    3  501    0 -0.35885758839E+01 -0.89874422964E+01 -0.15883783438E+03  0.15913236511E+03  0.00000000000E+00 0.  1.
         21    1    1    2  502  501  0.99614216663E+01  0.51876510206E+02 -0.10348419128E+03  0.11618683263E+03  0.00000000000E+00 0.  1.
<mgrwt>
<rscale>  1 0.30000000E+03</rscale>
<asrwt>0</asrwt>
<pdfrwt beam="1">  1        3 0.25968827E-01 0.30000000E+03</pdfrwt>
<pdfrwt beam="2">0</pdfrwt>
<totfact> 0.61445284E+01</totfact>
</mgrwt>
</event>
<event>
 6    1  0.3125838E-002  0.3000000E+03  0.7818608E-02  0.1093470E+00
          1   -1    0    0  502    0  0.00000000000E+00  0.00000000000E+00  0.63091980514E+01  0.63091980514E+01  0.00000000000E+00 0.  1.
         13   -1    0    0    0    0 -0.00000000000E+00 -0.00000000000E+00 -0.10000000000E+04  0.10000000000E+04  0.00000000000E+00 0.  1.
    9000005    2    1    2  501    0 -0.31520373569E+02 -0.55706588777E+02 -0.79461944088E+03  0.79720117626E+03  0.35918811279E+01 0.  0.
         13    1    3    3    0    0 -0.14365077223E+01 -0.19633502488E+01 -0.23314267023E+02  0.23440847797E+02  0.00000000000E+00 0.  1.
          3    1    3    3  501    0 -0.30083865846E+02 -0.53743238528E+02 -0.77130517386E+03  0.77376032846E+03  0.00000000000E+00 0.  1.
         21    1    1    2  502  501  0.31520373569E+02  0.55706588777E+02 -0.19907136106E+03  0.20910802179E+03  0.00000000000E+00 0.  1.
<mgrwt>
<rscale>  1 0.30000000E+03</rscale>
<asrwt>0</asrwt>
<pdfrwt beam="1">  1        1 0.22942587E-01 0.30000000E+03</pdfrwt>
<pdfrwt beam="2">0</pdfrwt>
<totfact> 0.24527332E+02</totfact>
</mgrwt>
</event>
<event>
 6    1  0.3125838E-002  0.3000000E+03  0.7818608E-02  0.1093470E+00
          3   -1    0    0  502    0  0.00000000000E+00  0.00000000000E+00  0.26616383191E+01  0.26616383191E+01  0.00000000000E+00 0.  1.
         13   -1    0    0    0    0 -0.00000000000E+00 -0.00000000000E+00 -0.10000000000E+04  0.10000000000E+04  0.00000000000E+00 0.  1.
    9000005    2    1    2  501    0  0.52347069190E+01  0.48192511866E+02 -0.66947032194E+03  0.67122933477E+03  0.28961236623E+01 0.  0.
         13    1    3    3    0    0  0.24453462321E+01  0.14256965227E+02 -0.18632418192E+03  0.18688483498E+03  0.00000000000E+00 0.  1.
          3    1    3    3  501    0  0.27893606869E+01  0.33935546639E+02 -0.48314614002E+03  0.48434449979E+03  0.00000000000E+00 0.  1.
         21    1    1    2  502  501 -0.52347069190E+01 -0.48192511866E+02 -0.32786803974E+03  0.33143230355E+03  0.00000000000E+00 0.  1.
<mgrwt>
<rscale>  1 0.30000000E+03</rscale>
<asrwt>0</asrwt>
<pdfrwt beam="1">  1        3 0.96787052E-02 0.30000000E+03</pdfrwt>
<pdfrwt beam="2">0</pdfrwt>
<totfact> 0.34843886E+02</totfact>
</mgrwt>
</event>
<event>
 6    1  0.3125838E-002  0.3000000E+03  0.7818608E-02  0.1093470E+00
          1   -1    0    0  502    0  0.00000000000E+00  0.00000000000E+00  0.10972805553E+02  0.10972805553E+02  0.00000000000E+00 0.  1.
         13   -1    0    0    0    0 -0.00000000000E+00 -0.00000000000E+00 -0.10000000000E+04  0.10000000000E+04  0.00000000000E+00 0.  1.
    9000005    2    1    2  501    0 -0.18911450439E+02  0.48926278044E+02 -0.93203254197E+03  0.93351433893E+03  0.35969501455E+01 0.  0.
         13    1    3    3    0    0 -0.60824610069E+01  0.14790577890E+02 -0.25616778902E+03  0.25666650280E+03  0.00000000000E+00 0.  1.
          1    1    3    3  501    0 -0.12828989432E+02  0.34135700154E+02 -0.67586475295E+03  0.67684783613E+03  0.00000000000E+00 0.  1.
         21    1    1    2  502  501  0.18911450439E+02 -0.48926278044E+02 -0.56994652476E+02  0.77458466624E+02  0.00000000000E+00 0.  1.
<mgrwt>
<rscale>  1 0.30000000E+03</rscale>
<asrwt>0</asrwt>
<pdfrwt beam="1">  1        1 0.39901195E-01 0.30000000E+03</pdfrwt>
<pdfrwt beam="2">0</pdfrwt>
<totfact> 0.11858861E+02</totfact>
</mgrwt>
</event>
<event>
 6    1  0.3125838E-002  0.3000000E+03  0.7818608E-02  0.1093470E+00
          1   -1    0    0  502    0  0.00000000000E+00  0.00000000000E+00  0.18683582725E+01  0.18683582725E+01  0.00000000000E+00 0.  1.
         13   -1    0    0    0    0 -0.00000000000E+00 -0.00000000000E+00 -0.10000000000E+04  0.10000000000E+04  0.00000000000E+00 0.  1.
    9000005    2    1    2  501    0  0.16006844241E+02  0.26693510647E+02 -0.84631290339E+03  0.84689193464E+03  0.34140784009E+01 0.  0.
         13    1    3    3    0    0  0.76979364847E+01  0.15920603103E+02 -0.49423677134E+03  0.49455304061E+03  0.00000000000E+00 0.  1.
          1    1    3    3  501    0  0.83089077565E+01  0.10772907544E+02 -0.35207613205E+03  0.35233889403E+03  0.00000000000E+00 0.  1.
         21    1    1    2  502  501 -0.16006844241E+02 -0.26693510647E+02 -0.15181873833E+03  0.15497642363E+03  0.00000000000E+00 0.  1.
<mgrwt>
<rscale>  1 0.30000000E+03</rscale>
<asrwt>0</asrwt>
<pdfrwt beam="1">  1        1 0.67940444E-02 0.30000000E+03</pdfrwt>
<pdfrwt beam="2">0</pdfrwt>
<totfact> 0.12937425E+03</totfact>
</mgrwt>
</event>
<event>
 6    1  0.3125838E-002  0.3000000E+03  0.7818608E-02  0.1093470E+00
          3   -1    0    0  502    0  0.00000000000E+00  0.00000000000E+00  0.30348813660E+01  0.30348813660E+01  0.00000000000E+00 0.  1.
         13   -1    0    0    0    0 -0.00000000000E+00 -0.00000000000E+00 -0.10000000000E+04  0.10000000000E+04  0.00000000000E+00 0.  1.
    9000005    2    1    2  501    0  0.47767771869E+02 -0.22810401112E+01 -0.74698232715E+03  0.74851895021E+03  0.33254440363E+01 0.  0.
         13    1    3    3    0    0  0.32616317029E+01 -0.99482945484E+00 -0.55327983411E+02  0.55432965601E+02  0.00000000000E+00 0.  1.
          3    1    3    3  501    0  0.44506140166E+02 -0.12862106564E+01 -0.69165434374E+03  0.69308598461E+03  0.00000000000E+00 0.  1.
         21    1    1    2  502  501 -0.47767771869E+02  0.22810401112E+01 -0.24998279148E+03  0.25451593115E+03  0.00000000000E+00 0.  1.
<mgrwt>
<rscale>  1 0.30000000E+03</rscale>
<asrwt>0</asrwt>
<pdfrwt beam="1">  1        3 0.11035956E-01 0.30000000E+03</pdfrwt>
<pdfrwt beam="2">0</pdfrwt>
<totfact> 0.28039924E+02</totfact>
</mgrwt>
</event>
<event>
 6    1  0.3125838E-002  0.3000000E+03  0.7818608E-02  0.1093470E+00
          1   -1    0    0  502    0  0.00000000000E+00  0.00000000000E+00  0.72559660988E+01  0.72559660988E+01  0.00000000000E+00 0.  1.
         13   -1    0    0    0    0 -0.00000000000E+00 -0.00000000000E+00 -0.10000000000E+04  0.10000000000E+04  0.00000000000E+00 0.  1.
    9000005    2    1    2  501    0 -0.31674436666E+02 -0.58773364446E+02 -0.80901567458E+03  0.81177274859E+03  0.33249573203E+01 0.  0.
         13    1    3    3    0    0 -0.27673241145E+02 -0.51136177880E+02 -0.69030168195E+03  0.69274607834E+03  0.00000000000E+00 0.  1.
          3    1    3    3  501    0 -0.40011955209E+01 -0.76371865655E+01 -0.11871399263E+03  0.11902667025E+03  0.00000000000E+00 0.  1.
         21    1    1    2  502  501  0.31674436666E+02  0.58773364446E+02 -0.18372835933E+03  0.19548321751E+03  0.00000000000E+00 0.  1.
<mgrwt>
<rscale>  1 0.30000000E+03</rscale>
<asrwt>0</asrwt>
<pdfrwt beam="1">  1        1 0.26385387E-01 0.30000000E+03</pdfrwt>
<pdfrwt beam="2">0</pdfrwt>
<totfact> 0.20388376E+02</totfact>
</mgrwt>
</event>
<event>
 6    1  0.4377254E-002  0.3000000E+03  0.7818608E-02  0.1093470E+00
          1   -1    0    0  502    0  0.00000000000E+00  0.00000000000E+00  0.84988045189E+01  0.84988045189E+01  0.00000000000E+00 0.  1.
         13   -1    0    0    0    0 -0.00000000000E+00 -0.00000000000E+00 -0.10000000000E+04  0.10000000000E+04  0.00000000000E+00 0.  1.
    9000005    2    1    2  501    0  0.38074072427E+02  0.79205674929E+02 -0.64464576930E+03  0.65068340434E+03  0.98767848081E+01 0.  0.
         13    1    3    3    0    0  0.16907885499E+02  0.25756204007E+02 -0.20798263372E+03  0.21025231168E+03  0.00000000000E+00 0.  1.
          3    1    3    3  501    0  0.21166186928E+02  0.53449470922E+02 -0.43666313558E+03  0.44043109266E+03  0.00000000000E+00 0.  1.
         21    1    1    2  502  501 -0.38074072427E+02 -0.79205674929E+02 -0.34685542618E+03  0.35781540017E+03  0.00000000000E+00 0.  1.
<mgrwt>
<rscale>  1 0.30000000E+03</rscale>
<asrwt>0</asrwt>
<pdfrwt beam="1">  1        1 0.30904809E-01 0.30000000E+03</pdfrwt>
<pdfrwt beam="2">0</pdfrwt>
<totfact> 0.16563404E+02</totfact>
</mgrwt>
</event>
<event>
 6    1  0.3125838E-002  0.3000000E+03  0.7818608E-02  0.1093470E+00
          3   -1    0    0  502    0  0.00000000000E+00  0.00000000000E+00  0.16543527072E+01  0.16543527072E+01  0.00000000000E+00 0.  1.
         13   -1    0    0    0    0 -0.00000000000E+00 -0.00000000000E+00 -0.10000000000E+04  0.10000000000E+04  0.00000000000E+00 0.  1.
    9000005    2    1    2  501    0 -0.12276386810E+02 -0.30854492598E+02 -0.78781432046E+03  0.78852024243E+03  0.31717203170E+01 0.  0.
         13    1    3    3    0    0 -0.10346606973E+02 -0.22748636757E+02 -0.57482981522E+03  0.57537280889E+03  0.00000000000E+00 0.  1.
          3    1    3    3  501    0 -0.19297798374E+01 -0.81058558414E+01 -0.21298450524E+03  0.21314743353E+03  0.00000000000E+00 0.  1.
         21    1    1    2  502  501  0.12276386810E+02  0.30854492598E+02 -0.21053132683E+03  0.21313411028E+03  0.00000000000E+00 0.  1.
<mgrwt>
<rscale>  1 0.30000000E+03</rscale>
<asrwt>0</asrwt>
<pdfrwt beam="1">  1        3 0.60158407E-02 0.30000000E+03</pdfrwt>
<pdfrwt beam="2">0</pdfrwt>
<totfact> 0.74264553E+02</totfact>
</mgrwt>
</event>
<event>
 6    1  0.3125838E-002  0.3000000E+03  0.7818608E-02  0.1093470E+00
          3   -1    0    0  502    0  0.00000000000E+00  0.00000000000E+00  0.13312209985E+01  0.13312209985E+01  0.00000000000E+00 0.  1.
         13   -1    0    0    0    0 -0.00000000000E+00 -0.00000000000E+00 -0.10000000000E+04  0.10000000000E+04  0.00000000000E+00 0.  1.
    9000005    2    1    2  501    0  0.30947552329E+02  0.12464576164E+02 -0.30042877784E+03  0.30229458685E+03  0.33837896847E+01 0.  0.
         13    1    3    3    0    0  0.95862816067E+01  0.55686241457E+01 -0.98000442425E+02  0.98625519443E+02  0.00000000000E+00 0.  1.
          3    1    3    3  501    0  0.21361270722E+02  0.68959520180E+01 -0.20242833542E+03  0.20366906741E+03  0.00000000000E+00 0.  1.
         21    1    1    2  502  501 -0.30947552329E+02 -0.12464576164E+02 -0.69824000116E+03  0.69903663414E+03  0.00000000000E+00 0.  1.
<mgrwt>
<rscale>  1 0.30000000E+03</rscale>
<asrwt>0</asrwt>
<pdfrwt beam="1">  1        3 0.48408138E-02 0.30000000E+03</pdfrwt>
<pdfrwt beam="2">0</pdfrwt>
<totfact> 0.10400548E+03</totfact>
</mgrwt>
</event>
<event>
 6    1  0.3125838E-002  0.3000000E+03  0.7818608E-02  0.1093470E+00
          1   -1    0    0  502    0  0.00000000000E+00  0.00000000000E+00  0.20357876416E+01  0.20357876416E+01  0.00000000000E+00 0.  1.
         13   -1    0    0    0    0 -0.00000000000E+00 -0.00000000000E+00 -0.10000000000E+04  0.10000000000E+04  0.00000000000E+00 0.  1.
    9000005    2    1    2  501    0  0.30946588483E+02  0.13493857157E+01 -0.86307568900E+03  0.86363627205E+03  0.29074537570E+01 0.  0.
         13    1    3    3    0    0  0.11829914741E+02 -0.50179563091E+00 -0.30238139348E+03  0.30261312894E+03  0.00000000000E+00 0.  1.
          1    1    3    3  501    0  0.19116673742E+02  0.18511813466E+01 -0.56069429552E+03  0.56102314312E+03  0.00000000000E+00 0.  1.
         21    1    1    2  502  501 -0.30946588483E+02 -0.13493857157E+01 -0.13488852336E+03  0.13839951559E+03  0.00000000000E+00 0.  1.
<mgrwt>
<rscale>  1 0.30000000E+03</rscale>
<asrwt>0</asrwt>
<pdfrwt beam="1">  1        1 0.74028798E-02 0.30000000E+03</pdfrwt>
<pdfrwt beam="2">0</pdfrwt>
<totfact> 0.11474834E+03</totfact>
</mgrwt>
</event>
<event>
 6    1  0.3125838E-002  0.3000000E+03  0.7818608E-02  0.1093470E+00
          1   -1    0    0  502    0  0.00000000000E+00  0.00000000000E+00  0.60438358022E+01  0.60438358022E+01  0.00000000000E+00 0.  1.
         13   -1    0    0    0    0 -0.00000000000E+00 -0.00000000000E+00 -0.10000000000E+04  0.10000000000E+04  0.00000000000E+00 0.  1.
    9000005    2    1    2  501    0  0.20032409568E+02  0.30262811221E+02 -0.94178801353E+03  0.94249345327E+03  0.34802080950E+01 0.  0.
         13    1    3    3    0    0  0.85808386945E+01  0.16081269287E+02 -0.46427488032E+03  0.46463254569E+03  0.00000000000E+00 0.  1.
          1    1    3    3  501    0  0.11451570873E+02  0.14181541934E+02 -0.47751313321E+03  0.47786090758E+03  0.00000000000E+00 0.  1.
         21    1    1    2  502  501 -0.20032409568E+02 -0.30262811221E+02 -0.52168150667E+02  0.63550382533E+02  0.00000000000E+00 0.  1.
<mgrwt>
<rscale>  1 0.30000000E+03</rscale>
<asrwt>0</asrwt>
<pdfrwt beam="1">  1        1 0.21977631E-01 0.30000000E+03</pdfrwt>
<pdfrwt beam="2">0</pdfrwt>
<totfact> 0.25965628E+02</totfact>
</mgrwt>
</event>
<event>
 6    1  0.3947181E-002  0.3000000E+03  0.7818608E-02  0.1093470E+00
          1   -1    0    0  502    0  0.00000000000E+00  0.00000000000E+00  0.30674212725E+01  0.30674212725E+01  0.00000000000E+00 0.  1.
         13   -1    0    0    0    0 -0.00000000000E+00 -0.00000000000E+00 -0.10000000000E+04  0.10000000000E+04  0.00000000000E+00 0.  1.
    9000005    2    1    2  501    0  0.12308839656E+02 -0.30620576516E+02 -0.90041198515E+03  0.90106079294E+03  0.89264957679E+01 0.  0.
         13    1    3    3    0    0  0.41269036689E+01 -0.18023164519E+02 -0.40622255556E+03  0.40664312418E+03  0.00000000000E+00 0.  1.
          1    1    3    3  501    0  0.81819359871E+01 -0.12597411997E+02 -0.49418942959E+03  0.49441766876E+03  0.00000000000E+00 0.  1.
         21    1    1    2  502  501 -0.12308839656E+02  0.30620576516E+02 -0.96520593579E+02  0.10200662834E+03  0.00000000000E+00 0.  1.
<mgrwt>
<rscale>  1 0.30000000E+03</rscale>
<asrwt>0</asrwt>
<pdfrwt beam="1">  1        1 0.11154283E-01 0.30000000E+03</pdfrwt>
<pdfrwt beam="2">0</pdfrwt>
<totfact> 0.65021029E+02</totfact>
</mgrwt>
</event>
<event>
 6    1  0.3125838E-002  0.3000000E+03  0.7818608E-02  0.1093470E+00
          3   -1    0    0  502    0  0.00000000000E+00  0.00000000000E+00  0.22205627643E+01  0.22205627643E+01  0.00000000000E+00 0.  1.
         13   -1    0    0    0    0 -0.00000000000E+00 -0.00000000000E+00 -0.10000000000E+04  0.10000000000E+04  0.00000000000E+00 0.  1.
    9000005    2    1    2  501    0  0.28637417729E+02 -0.16658726298E+02 -0.85501995886E+03  0.85566721575E+03  0.31047058058E+01 0.  0.
         13    1    3    3    0    0  0.25100760990E+02 -0.15189312012E+02 -0.73218495059E+03  0.73277251946E+03  0.00000000000E+00 0.  1.
          3    1    3    3  501    0  0.35366567388E+01 -0.14694142861E+01 -0.12283500827E+03  0.12289469628E+03  0.00000000000E+00 0.  1.
         21    1    1    2  502  501 -0.28637417729E+02  0.16658726298E+02 -0.14275947837E+03  0.14655334702E+03  0.00000000000E+00 0.  1.
<mgrwt>
<rscale>  1 0.30000000E+03</rscale>
<asrwt>0</asrwt>
<pdfrwt beam="1">  1        3 0.80747907E-02 0.30000000E+03</pdfrwt>
<pdfrwt beam="2">0</pdfrwt>
<totfact> 0.46692207E+02</totfact>
</mgrwt>
</event>
<event>
 6    1  0.3125838E-002  0.3000000E+03  0.7818608E-02  0.1093470E+00
          1   -1    0    0  502    0  0.00000000000E+00  0.00000000000E+00  0.10797464916E+01  0.10797464916E+01  0.00000000000E+00 0.  1.
         13   -1    0    0    0    0 -0.00000000000E+00 -0.00000000000E+00 -0.10000000000E+04  0.10000000000E+04  0.00000000000E+00 0.  1.
    9000005    2    1    2  501    0  0.28451725566E+02  0.10639098515E+02 -0.68370194105E+03  0.68440124136E+03  0.58329984746E+01 0.  0.
         13    1    3    3    0    0  0.24263218898E+02  0.10429570125E+02 -0.61933015993E+03  0.61989299619E+03  0.00000000000E+00 0.  1.
          1    1    3    3  501    0  0.41885066681E+01  0.20952838993E+00 -0.64371781120E+02  0.64508245169E+02  0.00000000000E+00 0.  1.
         21    1    1    2  502  501 -0.28451725566E+02 -0.10639098515E+02 -0.31521831246E+03  0.31667850513E+03  0.00000000000E+00 0.  1.
<mgrwt>
<rscale>  1 0.30000000E+03</rscale>
<asrwt>0</asrwt>
<pdfrwt beam="1">  1        1 0.39263592E-02 0.30000000E+03</pdfrwt>
<pdfrwt beam="2">0</pdfrwt>
<totfact> 0.27951289E+03</totfact>
</mgrwt>
</event>
<event>
 6    1  0.3125838E-002  0.3000000E+03  0.7818608E-02  0.1093470E+00
          3   -1    0    0  502    0  0.00000000000E+00  0.00000000000E+00  0.11116589933E+01  0.11116589933E+01  0.00000000000E+00 0.  1.
         13   -1    0    0    0    0 -0.00000000000E+00 -0.00000000000E+00 -0.10000000000E+04  0.10000000000E+04  0.00000000000E+00 0.  1.
    9000005    2    1    2  501    0 -0.28566473308E+02 -0.12184298109E+02 -0.67965200594E+03  0.68036824418E+03  0.30980632859E+01 0.  0.
         13    1    3    3    0    0 -0.11417253444E+02 -0.36255379695E+01 -0.24035475956E+03  0.24065308776E+03  0.00000000000E+00 0.  1.
          3    1    3    3  501    0 -0.17149219865E+02 -0.85587601393E+01 -0.43929724637E+03  0.43971515642E+03  0.00000000000E+00 0.  1.
         21    1    1    2  502  501  0.28566473308E+02  0.12184298109E+02 -0.31923633507E+03  0.32074341481E+03  0.00000000000E+00 0.  1.
<mgrwt>
<rscale>  1 0.30000000E+03</rscale>
<asrwt>0</asrwt>
<pdfrwt beam="1">  1        3 0.40424049E-02 0.30000000E+03</pdfrwt>
<pdfrwt beam="2">0</pdfrwt>
<totfact> 0.13728472E+03</totfact>
</mgrwt>
</event>
<event>
 6    1  0.4964166E-002  0.3000000E+03  0.7818608E-02  0.1093470E+00
          1   -1    0    0  502    0  0.00000000000E+00  0.00000000000E+00  0.48242594638E+01  0.48242594638E+01  0.00000000000E+00 0.  1.
         13   -1    0    0    0    0 -0.00000000000E+00 -0.00000000000E+00 -0.10000000000E+04  0.10000000000E+04  0.00000000000E+00 0.  1.
    9000005    2    1    2  501    0 -0.18267802819E+02 -0.65765131180E+02 -0.42543813657E+03  0.43101270288E+03  0.10750669492E+02 0.  0.
         13    1    3    3    0    0 -0.62749629019E+01 -0.37250909605E+02 -0.21099231312E+03  0.21434729208E+03  0.00000000000E+00 0.  1.
          1    1    3    3  501    0 -0.11992839917E+02 -0.28514221575E+02 -0.21444582345E+03  0.21666541080E+03  0.00000000000E+00 0.  1.
         21    1    1    2  502  501  0.18267802819E+02  0.65765131180E+02 -0.56973760397E+03  0.57381155659E+03  0.00000000000E+00 0.  1.
<mgrwt>
<rscale>  1 0.30000000E+03</rscale>
<asrwt>0</asrwt>
<pdfrwt beam="1">  1        1 0.17542799E-01 0.30000000E+03</pdfrwt>
<pdfrwt beam="2">0</pdfrwt>
<totfact> 0.35102633E+02</totfact>
</mgrwt>
</event>
<event>
 6    1  0.3125838E-002  0.3000000E+03  0.7818608E-02  0.1093470E+00
          3   -1    0    0  502    0  0.00000000000E+00  0.00000000000E+00  0.45288293820E+01  0.45288293820E+01  0.00000000000E+00 0.  1.
         13   -1    0    0    0    0 -0.00000000000E+00 -0.00000000000E+00 -0.10000000000E+04  0.10000000000E+04  0.00000000000E+00 0.  1.
    9000005    2    1    2  501    0  0.18950792692E+02  0.24075537599E+02 -0.94487933157E+03  0.94538241586E+03  0.34924107904E+01 0.  0.
         13    1    3    3    0    0  0.12337369715E+02  0.16746501657E+02 -0.59323927340E+03  0.59360381697E+03  0.00000000000E+00 0.  1.
          3    1    3    3  501    0  0.66134229766E+01  0.73290359418E+01 -0.35164005817E+03  0.35177859889E+03  0.00000000000E+00 0.  1.
         21    1    1    2  502  501 -0.18950792692E+02 -0.24075537599E+02 -0.50591839045E+02  0.59146413520E+02  0.00000000000E+00 0.  1.
<mgrwt>
<rscale>  1 0.30000000E+03</rscale>
<asrwt>0</asrwt>
<pdfrwt beam="1">  1        3 0.16468505E-01 0.30000000E+03</pdfrwt>
<pdfrwt beam="2">0</pdfrwt>
<totfact> 0.14140592E+02</totfact>
</mgrwt>
</event>
<event>
 6    1  0.3125838E-002  0.3000000E+03  0.7818608E-02  0.1093470E+00
          1   -1    0    0  502    0  0.00000000000E+00  0.00000000000E+00  0.10212969201E+01  0.10212969201E+01  0.00000000000E+00 0.  1.
         13   -1    0    0    0    0 -0.00000000000E+00 -0.00000000000E+00 -0.10000000000E+04  0.10000000000E+04  0.00000000000E+00 0.  1.
    9000005    2    1    2  501    0 -0.30061543409E+02  0.57552646262E+01 -0.63946251253E+03  0.64020456957E+03  0.35730257405E+01 0.  0.
         13    1    3    3    0    0 -0.95645068349E+01  0.14840704827E+01 -0.23748714415E+03  0.23768429879E+03  0.00000000000E+00 0.  1.
          3    1    3    3  501    0 -0.20497036574E+02  0.42711941435E+01 -0.40197536838E+03  0.40252027078E+03  0.00000000000E+00 0.  1.
         21    1    1    2  502  501  0.30061543409E+02 -0.57552646262E+01 -0.35951619055E+03  0.36081672735E+03  0.00000000000E+00 0.  1.
<mgrwt>
<rscale>  1 0.30000000E+03</rscale>
<asrwt>0</asrwt>
<pdfrwt beam="1">  1        1 0.37138148E-02 0.30000000E+03</pdfrwt>
<pdfrwt beam="2">0</pdfrwt>
<totfact> 0.30228972E+03</totfact>
</mgrwt>
</event>
<event>
 6    1  0.3125838E-002  0.3000000E+03  0.7818608E-02  0.1093470E+00
          1   -1    0    0  502    0  0.00000000000E+00  0.00000000000E+00  0.17774738416E+01  0.17774738416E+01  0.00000000000E+00 0.  1.
         13   -1    0    0    0    0 -0.00000000000E+00 -0.00000000000E+00 -0.10000000000E+04  0.10000000000E+04  0.00000000000E+00 0.  1.
    9000005    2    1    2  501    0 -0.23329928052E+02 -0.28438002928E+02 -0.74217793931E+03  0.74310425140E+03  0.47780015012E+01 0.  0.
         13    1    3    3    0    0 -0.23237497611E+02 -0.26895946147E+02 -0.71323053433E+03  0.71411565472E+03  0.00000000000E+00 0.  1.
          3    1    3    3  501    0 -0.92430440384E-01 -0.15420567816E+01 -0.28947404977E+02  0.28988596679E+02  0.00000000000E+00 0.  1.
         21    1    1    2  502  501  0.23329928052E+02  0.28438002928E+02 -0.25604458685E+03  0.25867322245E+03  0.00000000000E+00 0.  1.
<mgrwt>
<rscale>  1 0.30000000E+03</rscale>
<asrwt>0</asrwt>
<pdfrwt beam="1">  1        1 0.64635549E-02 0.30000000E+03</pdfrwt>
<pdfrwt beam="2">0</pdfrwt>
<totfact> 0.13872954E+03</totfact>
</mgrwt>
</event>
<event>
 6    1  0.3125838E-002  0.3000000E+03  0.7818608E-02  0.1093470E+00
          3   -1    0    0  502    0  0.00000000000E+00  0.00000000000E+00  0.95026963443E+00  0.95026963443E+00  0.00000000000E+00 0.  1.
         13   -1    0    0    0    0 -0.00000000000E+00 -0.00000000000E+00 -0.10000000000E+04  0.10000000000E+04  0.00000000000E+00 0.  1.
    9000005    2    1    2  501    0  0.47867812967E+01  0.30360374856E+02 -0.51766776654E+03  0.51858810203E+03  0.30062300411E+01 0.  0.
         13    1    3    3    0    0  0.36684528715E+01  0.14065727344E+02 -0.23630984060E+03  0.23675650571E+03  0.00000000000E+00 0.  1.
          3    1    3    3  501    0  0.11183284252E+01  0.16294647512E+02 -0.28135792595E+03  0.28183159633E+03  0.00000000000E+00 0.  1.
         21    1    1    2  502  501 -0.47867812967E+01 -0.30360374856E+02 -0.48138196382E+03  0.48236216760E+03  0.00000000000E+00 0.  1.
<mgrwt>
<rscale>  1 0.30000000E+03</rscale>
<asrwt>0</asrwt>
<pdfrwt beam="1">  1        3 0.34555332E-02 0.30000000E+03</pdfrwt>
<pdfrwt beam="2">0</pdfrwt>
<totfact> 0.17479162E+03</totfact>
</mgrwt>
</event>
<event>
 6    1  0.3125838E-002  0.3000000E+03  0.7818608E-02  0.1093470E+00
          3   -1    0    0  502    0  0.00000000000E+00  0.00000000000E+00  0.16974975435E+01  0.16974975435E+01  0.00000000000E+00 0.  1.
         13   -1    0    0    0    0 -0.00000000000E+00 -0.00000000000E+00 -0.10000000000E+04  0.10000000000E+04  0.00000000000E+00 0.  1.
    9000005    2    1    2  501    0  0.36884837139E+02 -0.13616954302E+02 -0.35791290331E+03  0.36010202425E+03  0.50900744764E+01 0.  0.
         13    1    3    3    0    0  0.26959759590E+01 -0.74108474904E+00 -0.15953068928E+02  0.16196231080E+02  0.00000000000E+00 0.  1.
          1    1    3    3  501    0  0.34188861180E+02 -0.12875869553E+02 -0.34195983439E+03  0.34390579317E+03  0.00000000000E+00 0.  1.
         21    1    1    2  502  501 -0.36884837139E+02  0.13616954302E+02 -0.64038959914E+03  0.64159547329E+03  0.00000000000E+00 0.  1.
<mgrwt>
<rscale>  1 0.30000000E+03</rscale>
<asrwt>0</asrwt>
<pdfrwt beam="1">  1        3 0.61727314E-02 0.30000000E+03</pdfrwt>
<pdfrwt beam="2">0</pdfrwt>
<totfact> 0.71339898E+02</totfact>
</mgrwt>
</event>
<event>
 6    1  0.3125838E-002  0.3000000E+03  0.7818608E-02  0.1093470E+00
          3   -1    0    0  502    0  0.00000000000E+00  0.00000000000E+00  0.11285918497E+01  0.11285918497E+01  0.00000000000E+00 0.  1.
         13   -1    0    0    0    0 -0.00000000000E+00 -0.00000000000E+00 -0.10000000000E+04  0.10000000000E+04  0.00000000000E+00 0.  1.
    9000005    2    1    2  501    0  0.73303812478E+01 -0.31255300083E+02 -0.64377161483E+03  0.64458057056E+03  0.34046445729E+01 0.  0.
         13    1    3    3    0    0  0.65557905335E+01 -0.30424052843E+02 -0.62532137499E+03  0.62609537883E+03  0.00000000000E+00 0.  1.
          3    1    3    3  501    0  0.77459071431E+00 -0.83124724062E+00 -0.18450239844E+02  0.18485191723E+02  0.00000000000E+00 0.  1.
         21    1    1    2  502  501 -0.73303812478E+01  0.31255300083E+02 -0.35509979332E+03  0.35654802129E+03  0.00000000000E+00 0.  1.
<mgrwt>
<rscale>  1 0.30000000E+03</rscale>
<asrwt>0</asrwt>
<pdfrwt beam="1">  1        3 0.41039790E-02 0.30000000E+03</pdfrwt>
<pdfrwt beam="2">0</pdfrwt>
<totfact> 0.13413362E+03</totfact>
</mgrwt>
</event>
<event>
 6    1  0.3125838E-002  0.3000000E+03  0.7818608E-02  0.1093470E+00
          3   -1    0    0  502    0  0.00000000000E+00  0.00000000000E+00  0.35117180327E+01  0.35117180327E+01  0.00000000000E+00 0.  1.
         13   -1    0    0    0    0 -0.00000000000E+00 -0.00000000000E+00 -0.10000000000E+04  0.10000000000E+04  0.00000000000E+00 0.  1.
    9000005    2    1    2  501    0 -0.16862925567E+02 -0.25804132525E+02 -0.92670995750E+03  0.92722786601E+03  0.31557345428E+01 0.  0.
         13    1    3    3    0    0 -0.11626569440E+01 -0.19642305961E+01 -0.97515948567E+02  0.97542658350E+02  0.00000000000E+00 0.  1.
          1    1    3    3  501    0 -0.15700268623E+02 -0.23839901929E+02 -0.82919400893E+03  0.82968520766E+03  0.00000000000E+00 0.  1.
         21    1    1    2  502  501  0.16862925567E+02  0.25804132525E+02 -0.69778324467E+02  0.76283852023E+02  0.00000000000E+00 0.  1.
<mgrwt>
<rscale>  1 0.30000000E+03</rscale>
<asrwt>0</asrwt>
<pdfrwt beam="1">  1        3 0.12769911E-01 0.30000000E+03</pdfrwt>
<pdfrwt beam="2">0</pdfrwt>
<totfact> 0.21929943E+02</totfact>
</mgrwt>
</event>
<event>
 6    1  0.3125838E-002  0.3000000E+03  0.7818608E-02  0.1093470E+00
          3   -1    0    0  502    0  0.00000000000E+00  0.00000000000E+00  0.20245582651E+01  0.20245582651E+01  0.00000000000E+00 0.  1.
         13   -1    0    0    0    0 -0.00000000000E+00 -0.00000000000E+00 -0.10000000000E+04  0.10000000000E+04  0.00000000000E+00 0.  1.
    9000005    2    1    2  501    0  0.32230506539E+02 -0.10263915518E+02 -0.82899411129E+03  0.82969103409E+03  0.34383125357E+01 0.  0.
         13    1    3    3    0    0  0.21189804910E+02 -0.65654688697E+01 -0.58199950710E+03  0.58242213169E+03  0.00000000000E+00 0.  1.
          3    1    3    3  501    0  0.11040701628E+02 -0.36984466484E+01 -0.24699460419E+03  0.24726890241E+03  0.00000000000E+00 0.  1.
         21    1    1    2  502  501 -0.32230506539E+02  0.10263915518E+02 -0.16898133045E+03  0.17233352417E+03  0.00000000000E+00 0.  1.
<mgrwt>
<rscale>  1 0.30000000E+03</rscale>
<asrwt>0</asrwt>
<pdfrwt beam="1">  1        3 0.73620456E-02 0.30000000E+03</pdfrwt>
<pdfrwt beam="2">0</pdfrwt>
<totfact> 0.54088826E+02</totfact>
</mgrwt>
</event>
<event>
 6    1  0.3125838E-002  0.3000000E+03  0.7818608E-02  0.1093470E+00
          1   -1    0    0  502    0  0.00000000000E+00  0.00000000000E+00  0.10740683168E+02  0.10740683168E+02  0.00000000000E+00 0.  1.
         13   -1    0    0    0    0 -0.00000000000E+00 -0.00000000000E+00 -0.10000000000E+04  0.10000000000E+04  0.00000000000E+00 0.  1.
    9000005    2    1    2  501    0 -0.32804347985E+02  0.95514838780E+02 -0.60764116092E+03  0.61598553552E+03  0.33451233033E+01 0.  0.
         13    1    3    3    0    0 -0.12731971913E+02  0.41585867889E+02 -0.26626757714E+03  0.26979605289E+03  0.00000000000E+00 0.  1.
          3    1    3    3  501    0 -0.20072376071E+02  0.53928970891E+02 -0.34137358378E+03  0.34618948263E+03  0.00000000000E+00 0.  1.
         21    1    1    2  502  501  0.32804347985E+02 -0.95514838780E+02 -0.38161815591E+03  0.39475514765E+03  0.00000000000E+00 0.  1.
<mgrwt>
<rscale>  1 0.30000000E+03</rscale>
<asrwt>0</asrwt>
<pdfrwt beam="1">  1        1 0.39057112E-01 0.30000000E+03</pdfrwt>
<pdfrwt beam="2">0</pdfrwt>
<totfact> 0.12194698E+02</totfact>
</mgrwt>
</event>
<event>
 6    1  0.3125838E-002  0.3000000E+03  0.7818608E-02  0.1093470E+00
          1   -1    0    0  502    0  0.00000000000E+00  0.00000000000E+00  0.12720268421E+01  0.12720268421E+01  0.00000000000E+00 0.  1.
         13   -1    0    0    0    0 -0.00000000000E+00 -0.00000000000E+00 -0.10000000000E+04  0.10000000000E+04  0.00000000000E+00 0.  1.
    9000005    2    1    2  501    0  0.11097541181E+02  0.29495847224E+02 -0.73237408372E+03  0.73306025446E+03  0.35182020730E+01 0.  0.
         13    1    3    3    0    0  0.49840670128E+01  0.91752978450E+01 -0.22287473763E+03  0.22311919615E+03  0.00000000000E+00 0.  1.
          3    1    3    3  501    0  0.61134741683E+01  0.20320549379E+02 -0.50949934609E+03  0.50994105832E+03  0.00000000000E+00 0.  1.
         21    1    1    2  502  501 -0.11097541181E+02 -0.29495847224E+02 -0.26635388944E+03  0.26821177238E+03  0.00000000000E+00 0.  1.
<mgrwt>
<rscale>  1 0.30000000E+03</rscale>
<asrwt>0</asrwt>
<pdfrwt beam="1">  1        1 0.46255619E-02 0.30000000E+03</pdfrwt>
<pdfrwt beam="2">0</pdfrwt>
<totfact> 0.22192568E+03</totfact>
</mgrwt>
</event>
<event>
 6    1  0.3125838E-002  0.3000000E+03  0.7818608E-02  0.1093470E+00
          3   -1    0    0  502    0  0.00000000000E+00  0.00000000000E+00  0.13523958277E+01  0.13523958277E+01  0.00000000000E+00 0.  1.
         13   -1    0    0    0    0 -0.00000000000E+00 -0.00000000000E+00 -0.10000000000E+04  0.10000000000E+04  0.00000000000E+00 0.  1.
    9000005    2    1    2  501    0  0.34112207421E+02 -0.83760758753E+01 -0.35512472739E+03  0.35687160148E+03  0.31569916239E+01 0.  0.
         13    1    3    3    0    0  0.33711893903E+02 -0.83537341295E+01 -0.35331572152E+03  0.35501869773E+03  0.00000000000E+00 0.  1.
          3    1    3    3  501    0  0.40031351859E+00 -0.22341745860E-01 -0.18090058703E+01  0.18529037497E+01  0.00000000000E+00 0.  1.
         21    1    1    2  502  501 -0.34112207421E+02  0.83760758753E+01 -0.64352287678E+03  0.64448079435E+03  0.00000000000E+00 0.  1.
<mgrwt>
<rscale>  1 0.30000000E+03</rscale>
<asrwt>0</asrwt>
<pdfrwt beam="1">  1        3 0.49178134E-02 0.30000000E+03</pdfrwt>
<pdfrwt beam="2">0</pdfrwt>
<totfact> 0.10150318E+03</totfact>
</mgrwt>
</event>
<event>
 6    1  0.3125838E-002  0.3000000E+03  0.7818608E-02  0.1093470E+00
          1   -1    0    0  502    0  0.00000000000E+00  0.00000000000E+00  0.44507569725E+02  0.44507569725E+02  0.00000000000E+00 0.  1.
         13   -1    0    0    0    0 -0.00000000000E+00 -0.00000000000E+00 -0.10000000000E+04  0.10000000000E+04  0.00000000000E+00 0.  1.
    9000005    2    1    2  501    0  0.93316012149E+02  0.15771435979E+02 -0.94449497722E+03  0.94923133822E+03  0.35714357561E+01 0.  0.
         13    1    3    3    0    0  0.29098929733E+02  0.54084749122E+01 -0.31146423802E+03  0.31286733751E+03  0.00000000000E+00 0.  1.
          1    1    3    3  501    0  0.64217082416E+02  0.10362961066E+02 -0.63303073920E+03  0.63636400071E+03  0.00000000000E+00 0.  1.
         21    1    1    2  502  501 -0.93316012149E+02 -0.15771435979E+02 -0.10997453058E+02  0.95276231506E+02  0.00000000000E+00 0.  1.
<mgrwt>
<rscale>  1 0.30000000E+03</rscale>
<asrwt>0</asrwt>
<pdfrwt beam="1">  1        1 0.16184605E+00 0.30000000E+03</pdfrwt>
<pdfrwt beam="2">0</pdfrwt>
<totfact> 0.15669224E+01</totfact>
</mgrwt>
</event>
<event>
 6    1  0.3125838E-002  0.3000000E+03  0.7818608E-02  0.1093470E+00
          1   -1    0    0  502    0  0.00000000000E+00  0.00000000000E+00  0.11340645120E+01  0.11340645120E+01  0.00000000000E+00 0.  1.
         13   -1    0    0    0    0 -0.00000000000E+00 -0.00000000000E+00 -0.10000000000E+04  0.10000000000E+04  0.00000000000E+00 0.  1.
    9000005    2    1    2  501    0  0.32371638411E+02 -0.74022010110E+00 -0.63383276848E+03  0.63466758049E+03  0.32385830678E+01 0.  0.
         13    1    3    3    0    0  0.95456116544E+01  0.29332304355E+00 -0.16092420847E+03  0.16120733734E+03  0.00000000000E+00 0.  1.
          1    1    3    3  501    0  0.22826026757E+02 -0.10335431446E+01 -0.47290856001E+03  0.47346024315E+03  0.00000000000E+00 0.  1.
         21    1    1    2  502  501 -0.32371638411E+02  0.74022010110E+00 -0.36503316701E+03  0.36646648403E+03  0.00000000000E+00 0.  1.
<mgrwt>
<rscale>  1 0.30000000E+03</rscale>
<asrwt>0</asrwt>
<pdfrwt beam="1">  1        1 0.41238796E-02 0.30000000E+03</pdfrwt>
<pdfrwt beam="2">0</pdfrwt>
<totfact> 0.26084944E+03</totfact>
</mgrwt>
</event>
<event>
 6    1  0.3125838E-002  0.3000000E+03  0.7818608E-02  0.1093470E+00
          1   -1    0    0  502    0  0.00000000000E+00  0.00000000000E+00  0.98915770207E+01  0.98915770207E+01  0.00000000000E+00 0.  1.
         13   -1    0    0    0    0 -0.00000000000E+00 -0.00000000000E+00 -0.10000000000E+04  0.10000000000E+04  0.00000000000E+00 0.  1.
    9000005    2    1    2  501    0 -0.17880414908E+02  0.69256143569E+02 -0.84585376788E+03  0.84887751498E+03  0.28837700992E+01 0.  0.
         13    1    3    3    0    0 -0.10783448117E+01  0.22460478773E+01 -0.32045414715E+02  0.32142124430E+02  0.00000000000E+00 0.  1.
          1    1    3    3  501    0 -0.16802070096E+02  0.67010095691E+02 -0.81380835317E+03  0.81673539055E+03  0.00000000000E+00 0.  1.
         21    1    1    2  502  501  0.17880414908E+02 -0.69256143569E+02 -0.14425465509E+03  0.16101406204E+03  0.00000000000E+00 0.  1.
<mgrwt>
<rscale>  1 0.30000000E+03</rscale>
<asrwt>0</asrwt>
<pdfrwt beam="1">  1        1 0.35969447E-01 0.30000000E+03</pdfrwt>
<pdfrwt beam="2">0</pdfrwt>
<totfact> 0.13578789E+02</totfact>
</mgrwt>
</event>
<event>
 6    1  0.3125838E-002  0.3000000E+03  0.7818608E-02  0.1093470E+00
          1   -1    0    0  502    0  0.00000000000E+00  0.00000000000E+00  0.14719597075E+01  0.14719597075E+01  0.00000000000E+00 0.  1.
         13   -1    0    0    0    0 -0.00000000000E+00 -0.00000000000E+00 -0.10000000000E+04  0.10000000000E+04  0.00000000000E+00 0.  1.
    9000005    2    1    2  501    0  0.29215699497E+02  0.22230268957E+02 -0.35739030785E+03  0.35928403245E+03  0.30727630341E+01 0.  0.
         13    1    3    3    0    0  0.26077055285E+02  0.18576838906E+02 -0.30840620446E+03  0.31006370104E+03  0.00000000000E+00 0.  1.
          3    1    3    3  501    0  0.31386442121E+01  0.36534300519E+01 -0.48984103394E+02  0.49220331408E+02  0.00000000000E+00 0.  1.
         21    1    1    2  502  501 -0.29215699497E+02 -0.22230268957E+02 -0.64113773244E+03  0.64218792726E+03  0.00000000000E+00 0.  1.
<mgrwt>
<rscale>  1 0.30000000E+03</rscale>
<asrwt>0</asrwt>
<pdfrwt beam="1">  1        1 0.53525920E-02 0.30000000E+03</pdfrwt>
<pdfrwt beam="2">0</pdfrwt>
<totfact> 0.18075432E+03</totfact>
</mgrwt>
</event>
<event>
 6    1  0.4945449E-002  0.3000000E+03  0.7818608E-02  0.1093470E+00
          1   -1    0    0  502    0  0.00000000000E+00  0.00000000000E+00  0.11495866941E+02  0.11495866941E+02  0.00000000000E+00 0.  1.
         13   -1    0    0    0    0 -0.00000000000E+00 -0.00000000000E+00 -0.10000000000E+04  0.10000000000E+04  0.00000000000E+00 0.  1.
    9000005    2    1    2  501    0 -0.10248695823E+03 -0.25457884788E+02 -0.41038612773E+03  0.42381218622E+03  0.69508881500E+01 0.  0.
         13    1    3    3    0    0 -0.73635239611E+02 -0.15643779870E+02 -0.28471742864E+03  0.29450108749E+03  0.00000000000E+00 0.  1.
          1    1    3    3  501    0 -0.28851718619E+02 -0.98141049182E+01 -0.12566869909E+03  0.12931109873E+03  0.00000000000E+00 0.  1.
         21    1    1    2  502  501  0.10248695823E+03  0.25457884788E+02 -0.57811800533E+03  0.58768368073E+03  0.00000000000E+00 0.  1.
<mgrwt>
<rscale>  1 0.30000000E+03</rscale>
<asrwt>0</asrwt>
<pdfrwt beam="1">  1        1 0.41803241E-01 0.30000000E+03</pdfrwt>
<pdfrwt beam="2">0</pdfrwt>
<totfact> 0.11158210E+02</totfact>
</mgrwt>
</event>
<event>
 6    1  0.3125838E-002  0.3000000E+03  0.7818608E-02  0.1093470E+00
          1   -1    0    0  502    0  0.00000000000E+00  0.00000000000E+00  0.33190743100E+02  0.33190743100E+02  0.00000000000E+00 0.  1.
         13   -1    0    0    0    0 -0.00000000000E+00 -0.00000000000E+00 -0.10000000000E+04  0.10000000000E+04  0.00000000000E+00 0.  1.
    9000005    2    1    2  501    0  0.50110714644E+02 -0.67207641097E+02 -0.94204825773E+03  0.94577759864E+03  0.35207192470E+01 0.  0.
         13    1    3    3    0    0  0.39626387570E+02 -0.51195519312E+02 -0.73715042319E+03  0.73998782301E+03  0.00000000000E+00 0.  1.
          3    1    3    3  501    0  0.10484327074E+02 -0.16012121785E+02 -0.20489783453E+03  0.20578977563E+03  0.00000000000E+00 0.  1.
         21    1    1    2  502  501 -0.50110714644E+02  0.67207641097E+02 -0.24760999175E+02  0.87413144458E+02  0.00000000000E+00 0.  1.
<mgrwt>
<rscale>  1 0.30000000E+03</rscale>
<asrwt>0</asrwt>
<pdfrwt beam="1">  1        1 0.12069387E+00 0.30000000E+03</pdfrwt>
<pdfrwt beam="2">0</pdfrwt>
<totfact> 0.25762595E+01</totfact>
</mgrwt>
</event>
<event>
 6    1  0.3125838E-002  0.3000000E+03  0.7818608E-02  0.1093470E+00
          3   -1    0    0  502    0  0.00000000000E+00  0.00000000000E+00  0.20117120866E+01  0.20117120866E+01  0.00000000000E+00 0.  1.
         13   -1    0    0    0    0 -0.00000000000E+00 -0.00000000000E+00 -0.10000000000E+04  0.10000000000E+04  0.00000000000E+00 0.  1.
    9000005    2    1    2  501    0 -0.41394452537E+02  0.11648777138E+02 -0.36057659750E+03  0.36315111870E+03  0.37493515454E+01 0.  0.
         13    1    3    3    0    0 -0.15473424401E+01 -0.49388996939E-02 -0.90381326006E+01  0.91696310682E+01  0.00000000000E+00 0.  1.
          1    1    3    3  501    0 -0.39847110097E+02  0.11653716038E+02 -0.35153846490E+03  0.35398148763E+03  0.00000000000E+00 0.  1.
         21    1    1    2  502  501  0.41394452537E+02 -0.11648777138E+02 -0.63741169041E+03  0.63886059339E+03  0.00000000000E+00 0.  1.
<mgrwt>
<rscale>  1 0.30000000E+03</rscale>
<asrwt>0</asrwt>
<pdfrwt beam="1">  1        3 0.73153321E-02 0.30000000E+03</pdfrwt>
<pdfrwt beam="2">0</pdfrwt>
<totfact> 0.54636978E+02</totfact>
</mgrwt>
</event>
<event>
 6    1  0.3125838E-002  0.3000000E+03  0.7818608E-02  0.1093470E+00
          3   -1    0    0  502    0  0.00000000000E+00  0.00000000000E+00  0.73339174380E+01  0.73339174380E+01  0.00000000000E+00 0.  1.
         13   -1    0    0    0    0 -0.00000000000E+00 -0.00000000000E+00 -0.10000000000E+04  0.10000000000E+04  0.00000000000E+00 0.  1.
    9000005    2    1    2  501    0  0.25144273149E+02  0.74737152940E+02 -0.30047312225E+03  0.31066400219E+03  0.31856808151E+01 0.  0.
         13    1    3    3    0    0  0.30285940264E+01  0.75028178774E+01 -0.27661572405E+02  0.28820604535E+02  0.00000000000E+00 0.  1.
          1    1    3    3  501    0  0.22115679123E+02  0.67234335062E+02 -0.27281154984E+03  0.28184339766E+03  0.00000000000E+00 0.  1.
         21    1    1    2  502  501 -0.25144273149E+02 -0.74737152940E+02 -0.69219296031E+03  0.69666991525E+03  0.00000000000E+00 0.  1.
<mgrwt>
<rscale>  1 0.30000000E+03</rscale>
<asrwt>0</asrwt>
<pdfrwt beam="1">  1        3 0.26668847E-01 0.30000000E+03</pdfrwt>
<pdfrwt beam="2">0</pdfrwt>
<totfact> 0.58439563E+01</totfact>
</mgrwt>
</event>
<event>
 6    1  0.3125838E-002  0.3000000E+03  0.7818608E-02  0.1093470E+00
          1   -1    0    0  502    0  0.00000000000E+00  0.00000000000E+00  0.44779306260E+01  0.44779306260E+01  0.00000000000E+00 0.  1.
         13   -1    0    0    0    0 -0.00000000000E+00 -0.00000000000E+00 -0.10000000000E+04  0.10000000000E+04  0.00000000000E+00 0.  1.
    9000005    2    1    2  501    0 -0.29076006859E+02 -0.34896573363E+02 -0.86648362075E+03  0.86767841955E+03  0.29647457893E+01 0.  0.
         13    1    3    3    0    0 -0.22749916746E+02 -0.25609336511E+02 -0.63930695085E+03  0.64022400317E+03  0.00000000000E+00 0.  1.
          1    1    3    3  501    0 -0.63260901130E+01 -0.92872368526E+01 -0.22717666990E+03  0.22745441638E+03  0.00000000000E+00 0.  1.
         21    1    1    2  502  501  0.29076006859E+02  0.34896573363E+02 -0.12903844863E+03  0.13679951108E+03  0.00000000000E+00 0.  1.
<mgrwt>
<rscale>  1 0.30000000E+03</rscale>
<asrwt>0</asrwt>
<pdfrwt beam="1">  1        1 0.16283418E-01 0.30000000E+03</pdfrwt>
<pdfrwt beam="2">0</pdfrwt>
<totfact> 0.38813450E+02</totfact>
</mgrwt>
</event>
<event>
 6    1  0.3125838E-002  0.3000000E+03  0.7818608E-02  0.1093470E+00
          1   -1    0    0  502    0  0.00000000000E+00  0.00000000000E+00  0.51716023522E+01  0.51716023522E+01  0.00000000000E+00 0.  1.
         13   -1    0    0    0    0 -0.00000000000E+00 -0.00000000000E+00 -0.10000000000E+04  0.10000000000E+04  0.00000000000E+00 0.  1.
    9000005    2    1    2  501    0  0.56583628362E+02 -0.58901055673E+01 -0.80421924299E+03  0.80625390535E+03  0.63536407486E+01 0.  0.
         13    1    3    3    0    0  0.97819189913E+01 -0.16511420619E+01 -0.11027660676E+03  0.11072191385E+03  0.00000000000E+00 0.  1.
          3    1    3    3  501    0  0.46801709371E+02 -0.42389635054E+01 -0.69394263623E+03  0.69553199150E+03  0.00000000000E+00 0.  1.
         21    1    1    2  502  501 -0.56583628362E+02  0.58901055673E+01 -0.19060915466E+03  0.19891769701E+03  0.00000000000E+00 0.  1.
<mgrwt>
<rscale>  1 0.30000000E+03</rscale>
<asrwt>0</asrwt>
<pdfrwt beam="1">  1        1 0.18805866E-01 0.30000000E+03</pdfrwt>
<pdfrwt beam="2">0</pdfrwt>
<totfact> 0.31972055E+02</totfact>
</mgrwt>
</event>
<event>
 6    1  0.3125838E-002  0.3000000E+03  0.7818608E-02  0.1093470E+00
          1   -1    0    0  502    0  0.00000000000E+00  0.00000000000E+00  0.20455655327E+01  0.20455655327E+01  0.00000000000E+00 0.  1.
         13   -1    0    0    0    0 -0.00000000000E+00 -0.00000000000E+00 -0.10000000000E+04  0.10000000000E+04  0.00000000000E+00 0.  1.
    9000005    2    1    2  501    0 -0.30711668826E+01  0.33316052665E+02 -0.83572976692E+03  0.83640669874E+03  0.35399083561E+01 0.  0.
         13    1    3    3    0    0  0.53660144291E+00  0.31655905991E+01 -0.65614696335E+02  0.65693205738E+02  0.00000000000E+00 0.  1.
          1    1    3    3  501    0 -0.36077683255E+01  0.30150462066E+02 -0.77011507058E+03  0.77071349300E+03  0.00000000000E+00 0.  1.
         21    1    1    2  502  501  0.30711668826E+01 -0.33316052665E+02 -0.16222466755E+03  0.16563886679E+03  0.00000000000E+00 0.  1.
<mgrwt>
<rscale>  1 0.30000000E+03</rscale>
<asrwt>0</asrwt>
<pdfrwt beam="1">  1        1 0.74384358E-02 0.30000000E+03</pdfrwt>
<pdfrwt beam="2">0</pdfrwt>
<totfact> 0.11398321E+03</totfact>
</mgrwt>
</event>
<event>
 6    1  0.3125838E-002  0.3000000E+03  0.7818608E-02  0.1093470E+00
          1   -1    0    0  502    0  0.00000000000E+00  0.00000000000E+00  0.12444148639E+01  0.12444148639E+01  0.00000000000E+00 0.  1.
         13   -1    0    0    0    0 -0.00000000000E+00 -0.00000000000E+00 -0.10000000000E+04  0.10000000000E+04  0.00000000000E+00 0.  1.
    9000005    2    1    2  501    0 -0.32538397139E+02  0.25244288534E+01 -0.32046293156E+03  0.32216706733E+03  0.54780236225E+01 0.  0.
         13    1    3    3    0    0 -0.13270081597E+02  0.37156515839E+01 -0.13018270530E+03  0.13091003740E+03  0.00000000000E+00 0.  1.
          3    1    3    3  501    0 -0.19268315542E+02 -0.11912227305E+01 -0.19028022626E+03  0.19125702994E+03  0.00000000000E+00 0.  1.
         21    1    1    2  502  501  0.32538397139E+02 -0.25244288534E+01 -0.67829265358E+03  0.67907734753E+03  0.00000000000E+00 0.  1.
<mgrwt>
<rscale>  1 0.30000000E+03</rscale>
<asrwt>0</asrwt>
<pdfrwt beam="1">  1        1 0.45251545E-02 0.30000000E+03</pdfrwt>
<pdfrwt beam="2">0</pdfrwt>
<totfact> 0.22888573E+03</totfact>
</mgrwt>
</event>
<event>
 6    1  0.3125838E-002  0.3000000E+03  0.7818608E-02  0.1093470E+00
          3   -1    0    0  502    0  0.00000000000E+00  0.00000000000E+00  0.34652037135E+01  0.34652037135E+01  0.00000000000E+00 0.  1.
         13   -1    0    0    0    0 -0.00000000000E+00 -0.00000000000E+00 -0.10000000000E+04  0.10000000000E+04  0.00000000000E+00 0.  1.
    9000005    2    1    2  501    0  0.32798622192E+02 -0.45658393578E+02 -0.64577894417E+03  0.64823273573E+03  0.38466096421E+01 0.  0.
         13    1    3    3    0    0  0.30371577827E+02 -0.43655977350E+02 -0.60539983890E+03  0.60773122516E+03  0.00000000000E+00 0.  1.
          1    1    3    3  501    0  0.24270443648E+01 -0.20024162276E+01 -0.40379105275E+02  0.40501510563E+02  0.00000000000E+00 0.  1.
         21    1    1    2  502  501 -0.32798622192E+02  0.45658393578E+02 -0.35075585211E+03  0.35523246799E+03  0.00000000000E+00 0.  1.
<mgrwt>
<rscale>  1 0.30000000E+03</rscale>
<asrwt>0</asrwt>
<pdfrwt beam="1">  1        3 0.12600767E-01 0.30000000E+03</pdfrwt>
<pdfrwt beam="2">0</pdfrwt>
<totfact> 0.22431255E+02</totfact>
</mgrwt>
</event>
<event>
 6    1  0.3125838E-002  0.3000000E+03  0.7818608E-02  0.1093470E+00
          1   -1    0    0  502    0  0.00000000000E+00  0.00000000000E+00  0.11975626195E+01  0.11975626195E+01  0.00000000000E+00 0.  1.
         13   -1    0    0    0    0 -0.00000000000E+00 -0.00000000000E+00 -0.10000000000E+04  0.10000000000E+04  0.00000000000E+00 0.  1.
    9000005    2    1    2  501    0 -0.65955845226E+01  0.32949066032E+02 -0.58982341847E+03  0.59084042475E+03  0.84616701152E+01 0.  0.
         13    1    3    3    0    0 -0.79951662392E+01  0.27107138203E+02 -0.51578859135E+03  0.51656228142E+03  0.00000000000E+00 0.  1.
          3    1    3    3  501    0  0.13995817167E+01  0.58419278293E+01 -0.74034827119E+02  0.74278143328E+02  0.00000000000E+00 0.  1.
         21    1    1    2  502  501  0.65955845226E+01 -0.32949066032E+02 -0.40897901891E+03  0.41035713787E+03  0.00000000000E+00 0.  1.
<mgrwt>
<rscale>  1 0.30000000E+03</rscale>
<asrwt>0</asrwt>
<pdfrwt beam="1">  1        1 0.43547823E-02 0.30000000E+03</pdfrwt>
<pdfrwt beam="2">0</pdfrwt>
<totfact> 0.24158951E+03</totfact>
</mgrwt>
</event>
<event>
 6    1  0.3125838E-002  0.3000000E+03  0.7818608E-02  0.1093470E+00
          1   -1    0    0  502    0  0.00000000000E+00  0.00000000000E+00  0.32415381225E+01  0.32415381225E+01  0.00000000000E+00 0.  1.
         13   -1    0    0    0    0 -0.00000000000E+00 -0.00000000000E+00 -0.10000000000E+04  0.10000000000E+04  0.00000000000E+00 0.  1.
    9000005    2    1    2  501    0  0.16635726403E+02 -0.35008817102E+02 -0.86563470754E+03  0.86650893916E+03  0.34539942360E+01 0.  0.
         13    1    3    3    0    0  0.12158939648E+02 -0.22171685270E+02 -0.54605503029E+03  0.54664021033E+03  0.00000000000E+00 0.  1.
          3    1    3    3  501    0  0.44767867544E+01 -0.12837131832E+02 -0.31957967725E+03  0.31986872883E+03  0.00000000000E+00 0.  1.
         21    1    1    2  502  501 -0.16635726403E+02  0.35008817102E+02 -0.13112375433E+03  0.13673259896E+03  0.00000000000E+00 0.  1.
<mgrwt>
<rscale>  1 0.30000000E+03</rscale>
<asrwt>0</asrwt>
<pdfrwt beam="1">  1        1 0.11787436E-01 0.30000000E+03</pdfrwt>
<pdfrwt beam="2">0</pdfrwt>
<totfact> 0.60276317E+02</totfact>
</mgrwt>
</event>
<event>
 6    1  0.3125838E-002  0.3000000E+03  0.7818608E-02  0.1093470E+00
          1   -1    0    0  502    0  0.00000000000E+00  0.00000000000E+00  0.20624306515E+02  0.20624306515E+02  0.00000000000E+00 0.  1.
         13   -1    0    0    0    0 -0.00000000000E+00 -0.00000000000E+00 -0.10000000000E+04  0.10000000000E+04  0.00000000000E+00 0.  1.
    9000005    2    1    2  501    0  0.65670759462E+02 -0.34426439932E+02 -0.92670356738E+03  0.92967277391E+03  0.37598325726E+01 0.  0.
         13    1    3    3    0    0  0.14115881817E+02 -0.61995311986E+01 -0.17922463813E+03  0.17988652873E+03  0.00000000000E+00 0.  1.
          1    1    3    3  501    0  0.51554877646E+02 -0.28226908733E+02 -0.74747892925E+03  0.74978624518E+03  0.00000000000E+00 0.  1.
         21    1    1    2  502  501 -0.65670759462E+02  0.34426439932E+02 -0.52672126107E+02  0.90951532606E+02  0.00000000000E+00 0.  1.
<mgrwt>
<rscale>  1 0.30000000E+03</rscale>
<asrwt>0</asrwt>
<pdfrwt beam="1">  1        1 0.74997636E-01 0.30000000E+03</pdfrwt>
<pdfrwt beam="2">0</pdfrwt>
<totfact> 0.51327465E+01</totfact>
</mgrwt>
</event>
<event>
 6    1  0.3125838E-002  0.3000000E+03  0.7818608E-02  0.1093470E+00
          3   -1    0    0  502    0  0.00000000000E+00  0.00000000000E+00  0.15861271811E+01  0.15861271811E+01  0.00000000000E+00 0.  1.
         13   -1    0    0    0    0 -0.00000000000E+00 -0.00000000000E+00 -0.10000000000E+04  0.10000000000E+04  0.00000000000E+00 0.  1.
    9000005    2    1    2  501    0  0.68410015992E+01  0.31091897731E+02 -0.20062206466E+03  0.20315937752E+03  0.33188008166E+01 0.  0.
         13    1    3    3    0    0  0.46845914834E+01  0.19899777525E+02 -0.11858935189E+03  0.12033860945E+03  0.00000000000E+00 0.  1.
          3    1    3    3  501    0  0.21564101158E+01  0.11192120206E+02 -0.82032712767E+02  0.82820768067E+02  0.00000000000E+00 0.  1.
         21    1    1    2  502  501 -0.68410015992E+01 -0.31091897731E+02 -0.79779180816E+03  0.79842674966E+03  0.00000000000E+00 0.  1.
<mgrwt>
<rscale>  1 0.30000000E+03</rscale>
<asrwt>0</asrwt>
<pdfrwt beam="1">  1        3 0.57677474E-02 0.30000000E+03</pdfrwt>
<pdfrwt beam="2">0</pdfrwt>
<totfact> 0.79303151E+02</totfact>
</mgrwt>
</event>
<event>
 6    1  0.3125838E-002  0.3000000E+03  0.7818608E-02  0.1093470E+00
          1   -1    0    0  502    0  0.00000000000E+00  0.00000000000E+00  0.42746420926E+01  0.42746420926E+01  0.00000000000E+00 0.  1.
         13   -1    0    0    0    0 -0.00000000000E+00 -0.00000000000E+00 -0.10000000000E+04  0.10000000000E+04  0.00000000000E+00 0.  1.
    9000005    2    1    2  501    0  0.61772672898E+02  0.10009012383E+02 -0.64214416427E+03  0.64519846085E+03  0.39853135247E+01 0.  0.
         13    1    3    3    0    0  0.44537686626E+02  0.85562644842E+01 -0.47688042067E+03  0.47903209790E+03  0.00000000000E+00 0.  1.
          1    1    3    3  501    0  0.17234986272E+02  0.14527478989E+01 -0.16526374360E+03  0.16616636295E+03  0.00000000000E+00 0.  1.
         21    1    1    2  502  501 -0.61772672898E+02 -0.10009012383E+02 -0.35358119363E+03  0.35907618125E+03  0.00000000000E+00 0.  1.
<mgrwt>
<rscale>  1 0.30000000E+03</rscale>
<asrwt>0</asrwt>
<pdfrwt beam="1">  1        1 0.15544186E-01 0.30000000E+03</pdfrwt>
<pdfrwt beam="2">0</pdfrwt>
<totfact> 0.41333245E+02</totfact>
</mgrwt>
</event>
<event>
 6    1  0.3125838E-002  0.3000000E+03  0.7818608E-02  0.1093470E+00
          3   -1    0    0  502    0  0.00000000000E+00  0.00000000000E+00  0.30343860305E+01  0.30343860305E+01  0.00000000000E+00 0.  1.
         13   -1    0    0    0    0 -0.00000000000E+00 -0.00000000000E+00 -0.10000000000E+04  0.10000000000E+04  0.00000000000E+00 0.  1.
    9000005    2    1    2  501    0 -0.24499275004E+02  0.34783787293E+02 -0.81679249650E+03  0.81790610998E+03  0.32087493416E+01 0.  0.
         13    1    3    3    0    0 -0.32127618445E+01  0.66585213810E+01 -0.13957490183E+03  0.13977056545E+03  0.00000000000E+00 0.  1.
          1    1    3    3  501    0 -0.21286513159E+02  0.28125265912E+02 -0.67721759467E+03  0.67813554453E+03  0.00000000000E+00 0.  1.
         21    1    1    2  502  501  0.24499275004E+02 -0.34783787293E+02 -0.18017311747E+03  0.18512827605E+03  0.00000000000E+00 0.  1.
<mgrwt>
<rscale>  1 0.30000000E+03</rscale>
<asrwt>0</asrwt>
<pdfrwt beam="1">  1        3 0.11034154E-01 0.30000000E+03</pdfrwt>
<pdfrwt beam="2">0</pdfrwt>
<totfact> 0.28047574E+02</totfact>
</mgrwt>
</event>
<event>
 6    1  0.5570842E-002  0.3000000E+03  0.7818608E-02  0.1093470E+00
          1   -1    0    0  502    0  0.00000000000E+00  0.00000000000E+00  0.27004985374E+01  0.27004985374E+01  0.00000000000E+00 0.  1.
         13   -1    0    0    0    0 -0.00000000000E+00 -0.00000000000E+00 -0.10000000000E+04  0.10000000000E+04  0.00000000000E+00 0.  1.
    9000005    2    1    2  501    0 -0.23246840566E+02 -0.25105972322E+02 -0.87404784804E+03  0.87478765511E+03  0.11093936401E+02 0.  0.
         13    1    3    3    0    0 -0.14476332486E+02 -0.15515372165E+02 -0.40075661320E+03  0.40131802103E+03  0.00000000000E+00 0.  1.
          1    1    3    3  501    0 -0.87705080804E+01 -0.95906001574E+01 -0.47329123484E+03  0.47346963409E+03  0.00000000000E+00 0.  1.
         21    1    1    2  502  501  0.23246840566E+02  0.25105972322E+02 -0.12325165342E+03  0.12791284342E+03  0.00000000000E+00 0.  1.
<mgrwt>
<rscale>  1 0.30000000E+03</rscale>
<asrwt>0</asrwt>
<pdfrwt beam="1">  1        1 0.98200154E-02 0.30000000E+03</pdfrwt>
<pdfrwt beam="2">0</pdfrwt>
<totfact> 0.77493328E+02</totfact>
</mgrwt>
</event>
<event>
 6    1  0.4451538E-002  0.3000000E+03  0.7818608E-02  0.1093470E+00
          3   -1    0    0  502    0  0.00000000000E+00  0.00000000000E+00  0.13956052972E+02  0.13956052972E+02  0.00000000000E+00 0.  1.
         13   -1    0    0    0    0 -0.00000000000E+00 -0.00000000000E+00 -0.10000000000E+04  0.10000000000E+04  0.00000000000E+00 0.  1.
    9000005    2    1    2  501    0  0.82626756217E+02 -0.10234187792E+02 -0.85235103390E+03  0.85645775310E+03  0.92562632492E+01 0.  0.
         13    1    3    3    0    0  0.98590688230E-01  0.76462024836E-01 -0.12090324334E+02  0.12090968078E+02  0.00000000000E+00 0.  1.
          3    1    3    3  501    0  0.82528165529E+02 -0.10310649817E+02 -0.84026070956E+03  0.84436678502E+03  0.00000000000E+00 0.  1.
         21    1    1    2  502  501 -0.82626756217E+02  0.10234187792E+02 -0.13369291313E+03  0.15749829988E+03  0.00000000000E+00 0.  1.
<mgrwt>
<rscale>  1 0.30000000E+03</rscale>
<asrwt>0</asrwt>
<pdfrwt beam="1">  1        3 0.50749391E-01 0.30000000E+03</pdfrwt>
<pdfrwt beam="2">0</pdfrwt>
<totfact> 0.16961744E+01</totfact>
</mgrwt>
</event>
<event>
 6    1  0.3125838E-002  0.3000000E+03  0.7818608E-02  0.1093470E+00
          1   -1    0    0  502    0  0.00000000000E+00  0.00000000000E+00  0.29184234353E+01  0.29184234353E+01  0.00000000000E+00 0.  1.
         13   -1    0    0    0    0 -0.00000000000E+00 -0.00000000000E+00 -0.10000000000E+04  0.10000000000E+04  0.00000000000E+00 0.  1.
    9000005    2    1    2  501    0 -0.54257238290E+01  0.44795774371E+02 -0.23679494767E+03  0.24129393725E+03  0.10715270932E+02 0.  0.
         13    1    3    3    0    0  0.80366892326E-01  0.48710719288E+01 -0.47915076634E+02  0.48162105119E+02  0.00000000000E+00 0.  1.
          1    1    3    3  501    0 -0.55060907213E+01  0.39924702442E+02 -0.18887987103E+03  0.19313183213E+03  0.00000000000E+00 0.  1.
         21    1    1    2  502  501  0.54257238290E+01 -0.44795774371E+02 -0.76028662890E+03  0.76162448619E+03  0.00000000000E+00 0.  1.
<mgrwt>
<rscale>  1 0.30000000E+03</rscale>
<asrwt>0</asrwt>
<pdfrwt beam="1">  1        1 0.10612471E-01 0.30000000E+03</pdfrwt>
<pdfrwt beam="2">0</pdfrwt>
<totfact> 0.69628487E+02</totfact>
</mgrwt>
</event>
<event>
 6    1  0.3125838E-002  0.3000000E+03  0.7818608E-02  0.1093470E+00
          1   -1    0    0  502    0  0.00000000000E+00  0.00000000000E+00  0.16551773574E+02  0.16551773574E+02  0.00000000000E+00 0.  1.
         13   -1    0    0    0    0 -0.00000000000E+00 -0.00000000000E+00 -0.10000000000E+04  0.10000000000E+04  0.00000000000E+00 0.  1.
    9000005    2    1    2  501    0 -0.19034487216E+01  0.36895512469E+02 -0.97858583376E+03  0.97928859041E+03  0.33177262855E+01 0.  0.
         13    1    3    3    0    0 -0.10921972039E+01  0.27748895068E+02 -0.77038079790E+03  0.77088116325E+03  0.00000000000E+00 0.  1.
          3    1    3    3  501    0 -0.81125151766E+00  0.91466174010E+01 -0.20820503585E+03  0.20840742716E+03  0.00000000000E+00 0.  1.
         21    1    1    2  502  501  0.19034487216E+01 -0.36895512469E+02 -0.48623926675E+01  0.37263183169E+02  0.00000000000E+00 0.  1.
<mgrwt>
<rscale>  1 0.30000000E+03</rscale>
<asrwt>0</asrwt>
<pdfrwt beam="1">  1        1 0.60188394E-01 0.30000000E+03</pdfrwt>
<pdfrwt beam="2">0</pdfrwt>
<totfact> 0.69055090E+01</totfact>
</mgrwt>
</event>
<event>
 6    1  0.3125838E-002  0.3000000E+03  0.7818608E-02  0.1093470E+00
          1   -1    0    0  502    0  0.00000000000E+00  0.00000000000E+00  0.15843153498E+01  0.15843153498E+01  0.00000000000E+00 0.  1.
         13   -1    0    0    0    0 -0.00000000000E+00 -0.00000000000E+00 -0.10000000000E+04  0.10000000000E+04  0.00000000000E+00 0.  1.
    9000005    2    1    2  501    0 -0.13567662718E+02  0.33687877492E+02 -0.30992890095E+03  0.31214033221E+03  0.75305235448E+01 0.  0.
         13    1    3    3    0    0 -0.22853557380E+01  0.64268591404E+01 -0.37194996367E+02  0.37815276331E+02  0.00000000000E+00 0.  1.
          1    1    3    3  501    0 -0.11282306979E+02  0.27261018351E+02 -0.27273390458E+03  0.27432505588E+03  0.00000000000E+00 0.  1.
         21    1    1    2  502  501  0.13567662718E+02 -0.33687877492E+02 -0.68848678370E+03  0.68944398314E+03  0.00000000000E+00 0.  1.
<mgrwt>
<rscale>  1 0.30000000E+03</rscale>
<asrwt>0</asrwt>
<pdfrwt beam="1">  1        1 0.57611589E-02 0.30000000E+03</pdfrwt>
<pdfrwt beam="2">0</pdfrwt>
<totfact> 0.16301729E+03</totfact>
</mgrwt>
</event>
<event>
 6    1  0.3125838E-002  0.3000000E+03  0.7818608E-02  0.1093470E+00
          3   -1    0    0  502    0  0.00000000000E+00  0.00000000000E+00  0.61856840011E+01  0.61856840011E+01  0.00000000000E+00 0.  1.
         13   -1    0    0    0    0 -0.00000000000E+00 -0.00000000000E+00 -0.10000000000E+04  0.10000000000E+04  0.00000000000E+00 0.  1.
    9000005    2    1    2  501    0 -0.36286471464E+02 -0.15477392979E+02 -0.93201163773E+03  0.93286564073E+03  0.60293512694E+01 0.  0.
         13    1    3    3    0    0 -0.82437160084E+01 -0.51552595850E+01 -0.18292253818E+03  0.18318075917E+03  0.00000000000E+00 0.  1.
          1    1    3    3  501    0 -0.28042755456E+02 -0.10322133394E+02 -0.74908909955E+03  0.74968488156E+03  0.00000000000E+00 0.  1.
         21    1    1    2  502  501  0.36286471464E+02  0.15477392979E+02 -0.61802678268E+02  0.73320043275E+02  0.00000000000E+00 0.  1.
<mgrwt>
<rscale>  1 0.30000000E+03</rscale>
<asrwt>0</asrwt>
<pdfrwt beam="1">  1        3 0.22493444E-01 0.30000000E+03</pdfrwt>
<pdfrwt beam="2">0</pdfrwt>
<totfact> 0.80488203E+01</totfact>
</mgrwt>
</event>
<event>
 6    1  0.3125838E-002  0.3000000E+03  0.7818608E-02  0.1093470E+00
          1   -1    0    0  502    0  0.00000000000E+00  0.00000000000E+00  0.38311098933E+01  0.38311098933E+01  0.00000000000E+00 0.  1.
         13   -1    0    0    0    0 -0.00000000000E+00 -0.00000000000E+00 -0.10000000000E+04  0.10000000000E+04  0.00000000000E+00 0.  1.
    9000005    2    1    2  501    0  0.18998895082E+02  0.30982721035E+02 -0.90426231289E+03  0.90499940469E+03  0.35644024711E+01 0.  0.
         13    1    3    3    0    0  0.17360782173E+02  0.28094583160E+02 -0.79264439674E+03  0.79333211334E+03  0.00000000000E+00 0.  1.
          1    1    3    3  501    0  0.16381129094E+01  0.28881378749E+01 -0.11161791614E+03  0.11166729135E+03  0.00000000000E+00 0.  1.
         21    1    1    2  502  501 -0.18998895082E+02 -0.30982721035E+02 -0.91906577221E+02  0.98831705204E+02  0.00000000000E+00 0.  1.
<mgrwt>
<rscale>  1 0.30000000E+03</rscale>
<asrwt>0</asrwt>
<pdfrwt beam="1">  1        1 0.13931338E-01 0.30000000E+03</pdfrwt>
<pdfrwt beam="2">0</pdfrwt>
<totfact> 0.47966331E+02</totfact>
</mgrwt>
</event>
<event>
 6    1  0.3125838E-002  0.3000000E+03  0.7818608E-02  0.1093470E+00
          3   -1    0    0  502    0  0.00000000000E+00  0.00000000000E+00  0.48354777602E+01  0.48354777602E+01  0.00000000000E+00 0.  1.
         13   -1    0    0    0    0 -0.00000000000E+00 -0.00000000000E+00 -0.10000000000E+04  0.10000000000E+04  0.00000000000E+00 0.  1.
    9000005    2    1    2  501    0 -0.31085820734E+02  0.25206787705E+02 -0.90838623618E+03  0.90927303049E+03  0.31905320270E+01 0.  0.
         13    1    3    3    0    0 -0.27718829796E+02  0.21293935444E+02 -0.77868676863E+03  0.77947087748E+03  0.00000000000E+00 0.  1.
          1    1    3    3  501    0 -0.33669909380E+01  0.39128522609E+01 -0.12969946756E+03  0.12980215301E+03  0.00000000000E+00 0.  1.
         21    1    1    2  502  501  0.31085820734E+02 -0.25206787705E+02 -0.86778286057E+02  0.95562447269E+02  0.00000000000E+00 0.  1.
<mgrwt>
<rscale>  1 0.30000000E+03</rscale>
<asrwt>0</asrwt>
<pdfrwt beam="1">  1        3 0.17583593E-01 0.30000000E+03</pdfrwt>
<pdfrwt beam="2">0</pdfrwt>
<totfact> 0.12595199E+02</totfact>
</mgrwt>
</event>
<event>
 6    1  0.3125838E-002  0.3000000E+03  0.7818608E-02  0.1093470E+00
          3   -1    0    0  502    0  0.00000000000E+00  0.00000000000E+00  0.11070394236E+01  0.11070394236E+01  0.00000000000E+00 0.  1.
         13   -1    0    0    0    0 -0.00000000000E+00 -0.00000000000E+00 -0.10000000000E+04  0.10000000000E+04  0.00000000000E+00 0.  1.
    9000005    2    1    2  501    0  0.12142774082E+01 -0.30076622130E+02 -0.30409772592E+03  0.30566006390E+03  0.68242276647E+01 0.  0.
         13    1    3    3    0    0 -0.51030361363E-01 -0.12599505115E+02 -0.95484755373E+02  0.96312453202E+02  0.00000000000E+00 0.  1.
          3    1    3    3  501    0  0.12653077696E+01 -0.17477117015E+02 -0.20861297055E+03  0.20934761070E+03  0.00000000000E+00 0.  1.
         21    1    1    2  502  501 -0.12142774082E+01  0.30076622130E+02 -0.69479523466E+03  0.69544697553E+03  0.00000000000E+00 0.  1.
<mgrwt>
<rscale>  1 0.30000000E+03</rscale>
<asrwt>0</asrwt>
<pdfrwt beam="1">  1        3 0.40256064E-02 0.30000000E+03</pdfrwt>
<pdfrwt beam="2">0</pdfrwt>
<totfact> 0.13816565E+03</totfact>
</mgrwt>
</event>
<event>
 6    1  0.3125838E-002  0.3000000E+03  0.7818608E-02  0.1093470E+00
          1   -1    0    0  502    0  0.00000000000E+00  0.00000000000E+00  0.17715849853E+01  0.17715849853E+01  0.00000000000E+00 0.  1.
         13   -1    0    0    0    0 -0.00000000000E+00 -0.00000000000E+00 -0.10000000000E+04  0.10000000000E+04  0.00000000000E+00 0.  1.
    9000005    2    1    2  501    0 -0.35650533258E+02 -0.18486277656E+02 -0.35227142094E+03  0.35456748953E+03  0.32011928425E+01 0.  0.
         13    1    3    3    0    0 -0.17530138369E+01 -0.20255611547E+00 -0.14128472021E+02  0.14238251583E+02  0.00000000000E+00 0.  1.
          3    1    3    3  501    0 -0.33897519422E+02 -0.18283721541E+02 -0.33814294892E+03  0.34032923795E+03  0.00000000000E+00 0.  1.
         21    1    1    2  502  501  0.35650533258E+02  0.18486277656E+02 -0.64595699407E+03  0.64720409546E+03  0.00000000000E+00 0.  1.
<mgrwt>
<rscale>  1 0.30000000E+03</rscale>
<asrwt>0</asrwt>
<pdfrwt beam="1">  1        1 0.64421408E-02 0.30000000E+03</pdfrwt>
<pdfrwt beam="2">0</pdfrwt>
<totfact> 0.13937597E+03</totfact>
</mgrwt>
</event>
<event>
 6    1  0.3125838E-002  0.3000000E+03  0.7818608E-02  0.1093470E+00
          1   -1    0    0  502    0  0.00000000000E+00  0.00000000000E+00  0.20007105514E+02  0.20007105514E+02  0.00000000000E+00 0.  1.
         13   -1    0    0    0    0 -0.00000000000E+00 -0.00000000000E+00 -0.10000000000E+04  0.10000000000E+04  0.00000000000E+00 0.  1.
    9000005    2    1    2  501    0  0.24895064472E+02 -0.51967118971E+02 -0.95575460874E+03  0.95749438533E+03  0.28775190508E+01 0.  0.
         13    1    3    3    0    0  0.95765794493E+01 -0.20085801116E+02 -0.39259453781E+03  0.39322464495E+03  0.00000000000E+00 0.  1.
          1    1    3    3  501    0  0.15318485022E+02 -0.31881317855E+02 -0.56316007093E+03  0.56426974037E+03  0.00000000000E+00 0.  1.
         21    1    1    2  502  501 -0.24895064472E+02  0.51967118971E+02 -0.24238285745E+02  0.62512720186E+02  0.00000000000E+00 0.  1.
<mgrwt>
<rscale>  1 0.30000000E+03</rscale>
<asrwt>0</asrwt>
<pdfrwt beam="1">  1        1 0.72753264E-01 0.30000000E+03</pdfrwt>
<pdfrwt beam="2">0</pdfrwt>
<totfact> 0.53502213E+01</totfact>
</mgrwt>
</event>
<event>
 6    1  0.3125838E-002  0.3000000E+03  0.7818608E-02  0.1093470E+00
          1   -1    0    0  502    0  0.00000000000E+00  0.00000000000E+00  0.24712563380E+01  0.24712563380E+01  0.00000000000E+00 0.  1.
         13   -1    0    0    0    0 -0.00000000000E+00 -0.00000000000E+00 -0.10000000000E+04  0.10000000000E+04  0.00000000000E+00 0.  1.
    9000005    2    1    2  501    0  0.30071201588E+02 -0.39464000857E+02 -0.47975185625E+03  0.48232263366E+03  0.34051201918E+01 0.  0.
         13    1    3    3    0    0  0.23485578212E+01 -0.18003460870E+01 -0.26765245685E+02  0.26928337239E+02  0.00000000000E+00 0.  1.
          1    1    3    3  501    0  0.27722643767E+02 -0.37663654770E+02 -0.45298661056E+03  0.45539429642E+03  0.00000000000E+00 0.  1.
         21    1    1    2  502  501 -0.30071201588E+02  0.39464000857E+02 -0.51777688742E+03  0.52014862268E+03  0.00000000000E+00 0.  1.
<mgrwt>
<rscale>  1 0.30000000E+03</rscale>
<asrwt>0</asrwt>
<pdfrwt beam="1">  1        1 0.89864056E-02 0.30000000E+03</pdfrwt>
<pdfrwt beam="2">0</pdfrwt>
<totfact> 0.87620963E+02</totfact>
</mgrwt>
</event>
<event>
 6    1  0.3125838E-002  0.3000000E+03  0.7818608E-02  0.1093470E+00
          3   -1    0    0  502    0  0.00000000000E+00  0.00000000000E+00  0.20851736533E+01  0.20851736533E+01  0.00000000000E+00 0.  1.
         13   -1    0    0    0    0 -0.00000000000E+00 -0.00000000000E+00 -0.10000000000E+04  0.10000000000E+04  0.00000000000E+00 0.  1.
    9000005    2    1    2  501    0  0.36141340497E+02 -0.14191497044E+02 -0.76188389234E+03  0.76288191931E+03  0.37632856248E+01 0.  0.
         13    1    3    3    0    0  0.35881311899E+02 -0.13655467967E+02 -0.75299556939E+03  0.75397365197E+03  0.00000000000E+00 0.  1.
          1    1    3    3  501    0  0.26002859795E+00 -0.53602907754E+00 -0.88883229522E+01  0.89082673369E+01  0.00000000000E+00 0.  1.
         21    1    1    2  502  501 -0.36141340497E+02  0.14191497044E+02 -0.23603093401E+03  0.23920325435E+03  0.00000000000E+00 0.  1.
<mgrwt>
<rscale>  1 0.30000000E+03</rscale>
<asrwt>0</asrwt>
<pdfrwt beam="1">  1        3 0.75824656E-02 0.30000000E+03</pdfrwt>
<pdfrwt beam="2">0</pdfrwt>
<totfact> 0.51614431E+02</totfact>
</mgrwt>
</event>
<event>
 6    1  0.3125838E-002  0.3000000E+03  0.7818608E-02  0.1093470E+00
          1   -1    0    0  502    0  0.00000000000E+00  0.00000000000E+00  0.39412091252E+01  0.39412091252E+01  0.00000000000E+00 0.  1.
         13   -1    0    0    0    0 -0.00000000000E+00 -0.00000000000E+00 -0.10000000000E+04  0.10000000000E+04  0.00000000000E+00 0.  1.
    9000005    2    1    2  501    0 -0.53163284658E+02 -0.29423527747E+02 -0.62307404811E+03  0.62603950609E+03  0.34806519668E+01 0.  0.
         13    1    3    3    0    0 -0.29754759175E+01 -0.11688214357E+01 -0.40172683728E+02  0.40299678887E+02  0.00000000000E+00 0.  1.
          3    1    3    3  501    0 -0.50187808740E+02 -0.28254706311E+02 -0.58290136438E+03  0.58573982720E+03  0.00000000000E+00 0.  1.
         21    1    1    2  502  501  0.53163284658E+02  0.29423527747E+02 -0.37298474276E+03  0.37790170303E+03  0.00000000000E+00 0.  1.
<mgrwt>
<rscale>  1 0.30000000E+03</rscale>
<asrwt>0</asrwt>
<pdfrwt beam="1">  1        1 0.14331700E-01 0.30000000E+03</pdfrwt>
<pdfrwt beam="2">0</pdfrwt>
<totfact> 0.46151945E+02</totfact>
</mgrwt>
</event>
<event>
 6    1  0.3125838E-002  0.3000000E+03  0.7818608E-02  0.1093470E+00
          1   -1    0    0  502    0  0.00000000000E+00  0.00000000000E+00  0.17746842543E+01  0.17746842543E+01  0.00000000000E+00 0.  1.
         13   -1    0    0    0    0 -0.00000000000E+00 -0.00000000000E+00 -0.10000000000E+04  0.10000000000E+04  0.00000000000E+00 0.  1.
    9000005    2    1    2  501    0  0.39422777855E+02  0.77367652032E+01 -0.64809033734E+03  0.64934239849E+03  0.32329811104E+01 0.  0.
         13    1    3    3    0    0  0.22097954072E+01  0.12078650882E+01 -0.38113242407E+02  0.38196352975E+02  0.00000000000E+00 0.  1.
          1    1    3    3  501    0  0.37212982448E+02  0.65289001150E+01 -0.60997709494E+03  0.61114604551E+03  0.00000000000E+00 0.  1.
         21    1    1    2  502  501 -0.39422777855E+02 -0.77367652032E+01 -0.35013497840E+03  0.35243228577E+03  0.00000000000E+00 0.  1.
<mgrwt>
<rscale>  1 0.30000000E+03</rscale>
<asrwt>0</asrwt>
<pdfrwt beam="1">  1        1 0.64534109E-02 0.30000000E+03</pdfrwt>
<pdfrwt beam="2">0</pdfrwt>
<totfact> 0.13903511E+03</totfact>
</mgrwt>
</event>
<event>
 6    1  0.3125838E-002  0.3000000E+03  0.7818608E-02  0.1093470E+00
          1   -1    0    0  502    0  0.00000000000E+00  0.00000000000E+00  0.17871421497E+02  0.17871421497E+02  0.00000000000E+00 0.  1.
         13   -1    0    0    0    0 -0.00000000000E+00 -0.00000000000E+00 -0.10000000000E+04  0.10000000000E+04  0.00000000000E+00 0.  1.
    9000005    2    1    2  501    0  0.55094969416E+02  0.96743902014E+01 -0.95329141890E+03  0.95493787516E+03  0.35730353590E+01 0.  0.
         13    1    3    3    0    0  0.13446434631E+01  0.82614642549E+00 -0.26809187802E+02  0.26855597825E+02  0.00000000000E+00 0.  1.
          1    1    3    3  501    0  0.53750325952E+02  0.88482437759E+01 -0.92648223110E+03  0.92808227734E+03  0.00000000000E+00 0.  1.
         21    1    1    2  502  501 -0.55094969416E+02 -0.96743902014E+01 -0.28837159600E+02  0.62933546336E+02  0.00000000000E+00 0.  1.
<mgrwt>
<rscale>  1 0.30000000E+03</rscale>
<asrwt>0</asrwt>
<pdfrwt beam="1">  1        1 0.64987124E-01 0.30000000E+03</pdfrwt>
<pdfrwt beam="2">0</pdfrwt>
<totfact> 0.62331529E+01</totfact>
</mgrwt>
</event>
<event>
 6    1  0.3125838E-002  0.3000000E+03  0.7818608E-02  0.1093470E+00
          1   -1    0    0  502    0  0.00000000000E+00  0.00000000000E+00  0.14100609317E+01  0.14100609317E+01  0.00000000000E+00 0.  1.
         13   -1    0    0    0    0 -0.00000000000E+00 -0.00000000000E+00 -0.10000000000E+04  0.10000000000E+04  0.00000000000E+00 0.  1.
    9000005    2    1    2  501    0  0.30827502881E+02  0.20691749753E+02 -0.57097152000E+03  0.57218285331E+03  0.25015038973E+01 0.  0.
         13    1    3    3    0    0  0.11641225577E+02  0.83159742736E+01 -0.23780152375E+03  0.23823148041E+03  0.00000000000E+00 0.  1.
          3    1    3    3  501    0  0.19186277304E+02  0.12375775480E+02 -0.33316999626E+03  0.33395137290E+03  0.00000000000E+00 0.  1.
         21    1    1    2  502  501 -0.30827502881E+02 -0.20691749753E+02 -0.42761841907E+03  0.42922720763E+03  0.00000000000E+00 0.  1.
<mgrwt>
<rscale>  1 0.30000000E+03</rscale>
<asrwt>0</asrwt>
<pdfrwt beam="1">  1        1 0.51275051E-02 0.30000000E+03</pdfrwt>
<pdfrwt beam="2">0</pdfrwt>
<totfact> 0.19199972E+03</totfact>
</mgrwt>
</event>
<event>
 6    1  0.3125838E-002  0.3000000E+03  0.7818608E-02  0.1093470E+00
          1   -1    0    0  502    0  0.00000000000E+00  0.00000000000E+00  0.66458306422E+01  0.66458306422E+01  0.00000000000E+00 0.  1.
         13   -1    0    0    0    0 -0.00000000000E+00 -0.00000000000E+00 -0.10000000000E+04  0.10000000000E+04  0.00000000000E+00 0.  1.
    9000005    2    1    2  501    0 -0.24916561234E+02 -0.24019772510E+02 -0.95236276947E+03  0.95299809668E+03  0.35697471478E+01 0.  0.
         13    1    3    3    0    0 -0.86946489901E+01 -0.63115218429E+01 -0.27541376847E+03  0.27562325027E+03  0.00000000000E+00 0.  1.
          1    1    3    3  501    0 -0.16221912244E+02 -0.17708250667E+02 -0.67694900101E+03  0.67737484641E+03  0.00000000000E+00 0.  1.
         21    1    1    2  502  501  0.24916561234E+02  0.24019772510E+02 -0.40991399884E+02  0.53647733965E+02  0.00000000000E+00 0.  1.
<mgrwt>
<rscale>  1 0.30000000E+03</rscale>
<asrwt>0</asrwt>
<pdfrwt beam="1">  1        1 0.24166708E-01 0.30000000E+03</pdfrwt>
<pdfrwt beam="2">0</pdfrwt>
<totfact> 0.22896849E+02</totfact>
</mgrwt>
</event>
<event>
 6    1  0.3125838E-002  0.3000000E+03  0.7818608E-02  0.1093470E+00
          1   -1    0    0  502    0  0.00000000000E+00  0.00000000000E+00  0.66437023275E+01  0.66437023275E+01  0.00000000000E+00 0.  1.
         13   -1    0    0    0    0 -0.00000000000E+00 -0.00000000000E+00 -0.10000000000E+04  0.10000000000E+04  0.00000000000E+00 0.  1.
    9000005    2    1    2  501    0 -0.12306726190E+02 -0.31254868616E+02 -0.95523733536E+03  0.95583644291E+03  0.40763228826E+01 0.  0.
         13    1    3    3    0    0 -0.60978959279E+01 -0.11021430775E+02 -0.38799894679E+03  0.38820334746E+03  0.00000000000E+00 0.  1.
          1    1    3    3  501    0 -0.62088302616E+01 -0.20233437842E+02 -0.56723838857E+03  0.56763309544E+03  0.00000000000E+00 0.  1.
         21    1    1    2  502  501  0.12306726190E+02  0.31254868616E+02 -0.38118962314E+02  0.50807259419E+02  0.00000000000E+00 0.  1.
<mgrwt>
<rscale>  1 0.30000000E+03</rscale>
<asrwt>0</asrwt>
<pdfrwt beam="1">  1        1 0.24158968E-01 0.30000000E+03</pdfrwt>
<pdfrwt beam="2">0</pdfrwt>
<totfact> 0.22906548E+02</totfact>
</mgrwt>
</event>
<event>
 6    1  0.3125838E-002  0.3000000E+03  0.7818608E-02  0.1093470E+00
          1   -1    0    0  502    0  0.00000000000E+00  0.00000000000E+00  0.32006259654E+01  0.32006259654E+01  0.00000000000E+00 0.  1.
         13   -1    0    0    0    0 -0.00000000000E+00 -0.00000000000E+00 -0.10000000000E+04  0.10000000000E+04  0.00000000000E+00 0.  1.
    9000005    2    1    2  501    0  0.28393680070E+02  0.41848465270E+02 -0.72113478875E+03  0.72293564654E+03  0.65628024729E+01 0.  0.
         13    1    3    3    0    0  0.15357225319E+02  0.26508223095E+02 -0.40102517090E+03  0.40219363242E+03  0.00000000000E+00 0.  1.
          3    1    3    3  501    0  0.13036454751E+02  0.15340242175E+02 -0.32010961785E+03  0.32074201412E+03  0.00000000000E+00 0.  1.
         21    1    1    2  502  501 -0.28393680070E+02 -0.41848465270E+02 -0.27566458529E+03  0.28026497943E+03  0.00000000000E+00 0.  1.
<mgrwt>
<rscale>  1 0.30000000E+03</rscale>
<asrwt>0</asrwt>
<pdfrwt beam="1">  1        1 0.11638664E-01 0.30000000E+03</pdfrwt>
<pdfrwt beam="2">0</pdfrwt>
<totfact> 0.61335584E+02</totfact>
</mgrwt>
</event>
<event>
 6    1  0.3125838E-002  0.3000000E+03  0.7818608E-02  0.1093470E+00
          1   -1    0    0  502    0  0.00000000000E+00  0.00000000000E+00  0.81830990436E+01  0.81830990436E+01  0.00000000000E+00 0.  1.
         13   -1    0    0    0    0 -0.00000000000E+00 -0.00000000000E+00 -0.10000000000E+04  0.10000000000E+04  0.00000000000E+00 0.  1.
    9000005    2    1    2  501    0 -0.52324840284E+02  0.40869723705E+02 -0.83792446571E+03  0.84057908700E+03  0.68969589776E+01 0.  0.
         13    1    3    3    0    0 -0.39599764734E+02  0.33588719734E+02 -0.67674745051E+03  0.67873666118E+03  0.00000000000E+00 0.  1.
          1    1    3    3  501    0 -0.12725075550E+02  0.72810039710E+01 -0.16117701520E+03  0.16184242582E+03  0.00000000000E+00 0.  1.
         21    1    1    2  502  501  0.52324840284E+02 -0.40869723705E+02 -0.15389243525E+03  0.16760401204E+03  0.00000000000E+00 0.  1.
<mgrwt>
<rscale>  1 0.30000000E+03</rscale>
<asrwt>0</asrwt>
<pdfrwt beam="1">  1        1 0.29756787E-01 0.30000000E+03</pdfrwt>
<pdfrwt beam="2">0</pdfrwt>
<totfact> 0.17406496E+02</totfact>
</mgrwt>
</event>
<event>
 6    1  0.3125838E-002  0.3000000E+03  0.7818608E-02  0.1093470E+00
          1   -1    0    0  502    0  0.00000000000E+00  0.00000000000E+00  0.96560582559E+01  0.96560582559E+01  0.00000000000E+00 0.  1.
         13   -1    0    0    0    0 -0.00000000000E+00 -0.00000000000E+00 -0.10000000000E+04  0.10000000000E+04  0.00000000000E+00 0.  1.
    9000005    2    1    2  501    0 -0.15178669348E+02  0.88355040984E+02 -0.28885256704E+03  0.30245937129E+03  0.29766634813E+01 0.  0.
         13    1    3    3    0    0 -0.85231786230E+01  0.43543600395E+02 -0.13929463029E+03  0.14619057336E+03  0.00000000000E+00 0.  1.
          3    1    3    3  501    0 -0.66554907248E+01  0.44811440588E+02 -0.14955793674E+03  0.15626879793E+03  0.00000000000E+00 0.  1.
         21    1    1    2  502  501  0.15178669348E+02 -0.88355040984E+02 -0.70149137471E+03  0.70719668697E+03  0.00000000000E+00 0.  1.
<mgrwt>
<rscale>  1 0.30000000E+03</rscale>
<asrwt>0</asrwt>
<pdfrwt beam="1">  1        1 0.35113013E-01 0.30000000E+03</pdfrwt>
<pdfrwt beam="2">0</pdfrwt>
<totfact> 0.14013034E+02</totfact>
</mgrwt>
</event>
<event>
 6    1  0.3125838E-002  0.3000000E+03  0.7818608E-02  0.1093470E+00
          1   -1    0    0  502    0  0.00000000000E+00  0.00000000000E+00  0.29285530681E+01  0.29285530681E+01  0.00000000000E+00 0.  1.
         13   -1    0    0    0    0 -0.00000000000E+00 -0.00000000000E+00 -0.10000000000E+04  0.10000000000E+04  0.00000000000E+00 0.  1.
    9000005    2    1    2  501    0 -0.37283648340E+01  0.30503248407E+02 -0.91122281798E+03  0.91174557242E+03  0.29352928793E+01 0.  0.
         13    1    3    3    0    0 -0.35929416494E+01  0.17670933417E+02 -0.52458430510E+03  0.52489414578E+03  0.00000000000E+00 0.  1.
          1    1    3    3  501    0 -0.13542318468E+00  0.12832314991E+02 -0.38663851288E+03  0.38685142664E+03  0.00000000000E+00 0.  1.
         21    1    1    2  502  501  0.37283648340E+01 -0.30503248407E+02 -0.85848628952E+02  0.91182980653E+02  0.00000000000E+00 0.  1.
<mgrwt>
<rscale>  1 0.30000000E+03</rscale>
<asrwt>0</asrwt>
<pdfrwt beam="1">  1        1 0.10649306E-01 0.30000000E+03</pdfrwt>
<pdfrwt beam="2">0</pdfrwt>
<totfact> 0.69297247E+02</totfact>
</mgrwt>
</event>
<event>
 6    1  0.3125838E-002  0.3000000E+03  0.7818608E-02  0.1093470E+00
          1   -1    0    0  502    0  0.00000000000E+00  0.00000000000E+00  0.10861425750E+01  0.10861425750E+01  0.00000000000E+00 0.  1.
         13   -1    0    0    0    0 -0.00000000000E+00 -0.00000000000E+00 -0.10000000000E+04  0.10000000000E+04  0.00000000000E+00 0.  1.
    9000005    2    1    2  501    0 -0.27705523726E+02 -0.17234802725E+02 -0.46565983075E+03  0.46683480525E+03  0.55698247353E+01 0.  0.
         13    1    3    3    0    0 -0.27028330121E+01 -0.68596102226E-01 -0.47194751962E+02  0.47272133699E+02  0.00000000000E+00 0.  1.
          3    1    3    3  501    0 -0.25002690714E+02 -0.17166206622E+02 -0.41846507879E+03  0.41956267155E+03  0.00000000000E+00 0.  1.
         21    1    1    2  502  501  0.27705523726E+02  0.17234802725E+02 -0.53325402668E+03  0.53425133733E+03  0.00000000000E+00 0.  1.
<mgrwt>
<rscale>  1 0.30000000E+03</rscale>
<asrwt>0</asrwt>
<pdfrwt beam="1">  1        1 0.39496177E-02 0.30000000E+03</pdfrwt>
<pdfrwt beam="2">0</pdfrwt>
<totfact> 0.27719832E+03</totfact>
</mgrwt>
</event>
<event>
 6    1  0.3222347E-002  0.3000000E+03  0.7818608E-02  0.1093470E+00
          1   -1    0    0  502    0  0.00000000000E+00  0.00000000000E+00  0.12720956797E+01  0.12720956797E+01  0.00000000000E+00 0.  1.
         13   -1    0    0    0    0 -0.00000000000E+00 -0.00000000000E+00 -0.10000000000E+04  0.10000000000E+04  0.00000000000E+00 0.  1.
    9000005    2    1    2  501    0  0.14849516748E+02  0.26172892188E+02 -0.75984640069E+03  0.76050270142E+03  0.96061334484E+01 0.  0.
         13    1    3    3    0    0  0.76646362074E+01  0.15251183742E+02 -0.31295890819E+03  0.31342403142E+03  0.00000000000E+00 0.  1.
          3    1    3    3  501    0  0.71848805406E+01  0.10921708447E+02 -0.44688749249E+03  0.44707867000E+03  0.00000000000E+00 0.  1.
         21    1    1    2  502  501 -0.14849516748E+02 -0.26172892188E+02 -0.23888150363E+03  0.24076939426E+03  0.00000000000E+00 0.  1.
<mgrwt>
<rscale>  1 0.30000000E+03</rscale>
<asrwt>0</asrwt>
<pdfrwt beam="1">  1        1 0.46258122E-02 0.30000000E+03</pdfrwt>
<pdfrwt beam="2">0</pdfrwt>
<totfact> 0.22190878E+03</totfact>
</mgrwt>
</event>
<event>
 6    1  0.3125838E-002  0.3000000E+03  0.7818608E-02  0.1093470E+00
          1   -1    0    0  502    0  0.00000000000E+00  0.00000000000E+00  0.29762861445E+01  0.29762861445E+01  0.00000000000E+00 0.  1.
         13   -1    0    0    0    0 -0.00000000000E+00 -0.00000000000E+00 -0.10000000000E+04  0.10000000000E+04  0.00000000000E+00 0.  1.
    9000005    2    1    2  501    0 -0.13484094939E+02  0.31738384536E+02 -0.88701990279E+03  0.88769409186E+03  0.27105193440E+01 0.  0.
         13    1    3    3    0    0 -0.19524921020E+01  0.63916658746E+01 -0.19338889670E+03  0.19350434358E+03  0.00000000000E+00 0.  1.
          1    1    3    3  501    0 -0.11531602836E+02  0.25346718661E+02 -0.69363100609E+03  0.69418974828E+03  0.00000000000E+00 0.  1.
         21    1    1    2  502  501  0.13484094939E+02 -0.31738384536E+02 -0.11000381107E+03  0.11528219428E+03  0.00000000000E+00 0.  1.
<mgrwt>
<rscale>  1 0.30000000E+03</rscale>
<asrwt>0</asrwt>
<pdfrwt beam="1">  1        1 0.10822882E-01 0.30000000E+03</pdfrwt>
<pdfrwt beam="2">0</pdfrwt>
<totfact> 0.67772983E+02</totfact>
</mgrwt>
</event>
<event>
 6    1  0.3125838E-002  0.3000000E+03  0.7818608E-02  0.1093470E+00
          1   -1    0    0  502    0  0.00000000000E+00  0.00000000000E+00  0.12205015643E+01  0.12205015643E+01  0.00000000000E+00 0.  1.
         13   -1    0    0    0    0 -0.00000000000E+00 -0.00000000000E+00 -0.10000000000E+04  0.10000000000E+04  0.00000000000E+00 0.  1.
    9000005    2    1    2  501    0  0.33800352889E+02 -0.41451237537E+01 -0.57463840902E+03  0.57571455609E+03  0.88489017557E+01 0.  0.
         13    1    3    3    0    0  0.13466676347E+02 -0.10983831534E+01 -0.30192980753E+03  0.30223197464E+03  0.00000000000E+00 0.  1.
          3    1    3    3  501    0  0.20333676542E+02 -0.30467406002E+01 -0.27270860149E+03  0.27348258145E+03  0.00000000000E+00 0.  1.
         21    1    1    2  502  501 -0.33800352889E+02  0.41451237537E+01 -0.42414108942E+03  0.42550594548E+03  0.00000000000E+00 0.  1.
<mgrwt>
<rscale>  1 0.30000000E+03</rscale>
<asrwt>0</asrwt>
<pdfrwt beam="1">  1        1 0.44381969E-02 0.30000000E+03</pdfrwt>
<pdfrwt beam="2">0</pdfrwt>
<totfact> 0.23522250E+03</totfact>
</mgrwt>
</event>
<event>
 6    1  0.3125838E-002  0.3000000E+03  0.7818608E-02  0.1093470E+00
          1   -1    0    0  502    0  0.00000000000E+00  0.00000000000E+00  0.10601062995E+01  0.10601062995E+01  0.00000000000E+00 0.  1.
         13   -1    0    0    0    0 -0.00000000000E+00 -0.00000000000E+00 -0.10000000000E+04  0.10000000000E+04  0.00000000000E+00 0.  1.
    9000005    2    1    2  501    0 -0.28931514205E+02  0.13348767845E+02 -0.53043122681E+03  0.53146922791E+03  0.93290792965E+01 0.  0.
         13    1    3    3    0    0 -0.28418425956E+02  0.10492508933E+02 -0.48651807020E+03  0.48746028793E+03  0.00000000000E+00 0.  1.
          1    1    3    3  501    0 -0.51308824920E+00  0.28562589121E+01 -0.43913156615E+02  0.44008939982E+02  0.00000000000E+00 0.  1.
         21    1    1    2  502  501  0.28931514205E+02 -0.13348767845E+02 -0.46850866689E+03  0.46959087839E+03  0.00000000000E+00 0.  1.
<mgrwt>
<rscale>  1 0.30000000E+03</rscale>
<asrwt>0</asrwt>
<pdfrwt beam="1">  1        1 0.38549401E-02 0.30000000E+03</pdfrwt>
<pdfrwt beam="2">0</pdfrwt>
<totfact> 0.28683046E+03</totfact>
</mgrwt>
</event>
<event>
 6    1  0.3125838E-002  0.3000000E+03  0.7818608E-02  0.1093470E+00
          1   -1    0    0  502    0  0.00000000000E+00  0.00000000000E+00  0.26800528264E+02  0.26800528264E+02  0.00000000000E+00 0.  1.
         13   -1    0    0    0    0 -0.00000000000E+00 -0.00000000000E+00 -0.10000000000E+04  0.10000000000E+04  0.00000000000E+00 0.  1.
    9000005    2    1    2  501    0  0.59749534272E+02 -0.21493025202E+02 -0.95980041300E+03  0.96190452104E+03  0.33937939310E+01 0.  0.
         13    1    3    3    0    0  0.17673964973E+02 -0.66263609463E+01 -0.30899538233E+03  0.30957135526E+03  0.00000000000E+00 0.  1.
          3    1    3    3  501    0  0.42075569299E+02 -0.14866664256E+02 -0.65080503066E+03  0.65233316578E+03  0.00000000000E+00 0.  1.
         21    1    1    2  502  501 -0.59749534272E+02  0.21493025202E+02 -0.13399058738E+02  0.64896007220E+02  0.00000000000E+00 0.  1.
<mgrwt>
<rscale>  1 0.30000000E+03</rscale>
<asrwt>0</asrwt>
<pdfrwt beam="1">  1        1 0.97456672E-01 0.30000000E+03</pdfrwt>
<pdfrwt beam="2">0</pdfrwt>
<totfact> 0.35535498E+01</totfact>
</mgrwt>
</event>
<event>
 6    1  0.3125838E-002  0.3000000E+03  0.7818608E-02  0.1093470E+00
          1   -1    0    0  502    0  0.00000000000E+00  0.00000000000E+00  0.14315380943E+01  0.14315380943E+01  0.00000000000E+00 0.  1.
         13   -1    0    0    0    0 -0.00000000000E+00 -0.00000000000E+00 -0.10000000000E+04  0.10000000000E+04  0.00000000000E+00 0.  1.
    9000005    2    1    2  501    0  0.13068143020E+02  0.33288977177E+02 -0.65729607839E+03  0.65829049987E+03  0.54143501948E+01 0.  0.
         13    1    3    3    0    0  0.27710603741E+01  0.36075140062E+01 -0.10925951198E+03  0.10935416724E+03  0.00000000000E+00 0.  1.
          1    1    3    3  501    0  0.10297082646E+02  0.29681463171E+02 -0.54803656641E+03  0.54893633264E+03  0.00000000000E+00 0.  1.
         21    1    1    2  502  501 -0.13068143020E+02 -0.33288977177E+02 -0.34127238351E+03  0.34314103822E+03  0.00000000000E+00 0.  1.
<mgrwt>
<rscale>  1 0.30000000E+03</rscale>
<asrwt>0</asrwt>
<pdfrwt beam="1">  1        1 0.52056040E-02 0.30000000E+03</pdfrwt>
<pdfrwt beam="2">0</pdfrwt>
<totfact> 0.18796472E+03</totfact>
</mgrwt>
</event>
<event>
 6    1  0.3125838E-002  0.3000000E+03  0.7818608E-02  0.1093470E+00
          1   -1    0    0  502    0  0.00000000000E+00  0.00000000000E+00  0.31850647129E+01  0.31850647129E+01  0.00000000000E+00 0.  1.
         13   -1    0    0    0    0 -0.00000000000E+00 -0.00000000000E+00 -0.10000000000E+04  0.10000000000E+04  0.00000000000E+00 0.  1.
    9000005    2    1    2  501    0 -0.40967331704E+02 -0.87288795014E+01 -0.83380011717E+03  0.83487479607E+03  0.62268867689E+01 0.  0.
         13    1    3    3    0    0 -0.92817331938E+01 -0.36213562176E+00 -0.14691977867E+03  0.14721312128E+03  0.00000000000E+00 0.  1.
          3    1    3    3  501    0 -0.31685598510E+02 -0.83667438796E+01 -0.68688033850E+03  0.68766167479E+03  0.00000000000E+00 0.  1.
         21    1    1    2  502  501  0.40967331704E+02  0.87288795014E+01 -0.16301481812E+03  0.16831026864E+03  0.00000000000E+00 0.  1.
<mgrwt>
<rscale>  1 0.30000000E+03</rscale>
<asrwt>0</asrwt>
<pdfrwt beam="1">  1        1 0.11582078E-01 0.30000000E+03</pdfrwt>
<pdfrwt beam="2">0</pdfrwt>
<totfact> 0.61747063E+02</totfact>
</mgrwt>
</event>
<event>
 6    1  0.3125838E-002  0.3000000E+03  0.7818608E-02  0.1093470E+00
          1   -1    0    0  502    0  0.00000000000E+00  0.00000000000E+00  0.37674018108E+01  0.37674018108E+01  0.00000000000E+00 0.  1.
         13   -1    0    0    0    0 -0.00000000000E+00 -0.00000000000E+00 -0.10000000000E+04  0.10000000000E+04  0.00000000000E+00 0.  1.
    9000005    2    1    2  501    0 -0.39264886462E+02 -0.43955613007E+01 -0.88195352950E+03  0.88285107617E+03  0.47898031285E+01 0.  0.
         13    1    3    3    0    0 -0.12080156272E+02 -0.28817960570E+01 -0.31348559412E+03  0.31373149769E+03  0.00000000000E+00 0.  1.
          3    1    3    3  501    0 -0.27184730190E+02 -0.15137652437E+01 -0.56846793538E+03  0.56911957847E+03  0.00000000000E+00 0.  1.
         21    1    1    2  502  501  0.39264886462E+02  0.43955613007E+01 -0.11427906869E+03  0.12091632565E+03  0.00000000000E+00 0.  1.
<mgrwt>
<rscale>  1 0.30000000E+03</rscale>
<asrwt>0</asrwt>
<pdfrwt beam="1">  1        1 0.13699672E-01 0.30000000E+03</pdfrwt>
<pdfrwt beam="2">0</pdfrwt>
<totfact> 0.49074730E+02</totfact>
</mgrwt>
</event>
<event>
 6    1  0.3125838E-002  0.3000000E+03  0.7818608E-02  0.1093470E+00
          3   -1    0    0  502    0  0.00000000000E+00  0.00000000000E+00  0.15143608417E+02  0.15143608417E+02  0.00000000000E+00 0.  1.
         13   -1    0    0    0    0 -0.00000000000E+00 -0.00000000000E+00 -0.10000000000E+04  0.10000000000E+04  0.00000000000E+00 0.  1.
    9000005    2    1    2  501    0  0.37370253558E+02 -0.12321461181E+02 -0.97334428194E+03  0.97414503618E+03  0.33325797860E+01 0.  0.
         13    1    3    3    0    0  0.56882419672E+01 -0.66569128217E+00 -0.14665482444E+03  0.14676660646E+03  0.00000000000E+00 0.  1.
          3    1    3    3  501    0  0.31682011591E+02 -0.11655769899E+02 -0.82668945750E+03  0.82737842972E+03  0.00000000000E+00 0.  1.
         21    1    1    2  502  501 -0.37370253558E+02  0.12321461181E+02 -0.11512109647E+02  0.40998572233E+02  0.00000000000E+00 0.  1.
<mgrwt>
<rscale>  1 0.30000000E+03</rscale>
<asrwt>0</asrwt>
<pdfrwt beam="1">  1        3 0.55067783E-01 0.30000000E+03</pdfrwt>
<pdfrwt beam="2">0</pdfrwt>
<totfact> 0.14445101E+01</totfact>
</mgrwt>
</event>
<event>
 6    1  0.3125838E-002  0.3000000E+03  0.7818608E-02  0.1093470E+00
          1   -1    0    0  502    0  0.00000000000E+00  0.00000000000E+00  0.16971535873E+01  0.16971535873E+01  0.00000000000E+00 0.  1.
         13   -1    0    0    0    0 -0.00000000000E+00 -0.00000000000E+00 -0.10000000000E+04  0.10000000000E+04  0.00000000000E+00 0.  1.
    9000005    2    1    2  501    0 -0.86734921878E+01 -0.35750385984E+02 -0.72368266836E+03  0.72462394709E+03  0.31528792928E+01 0.  0.
         13    1    3    3    0    0 -0.60827996436E+01 -0.30003493985E+02 -0.59573674150E+03  0.59652282041E+03  0.00000000000E+00 0.  1.
          3    1    3    3  501    0 -0.25906925443E+01 -0.57468919983E+01 -0.12794592686E+03  0.12810112668E+03  0.00000000000E+00 0.  1.
         21    1    1    2  502  501  0.86734921878E+01  0.35750385984E+02 -0.27462017805E+03  0.27707320650E+03  0.00000000000E+00 0.  1.
<mgrwt>
<rscale>  1 0.30000000E+03</rscale>
<asrwt>0</asrwt>
<pdfrwt beam="1">  1        1 0.61714806E-02 0.30000000E+03</pdfrwt>
<pdfrwt beam="2">0</pdfrwt>
<totfact> 0.14801761E+03</totfact>
</mgrwt>
</event>
<event>
 6    1  0.3125838E-002  0.3000000E+03  0.7818608E-02  0.1093470E+00
          1   -1    0    0  502    0  0.00000000000E+00  0.00000000000E+00  0.28162144132E+01  0.28162144132E+01  0.00000000000E+00 0.  1.
         13   -1    0    0    0    0 -0.00000000000E+00 -0.00000000000E+00 -0.10000000000E+04  0.10000000000E+04  0.00000000000E+00 0.  1.
    9000005    2    1    2  501    0 -0.24574289714E+02 -0.38107833304E+02 -0.75866387742E+03  0.76002443270E+03  0.31869624597E+01 0.  0.
         13    1    3    3    0    0 -0.15045341069E+02 -0.20694350137E+02 -0.43846965847E+03  0.43921550498E+03  0.00000000000E+00 0.  1.
          1    1    3    3  501    0 -0.95289486444E+01 -0.17413483167E+02 -0.32019421895E+03  0.32080892772E+03  0.00000000000E+00 0.  1.
         21    1    1    2  502  501  0.24574289714E+02  0.38107833304E+02 -0.23851990817E+03  0.24279178171E+03  0.00000000000E+00 0.  1.
<mgrwt>
<rscale>  1 0.30000000E+03</rscale>
<asrwt>0</asrwt>
<pdfrwt beam="1">  1        1 0.10240801E-01 0.30000000E+03</pdfrwt>
<pdfrwt beam="2">0</pdfrwt>
<totfact> 0.73133146E+02</totfact>
</mgrwt>
</event>
<event>
 6    1  0.3125838E-002  0.3000000E+03  0.7818608E-02  0.1093470E+00
          1   -1    0    0  502    0  0.00000000000E+00  0.00000000000E+00  0.55450811541E+01  0.55450811541E+01  0.00000000000E+00 0.  1.
         13   -1    0    0    0    0 -0.00000000000E+00 -0.00000000000E+00 -0.10000000000E+04  0.10000000000E+04  0.00000000000E+00 0.  1.
    9000005    2    1    2  501    0  0.45392638787E+02 -0.12031955303E+01 -0.89561432620E+03  0.89677283244E+03  0.38147573776E+01 0.  0.
         13    1    3    3    0    0  0.16188170654E+02 -0.22502029584E+01 -0.31776153951E+03  0.31818157752E+03  0.00000000000E+00 0.  1.
          1    1    3    3  501    0  0.29204468133E+02  0.10470074281E+01 -0.57785278669E+03  0.57859125492E+03  0.00000000000E+00 0.  1.
         21    1    1    2  502  501 -0.45392638787E+02  0.12031955303E+01 -0.98840592646E+02  0.10877224871E+03  0.00000000000E+00 0.  1.
<mgrwt>
<rscale>  1 0.30000000E+03</rscale>
<asrwt>0</asrwt>
<pdfrwt beam="1">  1        1 0.20163974E-01 0.30000000E+03</pdfrwt>
<pdfrwt beam="2">0</pdfrwt>
<totfact> 0.29121926E+02</totfact>
</mgrwt>
</event>
<event>
 6    1  0.3125838E-002  0.3000000E+03  0.7818608E-02  0.1093470E+00
          3   -1    0    0  502    0  0.00000000000E+00  0.00000000000E+00  0.12268416244E+01  0.12268416244E+01  0.00000000000E+00 0.  1.
         13   -1    0    0    0    0 -0.00000000000E+00 -0.00000000000E+00 -0.10000000000E+04  0.10000000000E+04  0.00000000000E+00 0.  1.
    9000005    2    1    2  501    0  0.10589039769E+02 -0.30902939004E+02 -0.32195904981E+03  0.32362485155E+03  0.28801705688E+01 0.  0.
         13    1    3    3    0    0  0.18227066910E+01 -0.41809345275E+01 -0.54884151198E+02  0.55073337705E+02  0.00000000000E+00 0.  1.
          3    1    3    3  501    0  0.87663330783E+01 -0.26722004477E+02 -0.26707489862E+03  0.26855151385E+03  0.00000000000E+00 0.  1.
         21    1    1    2  502  501 -0.10589039769E+02  0.30902939004E+02 -0.67681410856E+03  0.67760199007E+03  0.00000000000E+00 0.  1.
<mgrwt>
<rscale>  1 0.30000000E+03</rscale>
<asrwt>0</asrwt>
<pdfrwt beam="1">  1        3 0.44612517E-02 0.30000000E+03</pdfrwt>
<pdfrwt beam="2">0</pdfrwt>
<totfact> 0.11797216E+03</totfact>
</mgrwt>
</event>
<event>
 6    1  0.3125838E-002  0.3000000E+03  0.7818608E-02  0.1093470E+00
          1   -1    0    0  502    0  0.00000000000E+00  0.00000000000E+00  0.13466571606E+01  0.13466571606E+01  0.00000000000E+00 0.  1.
         13   -1    0    0    0    0 -0.00000000000E+00 -0.00000000000E+00 -0.10000000000E+04  0.10000000000E+04  0.00000000000E+00 0.  1.
    9000005    2    1    2  501    0  0.34796680325E+02  0.66919937314E+01 -0.37238307756E+03  0.37407475685E+03  0.26787161451E+01 0.  0.
         13    1    3    3    0    0  0.20287801661E+02  0.50815634913E+01 -0.21265453418E+03  0.21368052810E+03  0.00000000000E+00 0.  1.
          1    1    3    3  501    0  0.14508878664E+02  0.16104302401E+01 -0.15972854338E+03  0.16039422875E+03  0.00000000000E+00 0.  1.
         21    1    1    2  502  501 -0.34796680325E+02 -0.66919937314E+01 -0.62627026528E+03  0.62727190031E+03  0.00000000000E+00 0.  1.
<mgrwt>
<rscale>  1 0.30000000E+03</rscale>
<asrwt>0</asrwt>
<pdfrwt beam="1">  1        1 0.48969455E-02 0.30000000E+03</pdfrwt>
<pdfrwt beam="2">0</pdfrwt>
<totfact> 0.20482560E+03</totfact>
</mgrwt>
</event>
<event>
 6    1  0.3125838E-002  0.3000000E+03  0.7818608E-02  0.1093470E+00
          3   -1    0    0  502    0  0.00000000000E+00  0.00000000000E+00  0.10059787924E+01  0.10059787924E+01  0.00000000000E+00 0.  1.
         13   -1    0    0    0    0 -0.00000000000E+00 -0.00000000000E+00 -0.10000000000E+04  0.10000000000E+04  0.00000000000E+00 0.  1.
    9000005    2    1    2  501    0  0.15012194725E+01  0.31111324448E+02 -0.58817793192E+03  0.58901079995E+03  0.32054166035E+01 0.  0.
         13    1    3    3    0    0 -0.57574327791E+00  0.14468555069E+02 -0.25440773999E+03  0.25481948264E+03  0.00000000000E+00 0.  1.
          3    1    3    3  501    0  0.20769627504E+01  0.16642769379E+02 -0.33377019193E+03  0.33419131731E+03  0.00000000000E+00 0.  1.
         21    1    1    2  502  501 -0.15012194725E+01 -0.31111324448E+02 -0.41081608929E+03  0.41199517884E+03  0.00000000000E+00 0.  1.
<mgrwt>
<rscale>  1 0.30000000E+03</rscale>
<asrwt>0</asrwt>
<pdfrwt beam="1">  1        3 0.36581124E-02 0.30000000E+03</pdfrwt>
<pdfrwt beam="2">0</pdfrwt>
<totfact> 0.16007931E+03</totfact>
</mgrwt>
</event>
<event>
 6    1  0.3125838E-002  0.3000000E+03  0.7818608E-02  0.1093470E+00
          1   -1    0    0  502    0  0.00000000000E+00  0.00000000000E+00  0.17086062091E+01  0.17086062091E+01  0.00000000000E+00 0.  1.
         13   -1    0    0    0    0 -0.00000000000E+00 -0.00000000000E+00 -0.10000000000E+04  0.10000000000E+04  0.00000000000E+00 0.  1.
    9000005    2    1    2  501    0  0.39704843052E+02  0.87182411572E+01 -0.58634949637E+03  0.58776584551E+03  0.32365035641E+01 0.  0.
         13    1    3    3    0    0  0.29330288476E+02  0.78222295185E+01 -0.44239381008E+03  0.44343402699E+03  0.00000000000E+00 0.  1.
          1    1    3    3  501    0  0.10374554576E+02  0.89601163871E+00 -0.14395568629E+03  0.14433181851E+03  0.00000000000E+00 0.  1.
         21    1    1    2  502  501 -0.39704843052E+02 -0.87182411572E+01 -0.41194189742E+03  0.41394276070E+03  0.00000000000E+00 0.  1.
<mgrwt>
<rscale>  1 0.30000000E+03</rscale>
<asrwt>0</asrwt>
<pdfrwt beam="1">  1        1 0.62131266E-02 0.30000000E+03</pdfrwt>
<pdfrwt beam="2">0</pdfrwt>
<totfact> 0.14662848E+03</totfact>
</mgrwt>
</event>
<event>
 6    1  0.3125838E-002  0.3000000E+03  0.7818608E-02  0.1093470E+00
          1   -1    0    0  502    0  0.00000000000E+00  0.00000000000E+00  0.33362090043E+01  0.33362090043E+01  0.00000000000E+00 0.  1.
         13   -1    0    0    0    0 -0.00000000000E+00 -0.00000000000E+00 -0.10000000000E+04  0.10000000000E+04  0.00000000000E+00 0.  1.
    9000005    2    1    2  501    0 -0.54795574516E+02 -0.14311949696E+01 -0.65544411115E+03  0.65774183228E+03  0.35681635985E+01 0.  0.
         13    1    3    3    0    0 -0.54374494849E+02 -0.12639668929E+01 -0.64547251171E+03  0.64775994525E+03  0.00000000000E+00 0.  1.
          1    1    3    3  501    0 -0.42107966738E+00 -0.16722807673E+00 -0.99715994383E+01  0.99818870297E+01  0.00000000000E+00 0.  1.
         21    1    1    2  502  501  0.54795574516E+02  0.14311949696E+01 -0.34121967985E+03  0.34559437672E+03  0.00000000000E+00 0.  1.
<mgrwt>
<rscale>  1 0.30000000E+03</rscale>
<asrwt>0</asrwt>
<pdfrwt beam="1">  1        1 0.12131695E-01 0.30000000E+03</pdfrwt>
<pdfrwt beam="2">0</pdfrwt>
<totfact> 0.57943885E+02</totfact>
</mgrwt>
</event>
<event>
 6    1  0.3125838E-002  0.3000000E+03  0.7818608E-02  0.1093470E+00
          1   -1    0    0  502    0  0.00000000000E+00  0.00000000000E+00  0.16991938899E+01  0.16991938899E+01  0.00000000000E+00 0.  1.
         13   -1    0    0    0    0 -0.00000000000E+00 -0.00000000000E+00 -0.10000000000E+04  0.10000000000E+04  0.00000000000E+00 0.  1.
    9000005    2    1    2  501    0  0.19741152675E+02  0.33549073247E+02 -0.66152271164E+03  0.66267893146E+03  0.39767772867E+01 0.  0.
         13    1    3    3    0    0  0.16926103272E+02  0.29517637816E+02 -0.59720037044E+03  0.59816892795E+03  0.00000000000E+00 0.  1.
          1    1    3    3  501    0  0.28150494032E+01  0.40314354307E+01 -0.64322341201E+02  0.64510003506E+02  0.00000000000E+00 0.  1.
         21    1    1    2  502  501 -0.19741152675E+02 -0.33549073247E+02 -0.33677809447E+03  0.33902026243E+03  0.00000000000E+00 0.  1.
<mgrwt>
<rscale>  1 0.30000000E+03</rscale>
<asrwt>0</asrwt>
<pdfrwt beam="1">  1        1 0.61788999E-02 0.30000000E+03</pdfrwt>
<pdfrwt beam="2">0</pdfrwt>
<totfact> 0.14776847E+03</totfact>
</mgrwt>
</event>
<event>
 6    1  0.3125838E-002  0.3000000E+03  0.7818608E-02  0.1093470E+00
          3   -1    0    0  502    0  0.00000000000E+00  0.00000000000E+00  0.39070245307E+01  0.39070245307E+01  0.00000000000E+00 0.  1.
         13   -1    0    0    0    0 -0.00000000000E+00 -0.00000000000E+00 -0.10000000000E+04  0.10000000000E+04  0.00000000000E+00 0.  1.
    9000005    2    1    2  501    0 -0.28047086051E+02 -0.20076525413E+02 -0.91658918744E+03  0.91724354768E+03  0.32064500509E+01 0.  0.
         13    1    3    3    0    0 -0.36193462708E+01 -0.31998730931E+01 -0.15700092794E+03  0.15707523748E+03  0.00000000000E+00 0.  1.
          1    1    3    3  501    0 -0.24427739780E+02 -0.16876652320E+02 -0.75958825950E+03  0.76016831020E+03  0.00000000000E+00 0.  1.
         21    1    1    2  502  501  0.28047086051E+02  0.20076525413E+02 -0.79503788026E+02  0.86663476847E+02  0.00000000000E+00 0.  1.
<mgrwt>
<rscale>  1 0.30000000E+03</rscale>
<asrwt>0</asrwt>
<pdfrwt beam="1">  1        3 0.14207392E-01 0.30000000E+03</pdfrwt>
<pdfrwt beam="2">0</pdfrwt>
<totfact> 0.18278934E+02</totfact>
</mgrwt>
</event>
<event>
 6    1  0.3125838E-002  0.3000000E+03  0.7818608E-02  0.1093470E+00
          1   -1    0    0  502    0  0.00000000000E+00  0.00000000000E+00  0.25472503031E+01  0.25472503031E+01  0.00000000000E+00 0.  1.
         13   -1    0    0    0    0 -0.00000000000E+00 -0.00000000000E+00 -0.10000000000E+04  0.10000000000E+04  0.00000000000E+00 0.  1.
    9000005    2    1    2  501    0  0.31254233052E+02  0.31848134985E+02 -0.26590097741E+03  0.26963584616E+03  0.30048230557E+01 0.  0.
         13    1    3    3    0    0  0.20819766420E+02  0.21010770572E+02 -0.18458474595E+03  0.18693967902E+03  0.00000000000E+00 0.  1.
          1    1    3    3  501    0  0.10434466632E+02  0.10837364413E+02 -0.81316231464E+02  0.82696167147E+02  0.00000000000E+00 0.  1.
         21    1    1    2  502  501 -0.31254233052E+02 -0.31848134985E+02 -0.73155177228E+03  0.73291140414E+03  0.00000000000E+00 0.  1.
<mgrwt>
<rscale>  1 0.30000000E+03</rscale>
<asrwt>0</asrwt>
<pdfrwt beam="1">  1        1 0.92627479E-02 0.30000000E+03</pdfrwt>
<pdfrwt beam="2">0</pdfrwt>
<totfact> 0.84018777E+02</totfact>
</mgrwt>
</event>
<event>
 6    1  0.3125838E-002  0.3000000E+03  0.7818608E-02  0.1093470E+00
          1   -1    0    0  502    0  0.00000000000E+00  0.00000000000E+00  0.12733662327E+02  0.12733662327E+02  0.00000000000E+00 0.  1.
         13   -1    0    0    0    0 -0.00000000000E+00 -0.00000000000E+00 -0.10000000000E+04  0.10000000000E+04  0.00000000000E+00 0.  1.
    9000005    2    1    2  501    0 -0.21216219218E+02  0.69695900783E+02 -0.88028641037E+03  0.88330278738E+03  0.34645876102E+01 0.  0.
         13    1    3    3    0    0 -0.14228176282E+02  0.44726381498E+02 -0.54798909477E+03  0.54999539834E+03  0.00000000000E+00 0.  1.
          3    1    3    3  501    0 -0.69880429362E+01  0.24969519285E+02 -0.33229731560E+03  0.33330738905E+03  0.00000000000E+00 0.  1.
         21    1    1    2  502  501  0.21216219218E+02 -0.69695900783E+02 -0.10697992730E+03  0.12943087494E+03  0.00000000000E+00 0.  1.
<mgrwt>
<rscale>  1 0.30000000E+03</rscale>
<asrwt>0</asrwt>
<pdfrwt beam="1">  1        1 0.46304324E-01 0.30000000E+03</pdfrwt>
<pdfrwt beam="2">0</pdfrwt>
<totfact> 0.97599760E+01</totfact>
</mgrwt>
</event>
<event>
 6    1  0.3125838E-002  0.3000000E+03  0.7818608E-02  0.1093470E+00
          1   -1    0    0  502    0  0.00000000000E+00  0.00000000000E+00  0.22645813259E+01  0.22645813259E+01  0.00000000000E+00 0.  1.
         13   -1    0    0    0    0 -0.00000000000E+00 -0.00000000000E+00 -0.10000000000E+04  0.10000000000E+04  0.00000000000E+00 0.  1.
    9000005    2    1    2  501    0  0.34583657010E+02  0.29251703726E+02 -0.65112916331E+03  0.65271116944E+03  0.33154029598E+01 0.  0.
         13    1    3    3    0    0  0.12490393301E+02  0.12683778485E+02 -0.25571215081E+03  0.25633102082E+03  0.00000000000E+00 0.  1.
          1    1    3    3  501    0  0.22093263709E+02  0.16567925241E+02 -0.39541701249E+03  0.39638014862E+03  0.00000000000E+00 0.  1.
         21    1    1    2  502  501 -0.34583657010E+02 -0.29251703726E+02 -0.34660625537E+03  0.34955341189E+03  0.00000000000E+00 0.  1.
<mgrwt>
<rscale>  1 0.30000000E+03</rscale>
<asrwt>0</asrwt>
<pdfrwt beam="1">  1        1 0.82348586E-02 0.30000000E+03</pdfrwt>
<pdfrwt beam="2">0</pdfrwt>
<totfact> 0.98919810E+02</totfact>
</mgrwt>
</event>
<event>
 6    1  0.3125838E-002  0.3000000E+03  0.7818608E-02  0.1093470E+00
          1   -1    0    0  502    0  0.00000000000E+00  0.00000000000E+00  0.10605947910E+01  0.10605947910E+01  0.00000000000E+00 0.  1.
         13   -1    0    0    0    0 -0.00000000000E+00 -0.00000000000E+00 -0.10000000000E+04  0.10000000000E+04  0.00000000000E+00 0.  1.
    9000005    2    1    2  501    0  0.23635022439E+02  0.18986237908E+02 -0.68154737610E+03  0.68222397259E+03  0.19056206396E+01 0.  0.
         13    1    3    3    0    0  0.76857239277E+01  0.51250476782E+01 -0.21446857316E+03  0.21466742962E+03  0.00000000000E+00 0.  1.
          1    1    3    3  501    0  0.15949298511E+02  0.13861190230E+02 -0.46707880294E+03  0.46755654297E+03  0.00000000000E+00 0.  1.
         21    1    1    2  502  501 -0.23635022439E+02 -0.18986237908E+02 -0.31739202911E+03  0.31883662220E+03  0.00000000000E+00 0.  1.
<mgrwt>
<rscale>  1 0.30000000E+03</rscale>
<asrwt>0</asrwt>
<pdfrwt beam="1">  1        1 0.38567165E-02 0.30000000E+03</pdfrwt>
<pdfrwt beam="2">0</pdfrwt>
<totfact> 0.28664450E+03</totfact>
</mgrwt>
</event>
<event>
 6    1  0.3125838E-002  0.3000000E+03  0.7818608E-02  0.1093470E+00
          1   -1    0    0  502    0  0.00000000000E+00  0.00000000000E+00  0.36502168617E+01  0.36502168617E+01  0.00000000000E+00 0.  1.
         13   -1    0    0    0    0 -0.00000000000E+00 -0.00000000000E+00 -0.10000000000E+04  0.10000000000E+04  0.00000000000E+00 0.  1.
    9000005    2    1    2  501    0 -0.28399200482E+02  0.15849528165E+02 -0.92104638961E+03  0.92162386007E+03  0.25229966298E+01 0.  0.
         13    1    3    3    0    0 -0.13646983414E+02  0.66934225854E+01 -0.40272878791E+03  0.40301553155E+03  0.00000000000E+00 0.  1.
          3    1    3    3  501    0 -0.14752217068E+02  0.91561055799E+01 -0.51831760170E+03  0.51860832852E+03  0.00000000000E+00 0.  1.
         21    1    1    2  502  501  0.28399200482E+02 -0.15849528165E+02 -0.75303393529E+02  0.82026356789E+02  0.00000000000E+00 0.  1.
<mgrwt>
<rscale>  1 0.30000000E+03</rscale>
<asrwt>0</asrwt>
<pdfrwt beam="1">  1        1 0.13273544E-01 0.30000000E+03</pdfrwt>
<pdfrwt beam="2">0</pdfrwt>
<totfact> 0.51235891E+02</totfact>
</mgrwt>
</event>
<event>
 6    1  0.3125838E-002  0.3000000E+03  0.7818608E-02  0.1093470E+00
          1   -1    0    0  502    0  0.00000000000E+00  0.00000000000E+00  0.19630331167E+01  0.19630331167E+01  0.00000000000E+00 0.  1.
         13   -1    0    0    0    0 -0.00000000000E+00 -0.00000000000E+00 -0.10000000000E+04  0.10000000000E+04  0.00000000000E+00 0.  1.
    9000005    2    1    2  501    0  0.39751163024E+02 -0.19398243687E+02 -0.50463895776E+03  0.50658636610E+03  0.35807551210E+01 0.  0.
         13    1    3    3    0    0  0.27612967437E+02 -0.12320540756E+02 -0.35905888875E+03  0.36032978961E+03  0.00000000000E+00 0.  1.
          1    1    3    3  501    0  0.12138195587E+02 -0.70777029305E+01 -0.14558006901E+03  0.14625657648E+03  0.00000000000E+00 0.  1.
         21    1    1    2  502  501 -0.39751163024E+02  0.19398243687E+02 -0.49339800912E+03  0.49537666702E+03  0.00000000000E+00 0.  1.
<mgrwt>
<rscale>  1 0.30000000E+03</rscale>
<asrwt>0</asrwt>
<pdfrwt beam="1">  1        1 0.71383173E-02 0.30000000E+03</pdfrwt>
<pdfrwt beam="2">0</pdfrwt>
<totfact> 0.12073299E+03</totfact>
</mgrwt>
</event>
<event>
 6    1  0.3125838E-002  0.3000000E+03  0.7818608E-02  0.1093470E+00
          3   -1    0    0  502    0  0.00000000000E+00  0.00000000000E+00  0.20077624107E+01  0.20077624107E+01  0.00000000000E+00 0.  1.
         13   -1    0    0    0    0 -0.00000000000E+00 -0.00000000000E+00 -0.10000000000E+04  0.10000000000E+04  0.00000000000E+00 0.  1.
    9000005    2    1    2  501    0 -0.16333628792E+02  0.27059816725E+02 -0.85384351798E+03  0.85443447731E+03  0.32406338082E+01 0.  0.
         13    1    3    3    0    0 -0.96569646768E+00  0.32977221044E+01 -0.10629391057E+03  0.10634943801E+03  0.00000000000E+00 0.  1.
          3    1    3    3  501    0 -0.15367932324E+02  0.23762094621E+02 -0.74754960741E+03  0.74808503930E+03  0.00000000000E+00 0.  1.
         21    1    1    2  502  501  0.16333628792E+02 -0.27059816725E+02 -0.14414871961E+03  0.14757328510E+03  0.00000000000E+00 0.  1.
<mgrwt>
<rscale>  1 0.30000000E+03</rscale>
<asrwt>0</asrwt>
<pdfrwt beam="1">  1        3 0.73009696E-02 0.30000000E+03</pdfrwt>
<pdfrwt beam="2">0</pdfrwt>
<totfact> 0.54807247E+02</totfact>
</mgrwt>
</event>
<event>
 6    1  0.3125838E-002  0.3000000E+03  0.7818608E-02  0.1093470E+00
          1   -1    0    0  502    0  0.00000000000E+00  0.00000000000E+00  0.25164466280E+01  0.25164466280E+01  0.00000000000E+00 0.  1.
         13   -1    0    0    0    0 -0.00000000000E+00 -0.00000000000E+00 -0.10000000000E+04  0.10000000000E+04  0.00000000000E+00 0.  1.
    9000005    2    1    2  501    0 -0.14465643815E+02  0.34836333776E+02 -0.82845057238E+03  0.82932587626E+03  0.53134878089E+01 0.  0.
         13    1    3    3    0    0 -0.35792666511E+01  0.15428527773E+02 -0.34035472867E+03  0.34072304288E+03  0.00000000000E+00 0.  1.
          3    1    3    3  501    0 -0.10886377164E+02  0.19407806004E+02 -0.48809584371E+03  0.48860283338E+03  0.00000000000E+00 0.  1.
         21    1    1    2  502  501  0.14465643815E+02 -0.34836333776E+02 -0.16903298099E+03  0.17319057037E+03  0.00000000000E+00 0.  1.
<mgrwt>
<rscale>  1 0.30000000E+03</rscale>
<asrwt>0</asrwt>
<pdfrwt beam="1">  1        1 0.91507343E-02 0.30000000E+03</pdfrwt>
<pdfrwt beam="2">0</pdfrwt>
<totfact> 0.85447217E+02</totfact>
</mgrwt>
</event>
<event>
 6    1  0.3125838E-002  0.3000000E+03  0.7818608E-02  0.1093470E+00
          3   -1    0    0  502    0  0.00000000000E+00  0.00000000000E+00  0.12544793506E+02  0.12544793506E+02  0.00000000000E+00 0.  1.
         13   -1    0    0    0    0 -0.00000000000E+00 -0.00000000000E+00 -0.10000000000E+04  0.10000000000E+04  0.00000000000E+00 0.  1.
    9000005    2    1    2  501    0  0.10678163328E+03  0.16971967913E+02 -0.62553548540E+03  0.63481969582E+03  0.33223202889E+01 0.  0.
         13    1    3    3    0    0  0.76536672810E+02  0.11020169751E+02 -0.44140777968E+03  0.44812959552E+03  0.00000000000E+00 0.  1.
          1    1    3    3  501    0  0.30244960470E+02  0.59517981616E+01 -0.18412770572E+03  0.18669010030E+03  0.00000000000E+00 0.  1.
         21    1    1    2  502  501 -0.10678163328E+03 -0.16971967913E+02 -0.36191972110E+03  0.37772509768E+03  0.00000000000E+00 0.  1.
<mgrwt>
<rscale>  1 0.30000000E+03</rscale>
<asrwt>0</asrwt>
<pdfrwt beam="1">  1        3 0.45617527E-01 0.30000000E+03</pdfrwt>
<pdfrwt beam="2">0</pdfrwt>
<totfact> 0.20865288E+01</totfact>
</mgrwt>
</event>
<event>
 6    1  0.3125838E-002  0.3000000E+03  0.7818608E-02  0.1093470E+00
          3   -1    0    0  502    0  0.00000000000E+00  0.00000000000E+00  0.58501021970E+01  0.58501021970E+01  0.00000000000E+00 0.  1.
         13   -1    0    0    0    0 -0.00000000000E+00 -0.00000000000E+00 -0.10000000000E+04  0.10000000000E+04  0.00000000000E+00 0.  1.
    9000005    2    1    2  501    0 -0.13407970211E+02 -0.75256462865E+02 -0.49846152091E+03  0.50430222227E+03  0.36789529356E+01 0.  0.
         13    1    3    3    0    0 -0.13255782544E+02 -0.68601854311E+02 -0.45631818207E+03  0.46163645163E+03  0.00000000000E+00 0.  1.
          1    1    3    3  501    0 -0.15218766676E+00 -0.66546085549E+01 -0.42143338837E+02  0.42665770642E+02  0.00000000000E+00 0.  1.
         21    1    1    2  502  501  0.13407970211E+02  0.75256462865E+02 -0.49568837689E+03  0.50154787992E+03  0.00000000000E+00 0.  1.
<mgrwt>
<rscale>  1 0.30000000E+03</rscale>
<asrwt>0</asrwt>
<pdfrwt beam="1">  1        3 0.21273144E-01 0.30000000E+03</pdfrwt>
<pdfrwt beam="2">0</pdfrwt>
<totfact> 0.89268249E+01</totfact>
</mgrwt>
</event>
<event>
 6    1  0.3125838E-002  0.3000000E+03  0.7818608E-02  0.1093470E+00
          1   -1    0    0  502    0  0.00000000000E+00  0.00000000000E+00  0.20436020217E+02  0.20436020217E+02  0.00000000000E+00 0.  1.
         13   -1    0    0    0    0 -0.00000000000E+00 -0.00000000000E+00 -0.10000000000E+04  0.10000000000E+04  0.00000000000E+00 0.  1.
    9000005    2    1    2  501    0  0.57118887598E+02 -0.12005693856E+03 -0.67716122397E+03  0.69009731140E+03  0.32772153483E+01 0.  0.
         13    1    3    3    0    0  0.20131678760E+02 -0.38898667962E+02 -0.22060081614E+03  0.22490689393E+03  0.00000000000E+00 0.  1.
          1    1    3    3  501    0  0.36987208838E+02 -0.81158270601E+02 -0.45656040783E+03  0.46519041746E+03  0.00000000000E+00 0.  1.
         21    1    1    2  502  501 -0.57118887598E+02  0.12005693856E+03 -0.30240275582E+03  0.33033870882E+03  0.00000000000E+00 0.  1.
<mgrwt>
<rscale>  1 0.30000000E+03</rscale>
<asrwt>0</asrwt>
<pdfrwt beam="1">  1        1 0.74312957E-01 0.30000000E+03</pdfrwt>
<pdfrwt beam="2">0</pdfrwt>
<totfact> 0.51975371E+01</totfact>
</mgrwt>
</event>
<event>
 6    1  0.3125838E-002  0.3000000E+03  0.7818608E-02  0.1093470E+00
          3   -1    0    0  502    0  0.00000000000E+00  0.00000000000E+00  0.42360813116E+01  0.42360813116E+01  0.00000000000E+00 0.  1.
         13   -1    0    0    0    0 -0.00000000000E+00 -0.00000000000E+00 -0.10000000000E+04  0.10000000000E+04  0.00000000000E+00 0.  1.
    9000005    2    1    2  501    0 -0.62156210341E+02  0.23210720610E+01 -0.35113379349E+03  0.35661213165E+03  0.29137006023E+01 0.  0.
         13    1    3    3    0    0 -0.57962015712E+02  0.16918028568E+01 -0.33023087662E+03  0.33528329713E+03  0.00000000000E+00 0.  1.
          1    1    3    3  501    0 -0.41941946292E+01  0.62926920420E+00 -0.20902916873E+02  0.21328834523E+02  0.00000000000E+00 0.  1.
         21    1    1    2  502  501  0.62156210341E+02 -0.23210720610E+01 -0.64463012520E+03  0.64762394966E+03  0.00000000000E+00 0.  1.
<mgrwt>
<rscale>  1 0.30000000E+03</rscale>
<asrwt>0</asrwt>
<pdfrwt beam="1">  1        3 0.15403965E-01 0.30000000E+03</pdfrwt>
<pdfrwt beam="2">0</pdfrwt>
<totfact> 0.15893750E+02</totfact>
</mgrwt>
</event>
<event>
 6    1  0.3125838E-002  0.3000000E+03  0.7818608E-02  0.1093470E+00
          3   -1    0    0  502    0  0.00000000000E+00  0.00000000000E+00  0.30560529202E+01  0.30560529202E+01  0.00000000000E+00 0.  1.
         13   -1    0    0    0    0 -0.00000000000E+00 -0.00000000000E+00 -0.10000000000E+04  0.10000000000E+04  0.00000000000E+00 0.  1.
    9000005    2    1    2  501    0  0.23096992232E+02 -0.42419776424E+02 -0.74191875749E+03  0.74349728152E+03  0.34433181412E+01 0.  0.
         13    1    3    3    0    0  0.98543004265E+01 -0.21696967089E+02 -0.36442190736E+03  0.36520020835E+03  0.00000000000E+00 0.  1.
          3    1    3    3  501    0  0.13242691806E+02 -0.20722809335E+02 -0.37749685012E+03  0.37829707317E+03  0.00000000000E+00 0.  1.
         21    1    1    2  502  501 -0.23096992232E+02  0.42419776424E+02 -0.25502518959E+03  0.25955877140E+03  0.00000000000E+00 0.  1.
<mgrwt>
<rscale>  1 0.30000000E+03</rscale>
<asrwt>0</asrwt>
<pdfrwt beam="1">  1        3 0.11112943E-01 0.30000000E+03</pdfrwt>
<pdfrwt beam="2">0</pdfrwt>
<totfact> 0.27715890E+02</totfact>
</mgrwt>
</event>
<event>
 6    1  0.3125838E-002  0.3000000E+03  0.7818608E-02  0.1093470E+00
          1   -1    0    0  502    0  0.00000000000E+00  0.00000000000E+00  0.13903519811E+02  0.13903519811E+02  0.00000000000E+00 0.  1.
         13   -1    0    0    0    0 -0.00000000000E+00 -0.00000000000E+00 -0.10000000000E+04  0.10000000000E+04  0.00000000000E+00 0.  1.
    9000005    2    1    2  501    0  0.59412133357E+02 -0.35314020654E+01 -0.93066392517E+03  0.93257062028E+03  0.32167996837E+01 0.  0.
         13    1    3    3    0    0  0.36789486523E+02 -0.34620012401E+01 -0.56300862740E+03  0.56421996269E+03  0.00000000000E+00 0.  1.
          1    1    3    3  501    0  0.22622646834E+02 -0.69400825374E-01 -0.36765529778E+03  0.36835065759E+03  0.00000000000E+00 0.  1.
         21    1    1    2  502  501 -0.59412133357E+02  0.35314020654E+01 -0.55432555015E+02  0.81332899531E+02  0.00000000000E+00 0.  1.
<mgrwt>
<rscale>  1 0.30000000E+03</rscale>
<asrwt>0</asrwt>
<pdfrwt beam="1">  1        1 0.50558360E-01 0.30000000E+03</pdfrwt>
<pdfrwt beam="2">0</pdfrwt>
<totfact> 0.86970992E+01</totfact>
</mgrwt>
</event>
<event>
 6    1  0.3125838E-002  0.3000000E+03  0.7818608E-02  0.1093470E+00
          1   -1    0    0  502    0  0.00000000000E+00  0.00000000000E+00  0.23911070931E+01  0.23911070931E+01  0.00000000000E+00 0.  1.
         13   -1    0    0    0    0 -0.00000000000E+00 -0.00000000000E+00 -0.10000000000E+04  0.10000000000E+04  0.00000000000E+00 0.  1.
    9000005    2    1    2  501    0  0.16948937943E+02 -0.26883221765E+02 -0.87959579533E+03  0.88017381981E+03  0.26862271006E+01 0.  0.
         13    1    3    3    0    0  0.14572829257E+02 -0.23406672711E+02 -0.78569420367E+03  0.78617785607E+03  0.00000000000E+00 0.  1.
          3    1    3    3  501    0  0.23761086860E+01 -0.34765490539E+01 -0.93901591654E+02  0.93995963748E+02  0.00000000000E+00 0.  1.
         21    1    1    2  502  501 -0.16948937943E+02  0.26883221765E+02 -0.11801309758E+03  0.12221728728E+03  0.00000000000E+00 0.  1.
<mgrwt>
<rscale>  1 0.30000000E+03</rscale>
<asrwt>0</asrwt>
<pdfrwt beam="1">  1        1 0.86949532E-02 0.30000000E+03</pdfrwt>
<pdfrwt beam="2">0</pdfrwt>
<totfact> 0.91722263E+02</totfact>
</mgrwt>
</event>
<event>
 6    1  0.3125838E-002  0.3000000E+03  0.7818608E-02  0.1093470E+00
          1   -1    0    0  502    0  0.00000000000E+00  0.00000000000E+00  0.71184462967E+02  0.71184462967E+02  0.00000000000E+00 0.  1.
         13   -1    0    0    0    0 -0.00000000000E+00 -0.00000000000E+00 -0.10000000000E+04  0.10000000000E+04  0.00000000000E+00 0.  1.
    9000005    2    1    2  501    0  0.21316225174E+02 -0.29606360106E+02 -0.99496576008E+03  0.99564129635E+03  0.37160804225E+01 0.  0.
         13    1    3    3    0    0  0.16532271309E+02 -0.22083459655E+02 -0.79072323774E+03  0.79120429339E+03  0.00000000000E+00 0.  1.
          3    1    3    3  501    0  0.47839538651E+01 -0.75229004515E+01 -0.20424252234E+03  0.20443700295E+03  0.00000000000E+00 0.  1.
         21    1    1    2  502  501 -0.21316225174E+02  0.29606360106E+02  0.66150223042E+02  0.75543166620E+02  0.00000000000E+00 0.  1.
<mgrwt>
<rscale>  1 0.30000000E+03</rscale>
<asrwt>0</asrwt>
<pdfrwt beam="1">  1        1 0.25885314E+00 0.30000000E+03</pdfrwt>
<pdfrwt beam="2">0</pdfrwt>
<totfact> 0.54250849E+00</totfact>
</mgrwt>
</event>
<event>
 6    1  0.3125838E-002  0.3000000E+03  0.7818608E-02  0.1093470E+00
          1   -1    0    0  502    0  0.00000000000E+00  0.00000000000E+00  0.26673954735E+01  0.26673954735E+01  0.00000000000E+00 0.  1.
         13   -1    0    0    0    0 -0.00000000000E+00 -0.00000000000E+00 -0.10000000000E+04  0.10000000000E+04  0.00000000000E+00 0.  1.
    9000005    2    1    2  501    0  0.31583847354E+02  0.23549191584E+02 -0.82256102555E+03  0.82351045686E+03  0.32753555898E+01 0.  0.
         13    1    3    3    0    0  0.18448771118E+02  0.12341530224E+02 -0.43822435656E+03  0.43878611784E+03  0.00000000000E+00 0.  1.
          3    1    3    3  501    0  0.13135076236E+02  0.11207661360E+02 -0.38433666899E+03  0.38472433902E+03  0.00000000000E+00 0.  1.
         21    1    1    2  502  501 -0.31583847354E+02 -0.23549191584E+02 -0.17477157897E+03  0.17915693862E+03  0.00000000000E+00 0.  1.
<mgrwt>
<rscale>  1 0.30000000E+03</rscale>
<asrwt>0</asrwt>
<pdfrwt beam="1">  1        1 0.96996404E-02 0.30000000E+03</pdfrwt>
<pdfrwt beam="2">0</pdfrwt>
<totfact> 0.78825848E+02</totfact>
</mgrwt>
</event>
<event>
 6    1  0.3125838E-002  0.3000000E+03  0.7818608E-02  0.1093470E+00
          3   -1    0    0  502    0  0.00000000000E+00  0.00000000000E+00  0.31478295510E+01  0.31478295510E+01  0.00000000000E+00 0.  1.
         13   -1    0    0    0    0 -0.00000000000E+00 -0.00000000000E+00 -0.10000000000E+04  0.10000000000E+04  0.00000000000E+00 0.  1.
    9000005    2    1    2  501    0 -0.24353031831E+01  0.38207817602E+02 -0.86492218739E+03  0.86577502126E+03  0.31983078481E+01 0.  0.
         13    1    3    3    0    0  0.44109790879E+00  0.17187012253E+02 -0.37767971262E+03  0.37807083103E+03  0.00000000000E+00 0.  1.
          3    1    3    3  501    0 -0.28764010919E+01  0.21020805349E+02 -0.48724247477E+03  0.48770419022E+03  0.00000000000E+00 0.  1.
         21    1    1    2  502  501  0.24353031831E+01 -0.38207817602E+02 -0.13192998306E+03  0.13737280829E+03  0.00000000000E+00 0.  1.
<mgrwt>
<rscale>  1 0.30000000E+03</rscale>
<asrwt>0</asrwt>
<pdfrwt beam="1">  1        3 0.11446677E-01 0.30000000E+03</pdfrwt>
<pdfrwt beam="2">0</pdfrwt>
<totfact> 0.26375225E+02</totfact>
</mgrwt>
</event>
<event>
 6    1  0.3125838E-002  0.3000000E+03  0.7818608E-02  0.1093470E+00
          1   -1    0    0  502    0  0.00000000000E+00  0.00000000000E+00  0.31796120511E+01  0.31796120511E+01  0.00000000000E+00 0.  1.
         13   -1    0    0    0    0 -0.00000000000E+00 -0.00000000000E+00 -0.10000000000E+04  0.10000000000E+04  0.00000000000E+00 0.  1.
    9000005    2    1    2  501    0  0.21722702928E+01  0.36944814647E+02 -0.87671098801E+03  0.87749784710E+03  0.32675802368E+01 0.  0.
         13    1    3    3    0    0  0.27613564384E+01  0.23726797286E+02 -0.54585134022E+03  0.54637374719E+03  0.00000000000E+00 0.  1.
          3    1    3    3  501    0 -0.58908614562E+00  0.13218017361E+02 -0.33085964778E+03  0.33112409990E+03  0.00000000000E+00 0.  1.
         21    1    1    2  502  501 -0.21722702928E+01 -0.36944814647E+02 -0.12010939994E+03  0.12568176496E+03  0.00000000000E+00 0.  1.
<mgrwt>
<rscale>  1 0.30000000E+03</rscale>
<asrwt>0</asrwt>
<pdfrwt beam="1">  1        1 0.11562250E-01 0.30000000E+03</pdfrwt>
<pdfrwt beam="2">0</pdfrwt>
<totfact> 0.61892390E+02</totfact>
</mgrwt>
</event>
<event>
 6    1  0.3125838E-002  0.3000000E+03  0.7818608E-02  0.1093470E+00
          1   -1    0    0  502    0  0.00000000000E+00  0.00000000000E+00  0.16681914300E+01  0.16681914300E+01  0.00000000000E+00 0.  1.
         13   -1    0    0    0    0 -0.00000000000E+00 -0.00000000000E+00 -0.10000000000E+04  0.10000000000E+04  0.00000000000E+00 0.  1.
    9000005    2    1    2  501    0  0.32735823939E+02 -0.87639972580E+01 -0.77815955439E+03  0.77890315080E+03  0.30633997867E+01 0.  0.
         13    1    3    3    0    0  0.27773394870E+02 -0.65692989547E+01 -0.63579079772E+03  0.63643102975E+03  0.00000000000E+00 0.  1.
          1    1    3    3  501    0  0.49624290689E+01 -0.21946983033E+01 -0.14236875667E+03  0.14247212106E+03  0.00000000000E+00 0.  1.
         21    1    1    2  502  501 -0.32735823939E+02  0.87639972580E+01 -0.22017225418E+03  0.22276504063E+03  0.00000000000E+00 0.  1.
<mgrwt>
<rscale>  1 0.30000000E+03</rscale>
<asrwt>0</asrwt>
<pdfrwt beam="1">  1        1 0.60661634E-02 0.30000000E+03</pdfrwt>
<pdfrwt beam="2">0</pdfrwt>
<totfact> 0.15163387E+03</totfact>
</mgrwt>
</event>
<event>
 6    1  0.3125838E-002  0.3000000E+03  0.7818608E-02  0.1093470E+00
          1   -1    0    0  502    0  0.00000000000E+00  0.00000000000E+00  0.39420055403E+01  0.39420055403E+01  0.00000000000E+00 0.  1.
         13   -1    0    0    0    0 -0.00000000000E+00 -0.00000000000E+00 -0.10000000000E+04  0.10000000000E+04  0.00000000000E+00 0.  1.
    9000005    2    1    2  501    0 -0.13097353730E+02 -0.33159071108E+02 -0.91112932285E+03  0.91183367838E+03  0.35985265261E+01 0.  0.
         13    1    3    3    0    0 -0.12285949508E+02 -0.32353773649E+02 -0.86902554014E+03  0.86971437877E+03  0.00000000000E+00 0.  1.
          3    1    3    3  501    0 -0.81140422232E+00 -0.80529745906E+00 -0.42103782716E+02  0.42119299612E+02  0.00000000000E+00 0.  1.
         21    1    1    2  502  501  0.13097353730E+02  0.33159071108E+02 -0.84928671607E+02  0.92108327161E+02  0.00000000000E+00 0.  1.
<mgrwt>
<rscale>  1 0.30000000E+03</rscale>
<asrwt>0</asrwt>
<pdfrwt beam="1">  1        1 0.14334596E-01 0.30000000E+03</pdfrwt>
<pdfrwt beam="2">0</pdfrwt>
<totfact> 0.46139264E+02</totfact>
</mgrwt>
</event>
<event>
 6    1  0.3125838E-002  0.3000000E+03  0.7818608E-02  0.1093470E+00
          1   -1    0    0  502    0  0.00000000000E+00  0.00000000000E+00  0.33422414550E+01  0.33422414550E+01  0.00000000000E+00 0.  1.
         13   -1    0    0    0    0 -0.00000000000E+00 -0.00000000000E+00 -0.10000000000E+04  0.10000000000E+04  0.00000000000E+00 0.  1.
    9000005    2    1    2  501    0 -0.54327080674E+02 -0.19580371444E+02 -0.48879607946E+03  0.49220790713E+03  0.34919776255E+01 0.  0.
         13    1    3    3    0    0 -0.48465158185E+02 -0.16311935060E+02 -0.43418017564E+03  0.43718117035E+03  0.00000000000E+00 0.  1.
          1    1    3    3  501    0 -0.58619224890E+01 -0.32684363837E+01 -0.54615903813E+02  0.55026736783E+02  0.00000000000E+00 0.  1.
         21    1    1    2  502  501  0.54327080674E+02  0.19580371444E+02 -0.50786167909E+03  0.51113433433E+03  0.00000000000E+00 0.  1.
<mgrwt>
<rscale>  1 0.30000000E+03</rscale>
<asrwt>0</asrwt>
<pdfrwt beam="1">  1        1 0.12153631E-01 0.30000000E+03</pdfrwt>
<pdfrwt beam="2">0</pdfrwt>
<totfact> 0.57800604E+02</totfact>
</mgrwt>
</event>
<event>
 6    1  0.3125838E-002  0.3000000E+03  0.7818608E-02  0.1093470E+00
          3   -1    0    0  502    0  0.00000000000E+00  0.00000000000E+00  0.60142450847E+01  0.60142450847E+01  0.00000000000E+00 0.  1.
         13   -1    0    0    0    0 -0.00000000000E+00 -0.00000000000E+00 -0.10000000000E+04  0.10000000000E+04  0.00000000000E+00 0.  1.
    9000005    2    1    2  501    0  0.68426355089E+01 -0.68005815363E+02 -0.73435818329E+03  0.73754061783E+03  0.35509151539E+01 0.  0.
         13    1    3    3    0    0  0.54269036208E+00 -0.11527290393E+02 -0.11174448831E+03  0.11233878940E+03  0.00000000000E+00 0.  1.
          3    1    3    3  501    0  0.62999451468E+01 -0.56478524970E+02 -0.62261369498E+03  0.62520182843E+03  0.00000000000E+00 0.  1.
         21    1    1    2  502  501 -0.68426355089E+01  0.68005815363E+02 -0.25962757163E+03  0.26847362726E+03  0.00000000000E+00 0.  1.
<mgrwt>
<rscale>  1 0.30000000E+03</rscale>
<asrwt>0</asrwt>
<pdfrwt beam="1">  1        3 0.21870028E-01 0.30000000E+03</pdfrwt>
<pdfrwt beam="2">0</pdfrwt>
<totfact> 0.84810829E+01</totfact>
</mgrwt>
</event>
<event>
 6    1  0.3125838E-002  0.3000000E+03  0.7818608E-02  0.1093470E+00
          1   -1    0    0  502    0  0.00000000000E+00  0.00000000000E+00  0.15066080706E+01  0.15066080706E+01  0.00000000000E+00 0.  1.
         13   -1    0    0    0    0 -0.00000000000E+00 -0.00000000000E+00 -0.10000000000E+04  0.10000000000E+04  0.00000000000E+00 0.  1.
    9000005    2    1    2  501    0  0.75383412541E+01  0.31868834528E+02 -0.76697408024E+03  0.76768265530E+03  0.38691457746E+01 0.  0.
         13    1    3    3    0    0  0.75836110777E+01  0.29273697809E+02 -0.72289705630E+03  0.72352927691E+03  0.00000000000E+00 0.  1.
          3    1    3    3  501    0 -0.45269823567E-01  0.25951367189E+01 -0.44077023940E+02  0.44153378391E+02  0.00000000000E+00 0.  1.
         21    1    1    2  502  501 -0.75383412541E+01 -0.31868834528E+02 -0.23151931169E+03  0.23382395277E+03  0.00000000000E+00 0.  1.
<mgrwt>
<rscale>  1 0.30000000E+03</rscale>
<asrwt>0</asrwt>
<pdfrwt beam="1">  1        1 0.54785864E-02 0.30000000E+03</pdfrwt>
<pdfrwt beam="2">0</pdfrwt>
<totfact> 0.17494360E+03</totfact>
</mgrwt>
</event>
<event>
 6    1  0.3125838E-002  0.3000000E+03  0.7818608E-02  0.1093470E+00
          3   -1    0    0  502    0  0.00000000000E+00  0.00000000000E+00  0.16060842800E+01  0.16060842800E+01  0.00000000000E+00 0.  1.
         13   -1    0    0    0    0 -0.00000000000E+00 -0.00000000000E+00 -0.10000000000E+04  0.10000000000E+04  0.00000000000E+00 0.  1.
    9000005    2    1    2  501    0 -0.32475028333E+02 -0.22695396948E+02 -0.54635294074E+03  0.54783218511E+03  0.69898983125E+01 0.  0.
         13    1    3    3    0    0 -0.25825617024E+02 -0.14973083151E+02 -0.42916608189E+03  0.43020307014E+03  0.00000000000E+00 0.  1.
          1    1    3    3  501    0 -0.66494113087E+01 -0.77223137964E+01 -0.11718685886E+03  0.11762911498E+03  0.00000000000E+00 0.  1.
         21    1    1    2  502  501  0.32475028333E+02  0.22695396948E+02 -0.45204097498E+03  0.45377389917E+03  0.00000000000E+00 0.  1.
<mgrwt>
<rscale>  1 0.30000000E+03</rscale>
<asrwt>0</asrwt>
<pdfrwt beam="1">  1        3 0.58403188E-02 0.30000000E+03</pdfrwt>
<pdfrwt beam="2">0</pdfrwt>
<totfact> 0.77773429E+02</totfact>
</mgrwt>
</event>
<event>
 6    1  0.3125838E-002  0.3000000E+03  0.7818608E-02  0.1093470E+00
          1   -1    0    0  502    0  0.00000000000E+00  0.00000000000E+00  0.12023262387E+01  0.12023262387E+01  0.00000000000E+00 0.  1.
         13   -1    0    0    0    0 -0.00000000000E+00 -0.00000000000E+00 -0.10000000000E+04  0.10000000000E+04  0.00000000000E+00 0.  1.
    9000005    2    1    2  501    0 -0.17247143543E+02  0.25514043207E+02 -0.72764768116E+03  0.72830903419E+03  0.38040786510E+01 0.  0.
         13    1    3    3    0    0 -0.12676053062E+02  0.15574395492E+02 -0.47950555343E+03  0.47992584832E+03  0.00000000000E+00 0.  1.
          3    1    3    3  501    0 -0.45710904809E+01  0.99396477145E+01 -0.24814212773E+03  0.24838318587E+03  0.00000000000E+00 0.  1.
         21    1    1    2  502  501  0.17247143543E+02 -0.25514043207E+02 -0.27114999260E+03  0.27289329205E+03  0.00000000000E+00 0.  1.
<mgrwt>
<rscale>  1 0.30000000E+03</rscale>
<asrwt>0</asrwt>
<pdfrwt beam="1">  1        1 0.43721046E-02 0.30000000E+03</pdfrwt>
<pdfrwt beam="2">0</pdfrwt>
<totfact> 0.24024315E+03</totfact>
</mgrwt>
</event>
<event>
 6    1  0.3125838E-002  0.3000000E+03  0.7818608E-02  0.1093470E+00
          1   -1    0    0  502    0  0.00000000000E+00  0.00000000000E+00  0.33407440981E+01  0.33407440981E+01  0.00000000000E+00 0.  1.
         13   -1    0    0    0    0 -0.00000000000E+00 -0.00000000000E+00 -0.10000000000E+04  0.10000000000E+04  0.00000000000E+00 0.  1.
    9000005    2    1    2  501    0 -0.77218210505E+01 -0.55879113317E+02 -0.60650492329E+03  0.60912949986E+03  0.29023788973E+01 0.  0.
         13    1    3    3    0    0 -0.70020449755E+01 -0.52210839024E+02 -0.55820907283E+03  0.56068919139E+03  0.00000000000E+00 0.  1.
          3    1    3    3  501    0 -0.71977607505E+00 -0.36682742925E+01 -0.48295850456E+02  0.48440308475E+02  0.00000000000E+00 0.  1.
         21    1    1    2  502  501  0.77218210505E+01  0.55879113317E+02 -0.39015433261E+03  0.39421124424E+03  0.00000000000E+00 0.  1.
<mgrwt>
<rscale>  1 0.30000000E+03</rscale>
<asrwt>0</asrwt>
<pdfrwt beam="1">  1        1 0.12148186E-01 0.30000000E+03</pdfrwt>
<pdfrwt beam="2">0</pdfrwt>
<totfact> 0.57836112E+02</totfact>
</mgrwt>
</event>
<event>
 6    1  0.3125838E-002  0.3000000E+03  0.7818608E-02  0.1093470E+00
          3   -1    0    0  502    0  0.00000000000E+00  0.00000000000E+00  0.18963147205E+01  0.18963147205E+01  0.00000000000E+00 0.  1.
         13   -1    0    0    0    0 -0.00000000000E+00 -0.00000000000E+00 -0.10000000000E+04  0.10000000000E+04  0.00000000000E+00 0.  1.
    9000005    2    1    2  501    0 -0.30557793768E+02  0.49155961495E+01 -0.85001928672E+03  0.85061204276E+03  0.70793819924E+01 0.  0.
         13    1    3    3    0    0 -0.10697538923E+02  0.50853631002E+01 -0.29614174275E+03  0.29637852496E+03  0.00000000000E+00 0.  1.
          3    1    3    3  501    0 -0.19860254844E+02 -0.16976695069E+00 -0.55387754397E+03  0.55423351780E+03  0.00000000000E+00 0.  1.
         21    1    1    2  502  501  0.30557793768E+02 -0.49155961495E+01 -0.14808439856E+03  0.15128427196E+03  0.00000000000E+00 0.  1.
<mgrwt>
<rscale>  1 0.30000000E+03</rscale>
<asrwt>0</asrwt>
<pdfrwt beam="1">  1        3 0.68957044E-02 0.30000000E+03</pdfrwt>
<pdfrwt beam="2">0</pdfrwt>
<totfact> 0.59975566E+02</totfact>
</mgrwt>
</event>
<event>
 6    1  0.3125838E-002  0.3000000E+03  0.7818608E-02  0.1093470E+00
          1   -1    0    0  502    0  0.00000000000E+00  0.00000000000E+00  0.27865471581E+01  0.27865471581E+01  0.00000000000E+00 0.  1.
         13   -1    0    0    0    0 -0.00000000000E+00 -0.00000000000E+00 -0.10000000000E+04  0.10000000000E+04  0.00000000000E+00 0.  1.
    9000005    2    1    2  501    0 -0.84948006254E+01 -0.39485665204E+02 -0.82121509953E+03  0.82221329399E+03  0.30301335680E+01 0.  0.
         13    1    3    3    0    0 -0.27430427508E+01 -0.19949544156E+02 -0.40726097515E+03  0.40775851980E+03  0.00000000000E+00 0.  1.
          1    1    3    3  501    0 -0.57517578746E+01 -0.19536121048E+02 -0.41395412439E+03  0.41445477418E+03  0.00000000000E+00 0.  1.
         21    1    1    2  502  501  0.84948006254E+01  0.39485665204E+02 -0.17599835331E+03  0.18057325317E+03  0.00000000000E+00 0.  1.
<mgrwt>
<rscale>  1 0.30000000E+03</rscale>
<asrwt>0</asrwt>
<pdfrwt beam="1">  1        1 0.10132920E-01 0.30000000E+03</pdfrwt>
<pdfrwt beam="2">0</pdfrwt>
<totfact> 0.74209077E+02</totfact>
</mgrwt>
</event>
<event>
 6    1  0.3125838E-002  0.3000000E+03  0.7818608E-02  0.1093470E+00
          1   -1    0    0  502    0  0.00000000000E+00  0.00000000000E+00  0.11553740393E+01  0.11553740393E+01  0.00000000000E+00 0.  1.
         13   -1    0    0    0    0 -0.00000000000E+00 -0.00000000000E+00 -0.10000000000E+04  0.10000000000E+04  0.00000000000E+00 0.  1.
    9000005    2    1    2  501    0 -0.25841379851E+02  0.17396956713E+02 -0.69759427305E+03  0.69829863209E+03  0.35747406516E+01 0.  0.
         13    1    3    3    0    0 -0.24942518827E+02  0.15908816105E+02 -0.66563341863E+03  0.66629052798E+03  0.00000000000E+00 0.  1.
          3    1    3    3  501    0 -0.89886102444E+00  0.14881406084E+01 -0.31960854413E+02  0.32008104106E+02  0.00000000000E+00 0.  1.
         21    1    1    2  502  501  0.25841379851E+02 -0.17396956713E+02 -0.30125035291E+03  0.30285674195E+03  0.00000000000E+00 0.  1.
<mgrwt>
<rscale>  1 0.30000000E+03</rscale>
<asrwt>0</asrwt>
<pdfrwt beam="1">  1        1 0.42013690E-02 0.30000000E+03</pdfrwt>
<pdfrwt beam="2">0</pdfrwt>
<totfact> 0.25410111E+03</totfact>
</mgrwt>
</event>
<event>
 6    1  0.3125838E-002  0.3000000E+03  0.7818608E-02  0.1093470E+00
          1   -1    0    0  502    0  0.00000000000E+00  0.00000000000E+00  0.12906408007E+01  0.12906408007E+01  0.00000000000E+00 0.  1.
         13   -1    0    0    0    0 -0.00000000000E+00 -0.00000000000E+00 -0.10000000000E+04  0.10000000000E+04  0.00000000000E+00 0.  1.
    9000005    2    1    2  501    0 -0.21451436557E+02  0.21895588739E+02 -0.75913785561E+03  0.75976613632E+03  0.38362910736E+01 0.  0.
         13    1    3    3    0    0 -0.80462118992E+00  0.58362398500E+00 -0.46745241690E+02  0.46755808761E+02  0.00000000000E+00 0.  1.
          1    1    3    3  501    0 -0.20646815368E+02  0.21311964754E+02 -0.71239261392E+03  0.71301032756E+03  0.00000000000E+00 0.  1.
         21    1    1    2  502  501  0.21451436557E+02 -0.21895588739E+02 -0.23957150358E+03  0.24152450448E+03  0.00000000000E+00 0.  1.
<mgrwt>
<rscale>  1 0.30000000E+03</rscale>
<asrwt>0</asrwt>
<pdfrwt beam="1">  1        1 0.46932492E-02 0.30000000E+03</pdfrwt>
<pdfrwt beam="2">0</pdfrwt>
<totfact> 0.21743633E+03</totfact>
</mgrwt>
</event>
<event>
 6    1  0.3125838E-002  0.3000000E+03  0.7818608E-02  0.1093470E+00
          3   -1    0    0  502    0  0.00000000000E+00  0.00000000000E+00  0.20586102794E+01  0.20586102794E+01  0.00000000000E+00 0.  1.
         13   -1    0    0    0    0 -0.00000000000E+00 -0.00000000000E+00 -0.10000000000E+04  0.10000000000E+04  0.00000000000E+00 0.  1.
    9000005    2    1    2  501    0 -0.22747100530E+02  0.36879801910E+02 -0.36386388158E+03  0.36650228964E+03  0.70323270316E+01 0.  0.
         13    1    3    3    0    0 -0.13417626858E+02  0.15955235554E+02 -0.15878302582E+03  0.16014571971E+03  0.00000000000E+00 0.  1.
          1    1    3    3  501    0 -0.93294736716E+01  0.20924566356E+02 -0.20508085575E+03  0.20635656993E+03  0.00000000000E+00 0.  1.
         21    1    1    2  502  501  0.22747100530E+02 -0.36879801910E+02 -0.63407750814E+03  0.63555632064E+03  0.00000000000E+00 0.  1.
<mgrwt>
<rscale>  1 0.30000000E+03</rscale>
<asrwt>0</asrwt>
<pdfrwt beam="1">  1        3 0.74858713E-02 0.30000000E+03</pdfrwt>
<pdfrwt beam="2">0</pdfrwt>
<totfact> 0.52676380E+02</totfact>
</mgrwt>
</event>
<event>
 6    1  0.3125838E-002  0.3000000E+03  0.7818608E-02  0.1093470E+00
          1   -1    0    0  502    0  0.00000000000E+00  0.00000000000E+00  0.17394277321E+01  0.17394277321E+01  0.00000000000E+00 0.  1.
         13   -1    0    0    0    0 -0.00000000000E+00 -0.00000000000E+00 -0.10000000000E+04  0.10000000000E+04  0.00000000000E+00 0.  1.
    9000005    2    1    2  501    0  0.35803303725E+00 -0.40282048491E+02 -0.62680682744E+03  0.62810771580E+03  0.31196310278E+01 0.  0.
         13    1    3    3    0    0  0.10402033174E+01 -0.28028895513E+02 -0.41689268828E+03  0.41783515236E+03  0.00000000000E+00 0.  1.
          3    1    3    3  501    0 -0.68217028019E+00 -0.12253152978E+02 -0.20991413917E+03  0.21027256344E+03  0.00000000000E+00 0.  1.
         21    1    1    2  502  501 -0.35803303725E+00  0.40282048491E+02 -0.37145374482E+03  0.37363171193E+03  0.00000000000E+00 0.  1.
<mgrwt>
<rscale>  1 0.30000000E+03</rscale>
<asrwt>0</asrwt>
<pdfrwt beam="1">  1        1 0.63252051E-02 0.30000000E+03</pdfrwt>
<pdfrwt beam="2">0</pdfrwt>
<totfact> 0.14299969E+03</totfact>
</mgrwt>
</event>
<event>
 6    1  0.3125838E-002  0.3000000E+03  0.7818608E-02  0.1093470E+00
          3   -1    0    0  502    0  0.00000000000E+00  0.00000000000E+00  0.12568100534E+01  0.12568100534E+01  0.00000000000E+00 0.  1.
         13   -1    0    0    0    0 -0.00000000000E+00 -0.00000000000E+00 -0.10000000000E+04  0.10000000000E+04  0.00000000000E+00 0.  1.
    9000005    2    1    2  501    0  0.30711110024E+02  0.91332434132E+01 -0.71217359338E+03  0.71290160879E+03  0.32997433431E+01 0.  0.
         13    1    3    3    0    0  0.18021653973E+01  0.12434642507E+01 -0.39068249341E+02  0.39129555454E+02  0.00000000000E+00 0.  1.
          3    1    3    3  501    0  0.28908944627E+02  0.78897791625E+01 -0.67310534403E+03  0.67377205334E+03  0.00000000000E+00 0.  1.
         21    1    1    2  502  501 -0.30711110024E+02 -0.91332434132E+01 -0.28656959657E+03  0.28835520126E+03  0.00000000000E+00 0.  1.
<mgrwt>
<rscale>  1 0.30000000E+03</rscale>
<asrwt>0</asrwt>
<pdfrwt beam="1">  1        3 0.45702280E-02 0.30000000E+03</pdfrwt>
<pdfrwt beam="2">0</pdfrwt>
<totfact> 0.11366005E+03</totfact>
</mgrwt>
</event>
<event>
 6    1  0.3125838E-002  0.3000000E+03  0.7818608E-02  0.1093470E+00
          1   -1    0    0  502    0  0.00000000000E+00  0.00000000000E+00  0.21058528499E+01  0.21058528499E+01  0.00000000000E+00 0.  1.
         13   -1    0    0    0    0 -0.00000000000E+00 -0.00000000000E+00 -0.10000000000E+04  0.10000000000E+04  0.00000000000E+00 0.  1.
    9000005    2    1    2  501    0 -0.34209354302E+02 -0.27628931916E+02 -0.35867499693E+03  0.36137598792E+03  0.33486451473E+01 0.  0.
         13    1    3    3    0    0 -0.19465373155E+02 -0.13601436693E+02 -0.19527437050E+03  0.19671293706E+03  0.00000000000E+00 0.  1.
          1    1    3    3  501    0 -0.14743981147E+02 -0.14027495222E+02 -0.16340062643E+03  0.16466305086E+03  0.00000000000E+00 0.  1.
         21    1    1    2  502  501  0.34209354302E+02  0.27628931916E+02 -0.63921915022E+03  0.64072986493E+03  0.00000000000E+00 0.  1.
<mgrwt>
<rscale>  1 0.30000000E+03</rscale>
<asrwt>0</asrwt>
<pdfrwt beam="1">  1        1 0.76576629E-02 0.30000000E+03</pdfrwt>
<pdfrwt beam="2">0</pdfrwt>
<totfact> 0.10945562E+03</totfact>
</mgrwt>
</event>
<event>
 6    1  0.3125838E-002  0.3000000E+03  0.7818608E-02  0.1093470E+00
          1   -1    0    0  502    0  0.00000000000E+00  0.00000000000E+00  0.11199232208E+01  0.11199232208E+01  0.00000000000E+00 0.  1.
         13   -1    0    0    0    0 -0.00000000000E+00 -0.00000000000E+00 -0.10000000000E+04  0.10000000000E+04  0.00000000000E+00 0.  1.
    9000005    2    1    2  501    0  0.30966985654E+02  0.22764556904E+01 -0.68165899893E+03  0.68238280790E+03  0.48134441679E+01 0.  0.
         13    1    3    3    0    0  0.29391735350E+02  0.24914320330E+01 -0.61750483977E+03  0.61820895212E+03  0.00000000000E+00 0.  1.
          3    1    3    3  501    0  0.15752503040E+01 -0.21497634256E+00 -0.64154159162E+02  0.64173855783E+02  0.00000000000E+00 0.  1.
         21    1    1    2  502  501 -0.30966985654E+02 -0.22764556904E+01 -0.31722107785E+03  0.31873711532E+03  0.00000000000E+00 0.  1.
<mgrwt>
<rscale>  1 0.30000000E+03</rscale>
<asrwt>0</asrwt>
<pdfrwt beam="1">  1        1 0.40724567E-02 0.30000000E+03</pdfrwt>
<pdfrwt beam="2">0</pdfrwt>
<totfact> 0.26549896E+03</totfact>
</mgrwt>
</event>
<event>
 6    1  0.3125838E-002  0.3000000E+03  0.7818608E-02  0.1093470E+00
          1   -1    0    0  502    0  0.00000000000E+00  0.00000000000E+00  0.18490242840E+02  0.18490242840E+02  0.00000000000E+00 0.  1.
         13   -1    0    0    0    0 -0.00000000000E+00 -0.00000000000E+00 -0.10000000000E+04  0.10000000000E+04  0.00000000000E+00 0.  1.
    9000005    2    1    2  501    0 -0.14390346158E+02 -0.38257363516E+02 -0.97640563924E+03  0.97729849675E+03  0.85832102915E+01 0.  0.
         13    1    3    3    0    0 -0.45751854874E+01 -0.53649362318E+01 -0.22276434779E+03  0.22287590608E+03  0.00000000000E+00 0.  1.
          1    1    3    3  501    0 -0.98151606710E+01 -0.32892427285E+02 -0.75364129145E+03  0.75442259068E+03  0.00000000000E+00 0.  1.
         21    1    1    2  502  501  0.14390346158E+02  0.38257363516E+02 -0.51041179224E+01  0.41191746085E+02  0.00000000000E+00 0.  1.
<mgrwt>
<rscale>  1 0.30000000E+03</rscale>
<asrwt>0</asrwt>
<pdfrwt beam="1">  1        1 0.67237388E-01 0.30000000E+03</pdfrwt>
<pdfrwt beam="2">0</pdfrwt>
<totfact> 0.59541846E+01</totfact>
</mgrwt>
</event>
<event>
 6    1  0.3125838E-002  0.3000000E+03  0.7818608E-02  0.1093470E+00
          3   -1    0    0  502    0  0.00000000000E+00  0.00000000000E+00  0.15830945369E+01  0.15830945369E+01  0.00000000000E+00 0.  1.
         13   -1    0    0    0    0 -0.00000000000E+00 -0.00000000000E+00 -0.10000000000E+04  0.10000000000E+04  0.00000000000E+00 0.  1.
    9000005    2    1    2  501    0 -0.17044495495E+02 -0.25125139610E+02 -0.82244244094E+03  0.82300874131E+03  0.31673557072E+01 0.  0.
         13    1    3    3    0    0 -0.42066294722E+00 -0.73012579760E+00 -0.12420930732E+02  0.12449480360E+02  0.00000000000E+00 0.  1.
          1    1    3    3  501    0 -0.16623832548E+02 -0.24395013812E+02 -0.81002151021E+03  0.81055926095E+03  0.00000000000E+00 0.  1.
         21    1    1    2  502  501  0.17044495495E+02  0.25125139610E+02 -0.17597446452E+03  0.17857435323E+03  0.00000000000E+00 0.  1.
<mgrwt>
<rscale>  1 0.30000000E+03</rscale>
<asrwt>0</asrwt>
<pdfrwt beam="1">  1        3 0.57567195E-02 0.30000000E+03</pdfrwt>
<pdfrwt beam="2">0</pdfrwt>
<totfact> 0.79539759E+02</totfact>
</mgrwt>
</event>
<event>
 6    1  0.3125838E-002  0.3000000E+03  0.7818608E-02  0.1093470E+00
          3   -1    0    0  502    0  0.00000000000E+00  0.00000000000E+00  0.12606375865E+01  0.12606375865E+01  0.00000000000E+00 0.  1.
         13   -1    0    0    0    0 -0.00000000000E+00 -0.00000000000E+00 -0.10000000000E+04  0.10000000000E+04  0.00000000000E+00 0.  1.
    9000005    2    1    2  501    0  0.27556759577E+02  0.19098037605E+02 -0.33780293714E+03  0.33947436673E+03  0.28127013158E+01 0.  0.
         13    1    3    3    0    0  0.13557776571E+02  0.89444042833E+01 -0.17732083096E+03  0.17806317071E+03  0.00000000000E+00 0.  1.
          1    1    3    3  501    0  0.13998983006E+02  0.10153633321E+02 -0.16048210618E+03  0.16141119602E+03  0.00000000000E+00 0.  1.
         21    1    1    2  502  501 -0.27556759577E+02 -0.19098037605E+02 -0.66093642528E+03  0.66178627086E+03  0.00000000000E+00 0.  1.
<mgrwt>
<rscale>  1 0.30000000E+03</rscale>
<asrwt>0</asrwt>
<pdfrwt beam="1">  1        3 0.45841463E-02 0.30000000E+03</pdfrwt>
<pdfrwt beam="2">0</pdfrwt>
<totfact> 0.11312775E+03</totfact>
</mgrwt>
</event>
<event>
 6    1  0.3125838E-002  0.3000000E+03  0.7818608E-02  0.1093470E+00
          3   -1    0    0  502    0  0.00000000000E+00  0.00000000000E+00  0.25361261764E+01  0.25361261764E+01  0.00000000000E+00 0.  1.
         13   -1    0    0    0    0 -0.00000000000E+00 -0.00000000000E+00 -0.10000000000E+04  0.10000000000E+04  0.00000000000E+00 0.  1.
    9000005    2    1    2  501    0 -0.27405620572E+02 -0.23092238525E+02 -0.85064339760E+03  0.85140515067E+03  0.34958815841E+01 0.  0.
         13    1    3    3    0    0 -0.42767260067E+01 -0.23497652744E+01 -0.99622514269E+02  0.99741952715E+02  0.00000000000E+00 0.  1.
          1    1    3    3  501    0 -0.23128894565E+02 -0.20742473250E+02 -0.75102088333E+03  0.75166319795E+03  0.00000000000E+00 0.  1.
         21    1    1    2  502  501  0.27405620572E+02  0.23092238525E+02 -0.14682047623E+03  0.15113097551E+03  0.00000000000E+00 0.  1.
<mgrwt>
<rscale>  1 0.30000000E+03</rscale>
<asrwt>0</asrwt>
<pdfrwt beam="1">  1        3 0.92222965E-02 0.30000000E+03</pdfrwt>
<pdfrwt beam="2">0</pdfrwt>
<totfact> 0.37700092E+02</totfact>
</mgrwt>
</event>
<event>
 6    1  0.3125838E-002  0.3000000E+03  0.7818608E-02  0.1093470E+00
          1   -1    0    0  502    0  0.00000000000E+00  0.00000000000E+00  0.11252894017E+01  0.11252894017E+01  0.00000000000E+00 0.  1.
         13   -1    0    0    0    0 -0.00000000000E+00 -0.00000000000E+00 -0.10000000000E+04  0.10000000000E+04  0.00000000000E+00 0.  1.
    9000005    2    1    2  501    0  0.28475657704E+02  0.13022084386E+02 -0.37191934977E+03  0.37338851158E+03  0.10702339948E+02 0.  0.
         13    1    3    3    0    0  0.28503350548E+02  0.10442708935E+02 -0.33152130824E+03  0.33290819903E+03  0.00000000000E+00 0.  1.
          1    1    3    3  501    0 -0.27692844142E-01  0.25793754503E+01 -0.40398041530E+02  0.40480312549E+02  0.00000000000E+00 0.  1.
         21    1    1    2  502  501 -0.28475657704E+02 -0.13022084386E+02 -0.62695536083E+03  0.62773677783E+03  0.00000000000E+00 0.  1.
<mgrwt>
<rscale>  1 0.30000000E+03</rscale>
<asrwt>0</asrwt>
<pdfrwt beam="1">  1        1 0.40919701E-02 0.30000000E+03</pdfrwt>
<pdfrwt beam="2">0</pdfrwt>
<totfact> 0.26371804E+03</totfact>
</mgrwt>
</event>
<event>
 6    1  0.3125838E-002  0.3000000E+03  0.7818608E-02  0.1093470E+00
          3   -1    0    0  502    0  0.00000000000E+00  0.00000000000E+00  0.10331334171E+01  0.10331334171E+01  0.00000000000E+00 0.  1.
         13   -1    0    0    0    0 -0.00000000000E+00 -0.00000000000E+00 -0.10000000000E+04  0.10000000000E+04  0.00000000000E+00 0.  1.
    9000005    2    1    2  501    0  0.31989395740E+02  0.15296330850E+01 -0.52647669625E+03  0.52745882849E+03  0.30729221235E+01 0.  0.
         13    1    3    3    0    0  0.26556129415E+02  0.23883715889E+00 -0.42584386030E+03  0.42667115956E+03  0.00000000000E+00 0.  1.
          1    1    3    3  501    0  0.54332663249E+01  0.12907959261E+01 -0.10063283595E+03  0.10078766893E+03  0.00000000000E+00 0.  1.
         21    1    1    2  502  501 -0.31989395740E+02 -0.15296330850E+01 -0.47249017034E+03  0.47357430492E+03  0.00000000000E+00 0.  1.
<mgrwt>
<rscale>  1 0.30000000E+03</rscale>
<asrwt>0</asrwt>
<pdfrwt beam="1">  1        3 0.37568567E-02 0.30000000E+03</pdfrwt>
<pdfrwt beam="2">0</pdfrwt>
<totfact> 0.15364615E+03</totfact>
</mgrwt>
</event>
<event>
 6    1  0.3125838E-002  0.3000000E+03  0.7818608E-02  0.1093470E+00
          3   -1    0    0  502    0  0.00000000000E+00  0.00000000000E+00  0.48333240517E+01  0.48333240517E+01  0.00000000000E+00 0.  1.
         13   -1    0    0    0    0 -0.00000000000E+00 -0.00000000000E+00 -0.10000000000E+04  0.10000000000E+04  0.00000000000E+00 0.  1.
    9000005    2    1    2  501    0  0.15331639752E+02 -0.34881504191E+02 -0.91776191090E+03  0.91855890047E+03  0.34278306156E+01 0.  0.
         13    1    3    3    0    0  0.79723205061E+01 -0.18916637270E+02 -0.53444556013E+03  0.53483965242E+03  0.00000000000E+00 0.  1.
          3    1    3    3  501    0  0.73593192462E+01 -0.15964866921E+02 -0.38331635076E+03  0.38371924804E+03  0.00000000000E+00 0.  1.
         21    1    1    2  502  501 -0.15331639752E+02  0.34881504191E+02 -0.77404765053E+02  0.86274423586E+02  0.00000000000E+00 0.  1.
<mgrwt>
<rscale>  1 0.30000000E+03</rscale>
<asrwt>0</asrwt>
<pdfrwt beam="1">  1        3 0.17575761E-01 0.30000000E+03</pdfrwt>
<pdfrwt beam="2">0</pdfrwt>
<totfact> 0.12605166E+02</totfact>
</mgrwt>
</event>
<event>
 6    1  0.3125838E-002  0.3000000E+03  0.7818608E-02  0.1093470E+00
          1   -1    0    0  502    0  0.00000000000E+00  0.00000000000E+00  0.37678266788E+02  0.37678266788E+02  0.00000000000E+00 0.  1.
         13   -1    0    0    0    0 -0.00000000000E+00 -0.00000000000E+00 -0.10000000000E+04  0.10000000000E+04  0.00000000000E+00 0.  1.
    9000005    2    1    2  501    0  0.35731972959E+02 -0.92401487832E+01 -0.99051954613E+03  0.99123183642E+03  0.70305062502E+01 0.  0.
         13    1    3    3    0    0  0.24383102476E+01 -0.57997898147E+00 -0.13123535581E+03  0.13125928671E+03  0.00000000000E+00 0.  1.
          1    1    3    3  501    0  0.33293662711E+02 -0.86601698018E+01 -0.85928419032E+03  0.85997254971E+03  0.00000000000E+00 0.  1.
         21    1    1    2  502  501 -0.35731972959E+02  0.92401487832E+01  0.28197812917E+02  0.46446430373E+02  0.00000000000E+00 0.  1.
<mgrwt>
<rscale>  1 0.30000000E+03</rscale>
<asrwt>0</asrwt>
<pdfrwt beam="1">  1        1 0.13701217E+00 0.30000000E+03</pdfrwt>
<pdfrwt beam="2">0</pdfrwt>
<totfact> 0.20979242E+01</totfact>
</mgrwt>
</event>
<event>
 6    1  0.3125838E-002  0.3000000E+03  0.7818608E-02  0.1093470E+00
          1   -1    0    0  502    0  0.00000000000E+00  0.00000000000E+00  0.50176924736E+01  0.50176924736E+01  0.00000000000E+00 0.  1.
         13   -1    0    0    0    0 -0.00000000000E+00 -0.00000000000E+00 -0.10000000000E+04  0.10000000000E+04  0.00000000000E+00 0.  1.
    9000005    2    1    2  501    0  0.33097593280E+02 -0.15988299000E+02 -0.92700583341E+03  0.92773976924E+03  0.31918441638E+01 0.  0.
         13    1    3    3    0    0  0.25779962541E+02 -0.12822447178E+02 -0.69207947880E+03  0.69267815513E+03  0.00000000000E+00 0.  1.
          3    1    3    3  501    0  0.73176307383E+01 -0.31658518212E+01 -0.23492635461E+03  0.23506161411E+03  0.00000000000E+00 0.  1.
         21    1    1    2  502  501 -0.33097593280E+02  0.15988299000E+02 -0.67976474114E+02  0.77277923230E+02  0.00000000000E+00 0.  1.
<mgrwt>
<rscale>  1 0.30000000E+03</rscale>
<asrwt>0</asrwt>
<pdfrwt beam="1">  1        1 0.18246193E-01 0.30000000E+03</pdfrwt>
<pdfrwt beam="2">0</pdfrwt>
<totfact> 0.33295233E+02</totfact>
</mgrwt>
</event>
<event>
 6    1  0.3125838E-002  0.3000000E+03  0.7818608E-02  0.1093470E+00
          1   -1    0    0  502    0  0.00000000000E+00  0.00000000000E+00  0.15993717417E+01  0.15993717417E+01  0.00000000000E+00 0.  1.
         13   -1    0    0    0    0 -0.00000000000E+00 -0.00000000000E+00 -0.10000000000E+04  0.10000000000E+04  0.00000000000E+00 0.  1.
    9000005    2    1    2  501    0  0.33923431363E+02 -0.94657853430E+01 -0.73525251699E+03  0.73610487321E+03  0.37040967489E+01 0.  0.
         13    1    3    3    0    0  0.10860303326E+02 -0.14756973526E+01 -0.21095285651E+03  0.21123738197E+03  0.00000000000E+00 0.  1.
          1    1    3    3  501    0  0.23063128037E+02 -0.79900879903E+01 -0.52429966048E+03  0.52486749124E+03  0.00000000000E+00 0.  1.
         21    1    1    2  502  501 -0.33923431363E+02  0.94657853430E+01 -0.26314811127E+03  0.26549449854E+03  0.00000000000E+00 0.  1.
<mgrwt>
<rscale>  1 0.30000000E+03</rscale>
<asrwt>0</asrwt>
<pdfrwt beam="1">  1        1 0.58159095E-02 0.30000000E+03</pdfrwt>
<pdfrwt beam="2">0</pdfrwt>
<totfact> 0.16086732E+03</totfact>
</mgrwt>
</event>
<event>
 6    1  0.3125838E-002  0.3000000E+03  0.7818608E-02  0.1093470E+00
          1   -1    0    0  502    0  0.00000000000E+00  0.00000000000E+00  0.16296147799E+02  0.16296147799E+02  0.00000000000E+00 0.  1.
         13   -1    0    0    0    0 -0.00000000000E+00 -0.00000000000E+00 -0.10000000000E+04  0.10000000000E+04  0.00000000000E+00 0.  1.
    9000005    2    1    2  501    0  0.63860746730E+01  0.11777369273E+03 -0.68611404591E+03  0.69618504606E+03  0.31160412717E+01 0.  0.
         13    1    3    3    0    0  0.63303309865E+01  0.97817040715E+02 -0.57332317079E+03  0.58164224805E+03  0.00000000000E+00 0.  1.
          1    1    3    3  501    0  0.55743686544E-01  0.19956652012E+02 -0.11279087512E+03  0.11454279801E+03  0.00000000000E+00 0.  1.
         21    1    1    2  502  501 -0.63860746730E+01 -0.11777369273E+03 -0.29758980629E+03  0.32011110174E+03  0.00000000000E+00 0.  1.
<mgrwt>
<rscale>  1 0.30000000E+03</rscale>
<asrwt>0</asrwt>
<pdfrwt beam="1">  1        1 0.59258844E-01 0.30000000E+03</pdfrwt>
<pdfrwt beam="2">0</pdfrwt>
<totfact> 0.70498609E+01</totfact>
</mgrwt>
</event>
<event>
 6    1  0.3125838E-002  0.3000000E+03  0.7818608E-02  0.1093470E+00
          3   -1    0    0  502    0  0.00000000000E+00  0.00000000000E+00  0.14668615667E+01  0.14668615667E+01  0.00000000000E+00 0.  1.
         13   -1    0    0    0    0 -0.00000000000E+00 -0.00000000000E+00 -0.10000000000E+04  0.10000000000E+04  0.00000000000E+00 0.  1.
    9000005    2    1    2  501    0 -0.32767997679E+02 -0.65388594505E+01 -0.74282431470E+03  0.74358413455E+03  0.35922556544E+01 0.  0.
         13    1    3    3    0    0 -0.24817985145E+02 -0.33788294040E+01 -0.55902653461E+03  0.55958736161E+03  0.00000000000E+00 0.  1.
          1    1    3    3  501    0 -0.79500125338E+01 -0.31600300466E+01 -0.18379778009E+03  0.18399677294E+03  0.00000000000E+00 0.  1.
         21    1    1    2  502  501  0.32767997679E+02  0.65388594505E+01 -0.25570882374E+03  0.25788272701E+03  0.00000000000E+00 0.  1.
<mgrwt>
<rscale>  1 0.30000000E+03</rscale>
<asrwt>0</asrwt>
<pdfrwt beam="1">  1        3 0.53340533E-02 0.30000000E+03</pdfrwt>
<pdfrwt beam="2">0</pdfrwt>
<totfact> 0.89529559E+02</totfact>
</mgrwt>
</event>
<event>
 6    1  0.3125838E-002  0.3000000E+03  0.7818608E-02  0.1093470E+00
          3   -1    0    0  502    0  0.00000000000E+00  0.00000000000E+00  0.45664230668E+01  0.45664230668E+01  0.00000000000E+00 0.  1.
         13   -1    0    0    0    0 -0.00000000000E+00 -0.00000000000E+00 -0.10000000000E+04  0.10000000000E+04  0.00000000000E+00 0.  1.
    9000005    2    1    2  501    0 -0.56513280484E+01 -0.67259565765E+02 -0.51677004355E+03  0.52116745236E+03  0.29066796365E+01 0.  0.
         13    1    3    3    0    0 -0.30623010470E+01 -0.43323989171E+02 -0.34213962811E+03  0.34488530100E+03  0.00000000000E+00 0.  1.
          1    1    3    3  501    0 -0.25890270014E+01 -0.23935576595E+02 -0.17463041545E+03  0.17628215136E+03  0.00000000000E+00 0.  1.
         21    1    1    2  502  501  0.56513280484E+01  0.67259565765E+02 -0.47866353338E+03  0.48339897071E+03  0.00000000000E+00 0.  1.
<mgrwt>
<rscale>  1 0.30000000E+03</rscale>
<asrwt>0</asrwt>
<pdfrwt beam="1">  1        3 0.16605210E-01 0.30000000E+03</pdfrwt>
<pdfrwt beam="2">0</pdfrwt>
<totfact> 0.13936496E+02</totfact>
</mgrwt>
</event>
<event>
 6    1  0.3125838E-002  0.3000000E+03  0.7818608E-02  0.1093470E+00
          1   -1    0    0  502    0  0.00000000000E+00  0.00000000000E+00  0.56965401660E+01  0.56965401660E+01  0.00000000000E+00 0.  1.
         13   -1    0    0    0    0 -0.00000000000E+00 -0.00000000000E+00 -0.10000000000E+04  0.10000000000E+04  0.00000000000E+00 0.  1.
    9000005    2    1    2  501    0 -0.12873995584E+02 -0.27840876996E+02 -0.95655618278E+03  0.95705796371E+03  0.44001025295E+01 0.  0.
         13    1    3    3    0    0 -0.10174814061E+02 -0.25329631461E+02 -0.83780559418E+03  0.83825015999E+03  0.00000000000E+00 0.  1.
          1    1    3    3  501    0 -0.26991815239E+01 -0.25112455357E+01 -0.11875058859E+03  0.11880780372E+03  0.00000000000E+00 0.  1.
         21    1    1    2  502  501  0.12873995584E+02  0.27840876996E+02 -0.37747277058E+02  0.48638576454E+02  0.00000000000E+00 0.  1.
<mgrwt>
<rscale>  1 0.30000000E+03</rscale>
<asrwt>0</asrwt>
<pdfrwt beam="1">  1        1 0.20714735E-01 0.30000000E+03</pdfrwt>
<pdfrwt beam="2">0</pdfrwt>
<totfact> 0.28092833E+02</totfact>
</mgrwt>
</event>
<event>
 6    1  0.3125838E-002  0.3000000E+03  0.7818608E-02  0.1093470E+00
          3   -1    0    0  502    0  0.00000000000E+00  0.00000000000E+00  0.24631217475E+01  0.24631217475E+01  0.00000000000E+00 0.  1.
         13   -1    0    0    0    0 -0.00000000000E+00 -0.00000000000E+00 -0.10000000000E+04  0.10000000000E+04  0.00000000000E+00 0.  1.
    9000005    2    1    2  501    0  0.37293537999E+02 -0.18709888086E+02 -0.76980252594E+03  0.77093817036E+03  0.29775319112E+01 0.  0.
         13    1    3    3    0    0  0.29330983298E+02 -0.15536642563E+02 -0.59352476225E+03  0.59445213200E+03  0.00000000000E+00 0.  1.
          3    1    3    3  501    0  0.79625547008E+01 -0.31732455226E+01 -0.17627776369E+03  0.17648603836E+03  0.00000000000E+00 0.  1.
         21    1    1    2  502  501 -0.37293537999E+02  0.18709888086E+02 -0.22773435232E+03  0.23152495138E+03  0.00000000000E+00 0.  1.
<mgrwt>
<rscale>  1 0.30000000E+03</rscale>
<asrwt>0</asrwt>
<pdfrwt beam="1">  1        3 0.89568252E-02 0.30000000E+03</pdfrwt>
<pdfrwt beam="2">0</pdfrwt>
<totfact> 0.39527804E+02</totfact>
</mgrwt>
</event>
<event>
 6    1  0.3125838E-002  0.3000000E+03  0.7818608E-02  0.1093470E+00
          1   -1    0    0  502    0  0.00000000000E+00  0.00000000000E+00  0.49115453468E+01  0.49115453468E+01  0.00000000000E+00 0.  1.
         13   -1    0    0    0    0 -0.00000000000E+00 -0.00000000000E+00 -0.10000000000E+04  0.10000000000E+04  0.00000000000E+00 0.  1.
    9000005    2    1    2  501    0 -0.33027240990E+02 -0.65286913222E+01 -0.93802724285E+03  0.93865896539E+03  0.72195935592E+01 0.  0.
         13    1    3    3    0    0 -0.73150521041E+01 -0.38155254171E+01 -0.28689621692E+03  0.28701482105E+03  0.00000000000E+00 0.  1.
          3    1    3    3  501    0 -0.25712188886E+02 -0.27131659052E+01 -0.65113102593E+03  0.65164414434E+03  0.00000000000E+00 0.  1.
         21    1    1    2  502  501  0.33027240990E+02  0.65286913222E+01 -0.57061211805E+02  0.66252579953E+02  0.00000000000E+00 0.  1.
<mgrwt>
<rscale>  1 0.30000000E+03</rscale>
<asrwt>0</asrwt>
<pdfrwt beam="1">  1        1 0.17860203E-01 0.30000000E+03</pdfrwt>
<pdfrwt beam="2">0</pdfrwt>
<totfact> 0.34265913E+02</totfact>
</mgrwt>
</event>
<event>
 6    1  0.3125838E-002  0.3000000E+03  0.7818608E-02  0.1093470E+00
          1   -1    0    0  502    0  0.00000000000E+00  0.00000000000E+00  0.22826496548E+01  0.22826496548E+01  0.00000000000E+00 0.  1.
         13   -1    0    0    0    0 -0.00000000000E+00 -0.00000000000E+00 -0.10000000000E+04  0.10000000000E+04  0.00000000000E+00 0.  1.
    9000005    2    1    2  501    0  0.25759483410E+02  0.40096124820E+02 -0.52462205093E+03  0.52679299410E+03  0.33633464719E+01 0.  0.
         13    1    3    3    0    0  0.32469394963E+01  0.32414144286E+01 -0.49130504987E+02  0.49344259077E+02  0.00000000000E+00 0.  1.
          3    1    3    3  501    0  0.22512543914E+02  0.36854710391E+02 -0.47549154594E+03  0.47744873502E+03  0.00000000000E+00 0.  1.
         21    1    1    2  502  501 -0.25759483410E+02 -0.40096124820E+02 -0.47309529942E+03  0.47548965556E+03  0.00000000000E+00 0.  1.
<mgrwt>
<rscale>  1 0.30000000E+03</rscale>
<asrwt>0</asrwt>
<pdfrwt beam="1">  1        1 0.83005617E-02 0.30000000E+03</pdfrwt>
<pdfrwt beam="2">0</pdfrwt>
<totfact> 0.97832596E+02</totfact>
</mgrwt>
</event>
<event>
 6    1  0.3125838E-002  0.3000000E+03  0.7818608E-02  0.1093470E+00
          1   -1    0    0  502    0  0.00000000000E+00  0.00000000000E+00  0.14309232979E+01  0.14309232979E+01  0.00000000000E+00 0.  1.
         13   -1    0    0    0    0 -0.00000000000E+00 -0.00000000000E+00 -0.10000000000E+04  0.10000000000E+04  0.00000000000E+00 0.  1.
    9000005    2    1    2  501    0  0.24818958577E+01 -0.31727970020E+02 -0.76913947411E+03  0.76980457239E+03  0.32749277930E+01 0.  0.
         13    1    3    3    0    0  0.16585074230E+01 -0.29492162501E+02 -0.69666292197E+03  0.69728886779E+03  0.00000000000E+00 0.  1.
          1    1    3    3  501    0  0.82338843468E+00 -0.22358075188E+01 -0.72476552138E+02  0.72515704600E+02  0.00000000000E+00 0.  1.
         21    1    1    2  502  501 -0.24818958577E+01  0.31727970020E+02 -0.22942960259E+03  0.23162635090E+03  0.00000000000E+00 0.  1.
<mgrwt>
<rscale>  1 0.30000000E+03</rscale>
<asrwt>0</asrwt>
<pdfrwt beam="1">  1        1 0.52033684E-02 0.30000000E+03</pdfrwt>
<pdfrwt beam="2">0</pdfrwt>
<totfact> 0.18807819E+03</totfact>
</mgrwt>
</event>
<event>
 6    1  0.3125838E-002  0.3000000E+03  0.7818608E-02  0.1093470E+00
          3   -1    0    0  502    0  0.00000000000E+00  0.00000000000E+00  0.14120261979E+01  0.14120261979E+01  0.00000000000E+00 0.  1.
         13   -1    0    0    0    0 -0.00000000000E+00 -0.00000000000E+00 -0.10000000000E+04  0.10000000000E+04  0.00000000000E+00 0.  1.
    9000005    2    1    2  501    0 -0.28494032703E+02 -0.24031742424E+02 -0.55575817915E+03  0.55701618736E+03  0.32318333715E+01 0.  0.
         13    1    3    3    0    0 -0.94279568457E+01 -0.76153707745E+01 -0.20360214516E+03  0.20396253028E+03  0.00000000000E+00 0.  1.
          3    1    3    3  501    0 -0.19066075857E+02 -0.16416371650E+02 -0.35215603398E+03  0.35305365708E+03  0.00000000000E+00 0.  1.
         21    1    1    2  502  501  0.28494032703E+02  0.24031742424E+02 -0.44282979465E+03  0.44439583884E+03  0.00000000000E+00 0.  1.
<mgrwt>
<rscale>  1 0.30000000E+03</rscale>
<asrwt>0</asrwt>
<pdfrwt beam="1">  1        3 0.51346515E-02 0.30000000E+03</pdfrwt>
<pdfrwt beam="2">0</pdfrwt>
<totfact> 0.94961498E+02</totfact>
</mgrwt>
</event>
<event>
 6    1  0.3125838E-002  0.3000000E+03  0.7818608E-02  0.1093470E+00
          1   -1    0    0  502    0  0.00000000000E+00  0.00000000000E+00  0.33985394435E+01  0.33985394435E+01  0.00000000000E+00 0.  1.
         13   -1    0    0    0    0 -0.00000000000E+00 -0.00000000000E+00 -0.10000000000E+04  0.10000000000E+04  0.00000000000E+00 0.  1.
    9000005    2    1    2  501    0  0.13039422498E+02  0.52665321002E+02 -0.68117142166E+03  0.68333640171E+03  0.32356813416E+01 0.  0.
         13    1    3    3    0    0  0.82152631789E+01  0.27695055450E+02 -0.37394522229E+03  0.37505937653E+03  0.00000000000E+00 0.  1.
          1    1    3    3  501    0  0.48241593194E+01  0.24970265552E+02 -0.30722619937E+03  0.30827702518E+03  0.00000000000E+00 0.  1.
         21    1    1    2  502  501 -0.13039422498E+02 -0.52665321002E+02 -0.31543003890E+03  0.32006213774E+03  0.00000000000E+00 0.  1.
<mgrwt>
<rscale>  1 0.30000000E+03</rscale>
<asrwt>0</asrwt>
<pdfrwt beam="1">  1        1 0.12358351E-01 0.30000000E+03</pdfrwt>
<pdfrwt beam="2">0</pdfrwt>
<totfact> 0.56492791E+02</totfact>
</mgrwt>
</event>
<event>
 6    1  0.3125838E-002  0.3000000E+03  0.7818608E-02  0.1093470E+00
          1   -1    0    0  502    0  0.00000000000E+00  0.00000000000E+00  0.11229363784E+01  0.11229363784E+01  0.00000000000E+00 0.  1.
         13   -1    0    0    0    0 -0.00000000000E+00 -0.00000000000E+00 -0.10000000000E+04  0.10000000000E+04  0.00000000000E+00 0.  1.
    9000005    2    1    2  501    0  0.15160908396E+02  0.27862138924E+02 -0.65758421281E+03  0.65835922484E+03  0.37040617345E+01 0.  0.
         13    1    3    3    0    0  0.93491843119E+01  0.14341648959E+02 -0.32764364773E+03  0.32809061255E+03  0.00000000000E+00 0.  1.
          1    1    3    3  501    0  0.58117240837E+01  0.13520489965E+02 -0.32994056507E+03  0.33026861230E+03  0.00000000000E+00 0.  1.
         21    1    1    2  502  501 -0.15160908396E+02 -0.27862138924E+02 -0.34129285081E+03  0.34276371153E+03  0.00000000000E+00 0.  1.
<mgrwt>
<rscale>  1 0.30000000E+03</rscale>
<asrwt>0</asrwt>
<pdfrwt beam="1">  1        1 0.40834136E-02 0.30000000E+03</pdfrwt>
<pdfrwt beam="2">0</pdfrwt>
<totfact> 0.26449644E+03</totfact>
</mgrwt>
</event>
<event>
 6    1  0.3125838E-002  0.3000000E+03  0.7818608E-02  0.1093470E+00
          3   -1    0    0  502    0  0.00000000000E+00  0.00000000000E+00  0.21733701471E+01  0.21733701471E+01  0.00000000000E+00 0.  1.
         13   -1    0    0    0    0 -0.00000000000E+00 -0.00000000000E+00 -0.10000000000E+04  0.10000000000E+04  0.00000000000E+00 0.  1.
    9000005    2    1    2  501    0  0.13133416573E+00  0.40582670884E+02 -0.74486306142E+03  0.74597513171E+03  0.33085396785E+01 0.  0.
         13    1    3    3    0    0  0.11056883917E+01  0.21482870266E+02 -0.41777671136E+03  0.41833015289E+03  0.00000000000E+00 0.  1.
          1    1    3    3  501    0 -0.97435422592E+00  0.19099800618E+02 -0.32708635005E+03  0.32764497881E+03  0.00000000000E+00 0.  1.
         21    1    1    2  502  501 -0.13133416573E+00 -0.40582670884E+02 -0.25296356844E+03  0.25619823844E+03  0.00000000000E+00 0.  1.
<mgrwt>
<rscale>  1 0.30000000E+03</rscale>
<asrwt>0</asrwt>
<pdfrwt beam="1">  1        3 0.79031808E-02 0.30000000E+03</pdfrwt>
<pdfrwt beam="2">0</pdfrwt>
<totfact> 0.48320761E+02</totfact>
</mgrwt>
</event>
<event>
 6    1  0.3125838E-002  0.3000000E+03  0.7818608E-02  0.1093470E+00
          3   -1    0    0  502    0  0.00000000000E+00  0.00000000000E+00  0.36705757225E+01  0.36705757225E+01  0.00000000000E+00 0.  1.
         13   -1    0    0    0    0 -0.00000000000E+00 -0.00000000000E+00 -0.10000000000E+04  0.10000000000E+04  0.00000000000E+00 0.  1.
    9000005    2    1    2  501    0 -0.14973347827E+02  0.26555834638E+02 -0.93158675456E+03  0.93210922595E+03  0.66569016963E+01 0.  0.
         13    1    3    3    0    0 -0.93120373488E+01  0.11506012909E+02 -0.51376081474E+03  0.51397400434E+03  0.00000000000E+00 0.  1.
          3    1    3    3  501    0 -0.56613104783E+01  0.15049821728E+02 -0.41782593982E+03  0.41813522161E+03  0.00000000000E+00 0.  1.
         21    1    1    2  502  501  0.14973347827E+02 -0.26555834638E+02 -0.64742669720E+02  0.71561349770E+02  0.00000000000E+00 0.  1.
<mgrwt>
<rscale>  1 0.30000000E+03</rscale>
<asrwt>0</asrwt>
<pdfrwt beam="1">  1        3 0.13347576E-01 0.30000000E+03</pdfrwt>
<pdfrwt beam="2">0</pdfrwt>
<totfact> 0.20340474E+02</totfact>
</mgrwt>
</event>
<event>
 6    1  0.3125838E-002  0.3000000E+03  0.7818608E-02  0.1093470E+00
          3   -1    0    0  502    0  0.00000000000E+00  0.00000000000E+00  0.18041007366E+02  0.18041007366E+02  0.00000000000E+00 0.  1.
         13   -1    0    0    0    0 -0.00000000000E+00 -0.00000000000E+00 -0.10000000000E+04  0.10000000000E+04  0.00000000000E+00 0.  1.
    9000005    2    1    2  501    0  0.88617024910E+02  0.15941587681E+02 -0.86863332850E+03  0.87330048963E+03  0.47722631131E+01 0.  0.
         13    1    3    3    0    0  0.76693942292E+02  0.13442980064E+02 -0.73480136568E+03  0.73891523296E+03  0.00000000000E+00 0.  1.
          1    1    3    3  501    0  0.11923082618E+02  0.24986076173E+01 -0.13383196282E+03  0.13438525668E+03  0.00000000000E+00 0.  1.
         21    1    1    2  502  501 -0.88617024910E+02 -0.15941587681E+02 -0.11332566414E+03  0.14474051773E+03  0.00000000000E+00 0.  1.
<mgrwt>
<rscale>  1 0.30000000E+03</rscale>
<asrwt>0</asrwt>
<pdfrwt beam="1">  1        3 0.65603801E-01 0.30000000E+03</pdfrwt>
<pdfrwt beam="2">0</pdfrwt>
<totfact> 0.10200514E+01</totfact>
</mgrwt>
</event>
<event>
 6    1  0.3125838E-002  0.3000000E+03  0.7818608E-02  0.1093470E+00
          1   -1    0    0  502    0  0.00000000000E+00  0.00000000000E+00  0.28580881656E+01  0.28580881656E+01  0.00000000000E+00 0.  1.
         13   -1    0    0    0    0 -0.00000000000E+00 -0.00000000000E+00 -0.10000000000E+04  0.10000000000E+04  0.00000000000E+00 0.  1.
    9000005    2    1    2  501    0  0.32599239328E+02  0.16911931344E+02 -0.86238124572E+03  0.86318289009E+03  0.58791958495E+01 0.  0.
         13    1    3    3    0    0  0.30833062569E+02  0.15722929479E+02 -0.83588819576E+03  0.83660442508E+03  0.00000000000E+00 0.  1.
          3    1    3    3  501    0  0.17661767583E+01  0.11890018651E+01 -0.26493049962E+02  0.26578465006E+02  0.00000000000E+00 0.  1.
         21    1    1    2  502  501 -0.32599239328E+02 -0.16911931344E+02 -0.13476066612E+03  0.13967519808E+03  0.00000000000E+00 0.  1.
<mgrwt>
<rscale>  1 0.30000000E+03</rscale>
<asrwt>0</asrwt>
<pdfrwt beam="1">  1        1 0.10393070E-01 0.30000000E+03</pdfrwt>
<pdfrwt beam="2">0</pdfrwt>
<totfact> 0.71660560E+02</totfact>
</mgrwt>
</event>
<event>
 6    1  0.3125838E-002  0.3000000E+03  0.7818608E-02  0.1093470E+00
          1   -1    0    0  502    0  0.00000000000E+00  0.00000000000E+00  0.15371012497E+01  0.15371012497E+01  0.00000000000E+00 0.  1.
         13   -1    0    0    0    0 -0.00000000000E+00 -0.00000000000E+00 -0.10000000000E+04  0.10000000000E+04  0.00000000000E+00 0.  1.
    9000005    2    1    2  501    0  0.38128910124E+02  0.46152586970E+01 -0.59696566628E+03  0.59820703532E+03  0.29216418854E+01 0.  0.
         13    1    3    3    0    0  0.36815680828E+02  0.39116291194E+01 -0.57573267711E+03  0.57692184106E+03  0.00000000000E+00 0.  1.
          3    1    3    3  501    0  0.13132292960E+01  0.70362957765E+00 -0.21232989173E+02  0.21285194267E+02  0.00000000000E+00 0.  1.
         21    1    1    2  502  501 -0.38128910124E+02 -0.46152586970E+01 -0.40149723247E+03  0.40333006593E+03  0.00000000000E+00 0.  1.
<mgrwt>
<rscale>  1 0.30000000E+03</rscale>
<asrwt>0</asrwt>
<pdfrwt beam="1">  1        1 0.55894709E-02 0.30000000E+03</pdfrwt>
<pdfrwt beam="2">0</pdfrwt>
<totfact> 0.17009009E+03</totfact>
</mgrwt>
</event>
<event>
 6    1  0.3125838E-002  0.3000000E+03  0.7818608E-02  0.1093470E+00
          1   -1    0    0  502    0  0.00000000000E+00  0.00000000000E+00  0.19226372020E+01  0.19226372020E+01  0.00000000000E+00 0.  1.
         13   -1    0    0    0    0 -0.00000000000E+00 -0.00000000000E+00 -0.10000000000E+04  0.10000000000E+04  0.00000000000E+00 0.  1.
    9000005    2    1    2  501    0 -0.34152831765E+02  0.10425722590E+02 -0.78801867875E+03  0.78885043734E+03  0.60384457554E+01 0.  0.
         13    1    3    3    0    0 -0.25713573376E+02  0.93228637260E+01 -0.55005793290E+03  0.55073753566E+03  0.00000000000E+00 0.  1.
          3    1    3    3  501    0 -0.84392583892E+01  0.11028588637E+01 -0.23796074585E+03  0.23811290168E+03  0.00000000000E+00 0.  1.
         21    1    1    2  502  501  0.34152831765E+02 -0.10425722590E+02 -0.21005868405E+03  0.21307219986E+03  0.00000000000E+00 0.  1.
<mgrwt>
<rscale>  1 0.30000000E+03</rscale>
<asrwt>0</asrwt>
<pdfrwt beam="1">  1        1 0.69914228E-02 0.30000000E+03</pdfrwt>
<pdfrwt beam="2">0</pdfrwt>
<totfact> 0.12429405E+03</totfact>
</mgrwt>
</event>
<event>
 6    1  0.3125838E-002  0.3000000E+03  0.7818608E-02  0.1093470E+00
          3   -1    0    0  502    0  0.00000000000E+00  0.00000000000E+00  0.11531716123E+01  0.11531716123E+01  0.00000000000E+00 0.  1.
         13   -1    0    0    0    0 -0.00000000000E+00 -0.00000000000E+00 -0.10000000000E+04  0.10000000000E+04  0.00000000000E+00 0.  1.
    9000005    2    1    2  501    0  0.21959230119E+02  0.23643164706E+02 -0.34826896681E+03  0.34977558449E+03  0.32371655272E+01 0.  0.
         13    1    3    3    0    0  0.15503732592E+02  0.18310943535E+02 -0.24822222863E+03  0.24937909127E+03  0.00000000000E+00 0.  1.
          3    1    3    3  501    0  0.64554975271E+01  0.53322211707E+01 -0.10004673818E+03  0.10039649322E+03  0.00000000000E+00 0.  1.
         21    1    1    2  502  501 -0.21959230119E+02 -0.23643164706E+02 -0.65057786158E+03  0.65137758712E+03  0.00000000000E+00 0.  1.
<mgrwt>
<rscale>  1 0.30000000E+03</rscale>
<asrwt>0</asrwt>
<pdfrwt beam="1">  1        3 0.41933602E-02 0.30000000E+03</pdfrwt>
<pdfrwt beam="2">0</pdfrwt>
<totfact> 0.12976630E+03</totfact>
</mgrwt>
</event>
<event>
 6    1  0.3125838E-002  0.3000000E+03  0.7818608E-02  0.1093470E+00
          1   -1    0    0  502    0  0.00000000000E+00  0.00000000000E+00  0.95792457336E+01  0.95792457336E+01  0.00000000000E+00 0.  1.
         13   -1    0    0    0    0 -0.00000000000E+00 -0.00000000000E+00 -0.10000000000E+04  0.10000000000E+04  0.00000000000E+00 0.  1.
    9000005    2    1    2  501    0 -0.75484086060E+02  0.54037324866E+02 -0.65426110923E+03  0.66083695309E+03  0.54772065833E+01 0.  0.
         13    1    3    3    0    0 -0.43313702282E+02  0.33961755729E+02 -0.39596112637E+03  0.39976829696E+03  0.00000000000E+00 0.  1.
          3    1    3    3  501    0 -0.32170383779E+02  0.20075569137E+02 -0.25829998286E+03  0.26106865613E+03  0.00000000000E+00 0.  1.
         21    1    1    2  502  501  0.75484086060E+02 -0.54037324866E+02 -0.33615964504E+03  0.34874229264E+03  0.00000000000E+00 0.  1.
<mgrwt>
<rscale>  1 0.30000000E+03</rscale>
<asrwt>0</asrwt>
<pdfrwt beam="1">  1        1 0.34833694E-01 0.30000000E+03</pdfrwt>
<pdfrwt beam="2">0</pdfrwt>
<totfact> 0.14160071E+02</totfact>
</mgrwt>
</event>
<event>
 6    1  0.3125838E-002  0.3000000E+03  0.7818608E-02  0.1093470E+00
          3   -1    0    0  502    0  0.00000000000E+00  0.00000000000E+00  0.13754756352E+01  0.13754756352E+01  0.00000000000E+00 0.  1.
         13   -1    0    0    0    0 -0.00000000000E+00 -0.00000000000E+00 -0.10000000000E+04  0.10000000000E+04  0.00000000000E+00 0.  1.
    9000005    2    1    2  501    0  0.64288212931E+01  0.33604961340E+02 -0.69110817185E+03  0.69196162618E+03  0.31246983198E+01 0.  0.
         13    1    3    3    0    0  0.16108296897E+01  0.85888221212E+01 -0.15043799644E+03  0.15069158374E+03  0.00000000000E+00 0.  1.
          3    1    3    3  501    0  0.48179916034E+01  0.25016139219E+02 -0.54067017541E+03  0.54127004244E+03  0.00000000000E+00 0.  1.
         21    1    1    2  502  501 -0.64288212931E+01 -0.33604961340E+02 -0.30751635251E+03  0.30941384945E+03  0.00000000000E+00 0.  1.
<mgrwt>
<rscale>  1 0.30000000E+03</rscale>
<asrwt>0</asrwt>
<pdfrwt beam="1">  1        3 0.50017401E-02 0.30000000E+03</pdfrwt>
<pdfrwt beam="2">0</pdfrwt>
<totfact> 0.98886333E+02</totfact>
</mgrwt>
</event>
<event>
 6    1  0.3125838E-002  0.3000000E+03  0.7818608E-02  0.1093470E+00
          1   -1    0    0  502    0  0.00000000000E+00  0.00000000000E+00  0.93421354247E+00  0.93421354247E+00  0.00000000000E+00 0.  1.
         13   -1    0    0    0    0 -0.00000000000E+00 -0.00000000000E+00 -0.10000000000E+04  0.10000000000E+04  0.00000000000E+00 0.  1.
    9000005    2    1    2  501    0  0.13338218038E+02  0.27233779844E+02 -0.45484403025E+03  0.45586824803E+03  0.36305491854E+01 0.  0.
         13    1    3    3    0    0  0.25179540108E+01  0.79791579787E+01 -0.11014014717E+03  0.11045749895E+03  0.00000000000E+00 0.  1.
          3    1    3    3  501    0  0.10820264027E+02  0.19254621865E+02 -0.34470388308E+03  0.34541074909E+03  0.00000000000E+00 0.  1.
         21    1    1    2  502  501 -0.13338218038E+02 -0.27233779844E+02 -0.54422175621E+03  0.54506596551E+03  0.00000000000E+00 0.  1.
<mgrwt>
<rscale>  1 0.30000000E+03</rscale>
<asrwt>0</asrwt>
<pdfrwt beam="1">  1        1 0.33971473E-02 0.30000000E+03</pdfrwt>
<pdfrwt beam="2">0</pdfrwt>
<totfact> 0.34266346E+03</totfact>
</mgrwt>
</event>
<event>
 6    1  0.3125838E-002  0.3000000E+03  0.7818608E-02  0.1093470E+00
          1   -1    0    0  502    0  0.00000000000E+00  0.00000000000E+00  0.11298881024E+01  0.11298881024E+01  0.00000000000E+00 0.  1.
         13   -1    0    0    0    0 -0.00000000000E+00 -0.00000000000E+00 -0.10000000000E+04  0.10000000000E+04  0.00000000000E+00 0.  1.
    9000005    2    1    2  501    0  0.52268052582E+01 -0.30172139868E+02 -0.70477195292E+03  0.70544186902E+03  0.26546977399E+01 0.  0.
         13    1    3    3    0    0  0.44238806216E+01 -0.23067874736E+02 -0.56302100150E+03  0.56351073255E+03  0.00000000000E+00 0.  1.
          1    1    3    3  501    0  0.80292463668E+00 -0.71042651320E+01 -0.14175095142E+03  0.14193113647E+03  0.00000000000E+00 0.  1.
         21    1    1    2  502  501 -0.52268052582E+01  0.30172139868E+02 -0.29409815898E+03  0.29568801908E+03  0.00000000000E+00 0.  1.
<mgrwt>
<rscale>  1 0.30000000E+03</rscale>
<asrwt>0</asrwt>
<pdfrwt beam="1">  1        1 0.41086927E-02 0.30000000E+03</pdfrwt>
<pdfrwt beam="2">0</pdfrwt>
<totfact> 0.26220803E+03</totfact>
</mgrwt>
</event>
<event>
 6    1  0.3125838E-002  0.3000000E+03  0.7818608E-02  0.1093470E+00
          1   -1    0    0  502    0  0.00000000000E+00  0.00000000000E+00  0.13460183240E+01  0.13460183240E+01  0.00000000000E+00 0.  1.
         13   -1    0    0    0    0 -0.00000000000E+00 -0.00000000000E+00 -0.10000000000E+04  0.10000000000E+04  0.00000000000E+00 0.  1.
    9000005    2    1    2  501    0 -0.32669287210E+02  0.12491473447E+02 -0.64469734645E+03  0.64566551724E+03  0.50963112929E+01 0.  0.
         13    1    3    3    0    0 -0.54075395403E+00  0.92870254483E+00 -0.12239775487E+02  0.12286863197E+02  0.00000000000E+00 0.  1.
          3    1    3    3  501    0 -0.32128533255E+02  0.11562770902E+02 -0.63245757096E+03  0.63337865404E+03  0.00000000000E+00 0.  1.
         21    1    1    2  502  501  0.32669287210E+02 -0.12491473447E+02 -0.35395663522E+03  0.35568050109E+03  0.00000000000E+00 0.  1.
<mgrwt>
<rscale>  1 0.30000000E+03</rscale>
<asrwt>0</asrwt>
<pdfrwt beam="1">  1        1 0.48946224E-02 0.30000000E+03</pdfrwt>
<pdfrwt beam="2">0</pdfrwt>
<totfact> 0.20496229E+03</totfact>
</mgrwt>
</event>
<event>
 6    1  0.3125838E-002  0.3000000E+03  0.7818608E-02  0.1093470E+00
          1   -1    0    0  502    0  0.00000000000E+00  0.00000000000E+00  0.11063227165E+02  0.11063227165E+02  0.00000000000E+00 0.  1.
         13   -1    0    0    0    0 -0.00000000000E+00 -0.00000000000E+00 -0.10000000000E+04  0.10000000000E+04  0.00000000000E+00 0.  1.
    9000005    2    1    2  501    0  0.38922219979E+02 -0.78609369600E+02 -0.77332373455E+03  0.77829004470E+03  0.33798019321E+01 0.  0.
         13    1    3    3    0    0  0.93606193710E+01 -0.15822530482E+02 -0.16317772554E+03  0.16421005992E+03  0.00000000000E+00 0.  1.
          1    1    3    3  501    0  0.29561600608E+02 -0.62786839118E+02 -0.61014600901E+03  0.61407998478E+03  0.00000000000E+00 0.  1.
         21    1    1    2  502  501 -0.38922219979E+02  0.78609369600E+02 -0.21561303828E+03  0.23277318247E+03  0.00000000000E+00 0.  1.
<mgrwt>
<rscale>  1 0.30000000E+03</rscale>
<asrwt>0</asrwt>
<pdfrwt beam="1">  1        1 0.40230002E-01 0.30000000E+03</pdfrwt>
<pdfrwt beam="2">0</pdfrwt>
<totfact> 0.11732370E+02</totfact>
</mgrwt>
</event>
<event>
 6    1  0.3125838E-002  0.3000000E+03  0.7818608E-02  0.1093470E+00
          1   -1    0    0  502    0  0.00000000000E+00  0.00000000000E+00  0.21980768402E+01  0.21980768402E+01  0.00000000000E+00 0.  1.
         13   -1    0    0    0    0 -0.00000000000E+00 -0.00000000000E+00 -0.10000000000E+04  0.10000000000E+04  0.00000000000E+00 0.  1.
    9000005    2    1    2  501    0  0.41105265472E+02 -0.15120437320E+02 -0.67652730683E+03  0.67795179764E+03  0.33425392774E+01 0.  0.
         13    1    3    3    0    0  0.21175820993E+02 -0.83484244405E+01 -0.37589467846E+03  0.37658321906E+03  0.00000000000E+00 0.  1.
          1    1    3    3  501    0  0.19929444479E+02 -0.67720128798E+01 -0.30063262837E+03  0.30136857858E+03  0.00000000000E+00 0.  1.
         21    1    1    2  502  501 -0.41105265472E+02  0.15120437320E+02 -0.32127461633E+03  0.32424627920E+03  0.00000000000E+00 0.  1.
<mgrwt>
<rscale>  1 0.30000000E+03</rscale>
<asrwt>0</asrwt>
<pdfrwt beam="1">  1        1 0.79930235E-02 0.30000000E+03</pdfrwt>
<pdfrwt beam="2">0</pdfrwt>
<totfact> 0.10310934E+03</totfact>
</mgrwt>
</event>
<event>
 6    1  0.3125838E-002  0.3000000E+03  0.7818608E-02  0.1093470E+00
          3   -1    0    0  502    0  0.00000000000E+00  0.00000000000E+00  0.21137234127E+01  0.21137234127E+01  0.00000000000E+00 0.  1.
         13   -1    0    0    0    0 -0.00000000000E+00 -0.00000000000E+00 -0.10000000000E+04  0.10000000000E+04  0.00000000000E+00 0.  1.
    9000005    2    1    2  501    0  0.36961057344E+02 -0.14208762873E+02 -0.75276976874E+03  0.75381931928E+03  0.36376770868E+01 0.  0.
         13    1    3    3    0    0  0.12299321518E+02 -0.35508074313E+01 -0.21897575894E+03  0.21934963996E+03  0.00000000000E+00 0.  1.
          3    1    3    3  501    0  0.24661735826E+02 -0.10657955441E+02 -0.53379400979E+03  0.53446967933E+03  0.00000000000E+00 0.  1.
         21    1    1    2  502  501 -0.36961057344E+02  0.14208762873E+02 -0.24511650785E+03  0.24829440413E+03  0.00000000000E+00 0.  1.
<mgrwt>
<rscale>  1 0.30000000E+03</rscale>
<asrwt>0</asrwt>
<pdfrwt beam="1">  1        3 0.76862832E-02 0.30000000E+03</pdfrwt>
<pdfrwt beam="2">0</pdfrwt>
<totfact> 0.50510401E+02</totfact>
</mgrwt>
</event>
<event>
 6    1  0.3125838E-002  0.3000000E+03  0.7818608E-02  0.1093470E+00
          1   -1    0    0  502    0  0.00000000000E+00  0.00000000000E+00  0.13960810311E+01  0.13960810311E+01  0.00000000000E+00 0.  1.
         13   -1    0    0    0    0 -0.00000000000E+00 -0.00000000000E+00 -0.10000000000E+04  0.10000000000E+04  0.00000000000E+00 0.  1.
    9000005    2    1    2  501    0  0.31035605080E+02  0.19592837986E+02 -0.58469150045E+03  0.58585958650E+03  0.44962553830E+01 0.  0.
         13    1    3    3    0    0  0.18521142184E+02  0.12903491771E+02 -0.32757680260E+03  0.32835361184E+03  0.00000000000E+00 0.  1.
          3    1    3    3  501    0  0.12514462896E+02  0.66893462147E+01 -0.25711469785E+03  0.25750597466E+03  0.00000000000E+00 0.  1.
         21    1    1    2  502  501 -0.31035605080E+02 -0.19592837986E+02 -0.41391241851E+03  0.41553649453E+03  0.00000000000E+00 0.  1.
<mgrwt>
<rscale>  1 0.30000000E+03</rscale>
<asrwt>0</asrwt>
<pdfrwt beam="1">  1        1 0.50766690E-02 0.30000000E+03</pdfrwt>
<pdfrwt beam="2">0</pdfrwt>
<totfact> 0.19470695E+03</totfact>
</mgrwt>
</event>
<event>
 6    1  0.3125838E-002  0.3000000E+03  0.7818608E-02  0.1093470E+00
          1   -1    0    0  502    0  0.00000000000E+00  0.00000000000E+00  0.23346244854E+01  0.23346244854E+01  0.00000000000E+00 0.  1.
         13   -1    0    0    0    0 -0.00000000000E+00 -0.00000000000E+00 -0.10000000000E+04  0.10000000000E+04  0.00000000000E+00 0.  1.
    9000005    2    1    2  501    0 -0.20548771874E+02 -0.30111800560E+02 -0.82747500364E+03  0.82828366862E+03  0.31593506937E+01 0.  0.
         13    1    3    3    0    0 -0.94605415867E+01 -0.15815206467E+02 -0.44318833676E+03  0.44357132960E+03  0.00000000000E+00 0.  1.
          3    1    3    3  501    0 -0.11088230287E+02 -0.14296594093E+02 -0.38428666688E+03  0.38471233902E+03  0.00000000000E+00 0.  1.
         21    1    1    2  502  501  0.20548771874E+02  0.30111800560E+02 -0.17019037188E+03  0.17405095587E+03  0.00000000000E+00 0.  1.
<mgrwt>
<rscale>  1 0.30000000E+03</rscale>
<asrwt>0</asrwt>
<pdfrwt beam="1">  1        1 0.84895615E-02 0.30000000E+03</pdfrwt>
<pdfrwt beam="2">0</pdfrwt>
<totfact> 0.94818533E+02</totfact>
</mgrwt>
</event>
<event>
 6    1  0.3125838E-002  0.3000000E+03  0.7818608E-02  0.1093470E+00
          3   -1    0    0  502    0  0.00000000000E+00  0.00000000000E+00  0.45667946541E+01  0.45667946541E+01  0.00000000000E+00 0.  1.
         13   -1    0    0    0    0 -0.00000000000E+00 -0.00000000000E+00 -0.10000000000E+04  0.10000000000E+04  0.00000000000E+00 0.  1.
    9000005    2    1    2  501    0 -0.67418555576E+01 -0.48306021074E+02 -0.84520177399E+03  0.84661614649E+03  0.37331557555E+01 0.  0.
         13    1    3    3    0    0 -0.29533241943E+01 -0.33632641118E+02 -0.58211601494E+03  0.58309427327E+03  0.00000000000E+00 0.  1.
          3    1    3    3  501    0 -0.37885313632E+01 -0.14673379956E+02 -0.26308575906E+03  0.26352187322E+03  0.00000000000E+00 0.  1.
         21    1    1    2  502  501  0.67418555576E+01  0.48306021074E+02 -0.15023143135E+03  0.15795064816E+03  0.00000000000E+00 0.  1.
<mgrwt>
<rscale>  1 0.30000000E+03</rscale>
<asrwt>0</asrwt>
<pdfrwt beam="1">  1        3 0.16606561E-01 0.30000000E+03</pdfrwt>
<pdfrwt beam="2">0</pdfrwt>
<totfact> 0.13934500E+02</totfact>
</mgrwt>
</event>
<event>
 6    1  0.3125838E-002  0.3000000E+03  0.7818608E-02  0.1093470E+00
          1   -1    0    0  502    0  0.00000000000E+00  0.00000000000E+00  0.19373486130E+01  0.19373486130E+01  0.00000000000E+00 0.  1.
         13   -1    0    0    0    0 -0.00000000000E+00 -0.00000000000E+00 -0.10000000000E+04  0.10000000000E+04  0.00000000000E+00 0.  1.
    9000005    2    1    2  501    0 -0.37538538613E+02  0.14036546142E+02 -0.70311807206E+03  0.70428239504E+03  0.57010705412E+01 0.  0.
         13    1    3    3    0    0 -0.97342321834E+01  0.24800466905E+01 -0.14002525667E+03  0.14038510751E+03  0.00000000000E+00 0.  1.
          3    1    3    3  501    0 -0.27804306429E+02  0.11556499451E+02 -0.56309281539E+03  0.56389728753E+03  0.00000000000E+00 0.  1.
         21    1    1    2  502  501  0.37538538613E+02 -0.14036546142E+02 -0.29494457933E+03  0.29765495357E+03  0.00000000000E+00 0.  1.
<mgrwt>
<rscale>  1 0.30000000E+03</rscale>
<asrwt>0</asrwt>
<pdfrwt beam="1">  1        1 0.70449189E-02 0.30000000E+03</pdfrwt>
<pdfrwt beam="2">0</pdfrwt>
<totfact> 0.12297635E+03</totfact>
</mgrwt>
</event>
<event>
 6    1  0.3125838E-002  0.3000000E+03  0.7818608E-02  0.1093470E+00
          1   -1    0    0  502    0  0.00000000000E+00  0.00000000000E+00  0.11659368967E+01  0.11659368967E+01  0.00000000000E+00 0.  1.
         13   -1    0    0    0    0 -0.00000000000E+00 -0.00000000000E+00 -0.10000000000E+04  0.10000000000E+04  0.00000000000E+00 0.  1.
    9000005    2    1    2  501    0  0.28916577574E+02  0.15916778589E+02 -0.62395244796E+03  0.62483398546E+03  0.33674577932E+01 0.  0.
         13    1    3    3    0    0  0.35647663905E+01  0.32356549872E+01 -0.98146769555E+02  0.98264771901E+02  0.00000000000E+00 0.  1.
          3    1    3    3  501    0  0.25351811184E+02  0.12681123602E+02 -0.52580567841E+03  0.52656921356E+03  0.00000000000E+00 0.  1.
         21    1    1    2  502  501 -0.28916577574E+02 -0.15916778589E+02 -0.37488161514E+03  0.37633195143E+03  0.00000000000E+00 0.  1.
<mgrwt>
<rscale>  1 0.30000000E+03</rscale>
<asrwt>0</asrwt>
<pdfrwt beam="1">  1        1 0.42397795E-02 0.30000000E+03</pdfrwt>
<pdfrwt beam="2">0</pdfrwt>
<totfact> 0.25086596E+03</totfact>
</mgrwt>
</event>
<event>
 6    1  0.3125838E-002  0.3000000E+03  0.7818608E-02  0.1093470E+00
          1   -1    0    0  502    0  0.00000000000E+00  0.00000000000E+00  0.35411822742E+01  0.35411822742E+01  0.00000000000E+00 0.  1.
         13   -1    0    0    0    0 -0.00000000000E+00 -0.00000000000E+00 -0.10000000000E+04  0.10000000000E+04  0.00000000000E+00 0.  1.
    9000005    2    1    2  501    0 -0.37339970761E+01 -0.31464298903E+02 -0.92288227967E+03  0.92343218283E+03  0.33688749398E+01 0.  0.
         13    1    3    3    0    0 -0.40556281565E+00 -0.13611535622E+02 -0.42932902522E+03  0.42954493395E+03  0.00000000000E+00 0.  1.
          3    1    3    3  501    0 -0.33284342605E+01 -0.17852763281E+02 -0.49355325445E+03  0.49388724888E+03  0.00000000000E+00 0.  1.
         21    1    1    2  502  501  0.37339970761E+01  0.31464298903E+02 -0.73576538057E+02  0.80108999445E+02  0.00000000000E+00 0.  1.
<mgrwt>
<rscale>  1 0.30000000E+03</rscale>
<asrwt>0</asrwt>
<pdfrwt beam="1">  1        1 0.12877054E-01 0.30000000E+03</pdfrwt>
<pdfrwt beam="2">0</pdfrwt>
<totfact> 0.53402642E+02</totfact>
</mgrwt>
</event>
<event>
 6    1  0.3125838E-002  0.3000000E+03  0.7818608E-02  0.1093470E+00
          1   -1    0    0  502    0  0.00000000000E+00  0.00000000000E+00  0.21306811490E+01  0.21306811490E+01  0.00000000000E+00 0.  1.
         13   -1    0    0    0    0 -0.00000000000E+00 -0.00000000000E+00 -0.10000000000E+04  0.10000000000E+04  0.00000000000E+00 0.  1.
    9000005    2    1    2  501    0  0.31918918588E+02  0.60534951789E+01 -0.85444191519E+03  0.85506986962E+03  0.42465661910E+01 0.  0.
         13    1    3    3    0    0  0.95186743365E+01  0.34354669493E+01 -0.23595833223E+03  0.23617523609E+03  0.00000000000E+00 0.  1.
          3    1    3    3  501    0  0.22400244252E+02  0.26180282296E+01 -0.61848358296E+03  0.61889463353E+03  0.00000000000E+00 0.  1.
         21    1    1    2  502  501 -0.31918918588E+02 -0.60534951789E+01 -0.14342740366E+03  0.14706081153E+03  0.00000000000E+00 0.  1.
<mgrwt>
<rscale>  1 0.30000000E+03</rscale>
<asrwt>0</asrwt>
<pdfrwt beam="1">  1        1 0.77479478E-02 0.30000000E+03</pdfrwt>
<pdfrwt beam="2">0</pdfrwt>
<totfact> 0.10768130E+03</totfact>
</mgrwt>
</event>
<event>
 6    1  0.3125838E-002  0.3000000E+03  0.7818608E-02  0.1093470E+00
          1   -1    0    0  502    0  0.00000000000E+00  0.00000000000E+00  0.16848102589E+01  0.16848102589E+01  0.00000000000E+00 0.  1.
         13   -1    0    0    0    0 -0.00000000000E+00 -0.00000000000E+00 -0.10000000000E+04  0.10000000000E+04  0.00000000000E+00 0.  1.
    9000005    2    1    2  501    0  0.13406180286E+02 -0.28115865444E+02 -0.82498164866E+03  0.82557477640E+03  0.29602795076E+01 0.  0.
         13    1    3    3    0    0  0.10923555482E+02 -0.22832796717E+02 -0.69862735851E+03  0.69908572202E+03  0.00000000000E+00 0.  1.
          3    1    3    3  501    0  0.24826248042E+01 -0.52830687262E+01 -0.12635429015E+03  0.12648905439E+03  0.00000000000E+00 0.  1.
         21    1    1    2  502  501 -0.13406180286E+02  0.28115865444E+02 -0.17333354109E+03  0.17611003386E+03  0.00000000000E+00 0.  1.
<mgrwt>
<rscale>  1 0.30000000E+03</rscale>
<asrwt>0</asrwt>
<pdfrwt beam="1">  1        1 0.61265957E-02 0.30000000E+03</pdfrwt>
<pdfrwt beam="2">0</pdfrwt>
<totfact> 0.14954041E+03</totfact>
</mgrwt>
</event>
<event>
 6    1  0.3125838E-002  0.3000000E+03  0.7818608E-02  0.1093470E+00
          1   -1    0    0  502    0  0.00000000000E+00  0.00000000000E+00  0.15294450269E+01  0.15294450269E+01  0.00000000000E+00 0.  1.
         13   -1    0    0    0    0 -0.00000000000E+00 -0.00000000000E+00 -0.10000000000E+04  0.10000000000E+04  0.00000000000E+00 0.  1.
    9000005    2    1    2  501    0 -0.24854818643E+02 -0.24042329143E+02 -0.73127939234E+03  0.73210985964E+03  0.44160300654E+01 0.  0.
         13    1    3    3    0    0 -0.77229127634E+01 -0.88991063831E+01 -0.21181186393E+03  0.21213934849E+03  0.00000000000E+00 0.  1.
          1    1    3    3  501    0 -0.17131905880E+02 -0.15143222760E+02 -0.51946752841E+03  0.51997051115E+03  0.00000000000E+00 0.  1.
         21    1    1    2  502  501  0.24854818643E+02  0.24042329143E+02 -0.26719116263E+03  0.26941958538E+03  0.00000000000E+00 0.  1.
<mgrwt>
<rscale>  1 0.30000000E+03</rscale>
<asrwt>0</asrwt>
<pdfrwt beam="1">  1        1 0.55616300E-02 0.30000000E+03</pdfrwt>
<pdfrwt beam="2">0</pdfrwt>
<totfact> 0.17128678E+03</totfact>
</mgrwt>
</event>
<event>
 6    1  0.3125838E-002  0.3000000E+03  0.7818608E-02  0.1093470E+00
          1   -1    0    0  502    0  0.00000000000E+00  0.00000000000E+00  0.10701022235E+02  0.10701022235E+02  0.00000000000E+00 0.  1.
         13   -1    0    0    0    0 -0.00000000000E+00 -0.00000000000E+00 -0.10000000000E+04  0.10000000000E+04  0.00000000000E+00 0.  1.
    9000005    2    1    2  501    0  0.37472877410E+02 -0.91484982495E+02 -0.64309109098E+03  0.65065433161E+03  0.33450516827E+01 0.  0.
         13    1    3    3    0    0  0.13187731377E+01 -0.19927578278E+01 -0.17002752898E+02  0.17169853012E+02  0.00000000000E+00 0.  1.
          3    1    3    3  501    0  0.36154104272E+02 -0.89492224667E+02 -0.62608833809E+03  0.63348447859E+03  0.00000000000E+00 0.  1.
         21    1    1    2  502  501 -0.37472877410E+02  0.91484982495E+02 -0.34620788678E+03  0.36004669063E+03  0.00000000000E+00 0.  1.
<mgrwt>
<rscale>  1 0.30000000E+03</rscale>
<asrwt>0</asrwt>
<pdfrwt beam="1">  1        1 0.38912890E-01 0.30000000E+03</pdfrwt>
<pdfrwt beam="2">0</pdfrwt>
<totfact> 0.12253745E+02</totfact>
</mgrwt>
</event>
<event>
 6    1  0.3125838E-002  0.3000000E+03  0.7818608E-02  0.1093470E+00
          1   -1    0    0  502    0  0.00000000000E+00  0.00000000000E+00  0.15269664698E+01  0.15269664698E+01  0.00000000000E+00 0.  1.
         13   -1    0    0    0    0 -0.00000000000E+00 -0.00000000000E+00 -0.10000000000E+04  0.10000000000E+04  0.00000000000E+00 0.  1.
    9000005    2    1    2  501    0 -0.17515212758E+02 -0.34583445446E+02 -0.44216841540E+03  0.44387328762E+03  0.27911489162E+01 0.  0.
         13    1    3    3    0    0 -0.18162460889E+01 -0.58246996202E+01 -0.70070684746E+02  0.70335814038E+02  0.00000000000E+00 0.  1.
          3    1    3    3  501    0 -0.15698966670E+02 -0.28758745825E+02 -0.37209773065E+03  0.37353747359E+03  0.00000000000E+00 0.  1.
         21    1    1    2  502  501  0.17515212758E+02  0.34583445446E+02 -0.55630461813E+03  0.55765367885E+03  0.00000000000E+00 0.  1.
<mgrwt>
<rscale>  1 0.30000000E+03</rscale>
<asrwt>0</asrwt>
<pdfrwt beam="1">  1        1 0.55526171E-02 0.30000000E+03</pdfrwt>
<pdfrwt beam="2">0</pdfrwt>
<totfact> 0.17167728E+03</totfact>
</mgrwt>
</event>
<event>
 6    1  0.3125838E-002  0.3000000E+03  0.7818608E-02  0.1093470E+00
          1   -1    0    0  502    0  0.00000000000E+00  0.00000000000E+00  0.43536000391E+01  0.43536000391E+01  0.00000000000E+00 0.  1.
         13   -1    0    0    0    0 -0.00000000000E+00 -0.00000000000E+00 -0.10000000000E+04  0.10000000000E+04  0.00000000000E+00 0.  1.
    9000005    2    1    2  501    0  0.30768227830E+02 -0.32928015397E+02 -0.86449315882E+03  0.86567371432E+03  0.34088081775E+01 0.  0.
         13    1    3    3    0    0  0.10573104299E+01 -0.22563202759E+01 -0.48643118014E+02  0.48706897013E+02  0.00000000000E+00 0.  1.
          3    1    3    3  501    0  0.29710917400E+02 -0.30671695121E+02 -0.81585004081E+03  0.81696681731E+03  0.00000000000E+00 0.  1.
         21    1    1    2  502  501 -0.30768227830E+02  0.32928015397E+02 -0.13115324114E+03  0.13867988572E+03  0.00000000000E+00 0.  1.
<mgrwt>
<rscale>  1 0.30000000E+03</rscale>
<asrwt>0</asrwt>
<pdfrwt beam="1">  1        1 0.15831306E-01 0.30000000E+03</pdfrwt>
<pdfrwt beam="2">0</pdfrwt>
<totfact> 0.40320774E+02</totfact>
</mgrwt>
</event>
<event>
 6    1  0.3125838E-002  0.3000000E+03  0.7818608E-02  0.1093470E+00
          1   -1    0    0  502    0  0.00000000000E+00  0.00000000000E+00  0.17649620494E+01  0.17649620494E+01  0.00000000000E+00 0.  1.
         13   -1    0    0    0    0 -0.00000000000E+00 -0.00000000000E+00 -0.10000000000E+04  0.10000000000E+04  0.00000000000E+00 0.  1.
    9000005    2    1    2  501    0  0.20385514861E+01 -0.39522104485E+02 -0.66556787709E+03  0.66675213789E+03  0.34149573864E+01 0.  0.
         13    1    3    3    0    0  0.25732032249E+01 -0.20969431350E+02 -0.34038053347E+03  0.34103554946E+03  0.00000000000E+00 0.  1.
          3    1    3    3  501    0 -0.53465173877E+00 -0.18552673135E+02 -0.32518734362E+03  0.32571658844E+03  0.00000000000E+00 0.  1.
         21    1    1    2  502  501 -0.20385514861E+01  0.39522104485E+02 -0.33266716086E+03  0.33501282416E+03  0.00000000000E+00 0.  1.
<mgrwt>
<rscale>  1 0.30000000E+03</rscale>
<asrwt>0</asrwt>
<pdfrwt beam="1">  1        1 0.64180573E-02 0.30000000E+03</pdfrwt>
<pdfrwt beam="2">0</pdfrwt>
<totfact> 0.14010923E+03</totfact>
</mgrwt>
</event>
<event>
 6    1  0.3125838E-002  0.3000000E+03  0.7818608E-02  0.1093470E+00
          1   -1    0    0  502    0  0.00000000000E+00  0.00000000000E+00  0.30569125636E+01  0.30569125636E+01  0.00000000000E+00 0.  1.
         13   -1    0    0    0    0 -0.00000000000E+00 -0.00000000000E+00 -0.10000000000E+04  0.10000000000E+04  0.00000000000E+00 0.  1.
    9000005    2    1    2  501    0  0.18708523773E+02  0.27552004726E+02 -0.89870734739E+03  0.89932946948E+03  0.30784081537E+01 0.  0.
         13    1    3    3    0    0  0.80436535120E+01  0.13090303384E+02 -0.37774360028E+03  0.37805592702E+03  0.00000000000E+00 0.  1.
          1    1    3    3  501    0  0.10664870261E+02  0.14461701342E+02 -0.52096374711E+03  0.52127354246E+03  0.00000000000E+00 0.  1.
         21    1    1    2  502  501 -0.18708523773E+02 -0.27552004726E+02 -0.98235740049E+02  0.10372744309E+03  0.00000000000E+00 0.  1.
<mgrwt>
<rscale>  1 0.30000000E+03</rscale>
<asrwt>0</asrwt>
<pdfrwt beam="1">  1        1 0.11116069E-01 0.30000000E+03</pdfrwt>
<pdfrwt beam="2">0</pdfrwt>
<totfact> 0.65328278E+02</totfact>
</mgrwt>
</event>
<event>
 6    1  0.3125838E-002  0.3000000E+03  0.7818608E-02  0.1093470E+00
          1   -1    0    0  502    0  0.00000000000E+00  0.00000000000E+00  0.22448581766E+01  0.22448581766E+01  0.00000000000E+00 0.  1.
         13   -1    0    0    0    0 -0.00000000000E+00 -0.00000000000E+00 -0.10000000000E+04  0.10000000000E+04  0.00000000000E+00 0.  1.
    9000005    2    1    2  501    0 -0.11225571961E+02 -0.45034993067E+02 -0.40315434676E+03  0.40583537673E+03  0.38420866260E+01 0.  0.
         13    1    3    3    0    0 -0.32634380017E+01 -0.71786723750E+01 -0.67050215983E+02  0.67512330933E+02  0.00000000000E+00 0.  1.
          3    1    3    3  501    0 -0.79621339598E+01 -0.37856320692E+02 -0.33610413077E+03  0.33832304579E+03  0.00000000000E+00 0.  1.
         21    1    1    2  502  501  0.11225571961E+02  0.45034993067E+02 -0.59460079507E+03  0.59640948145E+03  0.00000000000E+00 0.  1.
<mgrwt>
<rscale>  1 0.30000000E+03</rscale>
<asrwt>0</asrwt>
<pdfrwt beam="1">  1        1 0.81631379E-02 0.30000000E+03</pdfrwt>
<pdfrwt beam="2">0</pdfrwt>
<totfact> 0.10013089E+03</totfact>
</mgrwt>
</event>
<event>
 6    1  0.3125838E-002  0.3000000E+03  0.7818608E-02  0.1093470E+00
          1   -1    0    0  502    0  0.00000000000E+00  0.00000000000E+00  0.43702970570E+01  0.43702970570E+01  0.00000000000E+00 0.  1.
         13   -1    0    0    0    0 -0.00000000000E+00 -0.00000000000E+00 -0.10000000000E+04  0.10000000000E+04  0.00000000000E+00 0.  1.
    9000005    2    1    2  501    0  0.23226326555E+02 -0.43384000048E+02 -0.83299831382E+03  0.83445678249E+03  0.32089415825E+01 0.  0.
         13    1    3    3    0    0  0.34565925653E+01 -0.89636701964E+01 -0.15466802163E+03  0.15496610059E+03  0.00000000000E+00 0.  1.
          3    1    3    3  501    0  0.19769733990E+02 -0.34420329852E+02 -0.67833029219E+03  0.67949068190E+03  0.00000000000E+00 0.  1.
         21    1    1    2  502  501 -0.23226326555E+02  0.43384000048E+02 -0.16263138912E+03  0.16991351457E+03  0.00000000000E+00 0.  1.
<mgrwt>
<rscale>  1 0.30000000E+03</rscale>
<asrwt>0</asrwt>
<pdfrwt beam="1">  1        1 0.15892023E-01 0.30000000E+03</pdfrwt>
<pdfrwt beam="2">0</pdfrwt>
<totfact> 0.40112317E+02</totfact>
</mgrwt>
</event>
<event>
 6    1  0.3125838E-002  0.3000000E+03  0.7818608E-02  0.1093470E+00
          1   -1    0    0  502    0  0.00000000000E+00  0.00000000000E+00  0.12596424154E+01  0.12596424154E+01  0.00000000000E+00 0.  1.
         13   -1    0    0    0    0 -0.00000000000E+00 -0.00000000000E+00 -0.10000000000E+04  0.10000000000E+04  0.00000000000E+00 0.  1.
    9000005    2    1    2  501    0 -0.14446613547E+02  0.29907577584E+02 -0.67389615831E+03  0.67472186261E+03  0.32236399752E+01 0.  0.
         13    1    3    3    0    0 -0.76812349348E+01  0.18921138810E+02 -0.39535831056E+03  0.39588534273E+03  0.00000000000E+00 0.  1.
          1    1    3    3  501    0 -0.67653786125E+01  0.10986438774E+02 -0.27853784776E+03  0.27883651988E+03  0.00000000000E+00 0.  1.
         21    1    1    2  502  501  0.14446613547E+02 -0.29907577584E+02 -0.32484419927E+03  0.32653777980E+03  0.00000000000E+00 0.  1.
<mgrwt>
<rscale>  1 0.30000000E+03</rscale>
<asrwt>0</asrwt>
<pdfrwt beam="1">  1        1 0.45805275E-02 0.30000000E+03</pdfrwt>
<pdfrwt beam="2">0</pdfrwt>
<totfact> 0.22500172E+03</totfact>
</mgrwt>
</event>
<event>
 6    1  0.3125838E-002  0.3000000E+03  0.7818608E-02  0.1093470E+00
          1   -1    0    0  502    0  0.00000000000E+00  0.00000000000E+00  0.11557144628E+02  0.11557144628E+02  0.00000000000E+00 0.  1.
         13   -1    0    0    0    0 -0.00000000000E+00 -0.00000000000E+00 -0.10000000000E+04  0.10000000000E+04  0.00000000000E+00 0.  1.
    9000005    2    1    2  501    0 -0.17514399000E+02 -0.41256405208E+02 -0.95392602203E+03  0.95498633124E+03  0.38977193700E+01 0.  0.
         13    1    3    3    0    0 -0.20877107675E+01 -0.62862462860E+01 -0.11588909072E+03  0.11607823558E+03  0.00000000000E+00 0.  1.
          3    1    3    3  501    0 -0.15426688233E+02 -0.34970158922E+02 -0.83803693131E+03  0.83890809566E+03  0.00000000000E+00 0.  1.
         21    1    1    2  502  501  0.17514399000E+02  0.41256405208E+02 -0.34516833345E+02  0.56570813386E+02  0.00000000000E+00 0.  1.
<mgrwt>
<rscale>  1 0.30000000E+03</rscale>
<asrwt>0</asrwt>
<pdfrwt beam="1">  1        1 0.42026069E-01 0.30000000E+03</pdfrwt>
<pdfrwt beam="2">0</pdfrwt>
<totfact> 0.11080798E+02</totfact>
</mgrwt>
</event>
<event>
 6    1  0.3125838E-002  0.3000000E+03  0.7818608E-02  0.1093470E+00
          1   -1    0    0  502    0  0.00000000000E+00  0.00000000000E+00  0.12689976450E+01  0.12689976450E+01  0.00000000000E+00 0.  1.
         13   -1    0    0    0    0 -0.00000000000E+00 -0.00000000000E+00 -0.10000000000E+04  0.10000000000E+04  0.00000000000E+00 0.  1.
    9000005    2    1    2  501    0 -0.16803623618E+02 -0.31230739069E+02 -0.49910664150E+03  0.50038755180E+03  0.47477973873E+01 0.  0.
         13    1    3    3    0    0 -0.15983833796E+02 -0.26258854728E+02 -0.42991036755E+03  0.43100804461E+03  0.00000000000E+00 0.  1.
          3    1    3    3  501    0 -0.81978982248E+00 -0.49718843410E+01 -0.69196273956E+02  0.69379507195E+02  0.00000000000E+00 0.  1.
         21    1    1    2  502  501  0.16803623618E+02  0.31230739069E+02 -0.49962436085E+03  0.50088144584E+03  0.00000000000E+00 0.  1.
<mgrwt>
<rscale>  1 0.30000000E+03</rscale>
<asrwt>0</asrwt>
<pdfrwt beam="1">  1        1 0.46145466E-02 0.30000000E+03</pdfrwt>
<pdfrwt beam="2">0</pdfrwt>
<totfact> 0.22267136E+03</totfact>
</mgrwt>
</event>
<event>
 6    1  0.3125838E-002  0.3000000E+03  0.7818608E-02  0.1093470E+00
          1   -1    0    0  502    0  0.00000000000E+00  0.00000000000E+00  0.97997175839E+01  0.97997175839E+01  0.00000000000E+00 0.  1.
         13   -1    0    0    0    0 -0.00000000000E+00 -0.00000000000E+00 -0.10000000000E+04  0.10000000000E+04  0.00000000000E+00 0.  1.
    9000005    2    1    2  501    0 -0.19880525534E+02 -0.68595705923E+02 -0.84466062241E+03  0.84768124608E+03  0.33647803400E+01 0.  0.
         13    1    3    3    0    0 -0.18863496308E+02 -0.63689374938E+02 -0.77566853547E+03  0.77850744691E+03  0.00000000000E+00 0.  1.
          3    1    3    3  501    0 -0.10170292260E+01 -0.49063309848E+01 -0.68992086941E+02  0.69173799178E+02  0.00000000000E+00 0.  1.
         21    1    1    2  502  501  0.19880525534E+02  0.68595705923E+02 -0.14553966001E+03  0.16211847150E+03  0.00000000000E+00 0.  1.
<mgrwt>
<rscale>  1 0.30000000E+03</rscale>
<asrwt>0</asrwt>
<pdfrwt beam="1">  1        1 0.35635412E-01 0.30000000E+03</pdfrwt>
<pdfrwt beam="2">0</pdfrwt>
<totfact> 0.13745261E+02</totfact>
</mgrwt>
</event>
<event>
 6    1  0.3125838E-002  0.3000000E+03  0.7818608E-02  0.1093470E+00
          1   -1    0    0  502    0  0.00000000000E+00  0.00000000000E+00  0.12457255991E+02  0.12457255991E+02  0.00000000000E+00 0.  1.
         13   -1    0    0    0    0 -0.00000000000E+00 -0.00000000000E+00 -0.10000000000E+04  0.10000000000E+04  0.00000000000E+00 0.  1.
    9000005    2    1    2  501    0  0.10160024382E+02 -0.40329831602E+02 -0.96353029991E+03  0.96443310703E+03  0.32950964044E+01 0.  0.
         13    1    3    3    0    0  0.10338117320E+02 -0.40156138723E+02 -0.95890760336E+03  0.95980372156E+03  0.00000000000E+00 0.  1.
          1    1    3    3  501    0 -0.17809293822E+00 -0.17369287960E+00 -0.46226965593E+01  0.46293854657E+01  0.00000000000E+00 0.  1.
         21    1    1    2  502  501 -0.10160024382E+02  0.40329831602E+02 -0.24012444094E+02  0.48024148966E+02  0.00000000000E+00 0.  1.
<mgrwt>
<rscale>  1 0.30000000E+03</rscale>
<asrwt>0</asrwt>
<pdfrwt beam="1">  1        1 0.45299208E-01 0.30000000E+03</pdfrwt>
<pdfrwt beam="2">0</pdfrwt>
<totfact> 0.10044487E+02</totfact>
</mgrwt>
</event>
<event>
 6    1  0.3125838E-002  0.3000000E+03  0.7818608E-02  0.1093470E+00
          3   -1    0    0  502    0  0.00000000000E+00  0.00000000000E+00  0.13864704602E+01  0.13864704602E+01  0.00000000000E+00 0.  1.
         13   -1    0    0    0    0 -0.00000000000E+00 -0.00000000000E+00 -0.10000000000E+04  0.10000000000E+04  0.00000000000E+00 0.  1.
    9000005    2    1    2  501    0  0.31360791087E+02 -0.13550469781E+02 -0.69430604077E+03  0.69516732969E+03  0.54427546662E+01 0.  0.
         13    1    3    3    0    0  0.20251353462E+02 -0.88206321309E+01 -0.39407040709E+03  0.39468899987E+03  0.00000000000E+00 0.  1.
          1    1    3    3  501    0  0.11109437625E+02 -0.47298376497E+01 -0.30023563367E+03  0.30047832983E+03  0.00000000000E+00 0.  1.
         21    1    1    2  502  501 -0.31360791087E+02  0.13550469781E+02 -0.30430748877E+03  0.30621914077E+03  0.00000000000E+00 0.  1.
<mgrwt>
<rscale>  1 0.30000000E+03</rscale>
<asrwt>0</asrwt>
<pdfrwt beam="1">  1        3 0.50417214E-02 0.30000000E+03</pdfrwt>
<pdfrwt beam="2">0</pdfrwt>
<totfact> 0.97678275E+02</totfact>
</mgrwt>
</event>
<event>
 6    1  0.3125838E-002  0.3000000E+03  0.7818608E-02  0.1093470E+00
          1   -1    0    0  502    0  0.00000000000E+00  0.00000000000E+00  0.85777225023E+01  0.85777225023E+01  0.00000000000E+00 0.  1.
         13   -1    0    0    0    0 -0.00000000000E+00 -0.00000000000E+00 -0.10000000000E+04  0.10000000000E+04  0.00000000000E+00 0.  1.
    9000005    2    1    2  501    0  0.16060560644E+02  0.81854824350E+02 -0.71454758547E+03  0.71941038520E+03  0.38596054223E+01 0.  0.
         13    1    3    3    0    0  0.74903257684E+01  0.29466141045E+02 -0.26712539921E+03  0.26885002762E+03  0.00000000000E+00 0.  1.
          1    1    3    3  501    0  0.85702348757E+01  0.52388683305E+02 -0.44742218626E+03  0.45056035758E+03  0.00000000000E+00 0.  1.
         21    1    1    2  502  501 -0.16060560644E+02 -0.81854824350E+02 -0.27687469203E+03  0.28916733731E+03  0.00000000000E+00 0.  1.
<mgrwt>
<rscale>  1 0.30000000E+03</rscale>
<asrwt>0</asrwt>
<pdfrwt beam="1">  1        1 0.31191784E-01 0.30000000E+03</pdfrwt>
<pdfrwt beam="2">0</pdfrwt>
<totfact> 0.16363897E+02</totfact>
</mgrwt>
</event>
<event>
 6    1  0.3125838E-002  0.3000000E+03  0.7818608E-02  0.1093470E+00
          1   -1    0    0  502    0  0.00000000000E+00  0.00000000000E+00  0.30129778376E+02  0.30129778376E+02  0.00000000000E+00 0.  1.
         13   -1    0    0    0    0 -0.00000000000E+00 -0.00000000000E+00 -0.10000000000E+04  0.10000000000E+04  0.00000000000E+00 0.  1.
    9000005    2    1    2  501    0 -0.27692120341E+01  0.76451673796E+02 -0.94726770187E+03  0.95035885096E+03  0.36496071472E+01 0.  0.
         13    1    3    3    0    0 -0.22834973810E+01  0.23798312725E+02 -0.28452604374E+03  0.28552870892E+03  0.00000000000E+00 0.  1.
          1    1    3    3  501    0 -0.48571465308E+00  0.52653361071E+02 -0.66274165813E+03  0.66483014204E+03  0.00000000000E+00 0.  1.
         21    1    1    2  502  501  0.27692120341E+01 -0.76451673796E+02 -0.22602519753E+02  0.79770927415E+02  0.00000000000E+00 0.  1.
<mgrwt>
<rscale>  1 0.30000000E+03</rscale>
<asrwt>0</asrwt>
<pdfrwt beam="1">  1        1 0.10956306E+00 0.30000000E+03</pdfrwt>
<pdfrwt beam="2">0</pdfrwt>
<totfact> 0.29888562E+01</totfact>
</mgrwt>
</event>
<event>
 6    1  0.3125838E-002  0.3000000E+03  0.7818608E-02  0.1093470E+00
          1   -1    0    0  502    0  0.00000000000E+00  0.00000000000E+00  0.25387382199E+01  0.25387382199E+01  0.00000000000E+00 0.  1.
         13   -1    0    0    0    0 -0.00000000000E+00 -0.00000000000E+00 -0.10000000000E+04  0.10000000000E+04  0.00000000000E+00 0.  1.
    9000005    2    1    2  501    0  0.93493473257E+00  0.48995618337E+02 -0.38491624303E+03  0.38803662699E+03  0.32349672074E+01 0.  0.
         13    1    3    3    0    0 -0.97826121224E-02  0.84769935284E-01 -0.14692180856E+00  0.16990485355E+00  0.00000000000E+00 0.  1.
          3    1    3    3  501    0  0.94471734469E+00  0.48910848401E+02 -0.38476932123E+03  0.38786672213E+03  0.00000000000E+00 0.  1.
         21    1    1    2  502  501 -0.93493473257E+00 -0.48995618337E+02 -0.61254501875E+03  0.61450211123E+03  0.00000000000E+00 0.  1.
<mgrwt>
<rscale>  1 0.30000000E+03</rscale>
<asrwt>0</asrwt>
<pdfrwt beam="1">  1        1 0.92317948E-02 0.30000000E+03</pdfrwt>
<pdfrwt beam="2">0</pdfrwt>
<totfact> 0.84409316E+02</totfact>
</mgrwt>
</event>
<event>
 6    1  0.3125838E-002  0.3000000E+03  0.7818608E-02  0.1093470E+00
          1   -1    0    0  502    0  0.00000000000E+00  0.00000000000E+00  0.30596132726E+01  0.30596132726E+01  0.00000000000E+00 0.  1.
         13   -1    0    0    0    0 -0.00000000000E+00 -0.00000000000E+00 -0.10000000000E+04  0.10000000000E+04  0.00000000000E+00 0.  1.
    9000005    2    1    2  501    0 -0.36163795951E+02 -0.41740673156E+02 -0.51357887118E+03  0.51655323238E+03  0.37257255107E+01 0.  0.
         13    1    3    3    0    0 -0.15861741644E+02 -0.19485128464E+02 -0.21789243053E+03  0.21933621763E+03  0.00000000000E+00 0.  1.
          1    1    3    3  501    0 -0.20302054307E+02 -0.22255544692E+02 -0.29568644064E+03  0.29721701475E+03  0.00000000000E+00 0.  1.
         21    1    1    2  502  501  0.36163795951E+02  0.41740673156E+02 -0.48336151555E+03  0.48650638089E+03  0.00000000000E+00 0.  1.
<mgrwt>
<rscale>  1 0.30000000E+03</rscale>
<asrwt>0</asrwt>
<pdfrwt beam="1">  1        1 0.11125890E-01 0.30000000E+03</pdfrwt>
<pdfrwt beam="2">0</pdfrwt>
<totfact> 0.65249073E+02</totfact>
</mgrwt>
</event>
<event>
 6    1  0.3125838E-002  0.3000000E+03  0.7818608E-02  0.1093470E+00
          3   -1    0    0  502    0  0.00000000000E+00  0.00000000000E+00  0.52481899905E+01  0.52481899905E+01  0.00000000000E+00 0.  1.
         13   -1    0    0    0    0 -0.00000000000E+00 -0.00000000000E+00 -0.10000000000E+04  0.10000000000E+04  0.00000000000E+00 0.  1.
    9000005    2    1    2  501    0  0.37244788431E+02 -0.26667476898E+02 -0.88669546947E+03  0.88788336851E+03  0.31131842732E+01 0.  0.
         13    1    3    3    0    0  0.13801433109E+01 -0.14719016169E+01 -0.30400314524E+02  0.30467202253E+02  0.00000000000E+00 0.  1.
          3    1    3    3  501    0  0.35864645120E+02 -0.25195575282E+02 -0.85629515494E+03  0.85741616626E+03  0.00000000000E+00 0.  1.
         21    1    1    2  502  501 -0.37244788431E+02  0.26667476898E+02 -0.10805634054E+03  0.11736482148E+03  0.00000000000E+00 0.  1.
<mgrwt>
<rscale>  1 0.30000000E+03</rscale>
<asrwt>0</asrwt>
<pdfrwt beam="1">  1        3 0.19084367E-01 0.30000000E+03</pdfrwt>
<pdfrwt beam="2">0</pdfrwt>
<totfact> 0.10879362E+02</totfact>
</mgrwt>
</event>
<event>
 6    1  0.3125838E-002  0.3000000E+03  0.7818608E-02  0.1093470E+00
          3   -1    0    0  502    0  0.00000000000E+00  0.00000000000E+00  0.28847665339E+01  0.28847665339E+01  0.00000000000E+00 0.  1.
         13   -1    0    0    0    0 -0.00000000000E+00 -0.00000000000E+00 -0.10000000000E+04  0.10000000000E+04  0.00000000000E+00 0.  1.
    9000005    2    1    2  501    0 -0.71677599451E+01 -0.46619375715E+02 -0.73777255968E+03  0.73928779117E+03  0.36531330343E+01 0.  0.
         13    1    3    3    0    0 -0.48430356570E+00 -0.14148534534E+02 -0.22141730682E+03  0.22186941956E+03  0.00000000000E+00 0.  1.
          3    1    3    3  501    0 -0.66834563794E+01 -0.32470841181E+02 -0.51635525286E+03  0.51741837161E+03  0.00000000000E+00 0.  1.
         21    1    1    2  502  501  0.71677599451E+01  0.46619375715E+02 -0.25934267379E+03  0.26359697536E+03  0.00000000000E+00 0.  1.
<mgrwt>
<rscale>  1 0.30000000E+03</rscale>
<asrwt>0</asrwt>
<pdfrwt beam="1">  1        3 0.10490082E-01 0.30000000E+03</pdfrwt>
<pdfrwt beam="2">0</pdfrwt>
<totfact> 0.30512077E+02</totfact>
</mgrwt>
</event>
<event>
 6    1  0.3125838E-002  0.3000000E+03  0.7818608E-02  0.1093470E+00
          1   -1    0    0  502    0  0.00000000000E+00  0.00000000000E+00  0.13283308416E+01  0.13283308416E+01  0.00000000000E+00 0.  1.
         13   -1    0    0    0    0 -0.00000000000E+00 -0.00000000000E+00 -0.10000000000E+04  0.10000000000E+04  0.00000000000E+00 0.  1.
    9000005    2    1    2  501    0 -0.17185932531E+02 -0.28223229839E+02 -0.70915048754E+03  0.70992753883E+03  0.32847269034E+01 0.  0.
         13    1    3    3    0    0 -0.13413574476E+02 -0.19491727580E+02 -0.49095034665E+03  0.49152018707E+03  0.00000000000E+00 0.  1.
          1    1    3    3  501    0 -0.37723580552E+01 -0.87315022585E+01 -0.21820014090E+03  0.21840735176E+03  0.00000000000E+00 0.  1.
         21    1    1    2  502  501  0.17185932531E+02  0.28223229839E+02 -0.28952118162E+03  0.29140079201E+03  0.00000000000E+00 0.  1.
<mgrwt>
<rscale>  1 0.30000000E+03</rscale>
<asrwt>0</asrwt>
<pdfrwt beam="1">  1        1 0.48303042E-02 0.30000000E+03</pdfrwt>
<pdfrwt beam="2">0</pdfrwt>
<totfact> 0.20880993E+03</totfact>
</mgrwt>
</event>
<event>
 6    1  0.3125838E-002  0.3000000E+03  0.7818608E-02  0.1093470E+00
          1   -1    0    0  502    0  0.00000000000E+00  0.00000000000E+00  0.16331105026E+01  0.16331105026E+01  0.00000000000E+00 0.  1.
         13   -1    0    0    0    0 -0.00000000000E+00 -0.00000000000E+00 -0.10000000000E+04  0.10000000000E+04  0.00000000000E+00 0.  1.
    9000005    2    1    2  501    0  0.23402556820E+02  0.24010184741E+02 -0.77773075360E+03  0.77846395247E+03  0.41026271579E+01 0.  0.
         13    1    3    3    0    0  0.13625432098E+02  0.15289507529E+02 -0.43227873941E+03  0.43276359595E+03  0.00000000000E+00 0.  1.
          3    1    3    3  501    0  0.97771247223E+01  0.87206772125E+01 -0.34545201420E+03  0.34570035651E+03  0.00000000000E+00 0.  1.
         21    1    1    2  502  501 -0.23402556820E+02 -0.24010184741E+02 -0.22063613589E+03  0.22316915804E+03  0.00000000000E+00 0.  1.
<mgrwt>
<rscale>  1 0.30000000E+03</rscale>
<asrwt>0</asrwt>
<pdfrwt beam="1">  1        1 0.59385962E-02 0.30000000E+03</pdfrwt>
<pdfrwt beam="2">0</pdfrwt>
<totfact> 0.15622293E+03</totfact>
</mgrwt>
</event>
<event>
 6    1  0.3125838E-002  0.3000000E+03  0.7818608E-02  0.1093470E+00
          1   -1    0    0  502    0  0.00000000000E+00  0.00000000000E+00  0.15360248564E+01  0.15360248564E+01  0.00000000000E+00 0.  1.
         13   -1    0    0    0    0 -0.00000000000E+00 -0.00000000000E+00 -0.10000000000E+04  0.10000000000E+04  0.00000000000E+00 0.  1.
    9000005    2    1    2  501    0 -0.27357251262E+01  0.29999305675E+02 -0.81686589855E+03  0.81745641177E+03  0.75925220258E+01 0.  0.
         13    1    3    3    0    0  0.65355709559E+00  0.76480857256E+00 -0.75338756917E+02  0.75345473406E+02  0.00000000000E+00 0.  1.
          1    1    3    3  501    0 -0.33892822218E+01  0.29234497103E+02 -0.74152714164E+03  0.74211093836E+03  0.00000000000E+00 0.  1.
         21    1    1    2  502  501  0.27357251262E+01 -0.29999305675E+02 -0.18159807659E+03  0.18407961309E+03  0.00000000000E+00 0.  1.
<mgrwt>
<rscale>  1 0.30000000E+03</rscale>
<asrwt>0</asrwt>
<pdfrwt beam="1">  1        1 0.55855567E-02 0.30000000E+03</pdfrwt>
<pdfrwt beam="2">0</pdfrwt>
<totfact> 0.17025747E+03</totfact>
</mgrwt>
</event>
<event>
 6    1  0.3125838E-002  0.3000000E+03  0.7818608E-02  0.1093470E+00
          1   -1    0    0  502    0  0.00000000000E+00  0.00000000000E+00  0.16811035966E+02  0.16811035966E+02  0.00000000000E+00 0.  1.
         13   -1    0    0    0    0 -0.00000000000E+00 -0.00000000000E+00 -0.10000000000E+04  0.10000000000E+04  0.00000000000E+00 0.  1.
    9000005    2    1    2  501    0 -0.14151364894E+02 -0.52868796696E+02 -0.95247230121E+03  0.95405050563E+03  0.36758590155E+01 0.  0.
         13    1    3    3    0    0 -0.13875998852E+02 -0.48855884952E+02 -0.87210128708E+03  0.87357890071E+03  0.00000000000E+00 0.  1.
          3    1    3    3  501    0 -0.27536604206E+00 -0.40129117443E+01 -0.80371014129E+02  0.80471604925E+02  0.00000000000E+00 0.  1.
         21    1    1    2  502  501  0.14151364894E+02  0.52868796696E+02 -0.30716662828E+02  0.62760530334E+02  0.00000000000E+00 0.  1.
<mgrwt>
<rscale>  1 0.30000000E+03</rscale>
<asrwt>0</asrwt>
<pdfrwt beam="1">  1        1 0.61131169E-01 0.30000000E+03</pdfrwt>
<pdfrwt beam="2">0</pdfrwt>
<totfact> 0.67641250E+01</totfact>
</mgrwt>
</event>
<event>
 6    1  0.3125838E-002  0.3000000E+03  0.7818608E-02  0.1093470E+00
          3   -1    0    0  502    0  0.00000000000E+00  0.00000000000E+00  0.16457583042E+01  0.16457583042E+01  0.00000000000E+00 0.  1.
         13   -1    0    0    0    0 -0.00000000000E+00 -0.00000000000E+00 -0.10000000000E+04  0.10000000000E+04  0.00000000000E+00 0.  1.
    9000005    2    1    2  501    0 -0.29706690870E+02 -0.27326967953E+02 -0.54143509566E+03  0.54294721168E+03  0.32343778531E+01 0.  0.
         13    1    3    3    0    0 -0.14759711642E+02 -0.11907855746E+02 -0.26799135621E+03  0.26866152148E+03  0.00000000000E+00 0.  1.
          3    1    3    3  501    0 -0.14946979228E+02 -0.15419112207E+02 -0.27344373944E+03  0.27428569020E+03  0.00000000000E+00 0.  1.
         21    1    1    2  502  501  0.29706690870E+02  0.27326967953E+02 -0.45691914604E+03  0.45869854662E+03  0.00000000000E+00 0.  1.
<mgrwt>
<rscale>  1 0.30000000E+03</rscale>
<asrwt>0</asrwt>
<pdfrwt beam="1">  1        3 0.59845883E-02 0.30000000E+03</pdfrwt>
<pdfrwt beam="2">0</pdfrwt>
<totfact> 0.74870315E+02</totfact>
</mgrwt>
</event>
<event>
 6    1  0.3125838E-002  0.3000000E+03  0.7818608E-02  0.1093470E+00
          3   -1    0    0  502    0  0.00000000000E+00  0.00000000000E+00  0.19455661474E+01  0.19455661474E+01  0.00000000000E+00 0.  1.
         13   -1    0    0    0    0 -0.00000000000E+00 -0.00000000000E+00 -0.10000000000E+04  0.10000000000E+04  0.00000000000E+00 0.  1.
    9000005    2    1    2  501    0  0.31477377005E+02  0.28289738325E+02 -0.62997761609E+03  0.63144363858E+03  0.76247865579E+01 0.  0.
         13    1    3    3    0    0  0.41475567034E+01  0.17591871642E+01 -0.44208682538E+02  0.44437648203E+02  0.00000000000E+00 0.  1.
          1    1    3    3  501    0  0.27329820301E+02  0.26530551160E+02 -0.58576893356E+03  0.58700599038E+03  0.00000000000E+00 0.  1.
         21    1    1    2  502  501 -0.31477377005E+02 -0.28289738325E+02 -0.36807681776E+03  0.37050192757E+03  0.00000000000E+00 0.  1.
<mgrwt>
<rscale>  1 0.30000000E+03</rscale>
<asrwt>0</asrwt>
<pdfrwt beam="1">  1        3 0.70748009E-02 0.30000000E+03</pdfrwt>
<pdfrwt beam="2">0</pdfrwt>
<totfact> 0.57601346E+02</totfact>
</mgrwt>
</event>
<event>
 6    1  0.3125838E-002  0.3000000E+03  0.7818608E-02  0.1093470E+00
          3   -1    0    0  502    0  0.00000000000E+00  0.00000000000E+00  0.14447366247E+01  0.14447366247E+01  0.00000000000E+00 0.  1.
         13   -1    0    0    0    0 -0.00000000000E+00 -0.00000000000E+00 -0.10000000000E+04  0.10000000000E+04  0.00000000000E+00 0.  1.
    9000005    2    1    2  501    0 -0.28940828063E+02 -0.20418340151E+02 -0.67944699021E+03  0.68037687753E+03  0.31627240612E+01 0.  0.
         13    1    3    3    0    0 -0.20273675787E+02 -0.15555781763E+02 -0.46979068934E+03  0.47048517093E+03  0.00000000000E+00 0.  1.
          3    1    3    3  501    0 -0.86671522766E+01 -0.48625583884E+01 -0.20965630087E+03  0.20989170660E+03  0.00000000000E+00 0.  1.
         21    1    1    2  502  501  0.28940828063E+02  0.20418340151E+02 -0.31910827316E+03  0.32106785910E+03  0.00000000000E+00 0.  1.
<mgrwt>
<rscale>  1 0.30000000E+03</rscale>
<asrwt>0</asrwt>
<pdfrwt beam="1">  1        3 0.52535988E-02 0.30000000E+03</pdfrwt>
<pdfrwt beam="2">0</pdfrwt>
<totfact> 0.91659208E+02</totfact>
</mgrwt>
</event>
<event>
 6    1  0.3125838E-002  0.3000000E+03  0.7818608E-02  0.1093470E+00
          1   -1    0    0  502    0  0.00000000000E+00  0.00000000000E+00  0.16631086507E+01  0.16631086507E+01  0.00000000000E+00 0.  1.
         13   -1    0    0    0    0 -0.00000000000E+00 -0.00000000000E+00 -0.10000000000E+04  0.10000000000E+04  0.00000000000E+00 0.  1.
    9000005    2    1    2  501    0 -0.38328471195E+02 -0.47104265604E+01 -0.65847633496E+03  0.65961565929E+03  0.32364271055E+01 0.  0.
         13    1    3    3    0    0 -0.29803952008E+02 -0.41368987091E+01 -0.53317378909E+03  0.53402217076E+03  0.00000000000E+00 0.  1.
          3    1    3    3  501    0 -0.85245191869E+01 -0.57352785127E+00 -0.12530254587E+03  0.12559348854E+03  0.00000000000E+00 0.  1.
         21    1    1    2  502  501  0.38328471195E+02  0.47104265604E+01 -0.33986055639E+03  0.34204744936E+03  0.00000000000E+00 0.  1.
<mgrwt>
<rscale>  1 0.30000000E+03</rscale>
<asrwt>0</asrwt>
<pdfrwt beam="1">  1        1 0.60476806E-02 0.30000000E+03</pdfrwt>
<pdfrwt beam="2">0</pdfrwt>
<totfact> 0.15228426E+03</totfact>
</mgrwt>
</event>
<event>
 6    1  0.3125838E-002  0.3000000E+03  0.7818608E-02  0.1093470E+00
          3   -1    0    0  502    0  0.00000000000E+00  0.00000000000E+00  0.14701158652E+01  0.14701158652E+01  0.00000000000E+00 0.  1.
         13   -1    0    0    0    0 -0.00000000000E+00 -0.00000000000E+00 -0.10000000000E+04  0.10000000000E+04  0.00000000000E+00 0.  1.
    9000005    2    1    2  501    0 -0.36946170479E+02  0.99859472261E+01 -0.50372431298E+03  0.50518663649E+03  0.32581506550E+01 0.  0.
         13    1    3    3    0    0 -0.28416365675E+02  0.77615625143E+01 -0.40476958893E+03  0.40584005693E+03  0.00000000000E+00 0.  1.
          1    1    3    3  501    0 -0.85298048040E+01  0.22243847117E+01 -0.98954724053E+02  0.99346579557E+02  0.00000000000E+00 0.  1.
         21    1    1    2  502  501  0.36946170479E+02 -0.99859472261E+01 -0.49480557115E+03  0.49628347937E+03  0.00000000000E+00 0.  1.
<mgrwt>
<rscale>  1 0.30000000E+03</rscale>
<asrwt>0</asrwt>
<pdfrwt beam="1">  1        3 0.53458871E-02 0.30000000E+03</pdfrwt>
<pdfrwt beam="2">0</pdfrwt>
<totfact> 0.89223050E+02</totfact>
</mgrwt>
</event>
<event>
 6    1  0.3125838E-002  0.3000000E+03  0.7818608E-02  0.1093470E+00
          1   -1    0    0  502    0  0.00000000000E+00  0.00000000000E+00  0.11917149660E+02  0.11917149660E+02  0.00000000000E+00 0.  1.
         13   -1    0    0    0    0 -0.00000000000E+00 -0.00000000000E+00 -0.10000000000E+04  0.10000000000E+04  0.00000000000E+00 0.  1.
    9000005    2    1    2  501    0 -0.21625901225E+02 -0.22584353825E+02 -0.97879128614E+03  0.97929712810E+03  0.35708037120E+01 0.  0.
         13    1    3    3    0    0 -0.20059809499E+02 -0.20400019596E+02 -0.91941113550E+03  0.91985618052E+03  0.00000000000E+00 0.  1.
          3    1    3    3  501    0 -0.15660917254E+01 -0.21843342292E+01 -0.59380150637E+02  0.59440947578E+02  0.00000000000E+00 0.  1.
         21    1    1    2  502  501  0.21625901225E+02  0.22584353825E+02 -0.92915642020E+01  0.32620021563E+02  0.00000000000E+00 0.  1.
<mgrwt>
<rscale>  1 0.30000000E+03</rscale>
<asrwt>0</asrwt>
<pdfrwt beam="1">  1        1 0.43335181E-01 0.30000000E+03</pdfrwt>
<pdfrwt beam="2">0</pdfrwt>
<totfact> 0.10644525E+02</totfact>
</mgrwt>
</event>
<event>
 6    1  0.3125838E-002  0.3000000E+03  0.7818608E-02  0.1093470E+00
          3   -1    0    0  502    0  0.00000000000E+00  0.00000000000E+00  0.12497658841E+01  0.12497658841E+01  0.00000000000E+00 0.  1.
         13   -1    0    0    0    0 -0.00000000000E+00 -0.00000000000E+00 -0.10000000000E+04  0.10000000000E+04  0.00000000000E+00 0.  1.
    9000005    2    1    2  501    0  0.27449892978E+02  0.16336488073E+02 -0.29531723026E+03  0.29709185151E+03  0.55609599886E+01 0.  0.
         13    1    3    3    0    0  0.12734222161E+02  0.57798562572E+01 -0.14998414479E+03  0.15063469335E+03  0.00000000000E+00 0.  1.
          3    1    3    3  501    0  0.14715670817E+02  0.10556631816E+02 -0.14533308548E+03  0.14645715816E+03  0.00000000000E+00 0.  1.
         21    1    1    2  502  501 -0.27449892978E+02 -0.16336488073E+02 -0.70343300385E+03  0.70415791437E+03  0.00000000000E+00 0.  1.
<mgrwt>
<rscale>  1 0.30000000E+03</rscale>
<asrwt>0</asrwt>
<pdfrwt beam="1">  1        3 0.45446128E-02 0.30000000E+03</pdfrwt>
<pdfrwt beam="2">0</pdfrwt>
<totfact> 0.11465062E+03</totfact>
</mgrwt>
</event>
<event>
 6    1  0.3125838E-002  0.3000000E+03  0.7818608E-02  0.1093470E+00
          1   -1    0    0  502    0  0.00000000000E+00  0.00000000000E+00  0.10938698333E+01  0.10938698333E+01  0.00000000000E+00 0.  1.
         13   -1    0    0    0    0 -0.00000000000E+00 -0.00000000000E+00 -0.10000000000E+04  0.10000000000E+04  0.00000000000E+00 0.  1.
    9000005    2    1    2  501    0  0.18248884860E+02  0.26816647490E+02 -0.58779314632E+03  0.58870322994E+03  0.43076332317E+01 0.  0.
         13    1    3    3    0    0  0.12619310816E+02  0.21188195955E+02 -0.46318023212E+03  0.46383630095E+03  0.00000000000E+00 0.  1.
          3    1    3    3  501    0  0.56295740440E+01  0.56284515349E+01 -0.12461291420E+03  0.12486692899E+03  0.00000000000E+00 0.  1.
         21    1    1    2  502  501 -0.18248884860E+02 -0.26816647490E+02 -0.41111298385E+03  0.41239063989E+03  0.00000000000E+00 0.  1.
<mgrwt>
<rscale>  1 0.30000000E+03</rscale>
<asrwt>0</asrwt>
<pdfrwt beam="1">  1        1 0.39777169E-02 0.30000000E+03</pdfrwt>
<pdfrwt beam="2">0</pdfrwt>
<totfact> 0.27444537E+03</totfact>
</mgrwt>
</event>
<event>
 6    1  0.3125838E-002  0.3000000E+03  0.7818608E-02  0.1093470E+00
          1   -1    0    0  502    0  0.00000000000E+00  0.00000000000E+00  0.34420814077E+01  0.34420814077E+01  0.00000000000E+00 0.  1.
         13   -1    0    0    0    0 -0.00000000000E+00 -0.00000000000E+00 -0.10000000000E+04  0.10000000000E+04  0.00000000000E+00 0.  1.
    9000005    2    1    2  501    0 -0.33883610627E+02  0.20142595030E+02 -0.12833751624E+03  0.13432730747E+03  0.44140973767E+01 0.  0.
         13    1    3    3    0    0 -0.44343706160E+01  0.37680314167E+01 -0.15085336091E+02  0.16168768305E+02  0.00000000000E+00 0.  1.
          1    1    3    3  501    0 -0.29449240011E+02  0.16374563613E+02 -0.11325218015E+03  0.11815853917E+03  0.00000000000E+00 0.  1.
         21    1    1    2  502  501  0.33883610627E+02 -0.20142595030E+02 -0.86822040236E+03  0.86911477393E+03  0.00000000000E+00 0.  1.
<mgrwt>
<rscale>  1 0.30000000E+03</rscale>
<asrwt>0</asrwt>
<pdfrwt beam="1">  1        1 0.12516686E-01 0.30000000E+03</pdfrwt>
<pdfrwt beam="2">0</pdfrwt>
<totfact> 0.55516657E+02</totfact>
</mgrwt>
</event>
<event>
 6    1  0.3125838E-002  0.3000000E+03  0.7818608E-02  0.1093470E+00
          1   -1    0    0  502    0  0.00000000000E+00  0.00000000000E+00  0.19572044880E+01  0.19572044880E+01  0.00000000000E+00 0.  1.
         13   -1    0    0    0    0 -0.00000000000E+00 -0.00000000000E+00 -0.10000000000E+04  0.10000000000E+04  0.00000000000E+00 0.  1.
    9000005    2    1    2  501    0 -0.34177031800E+02 -0.37554510101E+01 -0.81378430753E+03  0.81451824560E+03  0.35917016950E+01 0.  0.
         13    1    3    3    0    0 -0.18799513984E+02 -0.32758045856E+00 -0.43183217376E+03  0.43224131608E+03  0.00000000000E+00 0.  1.
          1    1    3    3  501    0 -0.15377517816E+02 -0.34278705516E+01 -0.38195213377E+03  0.38227692952E+03  0.00000000000E+00 0.  1.
         21    1    1    2  502  501  0.34177031800E+02  0.37554510101E+01 -0.18425848798E+03  0.18743895889E+03  0.00000000000E+00 0.  1.
<mgrwt>
<rscale>  1 0.30000000E+03</rscale>
<asrwt>0</asrwt>
<pdfrwt beam="1">  1        1 0.71171222E-02 0.30000000E+03</pdfrwt>
<pdfrwt beam="2">0</pdfrwt>
<totfact> 0.12123583E+03</totfact>
</mgrwt>
</event>
<event>
 6    1  0.3125838E-002  0.3000000E+03  0.7818608E-02  0.1093470E+00
          1   -1    0    0  502    0  0.00000000000E+00  0.00000000000E+00  0.19156172998E+01  0.19156172998E+01  0.00000000000E+00 0.  1.
         13   -1    0    0    0    0 -0.00000000000E+00 -0.00000000000E+00 -0.10000000000E+04  0.10000000000E+04  0.00000000000E+00 0.  1.
    9000005    2    1    2  501    0  0.28204724264E+02  0.18193213604E+02 -0.82028744765E+03  0.82097847461E+03  0.27675813096E+01 0.  0.
         13    1    3    3    0    0  0.56134538364E+01  0.45229662005E+01 -0.15616423032E+03  0.15633053098E+03  0.00000000000E+00 0.  1.
          3    1    3    3  501    0  0.22591270428E+02  0.13670247404E+02 -0.66412321734E+03  0.66464794363E+03  0.00000000000E+00 0.  1.
         21    1    1    2  502  501 -0.28204724264E+02 -0.18193213604E+02 -0.17779693505E+03  0.18093714269E+03  0.00000000000E+00 0.  1.
<mgrwt>
<rscale>  1 0.30000000E+03</rscale>
<asrwt>0</asrwt>
<pdfrwt beam="1">  1        1 0.69658958E-02 0.30000000E+03</pdfrwt>
<pdfrwt beam="2">0</pdfrwt>
<totfact> 0.12493148E+03</totfact>
</mgrwt>
</event>
<event>
 6    1  0.3125838E-002  0.3000000E+03  0.7818608E-02  0.1093470E+00
          1   -1    0    0  502    0  0.00000000000E+00  0.00000000000E+00  0.12419609952E+01  0.12419609952E+01  0.00000000000E+00 0.  1.
         13   -1    0    0    0    0 -0.00000000000E+00 -0.00000000000E+00 -0.10000000000E+04  0.10000000000E+04  0.00000000000E+00 0.  1.
    9000005    2    1    2  501    0 -0.25291976202E+02  0.21669515165E+02 -0.66072304446E+03  0.66157019372E+03  0.33057206425E+01 0.  0.
         13    1    3    3    0    0 -0.17106462845E+02  0.13977208991E+02 -0.40789625116E+03  0.40849399647E+03  0.00000000000E+00 0.  1.
          3    1    3    3  501    0 -0.81855133573E+01  0.76923061748E+01 -0.25282679330E+03  0.25307619725E+03  0.00000000000E+00 0.  1.
         21    1    1    2  502  501  0.25291976202E+02 -0.21669515165E+02 -0.33803499454E+03  0.33967176728E+03  0.00000000000E+00 0.  1.
<mgrwt>
<rscale>  1 0.30000000E+03</rscale>
<asrwt>0</asrwt>
<pdfrwt beam="1">  1        1 0.45162313E-02 0.30000000E+03</pdfrwt>
<pdfrwt beam="2">0</pdfrwt>
<totfact> 0.22952241E+03</totfact>
</mgrwt>
</event>
<event>
 6    1  0.3125838E-002  0.3000000E+03  0.7818608E-02  0.1093470E+00
          1   -1    0    0  502    0  0.00000000000E+00  0.00000000000E+00  0.44297687059E+01  0.44297687059E+01  0.00000000000E+00 0.  1.
         13   -1    0    0    0    0 -0.00000000000E+00 -0.00000000000E+00 -0.10000000000E+04  0.10000000000E+04  0.00000000000E+00 0.  1.
    9000005    2    1    2  501    0 -0.52220800529E+02 -0.11222126480E+02 -0.79726953893E+03  0.79906153182E+03  0.27687170120E+01 0.  0.
         13    1    3    3    0    0 -0.36101366519E+02 -0.90100461916E+01 -0.55993375385E+03  0.56116868969E+03  0.00000000000E+00 0.  1.
          1    1    3    3  501    0 -0.16119434010E+02 -0.22120802882E+01 -0.23733578509E+03  0.23789284213E+03  0.00000000000E+00 0.  1.
         21    1    1    2  502  501  0.52220800529E+02  0.11222126480E+02 -0.19830069236E+03  0.20536823688E+03  0.00000000000E+00 0.  1.
<mgrwt>
<rscale>  1 0.30000000E+03</rscale>
<asrwt>0</asrwt>
<pdfrwt beam="1">  1        1 0.16108284E-01 0.30000000E+03</pdfrwt>
<pdfrwt beam="2">0</pdfrwt>
<totfact> 0.39385225E+02</totfact>
</mgrwt>
</event>
<event>
 6    1  0.3125838E-002  0.3000000E+03  0.7818608E-02  0.1093470E+00
          1   -1    0    0  502    0  0.00000000000E+00  0.00000000000E+00  0.13143491584E+01  0.13143491584E+01  0.00000000000E+00 0.  1.
         13   -1    0    0    0    0 -0.00000000000E+00 -0.00000000000E+00 -0.10000000000E+04  0.10000000000E+04  0.00000000000E+00 0.  1.
    9000005    2    1    2  501    0  0.31724230749E+02 -0.66429086316E+01 -0.72263282477E+03  0.72336522102E+03  0.29135016814E+01 0.  0.
         13    1    3    3    0    0  0.25210380756E+02 -0.59042138926E+01 -0.59757489443E+03  0.59813558454E+03  0.00000000000E+00 0.  1.
          1    1    3    3  501    0  0.65138499926E+01 -0.73869473902E+00 -0.12505793035E+03  0.12522963648E+03  0.00000000000E+00 0.  1.
         21    1    1    2  502  501 -0.31724230749E+02  0.66429086316E+01 -0.27605282607E+03  0.27794912814E+03  0.00000000000E+00 0.  1.
<mgrwt>
<rscale>  1 0.30000000E+03</rscale>
<asrwt>0</asrwt>
<pdfrwt beam="1">  1        1 0.47794616E-02 0.30000000E+03</pdfrwt>
<pdfrwt beam="2">0</pdfrwt>
<totfact> 0.21194025E+03</totfact>
</mgrwt>
</event>
<event>
 6    1  0.3125838E-002  0.3000000E+03  0.7818608E-02  0.1093470E+00
          1   -1    0    0  502    0  0.00000000000E+00  0.00000000000E+00  0.47227358353E+01  0.47227358353E+01  0.00000000000E+00 0.  1.
         13   -1    0    0    0    0 -0.00000000000E+00 -0.00000000000E+00 -0.10000000000E+04  0.10000000000E+04  0.00000000000E+00 0.  1.
    9000005    2    1    2  501    0 -0.13477860051E+02  0.62557295444E+02 -0.68027677444E+03  0.68328786459E+03  0.32784341127E+01 0.  0.
         13    1    3    3    0    0 -0.18987688144E+01  0.63091991092E+01 -0.79549097567E+02  0.79821489839E+02  0.00000000000E+00 0.  1.
          3    1    3    3  501    0 -0.11579091236E+02  0.56248096335E+02 -0.60072767688E+03  0.60346637475E+03  0.00000000000E+00 0.  1.
         21    1    1    2  502  501  0.13477860051E+02 -0.62557295444E+02 -0.31500048972E+03  0.32143487124E+03  0.00000000000E+00 0.  1.
<mgrwt>
<rscale>  1 0.30000000E+03</rscale>
<asrwt>0</asrwt>
<pdfrwt beam="1">  1        1 0.17173621E-01 0.30000000E+03</pdfrwt>
<pdfrwt beam="2">0</pdfrwt>
<totfact> 0.36122742E+02</totfact>
</mgrwt>
</event>
<event>
 6    1  0.3125838E-002  0.3000000E+03  0.7818608E-02  0.1093470E+00
          3   -1    0    0  502    0  0.00000000000E+00  0.00000000000E+00  0.11198330743E+01  0.11198330743E+01  0.00000000000E+00 0.  1.
         13   -1    0    0    0    0 -0.00000000000E+00 -0.00000000000E+00 -0.10000000000E+04  0.10000000000E+04  0.00000000000E+00 0.  1.
    9000005    2    1    2  501    0  0.12758144092E+02  0.29729087343E+02 -0.62361509691E+03  0.62446287820E+03  0.33923872688E+01 0.  0.
         13    1    3    3    0    0  0.61318692835E+01  0.14796767254E+02 -0.27642832415E+03  0.27689196906E+03  0.00000000000E+00 0.  1.
          3    1    3    3  501    0  0.66262748088E+01  0.14932320089E+02 -0.34718677276E+03  0.34757090914E+03  0.00000000000E+00 0.  1.
         21    1    1    2  502  501 -0.12758144092E+02 -0.29729087343E+02 -0.37526507002E+03  0.37665695487E+03  0.00000000000E+00 0.  1.
<mgrwt>
<rscale>  1 0.30000000E+03</rscale>
<asrwt>0</asrwt>
<pdfrwt beam="1">  1        3 0.40721289E-02 0.30000000E+03</pdfrwt>
<pdfrwt beam="2">0</pdfrwt>
<totfact> 0.13574851E+03</totfact>
</mgrwt>
</event>
<event>
 6    1  0.3125838E-002  0.3000000E+03  0.7818608E-02  0.1093470E+00
          1   -1    0    0  502    0  0.00000000000E+00  0.00000000000E+00  0.12660576711E+01  0.12660576711E+01  0.00000000000E+00 0.  1.
         13   -1    0    0    0    0 -0.00000000000E+00 -0.00000000000E+00 -0.10000000000E+04  0.10000000000E+04  0.00000000000E+00 0.  1.
    9000005    2    1    2  501    0 -0.34892624692E+02 -0.38748148126E+01 -0.57653769887E+03  0.57761268823E+03  0.28618068857E+01 0.  0.
         13    1    3    3    0    0 -0.25228566143E+02 -0.26197513981E+01 -0.39485892674E+03  0.39567273810E+03  0.00000000000E+00 0.  1.
          1    1    3    3  501    0 -0.96640585489E+01 -0.12550634144E+01 -0.18167877213E+03  0.18193995013E+03  0.00000000000E+00 0.  1.
         21    1    1    2  502  501  0.34892624692E+02  0.38748148126E+01 -0.42219624346E+03  0.42365336944E+03  0.00000000000E+00 0.  1.
<mgrwt>
<rscale>  1 0.30000000E+03</rscale>
<asrwt>0</asrwt>
<pdfrwt beam="1">  1        1 0.46038558E-02 0.30000000E+03</pdfrwt>
<pdfrwt beam="2">0</pdfrwt>
<totfact> 0.22339921E+03</totfact>
</mgrwt>
</event>
<event>
 6    1  0.3125838E-002  0.3000000E+03  0.7818608E-02  0.1093470E+00
          1   -1    0    0  502    0  0.00000000000E+00  0.00000000000E+00  0.10040199042E+02  0.10040199042E+02  0.00000000000E+00 0.  1.
         13   -1    0    0    0    0 -0.00000000000E+00 -0.00000000000E+00 -0.10000000000E+04  0.10000000000E+04  0.00000000000E+00 0.  1.
    9000005    2    1    2  501    0  0.20768386504E+02  0.34594956887E+02 -0.95723300088E+03  0.95808656237E+03  0.25896141438E+01 0.  0.
         13    1    3    3    0    0  0.37624786066E+01  0.46575027511E+01 -0.15146379728E+03  0.15158209150E+03  0.00000000000E+00 0.  1.
          3    1    3    3  501    0  0.17005907898E+02  0.29937454135E+02 -0.80576920360E+03  0.80650447087E+03  0.00000000000E+00 0.  1.
         21    1    1    2  502  501 -0.20768386504E+02 -0.34594956887E+02 -0.32726800078E+02  0.51953636671E+02  0.00000000000E+00 0.  1.
<mgrwt>
<rscale>  1 0.30000000E+03</rscale>
<asrwt>0</asrwt>
<pdfrwt beam="1">  1        1 0.36509892E-01 0.30000000E+03</pdfrwt>
<pdfrwt beam="2">0</pdfrwt>
<totfact> 0.13316942E+02</totfact>
</mgrwt>
</event>
<event>
 6    1  0.3125838E-002  0.3000000E+03  0.7818608E-02  0.1093470E+00
          1   -1    0    0  502    0  0.00000000000E+00  0.00000000000E+00  0.21091136333E+01  0.21091136333E+01  0.00000000000E+00 0.  1.
         13   -1    0    0    0    0 -0.00000000000E+00 -0.00000000000E+00 -0.10000000000E+04  0.10000000000E+04  0.00000000000E+00 0.  1.
    9000005    2    1    2  501    0  0.17034801362E+02 -0.38477549371E+02 -0.69852425234E+03  0.69979952426E+03  0.35407306887E+01 0.  0.
         13    1    3    3    0    0  0.16752298494E+02 -0.36255623868E+02 -0.66835052667E+03  0.66954278151E+03  0.00000000000E+00 0.  1.
          3    1    3    3  501    0  0.28250286834E+00 -0.22219255033E+01 -0.30173725673E+02  0.30256742749E+02  0.00000000000E+00 0.  1.
         21    1    1    2  502  501 -0.17034801362E+02  0.38477549371E+02 -0.29936663402E+03  0.30230958938E+03  0.00000000000E+00 0.  1.
<mgrwt>
<rscale>  1 0.30000000E+03</rscale>
<asrwt>0</asrwt>
<pdfrwt beam="1">  1        1 0.76695203E-02 0.30000000E+03</pdfrwt>
<pdfrwt beam="2">0</pdfrwt>
<totfact> 0.10921969E+03</totfact>
</mgrwt>
</event>
<event>
 6    1  0.3125838E-002  0.3000000E+03  0.7818608E-02  0.1093470E+00
          3   -1    0    0  502    0  0.00000000000E+00  0.00000000000E+00  0.29731020885E+01  0.29731020885E+01  0.00000000000E+00 0.  1.
         13   -1    0    0    0    0 -0.00000000000E+00 -0.00000000000E+00 -0.10000000000E+04  0.10000000000E+04  0.00000000000E+00 0.  1.
    9000005    2    1    2  501    0  0.66948574737E+01  0.41145634556E+02 -0.82153182217E+03  0.82259487178E+03  0.31628913364E+01 0.  0.
         13    1    3    3    0    0  0.55216500200E+01  0.26555186869E+02 -0.51493040551E+03  0.51564424663E+03  0.00000000000E+00 0.  1.
          1    1    3    3  501    0  0.11732074538E+01  0.14590447687E+02 -0.30660141667E+03  0.30695062515E+03  0.00000000000E+00 0.  1.
         21    1    1    2  502  501 -0.66948574737E+01 -0.41145634556E+02 -0.17549507574E+03  0.18037823031E+03  0.00000000000E+00 0.  1.
<mgrwt>
<rscale>  1 0.30000000E+03</rscale>
<asrwt>0</asrwt>
<pdfrwt beam="1">  1        3 0.10811303E-01 0.30000000E+03</pdfrwt>
<pdfrwt beam="2">0</pdfrwt>
<totfact> 0.29019140E+02</totfact>
</mgrwt>
</event>
<event>
 6    1  0.3125838E-002  0.3000000E+03  0.7818608E-02  0.1093470E+00
          1   -1    0    0  502    0  0.00000000000E+00  0.00000000000E+00  0.43787312914E+01  0.43787312914E+01  0.00000000000E+00 0.  1.
         13   -1    0    0    0    0 -0.00000000000E+00 -0.00000000000E+00 -0.10000000000E+04  0.10000000000E+04  0.00000000000E+00 0.  1.
    9000005    2    1    2  501    0  0.25870586300E+02 -0.22864528046E+02 -0.92616700416E+03  0.92681605508E+03  0.32567570042E+01 0.  0.
         13    1    3    3    0    0  0.16384275250E+02 -0.14944636467E+02 -0.63432974051E+03  0.63471726488E+03  0.00000000000E+00 0.  1.
          3    1    3    3  501    0  0.94863110495E+01 -0.79198915794E+01 -0.29183726365E+03  0.29209879020E+03  0.00000000000E+00 0.  1.
         21    1    1    2  502  501 -0.25870586300E+02  0.22864528046E+02 -0.69454264545E+02  0.77562676216E+02  0.00000000000E+00 0.  1.
<mgrwt>
<rscale>  1 0.30000000E+03</rscale>
<asrwt>0</asrwt>
<pdfrwt beam="1">  1        1 0.15922693E-01 0.30000000E+03</pdfrwt>
<pdfrwt beam="2">0</pdfrwt>
<totfact> 0.40007749E+02</totfact>
</mgrwt>
</event>
<event>
 6    1  0.3125838E-002  0.3000000E+03  0.7818608E-02  0.1093470E+00
          3   -1    0    0  502    0  0.00000000000E+00  0.00000000000E+00  0.33255329331E+01  0.33255329331E+01  0.00000000000E+00 0.  1.
         13   -1    0    0    0    0 -0.00000000000E+00 -0.00000000000E+00 -0.10000000000E+04  0.10000000000E+04  0.00000000000E+00 0.  1.
    9000005    2    1    2  501    0 -0.28043194636E+02 -0.15578788313E+02 -0.91461861306E+03  0.91522171584E+03  0.86291579197E+01 0.  0.
         13    1    3    3    0    0 -0.96984003002E+01 -0.59239373628E+01 -0.21943927639E+03  0.21973335665E+03  0.00000000000E+00 0.  1.
          3    1    3    3  501    0 -0.18344794336E+02 -0.96548509499E+01 -0.69517933667E+03  0.69548835918E+03  0.00000000000E+00 0.  1.
         21    1    1    2  502  501  0.28043194636E+02  0.15578788313E+02 -0.82055854003E+02  0.88103817095E+02  0.00000000000E+00 0.  1.
<mgrwt>
<rscale>  1 0.30000000E+03</rscale>
<asrwt>0</asrwt>
<pdfrwt beam="1">  1        3 0.12092873E-01 0.30000000E+03</pdfrwt>
<pdfrwt beam="2">0</pdfrwt>
<totfact> 0.24046693E+02</totfact>
</mgrwt>
</event>
<event>
 6    1  0.3125838E-002  0.3000000E+03  0.7818608E-02  0.1093470E+00
          1   -1    0    0  502    0  0.00000000000E+00  0.00000000000E+00  0.34100929666E+01  0.34100929666E+01  0.00000000000E+00 0.  1.
         13   -1    0    0    0    0 -0.00000000000E+00 -0.00000000000E+00 -0.10000000000E+04  0.10000000000E+04  0.00000000000E+00 0.  1.
    9000005    2    1    2  501    0 -0.13985456442E+02  0.49652589350E+02 -0.73288822849E+03  0.73471035741E+03  0.36305931418E+01 0.  0.
         13    1    3    3    0    0 -0.10788681100E+02  0.41524795957E+02 -0.62306407550E+03  0.62453946753E+03  0.00000000000E+00 0.  1.
          1    1    3    3  501    0 -0.31967753420E+01  0.81277933932E+01 -0.10982415299E+03  0.11017088988E+03  0.00000000000E+00 0.  1.
         21    1    1    2  502  501  0.13985456442E+02 -0.49652589350E+02 -0.26370167854E+03  0.26869973556E+03  0.00000000000E+00 0.  1.
<mgrwt>
<rscale>  1 0.30000000E+03</rscale>
<asrwt>0</asrwt>
<pdfrwt beam="1">  1        1 0.12400364E-01 0.30000000E+03</pdfrwt>
<pdfrwt beam="2">0</pdfrwt>
<totfact> 0.56230842E+02</totfact>
</mgrwt>
</event>
<event>
 6    1  0.3125838E-002  0.3000000E+03  0.7818608E-02  0.1093470E+00
          3   -1    0    0  502    0  0.00000000000E+00  0.00000000000E+00  0.55950975017E+01  0.55950975017E+01  0.00000000000E+00 0.  1.
         13   -1    0    0    0    0 -0.00000000000E+00 -0.00000000000E+00 -0.10000000000E+04  0.10000000000E+04  0.00000000000E+00 0.  1.
    9000005    2    1    2  501    0  0.53221210690E+01  0.42721403194E+02 -0.90832192529E+03  0.90934686516E+03  0.30915938981E+01 0.  0.
         13    1    3    3    0    0  0.31345637925E+01  0.34819867838E+02 -0.73998364132E+03  0.74080904294E+03  0.00000000000E+00 0.  1.
          3    1    3    3  501    0  0.21875572765E+01  0.79015353559E+01 -0.16833828397E+03  0.16853782222E+03  0.00000000000E+00 0.  1.
         21    1    1    2  502  501 -0.53221210690E+01 -0.42721403194E+02 -0.86082977205E+02  0.96248232337E+02  0.00000000000E+00 0.  1.
<mgrwt>
<rscale>  1 0.30000000E+03</rscale>
<asrwt>0</asrwt>
<pdfrwt beam="1">  1        3 0.20345852E-01 0.30000000E+03</pdfrwt>
<pdfrwt beam="2">0</pdfrwt>
<totfact> 0.96878763E+01</totfact>
</mgrwt>
</event>
<event>
 6    1  0.3125838E-002  0.3000000E+03  0.7818608E-02  0.1093470E+00
          1   -1    0    0  502    0  0.00000000000E+00  0.00000000000E+00  0.15823464250E+01  0.15823464250E+01  0.00000000000E+00 0.  1.
         13   -1    0    0    0    0 -0.00000000000E+00 -0.00000000000E+00 -0.10000000000E+04  0.10000000000E+04  0.00000000000E+00 0.  1.
    9000005    2    1    2  501    0  0.23871724014E+02 -0.19706313058E+02 -0.81305403618E+03  0.81365185759E+03  0.37791032807E+01 0.  0.
         13    1    3    3    0    0  0.13276503710E+02 -0.13345786738E+02 -0.48637826738E+03  0.48674243143E+03  0.00000000000E+00 0.  1.
          3    1    3    3  501    0  0.10595220304E+02 -0.63605263202E+01 -0.32667576880E+03  0.32690942616E+03  0.00000000000E+00 0.  1.
         21    1    1    2  502  501 -0.23871724014E+02  0.19706313058E+02 -0.18536361739E+03  0.18793048884E+03  0.00000000000E+00 0.  1.
<mgrwt>
<rscale>  1 0.30000000E+03</rscale>
<asrwt>0</asrwt>
<pdfrwt beam="1">  1        1 0.57539991E-02 0.30000000E+03</pdfrwt>
<pdfrwt beam="2">0</pdfrwt>
<totfact> 0.16330209E+03</totfact>
</mgrwt>
</event>
<event>
 6    1  0.3125838E-002  0.3000000E+03  0.7818608E-02  0.1093470E+00
          3   -1    0    0  502    0  0.00000000000E+00  0.00000000000E+00  0.54835759025E+01  0.54835759025E+01  0.00000000000E+00 0.  1.
         13   -1    0    0    0    0 -0.00000000000E+00 -0.00000000000E+00 -0.10000000000E+04  0.10000000000E+04  0.00000000000E+00 0.  1.
    9000005    2    1    2  501    0  0.18125408828E+02 -0.30517116515E+02 -0.93844869916E+03  0.93912534638E+03  0.32604317012E+01 0.  0.
         13    1    3    3    0    0  0.66022894199E+01 -0.84293909213E+01 -0.26674741219E+03  0.26696221973E+03  0.00000000000E+00 0.  1.
          3    1    3    3  501    0  0.11523119408E+02 -0.22087725594E+02 -0.67170128697E+03  0.67216312665E+03  0.00000000000E+00 0.  1.
         21    1    1    2  502  501 -0.18125408828E+02  0.30517116515E+02 -0.56067724939E+02  0.66358229523E+02  0.00000000000E+00 0.  1.
<mgrwt>
<rscale>  1 0.30000000E+03</rscale>
<asrwt>0</asrwt>
<pdfrwt beam="1">  1        3 0.19940318E-01 0.30000000E+03</pdfrwt>
<pdfrwt beam="2">0</pdfrwt>
<totfact> 0.10049528E+02</totfact>
</mgrwt>
</event>
<event>
 6    1  0.3125838E-002  0.3000000E+03  0.7818608E-02  0.1093470E+00
          1   -1    0    0  502    0  0.00000000000E+00  0.00000000000E+00  0.25931743628E+01  0.25931743628E+01  0.00000000000E+00 0.  1.
         13   -1    0    0    0    0 -0.00000000000E+00 -0.00000000000E+00 -0.10000000000E+04  0.10000000000E+04  0.00000000000E+00 0.  1.
    9000005    2    1    2  501    0  0.80076203092E+01  0.49606048112E+02 -0.57523794082E+03  0.57744443651E+03  0.43019416745E+01 0.  0.
         13    1    3    3    0    0  0.50082687071E+01  0.20988617175E+02 -0.23055688915E+03  0.23156442719E+03  0.00000000000E+00 0.  1.
          3    1    3    3  501    0  0.29993516021E+01  0.28617430937E+02 -0.34468105168E+03  0.34588000932E+03  0.00000000000E+00 0.  1.
         21    1    1    2  502  501 -0.80076203092E+01 -0.49606048112E+02 -0.42216888481E+03  0.42514873785E+03  0.00000000000E+00 0.  1.
<mgrwt>
<rscale>  1 0.30000000E+03</rscale>
<asrwt>0</asrwt>
<pdfrwt beam="1">  1        1 0.94297448E-02 0.30000000E+03</pdfrwt>
<pdfrwt beam="2">0</pdfrwt>
<totfact> 0.81965042E+02</totfact>
</mgrwt>
</event>
<event>
 6    1  0.3125838E-002  0.3000000E+03  0.7818608E-02  0.1093470E+00
          1   -1    0    0  502    0  0.00000000000E+00  0.00000000000E+00  0.11212229578E+01  0.11212229578E+01  0.00000000000E+00 0.  1.
         13   -1    0    0    0    0 -0.00000000000E+00 -0.00000000000E+00 -0.10000000000E+04  0.10000000000E+04  0.00000000000E+00 0.  1.
    9000005    2    1    2  501    0  0.28312269123E+02  0.13298912759E+02 -0.67472612992E+03  0.67546283707E+03  0.40309057252E+01 0.  0.
         13    1    3    3    0    0  0.15441503948E+02  0.54767278098E+01 -0.37743021766E+03  0.37778565853E+03  0.00000000000E+00 0.  1.
          1    1    3    3  501    0  0.12870765175E+02  0.78221849489E+01 -0.29729591226E+03  0.29767717854E+03  0.00000000000E+00 0.  1.
         21    1    1    2  502  501 -0.28312269123E+02 -0.13298912759E+02 -0.32415264712E+03  0.32565838589E+03  0.00000000000E+00 0.  1.
<mgrwt>
<rscale>  1 0.30000000E+03</rscale>
<asrwt>0</asrwt>
<pdfrwt beam="1">  1        1 0.40771830E-02 0.30000000E+03</pdfrwt>
<pdfrwt beam="2">0</pdfrwt>
<totfact> 0.26506572E+03</totfact>
</mgrwt>
</event>
<event>
 6    1  0.3125838E-002  0.3000000E+03  0.7818608E-02  0.1093470E+00
          1   -1    0    0  502    0  0.00000000000E+00  0.00000000000E+00  0.31610539644E+02  0.31610539644E+02  0.00000000000E+00 0.  1.
         13   -1    0    0    0    0 -0.00000000000E+00 -0.00000000000E+00 -0.10000000000E+04  0.10000000000E+04  0.00000000000E+00 0.  1.
    9000005    2    1    2  501    0  0.17664835728E+02 -0.26781167919E+02 -0.99152953620E+03  0.99205373889E+03  0.32438116162E+01 0.  0.
         13    1    3    3    0    0  0.16203893504E+02 -0.25161678661E+02 -0.89727386645E+03  0.89777283744E+03  0.00000000000E+00 0.  1.
          1    1    3    3  501    0  0.14609422245E+01 -0.16194892577E+01 -0.94255669748E+02  0.94280901445E+02  0.00000000000E+00 0.  1.
         21    1    1    2  502  501 -0.17664835728E+02  0.26781167919E+02  0.23140075839E+02  0.39556800758E+02  0.00000000000E+00 0.  1.
<mgrwt>
<rscale>  1 0.30000000E+03</rscale>
<asrwt>0</asrwt>
<pdfrwt beam="1">  1        1 0.11494766E+00 0.30000000E+03</pdfrwt>
<pdfrwt beam="2">0</pdfrwt>
<totfact> 0.27785528E+01</totfact>
</mgrwt>
</event>
<event>
 6    1  0.3125838E-002  0.3000000E+03  0.7818608E-02  0.1093470E+00
          1   -1    0    0  502    0  0.00000000000E+00  0.00000000000E+00  0.15898076545E+01  0.15898076545E+01  0.00000000000E+00 0.  1.
         13   -1    0    0    0    0 -0.00000000000E+00 -0.00000000000E+00 -0.10000000000E+04  0.10000000000E+04  0.00000000000E+00 0.  1.
    9000005    2    1    2  501    0  0.11706057288E+02 -0.33992178042E+02 -0.28499871612E+03  0.28727304713E+03  0.30059069089E+01 0.  0.
         13    1    3    3    0    0  0.15118486113E+01 -0.74910250179E+01 -0.66187786361E+02  0.66627503371E+02  0.00000000000E+00 0.  1.
          1    1    3    3  501    0  0.10194208676E+02 -0.26501153024E+02 -0.21881092975E+03  0.22064554376E+03  0.00000000000E+00 0.  1.
         21    1    1    2  502  501 -0.11706057288E+02  0.33992178042E+02 -0.71341147623E+03  0.71431676052E+03  0.00000000000E+00 0.  1.
<mgrwt>
<rscale>  1 0.30000000E+03</rscale>
<asrwt>0</asrwt>
<pdfrwt beam="1">  1        1 0.57811309E-02 0.30000000E+03</pdfrwt>
<pdfrwt beam="2">0</pdfrwt>
<totfact> 0.16222733E+03</totfact>
</mgrwt>
</event>
<event>
 6    1  0.3125838E-002  0.3000000E+03  0.7818608E-02  0.1093470E+00
          1   -1    0    0  502    0  0.00000000000E+00  0.00000000000E+00  0.13367438186E+02  0.13367438186E+02  0.00000000000E+00 0.  1.
         13   -1    0    0    0    0 -0.00000000000E+00 -0.00000000000E+00 -0.10000000000E+04  0.10000000000E+04  0.00000000000E+00 0.  1.
    9000005    2    1    2  501    0  0.66050467724E+02  0.35494109404E+02 -0.87895659069E+03  0.88215535472E+03  0.32993121287E+01 0.  0.
         13    1    3    3    0    0  0.23270196898E+02  0.13927416379E+02 -0.32920197308E+03  0.33031714165E+03  0.00000000000E+00 0.  1.
          1    1    3    3  501    0  0.42780270826E+02  0.21566693025E+02 -0.54975461761E+03  0.55183821307E+03  0.00000000000E+00 0.  1.
         21    1    1    2  502  501 -0.66050467724E+02 -0.35494109404E+02 -0.10767597112E+03  0.13121208346E+03  0.00000000000E+00 0.  1.
<mgrwt>
<rscale>  1 0.30000000E+03</rscale>
<asrwt>0</asrwt>
<pdfrwt beam="1">  1        1 0.48608969E-01 0.30000000E+03</pdfrwt>
<pdfrwt beam="2">0</pdfrwt>
<totfact> 0.91580304E+01</totfact>
</mgrwt>
</event>
<event>
 6    1  0.3125838E-002  0.3000000E+03  0.7818608E-02  0.1093470E+00
          1   -1    0    0  502    0  0.00000000000E+00  0.00000000000E+00  0.13441127616E+01  0.13441127616E+01  0.00000000000E+00 0.  1.
         13   -1    0    0    0    0 -0.00000000000E+00 -0.00000000000E+00 -0.10000000000E+04  0.10000000000E+04  0.00000000000E+00 0.  1.
    9000005    2    1    2  501    0 -0.34194466600E+02 -0.12691626328E+02 -0.54354210878E+03  0.54477112816E+03  0.26868448646E+01 0.  0.
         13    1    3    3    0    0 -0.18349906501E+02 -0.76650781760E+01 -0.28001572999E+03  0.28072100302E+03  0.00000000000E+00 0.  1.
          3    1    3    3  501    0 -0.15844560099E+02 -0.50265481516E+01 -0.26352637879E+03  0.26405012515E+03  0.00000000000E+00 0.  1.
         21    1    1    2  502  501  0.34194466600E+02  0.12691626328E+02 -0.45511377845E+03  0.45657298460E+03  0.00000000000E+00 0.  1.
<mgrwt>
<rscale>  1 0.30000000E+03</rscale>
<asrwt>0</asrwt>
<pdfrwt beam="1">  1        1 0.48876931E-02 0.30000000E+03</pdfrwt>
<pdfrwt beam="2">0</pdfrwt>
<totfact> 0.20537093E+03</totfact>
</mgrwt>
</event>
<event>
 6    1  0.3125838E-002  0.3000000E+03  0.7818608E-02  0.1093470E+00
          1   -1    0    0  502    0  0.00000000000E+00  0.00000000000E+00  0.12611908461E+01  0.12611908461E+01  0.00000000000E+00 0.  1.
         13   -1    0    0    0    0 -0.00000000000E+00 -0.00000000000E+00 -0.10000000000E+04  0.10000000000E+04  0.00000000000E+00 0.  1.
    9000005    2    1    2  501    0 -0.14643732099E+02 -0.32116024190E+02 -0.47042260555E+03  0.47176719760E+03  0.45807219550E+01 0.  0.
         13    1    3    3    0    0 -0.10957846116E+02 -0.26437168898E+02 -0.35881882934E+03  0.35995826227E+03  0.00000000000E+00 0.  1.
          3    1    3    3  501    0 -0.36858859831E+01 -0.56788552926E+01 -0.11160377621E+03  0.11180893532E+03  0.00000000000E+00 0.  1.
         21    1    1    2  502  501  0.14643732099E+02  0.32116024190E+02 -0.52831620360E+03  0.52949399325E+03  0.00000000000E+00 0.  1.
<mgrwt>
<rscale>  1 0.30000000E+03</rscale>
<asrwt>0</asrwt>
<pdfrwt beam="1">  1        1 0.45861582E-02 0.30000000E+03</pdfrwt>
<pdfrwt beam="2">0</pdfrwt>
<totfact> 0.22461312E+03</totfact>
</mgrwt>
</event>
<event>
 6    1  0.3125838E-002  0.3000000E+03  0.7818608E-02  0.1093470E+00
          1   -1    0    0  502    0  0.00000000000E+00  0.00000000000E+00  0.14817482332E+01  0.14817482332E+01  0.00000000000E+00 0.  1.
         13   -1    0    0    0    0 -0.00000000000E+00 -0.00000000000E+00 -0.10000000000E+04  0.10000000000E+04  0.00000000000E+00 0.  1.
    9000005    2    1    2  501    0 -0.10975607225E+02 -0.33589630566E+02 -0.69653736180E+03  0.69744032813E+03  0.31603287999E+01 0.  0.
         13    1    3    3    0    0 -0.59538790468E+01 -0.14267423754E+02 -0.28497668426E+03  0.28539572287E+03  0.00000000000E+00 0.  1.
          1    1    3    3  501    0 -0.50217281778E+01 -0.19322206812E+02 -0.41156067754E+03  0.41204460526E+03  0.00000000000E+00 0.  1.
         21    1    1    2  502  501  0.10975607225E+02  0.33589630566E+02 -0.30198088997E+03  0.30404142011E+03  0.00000000000E+00 0.  1.
<mgrwt>
<rscale>  1 0.30000000E+03</rscale>
<asrwt>0</asrwt>
<pdfrwt beam="1">  1        1 0.53881868E-02 0.30000000E+03</pdfrwt>
<pdfrwt beam="2">0</pdfrwt>
<totfact> 0.17907947E+03</totfact>
</mgrwt>
</event>
<event>
 6    1  0.3125838E-002  0.3000000E+03  0.7818608E-02  0.1093470E+00
          1   -1    0    0  502    0  0.00000000000E+00  0.00000000000E+00  0.12320082372E+02  0.12320082372E+02  0.00000000000E+00 0.  1.
         13   -1    0    0    0    0 -0.00000000000E+00 -0.00000000000E+00 -0.10000000000E+04  0.10000000000E+04  0.00000000000E+00 0.  1.
    9000005    2    1    2  501    0 -0.16375518678E+02  0.39867651175E+02 -0.96027147698E+03  0.96124357269E+03  0.32108136700E+01 0.  0.
         13    1    3    3    0    0 -0.11432530657E+02  0.26521440753E+02 -0.61076071118E+03  0.61144315835E+03  0.00000000000E+00 0.  1.
          1    1    3    3  501    0 -0.49429880209E+01  0.13346210421E+02 -0.34951076580E+03  0.34980041434E+03  0.00000000000E+00 0.  1.
         21    1    1    2  502  501  0.16375518678E+02 -0.39867651175E+02 -0.27408440650E+02  0.51076509679E+02  0.00000000000E+00 0.  1.
<mgrwt>
<rscale>  1 0.30000000E+03</rscale>
<asrwt>0</asrwt>
<pdfrwt beam="1">  1        1 0.44800394E-01 0.30000000E+03</pdfrwt>
<pdfrwt beam="2">0</pdfrwt>
<totfact> 0.10191138E+02</totfact>
</mgrwt>
</event>
<event>
 6    1  0.3125838E-002  0.3000000E+03  0.7818608E-02  0.1093470E+00
          3   -1    0    0  502    0  0.00000000000E+00  0.00000000000E+00  0.14487188716E+01  0.14487188716E+01  0.00000000000E+00 0.  1.
         13   -1    0    0    0    0 -0.00000000000E+00 -0.00000000000E+00 -0.10000000000E+04  0.10000000000E+04  0.00000000000E+00 0.  1.
    9000005    2    1    2  501    0 -0.37880003330E+02  0.25812289327E+01 -0.51604432704E+03  0.51745024972E+03  0.33846820415E+01 0.  0.
         13    1    3    3    0    0 -0.10984740718E+02  0.78748813608E+00 -0.12967589708E+03  0.13014270226E+03  0.00000000000E+00 0.  1.
          3    1    3    3  501    0 -0.26895262611E+02  0.17937407966E+01 -0.38636842996E+03  0.38730754747E+03  0.00000000000E+00 0.  1.
         21    1    1    2  502  501  0.37880003330E+02 -0.25812289327E+01 -0.48250695409E+03  0.48399846915E+03  0.00000000000E+00 0.  1.
<mgrwt>
<rscale>  1 0.30000000E+03</rscale>
<asrwt>0</asrwt>
<pdfrwt beam="1">  1        3 0.52680797E-02 0.30000000E+03</pdfrwt>
<pdfrwt beam="2">0</pdfrwt>
<totfact> 0.91269895E+02</totfact>
</mgrwt>
</event>
<event>
 6    1  0.3125838E-002  0.3000000E+03  0.7818608E-02  0.1093470E+00
          1   -1    0    0  502    0  0.00000000000E+00  0.00000000000E+00  0.22810659847E+02  0.22810659847E+02  0.00000000000E+00 0.  1.
         13   -1    0    0    0    0 -0.00000000000E+00 -0.00000000000E+00 -0.10000000000E+04  0.10000000000E+04  0.00000000000E+00 0.  1.
    9000005    2    1    2  501    0  0.12331079531E+02 -0.30884095914E+02 -0.98742956130E+03  0.98801489815E+03  0.71005313250E+01 0.  0.
         13    1    3    3    0    0 -0.28139534731E-01 -0.58471871456E+00 -0.69142962623E+02  0.69145440689E+02  0.00000000000E+00 0.  1.
          3    1    3    3  501    0  0.12359219066E+02 -0.30299377199E+02 -0.91828659867E+03  0.91886945746E+03  0.00000000000E+00 0.  1.
         21    1    1    2  502  501 -0.12331079531E+02  0.30884095914E+02  0.10240221144E+02  0.34795761694E+02  0.00000000000E+00 0.  1.
<mgrwt>
<rscale>  1 0.30000000E+03</rscale>
<asrwt>0</asrwt>
<pdfrwt beam="1">  1        1 0.82948029E-01 0.30000000E+03</pdfrwt>
<pdfrwt beam="2">0</pdfrwt>
<totfact> 0.44666452E+01</totfact>
</mgrwt>
</event>
<event>
 6    1  0.3125838E-002  0.3000000E+03  0.7818608E-02  0.1093470E+00
          3   -1    0    0  502    0  0.00000000000E+00  0.00000000000E+00  0.17192503672E+01  0.17192503672E+01  0.00000000000E+00 0.  1.
         13   -1    0    0    0    0 -0.00000000000E+00 -0.00000000000E+00 -0.10000000000E+04  0.10000000000E+04  0.00000000000E+00 0.  1.
    9000005    2    1    2  501    0 -0.16085925664E+02  0.38123659931E+02 -0.47987140807E+03  0.48166116143E+03  0.29556208407E+01 0.  0.
         13    1    3    3    0    0 -0.79919609918E+01  0.20262157596E+02 -0.23640344974E+03  0.23740475463E+03  0.00000000000E+00 0.  1.
          3    1    3    3  501    0 -0.80939646725E+01  0.17861502335E+02 -0.24346795833E+03  0.24425640680E+03  0.00000000000E+00 0.  1.
         21    1    1    2  502  501  0.16085925664E+02 -0.38123659931E+02 -0.51840934156E+03  0.52005808894E+03  0.00000000000E+00 0.  1.
<mgrwt>
<rscale>  1 0.30000000E+03</rscale>
<asrwt>0</asrwt>
<pdfrwt beam="1">  1        3 0.62518327E-02 0.30000000E+03</pdfrwt>
<pdfrwt beam="2">0</pdfrwt>
<totfact> 0.69935109E+02</totfact>
</mgrwt>
</event>
<event>
 6    1  0.3125838E-002  0.3000000E+03  0.7818608E-02  0.1093470E+00
          1   -1    0    0  502    0  0.00000000000E+00  0.00000000000E+00  0.10017052483E+01  0.10017052483E+01  0.00000000000E+00 0.  1.
         13   -1    0    0    0    0 -0.00000000000E+00 -0.00000000000E+00 -0.10000000000E+04  0.10000000000E+04  0.00000000000E+00 0.  1.
    9000005    2    1    2  501    0  0.56284828758E+01  0.30597925632E+02 -0.47145518453E+03  0.47254201329E+03  0.76190839519E+01 0.  0.
         13    1    3    3    0    0  0.18927254067E+01  0.15578207301E+02 -0.29166897682E+03  0.29209083346E+03  0.00000000000E+00 0.  1.
          1    1    3    3  501    0  0.37357574691E+01  0.15019718332E+02 -0.17978620770E+03  0.18045117983E+03  0.00000000000E+00 0.  1.
         21    1    1    2  502  501 -0.56284828758E+01 -0.30597925632E+02 -0.52754311023E+03  0.52845969195E+03  0.00000000000E+00 0.  1.
<mgrwt>
<rscale>  1 0.30000000E+03</rscale>
<asrwt>0</asrwt>
<pdfrwt beam="1">  1        1 0.36425722E-02 0.30000000E+03</pdfrwt>
<pdfrwt beam="2">0</pdfrwt>
<totfact> 0.31064219E+03</totfact>
</mgrwt>
</event>
<event>
 6    1  0.3125838E-002  0.3000000E+03  0.7818608E-02  0.1093470E+00
          1   -1    0    0  502    0  0.00000000000E+00  0.00000000000E+00  0.28946066533E+01  0.28946066533E+01  0.00000000000E+00 0.  1.
         13   -1    0    0    0    0 -0.00000000000E+00 -0.00000000000E+00 -0.10000000000E+04  0.10000000000E+04  0.00000000000E+00 0.  1.
    9000005    2    1    2  501    0  0.16711758304E+02 -0.31540025195E+02 -0.87361688810E+03  0.87435096821E+03  0.30153589591E+01 0.  0.
         13    1    3    3    0    0  0.55352373223E+01 -0.82205412345E+01 -0.26351631983E+03  0.26370261085E+03  0.00000000000E+00 0.  1.
          3    1    3    3  501    0  0.11176520982E+02 -0.23319483961E+02 -0.61010056827E+03  0.61064835737E+03  0.00000000000E+00 0.  1.
         21    1    1    2  502  501 -0.16711758304E+02  0.31540025195E+02 -0.12348850525E+03  0.12854363844E+03  0.00000000000E+00 0.  1.
<mgrwt>
<rscale>  1 0.30000000E+03</rscale>
<asrwt>0</asrwt>
<pdfrwt beam="1">  1        1 0.10525865E-01 0.30000000E+03</pdfrwt>
<pdfrwt beam="2">0</pdfrwt>
<totfact> 0.70418372E+02</totfact>
</mgrwt>
</event>
<event>
 6    1  0.3125838E-002  0.3000000E+03  0.7818608E-02  0.1093470E+00
          1   -1    0    0  502    0  0.00000000000E+00  0.00000000000E+00  0.25247240261E+01  0.25247240261E+01  0.00000000000E+00 0.  1.
         13   -1    0    0    0    0 -0.00000000000E+00 -0.00000000000E+00 -0.10000000000E+04  0.10000000000E+04  0.00000000000E+00 0.  1.
    9000005    2    1    2  501    0 -0.17202412270E+02  0.30657413417E+02 -0.85665374784E+03  0.85738168157E+03  0.34502508180E+01 0.  0.
         13    1    3    3    0    0  0.19704848150E-01  0.22379219229E+00 -0.19509234657E+01  0.19638160798E+01  0.00000000000E+00 0.  1.
          1    1    3    3  501    0 -0.17222117118E+02  0.30433621225E+02 -0.85470282437E+03  0.85541786549E+03  0.00000000000E+00 0.  1.
         21    1    1    2  502  501  0.17202412270E+02 -0.30657413417E+02 -0.14082152814E+03  0.14514304245E+03  0.00000000000E+00 0.  1.
<mgrwt>
<rscale>  1 0.30000000E+03</rscale>
<asrwt>0</asrwt>
<pdfrwt beam="1">  1        1 0.91808340E-02 0.30000000E+03</pdfrwt>
<pdfrwt beam="2">0</pdfrwt>
<totfact> 0.85059234E+02</totfact>
</mgrwt>
</event>
<event>
 6    1  0.3125838E-002  0.3000000E+03  0.7818608E-02  0.1093470E+00
          1   -1    0    0  502    0  0.00000000000E+00  0.00000000000E+00  0.25055872288E+01  0.25055872288E+01  0.00000000000E+00 0.  1.
         13   -1    0    0    0    0 -0.00000000000E+00 -0.00000000000E+00 -0.10000000000E+04  0.10000000000E+04  0.00000000000E+00 0.  1.
    9000005    2    1    2  501    0  0.30871111795E+02  0.80937885872E+01 -0.88482104929E+03  0.88539955922E+03  0.23569574702E+01 0.  0.
         13    1    3    3    0    0  0.88925233378E+01  0.19186930753E+01 -0.28030451252E+03  0.28045209590E+03  0.00000000000E+00 0.  1.
          3    1    3    3  501    0  0.21978588457E+02  0.61750955119E+01 -0.60451653677E+03  0.60494746333E+03  0.00000000000E+00 0.  1.
         21    1    1    2  502  501 -0.30871111795E+02 -0.80937885872E+01 -0.11267336348E+03  0.11710602800E+03  0.00000000000E+00 0.  1.
<mgrwt>
<rscale>  1 0.30000000E+03</rscale>
<asrwt>0</asrwt>
<pdfrwt beam="1">  1        1 0.91112455E-02 0.30000000E+03</pdfrwt>
<pdfrwt beam="2">0</pdfrwt>
<totfact> 0.85960928E+02</totfact>
</mgrwt>
</event>
<event>
 6    1  0.3125838E-002  0.3000000E+03  0.7818608E-02  0.1093470E+00
          3   -1    0    0  502    0  0.00000000000E+00  0.00000000000E+00  0.12437243689E+01  0.12437243689E+01  0.00000000000E+00 0.  1.
         13   -1    0    0    0    0 -0.00000000000E+00 -0.00000000000E+00 -0.10000000000E+04  0.10000000000E+04  0.00000000000E+00 0.  1.
    9000005    2    1    2  501    0  0.72793804854E+01 -0.33479938329E+02 -0.61452256475E+03  0.61548545780E+03  0.32358186398E+01 0.  0.
         13    1    3    3    0    0  0.58732704073E+01 -0.20674669127E+02 -0.36974913106E+03  0.37037326735E+03  0.00000000000E+00 0.  1.
          3    1    3    3  501    0  0.14061100781E+01 -0.12805269203E+02 -0.24477343369E+03  0.24511219045E+03  0.00000000000E+00 0.  1.
         21    1    1    2  502  501 -0.72793804854E+01  0.33479938329E+02 -0.38423371088E+03  0.38575826657E+03  0.00000000000E+00 0.  1.
<mgrwt>
<rscale>  1 0.30000000E+03</rscale>
<asrwt>0</asrwt>
<pdfrwt beam="1">  1        3 0.45226436E-02 0.30000000E+03</pdfrwt>
<pdfrwt beam="2">0</pdfrwt>
<totfact> 0.11551140E+03</totfact>
</mgrwt>
</event>
<event>
 6    1  0.3125838E-002  0.3000000E+03  0.7818608E-02  0.1093470E+00
          3   -1    0    0  502    0  0.00000000000E+00  0.00000000000E+00  0.10597457414E+01  0.10597457414E+01  0.00000000000E+00 0.  1.
         13   -1    0    0    0    0 -0.00000000000E+00 -0.00000000000E+00 -0.10000000000E+04  0.10000000000E+04  0.00000000000E+00 0.  1.
    9000005    2    1    2  501    0 -0.30987802407E+02 -0.64391301839E+01 -0.61347689247E+03  0.61429921314E+03  0.28141386282E+01 0.  0.
         13    1    3    3    0    0 -0.12304409669E+02 -0.35679005688E+01 -0.22943441869E+03  0.22979182077E+03  0.00000000000E+00 0.  1.
          1    1    3    3  501    0 -0.18683392738E+02 -0.28712296151E+01 -0.38404247377E+03  0.38450739237E+03  0.00000000000E+00 0.  1.
         21    1    1    2  502  501  0.30987802407E+02  0.64391301839E+01 -0.38546336179E+03  0.38676053260E+03  0.00000000000E+00 0.  1.
<mgrwt>
<rscale>  1 0.30000000E+03</rscale>
<asrwt>0</asrwt>
<pdfrwt beam="1">  1        3 0.38536290E-02 0.30000000E+03</pdfrwt>
<pdfrwt beam="2">0</pdfrwt>
<totfact> 0.14775219E+03</totfact>
</mgrwt>
</event>
<event>
 6    1  0.3125838E-002  0.3000000E+03  0.7818608E-02  0.1093470E+00
          1   -1    0    0  502    0  0.00000000000E+00  0.00000000000E+00  0.63738510579E+01  0.63738510579E+01  0.00000000000E+00 0.  1.
         13   -1    0    0    0    0 -0.00000000000E+00 -0.00000000000E+00 -0.10000000000E+04  0.10000000000E+04  0.00000000000E+00 0.  1.
    9000005    2    1    2  501    0  0.20584194203E+02  0.28422832422E+02 -0.94874813849E+03  0.94940366345E+03  0.35664308887E+01 0.  0.
         13    1    3    3    0    0  0.68095335229E+01  0.10966048265E+02 -0.38853206930E+03  0.38874643771E+03  0.00000000000E+00 0.  1.
          1    1    3    3  501    0  0.13774660681E+02  0.17456784157E+02 -0.56021606919E+03  0.56065722574E+03  0.00000000000E+00 0.  1.
         21    1    1    2  502  501 -0.20584194203E+02 -0.28422832422E+02 -0.44878010448E+02  0.56970187605E+02  0.00000000000E+00 0.  1.
<mgrwt>
<rscale>  1 0.30000000E+03</rscale>
<asrwt>0</asrwt>
<pdfrwt beam="1">  1        1 0.23177689E-01 0.30000000E+03</pdfrwt>
<pdfrwt beam="2">0</pdfrwt>
<totfact> 0.24198375E+02</totfact>
</mgrwt>
</event>
<event>
 6    1  0.3125838E-002  0.3000000E+03  0.7818608E-02  0.1093470E+00
          1   -1    0    0  502    0  0.00000000000E+00  0.00000000000E+00  0.46892965579E+01  0.46892965579E+01  0.00000000000E+00 0.  1.
         13   -1    0    0    0    0 -0.00000000000E+00 -0.00000000000E+00 -0.10000000000E+04  0.10000000000E+04  0.00000000000E+00 0.  1.
    9000005    2    1    2  501    0  0.52784161508E+01  0.30130728919E+02 -0.94704035858E+03  0.94754256703E+03  0.39690124475E+01 0.  0.
         13    1    3    3    0    0  0.71126238828E+00  0.10923133889E+02 -0.29346305031E+03  0.29366712898E+03  0.00000000000E+00 0.  1.
          3    1    3    3  501    0  0.45671537625E+01  0.19207595030E+02 -0.65357730827E+03  0.65387543805E+03  0.00000000000E+00 0.  1.
         21    1    1    2  502  501 -0.52784161508E+01 -0.30130728919E+02 -0.48270344867E+02  0.57146729529E+02  0.00000000000E+00 0.  1.
<mgrwt>
<rscale>  1 0.30000000E+03</rscale>
<asrwt>0</asrwt>
<pdfrwt beam="1">  1        1 0.17052023E-01 0.30000000E+03</pdfrwt>
<pdfrwt beam="2">0</pdfrwt>
<totfact> 0.36470390E+02</totfact>
</mgrwt>
</event>
<event>
 6    1  0.3125838E-002  0.3000000E+03  0.7818608E-02  0.1093470E+00
          3   -1    0    0  502    0  0.00000000000E+00  0.00000000000E+00  0.15510990966E+01  0.15510990966E+01  0.00000000000E+00 0.  1.
         13   -1    0    0    0    0 -0.00000000000E+00 -0.00000000000E+00 -0.10000000000E+04  0.10000000000E+04  0.00000000000E+00 0.  1.
    9000005    2    1    2  501    0 -0.18625560587E+02 -0.32423282818E+02 -0.65473030978E+03  0.65580458695E+03  0.31139922071E+01 0.  0.
         13    1    3    3    0    0 -0.70027148431E+01 -0.13368297257E+02 -0.28913777582E+03  0.28953135028E+03  0.00000000000E+00 0.  1.
          1    1    3    3  501    0 -0.11622845744E+02 -0.19054985562E+02 -0.36559253396E+03  0.36627323667E+03  0.00000000000E+00 0.  1.
         21    1    1    2  502  501  0.18625560587E+02  0.32423282818E+02 -0.34371859112E+03  0.34574651214E+03  0.00000000000E+00 0.  1.
<mgrwt>
<rscale>  1 0.30000000E+03</rscale>
<asrwt>0</asrwt>
<pdfrwt beam="1">  1        3 0.56403722E-02 0.30000000E+03</pdfrwt>
<pdfrwt beam="2">0</pdfrwt>
<totfact> 0.82105592E+02</totfact>
</mgrwt>
</event>
<event>
 6    1  0.3125838E-002  0.3000000E+03  0.7818608E-02  0.1093470E+00
          1   -1    0    0  502    0  0.00000000000E+00  0.00000000000E+00  0.13575984331E+02  0.13575984331E+02  0.00000000000E+00 0.  1.
         13   -1    0    0    0    0 -0.00000000000E+00 -0.00000000000E+00 -0.10000000000E+04  0.10000000000E+04  0.00000000000E+00 0.  1.
    9000005    2    1    2  501    0  0.73942558003E+02  0.29385464613E+02 -0.86338855475E+03  0.86705386294E+03  0.34054871529E+01 0.  0.
         13    1    3    3    0    0  0.30807994221E+02  0.10525588696E+02 -0.34749744138E+03  0.34901918614E+03  0.00000000000E+00 0.  1.
          1    1    3    3  501    0  0.43134563782E+02  0.18859875916E+02 -0.51589111337E+03  0.51803467680E+03  0.00000000000E+00 0.  1.
         21    1    1    2  502  501 -0.73942558003E+02 -0.29385464613E+02 -0.12303546091E+03  0.14652212139E+03  0.00000000000E+00 0.  1.
<mgrwt>
<rscale>  1 0.30000000E+03</rscale>
<asrwt>0</asrwt>
<pdfrwt beam="1">  1        1 0.49367320E-01 0.30000000E+03</pdfrwt>
<pdfrwt beam="2">0</pdfrwt>
<totfact> 0.89738444E+01</totfact>
</mgrwt>
</event>
<event>
 6    1  0.3125838E-002  0.3000000E+03  0.7818608E-02  0.1093470E+00
          1   -1    0    0  502    0  0.00000000000E+00  0.00000000000E+00  0.21246466786E+01  0.21246466786E+01  0.00000000000E+00 0.  1.
         13   -1    0    0    0    0 -0.00000000000E+00 -0.00000000000E+00 -0.10000000000E+04  0.10000000000E+04  0.00000000000E+00 0.  1.
    9000005    2    1    2  501    0 -0.12946347997E+02  0.37801587114E+02 -0.74835545499E+03  0.74942571993E+03  0.25406239178E+01 0.  0.
         13    1    3    3    0    0 -0.92946424817E+01  0.28149938647E+02 -0.53455233587E+03  0.53537370986E+03  0.00000000000E+00 0.  1.
          3    1    3    3  501    0 -0.36517055152E+01  0.96516484669E+01 -0.21380311911E+03  0.21405201007E+03  0.00000000000E+00 0.  1.
         21    1    1    2  502  501  0.12946347997E+02 -0.37801587114E+02 -0.24951989834E+03  0.25269892675E+03  0.00000000000E+00 0.  1.
<mgrwt>
<rscale>  1 0.30000000E+03</rscale>
<asrwt>0</asrwt>
<pdfrwt beam="1">  1        1 0.77260042E-02 0.30000000E+03</pdfrwt>
<pdfrwt beam="2">0</pdfrwt>
<totfact> 0.10810790E+03</totfact>
</mgrwt>
</event>
<event>
 6    1  0.3125838E-002  0.3000000E+03  0.7818608E-02  0.1093470E+00
          1   -1    0    0  502    0  0.00000000000E+00  0.00000000000E+00  0.21835077315E+01  0.21835077315E+01  0.00000000000E+00 0.  1.
         13   -1    0    0    0    0 -0.00000000000E+00 -0.00000000000E+00 -0.10000000000E+04  0.10000000000E+04  0.00000000000E+00 0.  1.
    9000005    2    1    2  501    0  0.23737995519E+02  0.40047445903E+02 -0.52765800823E+03  0.52972579484E+03  0.43764960837E+01 0.  0.
         13    1    3    3    0    0  0.13630827474E+02  0.22106525168E+02 -0.31813516686E+03  0.31919348726E+03  0.00000000000E+00 0.  1.
          3    1    3    3  501    0  0.10107168045E+02  0.17940920735E+02 -0.20952284137E+03  0.21053230759E+03  0.00000000000E+00 0.  1.
         21    1    1    2  502  501 -0.23737995519E+02 -0.40047445903E+02 -0.47015848404E+03  0.47245771289E+03  0.00000000000E+00 0.  1.
<mgrwt>
<rscale>  1 0.30000000E+03</rscale>
<asrwt>0</asrwt>
<pdfrwt beam="1">  1        1 0.79400449E-02 0.30000000E+03</pdfrwt>
<pdfrwt beam="2">0</pdfrwt>
<totfact> 0.10406865E+03</totfact>
</mgrwt>
</event>
<event>
 6    1  0.3125838E-002  0.3000000E+03  0.7818608E-02  0.1093470E+00
          3   -1    0    0  502    0  0.00000000000E+00  0.00000000000E+00  0.32613844116E+01  0.32613844116E+01  0.00000000000E+00 0.  1.
         13   -1    0    0    0    0 -0.00000000000E+00 -0.00000000000E+00 -0.10000000000E+04  0.10000000000E+04  0.00000000000E+00 0.  1.
    9000005    2    1    2  501    0 -0.31767586684E+02 -0.44537295026E+02 -0.63567940227E+03  0.63808128401E+03  0.81653115803E+01 0.  0.
         13    1    3    3    0    0 -0.59592842028E+01 -0.13112359088E+02 -0.19397876109E+03  0.19451274196E+03  0.00000000000E+00 0.  1.
          3    1    3    3  501    0 -0.25808302481E+02 -0.31424935938E+02 -0.44170064118E+03  0.44356854205E+03  0.00000000000E+00 0.  1.
         21    1    1    2  502  501  0.31767586684E+02  0.44537295026E+02 -0.36105921332E+03  0.36518010041E+03  0.00000000000E+00 0.  1.
<mgrwt>
<rscale>  1 0.30000000E+03</rscale>
<asrwt>0</asrwt>
<pdfrwt beam="1">  1        3 0.11859605E-01 0.30000000E+03</pdfrwt>
<pdfrwt beam="2">0</pdfrwt>
<totfact> 0.24849414E+02</totfact>
</mgrwt>
</event>
<event>
 6    1  0.3125838E-002  0.3000000E+03  0.7818608E-02  0.1093470E+00
          3   -1    0    0  502    0  0.00000000000E+00  0.00000000000E+00  0.10773457587E+02  0.10773457587E+02  0.00000000000E+00 0.  1.
         13   -1    0    0    0    0 -0.00000000000E+00 -0.00000000000E+00 -0.10000000000E+04  0.10000000000E+04  0.00000000000E+00 0.  1.
    9000005    2    1    2  501    0 -0.68661244659E+02  0.50114741473E+02 -0.78450490614E+03  0.78910523210E+03  0.36422169964E+01 0.  0.
         13    1    3    3    0    0 -0.21074068068E+01  0.82188903424E+00 -0.20336685321E+02  0.20462097519E+02  0.00000000000E+00 0.  1.
          1    1    3    3  501    0 -0.66553837852E+02  0.49292852438E+02 -0.76416822081E+03  0.76864313458E+03  0.00000000000E+00 0.  1.
         21    1    1    2  502  501  0.68661244659E+02 -0.50114741473E+02 -0.20472163628E+03  0.22166822549E+03  0.00000000000E+00 0.  1.
<mgrwt>
<rscale>  1 0.30000000E+03</rscale>
<asrwt>0</asrwt>
<pdfrwt beam="1">  1        3 0.39176292E-01 0.30000000E+03</pdfrwt>
<pdfrwt beam="2">0</pdfrwt>
<totfact> 0.28026886E+01</totfact>
</mgrwt>
</event>
<event>
 6    1  0.3125838E-002  0.3000000E+03  0.7818608E-02  0.1093470E+00
          3   -1    0    0  502    0  0.00000000000E+00  0.00000000000E+00  0.10345823786E+02  0.10345823786E+02  0.00000000000E+00 0.  1.
         13   -1    0    0    0    0 -0.00000000000E+00 -0.00000000000E+00 -0.10000000000E+04  0.10000000000E+04  0.00000000000E+00 0.  1.
    9000005    2    1    2  501    0 -0.46157087626E+02 -0.90603547111E+02 -0.49881436411E+03  0.50908421481E+03  0.33894600819E+01 0.  0.
         13    1    3    3    0    0 -0.33320265494E+02 -0.64791410808E+02 -0.36480000448E+03  0.37200431486E+03  0.00000000000E+00 0.  1.
          3    1    3    3  501    0 -0.12836822132E+02 -0.25812136303E+02 -0.13401435963E+03  0.13707989995E+03  0.00000000000E+00 0.  1.
         21    1    1    2  502  501  0.46157087626E+02  0.90603547111E+02 -0.49083981211E+03  0.50126160898E+03  0.00000000000E+00 0.  1.
<mgrwt>
<rscale>  1 0.30000000E+03</rscale>
<asrwt>0</asrwt>
<pdfrwt beam="1">  1        3 0.37621257E-01 0.30000000E+03</pdfrwt>
<pdfrwt beam="2">0</pdfrwt>
<totfact> 0.30304999E+01</totfact>
</mgrwt>
</event>
<event>
 6    1  0.3125838E-002  0.3000000E+03  0.7818608E-02  0.1093470E+00
          3   -1    0    0  502    0  0.00000000000E+00  0.00000000000E+00  0.28202620892E+01  0.28202620892E+01  0.00000000000E+00 0.  1.
         13   -1    0    0    0    0 -0.00000000000E+00 -0.00000000000E+00 -0.10000000000E+04  0.10000000000E+04  0.00000000000E+00 0.  1.
    9000005    2    1    2  501    0 -0.25234427146E+02 -0.23680984946E+02 -0.87878025350E+03  0.87946709728E+03  0.31742531349E+01 0.  0.
         13    1    3    3    0    0 -0.53440595841E+01 -0.57006469065E+01 -0.16887967894E+03  0.16906035108E+03  0.00000000000E+00 0.  1.
          3    1    3    3  501    0 -0.19890367562E+02 -0.17980338039E+02 -0.70990057457E+03  0.71040674620E+03  0.00000000000E+00 0.  1.
         21    1    1    2  502  501  0.25234427146E+02  0.23680984946E+02 -0.11839948441E+03  0.12335316481E+03  0.00000000000E+00 0.  1.
<mgrwt>
<rscale>  1 0.30000000E+03</rscale>
<asrwt>0</asrwt>
<pdfrwt beam="1">  1        3 0.10255520E-01 0.30000000E+03</pdfrwt>
<pdfrwt beam="2">0</pdfrwt>
<totfact> 0.31676967E+02</totfact>
</mgrwt>
</event>
<event>
 6    1  0.3125838E-002  0.3000000E+03  0.7818608E-02  0.1093470E+00
          1   -1    0    0  502    0  0.00000000000E+00  0.00000000000E+00  0.18875250939E+01  0.18875250939E+01  0.00000000000E+00 0.  1.
         13   -1    0    0    0    0 -0.00000000000E+00 -0.00000000000E+00 -0.10000000000E+04  0.10000000000E+04  0.00000000000E+00 0.  1.
    9000005    2    1    2  501    0  0.29783055665E+02  0.67135800921E+01 -0.85508410927E+03  0.85563700052E+03  0.37067729386E+01 0.  0.
         13    1    3    3    0    0  0.15681955478E+02  0.17200183973E+01 -0.45407374313E+03  0.45434771529E+03  0.00000000000E+00 0.  1.
          1    1    3    3  501    0  0.14101100187E+02  0.49935616949E+01 -0.40101036615E+03  0.40128928523E+03  0.00000000000E+00 0.  1.
         21    1    1    2  502  501 -0.29783055665E+02 -0.67135800921E+01 -0.14302836563E+03  0.14625052457E+03  0.00000000000E+00 0.  1.
<mgrwt>
<rscale>  1 0.30000000E+03</rscale>
<asrwt>0</asrwt>
<pdfrwt beam="1">  1        1 0.68637421E-02 0.30000000E+03</pdfrwt>
<pdfrwt beam="2">0</pdfrwt>
<totfact> 0.12753991E+03</totfact>
</mgrwt>
</event>
<event>
 6    1  0.3125838E-002  0.3000000E+03  0.7818608E-02  0.1093470E+00
          1   -1    0    0  502    0  0.00000000000E+00  0.00000000000E+00  0.67380101331E+01  0.67380101331E+01  0.00000000000E+00 0.  1.
         13   -1    0    0    0    0 -0.00000000000E+00 -0.00000000000E+00 -0.10000000000E+04  0.10000000000E+04  0.00000000000E+00 0.  1.
    9000005    2    1    2  501    0 -0.28007164302E+02 -0.22235100786E+02 -0.94969549269E+03  0.95037454116E+03  0.33821111541E+01 0.  0.
         13    1    3    3    0    0 -0.10791222568E+02 -0.10238304308E+02 -0.42152200230E+03  0.42178439016E+03  0.00000000000E+00 0.  1.
          1    1    3    3  501    0 -0.17215941733E+02 -0.11996796479E+02 -0.52817349039E+03  0.52859015099E+03  0.00000000000E+00 0.  1.
         21    1    1    2  502  501  0.28007164302E+02  0.22235100786E+02 -0.43566497174E+02  0.56363468978E+02  0.00000000000E+00 0.  1.
<mgrwt>
<rscale>  1 0.30000000E+03</rscale>
<asrwt>0</asrwt>
<pdfrwt beam="1">  1        1 0.24501907E-01 0.30000000E+03</pdfrwt>
<pdfrwt beam="2">0</pdfrwt>
<totfact> 0.22483658E+02</totfact>
</mgrwt>
</event>
<event>
 6    1  0.3125838E-002  0.3000000E+03  0.7818608E-02  0.1093470E+00
          1   -1    0    0  502    0  0.00000000000E+00  0.00000000000E+00  0.31249946836E+01  0.31249946836E+01  0.00000000000E+00 0.  1.
         13   -1    0    0    0    0 -0.00000000000E+00 -0.00000000000E+00 -0.10000000000E+04  0.10000000000E+04  0.00000000000E+00 0.  1.
    9000005    2    1    2  501    0  0.20102583581E+02  0.40228926262E+02 -0.79588113611E+03  0.79716136723E+03  0.41209483349E+01 0.  0.
         13    1    3    3    0    0  0.15238971036E+01  0.30909224168E+01 -0.83342288430E+02  0.83413506727E+02  0.00000000000E+00 0.  1.
          3    1    3    3  501    0  0.18578686477E+02  0.37138003845E+02 -0.71253884768E+03  0.71374786050E+03  0.00000000000E+00 0.  1.
         21    1    1    2  502  501 -0.20102583581E+02 -0.40228926262E+02 -0.20099386921E+03  0.20596362745E+03  0.00000000000E+00 0.  1.
<mgrwt>
<rscale>  1 0.30000000E+03</rscale>
<asrwt>0</asrwt>
<pdfrwt beam="1">  1        1 0.11363641E-01 0.30000000E+03</pdfrwt>
<pdfrwt beam="2">0</pdfrwt>
<totfact> 0.63381756E+02</totfact>
</mgrwt>
</event>
<event>
 6    1  0.3125838E-002  0.3000000E+03  0.7818608E-02  0.1093470E+00
          1   -1    0    0  502    0  0.00000000000E+00  0.00000000000E+00  0.10058013901E+01  0.10058013901E+01  0.00000000000E+00 0.  1.
         13   -1    0    0    0    0 -0.00000000000E+00 -0.00000000000E+00 -0.10000000000E+04  0.10000000000E+04  0.00000000000E+00 0.  1.
    9000005    2    1    2  501    0  0.15193226286E+02  0.26226395626E+02 -0.64387953351E+03  0.64460001676E+03  0.31096583083E+01 0.  0.
         13    1    3    3    0    0  0.81053870702E+01  0.11290501152E+02 -0.27822584729E+03  0.27857278190E+03  0.00000000000E+00 0.  1.
          3    1    3    3  501    0  0.70878392159E+01  0.14935894474E+02 -0.36565368622E+03  0.36602723486E+03  0.00000000000E+00 0.  1.
         21    1    1    2  502  501 -0.15193226286E+02 -0.26226395626E+02 -0.35511466510E+03  0.35640578463E+03  0.00000000000E+00 0.  1.
<mgrwt>
<rscale>  1 0.30000000E+03</rscale>
<asrwt>0</asrwt>
<pdfrwt beam="1">  1        1 0.36574673E-02 0.30000000E+03</pdfrwt>
<pdfrwt beam="2">0</pdfrwt>
<totfact> 0.30886363E+03</totfact>
</mgrwt>
</event>
<event>
 6    1  0.3125838E-002  0.3000000E+03  0.7818608E-02  0.1093470E+00
          3   -1    0    0  502    0  0.00000000000E+00  0.00000000000E+00  0.29628854235E+01  0.29628854235E+01  0.00000000000E+00 0.  1.
         13   -1    0    0    0    0 -0.00000000000E+00 -0.00000000000E+00 -0.10000000000E+04  0.10000000000E+04  0.00000000000E+00 0.  1.
    9000005    2    1    2  501    0  0.34152466439E+02 -0.95882953285E+01 -0.87878455843E+03  0.87950441708E+03  0.27190351667E+01 0.  0.
         13    1    3    3    0    0  0.32338243782E+02 -0.87439455340E+01 -0.84096406352E+03  0.84163102054E+03  0.00000000000E+00 0.  1.
          3    1    3    3  501    0  0.18142226566E+01 -0.84434979446E+00 -0.37820494911E+02  0.37873396543E+02  0.00000000000E+00 0.  1.
         21    1    1    2  502  501 -0.34152466439E+02  0.95882953285E+01 -0.11825255614E+03  0.12345846834E+03  0.00000000000E+00 0.  1.
<mgrwt>
<rscale>  1 0.30000000E+03</rscale>
<asrwt>0</asrwt>
<pdfrwt beam="1">  1        3 0.10774152E-01 0.30000000E+03</pdfrwt>
<pdfrwt beam="2">0</pdfrwt>
<totfact> 0.29186076E+02</totfact>
</mgrwt>
</event>
<event>
 6    1  0.3125838E-002  0.3000000E+03  0.7818608E-02  0.1093470E+00
          1   -1    0    0  502    0  0.00000000000E+00  0.00000000000E+00  0.35444838048E+02  0.35444838048E+02  0.00000000000E+00 0.  1.
         13   -1    0    0    0    0 -0.00000000000E+00 -0.00000000000E+00 -0.10000000000E+04  0.10000000000E+04  0.00000000000E+00 0.  1.
    9000005    2    1    2  501    0 -0.12469020938E+03  0.10089433186E+03 -0.75331721324E+03  0.77021138335E+03  0.33818269707E+01 0.  0.
         13    1    3    3    0    0 -0.63856572577E+02  0.52395159067E+02 -0.38027715471E+03  0.38914474036E+03  0.00000000000E+00 0.  1.
          1    1    3    3  501    0 -0.60833636800E+02  0.48499172798E+02 -0.37304005853E+03  0.38106664299E+03  0.00000000000E+00 0.  1.
         21    1    1    2  502  501  0.12469020938E+03 -0.10089433186E+03 -0.21123794871E+03  0.26523345470E+03  0.00000000000E+00 0.  1.
<mgrwt>
<rscale>  1 0.30000000E+03</rscale>
<asrwt>0</asrwt>
<pdfrwt beam="1">  1        1 0.12889059E+00 0.30000000E+03</pdfrwt>
<pdfrwt beam="2">0</pdfrwt>
<totfact> 0.23200905E+01</totfact>
</mgrwt>
</event>
<event>
 6    1  0.3125838E-002  0.3000000E+03  0.7818608E-02  0.1093470E+00
          1   -1    0    0  502    0  0.00000000000E+00  0.00000000000E+00  0.23302592116E+01  0.23302592116E+01  0.00000000000E+00 0.  1.
         13   -1    0    0    0    0 -0.00000000000E+00 -0.00000000000E+00 -0.10000000000E+04  0.10000000000E+04  0.00000000000E+00 0.  1.
    9000005    2    1    2  501    0  0.20152199419E+02 -0.24654393859E+02 -0.87513105198E+03  0.87572188456E+03  0.45288710629E+01 0.  0.
         13    1    3    3    0    0  0.18359234803E+02 -0.22982462030E+02 -0.83334070774E+03  0.83385969457E+03  0.00000000000E+00 0.  1.
          1    1    3    3  501    0  0.17929646165E+01 -0.16719318288E+01 -0.41790344242E+02  0.41862189982E+02  0.00000000000E+00 0.  1.
         21    1    1    2  502  501 -0.20152199419E+02  0.24654393859E+02 -0.12253868881E+03  0.12660837466E+03  0.00000000000E+00 0.  1.
<mgrwt>
<rscale>  1 0.30000000E+03</rscale>
<asrwt>0</asrwt>
<pdfrwt beam="1">  1        1 0.84736877E-02 0.30000000E+03</pdfrwt>
<pdfrwt beam="2">0</pdfrwt>
<totfact> 0.95065416E+02</totfact>
</mgrwt>
</event>
<event>
 6    1  0.3125838E-002  0.3000000E+03  0.7818608E-02  0.1093470E+00
          1   -1    0    0  502    0  0.00000000000E+00  0.00000000000E+00  0.11359111622E+01  0.11359111622E+01  0.00000000000E+00 0.  1.
         13   -1    0    0    0    0 -0.00000000000E+00 -0.00000000000E+00 -0.10000000000E+04  0.10000000000E+04  0.00000000000E+00 0.  1.
    9000005    2    1    2  501    0  0.30797105188E+02 -0.13170002136E+02 -0.45839370765E+03  0.45962862258E+03  0.34305741849E+01 0.  0.
         13    1    3    3    0    0  0.20419874335E+01 -0.51696171282E-01 -0.24162002491E+02  0.24248190645E+02  0.00000000000E+00 0.  1.
          3    1    3    3  501    0  0.28755117754E+02 -0.13118305965E+02 -0.43423170515E+03  0.43538043193E+03  0.00000000000E+00 0.  1.
         21    1    1    2  502  501 -0.30797105188E+02  0.13170002136E+02 -0.54047038119E+03  0.54150728859E+03  0.00000000000E+00 0.  1.
<mgrwt>
<rscale>  1 0.30000000E+03</rscale>
<asrwt>0</asrwt>
<pdfrwt beam="1">  1        1 0.41305948E-02 0.30000000E+03</pdfrwt>
<pdfrwt beam="2">0</pdfrwt>
<totfact> 0.26025256E+03</totfact>
</mgrwt>
</event>
<event>
 6    1  0.3125838E-002  0.3000000E+03  0.7818608E-02  0.1093470E+00
          1   -1    0    0  502    0  0.00000000000E+00  0.00000000000E+00  0.30649209784E+01  0.30649209784E+01  0.00000000000E+00 0.  1.
         13   -1    0    0    0    0 -0.00000000000E+00 -0.00000000000E+00 -0.10000000000E+04  0.10000000000E+04  0.00000000000E+00 0.  1.
    9000005    2    1    2  501    0 -0.21269470788E+02 -0.43011920534E+02 -0.74817816715E+03  0.74972243165E+03  0.32770447965E+01 0.  0.
         13    1    3    3    0    0 -0.12732631410E+02 -0.27168831213E+02 -0.49000479959E+03  0.49092256916E+03  0.00000000000E+00 0.  1.
          1    1    3    3  501    0 -0.85368393783E+01 -0.15843089321E+02 -0.25817336756E+03  0.25879986249E+03  0.00000000000E+00 0.  1.
         21    1    1    2  502  501  0.21269470788E+02  0.43011920534E+02 -0.24875691187E+03  0.25334248933E+03  0.00000000000E+00 0.  1.
<mgrwt>
<rscale>  1 0.30000000E+03</rscale>
<asrwt>0</asrwt>
<pdfrwt beam="1">  1        1 0.11145191E-01 0.30000000E+03</pdfrwt>
<pdfrwt beam="2">0</pdfrwt>
<totfact> 0.65093902E+02</totfact>
</mgrwt>
</event>
<event>
 6    1  0.3125838E-002  0.3000000E+03  0.7818608E-02  0.1093470E+00
          1   -1    0    0  502    0  0.00000000000E+00  0.00000000000E+00  0.14832971610E+01  0.14832971610E+01  0.00000000000E+00 0.  1.
         13   -1    0    0    0    0 -0.00000000000E+00 -0.00000000000E+00 -0.10000000000E+04  0.10000000000E+04  0.00000000000E+00 0.  1.
    9000005    2    1    2  501    0  0.16011256393E+02  0.29467307454E+02 -0.74415324019E+03  0.74491858082E+03  0.38684140219E+01 0.  0.
         13    1    3    3    0    0  0.11192625521E+02  0.23922465947E+02 -0.58485822228E+03  0.58545426757E+03  0.00000000000E+00 0.  1.
          1    1    3    3  501    0  0.48186308717E+01  0.55448415078E+01 -0.15929501791E+03  0.15946431325E+03  0.00000000000E+00 0.  1.
         21    1    1    2  502  501 -0.16011256393E+02 -0.29467307454E+02 -0.25436346265E+03  0.25656471634E+03  0.00000000000E+00 0.  1.
<mgrwt>
<rscale>  1 0.30000000E+03</rscale>
<asrwt>0</asrwt>
<pdfrwt beam="1">  1        1 0.53938192E-02 0.30000000E+03</pdfrwt>
<pdfrwt beam="2">0</pdfrwt>
<totfact> 0.17881688E+03</totfact>
</mgrwt>
</event>
<event>
 6    1  0.3125838E-002  0.3000000E+03  0.7818608E-02  0.1093470E+00
          1   -1    0    0  502    0  0.00000000000E+00  0.00000000000E+00  0.95905703598E+01  0.95905703598E+01  0.00000000000E+00 0.  1.
         13   -1    0    0    0    0 -0.00000000000E+00 -0.00000000000E+00 -0.10000000000E+04  0.10000000000E+04  0.00000000000E+00 0.  1.
    9000005    2    1    2  501    0 -0.42501973586E+02 -0.41862703982E+02 -0.89548966628E+03  0.89748051184E+03  0.32592927224E+01 0.  0.
         13    1    3    3    0    0 -0.39759424429E+02 -0.38800392402E+02 -0.82092519992E+03  0.82280281121E+03  0.00000000000E+00 0.  1.
          3    1    3    3  501    0 -0.27425491568E+01 -0.30623115804E+01 -0.74564466360E+02  0.74677700632E+02  0.00000000000E+00 0.  1.
         21    1    1    2  502  501  0.42501973586E+02  0.41862703982E+02 -0.94919763365E+02  0.11211005852E+03  0.00000000000E+00 0.  1.
<mgrwt>
<rscale>  1 0.30000000E+03</rscale>
<asrwt>0</asrwt>
<pdfrwt beam="1">  1        1 0.34874875E-01 0.30000000E+03</pdfrwt>
<pdfrwt beam="2">0</pdfrwt>
<totfact> 0.14138219E+02</totfact>
</mgrwt>
</event>
<event>
 6    1  0.3125838E-002  0.3000000E+03  0.7818608E-02  0.1093470E+00
          1   -1    0    0  502    0  0.00000000000E+00  0.00000000000E+00  0.20968180221E+01  0.20968180221E+01  0.00000000000E+00 0.  1.
         13   -1    0    0    0    0 -0.00000000000E+00 -0.00000000000E+00 -0.10000000000E+04  0.10000000000E+04  0.00000000000E+00 0.  1.
    9000005    2    1    2  501    0 -0.28378137122E+01  0.42224800556E+02 -0.68954480822E+03  0.69084792463E+03  0.27974022595E+01 0.  0.
         13    1    3    3    0    0 -0.29094508975E+00  0.23572940403E+02 -0.39178193244E+03  0.39249057410E+03  0.00000000000E+00 0.  1.
          1    1    3    3  501    0 -0.25468686224E+01  0.18651860152E+02 -0.29776287578E+03  0.29835735054E+03  0.00000000000E+00 0.  1.
         21    1    1    2  502  501  0.28378137122E+01 -0.42224800556E+02 -0.30835837376E+03  0.31124889339E+03  0.00000000000E+00 0.  1.
<mgrwt>
<rscale>  1 0.30000000E+03</rscale>
<asrwt>0</asrwt>
<pdfrwt beam="1">  1        1 0.76248089E-02 0.30000000E+03</pdfrwt>
<pdfrwt beam="2">0</pdfrwt>
<totfact> 0.11011398E+03</totfact>
</mgrwt>
</event>
<event>
 6    1  0.3125838E-002  0.3000000E+03  0.7818608E-02  0.1093470E+00
          1   -1    0    0  502    0  0.00000000000E+00  0.00000000000E+00  0.58150442427E+01  0.58150442427E+01  0.00000000000E+00 0.  1.
         13   -1    0    0    0    0 -0.00000000000E+00 -0.00000000000E+00 -0.10000000000E+04  0.10000000000E+04  0.00000000000E+00 0.  1.
    9000005    2    1    2  501    0 -0.54903236488E+02 -0.32974624898E+02 -0.77000340620E+03  0.77266475274E+03  0.19706114844E+01 0.  0.
         13    1    3    3    0    0 -0.90767083391E+01 -0.48509442992E+01 -0.12996138611E+03  0.13036824834E+03  0.00000000000E+00 0.  1.
          1    1    3    3  501    0 -0.45826528149E+02 -0.28123680599E+02 -0.64004202009E+03  0.64229650440E+03  0.00000000000E+00 0.  1.
         21    1    1    2  502  501  0.54903236488E+02  0.32974624898E+02 -0.22418154956E+03  0.23315029150E+03  0.00000000000E+00 0.  1.
<mgrwt>
<rscale>  1 0.30000000E+03</rscale>
<asrwt>0</asrwt>
<pdfrwt beam="1">  1        1 0.21145660E-01 0.30000000E+03</pdfrwt>
<pdfrwt beam="2">0</pdfrwt>
<totfact> 0.27332615E+02</totfact>
</mgrwt>
</event>
<event>
 6    1  0.3656282E-002  0.3000000E+03  0.7818608E-02  0.1093470E+00
          1   -1    0    0  502    0  0.00000000000E+00  0.00000000000E+00  0.96654777162E+00  0.96654777162E+00  0.00000000000E+00 0.  1.
         13   -1    0    0    0    0 -0.00000000000E+00 -0.00000000000E+00 -0.10000000000E+04  0.10000000000E+04  0.00000000000E+00 0.  1.
    9000005    2    1    2  501    0  0.22504412308E+02  0.19982360786E+02 -0.54662681123E+03  0.54755998393E+03  0.10738804833E+02 0.  0.
         13    1    3    3    0    0  0.10095759657E+02  0.15644833418E+02 -0.34920959774E+03  0.34970563097E+03  0.00000000000E+00 0.  1.
          1    1    3    3  501    0  0.12408652651E+02  0.43375273678E+01 -0.19741721349E+03  0.19785435296E+03  0.00000000000E+00 0.  1.
         21    1    1    2  502  501 -0.22504412308E+02 -0.19982360786E+02 -0.45240664100E+03  0.45340656384E+03  0.00000000000E+00 0.  1.
<mgrwt>
<rscale>  1 0.30000000E+03</rscale>
<asrwt>0</asrwt>
<pdfrwt beam="1">  1        1 0.35147266E-02 0.30000000E+03</pdfrwt>
<pdfrwt beam="2">0</pdfrwt>
<totfact> 0.32665380E+03</totfact>
</mgrwt>
</event>
<event>
 6    1  0.3125838E-002  0.3000000E+03  0.7818608E-02  0.1093470E+00
          1   -1    0    0  502    0  0.00000000000E+00  0.00000000000E+00  0.39009090917E+01  0.39009090917E+01  0.00000000000E+00 0.  1.
         13   -1    0    0    0    0 -0.00000000000E+00 -0.00000000000E+00 -0.10000000000E+04  0.10000000000E+04  0.00000000000E+00 0.  1.
    9000005    2    1    2  501    0 -0.23887711932E+02  0.33177578398E+02 -0.87740704233E+03  0.87836534885E+03  0.33456896070E+01 0.  0.
         13    1    3    3    0    0 -0.13341146808E+02  0.18733615159E+02 -0.52866712959E+03  0.52916714604E+03  0.00000000000E+00 0.  1.
          1    1    3    3  501    0 -0.10546565124E+02  0.14443963239E+02 -0.34873991274E+03  0.34919820281E+03  0.00000000000E+00 0.  1.
         21    1    1    2  502  501  0.23887711932E+02 -0.33177578398E+02 -0.11869204858E+03  0.12553556024E+03  0.00000000000E+00 0.  1.
<mgrwt>
<rscale>  1 0.30000000E+03</rscale>
<asrwt>0</asrwt>
<pdfrwt beam="1">  1        1 0.14185154E-01 0.30000000E+03</pdfrwt>
<pdfrwt beam="2">0</pdfrwt>
<totfact> 0.46801791E+02</totfact>
</mgrwt>
</event>
<event>
 6    1  0.3125838E-002  0.3000000E+03  0.7818608E-02  0.1093470E+00
          1   -1    0    0  502    0  0.00000000000E+00  0.00000000000E+00  0.25610804850E+02  0.25610804850E+02  0.00000000000E+00 0.  1.
         13   -1    0    0    0    0 -0.00000000000E+00 -0.00000000000E+00 -0.10000000000E+04  0.10000000000E+04  0.00000000000E+00 0.  1.
    9000005    2    1    2  501    0 -0.79911090289E+01 -0.50745785333E+02 -0.97282017602E+03  0.97421572363E+03  0.88424395117E+01 0.  0.
         13    1    3    3    0    0 -0.41831454013E+01 -0.10042924180E+02 -0.25559346827E+03  0.25582490116E+03  0.00000000000E+00 0.  1.
          1    1    3    3  501    0 -0.38079636276E+01 -0.40702861154E+02 -0.71722670775E+03  0.71839082247E+03  0.00000000000E+00 0.  1.
         21    1    1    2  502  501  0.79911090289E+01  0.50745785333E+02 -0.15690191271E+01  0.51395081220E+02  0.00000000000E+00 0.  1.
<mgrwt>
<rscale>  1 0.30000000E+03</rscale>
<asrwt>0</asrwt>
<pdfrwt beam="1">  1        1 0.93130396E-01 0.30000000E+03</pdfrwt>
<pdfrwt beam="2">0</pdfrwt>
<totfact> 0.37938294E+01</totfact>
</mgrwt>
</event>
<event>
 6    1  0.3125838E-002  0.3000000E+03  0.7818608E-02  0.1093470E+00
          3   -1    0    0  502    0  0.00000000000E+00  0.00000000000E+00  0.38184277729E+01  0.38184277729E+01  0.00000000000E+00 0.  1.
         13   -1    0    0    0    0 -0.00000000000E+00 -0.00000000000E+00 -0.10000000000E+04  0.10000000000E+04  0.00000000000E+00 0.  1.
    9000005    2    1    2  501    0  0.21501558854E+02 -0.47866592550E+02 -0.76284978174E+03  0.76465895761E+03  0.31629481222E+01 0.  0.
         13    1    3    3    0    0  0.25670605567E+01 -0.43777434708E+01 -0.85492373017E+02  0.85642864746E+02  0.00000000000E+00 0.  1.
          3    1    3    3  501    0  0.18934498297E+02 -0.43488849079E+02 -0.67735740872E+03  0.67901609286E+03  0.00000000000E+00 0.  1.
         21    1    1    2  502  501 -0.21501558854E+02  0.47866592550E+02 -0.23333179049E+03  0.23915947016E+03  0.00000000000E+00 0.  1.
<mgrwt>
<rscale>  1 0.30000000E+03</rscale>
<asrwt>0</asrwt>
<pdfrwt beam="1">  1        3 0.13885221E-01 0.30000000E+03</pdfrwt>
<pdfrwt beam="2">0</pdfrwt>
<totfact> 0.19012839E+02</totfact>
</mgrwt>
</event>
<event>
 6    1  0.3125838E-002  0.3000000E+03  0.7818608E-02  0.1093470E+00
          1   -1    0    0  502    0  0.00000000000E+00  0.00000000000E+00  0.15444436977E+01  0.15444436977E+01  0.00000000000E+00 0.  1.
         13   -1    0    0    0    0 -0.00000000000E+00 -0.00000000000E+00 -0.10000000000E+04  0.10000000000E+04  0.00000000000E+00 0.  1.
    9000005    2    1    2  501    0  0.12526040405E+01  0.30074636325E+02 -0.17959781869E+03  0.18213365099E+03  0.33522493681E+01 0.  0.
         13    1    3    3    0    0  0.22959919630E+01  0.15007245721E+02 -0.90926550381E+02  0.92185283898E+02  0.00000000000E+00 0.  1.
          1    1    3    3  501    0 -0.10433879225E+01  0.15067390604E+02 -0.88671268312E+02  0.89948367089E+02  0.00000000000E+00 0.  1.
         21    1    1    2  502  501 -0.12526040405E+01 -0.30074636325E+02 -0.81885773761E+03  0.81941079271E+03  0.00000000000E+00 0.  1.
<mgrwt>
<rscale>  1 0.30000000E+03</rscale>
<asrwt>0</asrwt>
<pdfrwt beam="1">  1        1 0.56161707E-02 0.30000000E+03</pdfrwt>
<pdfrwt beam="2">0</pdfrwt>
<totfact> 0.16895588E+03</totfact>
</mgrwt>
</event>
<event>
 6    1  0.3125838E-002  0.3000000E+03  0.7818608E-02  0.1093470E+00
          3   -1    0    0  502    0  0.00000000000E+00  0.00000000000E+00  0.10258619841E+01  0.10258619841E+01  0.00000000000E+00 0.  1.
         13   -1    0    0    0    0 -0.00000000000E+00 -0.00000000000E+00 -0.10000000000E+04  0.10000000000E+04  0.00000000000E+00 0.  1.
    9000005    2    1    2  501    0 -0.31835364435E+02 -0.22289386782E+01 -0.47223780852E+03  0.47332365486E+03  0.28767785600E+01 0.  0.
         13    1    3    3    0    0 -0.31720354512E+01  0.96330076733E-02 -0.60666218172E+02  0.60749089944E+02  0.00000000000E+00 0.  1.
          3    1    3    3  501    0 -0.28663328983E+02 -0.22385716859E+01 -0.41157159035E+03  0.41257456491E+03  0.00000000000E+00 0.  1.
         21    1    1    2  502  501  0.31835364435E+02  0.22289386782E+01 -0.52673632950E+03  0.52770220713E+03  0.00000000000E+00 0.  1.
<mgrwt>
<rscale>  1 0.30000000E+03</rscale>
<asrwt>0</asrwt>
<pdfrwt beam="1">  1        3 0.37304151E-02 0.30000000E+03</pdfrwt>
<pdfrwt beam="2">0</pdfrwt>
<totfact> 0.15532555E+03</totfact>
</mgrwt>
</event>
<event>
 6    1  0.3125838E-002  0.3000000E+03  0.7818608E-02  0.1093470E+00
          1   -1    0    0  502    0  0.00000000000E+00  0.00000000000E+00  0.56643554840E+01  0.56643554840E+01  0.00000000000E+00 0.  1.
         13   -1    0    0    0    0 -0.00000000000E+00 -0.00000000000E+00 -0.10000000000E+04  0.10000000000E+04  0.00000000000E+00 0.  1.
    9000005    2    1    2  501    0  0.86156932847E+01  0.59376461427E+02 -0.80058493464E+03  0.80283651736E+03  0.32313595580E+01 0.  0.
         13    1    3    3    0    0  0.73932696796E+01  0.54762017888E+02 -0.72721151317E+03  0.72930797605E+03  0.00000000000E+00 0.  1.
          3    1    3    3  501    0  0.12224236051E+01  0.46144435393E+01 -0.73373421471E+02  0.73528541309E+02  0.00000000000E+00 0.  1.
         21    1    1    2  502  501 -0.86156932847E+01 -0.59376461427E+02 -0.19375070987E+03  0.20282783812E+03  0.00000000000E+00 0.  1.
<mgrwt>
<rscale>  1 0.30000000E+03</rscale>
<asrwt>0</asrwt>
<pdfrwt beam="1">  1        1 0.20597700E-01 0.30000000E+03</pdfrwt>
<pdfrwt beam="2">0</pdfrwt>
<totfact> 0.28305946E+02</totfact>
</mgrwt>
</event>
<event>
 6    1  0.3125838E-002  0.3000000E+03  0.7818608E-02  0.1093470E+00
          1   -1    0    0  502    0  0.00000000000E+00  0.00000000000E+00  0.14950272069E+01  0.14950272069E+01  0.00000000000E+00 0.  1.
         13   -1    0    0    0    0 -0.00000000000E+00 -0.00000000000E+00 -0.10000000000E+04  0.10000000000E+04  0.00000000000E+00 0.  1.
    9000005    2    1    2  501    0 -0.30590272046E+02 -0.20642995650E+02 -0.64634572923E+03  0.64740742387E+03  0.34165433983E+01 0.  0.
         13    1    3    3    0    0 -0.20785990308E+02 -0.12672733244E+02 -0.40463544506E+03  0.40536711628E+03  0.00000000000E+00 0.  1.
          3    1    3    3  501    0 -0.98042817372E+01 -0.79702624070E+01 -0.24171028417E+03  0.24204030759E+03  0.00000000000E+00 0.  1.
         21    1    1    2  502  501  0.30590272046E+02  0.20642995650E+02 -0.35215924356E+03  0.35408760334E+03  0.00000000000E+00 0.  1.
<mgrwt>
<rscale>  1 0.30000000E+03</rscale>
<asrwt>0</asrwt>
<pdfrwt beam="1">  1        1 0.54364740E-02 0.30000000E+03</pdfrwt>
<pdfrwt beam="2">0</pdfrwt>
<totfact> 0.17684963E+03</totfact>
</mgrwt>
</event>
<event>
 6    1  0.3125838E-002  0.3000000E+03  0.7818608E-02  0.1093470E+00
          3   -1    0    0  502    0  0.00000000000E+00  0.00000000000E+00  0.17134377689E+01  0.17134377689E+01  0.00000000000E+00 0.  1.
         13   -1    0    0    0    0 -0.00000000000E+00 -0.00000000000E+00 -0.10000000000E+04  0.10000000000E+04  0.00000000000E+00 0.  1.
    9000005    2    1    2  501    0  0.89376460637E+01 -0.35055532197E+02 -0.74200116299E+03  0.74288728430E+03  0.26494231560E+01 0.  0.
         13    1    3    3    0    0  0.28784443289E+01 -0.15044038600E+02 -0.29497199898E+03  0.29536941060E+03  0.00000000000E+00 0.  1.
          3    1    3    3  501    0  0.60592017348E+01 -0.20011493597E+02 -0.44702916402E+03  0.44751787370E+03  0.00000000000E+00 0.  1.
         21    1    1    2  502  501 -0.89376460637E+01  0.35055532197E+02 -0.25628539924E+03  0.25882615347E+03  0.00000000000E+00 0.  1.
<mgrwt>
<rscale>  1 0.30000000E+03</rscale>
<asrwt>0</asrwt>
<pdfrwt beam="1">  1        3 0.62306959E-02 0.30000000E+03</pdfrwt>
<pdfrwt beam="2">0</pdfrwt>
<totfact> 0.70306096E+02</totfact>
</mgrwt>
</event>
<event>
 6    1  0.3125838E-002  0.3000000E+03  0.7818608E-02  0.1093470E+00
          1   -1    0    0  502    0  0.00000000000E+00  0.00000000000E+00  0.10897291761E+01  0.10897291761E+01  0.00000000000E+00 0.  1.
         13   -1    0    0    0    0 -0.00000000000E+00 -0.00000000000E+00 -0.10000000000E+04  0.10000000000E+04  0.00000000000E+00 0.  1.
    9000005    2    1    2  501    0 -0.25876413648E+02 -0.17833355345E+02 -0.64943489409E+03  0.65020419757E+03  0.34927828233E+01 0.  0.
         13    1    3    3    0    0 -0.44013476786E+01 -0.15405457335E+01 -0.97158955371E+02  0.97270795984E+02  0.00000000000E+00 0.  1.
          3    1    3    3  501    0 -0.21475065969E+02 -0.16292809611E+02 -0.55227593872E+03  0.55293340159E+03  0.00000000000E+00 0.  1.
         21    1    1    2  502  501  0.25876413648E+02  0.17833355345E+02 -0.34947537673E+03  0.35088553160E+03  0.00000000000E+00 0.  1.
<mgrwt>
<rscale>  1 0.30000000E+03</rscale>
<asrwt>0</asrwt>
<pdfrwt beam="1">  1        1 0.39626599E-02 0.30000000E+03</pdfrwt>
<pdfrwt beam="2">0</pdfrwt>
<totfact> 0.27591470E+03</totfact>
</mgrwt>
</event>
<event>
 6    1  0.3125838E-002  0.3000000E+03  0.7818608E-02  0.1093470E+00
          3   -1    0    0  502    0  0.00000000000E+00  0.00000000000E+00  0.16008690757E+01  0.16008690757E+01  0.00000000000E+00 0.  1.
         13   -1    0    0    0    0 -0.00000000000E+00 -0.00000000000E+00 -0.10000000000E+04  0.10000000000E+04  0.00000000000E+00 0.  1.
    9000005    2    1    2  501    0 -0.25077584726E+02 -0.30250773465E+02 -0.58764458440E+03  0.58897114154E+03  0.41052951631E+01 0.  0.
         13    1    3    3    0    0 -0.47576676547E+01 -0.82514797435E+01 -0.13146218268E+03  0.13180678205E+03  0.00000000000E+00 0.  1.
          1    1    3    3  501    0 -0.20319917072E+02 -0.21999293721E+02 -0.45618240171E+03  0.45716435949E+03  0.00000000000E+00 0.  1.
         21    1    1    2  502  501  0.25077584726E+02  0.30250773465E+02 -0.41075454653E+03  0.41262972753E+03  0.00000000000E+00 0.  1.
<mgrwt>
<rscale>  1 0.30000000E+03</rscale>
<asrwt>0</asrwt>
<pdfrwt beam="1">  1        3 0.58213544E-02 0.30000000E+03</pdfrwt>
<pdfrwt beam="2">0</pdfrwt>
<totfact> 0.78168630E+02</totfact>
</mgrwt>
</event>
<event>
 6    1  0.3125838E-002  0.3000000E+03  0.7818608E-02  0.1093470E+00
          1   -1    0    0  502    0  0.00000000000E+00  0.00000000000E+00  0.11815756990E+01  0.11815756990E+01  0.00000000000E+00 0.  1.
         13   -1    0    0    0    0 -0.00000000000E+00 -0.00000000000E+00 -0.10000000000E+04  0.10000000000E+04  0.00000000000E+00 0.  1.
    9000005    2    1    2  501    0  0.28886852791E+02  0.14438857454E+02 -0.66882782529E+03  0.66961449907E+03  0.31601603935E+01 0.  0.
         13    1    3    3    0    0  0.68827690774E+01  0.35971487257E+01 -0.19022530422E+03  0.19038376600E+03  0.00000000000E+00 0.  1.
          1    1    3    3  501    0  0.22004083713E+02  0.10841708728E+02 -0.47860252107E+03  0.47923073307E+03  0.00000000000E+00 0.  1.
         21    1    1    2  502  501 -0.28886852791E+02 -0.14438857454E+02 -0.32999059901E+03  0.33156707663E+03  0.00000000000E+00 0.  1.
<mgrwt>
<rscale>  1 0.30000000E+03</rscale>
<asrwt>0</asrwt>
<pdfrwt beam="1">  1        1 0.42966480E-02 0.30000000E+03</pdfrwt>
<pdfrwt beam="2">0</pdfrwt>
<totfact> 0.24620392E+03</totfact>
</mgrwt>
</event>
<event>
 6    1  0.3125838E-002  0.3000000E+03  0.7818608E-02  0.1093470E+00
          1   -1    0    0  502    0  0.00000000000E+00  0.00000000000E+00  0.79931635786E+02  0.79931635786E+02  0.00000000000E+00 0.  1.
         13   -1    0    0    0    0 -0.00000000000E+00 -0.00000000000E+00 -0.10000000000E+04  0.10000000000E+04  0.00000000000E+00 0.  1.
    9000005    2    1    2  501    0 -0.29047668852E+02  0.24140288555E+02 -0.99515647136E+03  0.99587960171E+03  0.36411554850E+01 0.  0.
         13    1    3    3    0    0 -0.84373767111E+01  0.54102634627E+01 -0.29129615585E+03  0.29146854151E+03  0.00000000000E+00 0.  1.
          3    1    3    3  501    0 -0.20610292141E+02  0.18730025092E+02 -0.70386031551E+03  0.70441106020E+03  0.00000000000E+00 0.  1.
         21    1    1    2  502  501  0.29047668852E+02 -0.24140288555E+02  0.75088107148E+02  0.84052034076E+02  0.00000000000E+00 0.  1.
<mgrwt>
<rscale>  1 0.30000000E+03</rscale>
<asrwt>0</asrwt>
<pdfrwt beam="1">  1        1 0.29066111E+00 0.30000000E+03</pdfrwt>
<pdfrwt beam="2">0</pdfrwt>
<totfact> 0.38467951E+00</totfact>
</mgrwt>
</event>
<event>
 6    1  0.3125838E-002  0.3000000E+03  0.7818608E-02  0.1093470E+00
          1   -1    0    0  502    0  0.00000000000E+00  0.00000000000E+00  0.93899630002E+00  0.93899630002E+00  0.00000000000E+00 0.  1.
         13   -1    0    0    0    0 -0.00000000000E+00 -0.00000000000E+00 -0.10000000000E+04  0.10000000000E+04  0.00000000000E+00 0.  1.
    9000005    2    1    2  501    0  0.16535130971E+02 -0.25047543007E+02 -0.59508133382E+03  0.59584596545E+03  0.31353971221E+01 0.  0.
         13    1    3    3    0    0  0.68122545340E+00 -0.14800756232E+01 -0.48182618162E+02  0.48210158524E+02  0.00000000000E+00 0.  1.
          3    1    3    3  501    0  0.15853905517E+02 -0.23567467384E+02 -0.54689871565E+03  0.54763580692E+03  0.00000000000E+00 0.  1.
         21    1    1    2  502  501 -0.16535130971E+02  0.25047543007E+02 -0.40397966988E+03  0.40509303085E+03  0.00000000000E+00 0.  1.
<mgrwt>
<rscale>  1 0.30000000E+03</rscale>
<asrwt>0</asrwt>
<pdfrwt beam="1">  1        1 0.34145392E-02 0.30000000E+03</pdfrwt>
<pdfrwt beam="2">0</pdfrwt>
<totfact> 0.34021198E+03</totfact>
</mgrwt>
</event>
<event>
 6    1  0.3125838E-002  0.3000000E+03  0.7818608E-02  0.1093470E+00
          3   -1    0    0  502    0  0.00000000000E+00  0.00000000000E+00  0.14610336535E+01  0.14610336535E+01  0.00000000000E+00 0.  1.
         13   -1    0    0    0    0 -0.00000000000E+00 -0.00000000000E+00 -0.10000000000E+04  0.10000000000E+04  0.00000000000E+00 0.  1.
    9000005    2    1    2  501    0 -0.88887097532E+01 -0.31103046919E+02 -0.76536762388E+03  0.76605652300E+03  0.29305387552E+01 0.  0.
         13    1    3    3    0    0 -0.58717696033E+01 -0.24898966930E+02 -0.60239750968E+03  0.60294045801E+03  0.00000000000E+00 0.  1.
          3    1    3    3  501    0 -0.30169401499E+01 -0.62040799892E+01 -0.16297011420E+03  0.16311606499E+03  0.00000000000E+00 0.  1.
         21    1    1    2  502  501  0.88887097532E+01  0.31103046919E+02 -0.23317134247E+03  0.23540451066E+03  0.00000000000E+00 0.  1.
<mgrwt>
<rscale>  1 0.30000000E+03</rscale>
<asrwt>0</asrwt>
<pdfrwt beam="1">  1        3 0.53128609E-02 0.30000000E+03</pdfrwt>
<pdfrwt beam="2">0</pdfrwt>
<totfact> 0.90082723E+02</totfact>
</mgrwt>
</event>
<event>
 6    1  0.3125838E-002  0.3000000E+03  0.7818608E-02  0.1093470E+00
          1   -1    0    0  502    0  0.00000000000E+00  0.00000000000E+00  0.36773667152E+01  0.36773667152E+01  0.00000000000E+00 0.  1.
         13   -1    0    0    0    0 -0.00000000000E+00 -0.00000000000E+00 -0.10000000000E+04  0.10000000000E+04  0.00000000000E+00 0.  1.
    9000005    2    1    2  501    0 -0.51915145083E+02  0.30983696712E+02 -0.47705249540E+03  0.48089954790E+03  0.54881734524E+01 0.  0.
         13    1    3    3    0    0 -0.38040055090E+02  0.24106185967E+02 -0.33786634211E+03  0.34085454247E+03  0.00000000000E+00 0.  1.
          1    1    3    3  501    0 -0.13875089993E+02  0.68775107454E+01 -0.13918615330E+03  0.14004500543E+03  0.00000000000E+00 0.  1.
         21    1    1    2  502  501  0.51915145083E+02 -0.30983696712E+02 -0.51927013788E+03  0.52277781882E+03  0.00000000000E+00 0.  1.
<mgrwt>
<rscale>  1 0.30000000E+03</rscale>
<asrwt>0</asrwt>
<pdfrwt beam="1">  1        1 0.13372271E-01 0.30000000E+03</pdfrwt>
<pdfrwt beam="2">0</pdfrwt>
<totfact> 0.50720393E+02</totfact>
</mgrwt>
</event>
<event>
 6    1  0.3125838E-002  0.3000000E+03  0.7818608E-02  0.1093470E+00
          1   -1    0    0  502    0  0.00000000000E+00  0.00000000000E+00  0.17331747890E+01  0.17331747890E+01  0.00000000000E+00 0.  1.
         13   -1    0    0    0    0 -0.00000000000E+00 -0.00000000000E+00 -0.10000000000E+04  0.10000000000E+04  0.00000000000E+00 0.  1.
    9000005    2    1    2  501    0 -0.19657209471E+02 -0.26798964943E+02 -0.79991034555E+03  0.80061161098E+03  0.42190412302E+01 0.  0.
         13    1    3    3    0    0 -0.13094492898E+02 -0.20037209700E+02 -0.60575247462E+03  0.60622521889E+03  0.00000000000E+00 0.  1.
          3    1    3    3  501    0 -0.65627165730E+01 -0.67617552433E+01 -0.19415787094E+03  0.19438639209E+03  0.00000000000E+00 0.  1.
         21    1    1    2  502  501  0.19657209471E+02  0.26798964943E+02 -0.19835647966E+03  0.20112156381E+03  0.00000000000E+00 0.  1.
<mgrwt>
<rscale>  1 0.30000000E+03</rscale>
<asrwt>0</asrwt>
<pdfrwt beam="1">  1        1 0.63024671E-02 0.30000000E+03</pdfrwt>
<pdfrwt beam="2">0</pdfrwt>
<totfact> 0.14372326E+03</totfact>
</mgrwt>
</event>
<event>
 6    1  0.3125838E-002  0.3000000E+03  0.7818608E-02  0.1093470E+00
          1   -1    0    0  502    0  0.00000000000E+00  0.00000000000E+00  0.42052539956E+01  0.42052539956E+01  0.00000000000E+00 0.  1.
         13   -1    0    0    0    0 -0.00000000000E+00 -0.00000000000E+00 -0.10000000000E+04  0.10000000000E+04  0.00000000000E+00 0.  1.
    9000005    2    1    2  501    0 -0.24484116243E+02 -0.55503533303E+02 -0.67473305814E+03  0.67746266177E+03  0.32930523168E+01 0.  0.
         13    1    3    3    0    0 -0.23262244082E+01 -0.78937691253E+01 -0.95791592704E+02  0.96144433764E+02  0.00000000000E+00 0.  1.
          3    1    3    3  501    0 -0.22157891835E+02 -0.47609764178E+02 -0.57894146543E+03  0.58131822801E+03  0.00000000000E+00 0.  1.
         21    1    1    2  502  501  0.24484116243E+02  0.55503533303E+02 -0.32106168787E+03  0.32674259223E+03  0.00000000000E+00 0.  1.
<mgrwt>
<rscale>  1 0.30000000E+03</rscale>
<asrwt>0</asrwt>
<pdfrwt beam="1">  1        1 0.15291865E-01 0.30000000E+03</pdfrwt>
<pdfrwt beam="2">0</pdfrwt>
<totfact> 0.42260782E+02</totfact>
</mgrwt>
</event>
<event>
 6    1  0.3125838E-002  0.3000000E+03  0.7818608E-02  0.1093470E+00
          1   -1    0    0  502    0  0.00000000000E+00  0.00000000000E+00  0.49352168293E+01  0.49352168293E+01  0.00000000000E+00 0.  1.
         13   -1    0    0    0    0 -0.00000000000E+00 -0.00000000000E+00 -0.10000000000E+04  0.10000000000E+04  0.00000000000E+00 0.  1.
    9000005    2    1    2  501    0 -0.19706339535E+02 -0.54887530005E+02 -0.77747220335E+03  0.77966313342E+03  0.32548231359E+01 0.  0.
         13    1    3    3    0    0 -0.84161437079E+01 -0.27817723646E+02 -0.37789326364E+03  0.37900920296E+03  0.00000000000E+00 0.  1.
          1    1    3    3  501    0 -0.11290195827E+02 -0.27069806359E+02 -0.39957893971E+03  0.40065393046E+03  0.00000000000E+00 0.  1.
         21    1    1    2  502  501  0.19706339535E+02  0.54887530005E+02 -0.21759257983E+03  0.22527208341E+03  0.00000000000E+00 0.  1.
<mgrwt>
<rscale>  1 0.30000000E+03</rscale>
<asrwt>0</asrwt>
<pdfrwt beam="1">  1        1 0.17946281E-01 0.30000000E+03</pdfrwt>
<pdfrwt beam="2">0</pdfrwt>
<totfact> 0.34045106E+02</totfact>
</mgrwt>
</event>
<event>
 6    1  0.3125838E-002  0.3000000E+03  0.7818608E-02  0.1093470E+00
          1   -1    0    0  502    0  0.00000000000E+00  0.00000000000E+00  0.32571361434E+01  0.32571361434E+01  0.00000000000E+00 0.  1.
         13   -1    0    0    0    0 -0.00000000000E+00 -0.00000000000E+00 -0.10000000000E+04  0.10000000000E+04  0.00000000000E+00 0.  1.
    9000005    2    1    2  501    0  0.27150145716E+02  0.17957537752E+02 -0.91028033198E+03  0.91087005375E+03  0.37905746310E+01 0.  0.
         13    1    3    3    0    0  0.11705316687E+02  0.56458669587E+01 -0.34423352045E+03  0.34447874659E+03  0.00000000000E+00 0.  1.
          3    1    3    3  501    0  0.15444829029E+02  0.12311670793E+02 -0.56604681152E+03  0.56639130715E+03  0.00000000000E+00 0.  1.
         21    1    1    2  502  501 -0.27150145716E+02 -0.17957537752E+02 -0.86462531881E+02  0.92387082397E+02  0.00000000000E+00 0.  1.
<mgrwt>
<rscale>  1 0.30000000E+03</rscale>
<asrwt>0</asrwt>
<pdfrwt beam="1">  1        1 0.11844156E-01 0.30000000E+03</pdfrwt>
<pdfrwt beam="2">0</pdfrwt>
<totfact> 0.59880848E+02</totfact>
</mgrwt>
</event>
<event>
 6    1  0.3125838E-002  0.3000000E+03  0.7818608E-02  0.1093470E+00
          1   -1    0    0  502    0  0.00000000000E+00  0.00000000000E+00  0.17233424663E+01  0.17233424663E+01  0.00000000000E+00 0.  1.
         13   -1    0    0    0    0 -0.00000000000E+00 -0.00000000000E+00 -0.10000000000E+04  0.10000000000E+04  0.00000000000E+00 0.  1.
    9000005    2    1    2  501    0  0.28124496915E+02 -0.20854569031E+02 -0.76661107366E+03  0.76742685694E+03  0.50539218337E+01 0.  0.
         13    1    3    3    0    0  0.24561910495E+02 -0.20044568232E+02 -0.69479450908E+03  0.69551742035E+03  0.00000000000E+00 0.  1.
          1    1    3    3  501    0  0.35625864203E+01 -0.81000079878E+00 -0.71816564575E+02  0.71909436590E+02  0.00000000000E+00 0.  1.
         21    1    1    2  502  501 -0.28124496915E+02  0.20854569031E+02 -0.23166558388E+03  0.23429648552E+03  0.00000000000E+00 0.  1.
<mgrwt>
<rscale>  1 0.30000000E+03</rscale>
<asrwt>0</asrwt>
<pdfrwt beam="1">  1        1 0.62667131E-02 0.30000000E+03</pdfrwt>
<pdfrwt beam="2">0</pdfrwt>
<totfact> 0.14487389E+03</totfact>
</mgrwt>
</event>
<event>
 6    1  0.3125838E-002  0.3000000E+03  0.7818608E-02  0.1093470E+00
          1   -1    0    0  502    0  0.00000000000E+00  0.00000000000E+00  0.15752278814E+02  0.15752278814E+02  0.00000000000E+00 0.  1.
         13   -1    0    0    0    0 -0.00000000000E+00 -0.00000000000E+00 -0.10000000000E+04  0.10000000000E+04  0.00000000000E+00 0.  1.
    9000005    2    1    2  501    0  0.24354869949E+02 -0.10811880301E+03 -0.73032506642E+03  0.73869714015E+03  0.39908609733E+01 0.  0.
         13    1    3    3    0    0  0.16173303966E+02 -0.68551561600E+02 -0.47586513259E+03  0.48104939120E+03  0.00000000000E+00 0.  1.
          3    1    3    3  501    0  0.81815659827E+01 -0.39567241415E+02 -0.25445993383E+03  0.25764774895E+03  0.00000000000E+00 0.  1.
         21    1    1    2  502  501 -0.24354869949E+02  0.10811880301E+03 -0.25392265477E+03  0.27705513866E+03  0.00000000000E+00 0.  1.
<mgrwt>
<rscale>  1 0.30000000E+03</rscale>
<asrwt>0</asrwt>
<pdfrwt beam="1">  1        1 0.57281135E-01 0.30000000E+03</pdfrwt>
<pdfrwt beam="2">0</pdfrwt>
<totfact> 0.73746339E+01</totfact>
</mgrwt>
</event>
<event>
 6    1  0.3125838E-002  0.3000000E+03  0.7818608E-02  0.1093470E+00
          3   -1    0    0  502    0  0.00000000000E+00  0.00000000000E+00  0.14481104191E+02  0.14481104191E+02  0.00000000000E+00 0.  1.
         13   -1    0    0    0    0 -0.00000000000E+00 -0.00000000000E+00 -0.10000000000E+04  0.10000000000E+04  0.00000000000E+00 0.  1.
    9000005    2    1    2  501    0 -0.12865861939E+02 -0.45361071694E+02 -0.95943112095E+03  0.96059484225E+03  0.33493107519E+01 0.  0.
         13    1    3    3    0    0 -0.27393348689E+01 -0.14589299907E+02 -0.28589335240E+03  0.28627846683E+03  0.00000000000E+00 0.  1.
          3    1    3    3  501    0 -0.10126527070E+02 -0.30771771787E+02 -0.67353776855E+03  0.67431637542E+03  0.00000000000E+00 0.  1.
         21    1    1    2  502  501  0.12865861939E+02  0.45361071694E+02 -0.26087774857E+02  0.53886261938E+02  0.00000000000E+00 0.  1.
<mgrwt>
<rscale>  1 0.30000000E+03</rscale>
<asrwt>0</asrwt>
<pdfrwt beam="1">  1        3 0.52658672E-01 0.30000000E+03</pdfrwt>
<pdfrwt beam="2">0</pdfrwt>
<totfact> 0.15777899E+01</totfact>
</mgrwt>
</event>
<event>
 6    1  0.3125838E-002  0.3000000E+03  0.7818608E-02  0.1093470E+00
          1   -1    0    0  502    0  0.00000000000E+00  0.00000000000E+00  0.37190223636E+01  0.37190223636E+01  0.00000000000E+00 0.  1.
         13   -1    0    0    0    0 -0.00000000000E+00 -0.00000000000E+00 -0.10000000000E+04  0.10000000000E+04  0.00000000000E+00 0.  1.
    9000005    2    1    2  501    0 -0.18453293783E+02  0.39517013807E+02 -0.84873102017E+03  0.84985834389E+03  0.35695449346E+01 0.  0.
         13    1    3    3    0    0 -0.14122906598E+02  0.29333240423E+02 -0.66136810186E+03  0.66216890719E+03  0.00000000000E+00 0.  1.
          1    1    3    3  501    0 -0.43303871843E+01  0.10183773384E+02 -0.18736291831E+03  0.18768943670E+03  0.00000000000E+00 0.  1.
         21    1    1    2  502  501  0.18453293783E+02 -0.39517013807E+02 -0.14754995747E+03  0.15386067847E+03  0.00000000000E+00 0.  1.
<mgrwt>
<rscale>  1 0.30000000E+03</rscale>
<asrwt>0</asrwt>
<pdfrwt beam="1">  1        1 0.13523746E-01 0.30000000E+03</pdfrwt>
<pdfrwt beam="2">0</pdfrwt>
<totfact> 0.49947075E+02</totfact>
</mgrwt>
</event>
<event>
 6    1  0.3125838E-002  0.3000000E+03  0.7818608E-02  0.1093470E+00
          1   -1    0    0  502    0  0.00000000000E+00  0.00000000000E+00  0.92076973704E+01  0.92076973704E+01  0.00000000000E+00 0.  1.
         13   -1    0    0    0    0 -0.00000000000E+00 -0.00000000000E+00 -0.10000000000E+04  0.10000000000E+04  0.00000000000E+00 0.  1.
    9000005    2    1    2  501    0  0.26214188265E+02 -0.73220856338E+02 -0.79071916497E+03  0.79455044060E+03  0.50127183609E+01 0.  0.
         13    1    3    3    0    0  0.19027099019E+02 -0.47688133883E+02 -0.53648522535E+03  0.53893653210E+03  0.00000000000E+00 0.  1.
          1    1    3    3  501    0  0.71870892457E+01 -0.25532722455E+02 -0.25423393962E+03  0.25561390851E+03  0.00000000000E+00 0.  1.
         21    1    1    2  502  501 -0.26214188265E+02  0.73220856338E+02 -0.20007313766E+03  0.21465725677E+03  0.00000000000E+00 0.  1.
<mgrwt>
<rscale>  1 0.30000000E+03</rscale>
<asrwt>0</asrwt>
<pdfrwt beam="1">  1        1 0.33482606E-01 0.30000000E+03</pdfrwt>
<pdfrwt beam="2">0</pdfrwt>
<totfact> 0.14912218E+02</totfact>
</mgrwt>
</event>
<event>
 6    1  0.3125838E-002  0.3000000E+03  0.7818608E-02  0.1093470E+00
          1   -1    0    0  502    0  0.00000000000E+00  0.00000000000E+00  0.92262579389E+00  0.92262579389E+00  0.00000000000E+00 0.  1.
         13   -1    0    0    0    0 -0.00000000000E+00 -0.00000000000E+00 -0.10000000000E+04  0.10000000000E+04  0.00000000000E+00 0.  1.
    9000005    2    1    2  501    0  0.11651678663E+02  0.27744911031E+02 -0.44402761015E+03  0.44505773008E+03  0.32129158490E+01 0.  0.
         13    1    3    3    0    0  0.47051867451E+01  0.14471898157E+02 -0.20919214972E+03  0.20974491680E+03  0.00000000000E+00 0.  1.
          3    1    3    3  501    0  0.69464919178E+01  0.13273012874E+02 -0.23483546043E+03  0.23531281328E+03  0.00000000000E+00 0.  1.
         21    1    1    2  502  501 -0.11651678663E+02 -0.27744911031E+02 -0.55504976406E+03  0.55586489571E+03  0.00000000000E+00 0.  1.
<mgrwt>
<rscale>  1 0.30000000E+03</rscale>
<asrwt>0</asrwt>
<pdfrwt beam="1">  1        1 0.33550100E-02 0.30000000E+03</pdfrwt>
<pdfrwt beam="2">0</pdfrwt>
<totfact> 0.34872946E+03</totfact>
</mgrwt>
</event>
<event>
 6    1  0.3125838E-002  0.3000000E+03  0.7818608E-02  0.1093470E+00
          1   -1    0    0  502    0  0.00000000000E+00  0.00000000000E+00  0.26880583634E+01  0.26880583634E+01  0.00000000000E+00 0.  1.
         13   -1    0    0    0    0 -0.00000000000E+00 -0.00000000000E+00 -0.10000000000E+04  0.10000000000E+04  0.00000000000E+00 0.  1.
    9000005    2    1    2  501    0 -0.18872834188E+02 -0.44821724547E+02 -0.67170531466E+03  0.67346951941E+03  0.28271833631E+01 0.  0.
         13    1    3    3    0    0 -0.74808698523E+01 -0.14581307447E+02 -0.21908100106E+03  0.21969311087E+03  0.00000000000E+00 0.  1.
          1    1    3    3  501    0 -0.11391964336E+02 -0.30240417100E+02 -0.45262431361E+03  0.45377640854E+03  0.00000000000E+00 0.  1.
         21    1    1    2  502  501  0.18872834188E+02  0.44821724547E+02 -0.32560662697E+03  0.32921853895E+03  0.00000000000E+00 0.  1.
<mgrwt>
<rscale>  1 0.30000000E+03</rscale>
<asrwt>0</asrwt>
<pdfrwt beam="1">  1        1 0.97747783E-02 0.30000000E+03</pdfrwt>
<pdfrwt beam="2">0</pdfrwt>
<totfact> 0.77989395E+02</totfact>
</mgrwt>
</event>
<event>
 6    1  0.3125838E-002  0.3000000E+03  0.7818608E-02  0.1093470E+00
          3   -1    0    0  502    0  0.00000000000E+00  0.00000000000E+00  0.22038214516E+01  0.22038214516E+01  0.00000000000E+00 0.  1.
         13   -1    0    0    0    0 -0.00000000000E+00 -0.00000000000E+00 -0.10000000000E+04  0.10000000000E+04  0.00000000000E+00 0.  1.
    9000005    2    1    2  501    0  0.37127868336E+02 -0.27144490182E+02 -0.59683505077E+03  0.59861352432E+03  0.32820282129E+01 0.  0.
         13    1    3    3    0    0  0.14685241141E+01 -0.86317165955E+00 -0.31240380314E+02  0.31286786197E+02  0.00000000000E+00 0.  1.
          3    1    3    3  501    0  0.35659344222E+02 -0.26281318523E+02 -0.56559467046E+03  0.56732673812E+03  0.00000000000E+00 0.  1.
         21    1    1    2  502  501 -0.37127868336E+02  0.27144490182E+02 -0.40096112778E+03  0.40359029714E+03  0.00000000000E+00 0.  1.
<mgrwt>
<rscale>  1 0.30000000E+03</rscale>
<asrwt>0</asrwt>
<pdfrwt beam="1">  1        3 0.80139131E-02 0.30000000E+03</pdfrwt>
<pdfrwt beam="2">0</pdfrwt>
<totfact> 0.47259938E+02</totfact>
</mgrwt>
</event>
<event>
 6    1  0.3125838E-002  0.3000000E+03  0.7818608E-02  0.1093470E+00
          3   -1    0    0  502    0  0.00000000000E+00  0.00000000000E+00  0.13684060560E+01  0.13684060560E+01  0.00000000000E+00 0.  1.
         13   -1    0    0    0    0 -0.00000000000E+00 -0.00000000000E+00 -0.10000000000E+04  0.10000000000E+04  0.00000000000E+00 0.  1.
    9000005    2    1    2  501    0 -0.22386551116E+02 -0.28899334427E+02 -0.57073107112E+03  0.57190922681E+03  0.31430834127E+01 0.  0.
         13    1    3    3    0    0 -0.79104331013E+01 -0.12705541851E+02 -0.22924427245E+03  0.22973232728E+03  0.00000000000E+00 0.  1.
          3    1    3    3  501    0 -0.14476118014E+02 -0.16193792576E+02 -0.34148679867E+03  0.34217689953E+03  0.00000000000E+00 0.  1.
         21    1    1    2  502  501  0.22386551116E+02  0.28899334427E+02 -0.42790052283E+03  0.42945917924E+03  0.00000000000E+00 0.  1.
<mgrwt>
<rscale>  1 0.30000000E+03</rscale>
<asrwt>0</asrwt>
<pdfrwt beam="1">  1        3 0.49760325E-02 0.30000000E+03</pdfrwt>
<pdfrwt beam="2">0</pdfrwt>
<totfact> 0.99676060E+02</totfact>
</mgrwt>
</event>
<event>
 6    1  0.3125838E-002  0.3000000E+03  0.7818608E-02  0.1093470E+00
          1   -1    0    0  502    0  0.00000000000E+00  0.00000000000E+00  0.95054368807E+00  0.95054368807E+00  0.00000000000E+00 0.  1.
         13   -1    0    0    0    0 -0.00000000000E+00 -0.00000000000E+00 -0.10000000000E+04  0.10000000000E+04  0.00000000000E+00 0.  1.
    9000005    2    1    2  501    0  0.30303441018E+02  0.24058695017E+01 -0.57078950844E+03  0.57161306606E+03  0.40923829953E+01 0.  0.
         13    1    3    3    0    0  0.23742612452E+02  0.14430897427E+01 -0.47420218506E+03  0.47479838507E+03  0.00000000000E+00 0.  1.
          3    1    3    3  501    0  0.65608285660E+01  0.96277975906E+00 -0.96587323376E+02  0.96814680980E+02  0.00000000000E+00 0.  1.
         21    1    1    2  502  501 -0.30303441018E+02 -0.24058695017E+01 -0.42825994788E+03  0.42933747763E+03  0.00000000000E+00 0.  1.
<mgrwt>
<rscale>  1 0.30000000E+03</rscale>
<asrwt>0</asrwt>
<pdfrwt beam="1">  1        1 0.34565298E-02 0.30000000E+03</pdfrwt>
<pdfrwt beam="2">0</pdfrwt>
<totfact> 0.33441476E+03</totfact>
</mgrwt>
</event>
<event>
 6    1  0.3125838E-002  0.3000000E+03  0.7818608E-02  0.1093470E+00
          3   -1    0    0  502    0  0.00000000000E+00  0.00000000000E+00  0.32711865836E+01  0.32711865836E+01  0.00000000000E+00 0.  1.
         13   -1    0    0    0    0 -0.00000000000E+00 -0.00000000000E+00 -0.10000000000E+04  0.10000000000E+04  0.00000000000E+00 0.  1.
    9000005    2    1    2  501    0 -0.17042837173E+02  0.54540847170E+02 -0.50196262360E+03  0.50521622486E+03  0.34345399420E+01 0.  0.
         13    1    3    3    0    0 -0.88671318038E+01  0.25091792837E+02 -0.22127939563E+03  0.22287394425E+03  0.00000000000E+00 0.  1.
          3    1    3    3  501    0 -0.81757053696E+01  0.29449054334E+02 -0.28068322797E+03  0.28234228061E+03  0.00000000000E+00 0.  1.
         21    1    1    2  502  501  0.17042837173E+02 -0.54540847170E+02 -0.49476618982E+03  0.49805496172E+03  0.00000000000E+00 0.  1.
<mgrwt>
<rscale>  1 0.30000000E+03</rscale>
<asrwt>0</asrwt>
<pdfrwt beam="1">  1        3 0.11895249E-01 0.30000000E+03</pdfrwt>
<pdfrwt beam="2">0</pdfrwt>
<totfact> 0.24724103E+02</totfact>
</mgrwt>
</event>
<event>
 6    1  0.3125838E-002  0.3000000E+03  0.7818608E-02  0.1093470E+00
          1   -1    0    0  502    0  0.00000000000E+00  0.00000000000E+00  0.22740367066E+01  0.22740367066E+01  0.00000000000E+00 0.  1.
         13   -1    0    0    0    0 -0.00000000000E+00 -0.00000000000E+00 -0.10000000000E+04  0.10000000000E+04  0.00000000000E+00 0.  1.
    9000005    2    1    2  501    0 -0.68035417200E+01  0.38455239842E+02 -0.78582956017E+03  0.78680900634E+03  0.39014331335E+01 0.  0.
         13    1    3    3    0    0  0.45637373046E+00  0.26943089249E+01 -0.48179624300E+02  0.48257059331E+02  0.00000000000E+00 0.  1.
          1    1    3    3  501    0 -0.72599154505E+01  0.35760930917E+02 -0.73764993587E+03  0.73855194701E+03  0.00000000000E+00 0.  1.
         21    1    1    2  502  501  0.68035417200E+01 -0.38455239842E+02 -0.21189640313E+03  0.21546503036E+03  0.00000000000E+00 0.  1.
<mgrwt>
<rscale>  1 0.30000000E+03</rscale>
<asrwt>0</asrwt>
<pdfrwt beam="1">  1        1 0.82692418E-02 0.30000000E+03</pdfrwt>
<pdfrwt beam="2">0</pdfrwt>
<totfact> 0.98348243E+02</totfact>
</mgrwt>
</event>
<event>
 6    1  0.3125838E-002  0.3000000E+03  0.7818608E-02  0.1093470E+00
          1   -1    0    0  502    0  0.00000000000E+00  0.00000000000E+00  0.10254967721E+01  0.10254967721E+01  0.00000000000E+00 0.  1.
         13   -1    0    0    0    0 -0.00000000000E+00 -0.00000000000E+00 -0.10000000000E+04  0.10000000000E+04  0.00000000000E+00 0.  1.
    9000005    2    1    2  501    0  0.20387280570E+02 -0.24526242800E+02 -0.53737934097E+03  0.53832983911E+03  0.22982134924E+01 0.  0.
         13    1    3    3    0    0  0.19765302143E+02 -0.24015446551E+02 -0.52834578070E+03  0.52926049619E+03  0.00000000000E+00 0.  1.
          3    1    3    3  501    0  0.62197842694E+00 -0.51079624934E+00 -0.90335602617E+01  0.90693429185E+01  0.00000000000E+00 0.  1.
         21    1    1    2  502  501 -0.20387280570E+02  0.24526242800E+02 -0.46159516226E+03  0.46269565766E+03  0.00000000000E+00 0.  1.
<mgrwt>
<rscale>  1 0.30000000E+03</rscale>
<asrwt>0</asrwt>
<pdfrwt beam="1">  1        1 0.37290870E-02 0.30000000E+03</pdfrwt>
<pdfrwt beam="2">0</pdfrwt>
<totfact> 0.30054891E+03</totfact>
</mgrwt>
</event>
<event>
 6    1  0.3125838E-002  0.3000000E+03  0.7818608E-02  0.1093470E+00
          1   -1    0    0  502    0  0.00000000000E+00  0.00000000000E+00  0.53876718956E+01  0.53876718956E+01  0.00000000000E+00 0.  1.
         13   -1    0    0    0    0 -0.00000000000E+00 -0.00000000000E+00 -0.10000000000E+04  0.10000000000E+04  0.00000000000E+00 0.  1.
    9000005    2    1    2  501    0  0.72846585487E+01  0.63049787513E+02 -0.74944314098E+03  0.75213627057E+03  0.39504426471E+01 0.  0.
         13    1    3    3    0    0  0.36039321827E+01  0.42827962267E+02 -0.52185169011E+03  0.52361857219E+03  0.00000000000E+00 0.  1.
          1    1    3    3  501    0  0.36807263659E+01  0.20221825246E+02 -0.22759145087E+03  0.22851769838E+03  0.00000000000E+00 0.  1.
         21    1    1    2  502  501 -0.72846585487E+01 -0.63049787513E+02 -0.24516918713E+03  0.25325140133E+03  0.00000000000E+00 0.  1.
<mgrwt>
<rscale>  1 0.30000000E+03</rscale>
<asrwt>0</asrwt>
<pdfrwt beam="1">  1        1 0.19591575E-01 0.30000000E+03</pdfrwt>
<pdfrwt beam="2">0</pdfrwt>
<totfact> 0.30265777E+02</totfact>
</mgrwt>
</event>
<event>
 6    1  0.3125838E-002  0.3000000E+03  0.7818608E-02  0.1093470E+00
          1   -1    0    0  502    0  0.00000000000E+00  0.00000000000E+00  0.10560586359E+01  0.10560586359E+01  0.00000000000E+00 0.  1.
         13   -1    0    0    0    0 -0.00000000000E+00 -0.00000000000E+00 -0.10000000000E+04  0.10000000000E+04  0.00000000000E+00 0.  1.
    9000005    2    1    2  501    0  0.77711689589E+01  0.31400650315E+02 -0.51469405755E+03  0.51572695186E+03  0.42336855261E+01 0.  0.
         13    1    3    3    0    0  0.11168465638E+01  0.39444100001E+01 -0.90817955941E+02  0.90910433053E+02  0.00000000000E+00 0.  1.
          1    1    3    3  501    0  0.66543223951E+01  0.27456240315E+02 -0.42387610161E+03  0.42481651881E+03  0.00000000000E+00 0.  1.
         21    1    1    2  502  501 -0.77711689589E+01 -0.31400650315E+02 -0.48424988382E+03  0.48532910677E+03  0.00000000000E+00 0.  1.
<mgrwt>
<rscale>  1 0.30000000E+03</rscale>
<asrwt>0</asrwt>
<pdfrwt beam="1">  1        1 0.38402213E-02 0.30000000E+03</pdfrwt>
<pdfrwt beam="2">0</pdfrwt>
<totfact> 0.28837923E+03</totfact>
</mgrwt>
</event>
<event>
 6    1  0.3125838E-002  0.3000000E+03  0.7818608E-02  0.1093470E+00
          1   -1    0    0  502    0  0.00000000000E+00  0.00000000000E+00  0.47481531817E+01  0.47481531817E+01  0.00000000000E+00 0.  1.
         13   -1    0    0    0    0 -0.00000000000E+00 -0.00000000000E+00 -0.10000000000E+04  0.10000000000E+04  0.00000000000E+00 0.  1.
    9000005    2    1    2  501    0 -0.64265246147E+02 -0.15929663783E+02 -0.63577516041E+03  0.63922487879E+03  0.38229595760E+01 0.  0.
         13    1    3    3    0    0 -0.94444683795E+01 -0.15769837451E+01 -0.81603153789E+02  0.82163006085E+02  0.00000000000E+00 0.  1.
          1    1    3    3  501    0 -0.54820777767E+02 -0.14352680038E+02 -0.55417200662E+03  0.55706187270E+03  0.00000000000E+00 0.  1.
         21    1    1    2  502  501  0.64265246147E+02  0.15929663783E+02 -0.35947668641E+03  0.36552327439E+03  0.00000000000E+00 0.  1.
<mgrwt>
<rscale>  1 0.30000000E+03</rscale>
<asrwt>0</asrwt>
<pdfrwt beam="1">  1        1 0.17266048E-01 0.30000000E+03</pdfrwt>
<pdfrwt beam="2">0</pdfrwt>
<totfact> 0.35862426E+02</totfact>
</mgrwt>
</event>
<event>
 6    1  0.3125838E-002  0.3000000E+03  0.7818608E-02  0.1093470E+00
          3   -1    0    0  502    0  0.00000000000E+00  0.00000000000E+00  0.10559385091E+01  0.10559385091E+01  0.00000000000E+00 0.  1.
         13   -1    0    0    0    0 -0.00000000000E+00 -0.00000000000E+00 -0.10000000000E+04  0.10000000000E+04  0.00000000000E+00 0.  1.
    9000005    2    1    2  501    0  0.27784242785E+02 -0.16664176355E+02 -0.51098017835E+03  0.51201768830E+03  0.34222129551E+01 0.  0.
         13    1    3    3    0    0  0.18331575766E+02 -0.10468450851E+02 -0.30736985413E+03  0.30809391809E+03  0.00000000000E+00 0.  1.
          3    1    3    3  501    0  0.94526670190E+01 -0.61957255038E+01 -0.20361032422E+03  0.20392377021E+03  0.00000000000E+00 0.  1.
         21    1    1    2  502  501 -0.27784242785E+02  0.16664176355E+02 -0.48796388314E+03  0.48903825021E+03  0.00000000000E+00 0.  1.
<mgrwt>
<rscale>  1 0.30000000E+03</rscale>
<asrwt>0</asrwt>
<pdfrwt beam="1">  1        3 0.38397845E-02 0.30000000E+03</pdfrwt>
<pdfrwt beam="2">0</pdfrwt>
<totfact> 0.14857198E+03</totfact>
</mgrwt>
</event>
<event>
 6    1  0.3125838E-002  0.3000000E+03  0.7818608E-02  0.1093470E+00
          1   -1    0    0  502    0  0.00000000000E+00  0.00000000000E+00  0.36078847178E+01  0.36078847178E+01  0.00000000000E+00 0.  1.
         13   -1    0    0    0    0 -0.00000000000E+00 -0.00000000000E+00 -0.10000000000E+04  0.10000000000E+04  0.00000000000E+00 0.  1.
    9000005    2    1    2  501    0  0.96992124690E+01 -0.59206947201E+02 -0.51219443493E+03  0.51570735082E+03  0.33756772850E+01 0.  0.
         13    1    3    3    0    0  0.78446254599E+00 -0.11453636799E+02 -0.91431465533E+02  0.92149411648E+02  0.00000000000E+00 0.  1.
          3    1    3    3  501    0  0.89147499230E+01 -0.47753310402E+02 -0.42076296939E+03  0.42355793917E+03  0.00000000000E+00 0.  1.
         21    1    1    2  502  501 -0.96992124690E+01  0.59206947201E+02 -0.48419768036E+03  0.48790053390E+03  0.00000000000E+00 0.  1.
<mgrwt>
<rscale>  1 0.30000000E+03</rscale>
<asrwt>0</asrwt>
<pdfrwt beam="1">  1        1 0.13119608E-01 0.30000000E+03</pdfrwt>
<pdfrwt beam="2">0</pdfrwt>
<totfact> 0.52058364E+02</totfact>
</mgrwt>
</event>
<event>
 6    1  0.3125838E-002  0.3000000E+03  0.7818608E-02  0.1093470E+00
          3   -1    0    0  502    0  0.00000000000E+00  0.00000000000E+00  0.13016944340E+01  0.13016944340E+01  0.00000000000E+00 0.  1.
         13   -1    0    0    0    0 -0.00000000000E+00 -0.00000000000E+00 -0.10000000000E+04  0.10000000000E+04  0.00000000000E+00 0.  1.
    9000005    2    1    2  501    0 -0.18414735294E+02  0.27645265606E+02 -0.30816655898E+03  0.30997148663E+03  0.35115894432E+01 0.  0.
         13    1    3    3    0    0 -0.56650341670E+01  0.10134992138E+02 -0.12098510289E+03  0.12154096346E+03  0.00000000000E+00 0.  1.
          1    1    3    3  501    0 -0.12749701127E+02  0.17510273468E+02 -0.18718145609E+03  0.18843052316E+03  0.00000000000E+00 0.  1.
         21    1    1    2  502  501  0.18414735294E+02 -0.27645265606E+02 -0.69053174659E+03  0.69133020781E+03  0.00000000000E+00 0.  1.
<mgrwt>
<rscale>  1 0.30000000E+03</rscale>
<asrwt>0</asrwt>
<pdfrwt beam="1">  1        3 0.47334443E-02 0.30000000E+03</pdfrwt>
<pdfrwt beam="2">0</pdfrwt>
<totfact> 0.10766823E+03</totfact>
</mgrwt>
</event>
<event>
 6    1  0.4975407E-002  0.3000000E+03  0.7818608E-02  0.1093470E+00
          1   -1    0    0  502    0  0.00000000000E+00  0.00000000000E+00  0.35903874368E+01  0.35903874368E+01  0.00000000000E+00 0.  1.
         13   -1    0    0    0    0 -0.00000000000E+00 -0.00000000000E+00 -0.10000000000E+04  0.10000000000E+04  0.00000000000E+00 0.  1.
    9000005    2    1    2  501    0 -0.46379257330E+02  0.10629376429E+02 -0.80104296052E+03  0.80251292006E+03  0.96510683423E+01 0.  0.
         13    1    3    3    0    0 -0.30501482491E+02  0.23994313822E+01 -0.48430632481E+03  0.48527179391E+03  0.00000000000E+00 0.  1.
          3    1    3    3  501    0 -0.15877774839E+02  0.82299450468E+01 -0.31673663570E+03  0.31724112616E+03  0.00000000000E+00 0.  1.
         21    1    1    2  502  501  0.46379257330E+02 -0.10629376429E+02 -0.19536665205E+03  0.20107746737E+03  0.00000000000E+00 0.  1.
<mgrwt>
<rscale>  1 0.30000000E+03</rscale>
<asrwt>0</asrwt>
<pdfrwt beam="1">  1        1 0.13055982E-01 0.30000000E+03</pdfrwt>
<pdfrwt beam="2">0</pdfrwt>
<totfact> 0.52405164E+02</totfact>
</mgrwt>
</event>
<event>
 6    1  0.3125838E-002  0.3000000E+03  0.7818608E-02  0.1093470E+00
          1   -1    0    0  502    0  0.00000000000E+00  0.00000000000E+00  0.35671981981E+01  0.35671981981E+01  0.00000000000E+00 0.  1.
         13   -1    0    0    0    0 -0.00000000000E+00 -0.00000000000E+00 -0.10000000000E+04  0.10000000000E+04  0.00000000000E+00 0.  1.
    9000005    2    1    2  501    0 -0.53299531750E+02  0.19224226045E+02 -0.34337635541E+03  0.34805737132E+03  0.51187232703E+01 0.  0.
         13    1    3    3    0    0 -0.11421454925E+02  0.32889073706E+01 -0.84519140850E+02  0.85350756964E+02  0.00000000000E+00 0.  1.
          1    1    3    3  501    0 -0.41878076825E+02  0.15935318674E+02 -0.25885721456E+03  0.26270661436E+03  0.00000000000E+00 0.  1.
         21    1    1    2  502  501  0.53299531750E+02 -0.19224226045E+02 -0.65305644639E+03  0.65550982687E+03  0.00000000000E+00 0.  1.
<mgrwt>
<rscale>  1 0.30000000E+03</rscale>
<asrwt>0</asrwt>
<pdfrwt beam="1">  1        1 0.12971657E-01 0.30000000E+03</pdfrwt>
<pdfrwt beam="2">0</pdfrwt>
<totfact> 0.52871113E+02</totfact>
</mgrwt>
</event>
<event>
 6    1  0.5489769E-002  0.3000000E+03  0.7818608E-02  0.1093470E+00
          1   -1    0    0  502    0  0.00000000000E+00  0.00000000000E+00  0.20284518925E+01  0.20284518925E+01  0.00000000000E+00 0.  1.
         13   -1    0    0    0    0 -0.00000000000E+00 -0.00000000000E+00 -0.10000000000E+04  0.10000000000E+04  0.00000000000E+00 0.  1.
    9000005    2    1    2  501    0  0.42430499084E+02 -0.17022430652E+01 -0.65038130217E+03  0.65185388978E+03  0.10696285209E+02 0.  0.
         13    1    3    3    0    0  0.26427816284E+02 -0.48619289916E+01 -0.45504715096E+03  0.45583985941E+03  0.00000000000E+00 0.  1.
          1    1    3    3  501    0  0.16002682800E+02  0.31596859265E+01 -0.19533415121E+03  0.19601403037E+03  0.00000000000E+00 0.  1.
         21    1    1    2  502  501 -0.42430499084E+02  0.17022430652E+01 -0.34759024593E+03  0.35017456212E+03  0.00000000000E+00 0.  1.
<mgrwt>
<rscale>  1 0.30000000E+03</rscale>
<asrwt>0</asrwt>
<pdfrwt beam="1">  1        1 0.73762043E-02 0.30000000E+03</pdfrwt>
<pdfrwt beam="2">0</pdfrwt>
<totfact> 0.11532824E+03</totfact>
</mgrwt>
</event>
<event>
 6    1  0.3125838E-002  0.3000000E+03  0.7818608E-02  0.1093470E+00
          1   -1    0    0  502    0  0.00000000000E+00  0.00000000000E+00  0.27120856557E+01  0.27120856557E+01  0.00000000000E+00 0.  1.
         13   -1    0    0    0    0 -0.00000000000E+00 -0.00000000000E+00 -0.10000000000E+04  0.10000000000E+04  0.00000000000E+00 0.  1.
    9000005    2    1    2  501    0  0.31678943848E+02  0.25244166315E+02 -0.81345391153E+03  0.81446819065E+03  0.32162059566E+01 0.  0.
         13    1    3    3    0    0  0.54311331434E+01  0.36901303605E+01 -0.15479358839E+03  0.15493278955E+03  0.00000000000E+00 0.  1.
          1    1    3    3  501    0  0.26247810704E+02  0.21554035954E+02 -0.65866032314E+03  0.65953540111E+03  0.00000000000E+00 0.  1.
         21    1    1    2  502  501 -0.31678943848E+02 -0.25244166315E+02 -0.18383400281E+03  0.18824389500E+03  0.00000000000E+00 0.  1.
<mgrwt>
<rscale>  1 0.30000000E+03</rscale>
<asrwt>0</asrwt>
<pdfrwt beam="1">  1        1 0.98621505E-02 0.30000000E+03</pdfrwt>
<pdfrwt beam="2">0</pdfrwt>
<totfact> 0.77036264E+02</totfact>
</mgrwt>
</event>
<event>
 6    1  0.3125838E-002  0.3000000E+03  0.7818608E-02  0.1093470E+00
          1   -1    0    0  502    0  0.00000000000E+00  0.00000000000E+00  0.17591297721E+01  0.17591297721E+01  0.00000000000E+00 0.  1.
         13   -1    0    0    0    0 -0.00000000000E+00 -0.00000000000E+00 -0.10000000000E+04  0.10000000000E+04  0.00000000000E+00 0.  1.
    9000005    2    1    2  501    0  0.10622696648E+02  0.36226297342E+02 -0.71630421900E+03  0.71730621344E+03  0.33590745264E+01 0.  0.
         13    1    3    3    0    0  0.17360828808E+01  0.29539407676E+01 -0.56412713395E+02  0.56516669951E+02  0.00000000000E+00 0.  1.
          3    1    3    3  501    0  0.88866137676E+01  0.33272356575E+02 -0.65989150561E+03  0.66078954349E+03  0.00000000000E+00 0.  1.
         21    1    1    2  502  501 -0.10622696648E+02 -0.36226297342E+02 -0.28193665123E+03  0.28445291633E+03  0.00000000000E+00 0.  1.
<mgrwt>
<rscale>  1 0.30000000E+03</rscale>
<asrwt>0</asrwt>
<pdfrwt beam="1">  1        1 0.63968490E-02 0.30000000E+03</pdfrwt>
<pdfrwt beam="2">0</pdfrwt>
<totfact> 0.14076049E+03</totfact>
</mgrwt>
</event>
<event>
 6    1  0.3125838E-002  0.3000000E+03  0.7818608E-02  0.1093470E+00
          3   -1    0    0  502    0  0.00000000000E+00  0.00000000000E+00  0.31845063339E+01  0.31845063339E+01  0.00000000000E+00 0.  1.
         13   -1    0    0    0    0 -0.00000000000E+00 -0.00000000000E+00 -0.10000000000E+04  0.10000000000E+04  0.00000000000E+00 0.  1.
    9000005    2    1    2  501    0  0.32383607547E+02  0.14314434877E+02 -0.88888610533E+03  0.88959597721E+03  0.29821673743E+01 0.  0.
         13    1    3    3    0    0  0.33561876201E+01  0.22680174273E+01 -0.11800905504E+03  0.11807855424E+03  0.00000000000E+00 0.  1.
          1    1    3    3  501    0  0.29027419927E+02  0.12046417450E+02 -0.77087705029E+03  0.77151742297E+03  0.00000000000E+00 0.  1.
         21    1    1    2  502  501 -0.32383607547E+02 -0.14314434877E+02 -0.10792938833E+03  0.11358852913E+03  0.00000000000E+00 0.  1.
<mgrwt>
<rscale>  1 0.30000000E+03</rscale>
<asrwt>0</asrwt>
<pdfrwt beam="1">  1        3 0.11580047E-01 0.30000000E+03</pdfrwt>
<pdfrwt beam="2">0</pdfrwt>
<totfact> 0.25867039E+02</totfact>
</mgrwt>
</event>
<event>
 6    1  0.3125838E-002  0.3000000E+03  0.7818608E-02  0.1093470E+00
          1   -1    0    0  502    0  0.00000000000E+00  0.00000000000E+00  0.14522520092E+02  0.14522520092E+02  0.00000000000E+00 0.  1.
         13   -1    0    0    0    0 -0.00000000000E+00 -0.00000000000E+00 -0.10000000000E+04  0.10000000000E+04  0.00000000000E+00 0.  1.
    9000005    2    1    2  501    0  0.45267060360E+02 -0.10792553346E+03 -0.37231797732E+03  0.39029371337E+03  0.33880574354E+01 0.  0.
         13    1    3    3    0    0  0.31517655361E+02 -0.71208336538E+02 -0.24926156704E+03  0.26114233398E+03  0.00000000000E+00 0.  1.
          3    1    3    3  501    0  0.13749404999E+02 -0.36717196927E+02 -0.12305641027E+03  0.12915137939E+03  0.00000000000E+00 0.  1.
         21    1    1    2  502  501 -0.45267060360E+02  0.10792553346E+03 -0.61315950259E+03  0.62422880672E+03  0.00000000000E+00 0.  1.
<mgrwt>
<rscale>  1 0.30000000E+03</rscale>
<asrwt>0</asrwt>
<pdfrwt beam="1">  1        1 0.52809275E-01 0.30000000E+03</pdfrwt>
<pdfrwt beam="2">0</pdfrwt>
<totfact> 0.82120838E+01</totfact>
</mgrwt>
</event>
<event>
 6    1  0.3125838E-002  0.3000000E+03  0.7818608E-02  0.1093470E+00
          3   -1    0    0  502    0  0.00000000000E+00  0.00000000000E+00  0.11781997263E+01  0.11781997263E+01  0.00000000000E+00 0.  1.
         13   -1    0    0    0    0 -0.00000000000E+00 -0.00000000000E+00 -0.10000000000E+04  0.10000000000E+04  0.00000000000E+00 0.  1.
    9000005    2    1    2  501    0  0.26496643869E+02  0.19786828136E+02 -0.62998799153E+03  0.63086486054E+03  0.34658466867E+01 0.  0.
         13    1    3    3    0    0  0.20364707969E+02  0.15804516104E+02 -0.46329979363E+03  0.46401638207E+03  0.00000000000E+00 0.  1.
          3    1    3    3  501    0  0.61319358997E+01  0.39823120321E+01 -0.16668819790E+03  0.16684847847E+03  0.00000000000E+00 0.  1.
         21    1    1    2  502  501 -0.26496643869E+02 -0.19786828136E+02 -0.36883380875E+03  0.37031333919E+03  0.00000000000E+00 0.  1.
<mgrwt>
<rscale>  1 0.30000000E+03</rscale>
<asrwt>0</asrwt>
<pdfrwt beam="1">  1        3 0.42843717E-02 0.30000000E+03</pdfrwt>
<pdfrwt beam="2">0</pdfrwt>
<totfact> 0.12555311E+03</totfact>
</mgrwt>
</event>
<event>
 6    1  0.3125838E-002  0.3000000E+03  0.7818608E-02  0.1093470E+00
          1   -1    0    0  502    0  0.00000000000E+00  0.00000000000E+00  0.34703199286E+01  0.34703199286E+01  0.00000000000E+00 0.  1.
         13   -1    0    0    0    0 -0.00000000000E+00 -0.00000000000E+00 -0.10000000000E+04  0.10000000000E+04  0.00000000000E+00 0.  1.
    9000005    2    1    2  501    0  0.32368718216E+00  0.53946883413E+02 -0.69929246988E+03  0.70137707253E+03  0.30770817435E+01 0.  0.
         13    1    3    3    0    0  0.38325918649E+00  0.40216971488E+02 -0.53807944131E+03  0.53958042667E+03  0.00000000000E+00 0.  1.
          3    1    3    3  501    0 -0.59572004332E-01  0.13729911925E+02 -0.16121302857E+03  0.16179664586E+03  0.00000000000E+00 0.  1.
         21    1    1    2  502  501 -0.32368718216E+00 -0.53946883413E+02 -0.29723721019E+03  0.30209324740E+03  0.00000000000E+00 0.  1.
<mgrwt>
<rscale>  1 0.30000000E+03</rscale>
<asrwt>0</asrwt>
<pdfrwt beam="1">  1        1 0.12619372E-01 0.30000000E+03</pdfrwt>
<pdfrwt beam="2">0</pdfrwt>
<totfact> 0.54899398E+02</totfact>
</mgrwt>
</event>
<event>
 6    1  0.3125838E-002  0.3000000E+03  0.7818608E-02  0.1093470E+00
          3   -1    0    0  502    0  0.00000000000E+00  0.00000000000E+00  0.70599449533E+01  0.70599449533E+01  0.00000000000E+00 0.  1.
         13   -1    0    0    0    0 -0.00000000000E+00 -0.00000000000E+00 -0.10000000000E+04  0.10000000000E+04  0.00000000000E+00 0.  1.
    9000005    2    1    2  501    0  0.40571596699E+02 -0.90123531013E+01 -0.93405225843E+03  0.93498325276E+03  0.35755414374E+01 0.  0.
         13    1    3    3    0    0  0.16555063178E+02 -0.38019575121E+01 -0.34306111563E+03  0.34348137367E+03  0.00000000000E+00 0.  1.
          1    1    3    3  501    0  0.24016533521E+02 -0.52103955892E+01 -0.59099114280E+03  0.59150187909E+03  0.00000000000E+00 0.  1.
         21    1    1    2  502  501 -0.40571596699E+02  0.90123531013E+01 -0.58887796616E+02  0.72076692192E+02  0.00000000000E+00 0.  1.
<mgrwt>
<rscale>  1 0.30000000E+03</rscale>
<asrwt>0</asrwt>
<pdfrwt beam="1">  1        3 0.25672581E-01 0.30000000E+03</pdfrwt>
<pdfrwt beam="2">0</pdfrwt>
<totfact> 0.62787739E+01</totfact>
</mgrwt>
</event>
<event>
 6    1  0.3125838E-002  0.3000000E+03  0.7818608E-02  0.1093470E+00
          3   -1    0    0  502    0  0.00000000000E+00  0.00000000000E+00  0.64522747800E+01  0.64522747800E+01  0.00000000000E+00 0.  1.
         13   -1    0    0    0    0 -0.00000000000E+00 -0.00000000000E+00 -0.10000000000E+04  0.10000000000E+04  0.00000000000E+00 0.  1.
    9000005    2    1    2  501    0  0.12761988796E+01  0.40419479466E+02 -0.93154488051E+03  0.93242717258E+03  0.30339337796E+01 0.  0.
         13    1    3    3    0    0  0.61319993791E+00  0.89840584695E+01 -0.23678836314E+03  0.23695952870E+03  0.00000000000E+00 0.  1.
          3    1    3    3  501    0  0.66299894170E+00  0.31435420996E+02 -0.69475651736E+03  0.69546764388E+03  0.00000000000E+00 0.  1.
         21    1    1    2  502  501 -0.12761988796E+01 -0.40419479466E+02 -0.62002844711E+02  0.74025102202E+02  0.00000000000E+00 0.  1.
<mgrwt>
<rscale>  1 0.30000000E+03</rscale>
<asrwt>0</asrwt>
<pdfrwt beam="1">  1        3 0.23462867E-01 0.30000000E+03</pdfrwt>
<pdfrwt beam="2">0</pdfrwt>
<totfact> 0.74376602E+01</totfact>
</mgrwt>
</event>
<event>
 6    1  0.3125838E-002  0.3000000E+03  0.7818608E-02  0.1093470E+00
          1   -1    0    0  502    0  0.00000000000E+00  0.00000000000E+00  0.14993579256E+01  0.14993579256E+01  0.00000000000E+00 0.  1.
         13   -1    0    0    0    0 -0.00000000000E+00 -0.00000000000E+00 -0.10000000000E+04  0.10000000000E+04  0.00000000000E+00 0.  1.
    9000005    2    1    2  501    0 -0.31585184596E+02 -0.15020471845E+02 -0.28762167078E+03  0.28976053624E+03  0.34211696365E+01 0.  0.
         13    1    3    3    0    0 -0.30796962617E+02 -0.15061875303E+02 -0.28336369734E+03  0.28543002288E+03  0.00000000000E+00 0.  1.
          3    1    3    3  501    0 -0.78822197857E+00  0.41403458087E-01 -0.42579734433E+01  0.43305133619E+01  0.00000000000E+00 0.  1.
         21    1    1    2  502  501  0.31585184596E+02  0.15020471845E+02 -0.71087897130E+03  0.71173882168E+03  0.00000000000E+00 0.  1.
<mgrwt>
<rscale>  1 0.30000000E+03</rscale>
<asrwt>0</asrwt>
<pdfrwt beam="1">  1        1 0.54522221E-02 0.30000000E+03</pdfrwt>
<pdfrwt beam="2">0</pdfrwt>
<totfact> 0.17613270E+03</totfact>
</mgrwt>
</event>
<event>
 6    1  0.3125838E-002  0.3000000E+03  0.7818608E-02  0.1093470E+00
          1   -1    0    0  502    0  0.00000000000E+00  0.00000000000E+00  0.52450859570E+01  0.52450859570E+01  0.00000000000E+00 0.  1.
         13   -1    0    0    0    0 -0.00000000000E+00 -0.00000000000E+00 -0.10000000000E+04  0.10000000000E+04  0.00000000000E+00 0.  1.
    9000005    2    1    2  501    0  0.32502061872E+02  0.28969679617E+02 -0.89897282752E+03  0.90003180513E+03  0.30788421772E+01 0.  0.
         13    1    3    3    0    0  0.25639055535E+02  0.21676011785E+02 -0.67214210006E+03  0.67298009877E+03  0.00000000000E+00 0.  1.
          1    1    3    3  501    0  0.68630063364E+01  0.72936678318E+01 -0.22683072745E+03  0.22705170636E+03  0.00000000000E+00 0.  1.
         21    1    1    2  502  501 -0.32502061872E+02 -0.28969679617E+02 -0.95782086525E+02  0.10521328083E+03  0.00000000000E+00 0.  1.
<mgrwt>
<rscale>  1 0.30000000E+03</rscale>
<asrwt>0</asrwt>
<pdfrwt beam="1">  1        1 0.19073080E-01 0.30000000E+03</pdfrwt>
<pdfrwt beam="2">0</pdfrwt>
<totfact> 0.31372923E+02</totfact>
</mgrwt>
</event>
<event>
 6    1  0.3125838E-002  0.3000000E+03  0.7818608E-02  0.1093470E+00
          1   -1    0    0  502    0  0.00000000000E+00  0.00000000000E+00  0.25175831332E+01  0.25175831332E+01  0.00000000000E+00 0.  1.
         13   -1    0    0    0    0 -0.00000000000E+00 -0.00000000000E+00 -0.10000000000E+04  0.10000000000E+04  0.00000000000E+00 0.  1.
    9000005    2    1    2  501    0 -0.32360568985E+02 -0.55467012516E+01 -0.87754356984E+03  0.87816606788E+03  0.38669738865E+01 0.  0.
         13    1    3    3    0    0 -0.13470235094E+02 -0.89025973648E+00 -0.32573268732E+03  0.32601230557E+03  0.00000000000E+00 0.  1.
          3    1    3    3  501    0 -0.18890333892E+02 -0.46564415151E+01 -0.55181088252E+03  0.55215376230E+03  0.00000000000E+00 0.  1.
         21    1    1    2  502  501  0.32360568985E+02  0.55467012516E+01 -0.11993884703E+03  0.12435151525E+03  0.00000000000E+00 0.  1.
<mgrwt>
<rscale>  1 0.30000000E+03</rscale>
<asrwt>0</asrwt>
<pdfrwt beam="1">  1        1 0.91548671E-02 0.30000000E+03</pdfrwt>
<pdfrwt beam="2">0</pdfrwt>
<totfact> 0.85393763E+02</totfact>
</mgrwt>
</event>
<event>
 6    1  0.3125838E-002  0.3000000E+03  0.7818608E-02  0.1093470E+00
          1   -1    0    0  502    0  0.00000000000E+00  0.00000000000E+00  0.15222770074E+01  0.15222770074E+01  0.00000000000E+00 0.  1.
         13   -1    0    0    0    0 -0.00000000000E+00 -0.00000000000E+00 -0.10000000000E+04  0.10000000000E+04  0.00000000000E+00 0.  1.
    9000005    2    1    2  501    0  0.23858074289E+02 -0.30584958227E+02 -0.46263083553E+03  0.46427323402E+03  0.42069553649E+01 0.  0.
         13    1    3    3    0    0  0.39062333004E+01 -0.50584781370E+01 -0.96681504133E+02  0.96892518292E+02  0.00000000000E+00 0.  1.
          3    1    3    3  501    0  0.19951840988E+02 -0.25526480090E+02 -0.36594933139E+03  0.36738071573E+03  0.00000000000E+00 0.  1.
         21    1    1    2  502  501 -0.23858074289E+02  0.30584958227E+02 -0.53584688747E+03  0.53724904298E+03  0.00000000000E+00 0.  1.
<mgrwt>
<rscale>  1 0.30000000E+03</rscale>
<asrwt>0</asrwt>
<pdfrwt beam="1">  1        1 0.55355644E-02 0.30000000E+03</pdfrwt>
<pdfrwt beam="2">0</pdfrwt>
<totfact> 0.17242033E+03</totfact>
</mgrwt>
</event>
<event>
 6    1  0.3125838E-002  0.3000000E+03  0.7818608E-02  0.1093470E+00
          1   -1    0    0  502    0  0.00000000000E+00  0.00000000000E+00  0.13887972827E+02  0.13887972827E+02  0.00000000000E+00 0.  1.
         13   -1    0    0    0    0 -0.00000000000E+00 -0.00000000000E+00 -0.10000000000E+04  0.10000000000E+04  0.00000000000E+00 0.  1.
    9000005    2    1    2  501    0 -0.57659081337E+02  0.10161444000E+03 -0.42759003900E+03  0.44327700610E+03  0.33464317539E+01 0.  0.
         13    1    3    3    0    0 -0.23354193913E+02  0.44113992517E+02 -0.18559219832E+03  0.19218721806E+03  0.00000000000E+00 0.  1.
          3    1    3    3  501    0 -0.34304887425E+02  0.57500447488E+02 -0.24199784068E+03  0.25108978804E+03  0.00000000000E+00 0.  1.
         21    1    1    2  502  501  0.57659081337E+02 -0.10161444000E+03 -0.55852198817E+03  0.57061096672E+03  0.00000000000E+00 0.  1.
<mgrwt>
<rscale>  1 0.30000000E+03</rscale>
<asrwt>0</asrwt>
<pdfrwt beam="1">  1        1 0.50501826E-01 0.30000000E+03</pdfrwt>
<pdfrwt beam="2">0</pdfrwt>
<totfact> 0.87099041E+01</totfact>
</mgrwt>
</event>
<event>
 6    1  0.3125838E-002  0.3000000E+03  0.7818608E-02  0.1093470E+00
          3   -1    0    0  502    0  0.00000000000E+00  0.00000000000E+00  0.29568607897E+01  0.29568607897E+01  0.00000000000E+00 0.  1.
         13   -1    0    0    0    0 -0.00000000000E+00 -0.00000000000E+00 -0.10000000000E+04  0.10000000000E+04  0.00000000000E+00 0.  1.
    9000005    2    1    2  501    0  0.53244429011E+02  0.10246467894E+02 -0.52874445756E+03  0.53152965055E+03  0.36205913273E+01 0.  0.
         13    1    3    3    0    0  0.38688847848E+02  0.83029255062E+01 -0.37183038308E+03  0.37392993903E+03  0.00000000000E+00 0.  1.
          1    1    3    3  501    0  0.14555581163E+02  0.19435423876E+01 -0.15691407448E+03  0.15759971152E+03  0.00000000000E+00 0.  1.
         21    1    1    2  502  501 -0.53244429011E+02 -0.10246467894E+02 -0.46829868165E+03  0.47142721024E+03  0.00000000000E+00 0.  1.
<mgrwt>
<rscale>  1 0.30000000E+03</rscale>
<asrwt>0</asrwt>
<pdfrwt beam="1">  1        3 0.10752244E-01 0.30000000E+03</pdfrwt>
<pdfrwt beam="2">0</pdfrwt>
<totfact> 0.29285201E+02</totfact>
</mgrwt>
</event>
<event>
 6    1  0.3125838E-002  0.3000000E+03  0.7818608E-02  0.1093470E+00
          3   -1    0    0  502    0  0.00000000000E+00  0.00000000000E+00  0.17907315767E+01  0.17907315767E+01  0.00000000000E+00 0.  1.
         13   -1    0    0    0    0 -0.00000000000E+00 -0.00000000000E+00 -0.10000000000E+04  0.10000000000E+04  0.00000000000E+00 0.  1.
    9000005    2    1    2  501    0  0.32062573584E+02 -0.41851165073E+01 -0.82183745342E+03  0.82247943536E+03  0.31777214808E+01 0.  0.
         13    1    3    3    0    0  0.18303835837E+02 -0.21461060049E+01 -0.42846018990E+03  0.42885635183E+03  0.00000000000E+00 0.  1.
          3    1    3    3  501    0  0.13758737747E+02 -0.20390105024E+01 -0.39337726352E+03  0.39362308353E+03  0.00000000000E+00 0.  1.
         21    1    1    2  502  501 -0.32062573584E+02  0.41851165073E+01 -0.17637181500E+03  0.17931129622E+03  0.00000000000E+00 0.  1.
<mgrwt>
<rscale>  1 0.30000000E+03</rscale>
<asrwt>0</asrwt>
<pdfrwt beam="1">  1        3 0.65117649E-02 0.30000000E+03</pdfrwt>
<pdfrwt beam="2">0</pdfrwt>
<totfact> 0.65618064E+02</totfact>
</mgrwt>
</event>
<event>
 6    1  0.3125838E-002  0.3000000E+03  0.7818608E-02  0.1093470E+00
          3   -1    0    0  502    0  0.00000000000E+00  0.00000000000E+00  0.12577345130E+02  0.12577345130E+02  0.00000000000E+00 0.  1.
         13   -1    0    0    0    0 -0.00000000000E+00 -0.00000000000E+00 -0.10000000000E+04  0.10000000000E+04  0.00000000000E+00 0.  1.
    9000005    2    1    2  501    0 -0.19886737845E+02 -0.58237898194E+02 -0.91694748172E+03  0.91901514572E+03  0.30031150206E+01 0.  0.
         13    1    3    3    0    0 -0.75922880640E+01 -0.18096600233E+02 -0.29827114023E+03  0.29891604653E+03  0.00000000000E+00 0.  1.
          3    1    3    3  501    0 -0.12294449781E+02 -0.40141297961E+02 -0.61867634149E+03  0.62009909919E+03  0.00000000000E+00 0.  1.
         21    1    1    2  502  501  0.19886737845E+02  0.58237898194E+02 -0.70475173148E+02  0.93562199410E+02  0.00000000000E+00 0.  1.
<mgrwt>
<rscale>  1 0.30000000E+03</rscale>
<asrwt>0</asrwt>
<pdfrwt beam="1">  1        3 0.45735897E-01 0.30000000E+03</pdfrwt>
<pdfrwt beam="2">0</pdfrwt>
<totfact> 0.20760767E+01</totfact>
</mgrwt>
</event>
<event>
 6    1  0.3125838E-002  0.3000000E+03  0.7818608E-02  0.1093470E+00
          1   -1    0    0  502    0  0.00000000000E+00  0.00000000000E+00  0.14469094452E+01  0.14469094452E+01  0.00000000000E+00 0.  1.
         13   -1    0    0    0    0 -0.00000000000E+00 -0.00000000000E+00 -0.10000000000E+04  0.10000000000E+04  0.00000000000E+00 0.  1.
    9000005    2    1    2  501    0  0.15349842314E+01  0.37862098313E+02 -0.53128583107E+03  0.53264568669E+03  0.33013019202E+01 0.  0.
         13    1    3    3    0    0  0.20242262257E+01  0.36352032993E+02 -0.50358771236E+03  0.50490212104E+03  0.00000000000E+00 0.  1.
          1    1    3    3  501    0 -0.48924199429E+00  0.15100653195E+01 -0.27698118704E+02  0.27743565646E+02  0.00000000000E+00 0.  1.
         21    1    1    2  502  501 -0.15349842314E+01 -0.37862098313E+02 -0.46726725949E+03  0.46880122275E+03  0.00000000000E+00 0.  1.
<mgrwt>
<rscale>  1 0.30000000E+03</rscale>
<asrwt>0</asrwt>
<pdfrwt beam="1">  1        1 0.52615000E-02 0.30000000E+03</pdfrwt>
<pdfrwt beam="2">0</pdfrwt>
<totfact> 0.18516544E+03</totfact>
</mgrwt>
</event>
<event>
 6    1  0.3125838E-002  0.3000000E+03  0.7818608E-02  0.1093470E+00
          1   -1    0    0  502    0  0.00000000000E+00  0.00000000000E+00  0.48086121119E+01  0.48086121119E+01  0.00000000000E+00 0.  1.
         13   -1    0    0    0    0 -0.00000000000E+00 -0.00000000000E+00 -0.10000000000E+04  0.10000000000E+04  0.00000000000E+00 0.  1.
    9000005    2    1    2  501    0  0.35123782366E+02  0.30767434672E+02 -0.86892378055E+03  0.87018386035E+03  0.33315588975E+01 0.  0.
         13    1    3    3    0    0  0.16476921849E+02  0.16104964482E+02 -0.40784638297E+03  0.40849667188E+03  0.00000000000E+00 0.  1.
          1    1    3    3  501    0  0.18646860517E+02  0.14662470190E+02 -0.46107739757E+03  0.46168718847E+03  0.00000000000E+00 0.  1.
         21    1    1    2  502  501 -0.35123782366E+02 -0.30767434672E+02 -0.12626760734E+03  0.13462475176E+03  0.00000000000E+00 0.  1.
<mgrwt>
<rscale>  1 0.30000000E+03</rscale>
<asrwt>0</asrwt>
<pdfrwt beam="1">  1        1 0.17485899E-01 0.30000000E+03</pdfrwt>
<pdfrwt beam="2">0</pdfrwt>
<totfact> 0.35256488E+02</totfact>
</mgrwt>
</event>
<event>
 6    1  0.3125838E-002  0.3000000E+03  0.7818608E-02  0.1093470E+00
          1   -1    0    0  502    0  0.00000000000E+00  0.00000000000E+00  0.46557915488E+02  0.46557915488E+02  0.00000000000E+00 0.  1.
         13   -1    0    0    0    0 -0.00000000000E+00 -0.00000000000E+00 -0.10000000000E+04  0.10000000000E+04  0.00000000000E+00 0.  1.
    9000005    2    1    2  501    0  0.32403751603E+02  0.47222994221E+02 -0.98122459298E+03  0.98290351990E+03  0.41968163211E+01 0.  0.
         13    1    3    3    0    0  0.25062881395E+02  0.38774347468E+02 -0.77079519087E+03  0.77217667947E+03  0.00000000000E+00 0.  1.
          1    1    3    3  501    0  0.73408702076E+01  0.84486467529E+01 -0.21042940210E+03  0.21072684043E+03  0.00000000000E+00 0.  1.
         21    1    1    2  502  501 -0.32403751603E+02 -0.47222994221E+02  0.27782508465E+02  0.63654395589E+02  0.00000000000E+00 0.  1.
<mgrwt>
<rscale>  1 0.30000000E+03</rscale>
<asrwt>0</asrwt>
<pdfrwt beam="1">  1        1 0.16930187E+00 0.30000000E+03</pdfrwt>
<pdfrwt beam="2">0</pdfrwt>
<totfact> 0.14399940E+01</totfact>
</mgrwt>
</event>
<event>
 6    1  0.3125838E-002  0.3000000E+03  0.7818608E-02  0.1093470E+00
          1   -1    0    0  502    0  0.00000000000E+00  0.00000000000E+00  0.48150022076E+01  0.48150022076E+01  0.00000000000E+00 0.  1.
         13   -1    0    0    0    0 -0.00000000000E+00 -0.00000000000E+00 -0.10000000000E+04  0.10000000000E+04  0.00000000000E+00 0.  1.
    9000005    2    1    2  501    0 -0.33275692374E+02 -0.60558889404E+02 -0.54042283090E+03  0.54483317732E+03  0.34211348443E+01 0.  0.
         13    1    3    3    0    0 -0.23072538066E+02 -0.42611457758E+02 -0.36660206941E+03  0.36979069166E+03  0.00000000000E+00 0.  1.
          1    1    3    3  501    0 -0.10203154308E+02 -0.17947431646E+02 -0.17382076149E+03  0.17504248566E+03  0.00000000000E+00 0.  1.
         21    1    1    2  502  501  0.33275692374E+02  0.60558889404E+02 -0.45476216689E+03  0.45998182489E+03  0.00000000000E+00 0.  1.
<mgrwt>
<rscale>  1 0.30000000E+03</rscale>
<asrwt>0</asrwt>
<pdfrwt beam="1">  1        1 0.17509136E-01 0.30000000E+03</pdfrwt>
<pdfrwt beam="2">0</pdfrwt>
<totfact> 0.35193512E+02</totfact>
</mgrwt>
</event>
<event>
 6    1  0.3125838E-002  0.3000000E+03  0.7818608E-02  0.1093470E+00
          1   -1    0    0  502    0  0.00000000000E+00  0.00000000000E+00  0.10205521794E+01  0.10205521794E+01  0.00000000000E+00 0.  1.
         13   -1    0    0    0    0 -0.00000000000E+00 -0.00000000000E+00 -0.10000000000E+04  0.10000000000E+04  0.00000000000E+00 0.  1.
    9000005    2    1    2  501    0 -0.86318715148E+01  0.28744554074E+02 -0.66790633685E+03  0.66858986256E+03  0.35736417537E+01 0.  0.
         13    1    3    3    0    0 -0.20906700704E+01  0.41776539940E+01 -0.83120266266E+02  0.83251440578E+02  0.00000000000E+00 0.  1.
          1    1    3    3  501    0 -0.65412014444E+01  0.24566900080E+02 -0.58478607059E+03  0.58533842198E+03  0.00000000000E+00 0.  1.
         21    1    1    2  502  501  0.86318715148E+01 -0.28744554074E+02 -0.33107311097E+03  0.33243068962E+03  0.00000000000E+00 0.  1.
<mgrwt>
<rscale>  1 0.30000000E+03</rscale>
<asrwt>0</asrwt>
<pdfrwt beam="1">  1        1 0.37111067E-02 0.30000000E+03</pdfrwt>
<pdfrwt beam="2">0</pdfrwt>
<totfact> 0.30260021E+03</totfact>
</mgrwt>
</event>
<event>
 6    1  0.3125838E-002  0.3000000E+03  0.7818608E-02  0.1093470E+00
          1   -1    0    0  502    0  0.00000000000E+00  0.00000000000E+00  0.21149157608E+01  0.21149157608E+01  0.00000000000E+00 0.  1.
         13   -1    0    0    0    0 -0.00000000000E+00 -0.00000000000E+00 -0.10000000000E+04  0.10000000000E+04  0.00000000000E+00 0.  1.
    9000005    2    1    2  501    0  0.22687941318E+02 -0.39871506186E+02 -0.47536245446E+03  0.47758238262E+03  0.33150258719E+01 0.  0.
         13    1    3    3    0    0  0.10680913250E+02 -0.15489058872E+02 -0.19601060816E+03  0.19691153182E+03  0.00000000000E+00 0.  1.
          1    1    3    3  501    0  0.12007028068E+02 -0.24382447314E+02 -0.27935184630E+03  0.28067085080E+03  0.00000000000E+00 0.  1.
         21    1    1    2  502  501 -0.22687941318E+02  0.39871506186E+02 -0.52252262978E+03  0.52453253314E+03  0.00000000000E+00 0.  1.
<mgrwt>
<rscale>  1 0.30000000E+03</rscale>
<asrwt>0</asrwt>
<pdfrwt beam="1">  1        1 0.76906190E-02 0.30000000E+03</pdfrwt>
<pdfrwt beam="2">0</pdfrwt>
<totfact> 0.10880208E+03</totfact>
</mgrwt>
</event>
<event>
 6    1  0.3125838E-002  0.3000000E+03  0.7818608E-02  0.1093470E+00
          1   -1    0    0  502    0  0.00000000000E+00  0.00000000000E+00  0.13485444196E+01  0.13485444196E+01  0.00000000000E+00 0.  1.
         13   -1    0    0    0    0 -0.00000000000E+00 -0.00000000000E+00 -0.10000000000E+04  0.10000000000E+04  0.00000000000E+00 0.  1.
    9000005    2    1    2  501    0 -0.10943215382E+02  0.32412918018E+02 -0.67963652722E+03  0.68050453913E+03  0.32042814189E+01 0.  0.
         13    1    3    3    0    0 -0.26712935302E+01  0.63290057447E+01 -0.11447564121E+03  0.11468157897E+03  0.00000000000E+00 0.  1.
          3    1    3    3  501    0 -0.82719218519E+01  0.26083912273E+02 -0.56516088601E+03  0.56582296016E+03  0.00000000000E+00 0.  1.
         21    1    1    2  502  501  0.10943215382E+02 -0.32412918018E+02 -0.31901492836E+03  0.32084400529E+03  0.00000000000E+00 0.  1.
<mgrwt>
<rscale>  1 0.30000000E+03</rscale>
<asrwt>0</asrwt>
<pdfrwt beam="1">  1        1 0.49038082E-02 0.30000000E+03</pdfrwt>
<pdfrwt beam="2">0</pdfrwt>
<totfact> 0.20442272E+03</totfact>
</mgrwt>
</event>
<event>
 6    1  0.3125838E-002  0.3000000E+03  0.7818608E-02  0.1093470E+00
          1   -1    0    0  502    0  0.00000000000E+00  0.00000000000E+00  0.17273276221E+01  0.17273276221E+01  0.00000000000E+00 0.  1.
         13   -1    0    0    0    0 -0.00000000000E+00 -0.00000000000E+00 -0.10000000000E+04  0.10000000000E+04  0.00000000000E+00 0.  1.
    9000005    2    1    2  501    0 -0.11101347589E+02  0.28604831749E+02 -0.83591991473E+03  0.83650053127E+03  0.54367868225E+01 0.  0.
         13    1    3    3    0    0 -0.92439909909E+01  0.25310670102E+02 -0.77084983655E+03  0.77132065440E+03  0.00000000000E+00 0.  1.
          1    1    3    3  501    0 -0.18573565983E+01  0.32941616467E+01 -0.65070078184E+02  0.65179876874E+02  0.00000000000E+00 0.  1.
         21    1    1    2  502  501  0.11101347589E+02 -0.28604831749E+02 -0.16235275764E+03  0.16522679635E+03  0.00000000000E+00 0.  1.
<mgrwt>
<rscale>  1 0.30000000E+03</rscale>
<asrwt>0</asrwt>
<pdfrwt beam="1">  1        1 0.62812046E-02 0.30000000E+03</pdfrwt>
<pdfrwt beam="2">0</pdfrwt>
<totfact> 0.14440561E+03</totfact>
</mgrwt>
</event>
<event>
 6    1  0.3125838E-002  0.3000000E+03  0.7818608E-02  0.1093470E+00
          3   -1    0    0  502    0  0.00000000000E+00  0.00000000000E+00  0.22010008146E+01  0.22010008146E+01  0.00000000000E+00 0.  1.
         13   -1    0    0    0    0 -0.00000000000E+00 -0.00000000000E+00 -0.10000000000E+04  0.10000000000E+04  0.00000000000E+00 0.  1.
    9000005    2    1    2  501    0  0.10867668879E+00  0.46736975750E+02 -0.46235998302E+03  0.46472607420E+03  0.30353624587E+01 0.  0.
         13    1    3    3    0    0  0.15374196388E+01  0.29088550530E+02 -0.28682616265E+03  0.28830150019E+03  0.00000000000E+00 0.  1.
          3    1    3    3  501    0 -0.14287429500E+01  0.17648425220E+02 -0.17553382037E+03  0.17642457400E+03  0.00000000000E+00 0.  1.
         21    1    1    2  502  501 -0.10867668879E+00 -0.46736975750E+02 -0.53543901616E+03  0.53747492662E+03  0.00000000000E+00 0.  1.
<mgrwt>
<rscale>  1 0.30000000E+03</rscale>
<asrwt>0</asrwt>
<pdfrwt beam="1">  1        3 0.80036562E-02 0.30000000E+03</pdfrwt>
<pdfrwt beam="2">0</pdfrwt>
<totfact> 0.47356656E+02</totfact>
</mgrwt>
</event>
<event>
 6    1  0.3125838E-002  0.3000000E+03  0.7818608E-02  0.1093470E+00
          1   -1    0    0  502    0  0.00000000000E+00  0.00000000000E+00  0.15092102903E+01  0.15092102903E+01  0.00000000000E+00 0.  1.
         13   -1    0    0    0    0 -0.00000000000E+00 -0.00000000000E+00 -0.10000000000E+04  0.10000000000E+04  0.00000000000E+00 0.  1.
    9000005    2    1    2  501    0  0.19498181582E+02  0.33098431551E+02 -0.56796499400E+03  0.56927299474E+03  0.34384418131E+01 0.  0.
         13    1    3    3    0    0  0.11038910113E+02  0.21120029815E+02 -0.33434604902E+03  0.33519426262E+03  0.00000000000E+00 0.  1.
          1    1    3    3  501    0  0.84592714692E+01  0.11978401737E+02 -0.23361894498E+03  0.23407873213E+03  0.00000000000E+00 0.  1.
         21    1    1    2  502  501 -0.19498181582E+02 -0.33098431551E+02 -0.43052579571E+03  0.43223621555E+03  0.00000000000E+00 0.  1.
<mgrwt>
<rscale>  1 0.30000000E+03</rscale>
<asrwt>0</asrwt>
<pdfrwt beam="1">  1        1 0.54880490E-02 0.30000000E+03</pdfrwt>
<pdfrwt beam="2">0</pdfrwt>
<totfact> 0.17452017E+03</totfact>
</mgrwt>
</event>
<event>
 6    1  0.3125838E-002  0.3000000E+03  0.7818608E-02  0.1093470E+00
          1   -1    0    0  502    0  0.00000000000E+00  0.00000000000E+00  0.17187898661E+01  0.17187898661E+01  0.00000000000E+00 0.  1.
         13   -1    0    0    0    0 -0.00000000000E+00 -0.00000000000E+00 -0.10000000000E+04  0.10000000000E+04  0.00000000000E+00 0.  1.
    9000005    2    1    2  501    0 -0.30928934143E+02  0.57521170446E+01 -0.82493421980E+03  0.82554028699E+03  0.32577030344E+01 0.  0.
         13    1    3    3    0    0 -0.24075800107E+02  0.43087137094E+01 -0.60372209016E+03  0.60421732126E+03  0.00000000000E+00 0.  1.
          3    1    3    3  501    0 -0.68531340359E+01  0.14434033352E+01 -0.22121212964E+03  0.22132296573E+03  0.00000000000E+00 0.  1.
         21    1    1    2  502  501  0.30928934143E+02 -0.57521170446E+01 -0.17334699033E+03  0.17617850287E+03  0.00000000000E+00 0.  1.
<mgrwt>
<rscale>  1 0.30000000E+03</rscale>
<asrwt>0</asrwt>
<pdfrwt beam="1">  1        1 0.62501581E-02 0.30000000E+03</pdfrwt>
<pdfrwt beam="2">0</pdfrwt>
<totfact> 0.14541206E+03</totfact>
</mgrwt>
</event>
<event>
 6    1  0.3125838E-002  0.3000000E+03  0.7818608E-02  0.1093470E+00
          1   -1    0    0  502    0  0.00000000000E+00  0.00000000000E+00  0.12832704484E+01  0.12832704484E+01  0.00000000000E+00 0.  1.
         13   -1    0    0    0    0 -0.00000000000E+00 -0.00000000000E+00 -0.10000000000E+04  0.10000000000E+04  0.00000000000E+00 0.  1.
    9000005    2    1    2  501    0 -0.32071392952E+02 -0.15121166434E+01 -0.71968511178E+03  0.72041051552E+03  0.37134912458E+01 0.  0.
         13    1    3    3    0    0 -0.28571226700E+02 -0.21044161120E+01 -0.61847529487E+03  0.61913846103E+03  0.00000000000E+00 0.  1.
          3    1    3    3  501    0 -0.35001662518E+01  0.59229946852E+00 -0.10120981690E+03  0.10127205449E+03  0.00000000000E+00 0.  1.
         21    1    1    2  502  501  0.32071392952E+02  0.15121166434E+01 -0.27903161777E+03  0.28087275493E+03  0.00000000000E+00 0.  1.
<mgrwt>
<rscale>  1 0.30000000E+03</rscale>
<asrwt>0</asrwt>
<pdfrwt beam="1">  1        1 0.46664478E-02 0.30000000E+03</pdfrwt>
<pdfrwt beam="2">0</pdfrwt>
<totfact> 0.21919509E+03</totfact>
</mgrwt>
</event>
<event>
 6    1  0.3125838E-002  0.3000000E+03  0.7818608E-02  0.1093470E+00
          1   -1    0    0  502    0  0.00000000000E+00  0.00000000000E+00  0.19802966092E+01  0.19802966092E+01  0.00000000000E+00 0.  1.
         13   -1    0    0    0    0 -0.00000000000E+00 -0.00000000000E+00 -0.10000000000E+04  0.10000000000E+04  0.00000000000E+00 0.  1.
    9000005    2    1    2  501    0 -0.29393401445E+02  0.86531620355E+01 -0.86209249904E+03  0.86264238309E+03  0.30911061570E+01 0.  0.
         13    1    3    3    0    0 -0.25728350014E+02  0.66031557279E+01 -0.72965433554E+03  0.73013765759E+03  0.00000000000E+00 0.  1.
          3    1    3    3  501    0 -0.36650514316E+01  0.20500063075E+01 -0.13243816350E+03  0.13250472550E+03  0.00000000000E+00 0.  1.
         21    1    1    2  502  501  0.29393401445E+02 -0.86531620355E+01 -0.13592720435E+03  0.13933791352E+03  0.00000000000E+00 0.  1.
<mgrwt>
<rscale>  1 0.30000000E+03</rscale>
<asrwt>0</asrwt>
<pdfrwt beam="1">  1        1 0.72010938E-02 0.30000000E+03</pdfrwt>
<pdfrwt beam="2">0</pdfrwt>
<totfact> 0.11926467E+03</totfact>
</mgrwt>
</event>
<event>
 6    1  0.3125838E-002  0.3000000E+03  0.7818608E-02  0.1093470E+00
          1   -1    0    0  502    0  0.00000000000E+00  0.00000000000E+00  0.10175757253E+01  0.10175757253E+01  0.00000000000E+00 0.  1.
         13   -1    0    0    0    0 -0.00000000000E+00 -0.00000000000E+00 -0.10000000000E+04  0.10000000000E+04  0.00000000000E+00 0.  1.
    9000005    2    1    2  501    0 -0.23530277837E+02 -0.21382909959E+02 -0.49309827518E+03  0.49413526678E+03  0.35847008081E+01 0.  0.
         13    1    3    3    0    0 -0.19030242529E+02 -0.16707761141E+02 -0.36950781989E+03  0.37037457847E+03  0.00000000000E+00 0.  1.
          1    1    3    3  501    0 -0.45000353077E+01 -0.46751488188E+01 -0.12359045529E+03  0.12376068831E+03  0.00000000000E+00 0.  1.
         21    1    1    2  502  501  0.23530277837E+02  0.21382909959E+02 -0.50588414910E+03  0.50688230894E+03  0.00000000000E+00 0.  1.
<mgrwt>
<rscale>  1 0.30000000E+03</rscale>
<asrwt>0</asrwt>
<pdfrwt beam="1">  1        1 0.37002832E-02 0.30000000E+03</pdfrwt>
<pdfrwt beam="2">0</pdfrwt>
<totfact> 0.30384654E+03</totfact>
</mgrwt>
</event>
<event>
 6    1  0.3125838E-002  0.3000000E+03  0.7818608E-02  0.1093470E+00
          1   -1    0    0  502    0  0.00000000000E+00  0.00000000000E+00  0.98716458928E+01  0.98716458928E+01  0.00000000000E+00 0.  1.
         13   -1    0    0    0    0 -0.00000000000E+00 -0.00000000000E+00 -0.10000000000E+04  0.10000000000E+04  0.00000000000E+00 0.  1.
    9000005    2    1    2  501    0  0.21991626877E+02 -0.25877450908E+02 -0.96956620106E+03  0.97017181899E+03  0.46331418458E+01 0.  0.
         13    1    3    3    0    0  0.53066959007E+01 -0.73634263018E+01 -0.31683056467E+03  0.31696054609E+03  0.00000000000E+00 0.  1.
          1    1    3    3  501    0  0.16684930976E+02 -0.18514024606E+02 -0.65273563639E+03  0.65321127290E+03  0.00000000000E+00 0.  1.
         21    1    1    2  502  501 -0.21991626877E+02  0.25877450908E+02 -0.20562153044E+02  0.39699826901E+02  0.00000000000E+00 0.  1.
<mgrwt>
<rscale>  1 0.30000000E+03</rscale>
<asrwt>0</asrwt>
<pdfrwt beam="1">  1        1 0.35896970E-01 0.30000000E+03</pdfrwt>
<pdfrwt beam="2">0</pdfrwt>
<totfact> 0.13614603E+02</totfact>
</mgrwt>
</event>
<event>
 6    1  0.3125838E-002  0.3000000E+03  0.7818608E-02  0.1093470E+00
          1   -1    0    0  502    0  0.00000000000E+00  0.00000000000E+00  0.32834739045E+01  0.32834739045E+01  0.00000000000E+00 0.  1.
         13   -1    0    0    0    0 -0.00000000000E+00 -0.00000000000E+00 -0.10000000000E+04  0.10000000000E+04  0.00000000000E+00 0.  1.
    9000005    2    1    2  501    0 -0.26410455974E+02  0.21046482819E+02 -0.90350034119E+03  0.90413851058E+03  0.36212102886E+01 0.  0.
         13    1    3    3    0    0 -0.87057629056E+00  0.17089073450E+01 -0.56804070226E+02  0.56836437799E+02  0.00000000000E+00 0.  1.
          3    1    3    3  501    0 -0.25539879684E+02  0.19337575474E+02 -0.84669627096E+03  0.84730207278E+03  0.00000000000E+00 0.  1.
         21    1    1    2  502  501  0.26410455974E+02 -0.21046482819E+02 -0.93216184906E+02  0.99144963322E+02  0.00000000000E+00 0.  1.
<mgrwt>
<rscale>  1 0.30000000E+03</rscale>
<asrwt>0</asrwt>
<pdfrwt beam="1">  1        1 0.11939930E-01 0.30000000E+03</pdfrwt>
<pdfrwt beam="2">0</pdfrwt>
<totfact> 0.59223281E+02</totfact>
</mgrwt>
</event>
<event>
 6    1  0.3125838E-002  0.3000000E+03  0.7818608E-02  0.1093470E+00
          1   -1    0    0  502    0  0.00000000000E+00  0.00000000000E+00  0.68073158339E+01  0.68073158339E+01  0.00000000000E+00 0.  1.
         13   -1    0    0    0    0 -0.00000000000E+00 -0.00000000000E+00 -0.10000000000E+04  0.10000000000E+04  0.00000000000E+00 0.  1.
    9000005    2    1    2  501    0  0.10169380041E+02 -0.36999068043E+02 -0.94221900578E+03  0.94300556653E+03  0.32398022297E+01 0.  0.
         13    1    3    3    0    0  0.65662952427E+01 -0.26371089582E+02 -0.69805009885E+03  0.69857890829E+03  0.00000000000E+00 0.  1.
          1    1    3    3  501    0  0.36030847985E+01 -0.10627978462E+02 -0.24416890694E+03  0.24442665824E+03  0.00000000000E+00 0.  1.
         21    1    1    2  502  501 -0.10169380041E+02  0.36999068043E+02 -0.50973678382E+02  0.63801749304E+02  0.00000000000E+00 0.  1.
<mgrwt>
<rscale>  1 0.30000000E+03</rscale>
<asrwt>0</asrwt>
<pdfrwt beam="1">  1        1 0.24753928E-01 0.30000000E+03</pdfrwt>
<pdfrwt beam="2">0</pdfrwt>
<totfact> 0.22181612E+02</totfact>
</mgrwt>
</event>
<event>
 6    1  0.3125838E-002  0.3000000E+03  0.7818608E-02  0.1093470E+00
          1   -1    0    0  502    0  0.00000000000E+00  0.00000000000E+00  0.53583606728E+02  0.53583606728E+02  0.00000000000E+00 0.  1.
         13   -1    0    0    0    0 -0.00000000000E+00 -0.00000000000E+00 -0.10000000000E+04  0.10000000000E+04  0.00000000000E+00 0.  1.
    9000005    2    1    2  501    0 -0.52786611335E+01  0.63609561078E+02 -0.97957183757E+03  0.98165778375E+03  0.41205479054E+01 0.  0.
         13    1    3    3    0    0 -0.18397026711E+01  0.32882823820E+02 -0.47666525588E+03  0.47780166468E+03  0.00000000000E+00 0.  1.
          3    1    3    3  501    0 -0.34389584623E+01  0.30726737258E+02 -0.50290658169E+03  0.50385611907E+03  0.00000000000E+00 0.  1.
         21    1    1    2  502  501  0.52786611335E+01 -0.63609561078E+02  0.33155444300E+02  0.71925822975E+02  0.00000000000E+00 0.  1.
<mgrwt>
<rscale>  1 0.30000000E+03</rscale>
<asrwt>0</asrwt>
<pdfrwt beam="1">  1        1 0.19484989E+00 0.30000000E+03</pdfrwt>
<pdfrwt beam="2">0</pdfrwt>
<totfact> 0.10838583E+01</totfact>
</mgrwt>
</event>
<event>
 6    1  0.3125838E-002  0.3000000E+03  0.7818608E-02  0.1093470E+00
          3   -1    0    0  502    0  0.00000000000E+00  0.00000000000E+00  0.37388788507E+01  0.37388788507E+01  0.00000000000E+00 0.  1.
         13   -1    0    0    0    0 -0.00000000000E+00 -0.00000000000E+00 -0.10000000000E+04  0.10000000000E+04  0.00000000000E+00 0.  1.
    9000005    2    1    2  501    0  0.56278708792E+02  0.15652572168E+02 -0.35135768380E+03  0.35619525902E+03  0.32472302094E+01 0.  0.
         13    1    3    3    0    0  0.23388900835E+02  0.69076571345E+01 -0.15621862084E+03  0.15811076467E+03  0.00000000000E+00 0.  1.
          3    1    3    3  501    0  0.32889807957E+02  0.87449150334E+01 -0.19513906296E+03  0.19808449435E+03  0.00000000000E+00 0.  1.
         21    1    1    2  502  501 -0.56278708792E+02 -0.15652572168E+02 -0.64490343735E+03  0.64754361983E+03  0.00000000000E+00 0.  1.
<mgrwt>
<rscale>  1 0.30000000E+03</rscale>
<asrwt>0</asrwt>
<pdfrwt beam="1">  1        3 0.13595952E-01 0.30000000E+03</pdfrwt>
<pdfrwt beam="2">0</pdfrwt>
<totfact> 0.19710292E+02</totfact>
</mgrwt>
</event>
<event>
 6    1  0.3125838E-002  0.3000000E+03  0.7818608E-02  0.1093470E+00
          1   -1    0    0  502    0  0.00000000000E+00  0.00000000000E+00  0.14639917538E+02  0.14639917538E+02  0.00000000000E+00 0.  1.
         13   -1    0    0    0    0 -0.00000000000E+00 -0.00000000000E+00 -0.10000000000E+04  0.10000000000E+04  0.00000000000E+00 0.  1.
    9000005    2    1    2  501    0 -0.24899941613E+02 -0.36921575363E+02 -0.96437862196E+03  0.96541155676E+03  0.31839639401E+01 0.  0.
         13    1    3    3    0    0 -0.20831223824E+02 -0.30476040150E+02 -0.82327203091E+03  0.82409924511E+03  0.00000000000E+00 0.  1.
          3    1    3    3  501    0 -0.40687177885E+01 -0.64455352123E+01 -0.14110659104E+03  0.14131231165E+03  0.00000000000E+00 0.  1.
         21    1    1    2  502  501  0.24899941613E+02  0.36921575363E+02 -0.20981460505E+02  0.49228360774E+02  0.00000000000E+00 0.  1.
<mgrwt>
<rscale>  1 0.30000000E+03</rscale>
<asrwt>0</asrwt>
<pdfrwt beam="1">  1        1 0.53236176E-01 0.30000000E+03</pdfrwt>
<pdfrwt beam="2">0</pdfrwt>
<totfact> 0.81252370E+01</totfact>
</mgrwt>
</event>
<event>
 6    1  0.3125838E-002  0.3000000E+03  0.7818608E-02  0.1093470E+00
          1   -1    0    0  502    0  0.00000000000E+00  0.00000000000E+00  0.21688478972E+01  0.21688478972E+01  0.00000000000E+00 0.  1.
         13   -1    0    0    0    0 -0.00000000000E+00 -0.00000000000E+00 -0.10000000000E+04  0.10000000000E+04  0.00000000000E+00 0.  1.
    9000005    2    1    2  501    0  0.31099399749E+02  0.97293258259E+01 -0.85661378593E+03  0.85724066929E+03  0.35432178882E+01 0.  0.
         13    1    3    3    0    0  0.11182930208E+02  0.38727509998E+01 -0.26874340165E+03  0.26900385138E+03  0.00000000000E+00 0.  1.
          3    1    3    3  501    0  0.19916469541E+02  0.58565748262E+01 -0.58787038428E+03  0.58823681791E+03  0.00000000000E+00 0.  1.
         21    1    1    2  502  501 -0.31099399749E+02 -0.97293258259E+01 -0.14121736617E+03  0.14492817861E+03  0.00000000000E+00 0.  1.
<mgrwt>
<rscale>  1 0.30000000E+03</rscale>
<asrwt>0</asrwt>
<pdfrwt beam="1">  1        1 0.78867363E-02 0.30000000E+03</pdfrwt>
<pdfrwt beam="2">0</pdfrwt>
<totfact> 0.10504976E+03</totfact>
</mgrwt>
</event>
<event>
 6    1  0.3125838E-002  0.3000000E+03  0.7818608E-02  0.1093470E+00
          1   -1    0    0  502    0  0.00000000000E+00  0.00000000000E+00  0.16754817446E+01  0.16754817446E+01  0.00000000000E+00 0.  1.
         13   -1    0    0    0    0 -0.00000000000E+00 -0.00000000000E+00 -0.10000000000E+04  0.10000000000E+04  0.00000000000E+00 0.  1.
    9000005    2    1    2  501    0  0.34318564461E+02 -0.15587379736E+02 -0.30697863176E+03  0.30930284721E+03  0.34118416203E+01 0.  0.
         13    1    3    3    0    0  0.34285195471E+02 -0.15314897604E+02 -0.30548617380E+03  0.30778535232E+03  0.00000000000E+00 0.  1.
          1    1    3    3  501    0  0.33368990379E-01 -0.27248213192E+00 -0.14924579582E+01  0.15174948958E+01  0.00000000000E+00 0.  1.
         21    1    1    2  502  501 -0.34318564461E+02  0.15587379736E+02 -0.69134588650E+03  0.69237263453E+03  0.00000000000E+00 0.  1.
<mgrwt>
<rscale>  1 0.30000000E+03</rscale>
<asrwt>0</asrwt>
<pdfrwt beam="1">  1        1 0.60926737E-02 0.30000000E+03</pdfrwt>
<pdfrwt beam="2">0</pdfrwt>
<totfact> 0.15070932E+03</totfact>
</mgrwt>
</event>
<event>
 6    1  0.3125838E-002  0.3000000E+03  0.7818608E-02  0.1093470E+00
          1   -1    0    0  502    0  0.00000000000E+00  0.00000000000E+00  0.13819603182E+01  0.13819603182E+01  0.00000000000E+00 0.  1.
         13   -1    0    0    0    0 -0.00000000000E+00 -0.00000000000E+00 -0.10000000000E+04  0.10000000000E+04  0.00000000000E+00 0.  1.
    9000005    2    1    2  501    0  0.25958773553E+02 -0.17487146361E+02 -0.76845649298E+03  0.76910196593E+03  0.35768958652E+01 0.  0.
         13    1    3    3    0    0  0.16425052560E+02 -0.13079860298E+02 -0.50696669028E+03  0.50740131075E+03  0.00000000000E+00 0.  1.
          1    1    3    3  501    0  0.95337209928E+01 -0.44072860634E+01 -0.26148980271E+03  0.26170065519E+03  0.00000000000E+00 0.  1.
         21    1    1    2  502  501 -0.25958773553E+02  0.17487146361E+02 -0.23016154670E+03  0.23227999438E+03  0.00000000000E+00 0.  1.
<mgrwt>
<rscale>  1 0.30000000E+03</rscale>
<asrwt>0</asrwt>
<pdfrwt beam="1">  1        1 0.50253208E-02 0.30000000E+03</pdfrwt>
<pdfrwt beam="2">0</pdfrwt>
<totfact> 0.19750876E+03</totfact>
</mgrwt>
</event>
<event>
 6    1  0.3125838E-002  0.3000000E+03  0.7818608E-02  0.1093470E+00
          3   -1    0    0  502    0  0.00000000000E+00  0.00000000000E+00  0.28929402729E+01  0.28929402729E+01  0.00000000000E+00 0.  1.
         13   -1    0    0    0    0 -0.00000000000E+00 -0.00000000000E+00 -0.10000000000E+04  0.10000000000E+04  0.00000000000E+00 0.  1.
    9000005    2    1    2  501    0 -0.78998608749E+01  0.47073354863E+02 -0.72923867441E+03  0.73080512285E+03  0.29622259048E+01 0.  0.
         13    1    3    3    0    0 -0.55704270196E+01  0.32392104311E+02 -0.48074529810E+03  0.48186753338E+03  0.00000000000E+00 0.  1.
          3    1    3    3  501    0 -0.23294338553E+01  0.14681250553E+02 -0.24849337631E+03  0.24893758947E+03  0.00000000000E+00 0.  1.
         21    1    1    2  502  501  0.78998608749E+01 -0.47073354863E+02 -0.26786838532E+03  0.27208781743E+03  0.00000000000E+00 0.  1.
<mgrwt>
<rscale>  1 0.30000000E+03</rscale>
<asrwt>0</asrwt>
<pdfrwt beam="1">  1        3 0.10519805E-01 0.30000000E+03</pdfrwt>
<pdfrwt beam="2">0</pdfrwt>
<totfact> 0.30369104E+02</totfact>
</mgrwt>
</event>
<event>
 6    1  0.3125838E-002  0.3000000E+03  0.7818608E-02  0.1093470E+00
          1   -1    0    0  502    0  0.00000000000E+00  0.00000000000E+00  0.41057731983E+01  0.41057731983E+01  0.00000000000E+00 0.  1.
         13   -1    0    0    0    0 -0.00000000000E+00 -0.00000000000E+00 -0.10000000000E+04  0.10000000000E+04  0.00000000000E+00 0.  1.
    9000005    2    1    2  501    0 -0.32769118833E+02 -0.16775190577E+02 -0.90842300412E+03  0.90920352367E+03  0.79668609280E+01 0.  0.
         13    1    3    3    0    0 -0.81678770291E+01 -0.69888610088E+01 -0.20386120574E+03  0.20414443318E+03  0.00000000000E+00 0.  1.
          3    1    3    3  501    0 -0.24601241804E+02 -0.97863295683E+01 -0.70456179837E+03  0.70505909048E+03  0.00000000000E+00 0.  1.
         21    1    1    2  502  501  0.32769118833E+02  0.16775190577E+02 -0.87471222684E+02  0.94902249529E+02  0.00000000000E+00 0.  1.
<mgrwt>
<rscale>  1 0.30000000E+03</rscale>
<asrwt>0</asrwt>
<pdfrwt beam="1">  1        1 0.14930116E-01 0.30000000E+03</pdfrwt>
<pdfrwt beam="2">0</pdfrwt>
<totfact> 0.43656393E+02</totfact>
</mgrwt>
</event>
<event>
 6    1  0.3125838E-002  0.3000000E+03  0.7818608E-02  0.1093470E+00
          1   -1    0    0  502    0  0.00000000000E+00  0.00000000000E+00  0.25627821928E+01  0.25627821928E+01  0.00000000000E+00 0.  1.
         13   -1    0    0    0    0 -0.00000000000E+00 -0.00000000000E+00 -0.10000000000E+04  0.10000000000E+04  0.00000000000E+00 0.  1.
    9000005    2    1    2  501    0  0.80828106481E+01 -0.48247001462E+02 -0.37223311738E+03  0.37544774317E+03  0.32263289725E+01 0.  0.
         13    1    3    3    0    0  0.25279324868E+01 -0.22725896812E+02 -0.18143268483E+03  0.18286791942E+03  0.00000000000E+00 0.  1.
          1    1    3    3  501    0  0.55548781613E+01 -0.25521104650E+02 -0.19080043255E+03  0.19257982374E+03  0.00000000000E+00 0.  1.
         21    1    1    2  502  501 -0.80828106481E+01  0.48247001462E+02 -0.62520410043E+03  0.62711503903E+03  0.00000000000E+00 0.  1.
<mgrwt>
<rscale>  1 0.30000000E+03</rscale>
<asrwt>0</asrwt>
<pdfrwt beam="1">  1        1 0.93192276E-02 0.30000000E+03</pdfrwt>
<pdfrwt beam="2">0</pdfrwt>
<totfact> 0.83314234E+02</totfact>
</mgrwt>
</event>
<event>
 6    1  0.3125838E-002  0.3000000E+03  0.7818608E-02  0.1093470E+00
          3   -1    0    0  502    0  0.00000000000E+00  0.00000000000E+00  0.77018449756E+01  0.77018449756E+01  0.00000000000E+00 0.  1.
         13   -1    0    0    0    0 -0.00000000000E+00 -0.00000000000E+00 -0.10000000000E+04  0.10000000000E+04  0.00000000000E+00 0.  1.
    9000005    2    1    2  501    0 -0.58950171657E+02  0.37827959396E+02 -0.79961924540E+03  0.80268662733E+03  0.29676315684E+01 0.  0.
         13    1    3    3    0    0 -0.64692638154E-01  0.70582908573E-01 -0.31711538925E+01  0.31725989495E+01  0.00000000000E+00 0.  1.
          1    1    3    3  501    0 -0.58885479019E+02  0.37757376487E+02 -0.79644809151E+03  0.79951402838E+03  0.00000000000E+00 0.  1.
         21    1    1    2  502  501  0.58950171657E+02 -0.37827959396E+02 -0.19267890963E+03  0.20501521764E+03  0.00000000000E+00 0.  1.
<mgrwt>
<rscale>  1 0.30000000E+03</rscale>
<asrwt>0</asrwt>
<pdfrwt beam="1">  1        3 0.28006768E-01 0.30000000E+03</pdfrwt>
<pdfrwt beam="2">0</pdfrwt>
<totfact> 0.53276980E+01</totfact>
</mgrwt>
</event>
<event>
 6    1  0.3125838E-002  0.3000000E+03  0.7818608E-02  0.1093470E+00
          1   -1    0    0  502    0  0.00000000000E+00  0.00000000000E+00  0.20268150680E+01  0.20268150680E+01  0.00000000000E+00 0.  1.
         13   -1    0    0    0    0 -0.00000000000E+00 -0.00000000000E+00 -0.10000000000E+04  0.10000000000E+04  0.00000000000E+00 0.  1.
    9000005    2    1    2  501    0  0.18147426118E+02  0.39722970084E+02 -0.61873679648E+03  0.62028412456E+03  0.31509428637E+01 0.  0.
         13    1    3    3    0    0  0.15185012701E+02  0.31946705166E+02 -0.51590411197E+03  0.51711529598E+03  0.00000000000E+00 0.  1.
          3    1    3    3  501    0  0.29624134169E+01  0.77762649177E+01 -0.10283268450E+03  0.10316882859E+03  0.00000000000E+00 0.  1.
         21    1    1    2  502  501 -0.18147426118E+02 -0.39722970084E+02 -0.37923638845E+03  0.38174269051E+03  0.00000000000E+00 0.  1.
<mgrwt>
<rscale>  1 0.30000000E+03</rscale>
<asrwt>0</asrwt>
<pdfrwt beam="1">  1        1 0.73702522E-02 0.30000000E+03</pdfrwt>
<pdfrwt beam="2">0</pdfrwt>
<totfact> 0.11545833E+03</totfact>
</mgrwt>
</event>
<event>
 6    1  0.3125838E-002  0.3000000E+03  0.7818608E-02  0.1093470E+00
          1   -1    0    0  502    0  0.00000000000E+00  0.00000000000E+00  0.29077041050E+01  0.29077041050E+01  0.00000000000E+00 0.  1.
         13   -1    0    0    0    0 -0.00000000000E+00 -0.00000000000E+00 -0.10000000000E+04  0.10000000000E+04  0.00000000000E+00 0.  1.
    9000005    2    1    2  501    0  0.40622329456E+02 -0.33453070013E+01 -0.82660036233E+03  0.82761120060E+03  0.32826254577E+01 0.  0.
         13    1    3    3    0    0  0.63807332388E+01 -0.11645332892E+01 -0.11209490295E+03  0.11228239916E+03  0.00000000000E+00 0.  1.
          3    1    3    3  501    0  0.34241596217E+02 -0.21807737121E+01 -0.71450545938E+03  0.71532880144E+03  0.00000000000E+00 0.  1.
         21    1    1    2  502  501 -0.40622329456E+02  0.33453070013E+01 -0.17049193357E+03  0.17529650350E+03  0.00000000000E+00 0.  1.
<mgrwt>
<rscale>  1 0.30000000E+03</rscale>
<asrwt>0</asrwt>
<pdfrwt beam="1">  1        1 0.10573492E-01 0.30000000E+03</pdfrwt>
<pdfrwt beam="2">0</pdfrwt>
<totfact> 0.69982055E+02</totfact>
</mgrwt>
</event>
<event>
 6    1  0.3125838E-002  0.3000000E+03  0.7818608E-02  0.1093470E+00
          1   -1    0    0  502    0  0.00000000000E+00  0.00000000000E+00  0.96747573017E+00  0.96747573017E+00  0.00000000000E+00 0.  1.
         13   -1    0    0    0    0 -0.00000000000E+00 -0.00000000000E+00 -0.10000000000E+04  0.10000000000E+04  0.00000000000E+00 0.  1.
    9000005    2    1    2  501    0  0.12318496358E+02 -0.27648201026E+02 -0.60866506514E+03  0.60942830589E+03  0.36783317182E+01 0.  0.
         13    1    3    3    0    0  0.17069929893E+01 -0.26008301501E+01 -0.85397806819E+02  0.85454453085E+02  0.00000000000E+00 0.  1.
          1    1    3    3  501    0  0.10611503369E+02 -0.25047370876E+02 -0.52326725832E+03  0.52397385280E+03  0.00000000000E+00 0.  1.
         21    1    1    2  502  501 -0.12318496358E+02  0.27648201026E+02 -0.39036745913E+03  0.39153916984E+03  0.00000000000E+00 0.  1.
<mgrwt>
<rscale>  1 0.30000000E+03</rscale>
<asrwt>0</asrwt>
<pdfrwt beam="1">  1        1 0.35181010E-02 0.30000000E+03</pdfrwt>
<pdfrwt beam="2">0</pdfrwt>
<totfact> 0.32621323E+03</totfact>
</mgrwt>
</event>
<event>
 6    1  0.3125838E-002  0.3000000E+03  0.7818608E-02  0.1093470E+00
          1   -1    0    0  502    0  0.00000000000E+00  0.00000000000E+00  0.22259670924E+01  0.22259670924E+01  0.00000000000E+00 0.  1.
         13   -1    0    0    0    0 -0.00000000000E+00 -0.00000000000E+00 -0.10000000000E+04  0.10000000000E+04  0.00000000000E+00 0.  1.
    9000005    2    1    2  501    0  0.18577939640E+02  0.42606417773E+02 -0.58185327789E+03  0.58371608533E+03  0.32839925615E+01 0.  0.
         13    1    3    3    0    0  0.57336429770E+01  0.13575458131E+02 -0.20402306424E+03  0.20455458555E+03  0.00000000000E+00 0.  1.
          3    1    3    3  501    0  0.12844296664E+02  0.29030959642E+02 -0.37783021365E+03  0.37916149979E+03  0.00000000000E+00 0.  1.
         21    1    1    2  502  501 -0.18577939640E+02 -0.42606417773E+02 -0.41592075501E+03  0.41850988176E+03  0.00000000000E+00 0.  1.
<mgrwt>
<rscale>  1 0.30000000E+03</rscale>
<asrwt>0</asrwt>
<pdfrwt beam="1">  1        1 0.80944429E-02 0.30000000E+03</pdfrwt>
<pdfrwt beam="2">0</pdfrwt>
<totfact> 0.10131534E+03</totfact>
</mgrwt>
</event>
<event>
 6    1  0.3125838E-002  0.3000000E+03  0.7818608E-02  0.1093470E+00
          3   -1    0    0  502    0  0.00000000000E+00  0.00000000000E+00  0.15287085803E+01  0.15287085803E+01  0.00000000000E+00 0.  1.
         13   -1    0    0    0    0 -0.00000000000E+00 -0.00000000000E+00 -0.10000000000E+04  0.10000000000E+04  0.00000000000E+00 0.  1.
    9000005    2    1    2  501    0 -0.37103623336E+02 -0.29179532471E+01 -0.65005077151E+03  0.65112600881E+03  0.37256523548E+01 0.  0.
         13    1    3    3    0    0 -0.21897280989E+02 -0.35112099282E+01 -0.37835655462E+03  0.37900593918E+03  0.00000000000E+00 0.  1.
          3    1    3    3  501    0 -0.15206342346E+02  0.59325668114E+00 -0.27169421690E+03  0.27212006963E+03  0.00000000000E+00 0.  1.
         21    1    1    2  502  501  0.37103623336E+02  0.29179532471E+01 -0.34842051991E+03  0.35040269977E+03  0.00000000000E+00 0.  1.
<mgrwt>
<rscale>  1 0.30000000E+03</rscale>
<asrwt>0</asrwt>
<pdfrwt beam="1">  1        3 0.55589520E-02 0.30000000E+03</pdfrwt>
<pdfrwt beam="2">0</pdfrwt>
<totfact> 0.83980214E+02</totfact>
</mgrwt>
</event>
<event>
 6    1  0.3125838E-002  0.3000000E+03  0.7818608E-02  0.1093470E+00
          3   -1    0    0  502    0  0.00000000000E+00  0.00000000000E+00  0.25604916496E+01  0.25604916496E+01  0.00000000000E+00 0.  1.
         13   -1    0    0    0    0 -0.00000000000E+00 -0.00000000000E+00 -0.10000000000E+04  0.10000000000E+04  0.00000000000E+00 0.  1.
    9000005    2    1    2  501    0  0.22936582118E+01 -0.49965663405E+02 -0.57271571808E+03  0.57490160140E+03  0.25940642942E+01 0.  0.
         13    1    3    3    0    0  0.12772235361E+01 -0.44252307622E+02 -0.51021965018E+03  0.51213669021E+03  0.00000000000E+00 0.  1.
          3    1    3    3  501    0  0.10164346757E+01 -0.57133557824E+01 -0.62496067900E+02  0.62764911191E+02  0.00000000000E+00 0.  1.
         21    1    1    2  502  501 -0.22936582118E+01  0.49965663405E+02 -0.42472379027E+03  0.42765889025E+03  0.00000000000E+00 0.  1.
<mgrwt>
<rscale>  1 0.30000000E+03</rscale>
<asrwt>0</asrwt>
<pdfrwt beam="1">  1        3 0.93108984E-02 0.30000000E+03</pdfrwt>
<pdfrwt beam="2">0</pdfrwt>
<totfact> 0.37118608E+02</totfact>
</mgrwt>
</event>
<event>
 6    1  0.3125838E-002  0.3000000E+03  0.7818608E-02  0.1093470E+00
          1   -1    0    0  502    0  0.00000000000E+00  0.00000000000E+00  0.15233661625E+01  0.15233661625E+01  0.00000000000E+00 0.  1.
         13   -1    0    0    0    0 -0.00000000000E+00 -0.00000000000E+00 -0.10000000000E+04  0.10000000000E+04  0.00000000000E+00 0.  1.
    9000005    2    1    2  501    0  0.35280390382E+02 -0.12293725565E+02 -0.64130141463E+03  0.64239946157E+03  0.37043468096E+01 0.  0.
         13    1    3    3    0    0  0.28899785708E+02 -0.87175245029E+01 -0.50347023504E+03  0.50437433561E+03  0.00000000000E+00 0.  1.
          3    1    3    3  501    0  0.63806046744E+01 -0.35762010617E+01 -0.13783117959E+03  0.13802512596E+03  0.00000000000E+00 0.  1.
         21    1    1    2  502  501 -0.35280390382E+02  0.12293725565E+02 -0.35717521921E+03  0.35912390459E+03  0.00000000000E+00 0.  1.
<mgrwt>
<rscale>  1 0.30000000E+03</rscale>
<asrwt>0</asrwt>
<pdfrwt beam="1">  1        1 0.55395250E-02 0.30000000E+03</pdfrwt>
<pdfrwt beam="2">0</pdfrwt>
<totfact> 0.17224726E+03</totfact>
</mgrwt>
</event>
<event>
 6    1  0.3125838E-002  0.3000000E+03  0.7818608E-02  0.1093470E+00
          1   -1    0    0  502    0  0.00000000000E+00  0.00000000000E+00  0.32259012690E+01  0.32259012690E+01  0.00000000000E+00 0.  1.
         13   -1    0    0    0    0 -0.00000000000E+00 -0.00000000000E+00 -0.10000000000E+04  0.10000000000E+04  0.00000000000E+00 0.  1.
    9000005    2    1    2  501    0  0.17787672123E+01 -0.56384296426E+02 -0.55375191108E+03  0.55662651519E+03  0.30895776708E+01 0.  0.
         13    1    3    3    0    0  0.17042595844E+01 -0.50517276528E+02 -0.50476134290E+03  0.50728582970E+03  0.00000000000E+00 0.  1.
          1    1    3    3  501    0  0.74507627965E-01 -0.58670198976E+01 -0.48990568179E+02  0.49340685487E+02  0.00000000000E+00 0.  1.
         21    1    1    2  502  501 -0.17787672123E+01  0.56384296426E+02 -0.44302218765E+03  0.44659938608E+03  0.00000000000E+00 0.  1.
<mgrwt>
<rscale>  1 0.30000000E+03</rscale>
<asrwt>0</asrwt>
<pdfrwt beam="1">  1        1 0.11730575E-01 0.30000000E+03</pdfrwt>
<pdfrwt beam="2">0</pdfrwt>
<totfact> 0.60677374E+02</totfact>
</mgrwt>
</event>
<event>
 6    1  0.3125838E-002  0.3000000E+03  0.7818608E-02  0.1093470E+00
          1   -1    0    0  502    0  0.00000000000E+00  0.00000000000E+00  0.28858525149E+01  0.28858525149E+01  0.00000000000E+00 0.  1.
         13   -1    0    0    0    0 -0.00000000000E+00 -0.00000000000E+00 -0.10000000000E+04  0.10000000000E+04  0.00000000000E+00 0.  1.
    9000005    2    1    2  501    0  0.34596278516E+02  0.17655468172E+02 -0.84429575083E+03  0.84520871276E+03  0.58168050042E+01 0.  0.
         13    1    3    3    0    0  0.31117112716E+02  0.16794433966E+02 -0.72870165095E+03  0.72955906122E+03  0.00000000000E+00 0.  1.
          3    1    3    3  501    0  0.34791657995E+01  0.86103420579E+00 -0.11559409988E+03  0.11564965154E+03  0.00000000000E+00 0.  1.
         21    1    1    2  502  501 -0.34596278516E+02 -0.17655468172E+02 -0.15281839666E+03  0.15767713975E+03  0.00000000000E+00 0.  1.
<mgrwt>
<rscale>  1 0.30000000E+03</rscale>
<asrwt>0</asrwt>
<pdfrwt beam="1">  1        1 0.10494031E-01 0.30000000E+03</pdfrwt>
<pdfrwt beam="2">0</pdfrwt>
<totfact> 0.70712676E+02</totfact>
</mgrwt>
</event>
<event>
 6    1  0.3359794E-002  0.3000000E+03  0.7818608E-02  0.1093470E+00
          1   -1    0    0  502    0  0.00000000000E+00  0.00000000000E+00  0.68040730975E+01  0.68040730975E+01  0.00000000000E+00 0.  1.
         13   -1    0    0    0    0 -0.00000000000E+00 -0.00000000000E+00 -0.10000000000E+04  0.10000000000E+04  0.00000000000E+00 0.  1.
    9000005    2    1    2  501    0 -0.19436442715E+02  0.27204054445E+02 -0.95666572118E+03  0.95728345301E+03  0.80294111662E+01 0.  0.
         13    1    3    3    0    0 -0.14370205312E+01  0.71057265062E+01 -0.16790692036E+03  0.16806335199E+03  0.00000000000E+00 0.  1.
          3    1    3    3  501    0 -0.17999422184E+02  0.20098327938E+02 -0.78875880082E+03  0.78922010102E+03  0.00000000000E+00 0.  1.
         21    1    1    2  502  501  0.19436442715E+02 -0.27204054445E+02 -0.36530205722E+02  0.49520620087E+02  0.00000000000E+00 0.  1.
<mgrwt>
<rscale>  1 0.30000000E+03</rscale>
<asrwt>0</asrwt>
<pdfrwt beam="1">  1        1 0.24742136E-01 0.30000000E+03</pdfrwt>
<pdfrwt beam="2">0</pdfrwt>
<totfact> 0.22195584E+02</totfact>
</mgrwt>
</event>
<event>
 6    1  0.3125838E-002  0.3000000E+03  0.7818608E-02  0.1093470E+00
          1   -1    0    0  502    0  0.00000000000E+00  0.00000000000E+00  0.40209923766E+01  0.40209923766E+01  0.00000000000E+00 0.  1.
         13   -1    0    0    0    0 -0.00000000000E+00 -0.00000000000E+00 -0.10000000000E+04  0.10000000000E+04  0.00000000000E+00 0.  1.
    9000005    2    1    2  501    0  0.31998576182E+02 -0.36216218347E+01 -0.93039289148E+03  0.93095551727E+03  0.31964962368E+01 0.  0.
         13    1    3    3    0    0  0.26643011786E+02 -0.38015076395E+01 -0.74835149117E+03  0.74883526618E+03  0.00000000000E+00 0.  1.
          1    1    3    3  501    0  0.53555643960E+01  0.17988580477E+00 -0.18204140031E+03  0.18212025109E+03  0.00000000000E+00 0.  1.
         21    1    1    2  502  501 -0.31998576182E+02  0.36216218347E+01 -0.65586116141E+02  0.73065475109E+02  0.00000000000E+00 0.  1.
<mgrwt>
<rscale>  1 0.30000000E+03</rscale>
<asrwt>0</asrwt>
<pdfrwt beam="1">  1        1 0.14621821E-01 0.30000000E+03</pdfrwt>
<pdfrwt beam="2">0</pdfrwt>
<totfact> 0.44911435E+02</totfact>
</mgrwt>
</event>
<event>
 6    1  0.3125838E-002  0.3000000E+03  0.7818608E-02  0.1093470E+00
          1   -1    0    0  502    0  0.00000000000E+00  0.00000000000E+00  0.25383694007E+01  0.25383694007E+01  0.00000000000E+00 0.  1.
         13   -1    0    0    0    0 -0.00000000000E+00 -0.00000000000E+00 -0.10000000000E+04  0.10000000000E+04  0.00000000000E+00 0.  1.
    9000005    2    1    2  501    0 -0.30683758367E+02  0.38705959516E+02 -0.40368655349E+03  0.40671248332E+03  0.35448961684E+01 0.  0.
         13    1    3    3    0    0 -0.12093282521E+02  0.15896266745E+02 -0.17731838928E+03  0.17843976562E+03  0.00000000000E+00 0.  1.
          1    1    3    3  501    0 -0.18590475846E+02  0.22809692770E+02 -0.22636816421E+03  0.22827271770E+03  0.00000000000E+00 0.  1.
         21    1    1    2  502  501  0.30683758367E+02 -0.38705959516E+02 -0.59377507711E+03  0.59582588608E+03  0.00000000000E+00 0.  1.
<mgrwt>
<rscale>  1 0.30000000E+03</rscale>
<asrwt>0</asrwt>
<pdfrwt beam="1">  1        1 0.92304536E-02 0.30000000E+03</pdfrwt>
<pdfrwt beam="2">0</pdfrwt>
<totfact> 0.84426309E+02</totfact>
</mgrwt>
</event>
<event>
 6    1  0.3125838E-002  0.3000000E+03  0.7818608E-02  0.1093470E+00
          1   -1    0    0  502    0  0.00000000000E+00  0.00000000000E+00  0.24159900895E+01  0.24159900895E+01  0.00000000000E+00 0.  1.
         13   -1    0    0    0    0 -0.00000000000E+00 -0.00000000000E+00 -0.10000000000E+04  0.10000000000E+04  0.00000000000E+00 0.  1.
    9000005    2    1    2  501    0 -0.18948917447E+02  0.35772841456E+02 -0.78261380767E+03  0.78366740036E+03  0.33859665666E+01 0.  0.
         13    1    3    3    0    0 -0.18077164296E+02  0.34506959774E+02 -0.76280866076E+03  0.76380270167E+03  0.00000000000E+00 0.  1.
          3    1    3    3  501    0 -0.87175315097E+00  0.12658816826E+01 -0.19805146910E+02  0.19864698692E+02  0.00000000000E+00 0.  1.
         21    1    1    2  502  501  0.18948917447E+02 -0.35772841456E+02 -0.21497020224E+03  0.21874858973E+03  0.00000000000E+00 0.  1.
<mgrwt>
<rscale>  1 0.30000000E+03</rscale>
<asrwt>0</asrwt>
<pdfrwt beam="1">  1        1 0.87854370E-02 0.30000000E+03</pdfrwt>
<pdfrwt beam="2">0</pdfrwt>
<totfact> 0.90413695E+02</totfact>
</mgrwt>
</event>
<event>
 6    1  0.3125838E-002  0.3000000E+03  0.7818608E-02  0.1093470E+00
          3   -1    0    0  502    0  0.00000000000E+00  0.00000000000E+00  0.99162613162E+00  0.99162613162E+00  0.00000000000E+00 0.  1.
         13   -1    0    0    0    0 -0.00000000000E+00 -0.00000000000E+00 -0.10000000000E+04  0.10000000000E+04  0.00000000000E+00 0.  1.
    9000005    2    1    2  501    0  0.13704322055E+02  0.27641869029E+02 -0.40745644362E+03  0.40863567947E+03  0.32378574660E+01 0.  0.
         13    1    3    3    0    0  0.78281243482E+01  0.17689605319E+02 -0.27205746216E+03  0.27274432053E+03  0.00000000000E+00 0.  1.
          1    1    3    3  501    0  0.58761977066E+01  0.99522637097E+01 -0.13539898146E+03  0.13589135894E+03  0.00000000000E+00 0.  1.
         21    1    1    2  502  501 -0.13704322055E+02 -0.27641869029E+02 -0.59155193025E+03  0.59235594666E+03  0.00000000000E+00 0.  1.
<mgrwt>
<rscale>  1 0.30000000E+03</rscale>
<asrwt>0</asrwt>
<pdfrwt beam="1">  1        3 0.36059208E-02 0.30000000E+03</pdfrwt>
<pdfrwt beam="2">0</pdfrwt>
<totfact> 0.16366577E+03</totfact>
</mgrwt>
</event>
<event>
 6    1  0.3125838E-002  0.3000000E+03  0.7818608E-02  0.1093470E+00
          3   -1    0    0  502    0  0.00000000000E+00  0.00000000000E+00  0.18390257736E+01  0.18390257736E+01  0.00000000000E+00 0.  1.
         13   -1    0    0    0    0 -0.00000000000E+00 -0.00000000000E+00 -0.10000000000E+04  0.10000000000E+04  0.00000000000E+00 0.  1.
    9000005    2    1    2  501    0  0.44133699982E+01 -0.42310510853E+02 -0.50383332028E+03  0.50568432548E+03  0.76788835398E+01 0.  0.
         13    1    3    3    0    0  0.36633109969E+01 -0.13764379462E+02 -0.13584187797E+03  0.13658657987E+03  0.00000000000E+00 0.  1.
          1    1    3    3  501    0  0.75005900131E+00 -0.28546131391E+02 -0.36799144231E+03  0.36909774562E+03  0.00000000000E+00 0.  1.
         21    1    1    2  502  501 -0.44133699982E+01  0.42310510853E+02 -0.49432765395E+03  0.49615470029E+03  0.00000000000E+00 0.  1.
<mgrwt>
<rscale>  1 0.30000000E+03</rscale>
<asrwt>0</asrwt>
<pdfrwt beam="1">  1        3 0.66873806E-02 0.30000000E+03</pdfrwt>
<pdfrwt beam="2">0</pdfrwt>
<totfact> 0.62937051E+02</totfact>
</mgrwt>
</event>
<event>
 6    1  0.3125838E-002  0.3000000E+03  0.7818608E-02  0.1093470E+00
          1   -1    0    0  502    0  0.00000000000E+00  0.00000000000E+00  0.32945516244E+02  0.32945516244E+02  0.00000000000E+00 0.  1.
         13   -1    0    0    0    0 -0.00000000000E+00 -0.00000000000E+00 -0.10000000000E+04  0.10000000000E+04  0.00000000000E+00 0.  1.
    9000005    2    1    2  501    0 -0.76230212192E+02  0.52287457579E+02 -0.92797537648E+03  0.93258516503E+03  0.56362399632E+01 0.  0.
         13    1    3    3    0    0 -0.31741359755E+02  0.18750945245E+02 -0.35765581505E+03  0.35955082243E+03  0.00000000000E+00 0.  1.
          3    1    3    3  501    0 -0.44488852438E+02  0.33536512334E+02 -0.57031956143E+03  0.57303434260E+03  0.00000000000E+00 0.  1.
         21    1    1    2  502  501  0.76230212192E+02 -0.52287457579E+02 -0.39079107274E+02  0.10036035122E+03  0.00000000000E+00 0.  1.
<mgrwt>
<rscale>  1 0.30000000E+03</rscale>
<asrwt>0</asrwt>
<pdfrwt beam="1">  1        1 0.11980213E+00 0.30000000E+03</pdfrwt>
<pdfrwt beam="2">0</pdfrwt>
<totfact> 0.26063106E+01</totfact>
</mgrwt>
</event>
<event>
 6    1  0.3125838E-002  0.3000000E+03  0.7818608E-02  0.1093470E+00
          3   -1    0    0  502    0  0.00000000000E+00  0.00000000000E+00  0.81869074405E+01  0.81869074405E+01  0.00000000000E+00 0.  1.
         13   -1    0    0    0    0 -0.00000000000E+00 -0.00000000000E+00 -0.10000000000E+04  0.10000000000E+04  0.00000000000E+00 0.  1.
    9000005    2    1    2  501    0  0.38820124397E+02 -0.67326249793E+02 -0.23831496962E+03  0.25069152973E+03  0.35202794234E+01 0.  0.
         13    1    3    3    0    0  0.17142196905E+02 -0.28174839261E+02 -0.96124234357E+02  0.10162452909E+03  0.00000000000E+00 0.  1.
          1    1    3    3  501    0  0.21677927493E+02 -0.39151410532E+02 -0.14219073526E+03  0.14906700064E+03  0.00000000000E+00 0.  1.
         21    1    1    2  502  501 -0.38820124397E+02  0.67326249793E+02 -0.75349812294E+03  0.75749537771E+03  0.00000000000E+00 0.  1.
<mgrwt>
<rscale>  1 0.30000000E+03</rscale>
<asrwt>0</asrwt>
<pdfrwt beam="1">  1        3 0.29770635E-01 0.30000000E+03</pdfrwt>
<pdfrwt beam="2">0</pdfrwt>
<totfact> 0.47451176E+01</totfact>
</mgrwt>
</event>
<event>
 6    1  0.3125838E-002  0.3000000E+03  0.7818608E-02  0.1093470E+00
          1   -1    0    0  502    0  0.00000000000E+00  0.00000000000E+00  0.21183243128E+01  0.21183243128E+01  0.00000000000E+00 0.  1.
         13   -1    0    0    0    0 -0.00000000000E+00 -0.00000000000E+00 -0.10000000000E+04  0.10000000000E+04  0.00000000000E+00 0.  1.
    9000005    2    1    2  501    0  0.30706306800E+02 -0.17818311879E+01 -0.87119187356E+03  0.87174824277E+03  0.48647720757E+01 0.  0.
         13    1    3    3    0    0  0.98417649159E+01 -0.11766090580E+01 -0.22257473926E+03  0.22279533052E+03  0.00000000000E+00 0.  1.
          1    1    3    3  501    0  0.20864541885E+02 -0.60522212989E+00 -0.64861713431E+03  0.64895291225E+03  0.00000000000E+00 0.  1.
         21    1    1    2  502  501 -0.30706306800E+02  0.17818311879E+01 -0.12668980212E+03  0.13037008154E+03  0.00000000000E+00 0.  1.
<mgrwt>
<rscale>  1 0.30000000E+03</rscale>
<asrwt>0</asrwt>
<pdfrwt beam="1">  1        1 0.77030137E-02 0.30000000E+03</pdfrwt>
<pdfrwt beam="2">0</pdfrwt>
<totfact> 0.10855804E+03</totfact>
</mgrwt>
</event>
<event>
 6    1  0.3125838E-002  0.3000000E+03  0.7818608E-02  0.1093470E+00
          1   -1    0    0  502    0  0.00000000000E+00  0.00000000000E+00  0.53512016786E+01  0.53512016786E+01  0.00000000000E+00 0.  1.
         13   -1    0    0    0    0 -0.00000000000E+00 -0.00000000000E+00 -0.10000000000E+04  0.10000000000E+04  0.00000000000E+00 0.  1.
    9000005    2    1    2  501    0  0.31624527051E+02  0.30327098755E+02 -0.89978359983E+03  0.90085598880E+03  0.33380233828E+01 0.  0.
         13    1    3    3    0    0  0.27827214694E+02  0.25235181641E+02 -0.78007730492E+03  0.78098128654E+03  0.00000000000E+00 0.  1.
          3    1    3    3  501    0  0.37973123573E+01  0.50919171140E+01 -0.11970629491E+03  0.11987470226E+03  0.00000000000E+00 0.  1.
         21    1    1    2  502  501 -0.31624527051E+02 -0.30327098755E+02 -0.94865198491E+02  0.10449521288E+03  0.00000000000E+00 0.  1.
<mgrwt>
<rscale>  1 0.30000000E+03</rscale>
<asrwt>0</asrwt>
<pdfrwt beam="1">  1        1 0.19458956E-01 0.30000000E+03</pdfrwt>
<pdfrwt beam="2">0</pdfrwt>
<totfact> 0.30542270E+02</totfact>
</mgrwt>
</event>
<event>
 6    1  0.3125838E-002  0.3000000E+03  0.7818608E-02  0.1093470E+00
          1   -1    0    0  502    0  0.00000000000E+00  0.00000000000E+00  0.31543243059E+01  0.31543243059E+01  0.00000000000E+00 0.  1.
         13   -1    0    0    0    0 -0.00000000000E+00 -0.00000000000E+00 -0.10000000000E+04  0.10000000000E+04  0.00000000000E+00 0.  1.
    9000005    2    1    2  501    0 -0.16215013159E+02 -0.28207585677E+02 -0.90716307011E+03  0.90775220543E+03  0.32613113103E+01 0.  0.
         13    1    3    3    0    0 -0.98096133443E+01 -0.19374163642E+02 -0.63147232074E+03  0.63184561294E+03  0.00000000000E+00 0.  1.
          3    1    3    3  501    0 -0.64053998149E+01 -0.88334220349E+01 -0.27569074937E+03  0.27590659249E+03  0.00000000000E+00 0.  1.
         21    1    1    2  502  501  0.16215013159E+02  0.28207585677E+02 -0.89682605580E+02  0.95402118871E+02  0.00000000000E+00 0.  1.
<mgrwt>
<rscale>  1 0.30000000E+03</rscale>
<asrwt>0</asrwt>
<pdfrwt beam="1">  1        1 0.11470294E-01 0.30000000E+03</pdfrwt>
<pdfrwt beam="2">0</pdfrwt>
<totfact> 0.62574262E+02</totfact>
</mgrwt>
</event>
<event>
 6    1  0.4542461E-002  0.3000000E+03  0.7818608E-02  0.1093470E+00
          3   -1    0    0  502    0  0.00000000000E+00  0.00000000000E+00  0.47505572190E+01  0.47505572190E+01  0.00000000000E+00 0.  1.
         13   -1    0    0    0    0 -0.00000000000E+00 -0.00000000000E+00 -0.10000000000E+04  0.10000000000E+04  0.00000000000E+00 0.  1.
    9000005    2    1    2  501    0  0.60796699978E+02  0.25432821589E+02 -0.63673699629E+03  0.64023136508E+03  0.10914726607E+02 0.  0.
         13    1    3    3    0    0  0.34134508029E+02  0.16174352569E+02 -0.41231062073E+03  0.41403722331E+03  0.00000000000E+00 0.  1.
          1    1    3    3  501    0  0.26662191949E+02  0.92584690207E+01 -0.22442637556E+03  0.22619414178E+03  0.00000000000E+00 0.  1.
         21    1    1    2  502  501 -0.60796699978E+02 -0.25432821589E+02 -0.35851244650E+03  0.36451919213E+03  0.00000000000E+00 0.  1.
<mgrwt>
<rscale>  1 0.30000000E+03</rscale>
<asrwt>0</asrwt>
<pdfrwt beam="1">  1        3 0.17274790E-01 0.30000000E+03</pdfrwt>
<pdfrwt beam="2">0</pdfrwt>
<totfact> 0.12997175E+02</totfact>
</mgrwt>
</event>
<event>
 6    1  0.3125838E-002  0.3000000E+03  0.7818608E-02  0.1093470E+00
          3   -1    0    0  502    0  0.00000000000E+00  0.00000000000E+00  0.13917537143E+01  0.13917537143E+01  0.00000000000E+00 0.  1.
         13   -1    0    0    0    0 -0.00000000000E+00 -0.00000000000E+00 -0.10000000000E+04  0.10000000000E+04  0.00000000000E+00 0.  1.
    9000005    2    1    2  501    0 -0.11413867075E+02 -0.30459970417E+02 -0.74347678012E+03  0.74419503681E+03  0.32317291256E+01 0.  0.
         13    1    3    3    0    0 -0.82771085850E+01 -0.24822267014E+02 -0.61498194484E+03  0.61553833995E+03  0.00000000000E+00 0.  1.
          3    1    3    3  501    0 -0.31367584895E+01 -0.56377034023E+01 -0.12849483528E+03  0.12865669686E+03  0.00000000000E+00 0.  1.
         21    1    1    2  502  501  0.11413867075E+02  0.30459970417E+02 -0.25513146616E+03  0.25719671690E+03  0.00000000000E+00 0.  1.
<mgrwt>
<rscale>  1 0.30000000E+03</rscale>
<asrwt>0</asrwt>
<pdfrwt beam="1">  1        3 0.50609333E-02 0.30000000E+03</pdfrwt>
<pdfrwt beam="2">0</pdfrwt>
<totfact> 0.97106321E+02</totfact>
</mgrwt>
</event>
<event>
 6    1  0.3125838E-002  0.3000000E+03  0.7818608E-02  0.1093470E+00
          1   -1    0    0  502    0  0.00000000000E+00  0.00000000000E+00  0.10895824133E+01  0.10895824133E+01  0.00000000000E+00 0.  1.
         13   -1    0    0    0    0 -0.00000000000E+00 -0.00000000000E+00 -0.10000000000E+04  0.10000000000E+04  0.00000000000E+00 0.  1.
    9000005    2    1    2  501    0  0.31147043228E+02 -0.86509075196E+01 -0.42440346195E+03  0.42567389044E+03  0.59148945986E+01 0.  0.
         13    1    3    3    0    0  0.11467421381E+02 -0.43491991911E+01 -0.12779472996E+03  0.12838189239E+03  0.00000000000E+00 0.  1.
          3    1    3    3  501    0  0.19679621847E+02 -0.43017083286E+01 -0.29660873199E+03  0.29729199805E+03  0.00000000000E+00 0.  1.
         21    1    1    2  502  501 -0.31147043228E+02  0.86509075196E+01 -0.57450695563E+03  0.57541569198E+03  0.00000000000E+00 0.  1.
<mgrwt>
<rscale>  1 0.30000000E+03</rscale>
<asrwt>0</asrwt>
<pdfrwt beam="1">  1        1 0.39621262E-02 0.30000000E+03</pdfrwt>
<pdfrwt beam="2">0</pdfrwt>
<totfact> 0.27596703E+03</totfact>
</mgrwt>
</event>
<event>
 6    1  0.3125838E-002  0.3000000E+03  0.7818608E-02  0.1093470E+00
          1   -1    0    0  502    0  0.00000000000E+00  0.00000000000E+00  0.21863669155E+01  0.21863669155E+01  0.00000000000E+00 0.  1.
         13   -1    0    0    0    0 -0.00000000000E+00 -0.00000000000E+00 -0.10000000000E+04  0.10000000000E+04  0.00000000000E+00 0.  1.
    9000005    2    1    2  501    0 -0.20699726832E+02 -0.37065581874E+02 -0.70805229152E+03  0.70933150334E+03  0.32860406162E+01 0.  0.
         13    1    3    3    0    0 -0.16576610977E+00 -0.75156347099E+00 -0.78747392992E+01  0.79122591644E+01  0.00000000000E+00 0.  1.
          1    1    3    3  501    0 -0.20533960722E+02 -0.36314018403E+02 -0.70017755222E+03  0.70141924418E+03  0.00000000000E+00 0.  1.
         21    1    1    2  502  501  0.20699726832E+02  0.37065581874E+02 -0.28976134157E+03  0.29285486357E+03  0.00000000000E+00 0.  1.
<mgrwt>
<rscale>  1 0.30000000E+03</rscale>
<asrwt>0</asrwt>
<pdfrwt beam="1">  1        1 0.79504419E-02 0.30000000E+03</pdfrwt>
<pdfrwt beam="2">0</pdfrwt>
<totfact> 0.10387916E+03</totfact>
</mgrwt>
</event>
<event>
 6    1  0.3125838E-002  0.3000000E+03  0.7818608E-02  0.1093470E+00
          3   -1    0    0  502    0  0.00000000000E+00  0.00000000000E+00  0.47588572943E+01  0.47588572943E+01  0.00000000000E+00 0.  1.
         13   -1    0    0    0    0 -0.00000000000E+00 -0.00000000000E+00 -0.10000000000E+04  0.10000000000E+04  0.00000000000E+00 0.  1.
    9000005    2    1    2  501    0 -0.15651149468E+02  0.62981652767E+02 -0.66743015454E+03  0.67058571202E+03  0.32463674862E+01 0.  0.
         13    1    3    3    0    0 -0.14462125377E+02  0.53791124453E+02 -0.57624831553E+03  0.57893415800E+03  0.00000000000E+00 0.  1.
          3    1    3    3  501    0 -0.11890240912E+01  0.91905283142E+01 -0.91181839012E+02  0.91651554021E+02  0.00000000000E+00 0.  1.
         21    1    1    2  502  501  0.15651149468E+02 -0.62981652767E+02 -0.32781098816E+03  0.33417314528E+03  0.00000000000E+00 0.  1.
<mgrwt>
<rscale>  1 0.30000000E+03</rscale>
<asrwt>0</asrwt>
<pdfrwt beam="1">  1        3 0.17304972E-01 0.30000000E+03</pdfrwt>
<pdfrwt beam="2">0</pdfrwt>
<totfact> 0.12957059E+02</totfact>
</mgrwt>
</event>
<event>
 6    1  0.3125838E-002  0.3000000E+03  0.7818608E-02  0.1093470E+00
          3   -1    0    0  502    0  0.00000000000E+00  0.00000000000E+00  0.12230163716E+01  0.12230163716E+01  0.00000000000E+00 0.  1.
         13   -1    0    0    0    0 -0.00000000000E+00 -0.00000000000E+00 -0.10000000000E+04  0.10000000000E+04  0.00000000000E+00 0.  1.
    9000005    2    1    2  501    0 -0.11536243465E+02  0.30271343803E+02 -0.68606511054E+03  0.68683765612E+03  0.33452649799E+01 0.  0.
         13    1    3    3    0    0 -0.39536844596E+01  0.10965662070E+02 -0.21425748077E+03  0.21457433544E+03  0.00000000000E+00 0.  1.
          3    1    3    3  501    0 -0.75825590049E+01  0.19305681733E+02 -0.47180762978E+03  0.47226332068E+03  0.00000000000E+00 0.  1.
         21    1    1    2  502  501  0.11536243465E+02 -0.30271343803E+02 -0.31271187309E+03  0.31438536025E+03  0.00000000000E+00 0.  1.
<mgrwt>
<rscale>  1 0.30000000E+03</rscale>
<asrwt>0</asrwt>
<pdfrwt beam="1">  1        3 0.44473416E-02 0.30000000E+03</pdfrwt>
<pdfrwt beam="2">0</pdfrwt>
<totfact> 0.11854136E+03</totfact>
</mgrwt>
</event>
<event>
 6    1  0.3125838E-002  0.3000000E+03  0.7818608E-02  0.1093470E+00
          1   -1    0    0  502    0  0.00000000000E+00  0.00000000000E+00  0.92837567768E+00  0.92837567768E+00  0.00000000000E+00 0.  1.
         13   -1    0    0    0    0 -0.00000000000E+00 -0.00000000000E+00 -0.10000000000E+04  0.10000000000E+04  0.00000000000E+00 0.  1.
    9000005    2    1    2  501    0  0.20226306487E+02  0.22537397833E+02 -0.53346723697E+03  0.53434024542E+03  0.38945064419E+01 0.  0.
         13    1    3    3    0    0  0.10621478106E+02  0.10435342216E+02 -0.23198192411E+03  0.23245929811E+03  0.00000000000E+00 0.  1.
          3    1    3    3  501    0  0.96048283810E+01  0.12102055617E+02 -0.30148531287E+03  0.30188094732E+03  0.00000000000E+00 0.  1.
         21    1    1    2  502  501 -0.20226306487E+02 -0.22537397833E+02 -0.46560438735E+03  0.46658813025E+03  0.00000000000E+00 0.  1.
<mgrwt>
<rscale>  1 0.30000000E+03</rscale>
<asrwt>0</asrwt>
<pdfrwt beam="1">  1        1 0.33759187E-02 0.30000000E+03</pdfrwt>
<pdfrwt beam="2">0</pdfrwt>
<totfact> 0.34569682E+03</totfact>
</mgrwt>
</event>
<event>
 6    1  0.3125838E-002  0.3000000E+03  0.7818608E-02  0.1093470E+00
          1   -1    0    0  502    0  0.00000000000E+00  0.00000000000E+00  0.12207052053E+02  0.12207052053E+02  0.00000000000E+00 0.  1.
         13   -1    0    0    0    0 -0.00000000000E+00 -0.00000000000E+00 -0.10000000000E+04  0.10000000000E+04  0.00000000000E+00 0.  1.
    9000005    2    1    2  501    0  0.69261941135E+02 -0.87343812771E+01 -0.88613792747E+03  0.88888937654E+03  0.32235564862E+01 0.  0.
         13    1    3    3    0    0  0.36664032676E+02 -0.58260989332E+01 -0.45720701762E+03  0.45871173048E+03  0.00000000000E+00 0.  1.
          3    1    3    3  501    0  0.32597908460E+02 -0.29082823440E+01 -0.42893090985E+03  0.43017764606E+03  0.00000000000E+00 0.  1.
         21    1    1    2  502  501 -0.69261941135E+02  0.87343812771E+01 -0.10165502048E+03  0.12331767551E+03  0.00000000000E+00 0.  1.
<mgrwt>
<rscale>  1 0.30000000E+03</rscale>
<asrwt>0</asrwt>
<pdfrwt beam="1">  1        1 0.44389374E-01 0.30000000E+03</pdfrwt>
<pdfrwt beam="2">0</pdfrwt>
<totfact> 0.10314834E+02</totfact>
</mgrwt>
</event>
<event>
 6    1  0.3125838E-002  0.3000000E+03  0.7818608E-02  0.1093470E+00
          1   -1    0    0  502    0  0.00000000000E+00  0.00000000000E+00  0.67117696350E+01  0.67117696350E+01  0.00000000000E+00 0.  1.
         13   -1    0    0    0    0 -0.00000000000E+00 -0.00000000000E+00 -0.10000000000E+04  0.10000000000E+04  0.00000000000E+00 0.  1.
    9000005    2    1    2  501    0 -0.17196905807E+02  0.64035718291E+02 -0.79218784189E+03  0.79496268928E+03  0.27917239749E+01 0.  0.
         13    1    3    3    0    0 -0.79616370043E+00  0.53007653398E+01 -0.58716974674E+02  0.58961132153E+02  0.00000000000E+00 0.  1.
          3    1    3    3  501    0 -0.16400742106E+02  0.58734952951E+02 -0.73347086722E+03  0.73600155713E+03  0.00000000000E+00 0.  1.
         21    1    1    2  502  501  0.17196905807E+02 -0.64035718291E+02 -0.20110038847E+03  0.21174908035E+03  0.00000000000E+00 0.  1.
<mgrwt>
<rscale>  1 0.30000000E+03</rscale>
<asrwt>0</asrwt>
<pdfrwt beam="1">  1        1 0.24406487E-01 0.30000000E+03</pdfrwt>
<pdfrwt beam="2">0</pdfrwt>
<totfact> 0.22599926E+02</totfact>
</mgrwt>
</event>
<event>
 6    1  0.3125838E-002  0.3000000E+03  0.7818608E-02  0.1093470E+00
          1   -1    0    0  502    0  0.00000000000E+00  0.00000000000E+00  0.10859230454E+02  0.10859230454E+02  0.00000000000E+00 0.  1.
         13   -1    0    0    0    0 -0.00000000000E+00 -0.00000000000E+00 -0.10000000000E+04  0.10000000000E+04  0.00000000000E+00 0.  1.
    9000005    2    1    2  501    0 -0.35242604341E+02  0.61611490560E+02 -0.86445203050E+03  0.86738345349E+03  0.62229758909E+01 0.  0.
         13    1    3    3    0    0 -0.25730275902E+02  0.41976935879E+02 -0.56821983194E+03  0.57034891746E+03  0.00000000000E+00 0.  1.
          3    1    3    3  501    0 -0.95123284386E+01  0.19634554682E+02 -0.29623219856E+03  0.29703453603E+03  0.00000000000E+00 0.  1.
         21    1    1    2  502  501  0.35242604341E+02 -0.61611490560E+02 -0.12468873905E+03  0.14347577696E+03  0.00000000000E+00 0.  1.
<mgrwt>
<rscale>  1 0.30000000E+03</rscale>
<asrwt>0</asrwt>
<pdfrwt beam="1">  1        1 0.39488194E-01 0.30000000E+03</pdfrwt>
<pdfrwt beam="2">0</pdfrwt>
<totfact> 0.12021138E+02</totfact>
</mgrwt>
</event>
<event>
 6    1  0.3125838E-002  0.3000000E+03  0.7818608E-02  0.1093470E+00
          1   -1    0    0  502    0  0.00000000000E+00  0.00000000000E+00  0.10693334628E+01  0.10693334628E+01  0.00000000000E+00 0.  1.
         13   -1    0    0    0    0 -0.00000000000E+00 -0.00000000000E+00 -0.10000000000E+04  0.10000000000E+04  0.00000000000E+00 0.  1.
    9000005    2    1    2  501    0  0.28748529184E+02  0.13216784685E+02 -0.56772402955E+03  0.56870337144E+03  0.10573061972E+02 0.  0.
         13    1    3    3    0    0  0.19308224168E+02  0.53848144729E+01 -0.41678624804E+03  0.41726799578E+03  0.00000000000E+00 0.  1.
          1    1    3    3  501    0  0.94403050160E+01  0.78319702124E+01 -0.15093778151E+03  0.15143537566E+03  0.00000000000E+00 0.  1.
         21    1    1    2  502  501 -0.28748529184E+02 -0.13216784685E+02 -0.43120663699E+03  0.43236596202E+03  0.00000000000E+00 0.  1.
<mgrwt>
<rscale>  1 0.30000000E+03</rscale>
<asrwt>0</asrwt>
<pdfrwt beam="1">  1        1 0.38884935E-02 0.30000000E+03</pdfrwt>
<pdfrwt beam="2">0</pdfrwt>
<totfact> 0.28335237E+03</totfact>
</mgrwt>
</event>
<event>
 6    1  0.3125838E-002  0.3000000E+03  0.7818608E-02  0.1093470E+00
          1   -1    0    0  502    0  0.00000000000E+00  0.00000000000E+00  0.12765044660E+01  0.12765044660E+01  0.00000000000E+00 0.  1.
         13   -1    0    0    0    0 -0.00000000000E+00 -0.00000000000E+00 -0.10000000000E+04  0.10000000000E+04  0.00000000000E+00 0.  1.
    9000005    2    1    2  501    0 -0.11341701911E+01  0.32181876121E+02 -0.71500630515E+03  0.71573770918E+03  0.30809817592E+01 0.  0.
         13    1    3    3    0    0 -0.15432009370E+01  0.24767814660E+02 -0.57366026017E+03  0.57419676088E+03  0.00000000000E+00 0.  1.
          1    1    3    3  501    0  0.40903074591E+00  0.74140614618E+01 -0.14134604498E+03  0.14154094830E+03  0.00000000000E+00 0.  1.
         21    1    1    2  502  501  0.11341701911E+01 -0.32181876121E+02 -0.28371719039E+03  0.28553879529E+03  0.00000000000E+00 0.  1.
<mgrwt>
<rscale>  1 0.30000000E+03</rscale>
<asrwt>0</asrwt>
<pdfrwt beam="1">  1        1 0.46418442E-02 0.30000000E+03</pdfrwt>
<pdfrwt beam="2">0</pdfrwt>
<totfact> 0.22083128E+03</totfact>
</mgrwt>
</event>
<event>
 6    1  0.3125838E-002  0.3000000E+03  0.7818608E-02  0.1093470E+00
          1   -1    0    0  502    0  0.00000000000E+00  0.00000000000E+00  0.14543373257E+02  0.14543373257E+02  0.00000000000E+00 0.  1.
         13   -1    0    0    0    0 -0.00000000000E+00 -0.00000000000E+00 -0.10000000000E+04  0.10000000000E+04  0.00000000000E+00 0.  1.
    9000005    2    1    2  501    0 -0.24438608745E+02 -0.19361300442E+02 -0.98270512611E+03  0.98324359198E+03  0.93000392495E+01 0.  0.
         13    1    3    3    0    0 -0.11972243295E+02 -0.58929757068E+01 -0.30801546527E+03  0.30830437657E+03  0.00000000000E+00 0.  1.
          3    1    3    3  501    0 -0.12466365450E+02 -0.13468324735E+02 -0.67468966085E+03  0.67493921541E+03  0.00000000000E+00 0.  1.
         21    1    1    2  502  501  0.24438608745E+02  0.19361300442E+02 -0.27515006289E+01  0.31299781276E+02  0.00000000000E+00 0.  1.
<mgrwt>
<rscale>  1 0.30000000E+03</rscale>
<asrwt>0</asrwt>
<pdfrwt beam="1">  1        1 0.52885105E-01 0.30000000E+03</pdfrwt>
<pdfrwt beam="2">0</pdfrwt>
<totfact> 0.81965437E+01</totfact>
</mgrwt>
</event>
<event>
 6    1  0.3125838E-002  0.3000000E+03  0.7818608E-02  0.1093470E+00
          3   -1    0    0  502    0  0.00000000000E+00  0.00000000000E+00  0.14838126051E+01  0.14838126051E+01  0.00000000000E+00 0.  1.
         13   -1    0    0    0    0 -0.00000000000E+00 -0.00000000000E+00 -0.10000000000E+04  0.10000000000E+04  0.00000000000E+00 0.  1.
    9000005    2    1    2  501    0 -0.32971645193E+02  0.17279114331E+02 -0.37654843538E+03  0.37840309414E+03  0.38052972923E+01 0.  0.
         13    1    3    3    0    0 -0.19711930914E+02  0.10794772019E+02 -0.20853351194E+03  0.20974106161E+03  0.00000000000E+00 0.  1.
          1    1    3    3  501    0 -0.13259714279E+02  0.64843423125E+01 -0.16801492345E+03  0.16866203254E+03  0.00000000000E+00 0.  1.
         21    1    1    2  502  501  0.32971645193E+02 -0.17279114331E+02 -0.62196775201E+03  0.62308071846E+03  0.00000000000E+00 0.  1.
<mgrwt>
<rscale>  1 0.30000000E+03</rscale>
<asrwt>0</asrwt>
<pdfrwt beam="1">  1        3 0.53956936E-02 0.30000000E+03</pdfrwt>
<pdfrwt beam="2">0</pdfrwt>
<totfact> 0.87951336E+02</totfact>
</mgrwt>
</event>
<event>
 6    1  0.3125838E-002  0.3000000E+03  0.7818608E-02  0.1093470E+00
          1   -1    0    0  502    0  0.00000000000E+00  0.00000000000E+00  0.50826901076E+01  0.50826901076E+01  0.00000000000E+00 0.  1.
         13   -1    0    0    0    0 -0.00000000000E+00 -0.00000000000E+00 -0.10000000000E+04  0.10000000000E+04  0.00000000000E+00 0.  1.
    9000005    2    1    2  501    0  0.33191695500E+02 -0.39127688918E+02 -0.84624238497E+03  0.84780300931E+03  0.33322349188E+01 0.  0.
         13    1    3    3    0    0  0.21961457766E+02 -0.26794090235E+02 -0.59454213510E+03  0.59555065218E+03  0.00000000000E+00 0.  1.
          1    1    3    3  501    0  0.11230237734E+02 -0.12333598683E+02 -0.25170024987E+03  0.25225235714E+03  0.00000000000E+00 0.  1.
         21    1    1    2  502  501 -0.33191695500E+02  0.39127688918E+02 -0.14867492492E+03  0.15727968079E+03  0.00000000000E+00 0.  1.
<mgrwt>
<rscale>  1 0.30000000E+03</rscale>
<asrwt>0</asrwt>
<pdfrwt beam="1">  1        1 0.18482548E-01 0.30000000E+03</pdfrwt>
<pdfrwt beam="2">0</pdfrwt>
<totfact> 0.32724746E+02</totfact>
</mgrwt>
</event>
<event>
 6    1  0.3125838E-002  0.3000000E+03  0.7818608E-02  0.1093470E+00
          1   -1    0    0  502    0  0.00000000000E+00  0.00000000000E+00  0.19882900305E+01  0.19882900305E+01  0.00000000000E+00 0.  1.
         13   -1    0    0    0    0 -0.00000000000E+00 -0.00000000000E+00 -0.10000000000E+04  0.10000000000E+04  0.00000000000E+00 0.  1.
    9000005    2    1    2  501    0  0.17957644716E+02  0.40673359919E+02 -0.52473708575E+03  0.52662982619E+03  0.36284245784E+01 0.  0.
         13    1    3    3    0    0  0.16217362562E+02  0.36729358882E+02 -0.45970772002E+03  0.46145772992E+03  0.00000000000E+00 0.  1.
          3    1    3    3  501    0  0.17402821538E+01  0.39440010372E+01 -0.65029365727E+02  0.65172096276E+02  0.00000000000E+00 0.  1.
         21    1    1    2  502  501 -0.17957644716E+02 -0.40673359919E+02 -0.47327462422E+03  0.47535846384E+03  0.00000000000E+00 0.  1.
<mgrwt>
<rscale>  1 0.30000000E+03</rscale>
<asrwt>0</asrwt>
<pdfrwt beam="1">  1        1 0.72301608E-02 0.30000000E+03</pdfrwt>
<pdfrwt beam="2">0</pdfrwt>
<totfact> 0.11859525E+03</totfact>
</mgrwt>
</event>
<event>
 6    1  0.3125838E-002  0.3000000E+03  0.7818608E-02  0.1093470E+00
          1   -1    0    0  502    0  0.00000000000E+00  0.00000000000E+00  0.39392695334E+01  0.39392695334E+01  0.00000000000E+00 0.  1.
         13   -1    0    0    0    0 -0.00000000000E+00 -0.00000000000E+00 -0.10000000000E+04  0.10000000000E+04  0.00000000000E+00 0.  1.
    9000005    2    1    2  501    0 -0.56181985436E+02  0.26737194881E+02 -0.56304409602E+03  0.56647532955E+03  0.20861085676E+01 0.  0.
         13    1    3    3    0    0 -0.81024539136E+01  0.35836664257E+01 -0.86615883729E+02  0.87067811151E+02  0.00000000000E+00 0.  1.
          1    1    3    3  501    0 -0.48079531523E+02  0.23153528455E+02 -0.47642821229E+03  0.47940751839E+03  0.00000000000E+00 0.  1.
         21    1    1    2  502  501  0.56181985436E+02 -0.26737194881E+02 -0.43301663445E+03  0.43746393999E+03  0.00000000000E+00 0.  1.
<mgrwt>
<rscale>  1 0.30000000E+03</rscale>
<asrwt>0</asrwt>
<pdfrwt beam="1">  1        1 0.14324647E-01 0.30000000E+03</pdfrwt>
<pdfrwt beam="2">0</pdfrwt>
<totfact> 0.46182856E+02</totfact>
</mgrwt>
</event>
<event>
 6    1  0.3125838E-002  0.3000000E+03  0.7818608E-02  0.1093470E+00
          1   -1    0    0  502    0  0.00000000000E+00  0.00000000000E+00  0.29287737609E+01  0.29287737609E+01  0.00000000000E+00 0.  1.
         13   -1    0    0    0    0 -0.00000000000E+00 -0.00000000000E+00 -0.10000000000E+04  0.10000000000E+04  0.00000000000E+00 0.  1.
    9000005    2    1    2  501    0  0.44526184280E+02  0.27279698321E+02 -0.62793000981E+03  0.63011246417E+03  0.43424947828E+01 0.  0.
         13    1    3    3    0    0  0.39311344786E+02  0.22355905756E+02 -0.53960183555E+03  0.54149359117E+03  0.00000000000E+00 0.  1.
          3    1    3    3  501    0  0.52148394938E+01  0.49237925653E+01 -0.88328174259E+02  0.88618873002E+02  0.00000000000E+00 0.  1.
         21    1    1    2  502  501 -0.44526184280E+02 -0.27279698321E+02 -0.36914121643E+03  0.37281630959E+03  0.00000000000E+00 0.  1.
<mgrwt>
<rscale>  1 0.30000000E+03</rscale>
<asrwt>0</asrwt>
<pdfrwt beam="1">  1        1 0.10650109E-01 0.30000000E+03</pdfrwt>
<pdfrwt beam="2">0</pdfrwt>
<totfact> 0.69290061E+02</totfact>
</mgrwt>
</event>
<event>
 6    1  0.3125838E-002  0.3000000E+03  0.7818608E-02  0.1093470E+00
          3   -1    0    0  502    0  0.00000000000E+00  0.00000000000E+00  0.16789134914E+01  0.16789134914E+01  0.00000000000E+00 0.  1.
         13   -1    0    0    0    0 -0.00000000000E+00 -0.00000000000E+00 -0.10000000000E+04  0.10000000000E+04  0.00000000000E+00 0.  1.
    9000005    2    1    2  501    0  0.36117442383E+02 -0.73180205617E+01 -0.71709624839E+03  0.71804987294E+03  0.32507699128E+01 0.  0.
         13    1    3    3    0    0  0.11035449103E+02 -0.14627983275E+01 -0.24217826340E+03  0.24243397489E+03  0.00000000000E+00 0.  1.
          1    1    3    3  501    0  0.25081993280E+02 -0.58552222342E+01 -0.47491798499E+03  0.47561589805E+03  0.00000000000E+00 0.  1.
         21    1    1    2  502  501 -0.36117442383E+02  0.73180205617E+01 -0.28122483812E+03  0.28362904055E+03  0.00000000000E+00 0.  1.
<mgrwt>
<rscale>  1 0.30000000E+03</rscale>
<asrwt>0</asrwt>
<pdfrwt beam="1">  1        3 0.61051528E-02 0.30000000E+03</pdfrwt>
<pdfrwt beam="2">0</pdfrwt>
<totfact> 0.72576436E+02</totfact>
</mgrwt>
</event>
<event>
 6    1  0.3125838E-002  0.3000000E+03  0.7818608E-02  0.1093470E+00
          1   -1    0    0  502    0  0.00000000000E+00  0.00000000000E+00  0.76118556052E+01  0.76118556052E+01  0.00000000000E+00 0.  1.
         13   -1    0    0    0    0 -0.00000000000E+00 -0.00000000000E+00 -0.10000000000E+04  0.10000000000E+04  0.00000000000E+00 0.  1.
    9000005    2    1    2  501    0  0.23202606555E+01  0.40666527918E+02 -0.94169470785E+03  0.94258128886E+03  0.33783446870E+01 0.  0.
         13    1    3    3    0    0 -0.14427896803E-01  0.93584941600E+00 -0.12696050239E+02  0.12730503288E+02  0.00000000000E+00 0.  1.
          1    1    3    3  501    0  0.23346885523E+01  0.39730678502E+02 -0.92899865762E+03  0.92985078558E+03  0.00000000000E+00 0.  1.
         21    1    1    2  502  501 -0.23202606555E+01 -0.40666527918E+02 -0.50693436540E+02  0.65030566741E+02  0.00000000000E+00 0.  1.
<mgrwt>
<rscale>  1 0.30000000E+03</rscale>
<asrwt>0</asrwt>
<pdfrwt beam="1">  1        1 0.27679533E-01 0.30000000E+03</pdfrwt>
<pdfrwt beam="2">0</pdfrwt>
<totfact> 0.19142266E+02</totfact>
</mgrwt>
</event>
<event>
 6    1  0.3125838E-002  0.3000000E+03  0.7818608E-02  0.1093470E+00
          1   -1    0    0  502    0  0.00000000000E+00  0.00000000000E+00  0.49779682212E+01  0.49779682212E+01  0.00000000000E+00 0.  1.
         13   -1    0    0    0    0 -0.00000000000E+00 -0.00000000000E+00 -0.10000000000E+04  0.10000000000E+04  0.00000000000E+00 0.  1.
    9000005    2    1    2  501    0 -0.14707489396E+02  0.47213175548E+02 -0.85575997805E+03  0.85719666427E+03  0.39480385866E+01 0.  0.
         13    1    3    3    0    0 -0.38611676098E+01  0.18703817885E+02 -0.32242789300E+03  0.32299301479E+03  0.00000000000E+00 0.  1.
          3    1    3    3  501    0 -0.10846321786E+02  0.28509357662E+02 -0.53333208505E+03  0.53420364948E+03  0.00000000000E+00 0.  1.
         21    1    1    2  502  501  0.14707489396E+02 -0.47213175548E+02 -0.13926205373E+03  0.14778130395E+03  0.00000000000E+00 0.  1.
<mgrwt>
<rscale>  1 0.30000000E+03</rscale>
<asrwt>0</asrwt>
<pdfrwt beam="1">  1        1 0.18101741E-01 0.30000000E+03</pdfrwt>
<pdfrwt beam="2">0</pdfrwt>
<totfact> 0.33652692E+02</totfact>
</mgrwt>
</event>
<event>
 6    1  0.3125838E-002  0.3000000E+03  0.7818608E-02  0.1093470E+00
          3   -1    0    0  502    0  0.00000000000E+00  0.00000000000E+00  0.23579571533E+01  0.23579571533E+01  0.00000000000E+00 0.  1.
         13   -1    0    0    0    0 -0.00000000000E+00 -0.00000000000E+00 -0.10000000000E+04  0.10000000000E+04  0.00000000000E+00 0.  1.
    9000005    2    1    2  501    0 -0.30496174856E+02 -0.27808672356E+02 -0.76245412775E+03  0.76357626953E+03  0.30138878298E+01 0.  0.
         13    1    3    3    0    0 -0.17951628896E+01 -0.11816152275E+01 -0.30274522128E+02  0.30350708632E+02  0.00000000000E+00 0.  1.
          3    1    3    3  501    0 -0.28701011966E+02 -0.26627057129E+02 -0.73217960562E+03  0.73322556089E+03  0.00000000000E+00 0.  1.
         21    1    1    2  502  501  0.30496174856E+02  0.27808672356E+02 -0.23518791510E+03  0.23878168763E+03  0.00000000000E+00 0.  1.
<mgrwt>
<rscale>  1 0.30000000E+03</rscale>
<asrwt>0</asrwt>
<pdfrwt beam="1">  1        3 0.85744077E-02 0.30000000E+03</pdfrwt>
<pdfrwt beam="2">0</pdfrwt>
<totfact> 0.42409247E+02</totfact>
</mgrwt>
</event>
<event>
 6    1  0.3125838E-002  0.3000000E+03  0.7818608E-02  0.1093470E+00
          1   -1    0    0  502    0  0.00000000000E+00  0.00000000000E+00  0.45461348143E+01  0.45461348143E+01  0.00000000000E+00 0.  1.
         13   -1    0    0    0    0 -0.00000000000E+00 -0.00000000000E+00 -0.10000000000E+04  0.10000000000E+04  0.00000000000E+00 0.  1.
    9000005    2    1    2  501    0 -0.51483531105E+01 -0.40317121897E+02 -0.89841684058E+03  0.89934081175E+03  0.30166825741E+01 0.  0.
         13    1    3    3    0    0 -0.27835057909E+01 -0.28508967201E+02 -0.60797040302E+03  0.60864482258E+03  0.00000000000E+00 0.  1.
          1    1    3    3  501    0 -0.23648473196E+01 -0.11808154696E+02 -0.29044643757E+03  0.29069598916E+03  0.00000000000E+00 0.  1.
         21    1    1    2  502  501  0.51483531105E+01  0.40317121897E+02 -0.97037024603E+02  0.10520532307E+03  0.00000000000E+00 0.  1.
<mgrwt>
<rscale>  1 0.30000000E+03</rscale>
<asrwt>0</asrwt>
<pdfrwt beam="1">  1        1 0.16531434E-01 0.30000000E+03</pdfrwt>
<pdfrwt beam="2">0</pdfrwt>
<totfact> 0.38028667E+02</totfact>
</mgrwt>
</event>
<event>
 6    1  0.3125838E-002  0.3000000E+03  0.7818608E-02  0.1093470E+00
          1   -1    0    0  502    0  0.00000000000E+00  0.00000000000E+00  0.64644686216E+01  0.64644686216E+01  0.00000000000E+00 0.  1.
         13   -1    0    0    0    0 -0.00000000000E+00 -0.00000000000E+00 -0.10000000000E+04  0.10000000000E+04  0.00000000000E+00 0.  1.
    9000005    2    1    2  501    0 -0.30332233328E+02  0.61727447518E+02 -0.75714155279E+03  0.76026854000E+03  0.38209685556E+01 0.  0.
         13    1    3    3    0    0 -0.17159481425E+02  0.30593929820E+02 -0.38456511542E+03  0.38616157802E+03  0.00000000000E+00 0.  1.
          3    1    3    3  501    0 -0.13172751903E+02  0.31133517698E+02 -0.37257643737E+03  0.37410696198E+03  0.00000000000E+00 0.  1.
         21    1    1    2  502  501  0.30332233328E+02 -0.61727447518E+02 -0.23639397859E+03  0.24619592862E+03  0.00000000000E+00 0.  1.
<mgrwt>
<rscale>  1 0.30000000E+03</rscale>
<asrwt>0</asrwt>
<pdfrwt beam="1">  1        1 0.23507208E-01 0.30000000E+03</pdfrwt>
<pdfrwt beam="2">0</pdfrwt>
<totfact> 0.23750379E+02</totfact>
</mgrwt>
</event>
<event>
 6    1  0.3125838E-002  0.3000000E+03  0.7818608E-02  0.1093470E+00
          1   -1    0    0  502    0  0.00000000000E+00  0.00000000000E+00  0.61783127070E+01  0.61783127070E+01  0.00000000000E+00 0.  1.
         13   -1    0    0    0    0 -0.00000000000E+00 -0.00000000000E+00 -0.10000000000E+04  0.10000000000E+04  0.00000000000E+00 0.  1.
    9000005    2    1    2  501    0  0.70175351977E+02  0.31662560839E+02 -0.59745515405E+03  0.60240420946E+03  0.33275638452E+01 0.  0.
         13    1    3    3    0    0  0.14470486498E+02  0.54763006504E+01 -0.11293648053E+03  0.11399137459E+03  0.00000000000E+00 0.  1.
          1    1    3    3  501    0  0.55704865478E+02  0.26186260189E+02 -0.48451867353E+03  0.48841283486E+03  0.00000000000E+00 0.  1.
         21    1    1    2  502  501 -0.70175351977E+02 -0.31662560839E+02 -0.39636653324E+03  0.40377410325E+03  0.00000000000E+00 0.  1.
<mgrwt>
<rscale>  1 0.30000000E+03</rscale>
<asrwt>0</asrwt>
<pdfrwt beam="1">  1        1 0.22466639E-01 0.30000000E+03</pdfrwt>
<pdfrwt beam="2">0</pdfrwt>
<totfact> 0.25218369E+02</totfact>
</mgrwt>
</event>
<event>
 6    1  0.3125838E-002  0.3000000E+03  0.7818608E-02  0.1093470E+00
          3   -1    0    0  502    0  0.00000000000E+00  0.00000000000E+00  0.20665425425E+01  0.20665425425E+01  0.00000000000E+00 0.  1.
         13   -1    0    0    0    0 -0.00000000000E+00 -0.00000000000E+00 -0.10000000000E+04  0.10000000000E+04  0.00000000000E+00 0.  1.
    9000005    2    1    2  501    0  0.17699087236E+02  0.27796116935E+02 -0.84381088017E+03  0.84446054445E+03  0.33057268664E+01 0.  0.
         13    1    3    3    0    0  0.80569588343E+01  0.15658424474E+02 -0.44008851278E+03  0.44044068831E+03  0.00000000000E+00 0.  1.
          1    1    3    3  501    0  0.96421284022E+01  0.12137692461E+02 -0.40372236739E+03  0.40401985614E+03  0.00000000000E+00 0.  1.
         21    1    1    2  502  501 -0.17699087236E+02 -0.27796116935E+02 -0.15412257728E+03  0.15760599809E+03  0.00000000000E+00 0.  1.
<mgrwt>
<rscale>  1 0.30000000E+03</rscale>
<asrwt>0</asrwt>
<pdfrwt beam="1">  1        3 0.75147160E-02 0.30000000E+03</pdfrwt>
<pdfrwt beam="2">0</pdfrwt>
<totfact> 0.52355661E+02</totfact>
</mgrwt>
</event>
<event>
 6    1  0.3125838E-002  0.3000000E+03  0.7818608E-02  0.1093470E+00
          3   -1    0    0  502    0  0.00000000000E+00  0.00000000000E+00  0.28930460983E+02  0.28930460983E+02  0.00000000000E+00 0.  1.
         13   -1    0    0    0    0 -0.00000000000E+00 -0.00000000000E+00 -0.10000000000E+04  0.10000000000E+04  0.00000000000E+00 0.  1.
    9000005    2    1    2  501    0  0.46383117117E+02 -0.14016796374E+02 -0.97866716604E+03  0.97988366628E+03  0.58918098170E+01 0.  0.
         13    1    3    3    0    0  0.11900004829E+02 -0.12993226791E+01 -0.26658567406E+03  0.26685430476E+03  0.00000000000E+00 0.  1.
          1    1    3    3  501    0  0.34483112288E+02 -0.12717473695E+02 -0.71208149198E+03  0.71302936152E+03  0.00000000000E+00 0.  1.
         21    1    1    2  502  501 -0.46383117117E+02  0.14016796374E+02  0.75976270252E+01  0.49046794701E+02  0.00000000000E+00 0.  1.
<mgrwt>
<rscale>  1 0.30000000E+03</rscale>
<asrwt>0</asrwt>
<pdfrwt beam="1">  1        3 0.10520190E+00 0.30000000E+03</pdfrwt>
<pdfrwt beam="2">0</pdfrwt>
<totfact> 0.34176635E+00</totfact>
</mgrwt>
</event>
<event>
 6    1  0.3125838E-002  0.3000000E+03  0.7818608E-02  0.1093470E+00
          1   -1    0    0  502    0  0.00000000000E+00  0.00000000000E+00  0.19286575288E+02  0.19286575288E+02  0.00000000000E+00 0.  1.
         13   -1    0    0    0    0 -0.00000000000E+00 -0.00000000000E+00 -0.10000000000E+04  0.10000000000E+04  0.00000000000E+00 0.  1.
    9000005    2    1    2  501    0  0.14639120484E+02 -0.58184615546E+02 -0.94997541634E+03  0.95187308633E+03  0.30540950716E+01 0.  0.
         13    1    3    3    0    0  0.12282993846E+01 -0.51647078106E+01 -0.98795396998E+02  0.98937926975E+02  0.00000000000E+00 0.  1.
          1    1    3    3  501    0  0.13410821100E+02 -0.53019907736E+02 -0.85118001934E+03  0.85293515935E+03  0.00000000000E+00 0.  1.
         21    1    1    2  502  501 -0.14639120484E+02  0.58184615546E+02 -0.30738008375E+02  0.67413488959E+02  0.00000000000E+00 0.  1.
<mgrwt>
<rscale>  1 0.30000000E+03</rscale>
<asrwt>0</asrwt>
<pdfrwt beam="1">  1        1 0.70133149E-01 0.30000000E+03</pdfrwt>
<pdfrwt beam="2">0</pdfrwt>
<totfact> 0.56238942E+01</totfact>
</mgrwt>
</event>
<event>
 6    1  0.3125838E-002  0.3000000E+03  0.7818608E-02  0.1093470E+00
          1   -1    0    0  502    0  0.00000000000E+00  0.00000000000E+00  0.32550172135E+01  0.32550172135E+01  0.00000000000E+00 0.  1.
         13   -1    0    0    0    0 -0.00000000000E+00 -0.00000000000E+00 -0.10000000000E+04  0.10000000000E+04  0.00000000000E+00 0.  1.
    9000005    2    1    2  501    0  0.21322229590E+02  0.37857746591E+02 -0.82303835431E+03  0.82419681654E+03  0.45181056243E+01 0.  0.
         13    1    3    3    0    0  0.21420793295E+02  0.36493205571E+02 -0.79730480030E+03  0.79842692152E+03  0.00000000000E+00 0.  1.
          1    1    3    3  501    0 -0.98563705110E-01  0.13645410194E+01 -0.25733554017E+02  0.25769895020E+02  0.00000000000E+00 0.  1.
         21    1    1    2  502  501 -0.21322229590E+02 -0.37857746591E+02 -0.17370662847E+03  0.17905820067E+03  0.00000000000E+00 0.  1.
<mgrwt>
<rscale>  1 0.30000000E+03</rscale>
<asrwt>0</asrwt>
<pdfrwt beam="1">  1        1 0.11836451E-01 0.30000000E+03</pdfrwt>
<pdfrwt beam="2">0</pdfrwt>
<totfact> 0.59934304E+02</totfact>
</mgrwt>
</event>
<event>
 6    1  0.3125838E-002  0.3000000E+03  0.7818608E-02  0.1093470E+00
          1   -1    0    0  502    0  0.00000000000E+00  0.00000000000E+00  0.16967617756E+01  0.16967617756E+01  0.00000000000E+00 0.  1.
         13   -1    0    0    0    0 -0.00000000000E+00 -0.00000000000E+00 -0.10000000000E+04  0.10000000000E+04  0.00000000000E+00 0.  1.
    9000005    2    1    2  501    0 -0.52915136667E+01  0.32628048018E+02 -0.79783461884E+03  0.79852132775E+03  0.19084587518E+01 0.  0.
         13    1    3    3    0    0 -0.29979600909E+01  0.23368188848E+02 -0.57667806766E+03  0.57715912341E+03  0.00000000000E+00 0.  1.
          1    1    3    3  501    0 -0.22935535758E+01  0.92598591698E+01 -0.22115655118E+03  0.22136220434E+03  0.00000000000E+00 0.  1.
         21    1    1    2  502  501  0.52915136667E+01 -0.32628048018E+02 -0.20046861939E+03  0.20317543403E+03  0.00000000000E+00 0.  1.
<mgrwt>
<rscale>  1 0.30000000E+03</rscale>
<asrwt>0</asrwt>
<pdfrwt beam="1">  1        1 0.61700558E-02 0.30000000E+03</pdfrwt>
<pdfrwt beam="2">0</pdfrwt>
<totfact> 0.14806553E+03</totfact>
</mgrwt>
</event>
<event>
 6    1  0.3125838E-002  0.3000000E+03  0.7818608E-02  0.1093470E+00
          1   -1    0    0  502    0  0.00000000000E+00  0.00000000000E+00  0.47079704659E+01  0.47079704659E+01  0.00000000000E+00 0.  1.
         13   -1    0    0    0    0 -0.00000000000E+00 -0.00000000000E+00 -0.10000000000E+04  0.10000000000E+04  0.00000000000E+00 0.  1.
    9000005    2    1    2  501    0 -0.23752118335E+02 -0.28047754748E+02 -0.92178586923E+03  0.92252527597E+03  0.35855852795E+01 0.  0.
         13    1    3    3    0    0 -0.48249544452E+01 -0.78838611407E+01 -0.21523419651E+03  0.21543257600E+03  0.00000000000E+00 0.  1.
          1    1    3    3  501    0 -0.18927163890E+02 -0.20163893607E+02 -0.70655167272E+03  0.70709269997E+03  0.00000000000E+00 0.  1.
         21    1    1    2  502  501  0.23752118335E+02  0.28047754748E+02 -0.73506160304E+02  0.82182694494E+02  0.00000000000E+00 0.  1.
<mgrwt>
<rscale>  1 0.30000000E+03</rscale>
<asrwt>0</asrwt>
<pdfrwt beam="1">  1        1 0.17119929E-01 0.30000000E+03</pdfrwt>
<pdfrwt beam="2">0</pdfrwt>
<totfact> 0.36275516E+02</totfact>
</mgrwt>
</event>
<event>
 6    1  0.3125838E-002  0.3000000E+03  0.7818608E-02  0.1093470E+00
          1   -1    0    0  502    0  0.00000000000E+00  0.00000000000E+00  0.20039084322E+01  0.20039084322E+01  0.00000000000E+00 0.  1.
         13   -1    0    0    0    0 -0.00000000000E+00 -0.00000000000E+00 -0.10000000000E+04  0.10000000000E+04  0.00000000000E+00 0.  1.
    9000005    2    1    2  501    0  0.31120393305E+02  0.89433544824E+01 -0.84455316808E+03  0.84518173769E+03  0.36950691665E+01 0.  0.
         13    1    3    3    0    0  0.21009533131E+02  0.46441273622E+01 -0.52923529034E+03  0.52967250348E+03  0.00000000000E+00 0.  1.
          3    1    3    3  501    0  0.10110860174E+02  0.42992271202E+01 -0.31531787774E+03  0.31550923421E+03  0.00000000000E+00 0.  1.
         21    1    1    2  502  501 -0.31120393305E+02 -0.89433544824E+01 -0.15344292348E+03  0.15682217074E+03  0.00000000000E+00 0.  1.
<mgrwt>
<rscale>  1 0.30000000E+03</rscale>
<asrwt>0</asrwt>
<pdfrwt beam="1">  1        1 0.72869551E-02 0.30000000E+03</pdfrwt>
<pdfrwt beam="2">0</pdfrwt>
<totfact> 0.11730590E+03</totfact>
</mgrwt>
</event>
<event>
 6    1  0.3125838E-002  0.3000000E+03  0.7818608E-02  0.1093470E+00
          3   -1    0    0  502    0  0.00000000000E+00  0.00000000000E+00  0.20467031257E+01  0.20467031257E+01  0.00000000000E+00 0.  1.
         13   -1    0    0    0    0 -0.00000000000E+00 -0.00000000000E+00 -0.10000000000E+04  0.10000000000E+04  0.00000000000E+00 0.  1.
    9000005    2    1    2  501    0  0.43429616984E+02 -0.17381623841E+01 -0.63632321142E+03  0.63781398694E+03  0.32093137428E+01 0.  0.
         13    1    3    3    0    0  0.30851632300E+02 -0.91568926241E+00 -0.47192657918E+03  0.47293483466E+03  0.00000000000E+00 0.  1.
          1    1    3    3  501    0  0.12577984685E+02 -0.82247312168E+00 -0.16439663224E+03  0.16487915227E+03  0.00000000000E+00 0.  1.
         21    1    1    2  502  501 -0.43429616984E+02  0.17381623841E+01 -0.36163008545E+03  0.36423271619E+03  0.00000000000E+00 0.  1.
<mgrwt>
<rscale>  1 0.30000000E+03</rscale>
<asrwt>0</asrwt>
<pdfrwt beam="1">  1        3 0.74425725E-02 0.30000000E+03</pdfrwt>
<pdfrwt beam="2">0</pdfrwt>
<totfact> 0.53163693E+02</totfact>
</mgrwt>
</event>
<event>
 6    1  0.3125838E-002  0.3000000E+03  0.7818608E-02  0.1093470E+00
          3   -1    0    0  502    0  0.00000000000E+00  0.00000000000E+00  0.18998472013E+01  0.18998472013E+01  0.00000000000E+00 0.  1.
         13   -1    0    0    0    0 -0.00000000000E+00 -0.00000000000E+00 -0.10000000000E+04  0.10000000000E+04  0.00000000000E+00 0.  1.
    9000005    2    1    2  501    0  0.33621867052E+02 -0.32269795466E+01 -0.81512707182E+03  0.81583536455E+03  0.37888649529E+01 0.  0.
         13    1    3    3    0    0  0.34467130376E+01  0.46099849187E+00 -0.65668048824E+02  0.65760056165E+02  0.00000000000E+00 0.  1.
          1    1    3    3  501    0  0.30175154014E+02 -0.36879780385E+01 -0.74945902299E+03  0.75007530839E+03  0.00000000000E+00 0.  1.
         21    1    1    2  502  501 -0.33621867052E+02  0.32269795466E+01 -0.18297308098E+03  0.18606448265E+03  0.00000000000E+00 0.  1.
<mgrwt>
<rscale>  1 0.30000000E+03</rscale>
<asrwt>0</asrwt>
<pdfrwt beam="1">  1        3 0.69085498E-02 0.30000000E+03</pdfrwt>
<pdfrwt beam="2">0</pdfrwt>
<totfact> 0.59800196E+02</totfact>
</mgrwt>
</event>
<event>
 6    1  0.3125838E-002  0.3000000E+03  0.7818608E-02  0.1093470E+00
          1   -1    0    0  502    0  0.00000000000E+00  0.00000000000E+00  0.10741907989E+01  0.10741907989E+01  0.00000000000E+00 0.  1.
         13   -1    0    0    0    0 -0.00000000000E+00 -0.00000000000E+00 -0.10000000000E+04  0.10000000000E+04  0.00000000000E+00 0.  1.
    9000005    2    1    2  501    0 -0.25916164023E+02  0.19071918094E+02 -0.41070482010E+03  0.41197375994E+03  0.29230137497E+01 0.  0.
         13    1    3    3    0    0 -0.22985799660E+02  0.17957228084E+02 -0.37314400864E+03  0.37428232687E+03  0.00000000000E+00 0.  1.
          1    1    3    3  501    0 -0.29303643626E+01  0.11146900100E+01 -0.37560811463E+02  0.37691433070E+02  0.00000000000E+00 0.  1.
         21    1    1    2  502  501  0.25916164023E+02 -0.19071918094E+02 -0.58822098910E+03  0.58910043086E+03  0.00000000000E+00 0.  1.
<mgrwt>
<rscale>  1 0.30000000E+03</rscale>
<asrwt>0</asrwt>
<pdfrwt beam="1">  1        1 0.39061566E-02 0.30000000E+03</pdfrwt>
<pdfrwt beam="2">0</pdfrwt>
<totfact> 0.28155025E+03</totfact>
</mgrwt>
</event>
<event>
 6    1  0.3125838E-002  0.3000000E+03  0.7818608E-02  0.1093470E+00
          1   -1    0    0  502    0  0.00000000000E+00  0.00000000000E+00  0.52859666474E+01  0.52859666474E+01  0.00000000000E+00 0.  1.
         13   -1    0    0    0    0 -0.00000000000E+00 -0.00000000000E+00 -0.10000000000E+04  0.10000000000E+04  0.00000000000E+00 0.  1.
    9000005    2    1    2  501    0 -0.80343983473E+01 -0.70904457764E+02 -0.40745604926E+03  0.41370847082E+03  0.65017738357E+01 0.  0.
         13    1    3    3    0    0 -0.70693790978E+01 -0.45329850108E+02 -0.24707763064E+03  0.25130086946E+03  0.00000000000E+00 0.  1.
          3    1    3    3  501    0 -0.96501924944E+00 -0.25574607656E+02 -0.16037841863E+03  0.16240760136E+03  0.00000000000E+00 0.  1.
         21    1    1    2  502  501  0.80343983473E+01  0.70904457764E+02 -0.58725798409E+03  0.59157749582E+03  0.00000000000E+00 0.  1.
<mgrwt>
<rscale>  1 0.30000000E+03</rscale>
<asrwt>0</asrwt>
<pdfrwt beam="1">  1        1 0.19221737E-01 0.30000000E+03</pdfrwt>
<pdfrwt beam="2">0</pdfrwt>
<totfact> 0.31048204E+02</totfact>
</mgrwt>
</event>
<event>
 6    1  0.3125838E-002  0.3000000E+03  0.7818608E-02  0.1093470E+00
          1   -1    0    0  502    0  0.00000000000E+00  0.00000000000E+00  0.20504614092E+01  0.20504614092E+01  0.00000000000E+00 0.  1.
         13   -1    0    0    0    0 -0.00000000000E+00 -0.00000000000E+00 -0.10000000000E+04  0.10000000000E+04  0.00000000000E+00 0.  1.
    9000005    2    1    2  501    0 -0.31840921892E+02 -0.31864504495E+02 -0.45533175436E+03  0.45756607163E+03  0.32422864455E+01 0.  0.
         13    1    3    3    0    0 -0.31533080589E+02 -0.30894037640E+02 -0.44504651813E+03  0.44723056697E+03  0.00000000000E+00 0.  1.
          1    1    3    3  501    0 -0.30784130291E+00 -0.97046685464E+00 -0.10285236230E+02  0.10335504655E+02  0.00000000000E+00 0.  1.
         21    1    1    2  502  501  0.31840921892E+02  0.31864504495E+02 -0.54261778423E+03  0.54448438978E+03  0.00000000000E+00 0.  1.
<mgrwt>
<rscale>  1 0.30000000E+03</rscale>
<asrwt>0</asrwt>
<pdfrwt beam="1">  1        1 0.74562390E-02 0.30000000E+03</pdfrwt>
<pdfrwt beam="2">0</pdfrwt>
<totfact> 0.11360342E+03</totfact>
</mgrwt>
</event>
<event>
 6    1  0.3125838E-002  0.3000000E+03  0.7818608E-02  0.1093470E+00
          3   -1    0    0  502    0  0.00000000000E+00  0.00000000000E+00  0.71100363673E+01  0.71100363673E+01  0.00000000000E+00 0.  1.
         13   -1    0    0    0    0 -0.00000000000E+00 -0.00000000000E+00 -0.10000000000E+04  0.10000000000E+04  0.00000000000E+00 0.  1.
    9000005    2    1    2  501    0 -0.12646643381E+02 -0.69131209891E+02 -0.77358466844E+03  0.77681918925E+03  0.87035487147E+01 0.  0.
         13    1    3    3    0    0 -0.59750101056E+01 -0.34095585792E+02 -0.42874861898E+03  0.43014368297E+03  0.00000000000E+00 0.  1.
          3    1    3    3  501    0 -0.66716332750E+01 -0.35035624099E+02 -0.34483604946E+03  0.34667550628E+03  0.00000000000E+00 0.  1.
         21    1    1    2  502  501  0.12646643381E+02  0.69131209891E+02 -0.21930529519E+03  0.23029084712E+03  0.00000000000E+00 0.  1.
<mgrwt>
<rscale>  1 0.30000000E+03</rscale>
<asrwt>0</asrwt>
<pdfrwt beam="1">  1        3 0.25854732E-01 0.30000000E+03</pdfrwt>
<pdfrwt beam="2">0</pdfrwt>
<totfact> 0.61957149E+01</totfact>
</mgrwt>
</event>
<event>
 6    1  0.3125838E-002  0.3000000E+03  0.7818608E-02  0.1093470E+00
          3   -1    0    0  502    0  0.00000000000E+00  0.00000000000E+00  0.16872593139E+01  0.16872593139E+01  0.00000000000E+00 0.  1.
         13   -1    0    0    0    0 -0.00000000000E+00 -0.00000000000E+00 -0.10000000000E+04  0.10000000000E+04  0.00000000000E+00 0.  1.
    9000005    2    1    2  501    0 -0.30699351297E+02  0.22139379483E+02 -0.31242514326E+03  0.31475611386E+03  0.54165280690E+01 0.  0.
         13    1    3    3    0    0 -0.23512086543E+02  0.14294238718E+02 -0.23411602409E+03  0.23572750415E+03  0.00000000000E+00 0.  1.
          1    1    3    3  501    0 -0.71872647537E+01  0.78451407643E+01 -0.78309119167E+02  0.79028609711E+02  0.00000000000E+00 0.  1.
         21    1    1    2  502  501  0.30699351297E+02 -0.22139379483E+02 -0.68588759743E+03  0.68693114546E+03  0.00000000000E+00 0.  1.
<mgrwt>
<rscale>  1 0.30000000E+03</rscale>
<asrwt>0</asrwt>
<pdfrwt beam="1">  1        3 0.61355014E-02 0.30000000E+03</pdfrwt>
<pdfrwt beam="2">0</pdfrwt>
<totfact> 0.72016882E+02</totfact>
</mgrwt>
</event>
<event>
 6    1  0.3125838E-002  0.3000000E+03  0.7818608E-02  0.1093470E+00
          1   -1    0    0  502    0  0.00000000000E+00  0.00000000000E+00  0.22930883866E+01  0.22930883866E+01  0.00000000000E+00 0.  1.
         13   -1    0    0    0    0 -0.00000000000E+00 -0.00000000000E+00 -0.10000000000E+04  0.10000000000E+04  0.00000000000E+00 0.  1.
    9000005    2    1    2  501    0 -0.37435748248E+01 -0.32718979948E+02 -0.86243961080E+03  0.86307459582E+03  0.33361180015E+01 0.  0.
         13    1    3    3    0    0 -0.41558613632E+01 -0.28777210592E+02 -0.74056192426E+03  0.74113248660E+03  0.00000000000E+00 0.  1.
          3    1    3    3  501    0  0.41228653833E+00 -0.39417693562E+01 -0.12187768654E+03  0.12194210922E+03  0.00000000000E+00 0.  1.
         21    1    1    2  502  501  0.37435748248E+01  0.32718979948E+02 -0.13526730082E+03  0.13921849256E+03  0.00000000000E+00 0.  1.
<mgrwt>
<rscale>  1 0.30000000E+03</rscale>
<asrwt>0</asrwt>
<pdfrwt beam="1">  1        1 0.83385208E-02 0.30000000E+03</pdfrwt>
<pdfrwt beam="2">0</pdfrwt>
<totfact> 0.97213935E+02</totfact>
</mgrwt>
</event>
<event>
 6    1  0.3125838E-002  0.3000000E+03  0.7818608E-02  0.1093470E+00
          1   -1    0    0  502    0  0.00000000000E+00  0.00000000000E+00  0.18391803153E+01  0.18391803153E+01  0.00000000000E+00 0.  1.
         13   -1    0    0    0    0 -0.00000000000E+00 -0.00000000000E+00 -0.10000000000E+04  0.10000000000E+04  0.00000000000E+00 0.  1.
    9000005    2    1    2  501    0  0.38157971373E+02 -0.28925395707E+01 -0.72445004216E+03  0.72546626685E+03  0.30071891123E+01 0.  0.
         13    1    3    3    0    0  0.23092697389E+02 -0.57746152006E+00 -0.41941406198E+03  0.42004971315E+03  0.00000000000E+00 0.  1.
          1    1    3    3  501    0  0.15065273984E+02 -0.23150780507E+01 -0.30503598018E+03  0.30541655370E+03  0.00000000000E+00 0.  1.
         21    1    1    2  502  501 -0.38157971373E+02  0.28925395707E+01 -0.27371077753E+03  0.27637291347E+03  0.00000000000E+00 0.  1.
<mgrwt>
<rscale>  1 0.30000000E+03</rscale>
<asrwt>0</asrwt>
<pdfrwt beam="1">  1        1 0.66879425E-02 0.30000000E+03</pdfrwt>
<pdfrwt beam="2">0</pdfrwt>
<totfact> 0.13225585E+03</totfact>
</mgrwt>
</event>
<event>
 6    1  0.3125838E-002  0.3000000E+03  0.7818608E-02  0.1093470E+00
          3   -1    0    0  502    0  0.00000000000E+00  0.00000000000E+00  0.29213444222E+01  0.29213444222E+01  0.00000000000E+00 0.  1.
         13   -1    0    0    0    0 -0.00000000000E+00 -0.00000000000E+00 -0.10000000000E+04  0.10000000000E+04  0.00000000000E+00 0.  1.
    9000005    2    1    2  501    0  0.67374525517E+01 -0.32813766591E+02 -0.89194608821E+03  0.89258099248E+03  0.32965623465E+01 0.  0.
         13    1    3    3    0    0  0.23708639942E+01 -0.17421304362E+02 -0.49729207881E+03  0.49760278786E+03  0.00000000000E+00 0.  1.
          3    1    3    3  501    0  0.43665885575E+01 -0.15392462229E+02 -0.39465400940E+03  0.39497820462E+03  0.00000000000E+00 0.  1.
         21    1    1    2  502  501 -0.67374525517E+01  0.32813766591E+02 -0.10513256737E+03  0.11034035194E+03  0.00000000000E+00 0.  1.
<mgrwt>
<rscale>  1 0.30000000E+03</rscale>
<asrwt>0</asrwt>
<pdfrwt beam="1">  1        3 0.10623093E-01 0.30000000E+03</pdfrwt>
<pdfrwt beam="2">0</pdfrwt>
<totfact> 0.29880074E+02</totfact>
</mgrwt>
</event>
<event>
 6    1  0.3125838E-002  0.3000000E+03  0.7818608E-02  0.1093470E+00
          3   -1    0    0  502    0  0.00000000000E+00  0.00000000000E+00  0.74242071687E+01  0.74242071687E+01  0.00000000000E+00 0.  1.
         13   -1    0    0    0    0 -0.00000000000E+00 -0.00000000000E+00 -0.10000000000E+04  0.10000000000E+04  0.00000000000E+00 0.  1.
    9000005    2    1    2  501    0 -0.44787579848E+02  0.73427625530E+02 -0.52066860696E+03  0.52774313022E+03  0.44124514384E+01 0.  0.
         13    1    3    3    0    0 -0.85552707177E+01  0.11524590732E+02 -0.93134714382E+02  0.94234196933E+02  0.00000000000E+00 0.  1.
          3    1    3    3  501    0 -0.36232309131E+02  0.61903034799E+02 -0.42753389258E+03  0.43350893329E+03  0.00000000000E+00 0.  1.
         21    1    1    2  502  501  0.44787579848E+02 -0.73427625530E+02 -0.47190718587E+03  0.47968107694E+03  0.00000000000E+00 0.  1.
<mgrwt>
<rscale>  1 0.30000000E+03</rscale>
<asrwt>0</asrwt>
<pdfrwt beam="1">  1        3 0.26997174E-01 0.30000000E+03</pdfrwt>
<pdfrwt beam="2">0</pdfrwt>
<totfact> 0.57105351E+01</totfact>
</mgrwt>
</event>
<event>
 6    1  0.3125838E-002  0.3000000E+03  0.7818608E-02  0.1093470E+00
          1   -1    0    0  502    0  0.00000000000E+00  0.00000000000E+00  0.15164659283E+01  0.15164659283E+01  0.00000000000E+00 0.  1.
         13   -1    0    0    0    0 -0.00000000000E+00 -0.00000000000E+00 -0.10000000000E+04  0.10000000000E+04  0.00000000000E+00 0.  1.
    9000005    2    1    2  501    0 -0.32895385077E+02 -0.72409403053E+01 -0.74982551637E+03  0.75058749720E+03  0.29577675919E+01 0.  0.
         13    1    3    3    0    0 -0.26707458007E+02 -0.50947431792E+01 -0.58361938235E+03  0.58425236685E+03  0.00000000000E+00 0.  1.
          3    1    3    3  501    0 -0.61879270705E+01 -0.21461971261E+01 -0.16620613402E+03  0.16633513035E+03  0.00000000000E+00 0.  1.
         21    1    1    2  502  501  0.32895385077E+02  0.72409403053E+01 -0.24865801771E+03  0.25092896872E+03  0.00000000000E+00 0.  1.
<mgrwt>
<rscale>  1 0.30000000E+03</rscale>
<asrwt>0</asrwt>
<pdfrwt beam="1">  1        1 0.55144332E-02 0.30000000E+03</pdfrwt>
<pdfrwt beam="2">0</pdfrwt>
<totfact> 0.17334878E+03</totfact>
</mgrwt>
</event>
<event>
 6    1  0.3125838E-002  0.3000000E+03  0.7818608E-02  0.1093470E+00
          1   -1    0    0  502    0  0.00000000000E+00  0.00000000000E+00  0.14294235718E+01  0.14294235718E+01  0.00000000000E+00 0.  1.
         13   -1    0    0    0    0 -0.00000000000E+00 -0.00000000000E+00 -0.10000000000E+04  0.10000000000E+04  0.00000000000E+00 0.  1.
    9000005    2    1    2  501    0  0.31920856138E+02  0.94677638367E+01 -0.73549409144E+03  0.73625435581E+03  0.32153223256E+01 0.  0.
         13    1    3    3    0    0  0.11399732544E+02  0.23691938654E+01 -0.28345480819E+03  0.28369384073E+03  0.00000000000E+00 0.  1.
          3    1    3    3  501    0  0.20521123594E+02  0.70985699713E+01 -0.45203928325E+03  0.45256051508E+03  0.00000000000E+00 0.  1.
         21    1    1    2  502  501 -0.31920856138E+02 -0.94677638367E+01 -0.26307648499E+03  0.26517506776E+03  0.00000000000E+00 0.  1.
<mgrwt>
<rscale>  1 0.30000000E+03</rscale>
<asrwt>0</asrwt>
<pdfrwt beam="1">  1        1 0.51979149E-02 0.30000000E+03</pdfrwt>
<pdfrwt beam="2">0</pdfrwt>
<totfact> 0.18835549E+03</totfact>
</mgrwt>
</event>
<event>
 6    1  0.3125838E-002  0.3000000E+03  0.7818608E-02  0.1093470E+00
          1   -1    0    0  502    0  0.00000000000E+00  0.00000000000E+00  0.12547927581E+01  0.12547927581E+01  0.00000000000E+00 0.  1.
         13   -1    0    0    0    0 -0.00000000000E+00 -0.00000000000E+00 -0.10000000000E+04  0.10000000000E+04  0.00000000000E+00 0.  1.
    9000005    2    1    2  501    0  0.61697182718E+01 -0.32836721533E+02 -0.34221172414E+03  0.34387170039E+03  0.47504191424E+01 0.  0.
         13    1    3    3    0    0 -0.54094107522E+00 -0.20635739216E+01 -0.29819920343E+02  0.29896130249E+02  0.00000000000E+00 0.  1.
          1    1    3    3  501    0  0.67106593470E+01 -0.30773147611E+02 -0.31239180380E+03  0.31397557014E+03  0.00000000000E+00 0.  1.
         21    1    1    2  502  501 -0.61697182718E+01  0.32836721533E+02 -0.65653348310E+03  0.65738309237E+03  0.00000000000E+00 0.  1.
<mgrwt>
<rscale>  1 0.30000000E+03</rscale>
<asrwt>0</asrwt>
<pdfrwt beam="1">  1        1 0.45628924E-02 0.30000000E+03</pdfrwt>
<pdfrwt beam="2">0</pdfrwt>
<totfact> 0.22622632E+03</totfact>
</mgrwt>
</event>
<event>
 6    1  0.3125838E-002  0.3000000E+03  0.7818608E-02  0.1093470E+00
          1   -1    0    0  502    0  0.00000000000E+00  0.00000000000E+00  0.10981097226E+02  0.10981097226E+02  0.00000000000E+00 0.  1.
         13   -1    0    0    0    0 -0.00000000000E+00 -0.00000000000E+00 -0.10000000000E+04  0.10000000000E+04  0.00000000000E+00 0.  1.
    9000005    2    1    2  501    0 -0.69995636423E+02 -0.89785306000E+01 -0.86814971495E+03  0.87101908918E+03  0.32129461270E+01 0.  0.
         13    1    3    3    0    0 -0.62719699365E+02 -0.87904816768E+01 -0.77048904857E+03  0.77308758056E+03  0.00000000000E+00 0.  1.
          1    1    3    3  501    0 -0.72759370581E+01 -0.18804892322E+00 -0.97660666383E+02  0.97931508621E+02  0.00000000000E+00 0.  1.
         21    1    1    2  502  501  0.69995636423E+02  0.89785306000E+01 -0.12086918782E+03  0.13996200804E+03  0.00000000000E+00 0.  1.
<mgrwt>
<rscale>  1 0.30000000E+03</rscale>
<asrwt>0</asrwt>
<pdfrwt beam="1">  1        1 0.39931347E-01 0.30000000E+03</pdfrwt>
<pdfrwt beam="2">0</pdfrwt>
<totfact> 0.11847163E+02</totfact>
</mgrwt>
</event>
<event>
 6    1  0.3125838E-002  0.3000000E+03  0.7818608E-02  0.1093470E+00
          3   -1    0    0  502    0  0.00000000000E+00  0.00000000000E+00  0.20700218055E+01  0.20700218055E+01  0.00000000000E+00 0.  1.
         13   -1    0    0    0    0 -0.00000000000E+00 -0.00000000000E+00 -0.10000000000E+04  0.10000000000E+04  0.00000000000E+00 0.  1.
    9000005    2    1    2  501    0  0.59232453520E+01  0.33028372463E+02 -0.83681401152E+03  0.83749689842E+03  0.41721416104E+01 0.  0.
         13    1    3    3    0    0  0.50803513110E+01  0.24225680480E+02 -0.65589982831E+03  0.65636672550E+03  0.00000000000E+00 0.  1.
          1    1    3    3  501    0  0.84289404102E+00  0.88026919831E+01 -0.18091418321E+03  0.18113017292E+03  0.00000000000E+00 0.  1.
         21    1    1    2  502  501 -0.59232453520E+01 -0.33028372463E+02 -0.16111596668E+03  0.16457312339E+03  0.00000000000E+00 0.  1.
<mgrwt>
<rscale>  1 0.30000000E+03</rscale>
<asrwt>0</asrwt>
<pdfrwt beam="1">  1        3 0.75273679E-02 0.30000000E+03</pdfrwt>
<pdfrwt beam="2">0</pdfrwt>
<totfact> 0.52215964E+02</totfact>
</mgrwt>
</event>
<event>
 6    1  0.3125838E-002  0.3000000E+03  0.7818608E-02  0.1093470E+00
          1   -1    0    0  502    0  0.00000000000E+00  0.00000000000E+00  0.49418733825E+01  0.49418733825E+01  0.00000000000E+00 0.  1.
         13   -1    0    0    0    0 -0.00000000000E+00 -0.00000000000E+00 -0.10000000000E+04  0.10000000000E+04  0.00000000000E+00 0.  1.
    9000005    2    1    2  501    0  0.29032452699E+02 -0.61813337921E+02 -0.61594539774E+03  0.61972734451E+03  0.30783902268E+01 0.  0.
         13    1    3    3    0    0  0.27827882109E+02 -0.60186792068E+02 -0.59441833914E+03  0.59810534429E+03  0.00000000000E+00 0.  1.
          3    1    3    3  501    0  0.12045705897E+01 -0.16265458534E+01 -0.21527058595E+02  0.21622000219E+02  0.00000000000E+00 0.  1.
         21    1    1    2  502  501 -0.29032452699E+02  0.61813337921E+02 -0.37911272888E+03  0.38521452887E+03  0.00000000000E+00 0.  1.
<mgrwt>
<rscale>  1 0.30000000E+03</rscale>
<asrwt>0</asrwt>
<pdfrwt beam="1">  1        1 0.17970487E-01 0.30000000E+03</pdfrwt>
<pdfrwt beam="2">0</pdfrwt>
<totfact> 0.33983471E+02</totfact>
</mgrwt>
</event>
<event>
 6    1  0.3125838E-002  0.3000000E+03  0.7818608E-02  0.1093470E+00
          1   -1    0    0  502    0  0.00000000000E+00  0.00000000000E+00  0.47881129766E+01  0.47881129766E+01  0.00000000000E+00 0.  1.
         13   -1    0    0    0    0 -0.00000000000E+00 -0.00000000000E+00 -0.10000000000E+04  0.10000000000E+04  0.00000000000E+00 0.  1.
    9000005    2    1    2  501    0 -0.65758285832E+02  0.11704640297E+02 -0.36762518337E+03  0.37365720630E+03  0.32064952871E+01 0.  0.
         13    1    3    3    0    0 -0.18633520833E+02  0.47112315545E+01 -0.10307564145E+03  0.10485223728E+03  0.00000000000E+00 0.  1.
          1    1    3    3  501    0 -0.47124764999E+02  0.69934087429E+01 -0.26454954192E+03  0.26880496902E+03  0.00000000000E+00 0.  1.
         21    1    1    2  502  501  0.65758285832E+02 -0.11704640297E+02 -0.62758670365E+03  0.63113090667E+03  0.00000000000E+00 0.  1.
<mgrwt>
<rscale>  1 0.30000000E+03</rscale>
<asrwt>0</asrwt>
<pdfrwt beam="1">  1        1 0.17411357E-01 0.30000000E+03</pdfrwt>
<pdfrwt beam="2">0</pdfrwt>
<totfact> 0.35459878E+02</totfact>
</mgrwt>
</event>
<event>
 6    1  0.3125838E-002  0.3000000E+03  0.7818608E-02  0.1093470E+00
          3   -1    0    0  502    0  0.00000000000E+00  0.00000000000E+00  0.16842697976E+01  0.16842697976E+01  0.00000000000E+00 0.  1.
         13   -1    0    0    0    0 -0.00000000000E+00 -0.00000000000E+00 -0.10000000000E+04  0.10000000000E+04  0.00000000000E+00 0.  1.
    9000005    2    1    2  501    0 -0.24377678625E+02 -0.19003918723E+02 -0.82806045588E+03  0.82864589667E+03  0.38056963632E+01 0.  0.
         13    1    3    3    0    0 -0.85153313681E+01 -0.89912217988E+01 -0.32524403237E+03  0.32547969757E+03  0.00000000000E+00 0.  1.
          1    1    3    3  501    0 -0.15862347256E+02 -0.10012696925E+02 -0.50281642352E+03  0.50316619910E+03  0.00000000000E+00 0.  1.
         21    1    1    2  502  501  0.24377678625E+02  0.19003918723E+02 -0.17025527432E+03  0.17303837313E+03  0.00000000000E+00 0.  1.
<mgrwt>
<rscale>  1 0.30000000E+03</rscale>
<asrwt>0</asrwt>
<pdfrwt beam="1">  1        3 0.61246304E-02 0.30000000E+03</pdfrwt>
<pdfrwt beam="2">0</pdfrwt>
<totfact> 0.72216514E+02</totfact>
</mgrwt>
</event>
<event>
 6    1  0.3515807E-002  0.3000000E+03  0.7818608E-02  0.1093470E+00
          1   -1    0    0  502    0  0.00000000000E+00  0.00000000000E+00  0.36982795618E+01  0.36982795618E+01  0.00000000000E+00 0.  1.
         13   -1    0    0    0    0 -0.00000000000E+00 -0.00000000000E+00 -0.10000000000E+04  0.10000000000E+04  0.00000000000E+00 0.  1.
    9000005    2    1    2  501    0  0.38061100168E+01  0.33311453135E+02 -0.91622124709E+03  0.91688225803E+03  0.93574613451E+01 0.  0.
         13    1    3    3    0    0 -0.13397468374E+01  0.23214660069E+02 -0.56522975071E+03  0.56570786317E+03  0.00000000000E+00 0.  1.
          3    1    3    3  501    0  0.51458568542E+01  0.10096793066E+02 -0.35099149638E+03  0.35117439486E+03  0.00000000000E+00 0.  1.
         21    1    1    2  502  501 -0.38061100168E+01 -0.33311453135E+02 -0.80080473349E+02  0.86816021535E+02  0.00000000000E+00 0.  1.
<mgrwt>
<rscale>  1 0.30000000E+03</rscale>
<asrwt>0</asrwt>
<pdfrwt beam="1">  1        1 0.13448318E-01 0.30000000E+03</pdfrwt>
<pdfrwt beam="2">0</pdfrwt>
<totfact> 0.50329531E+02</totfact>
</mgrwt>
</event>
<event>
 6    1  0.3125838E-002  0.3000000E+03  0.7818608E-02  0.1093470E+00
          3   -1    0    0  502    0  0.00000000000E+00  0.00000000000E+00  0.18455477010E+01  0.18455477010E+01  0.00000000000E+00 0.  1.
         13   -1    0    0    0    0 -0.00000000000E+00 -0.00000000000E+00 -0.10000000000E+04  0.10000000000E+04  0.00000000000E+00 0.  1.
    9000005    2    1    2  501    0  0.28953568547E+02 -0.11840404603E+02 -0.84227524552E+03  0.84285865699E+03  0.21499138987E+01 0.  0.
         13    1    3    3    0    0  0.21867272320E+02 -0.99245019190E+01 -0.64419785180E+03  0.64464528665E+03  0.00000000000E+00 0.  1.
          3    1    3    3  501    0  0.70862962274E+01 -0.19159026843E+01 -0.19807739372E+03  0.19821337033E+03  0.00000000000E+00 0.  1.
         21    1    1    2  502  501 -0.28953568547E+02  0.11840404603E+02 -0.15587920678E+03  0.15898689071E+03  0.00000000000E+00 0.  1.
<mgrwt>
<rscale>  1 0.30000000E+03</rscale>
<asrwt>0</asrwt>
<pdfrwt beam="1">  1        3 0.67110967E-02 0.30000000E+03</pdfrwt>
<pdfrwt beam="2">0</pdfrwt>
<totfact> 0.62588357E+02</totfact>
</mgrwt>
</event>
<event>
 6    1  0.3125838E-002  0.3000000E+03  0.7818608E-02  0.1093470E+00
          1   -1    0    0  502    0  0.00000000000E+00  0.00000000000E+00  0.32410254170E+01  0.32410254170E+01  0.00000000000E+00 0.  1.
         13   -1    0    0    0    0 -0.00000000000E+00 -0.00000000000E+00 -0.10000000000E+04  0.10000000000E+04  0.00000000000E+00 0.  1.
    9000005    2    1    2  501    0  0.52174251447E+02  0.43505170874E+01 -0.69468925945E+03  0.69666771883E+03  0.34152229059E+01 0.  0.
         13    1    3    3    0    0  0.47038692547E+02  0.41534606725E+01 -0.61219348800E+03  0.61401201665E+03  0.00000000000E+00 0.  1.
          1    1    3    3  501    0  0.51355588991E+01  0.19705641493E+00 -0.82495771446E+02  0.82655702180E+02  0.00000000000E+00 0.  1.
         21    1    1    2  502  501 -0.52174251447E+02 -0.43505170874E+01 -0.30206971513E+03  0.30657330659E+03  0.00000000000E+00 0.  1.
<mgrwt>
<rscale>  1 0.30000000E+03</rscale>
<asrwt>0</asrwt>
<pdfrwt beam="1">  1        1 0.11785572E-01 0.30000000E+03</pdfrwt>
<pdfrwt beam="2">0</pdfrwt>
<totfact> 0.60289393E+02</totfact>
</mgrwt>
</event>
<event>
 6    1  0.3125838E-002  0.3000000E+03  0.7818608E-02  0.1093470E+00
          3   -1    0    0  502    0  0.00000000000E+00  0.00000000000E+00  0.10475926012E+01  0.10475926012E+01  0.00000000000E+00 0.  1.
         13   -1    0    0    0    0 -0.00000000000E+00 -0.00000000000E+00 -0.10000000000E+04  0.10000000000E+04  0.00000000000E+00 0.  1.
    9000005    2    1    2  501    0 -0.71263994854E+01  0.31124678630E+02 -0.42613283809E+03  0.42733879001E+03  0.31168185208E+01 0.  0.
         13    1    3    3    0    0 -0.73933559546E+01  0.28489807737E+02 -0.39098847248E+03  0.39209477996E+03  0.00000000000E+00 0.  1.
          1    1    3    3  501    0  0.26695646919E+00  0.26348708932E+01 -0.35144365609E+02  0.35244010051E+02  0.00000000000E+00 0.  1.
         21    1    1    2  502  501  0.71263994854E+01 -0.31124678630E+02 -0.57281956931E+03  0.57370880259E+03  0.00000000000E+00 0.  1.
<mgrwt>
<rscale>  1 0.30000000E+03</rscale>
<asrwt>0</asrwt>
<pdfrwt beam="1">  1        3 0.38094357E-02 0.30000000E+03</pdfrwt>
<pdfrwt beam="2">0</pdfrwt>
<totfact> 0.15039593E+03</totfact>
</mgrwt>
</event>
<event>
 6    1  0.3125838E-002  0.3000000E+03  0.7818608E-02  0.1093470E+00
          3   -1    0    0  502    0  0.00000000000E+00  0.00000000000E+00  0.36632797021E+01  0.36632797021E+01  0.00000000000E+00 0.  1.
         13   -1    0    0    0    0 -0.00000000000E+00 -0.00000000000E+00 -0.10000000000E+04  0.10000000000E+04  0.00000000000E+00 0.  1.
    9000005    2    1    2  501    0  0.37396727839E+02 -0.50728285015E+01 -0.89038301454E+03  0.89118911998E+03  0.34476284671E+01 0.  0.
         13    1    3    3    0    0  0.24096833087E+02 -0.16676477988E+01 -0.55640027785E+03  0.55692432844E+03  0.00000000000E+00 0.  1.
          3    1    3    3  501    0  0.13299894752E+02 -0.34051807027E+01 -0.33398273669E+03  0.33426479154E+03  0.00000000000E+00 0.  1.
         21    1    1    2  502  501 -0.37396727839E+02  0.50728285015E+01 -0.10595370576E+03  0.11247415973E+03  0.00000000000E+00 0.  1.
<mgrwt>
<rscale>  1 0.30000000E+03</rscale>
<asrwt>0</asrwt>
<pdfrwt beam="1">  1        3 0.13321045E-01 0.30000000E+03</pdfrwt>
<pdfrwt beam="2">0</pdfrwt>
<totfact> 0.20409587E+02</totfact>
</mgrwt>
</event>
<event>
 6    1  0.3125838E-002  0.3000000E+03  0.7818608E-02  0.1093470E+00
          3   -1    0    0  502    0  0.00000000000E+00  0.00000000000E+00  0.13095166232E+01  0.13095166232E+01  0.00000000000E+00 0.  1.
         13   -1    0    0    0    0 -0.00000000000E+00 -0.00000000000E+00 -0.10000000000E+04  0.10000000000E+04  0.00000000000E+00 0.  1.
    9000005    2    1    2  501    0 -0.32574388581E+02  0.14497155206E+02 -0.57146750830E+03  0.57260130731E+03  0.50878077782E+01 0.  0.
         13    1    3    3    0    0 -0.43657273778E+00  0.11111845267E+01 -0.16915349952E+02  0.16957428780E+02  0.00000000000E+00 0.  1.
          1    1    3    3  501    0 -0.32137815843E+02  0.13385970680E+02 -0.55455215835E+03  0.55564387853E+03  0.00000000000E+00 0.  1.
         21    1    1    2  502  501  0.32574388581E+02 -0.14497155206E+02 -0.42722297508E+03  0.42870820931E+03  0.00000000000E+00 0.  1.
<mgrwt>
<rscale>  1 0.30000000E+03</rscale>
<asrwt>0</asrwt>
<pdfrwt beam="1">  1        3 0.47618887E-02 0.30000000E+03</pdfrwt>
<pdfrwt beam="2">0</pdfrwt>
<totfact> 0.10667741E+03</totfact>
</mgrwt>
</event>
<event>
 6    1  0.3125838E-002  0.3000000E+03  0.7818608E-02  0.1093470E+00
          1   -1    0    0  502    0  0.00000000000E+00  0.00000000000E+00  0.13554294661E+01  0.13554294661E+01  0.00000000000E+00 0.  1.
         13   -1    0    0    0    0 -0.00000000000E+00 -0.00000000000E+00 -0.10000000000E+04  0.10000000000E+04  0.00000000000E+00 0.  1.
    9000005    2    1    2  501    0  0.27366752955E+02 -0.23749809362E+02 -0.58305838809E+03  0.58419255043E+03  0.32953660422E+01 0.  0.
         13    1    3    3    0    0  0.23252598678E+02 -0.19563535560E+02 -0.50534345966E+03  0.50625628637E+03  0.00000000000E+00 0.  1.
          1    1    3    3  501    0  0.41141542764E+01 -0.41862738016E+01 -0.77714928433E+02  0.77936264057E+02  0.00000000000E+00 0.  1.
         21    1    1    2  502  501 -0.27366752955E+02  0.23749809362E+02 -0.41558618244E+03  0.41716287904E+03  0.00000000000E+00 0.  1.
<mgrwt>
<rscale>  1 0.30000000E+03</rscale>
<asrwt>0</asrwt>
<pdfrwt beam="1">  1        1 0.49288448E-02 0.30000000E+03</pdfrwt>
<pdfrwt beam="2">0</pdfrwt>
<totfact> 0.20296443E+03</totfact>
</mgrwt>
</event>
<event>
 6    1  0.3125838E-002  0.3000000E+03  0.7818608E-02  0.1093470E+00
          3   -1    0    0  502    0  0.00000000000E+00  0.00000000000E+00  0.30866875083E+01  0.30866875083E+01  0.00000000000E+00 0.  1.
         13   -1    0    0    0    0 -0.00000000000E+00 -0.00000000000E+00 -0.10000000000E+04  0.10000000000E+04  0.00000000000E+00 0.  1.
    9000005    2    1    2  501    0 -0.34902488141E+02  0.28604607450E+02 -0.79062849455E+03  0.79192363828E+03  0.36366505699E+01 0.  0.
         13    1    3    3    0    0 -0.13545562261E+02  0.10661348444E+02 -0.27222237024E+03  0.27276760340E+03  0.00000000000E+00 0.  1.
          1    1    3    3  501    0 -0.21356925880E+02  0.17943259007E+02 -0.51840612431E+03  0.51915603488E+03  0.00000000000E+00 0.  1.
         21    1    1    2  502  501  0.34902488141E+02 -0.28604607450E+02 -0.20628481794E+03  0.21116304923E+03  0.00000000000E+00 0.  1.
<mgrwt>
<rscale>  1 0.30000000E+03</rscale>
<asrwt>0</asrwt>
<pdfrwt beam="1">  1        3 0.11224342E-01 0.30000000E+03</pdfrwt>
<pdfrwt beam="2">0</pdfrwt>
<totfact> 0.27257033E+02</totfact>
</mgrwt>
</event>
<event>
 6    1  0.3125838E-002  0.3000000E+03  0.7818608E-02  0.1093470E+00
          3   -1    0    0  502    0  0.00000000000E+00  0.00000000000E+00  0.54041652028E+01  0.54041652028E+01  0.00000000000E+00 0.  1.
         13   -1    0    0    0    0 -0.00000000000E+00 -0.00000000000E+00 -0.10000000000E+04  0.10000000000E+04  0.00000000000E+00 0.  1.
    9000005    2    1    2  501    0  0.64107821264E+02  0.19318622247E+02 -0.70451575230E+03  0.70769713443E+03  0.31252075335E+01 0.  0.
         13    1    3    3    0    0  0.28626876794E+02  0.99269285601E+01 -0.30877337327E+03  0.31025640690E+03  0.00000000000E+00 0.  1.
          3    1    3    3  501    0  0.35480944470E+02  0.93916936873E+01 -0.39574237903E+03  0.39744072752E+03  0.00000000000E+00 0.  1.
         21    1    1    2  502  501 -0.64107821264E+02 -0.19318622247E+02 -0.29008008250E+03  0.29770703078E+03  0.00000000000E+00 0.  1.
<mgrwt>
<rscale>  1 0.30000000E+03</rscale>
<asrwt>0</asrwt>
<pdfrwt beam="1">  1        3 0.19651551E-01 0.30000000E+03</pdfrwt>
<pdfrwt beam="2">0</pdfrwt>
<totfact> 0.10318917E+02</totfact>
</mgrwt>
</event>
<event>
 6    1  0.3125838E-002  0.3000000E+03  0.7818608E-02  0.1093470E+00
          1   -1    0    0  502    0  0.00000000000E+00  0.00000000000E+00  0.53206596942E+01  0.53206596942E+01  0.00000000000E+00 0.  1.
         13   -1    0    0    0    0 -0.00000000000E+00 -0.00000000000E+00 -0.10000000000E+04  0.10000000000E+04  0.00000000000E+00 0.  1.
    9000005    2    1    2  501    0  0.19755599380E+02 -0.25886048670E+02 -0.94709727721E+03  0.94766284192E+03  0.33523461137E+01 0.  0.
         13    1    3    3    0    0  0.41040541803E+01 -0.45796907667E+01 -0.14600845848E+03  0.14613790328E+03  0.00000000000E+00 0.  1.
          3    1    3    3  501    0  0.15651545200E+02 -0.21306357903E+02 -0.80108881873E+03  0.80152493863E+03  0.00000000000E+00 0.  1.
         21    1    1    2  502  501 -0.19755599380E+02  0.25886048670E+02 -0.47582063092E+02  0.57657817776E+02  0.00000000000E+00 0.  1.
<mgrwt>
<rscale>  1 0.30000000E+03</rscale>
<asrwt>0</asrwt>
<pdfrwt beam="1">  1        1 0.19347894E-01 0.30000000E+03</pdfrwt>
<pdfrwt beam="2">0</pdfrwt>
<totfact> 0.30777298E+02</totfact>
</mgrwt>
</event>
<event>
 6    1  0.3125838E-002  0.3000000E+03  0.7818608E-02  0.1093470E+00
          1   -1    0    0  502    0  0.00000000000E+00  0.00000000000E+00  0.60834745293E+01  0.60834745293E+01  0.00000000000E+00 0.  1.
         13   -1    0    0    0    0 -0.00000000000E+00 -0.00000000000E+00 -0.10000000000E+04  0.10000000000E+04  0.00000000000E+00 0.  1.
    9000005    2    1    2  501    0 -0.34601025436E+02 -0.53318839910E+01 -0.94644210317E+03  0.94709635118E+03  0.36309531918E+01 0.  0.
         13    1    3    3    0    0 -0.13667558890E+01  0.33916624237E+00 -0.51993493807E+02  0.52012560537E+02  0.00000000000E+00 0.  1.
          3    1    3    3  501    0 -0.33234269547E+02 -0.56710502334E+01 -0.89444860936E+03  0.89508379064E+03  0.00000000000E+00 0.  1.
         21    1    1    2  502  501  0.34601025436E+02  0.53318839910E+01 -0.47474422305E+02  0.58987123351E+02  0.00000000000E+00 0.  1.
<mgrwt>
<rscale>  1 0.30000000E+03</rscale>
<asrwt>0</asrwt>
<pdfrwt beam="1">  1        1 0.22121772E-01 0.30000000E+03</pdfrwt>
<pdfrwt beam="2">0</pdfrwt>
<totfact> 0.25741266E+02</totfact>
</mgrwt>
</event>
<event>
 6    1  0.3125838E-002  0.3000000E+03  0.7818608E-02  0.1093470E+00
          1   -1    0    0  502    0  0.00000000000E+00  0.00000000000E+00  0.16066107359E+01  0.16066107359E+01  0.00000000000E+00 0.  1.
         13   -1    0    0    0    0 -0.00000000000E+00 -0.00000000000E+00 -0.10000000000E+04  0.10000000000E+04  0.00000000000E+00 0.  1.
    9000005    2    1    2  501    0  0.37222375368E+02  0.68507777755E+01 -0.66171645406E+03  0.66280903535E+03  0.38358041069E+01 0.  0.
         13    1    3    3    0    0  0.16714958370E+02  0.21398722663E+01 -0.32363541572E+03  0.32407383602E+03  0.00000000000E+00 0.  1.
          3    1    3    3  501    0  0.20507416999E+02  0.47109055092E+01 -0.33808103834E+03  0.33873519933E+03  0.00000000000E+00 0.  1.
         21    1    1    2  502  501 -0.37222375368E+02 -0.68507777755E+01 -0.33667693521E+03  0.33879757538E+03  0.00000000000E+00 0.  1.
<mgrwt>
<rscale>  1 0.30000000E+03</rscale>
<asrwt>0</asrwt>
<pdfrwt beam="1">  1        1 0.58422332E-02 0.30000000E+03</pdfrwt>
<pdfrwt beam="2">0</pdfrwt>
<totfact> 0.15985091E+03</totfact>
</mgrwt>
</event>
<event>
 6    1  0.3125838E-002  0.3000000E+03  0.7818608E-02  0.1093470E+00
          1   -1    0    0  502    0  0.00000000000E+00  0.00000000000E+00  0.17762728809E+01  0.17762728809E+01  0.00000000000E+00 0.  1.
         13   -1    0    0    0    0 -0.00000000000E+00 -0.00000000000E+00 -0.10000000000E+04  0.10000000000E+04  0.00000000000E+00 0.  1.
    9000005    2    1    2  501    0  0.16944325859E+02 -0.29740139688E+02 -0.79065094471E+03  0.79140030923E+03  0.37345658010E+01 0.  0.
         13    1    3    3    0    0  0.49844363035E+01 -0.58959397976E+01 -0.19291193262E+03  0.19306636283E+03  0.00000000000E+00 0.  1.
          1    1    3    3  501    0  0.11959889556E+02 -0.23844199890E+02 -0.59773901210E+03  0.59833394639E+03  0.00000000000E+00 0.  1.
         21    1    1    2  502  501 -0.16944325859E+02  0.29740139688E+02 -0.20757278241E+03  0.21037596366E+03  0.00000000000E+00 0.  1.
<mgrwt>
<rscale>  1 0.30000000E+03</rscale>
<asrwt>0</asrwt>
<pdfrwt beam="1">  1        1 0.64591877E-02 0.30000000E+03</pdfrwt>
<pdfrwt beam="2">0</pdfrwt>
<totfact> 0.13886095E+03</totfact>
</mgrwt>
</event>
<event>
 6    1  0.3125838E-002  0.3000000E+03  0.7818608E-02  0.1093470E+00
          3   -1    0    0  502    0  0.00000000000E+00  0.00000000000E+00  0.94298265581E+01  0.94298265581E+01  0.00000000000E+00 0.  1.
         13   -1    0    0    0    0 -0.00000000000E+00 -0.00000000000E+00 -0.10000000000E+04  0.10000000000E+04  0.00000000000E+00 0.  1.
    9000005    2    1    2  501    0  0.45544091374E+02 -0.59322368288E+01 -0.93995318092E+03  0.94108119362E+03  0.35178070403E+01 0.  0.
         13    1    3    3    0    0  0.41954643519E+02 -0.49622055884E+01 -0.84542653561E+03  0.84648144853E+03  0.00000000000E+00 0.  1.
          3    1    3    3  501    0  0.35894478548E+01 -0.97003124039E+00 -0.94526645311E+02  0.94599745085E+02  0.00000000000E+00 0.  1.
         21    1    1    2  502  501 -0.45544091374E+02  0.59322368288E+01 -0.50616992523E+02  0.68348632942E+02  0.00000000000E+00 0.  1.
<mgrwt>
<rscale>  1 0.30000000E+03</rscale>
<asrwt>0</asrwt>
<pdfrwt beam="1">  1        3 0.34290351E-01 0.30000000E+03</pdfrwt>
<pdfrwt beam="2">0</pdfrwt>
<totfact> 0.36218844E+01</totfact>
</mgrwt>
</event>
<event>
 6    1  0.3125838E-002  0.3000000E+03  0.7818608E-02  0.1093470E+00
          3   -1    0    0  502    0  0.00000000000E+00  0.00000000000E+00  0.12477450050E+01  0.12477450050E+01  0.00000000000E+00 0.  1.
         13   -1    0    0    0    0 -0.00000000000E+00 -0.00000000000E+00 -0.10000000000E+04  0.10000000000E+04  0.00000000000E+00 0.  1.
    9000005    2    1    2  501    0  0.30560138978E+02  0.16998620298E+02 -0.56275935189E+03  0.56385468751E+03  0.33384579860E+01 0.  0.
         13    1    3    3    0    0  0.10997092944E+02  0.49738452701E+01 -0.21414584982E+03  0.21448571091E+03  0.00000000000E+00 0.  1.
          3    1    3    3  501    0  0.19563046033E+02  0.12024775028E+02 -0.34861350207E+03  0.34936897660E+03  0.00000000000E+00 0.  1.
         21    1    1    2  502  501 -0.30560138978E+02 -0.16998620298E+02 -0.43599290311E+03  0.43739305750E+03  0.00000000000E+00 0.  1.
<mgrwt>
<rscale>  1 0.30000000E+03</rscale>
<asrwt>0</asrwt>
<pdfrwt beam="1">  1        3 0.45372641E-02 0.30000000E+03</pdfrwt>
<pdfrwt beam="2">0</pdfrwt>
<totfact> 0.11493741E+03</totfact>
</mgrwt>
</event>
<event>
 6    1  0.3125838E-002  0.3000000E+03  0.7818608E-02  0.1093470E+00
          1   -1    0    0  502    0  0.00000000000E+00  0.00000000000E+00  0.44717571315E+01  0.44717571315E+01  0.00000000000E+00 0.  1.
         13   -1    0    0    0    0 -0.00000000000E+00 -0.00000000000E+00 -0.10000000000E+04  0.10000000000E+04  0.00000000000E+00 0.  1.
    9000005    2    1    2  501    0 -0.45557580973E+02  0.41760557274E+02 -0.68768634252E+03  0.69048756496E+03  0.64136056826E+01 0.  0.
         13    1    3    3    0    0 -0.50786485160E+01  0.27265813935E+01 -0.78468146304E+02  0.78679583764E+02  0.00000000000E+00 0.  1.
          1    1    3    3  501    0 -0.40478932457E+02  0.39033975880E+02 -0.60921819622E+03  0.61180798119E+03  0.00000000000E+00 0.  1.
         21    1    1    2  502  501  0.45557580973E+02 -0.41760557274E+02 -0.30784190034E+03  0.31398419217E+03  0.00000000000E+00 0.  1.
<mgrwt>
<rscale>  1 0.30000000E+03</rscale>
<asrwt>0</asrwt>
<pdfrwt beam="1">  1        1 0.16260969E-01 0.30000000E+03</pdfrwt>
<pdfrwt beam="2">0</pdfrwt>
<totfact> 0.38885911E+02</totfact>
</mgrwt>
</event>
<event>
 6    1  0.3125838E-002  0.3000000E+03  0.7818608E-02  0.1093470E+00
          1   -1    0    0  502    0  0.00000000000E+00  0.00000000000E+00  0.99011751846E+01  0.99011751846E+01  0.00000000000E+00 0.  1.
         13   -1    0    0    0    0 -0.00000000000E+00 -0.00000000000E+00 -0.10000000000E+04  0.10000000000E+04  0.00000000000E+00 0.  1.
    9000005    2    1    2  501    0 -0.35667683028E+02 -0.71855408185E+00 -0.96641297235E+03  0.96707922357E+03  0.39359391392E+01 0.  0.
         13    1    3    3    0    0 -0.22393376304E+02 -0.81492699852E-01 -0.65537703091E+03  0.65575950057E+03  0.00000000000E+00 0.  1.
          1    1    3    3  501    0 -0.13274306724E+02 -0.63706138199E+00 -0.31103594143E+03  0.31131972300E+03  0.00000000000E+00 0.  1.
         21    1    1    2  502  501  0.35667683028E+02  0.71855408185E+00 -0.23685852470E+02  0.42821951611E+02  0.00000000000E+00 0.  1.
<mgrwt>
<rscale>  1 0.30000000E+03</rscale>
<asrwt>0</asrwt>
<pdfrwt beam="1">  1        1 0.36004349E-01 0.30000000E+03</pdfrwt>
<pdfrwt beam="2">0</pdfrwt>
<totfact> 0.13561603E+02</totfact>
</mgrwt>
</event>
<event>
 6    1  0.3125838E-002  0.3000000E+03  0.7818608E-02  0.1093470E+00
          3   -1    0    0  502    0  0.00000000000E+00  0.00000000000E+00  0.18681917221E+01  0.18681917221E+01  0.00000000000E+00 0.  1.
         13   -1    0    0    0    0 -0.00000000000E+00 -0.00000000000E+00 -0.10000000000E+04  0.10000000000E+04  0.00000000000E+00 0.  1.
    9000005    2    1    2  501    0  0.41756601723E+02 -0.32659140044E+01 -0.62002421268E+03  0.62144785337E+03  0.36235575307E+01 0.  0.
         13    1    3    3    0    0  0.43643535647E+01 -0.14374343860E+01 -0.63941388523E+02  0.64106278678E+02  0.00000000000E+00 0.  1.
          3    1    3    3  501    0  0.37392248158E+02 -0.18284796184E+01 -0.55608282416E+03  0.55734157469E+03  0.00000000000E+00 0.  1.
         21    1    1    2  502  501 -0.41756601723E+02  0.32659140044E+01 -0.37810759560E+03  0.38042033835E+03  0.00000000000E+00 0.  1.
<mgrwt>
<rscale>  1 0.30000000E+03</rscale>
<asrwt>0</asrwt>
<pdfrwt beam="1">  1        3 0.67934388E-02 0.30000000E+03</pdfrwt>
<pdfrwt beam="2">0</pdfrwt>
<totfact> 0.61401156E+02</totfact>
</mgrwt>
</event>
<event>
 6    1  0.3125838E-002  0.3000000E+03  0.7818608E-02  0.1093470E+00
          1   -1    0    0  502    0  0.00000000000E+00  0.00000000000E+00  0.10606847650E+01  0.10606847650E+01  0.00000000000E+00 0.  1.
         13   -1    0    0    0    0 -0.00000000000E+00 -0.00000000000E+00 -0.10000000000E+04  0.10000000000E+04  0.00000000000E+00 0.  1.
    9000005    2    1    2  501    0 -0.25820293315E+02  0.17060951860E+02 -0.65268682883E+03  0.65342790730E+03  0.31890260529E+01 0.  0.
         13    1    3    3    0    0 -0.25764178995E+02  0.16604042558E+02 -0.64271914148E+03  0.64344959552E+03  0.00000000000E+00 0.  1.
          3    1    3    3  501    0 -0.56114319914E-01  0.45690930194E+00 -0.99676873435E+01  0.99783117763E+01  0.00000000000E+00 0.  1.
         21    1    1    2  502  501  0.25820293315E+02 -0.17060951860E+02 -0.34625248641E+03  0.34763277747E+03  0.00000000000E+00 0.  1.
<mgrwt>
<rscale>  1 0.30000000E+03</rscale>
<asrwt>0</asrwt>
<pdfrwt beam="1">  1        1 0.38570436E-02 0.30000000E+03</pdfrwt>
<pdfrwt beam="2">0</pdfrwt>
<totfact> 0.28661027E+03</totfact>
</mgrwt>
</event>
<event>
 6    1  0.3125838E-002  0.3000000E+03  0.7818608E-02  0.1093470E+00
          1   -1    0    0  502    0  0.00000000000E+00  0.00000000000E+00  0.24428692275E+01  0.24428692275E+01  0.00000000000E+00 0.  1.
         13   -1    0    0    0    0 -0.00000000000E+00 -0.00000000000E+00 -0.10000000000E+04  0.10000000000E+04  0.00000000000E+00 0.  1.
    9000005    2    1    2  501    0 -0.50063848707E+01 -0.38293940766E+02 -0.81120225232E+03  0.81212831247E+03  0.34368540176E+01 0.  0.
         13    1    3    3    0    0 -0.28265893669E+01 -0.31432807021E+02 -0.65194511564E+03  0.65270854504E+03  0.00000000000E+00 0.  1.
          1    1    3    3  501    0 -0.21797955038E+01 -0.68611337453E+01 -0.15925713668E+03  0.15941976743E+03  0.00000000000E+00 0.  1.
         21    1    1    2  502  501  0.50063848707E+01  0.38293940766E+02 -0.18635487846E+03  0.19031455676E+03  0.00000000000E+00 0.  1.
<mgrwt>
<rscale>  1 0.30000000E+03</rscale>
<asrwt>0</asrwt>
<pdfrwt beam="1">  1        1 0.88831796E-02 0.30000000E+03</pdfrwt>
<pdfrwt beam="2">0</pdfrwt>
<totfact> 0.89036329E+02</totfact>
</mgrwt>
</event>
<event>
 6    1  0.3125838E-002  0.3000000E+03  0.7818608E-02  0.1093470E+00
          1   -1    0    0  502    0  0.00000000000E+00  0.00000000000E+00  0.28269804663E+01  0.28269804663E+01  0.00000000000E+00 0.  1.
         13   -1    0    0    0    0 -0.00000000000E+00 -0.00000000000E+00 -0.10000000000E+04  0.10000000000E+04  0.00000000000E+00 0.  1.
    9000005    2    1    2  501    0  0.46375336601E+02  0.39151815407E+01 -0.74055678178E+03  0.74202457639E+03  0.31818925618E+01 0.  0.
         13    1    3    3    0    0  0.15275172346E+02  0.14910809672E+00 -0.25840877745E+03  0.25885990301E+03  0.00000000000E+00 0.  1.
          1    1    3    3  501    0  0.31100164255E+02  0.37660734440E+01 -0.48214800433E+03  0.48316467338E+03  0.00000000000E+00 0.  1.
         21    1    1    2  502  501 -0.46375336601E+02 -0.39151815407E+01 -0.25661623776E+03  0.26080240408E+03  0.00000000000E+00 0.  1.
<mgrwt>
<rscale>  1 0.30000000E+03</rscale>
<asrwt>0</asrwt>
<pdfrwt beam="1">  1        1 0.10279951E-01 0.30000000E+03</pdfrwt>
<pdfrwt beam="2">0</pdfrwt>
<totfact> 0.72749473E+02</totfact>
</mgrwt>
</event>
<event>
 6    1  0.3125838E-002  0.3000000E+03  0.7818608E-02  0.1093470E+00
          1   -1    0    0  502    0  0.00000000000E+00  0.00000000000E+00  0.19686579855E+01  0.19686579855E+01  0.00000000000E+00 0.  1.
         13   -1    0    0    0    0 -0.00000000000E+00 -0.00000000000E+00 -0.10000000000E+04  0.10000000000E+04  0.00000000000E+00 0.  1.
    9000005    2    1    2  501    0  0.25490609864E+02  0.30278938318E+02 -0.72463546445E+03  0.72572258803E+03  0.31832594377E+01 0.  0.
         13    1    3    3    0    0  0.54064969004E+01  0.51455403046E+01 -0.15435356015E+03  0.15453390672E+03  0.00000000000E+00 0.  1.
          1    1    3    3  501    0  0.20084112963E+02  0.25133398013E+02 -0.57028190430E+03  0.57118868131E+03  0.00000000000E+00 0.  1.
         21    1    1    2  502  501 -0.25490609864E+02 -0.30278938318E+02 -0.27339587756E+03  0.27624606996E+03  0.00000000000E+00 0.  1.
<mgrwt>
<rscale>  1 0.30000000E+03</rscale>
<asrwt>0</asrwt>
<pdfrwt beam="1">  1        1 0.71587714E-02 0.30000000E+03</pdfrwt>
<pdfrwt beam="2">0</pdfrwt>
<totfact> 0.12025115E+03</totfact>
</mgrwt>
</event>
<event>
 6    1  0.3125838E-002  0.3000000E+03  0.7818608E-02  0.1093470E+00
          1   -1    0    0  502    0  0.00000000000E+00  0.00000000000E+00  0.29669750064E+01  0.29669750064E+01  0.00000000000E+00 0.  1.
         13   -1    0    0    0    0 -0.00000000000E+00 -0.00000000000E+00 -0.10000000000E+04  0.10000000000E+04  0.00000000000E+00 0.  1.
    9000005    2    1    2  501    0 -0.18385268191E+02 -0.50129583346E+02 -0.40229888454E+03  0.40584078145E+03  0.33695950795E+01 0.  0.
         13    1    3    3    0    0 -0.18669798799E+01 -0.65993483144E+01 -0.59720784794E+02  0.60113302591E+02  0.00000000000E+00 0.  1.
          1    1    3    3  501    0 -0.16518288312E+02 -0.43530235031E+02 -0.34257809975E+03  0.34572747886E+03  0.00000000000E+00 0.  1.
         21    1    1    2  502  501  0.18385268191E+02  0.50129583346E+02 -0.59473414045E+03  0.59712619356E+03  0.00000000000E+00 0.  1.
<mgrwt>
<rscale>  1 0.30000000E+03</rscale>
<asrwt>0</asrwt>
<pdfrwt beam="1">  1        1 0.10789023E-01 0.30000000E+03</pdfrwt>
<pdfrwt beam="2">0</pdfrwt>
<totfact> 0.68065665E+02</totfact>
</mgrwt>
</event>
<event>
 6    1  0.4242591E-002  0.3000000E+03  0.7818608E-02  0.1093470E+00
          3   -1    0    0  502    0  0.00000000000E+00  0.00000000000E+00  0.39030612433E+01  0.39030612433E+01  0.00000000000E+00 0.  1.
         13   -1    0    0    0    0 -0.00000000000E+00 -0.00000000000E+00 -0.10000000000E+04  0.10000000000E+04  0.00000000000E+00 0.  1.
    9000005    2    1    2  501    0 -0.32878373376E+02  0.31894369255E+02 -0.83810192913E+03  0.83940181111E+03  0.90729636651E+01 0.  0.
         13    1    3    3    0    0 -0.18647514226E+02  0.21700732883E+02 -0.58149954133E+03  0.58220303002E+03  0.00000000000E+00 0.  1.
          3    1    3    3  501    0 -0.14230859150E+02  0.10193636372E+02 -0.25660238779E+03  0.25719878109E+03  0.00000000000E+00 0.  1.
         21    1    1    2  502  501  0.32878373376E+02 -0.31894369255E+02 -0.15799500963E+03  0.16450125013E+03  0.00000000000E+00 0.  1.
<mgrwt>
<rscale>  1 0.30000000E+03</rscale>
<asrwt>0</asrwt>
<pdfrwt beam="1">  1        3 0.14192980E-01 0.30000000E+03</pdfrwt>
<pdfrwt beam="2">0</pdfrwt>
<totfact> 0.18310847E+02</totfact>
</mgrwt>
</event>
<event>
 6    1  0.3125838E-002  0.3000000E+03  0.7818608E-02  0.1093470E+00
          1   -1    0    0  502    0  0.00000000000E+00  0.00000000000E+00  0.15005841024E+01  0.15005841024E+01  0.00000000000E+00 0.  1.
         13   -1    0    0    0    0 -0.00000000000E+00 -0.00000000000E+00 -0.10000000000E+04  0.10000000000E+04  0.00000000000E+00 0.  1.
    9000005    2    1    2  501    0 -0.29706627546E+02 -0.10593109142E+02 -0.78938484511E+03  0.79002103096E+03  0.31777332927E+01 0.  0.
         13    1    3    3    0    0 -0.86973417074E+01 -0.22766778917E+01 -0.19583308140E+03  0.19603933989E+03  0.00000000000E+00 0.  1.
          1    1    3    3  501    0 -0.21009285839E+02 -0.83164312504E+01 -0.59355176371E+03  0.59398169107E+03  0.00000000000E+00 0.  1.
         21    1    1    2  502  501  0.29706627546E+02  0.10593109142E+02 -0.20911457079E+03  0.21147955314E+03  0.00000000000E+00 0.  1.
<mgrwt>
<rscale>  1 0.30000000E+03</rscale>
<asrwt>0</asrwt>
<pdfrwt beam="1">  1        1 0.54566810E-02 0.30000000E+03</pdfrwt>
<pdfrwt beam="2">0</pdfrwt>
<totfact> 0.17593062E+03</totfact>
</mgrwt>
</event>
<event>
 6    1  0.3125838E-002  0.3000000E+03  0.7818608E-02  0.1093470E+00
          1   -1    0    0  502    0  0.00000000000E+00  0.00000000000E+00  0.16489472080E+01  0.16489472080E+01  0.00000000000E+00 0.  1.
         13   -1    0    0    0    0 -0.00000000000E+00 -0.00000000000E+00 -0.10000000000E+04  0.10000000000E+04  0.00000000000E+00 0.  1.
    9000005    2    1    2  501    0  0.33349892183E+02  0.13842953061E+02 -0.72398938840E+03  0.72492134550E+03  0.68176235159E+01 0.  0.
         13    1    3    3    0    0  0.14203216954E+02  0.68281136688E+01 -0.38161430867E+03  0.38193956994E+03  0.00000000000E+00 0.  1.
          1    1    3    3  501    0  0.19146675228E+02  0.70148393923E+01 -0.34237507974E+03  0.34298177556E+03  0.00000000000E+00 0.  1.
         21    1    1    2  502  501 -0.33349892183E+02 -0.13842953061E+02 -0.27436166439E+03  0.27672760170E+03  0.00000000000E+00 0.  1.
<mgrwt>
<rscale>  1 0.30000000E+03</rscale>
<asrwt>0</asrwt>
<pdfrwt beam="1">  1        1 0.59961843E-02 0.30000000E+03</pdfrwt>
<pdfrwt beam="2">0</pdfrwt>
<totfact> 0.15412201E+03</totfact>
</mgrwt>
</event>
<event>
 6    1  0.3125838E-002  0.3000000E+03  0.7818608E-02  0.1093470E+00
          1   -1    0    0  502    0  0.00000000000E+00  0.00000000000E+00  0.13067488157E+01  0.13067488157E+01  0.00000000000E+00 0.  1.
         13   -1    0    0    0    0 -0.00000000000E+00 -0.00000000000E+00 -0.10000000000E+04  0.10000000000E+04  0.00000000000E+00 0.  1.
    9000005    2    1    2  501    0  0.34310738463E+02 -0.29561486323E+01 -0.35201418287E+03  0.35371136358E+03  0.34319370895E+01 0.  0.
         13    1    3    3    0    0  0.29902356002E+02 -0.21374380701E+01 -0.29414364337E+03  0.29566738486E+03  0.00000000000E+00 0.  1.
          1    1    3    3  501    0  0.44083824618E+01 -0.81871056217E+00 -0.57870539508E+02  0.58043978722E+02  0.00000000000E+00 0.  1.
         21    1    1    2  502  501 -0.34310738463E+02  0.29561486323E+01 -0.64667906831E+03  0.64759538524E+03  0.00000000000E+00 0.  1.
<mgrwt>
<rscale>  1 0.30000000E+03</rscale>
<asrwt>0</asrwt>
<pdfrwt beam="1">  1        1 0.47518239E-02 0.30000000E+03</pdfrwt>
<pdfrwt beam="2">0</pdfrwt>
<totfact> 0.21367591E+03</totfact>
</mgrwt>
</event>
<event>
 6    1  0.3125838E-002  0.3000000E+03  0.7818608E-02  0.1093470E+00
          1   -1    0    0  502    0  0.00000000000E+00  0.00000000000E+00  0.47733168439E+01  0.47733168439E+01  0.00000000000E+00 0.  1.
         13   -1    0    0    0    0 -0.00000000000E+00 -0.00000000000E+00 -0.10000000000E+04  0.10000000000E+04  0.00000000000E+00 0.  1.
    9000005    2    1    2  501    0  0.25613587352E+02  0.24143437685E+02 -0.92986131184E+03  0.93053321173E+03  0.33222630590E+01 0.  0.
         13    1    3    3    0    0  0.39569629135E+01  0.28755603450E+01 -0.10565441660E+03  0.10576758553E+03  0.00000000000E+00 0.  1.
          1    1    3    3  501    0  0.21656624439E+02  0.21267877340E+02 -0.82420689524E+03  0.82476562620E+03  0.00000000000E+00 0.  1.
         21    1    1    2  502  501 -0.25613587352E+02 -0.24143437685E+02 -0.65365371317E+02  0.74240105116E+02  0.00000000000E+00 0.  1.
<mgrwt>
<rscale>  1 0.30000000E+03</rscale>
<asrwt>0</asrwt>
<pdfrwt beam="1">  1        1 0.17357552E-01 0.30000000E+03</pdfrwt>
<pdfrwt beam="2">0</pdfrwt>
<totfact> 0.35607988E+02</totfact>
</mgrwt>
</event>
<event>
 6    1  0.3125838E-002  0.3000000E+03  0.7818608E-02  0.1093470E+00
          3   -1    0    0  502    0  0.00000000000E+00  0.00000000000E+00  0.14170564462E+01  0.14170564462E+01  0.00000000000E+00 0.  1.
         13   -1    0    0    0    0 -0.00000000000E+00 -0.00000000000E+00 -0.10000000000E+04  0.10000000000E+04  0.00000000000E+00 0.  1.
    9000005    2    1    2  501    0 -0.15423122101E+02  0.29091109308E+02 -0.74069621940E+03  0.74143681137E+03  0.36729391483E+01 0.  0.
         13    1    3    3    0    0 -0.92157137485E+01  0.16468639735E+02 -0.46327242447E+03  0.46365664532E+03  0.00000000000E+00 0.  1.
          3    1    3    3  501    0 -0.62074083526E+01  0.12622469573E+02 -0.27742379494E+03  0.27778016605E+03  0.00000000000E+00 0.  1.
         21    1    1    2  502  501  0.15423122101E+02 -0.29091109308E+02 -0.25788672415E+03  0.25998024508E+03  0.00000000000E+00 0.  1.
<mgrwt>
<rscale>  1 0.30000000E+03</rscale>
<asrwt>0</asrwt>
<pdfrwt beam="1">  1        3 0.51529434E-02 0.30000000E+03</pdfrwt>
<pdfrwt beam="2">0</pdfrwt>
<totfact> 0.94441217E+02</totfact>
</mgrwt>
</event>
<event>
 6    1  0.3125838E-002  0.3000000E+03  0.7818608E-02  0.1093470E+00
          1   -1    0    0  502    0  0.00000000000E+00  0.00000000000E+00  0.29023489916E+01  0.29023489916E+01  0.00000000000E+00 0.  1.
         13   -1    0    0    0    0 -0.00000000000E+00 -0.00000000000E+00 -0.10000000000E+04  0.10000000000E+04  0.00000000000E+00 0.  1.
    9000005    2    1    2  501    0  0.22268279676E+02 -0.20834631601E+02 -0.91179972451E+03  0.91231706090E+03  0.37045700190E+01 0.  0.
         13    1    3    3    0    0  0.69025362444E+01 -0.85339848741E+01 -0.29948454407E+03  0.29968561200E+03  0.00000000000E+00 0.  1.
          3    1    3    3  501    0  0.15365743431E+02 -0.12300646727E+02 -0.61231518044E+03  0.61263144890E+03  0.00000000000E+00 0.  1.
         21    1    1    2  502  501 -0.22268279676E+02  0.20834631601E+02 -0.85297926495E+02  0.90585288088E+02  0.00000000000E+00 0.  1.
<mgrwt>
<rscale>  1 0.30000000E+03</rscale>
<asrwt>0</asrwt>
<pdfrwt beam="1">  1        1 0.10554019E-01 0.30000000E+03</pdfrwt>
<pdfrwt beam="2">0</pdfrwt>
<totfact> 0.70159874E+02</totfact>
</mgrwt>
</event>
<event>
 6    1  0.3125838E-002  0.3000000E+03  0.7818608E-02  0.1093470E+00
          1   -1    0    0  502    0  0.00000000000E+00  0.00000000000E+00  0.22836614783E+01  0.22836614783E+01  0.00000000000E+00 0.  1.
         13   -1    0    0    0    0 -0.00000000000E+00 -0.00000000000E+00 -0.10000000000E+04  0.10000000000E+04  0.00000000000E+00 0.  1.
    9000005    2    1    2  501    0  0.22339337714E+02  0.29703338593E+02 -0.81367527750E+03  0.81452731278E+03  0.24396153811E+01 0.  0.
         13    1    3    3    0    0  0.48605823181E+01  0.61797519624E+01 -0.15160272807E+03  0.15180646150E+03  0.00000000000E+00 0.  1.
          3    1    3    3  501    0  0.17478755396E+02  0.23523586631E+02 -0.66207254943E+03  0.66272085128E+03  0.00000000000E+00 0.  1.
         21    1    1    2  502  501 -0.22339337714E+02 -0.29703338593E+02 -0.18404106102E+03  0.18775634869E+03  0.00000000000E+00 0.  1.
<mgrwt>
<rscale>  1 0.30000000E+03</rscale>
<asrwt>0</asrwt>
<pdfrwt beam="1">  1        1 0.83042411E-02 0.30000000E+03</pdfrwt>
<pdfrwt beam="2">0</pdfrwt>
<totfact> 0.97772329E+02</totfact>
</mgrwt>
</event>
<event>
 6    1  0.3125838E-002  0.3000000E+03  0.7818608E-02  0.1093470E+00
          3   -1    0    0  502    0  0.00000000000E+00  0.00000000000E+00  0.39769938592E+01  0.39769938592E+01  0.00000000000E+00 0.  1.
         13   -1    0    0    0    0 -0.00000000000E+00 -0.00000000000E+00 -0.10000000000E+04  0.10000000000E+04  0.00000000000E+00 0.  1.
    9000005    2    1    2  501    0  0.51231080097E+01  0.32168084272E+02 -0.92782029949E+03  0.92839497830E+03  0.23865681744E+01 0.  0.
         13    1    3    3    0    0  0.96534808725E+00  0.95113238770E+01 -0.29966647747E+03  0.29981893686E+03  0.00000000000E+00 0.  1.
          3    1    3    3  501    0  0.41577599224E+01  0.22656760395E+02 -0.62815382201E+03  0.62857604144E+03  0.00000000000E+00 0.  1.
         21    1    1    2  502  501 -0.51231080097E+01 -0.32168084272E+02 -0.68202706655E+02  0.75582015562E+02  0.00000000000E+00 0.  1.
<mgrwt>
<rscale>  1 0.30000000E+03</rscale>
<asrwt>0</asrwt>
<pdfrwt beam="1">  1        3 0.14461826E-01 0.30000000E+03</pdfrwt>
<pdfrwt beam="2">0</pdfrwt>
<totfact> 0.17728980E+02</totfact>
</mgrwt>
</event>
<event>
 6    1  0.3125838E-002  0.3000000E+03  0.7818608E-02  0.1093470E+00
          3   -1    0    0  502    0  0.00000000000E+00  0.00000000000E+00  0.13237037961E+01  0.13237037961E+01  0.00000000000E+00 0.  1.
         13   -1    0    0    0    0 -0.00000000000E+00 -0.00000000000E+00 -0.10000000000E+04  0.10000000000E+04  0.00000000000E+00 0.  1.
    9000005    2    1    2  501    0 -0.38795190076E+01 -0.36090253409E+02 -0.50110549104E+03  0.50243066595E+03  0.35076885121E+01 0.  0.
         13    1    3    3    0    0 -0.25066403880E+01 -0.90206734852E+01 -0.12970902714E+03  0.13004648214E+03  0.00000000000E+00 0.  1.
          3    1    3    3  501    0 -0.13728786196E+01 -0.27069579924E+02 -0.37139646390E+03  0.37238418381E+03  0.00000000000E+00 0.  1.
         21    1    1    2  502  501  0.38795190076E+01  0.36090253409E+02 -0.49757080516E+03  0.49889303784E+03  0.00000000000E+00 0.  1.
<mgrwt>
<rscale>  1 0.30000000E+03</rscale>
<asrwt>0</asrwt>
<pdfrwt beam="1">  1        3 0.48134785E-02 0.30000000E+03</pdfrwt>
<pdfrwt beam="2">0</pdfrwt>
<totfact> 0.10491829E+03</totfact>
</mgrwt>
</event>
<event>
 6    1  0.3125838E-002  0.3000000E+03  0.7818608E-02  0.1093470E+00
          3   -1    0    0  502    0  0.00000000000E+00  0.00000000000E+00  0.18622860682E+01  0.18622860682E+01  0.00000000000E+00 0.  1.
         13   -1    0    0    0    0 -0.00000000000E+00 -0.00000000000E+00 -0.10000000000E+04  0.10000000000E+04  0.00000000000E+00 0.  1.
    9000005    2    1    2  501    0  0.33265882765E+02 -0.19862523058E+02 -0.71866076476E+03  0.71971249624E+03  0.34122820301E+01 0.  0.
         13    1    3    3    0    0  0.30438959439E+02 -0.18380499354E+02 -0.67442993379E+03  0.67536664753E+03  0.00000000000E+00 0.  1.
          1    1    3    3  501    0  0.28269233262E+01 -0.14820237037E+01 -0.44230830968E+02  0.44345848711E+02  0.00000000000E+00 0.  1.
         21    1    1    2  502  501 -0.33265882765E+02  0.19862523058E+02 -0.27947694917E+03  0.28214978982E+03  0.00000000000E+00 0.  1.
<mgrwt>
<rscale>  1 0.30000000E+03</rscale>
<asrwt>0</asrwt>
<pdfrwt beam="1">  1        3 0.67719636E-02 0.30000000E+03</pdfrwt>
<pdfrwt beam="2">0</pdfrwt>
<totfact> 0.61707325E+02</totfact>
</mgrwt>
</event>
<event>
 6    1  0.3125838E-002  0.3000000E+03  0.7818608E-02  0.1093470E+00
          3   -1    0    0  502    0  0.00000000000E+00  0.00000000000E+00  0.58383300552E+01  0.58383300552E+01  0.00000000000E+00 0.  1.
         13   -1    0    0    0    0 -0.00000000000E+00 -0.00000000000E+00 -0.10000000000E+04  0.10000000000E+04  0.00000000000E+00 0.  1.
    9000005    2    1    2  501    0  0.44693512787E+02  0.18925784731E+02 -0.88543635149E+03  0.88677158286E+03  0.32576415439E+01 0.  0.
         13    1    3    3    0    0  0.17624658893E+02  0.73653038630E+01 -0.37786145160E+03  0.37834396111E+03  0.00000000000E+00 0.  1.
          1    1    3    3  501    0  0.27068853894E+02  0.11560480868E+02 -0.50757489989E+03  0.50842762176E+03  0.00000000000E+00 0.  1.
         21    1    1    2  502  501 -0.44693512787E+02 -0.18925784731E+02 -0.10872531846E+03  0.11906674719E+03  0.00000000000E+00 0.  1.
<mgrwt>
<rscale>  1 0.30000000E+03</rscale>
<asrwt>0</asrwt>
<pdfrwt beam="1">  1        3 0.21230336E-01 0.30000000E+03</pdfrwt>
<pdfrwt beam="2">0</pdfrwt>
<totfact> 0.89600650E+01</totfact>
</mgrwt>
</event>
<event>
 6    1  0.3125838E-002  0.3000000E+03  0.7818608E-02  0.1093470E+00
          1   -1    0    0  502    0  0.00000000000E+00  0.00000000000E+00  0.67149609417E+01  0.67149609417E+01  0.00000000000E+00 0.  1.
         13   -1    0    0    0    0 -0.00000000000E+00 -0.00000000000E+00 -0.10000000000E+04  0.10000000000E+04  0.00000000000E+00 0.  1.
    9000005    2    1    2  501    0 -0.23710162579E+02  0.32966136541E+02 -0.93381431057E+03  0.93470311806E+03  0.34371967873E+01 0.  0.
         13    1    3    3    0    0 -0.19563124080E+01  0.45285393576E+01 -0.10498943247E+03  0.10510526037E+03  0.00000000000E+00 0.  1.
          3    1    3    3  501    0 -0.21753850171E+02  0.28437597183E+02 -0.82882487810E+03  0.82959785770E+03  0.00000000000E+00 0.  1.
         21    1    1    2  502  501  0.23710162579E+02 -0.32966136541E+02 -0.59470728489E+02  0.72011842880E+02  0.00000000000E+00 0.  1.
<mgrwt>
<rscale>  1 0.30000000E+03</rscale>
<asrwt>0</asrwt>
<pdfrwt beam="1">  1        1 0.24418091E-01 0.30000000E+03</pdfrwt>
<pdfrwt beam="2">0</pdfrwt>
<totfact> 0.22585729E+02</totfact>
</mgrwt>
</event>
<event>
 6    1  0.3125838E-002  0.3000000E+03  0.7818608E-02  0.1093470E+00
          1   -1    0    0  502    0  0.00000000000E+00  0.00000000000E+00  0.11587861570E+01  0.11587861570E+01  0.00000000000E+00 0.  1.
         13   -1    0    0    0    0 -0.00000000000E+00 -0.00000000000E+00 -0.10000000000E+04  0.10000000000E+04  0.00000000000E+00 0.  1.
    9000005    2    1    2  501    0  0.12198857118E+02  0.31278267019E+02 -0.57566462864E+03  0.57665252664E+03  0.33510764821E+01 0.  0.
         13    1    3    3    0    0  0.55963299195E+01  0.13510468547E+02 -0.27897758758E+03  0.27936060216E+03  0.00000000000E+00 0.  1.
          1    1    3    3  501    0  0.66025271984E+01  0.17767798472E+02 -0.29668704106E+03  0.29729192448E+03  0.00000000000E+00 0.  1.
         21    1    1    2  502  501 -0.12198857118E+02 -0.31278267019E+02 -0.42317658520E+03  0.42450625951E+03  0.00000000000E+00 0.  1.
<mgrwt>
<rscale>  1 0.30000000E+03</rscale>
<asrwt>0</asrwt>
<pdfrwt beam="1">  1        1 0.42137767E-02 0.30000000E+03</pdfrwt>
<pdfrwt beam="2">0</pdfrwt>
<totfact> 0.25304828E+03</totfact>
</mgrwt>
</event>
<event>
 6    1  0.3125838E-002  0.3000000E+03  0.7818608E-02  0.1093470E+00
          1   -1    0    0  502    0  0.00000000000E+00  0.00000000000E+00  0.33787301758E+02  0.33787301758E+02  0.00000000000E+00 0.  1.
         13   -1    0    0    0    0 -0.00000000000E+00 -0.00000000000E+00 -0.10000000000E+04  0.10000000000E+04  0.00000000000E+00 0.  1.
    9000005    2    1    2  501    0  0.82227153385E+01 -0.10421252148E+03 -0.90823292792E+03  0.91424853630E+03  0.59558442598E+01 0.  0.
         13    1    3    3    0    0  0.36636075803E+01 -0.66028726036E+02 -0.59516567001E+03  0.59882834723E+03  0.00000000000E+00 0.  1.
          1    1    3    3  501    0  0.45591077582E+01 -0.38183795446E+02 -0.31306725791E+03  0.31542018907E+03  0.00000000000E+00 0.  1.
         21    1    1    2  502  501 -0.82227153385E+01  0.10421252148E+03 -0.57979770322E+02  0.11953876546E+03  0.00000000000E+00 0.  1.
<mgrwt>
<rscale>  1 0.30000000E+03</rscale>
<asrwt>0</asrwt>
<pdfrwt beam="1">  1        1 0.12286317E+00 0.30000000E+03</pdfrwt>
<pdfrwt beam="2">0</pdfrwt>
<totfact> 0.25050493E+01</totfact>
</mgrwt>
</event>
<event>
 6    1  0.3125838E-002  0.3000000E+03  0.7818608E-02  0.1093470E+00
          1   -1    0    0  502    0  0.00000000000E+00  0.00000000000E+00  0.30378395983E+01  0.30378395983E+01  0.00000000000E+00 0.  1.
         13   -1    0    0    0    0 -0.00000000000E+00 -0.00000000000E+00 -0.10000000000E+04  0.10000000000E+04  0.00000000000E+00 0.  1.
    9000005    2    1    2  501    0  0.31186039561E+02 -0.32100456318E+02 -0.79085531740E+03  0.79212781354E+03  0.33662391717E+01 0.  0.
         13    1    3    3    0    0  0.29764577154E+02 -0.29440908332E+02 -0.73669294609E+03  0.73788155822E+03  0.00000000000E+00 0.  1.
          1    1    3    3  501    0  0.14214624069E+01 -0.26595479864E+01 -0.54162371306E+02  0.54246255321E+02  0.00000000000E+00 0.  1.
         21    1    1    2  502  501 -0.31186039561E+02  0.32100456318E+02 -0.20610684300E+03  0.21091002606E+03  0.00000000000E+00 0.  1.
<mgrwt>
<rscale>  1 0.30000000E+03</rscale>
<asrwt>0</asrwt>
<pdfrwt beam="1">  1        1 0.11046713E-01 0.30000000E+03</pdfrwt>
<pdfrwt beam="2">0</pdfrwt>
<totfact> 0.65892475E+02</totfact>
</mgrwt>
</event>
<event>
 6    1  0.3125838E-002  0.3000000E+03  0.7818608E-02  0.1093470E+00
          3   -1    0    0  502    0  0.00000000000E+00  0.00000000000E+00  0.12943891256E+01  0.12943891256E+01  0.00000000000E+00 0.  1.
         13   -1    0    0    0    0 -0.00000000000E+00 -0.00000000000E+00 -0.10000000000E+04  0.10000000000E+04  0.00000000000E+00 0.  1.
    9000005    2    1    2  501    0 -0.27222180862E+02 -0.23380694533E+02 -0.51902294364E+03  0.52027134887E+03  0.31235279256E+01 0.  0.
         13    1    3    3    0    0 -0.78086005923E+01 -0.86267800647E+01 -0.16908912261E+03  0.16948901723E+03  0.00000000000E+00 0.  1.
          3    1    3    3  501    0 -0.19413580270E+02 -0.14753914468E+02 -0.34993382102E+03  0.35078233163E+03  0.00000000000E+00 0.  1.
         21    1    1    2  502  501  0.27222180862E+02  0.23380694533E+02 -0.47968266724E+03  0.48102304026E+03  0.00000000000E+00 0.  1.
<mgrwt>
<rscale>  1 0.30000000E+03</rscale>
<asrwt>0</asrwt>
<pdfrwt beam="1">  1        3 0.47068795E-02 0.30000000E+03</pdfrwt>
<pdfrwt beam="2">0</pdfrwt>
<totfact> 0.10860737E+03</totfact>
</mgrwt>
</event>
<event>
 6    1  0.3125838E-002  0.3000000E+03  0.7818608E-02  0.1093470E+00
          1   -1    0    0  502    0  0.00000000000E+00  0.00000000000E+00  0.37680738270E+01  0.37680738270E+01  0.00000000000E+00 0.  1.
         13   -1    0    0    0    0 -0.00000000000E+00 -0.00000000000E+00 -0.10000000000E+04  0.10000000000E+04  0.00000000000E+00 0.  1.
    9000005    2    1    2  501    0 -0.22627932556E+02  0.26590114455E+02 -0.91083167481E+03  0.91150616158E+03  0.31757272273E+01 0.  0.
         13    1    3    3    0    0 -0.16392997279E+02  0.17948403722E+02 -0.66316055655E+03  0.66360590664E+03  0.00000000000E+00 0.  1.
          1    1    3    3  501    0 -0.62349352772E+01  0.86417107329E+01 -0.24767111826E+03  0.24790025495E+03  0.00000000000E+00 0.  1.
         21    1    1    2  502  501  0.22627932556E+02 -0.26590114455E+02 -0.85400251362E+02  0.92261912246E+02  0.00000000000E+00 0.  1.
<mgrwt>
<rscale>  1 0.30000000E+03</rscale>
<asrwt>0</asrwt>
<pdfrwt beam="1">  1        1 0.13702116E-01 0.30000000E+03</pdfrwt>
<pdfrwt beam="2">0</pdfrwt>
<totfact> 0.49062802E+02</totfact>
</mgrwt>
</event>
<event>
 6    1  0.3125838E-002  0.3000000E+03  0.7818608E-02  0.1093470E+00
          1   -1    0    0  502    0  0.00000000000E+00  0.00000000000E+00  0.27097445468E+01  0.27097445468E+01  0.00000000000E+00 0.  1.
         13   -1    0    0    0    0 -0.00000000000E+00 -0.00000000000E+00 -0.10000000000E+04  0.10000000000E+04  0.00000000000E+00 0.  1.
    9000005    2    1    2  501    0  0.25124410674E+02  0.45534351707E+02 -0.49857561941E+03  0.50129085639E+03  0.32033158855E+01 0.  0.
         13    1    3    3    0    0  0.20447724038E+02  0.35153930744E+02 -0.38008979015E+03  0.38225927960E+03  0.00000000000E+00 0.  1.
          3    1    3    3  501    0  0.46766866355E+01  0.10380420963E+02 -0.11848582926E+03  0.11903157679E+03  0.00000000000E+00 0.  1.
         21    1    1    2  502  501 -0.25124410674E+02 -0.45534351707E+02 -0.49871463604E+03  0.50141888815E+03  0.00000000000E+00 0.  1.
<mgrwt>
<rscale>  1 0.30000000E+03</rscale>
<asrwt>0</asrwt>
<pdfrwt beam="1">  1        1 0.98536373E-02 0.30000000E+03</pdfrwt>
<pdfrwt beam="2">0</pdfrwt>
<totfact> 0.77128227E+02</totfact>
</mgrwt>
</event>
<event>
 6    1  0.4603003E-002  0.3000000E+03  0.7818608E-02  0.1093470E+00
          3   -1    0    0  502    0  0.00000000000E+00  0.00000000000E+00  0.20955505503E+01  0.20955505503E+01  0.00000000000E+00 0.  1.
         13   -1    0    0    0    0 -0.00000000000E+00 -0.00000000000E+00 -0.10000000000E+04  0.10000000000E+04  0.00000000000E+00 0.  1.
    9000005    2    1    2  501    0 -0.34627319668E+02  0.28691298571E+02 -0.54481695270E+03  0.54678189866E+03  0.11076591473E+02 0.  0.
         13    1    3    3    0    0 -0.16220915135E+02  0.64911790801E+01 -0.20219475614E+03  0.20294820251E+03  0.00000000000E+00 0.  1.
          3    1    3    3  501    0 -0.18406404534E+02  0.22200119491E+02 -0.34262219656E+03  0.34383369615E+03  0.00000000000E+00 0.  1.
         21    1    1    2  502  501  0.34627319668E+02 -0.28691298571E+02 -0.45308749675E+03  0.45531365189E+03  0.00000000000E+00 0.  1.
<mgrwt>
<rscale>  1 0.30000000E+03</rscale>
<asrwt>0</asrwt>
<pdfrwt beam="1">  1        3 0.76201999E-02 0.30000000E+03</pdfrwt>
<pdfrwt beam="2">0</pdfrwt>
<totfact> 0.51208773E+02</totfact>
</mgrwt>
</event>
<event>
 6    1  0.3125838E-002  0.3000000E+03  0.7818608E-02  0.1093470E+00
          1   -1    0    0  502    0  0.00000000000E+00  0.00000000000E+00  0.14880024368E+01  0.14880024368E+01  0.00000000000E+00 0.  1.
         13   -1    0    0    0    0 -0.00000000000E+00 -0.00000000000E+00 -0.10000000000E+04  0.10000000000E+04  0.00000000000E+00 0.  1.
    9000005    2    1    2  501    0 -0.11918039036E+02 -0.34086145320E+02 -0.67378161357E+03  0.67475611350E+03  0.32007762631E+01 0.  0.
         13    1    3    3    0    0 -0.11145700537E+02 -0.31169590985E+02 -0.63149472442E+03  0.63236172957E+03  0.00000000000E+00 0.  1.
          3    1    3    3  501    0 -0.77233849893E+00 -0.29165543348E+01 -0.42286889146E+02  0.42394383939E+02  0.00000000000E+00 0.  1.
         21    1    1    2  502  501  0.11918039036E+02  0.34086145320E+02 -0.32473038399E+03  0.32673188893E+03  0.00000000000E+00 0.  1.
<mgrwt>
<rscale>  1 0.30000000E+03</rscale>
<asrwt>0</asrwt>
<pdfrwt beam="1">  1        1 0.54109294E-02 0.30000000E+03</pdfrwt>
<pdfrwt beam="2">0</pdfrwt>
<totfact> 0.17802326E+03</totfact>
</mgrwt>
</event>
<event>
 6    1  0.3125838E-002  0.3000000E+03  0.7818608E-02  0.1093470E+00
          1   -1    0    0  502    0  0.00000000000E+00  0.00000000000E+00  0.10751889332E+01  0.10751889332E+01  0.00000000000E+00 0.  1.
         13   -1    0    0    0    0 -0.00000000000E+00 -0.00000000000E+00 -0.10000000000E+04  0.10000000000E+04  0.00000000000E+00 0.  1.
    9000005    2    1    2  501    0 -0.29881713863E+02 -0.10930940764E+02 -0.61572299355E+03  0.61655466251E+03  0.35277177328E+01 0.  0.
         13    1    3    3    0    0 -0.12277526107E+02 -0.63471741203E+01 -0.26815155802E+03  0.26850750890E+03  0.00000000000E+00 0.  1.
          3    1    3    3  501    0 -0.17604187757E+02 -0.45837666433E+01 -0.34757143553E+03  0.34804715361E+03  0.00000000000E+00 0.  1.
         21    1    1    2  502  501  0.29881713863E+02  0.10930940764E+02 -0.38320181752E+03  0.38452052642E+03  0.00000000000E+00 0.  1.
<mgrwt>
<rscale>  1 0.30000000E+03</rscale>
<asrwt>0</asrwt>
<pdfrwt beam="1">  1        1 0.39097862E-02 0.30000000E+03</pdfrwt>
<pdfrwt beam="2">0</pdfrwt>
<totfact> 0.28118235E+03</totfact>
</mgrwt>
</event>
<event>
 6    1  0.3125838E-002  0.3000000E+03  0.7818608E-02  0.1093470E+00
          1   -1    0    0  502    0  0.00000000000E+00  0.00000000000E+00  0.14959322464E+01  0.14959322464E+01  0.00000000000E+00 0.  1.
         13   -1    0    0    0    0 -0.00000000000E+00 -0.00000000000E+00 -0.10000000000E+04  0.10000000000E+04  0.00000000000E+00 0.  1.
    9000005    2    1    2  501    0  0.26440435761E+02 -0.22975714759E+02 -0.70974869601E+03  0.71062371834E+03  0.39846540512E+01 0.  0.
         13    1    3    3    0    0  0.17690247334E+02 -0.15346417000E+02 -0.51083148962E+03  0.51136803591E+03  0.00000000000E+00 0.  1.
          3    1    3    3  501    0  0.87501884268E+01 -0.76292977587E+01 -0.19891720639E+03  0.19925568243E+03  0.00000000000E+00 0.  1.
         21    1    1    2  502  501 -0.26440435761E+02  0.22975714759E+02 -0.28875537175E+03  0.29087221391E+03  0.00000000000E+00 0.  1.
<mgrwt>
<rscale>  1 0.30000000E+03</rscale>
<asrwt>0</asrwt>
<pdfrwt beam="1">  1        1 0.54397651E-02 0.30000000E+03</pdfrwt>
<pdfrwt beam="2">0</pdfrwt>
<totfact> 0.17669939E+03</totfact>
</mgrwt>
</event>
<event>
 6    1  0.3125838E-002  0.3000000E+03  0.7818608E-02  0.1093470E+00
          1   -1    0    0  502    0  0.00000000000E+00  0.00000000000E+00  0.63798261062E+01  0.63798261062E+01  0.00000000000E+00 0.  1.
         13   -1    0    0    0    0 -0.00000000000E+00 -0.00000000000E+00 -0.10000000000E+04  0.10000000000E+04  0.00000000000E+00 0.  1.
    9000005    2    1    2  501    0 -0.53353515936E+01 -0.44241032034E+02 -0.91437551408E+03  0.91546530031E+03  0.28983491118E+01 0.  0.
         13    1    3    3    0    0 -0.16957103152E+01 -0.11282647873E+02 -0.20991992925E+03  0.21022975591E+03  0.00000000000E+00 0.  1.
          1    1    3    3  501    0 -0.36396412784E+01 -0.32958384161E+02 -0.70445558483E+03  0.70523554439E+03  0.00000000000E+00 0.  1.
         21    1    1    2  502  501  0.53353515936E+01  0.44241032034E+02 -0.79244659815E+02  0.90914525799E+02  0.00000000000E+00 0.  1.
<mgrwt>
<rscale>  1 0.30000000E+03</rscale>
<asrwt>0</asrwt>
<pdfrwt beam="1">  1        1 0.23199417E-01 0.30000000E+03</pdfrwt>
<pdfrwt beam="2">0</pdfrwt>
<totfact> 0.24168372E+02</totfact>
</mgrwt>
</event>
<event>
 6    1  0.3125838E-002  0.3000000E+03  0.7818608E-02  0.1093470E+00
          1   -1    0    0  502    0  0.00000000000E+00  0.00000000000E+00  0.12604555713E+01  0.12604555713E+01  0.00000000000E+00 0.  1.
         13   -1    0    0    0    0 -0.00000000000E+00 -0.00000000000E+00 -0.10000000000E+04  0.10000000000E+04  0.00000000000E+00 0.  1.
    9000005    2    1    2  501    0 -0.25148613996E+02  0.23667368969E+02 -0.61080237713E+03  0.61178922055E+03  0.37295213790E+01 0.  0.
         13    1    3    3    0    0 -0.14618196640E+02  0.13068310821E+02 -0.37754018035E+03  0.37804901825E+03  0.00000000000E+00 0.  1.
          3    1    3    3  501    0 -0.10530417356E+02  0.10599058149E+02 -0.23326219678E+03  0.23374020230E+03  0.00000000000E+00 0.  1.
         21    1    1    2  502  501  0.25148613996E+02 -0.23667368969E+02 -0.38793716730E+03  0.38947123502E+03  0.00000000000E+00 0.  1.
<mgrwt>
<rscale>  1 0.30000000E+03</rscale>
<asrwt>0</asrwt>
<pdfrwt beam="1">  1        1 0.45834845E-02 0.30000000E+03</pdfrwt>
<pdfrwt beam="2">0</pdfrwt>
<totfact> 0.22479750E+03</totfact>
</mgrwt>
</event>
<event>
 6    1  0.3125838E-002  0.3000000E+03  0.7818608E-02  0.1093470E+00
          1   -1    0    0  502    0  0.00000000000E+00  0.00000000000E+00  0.47313660176E+01  0.47313660176E+01  0.00000000000E+00 0.  1.
         13   -1    0    0    0    0 -0.00000000000E+00 -0.00000000000E+00 -0.10000000000E+04  0.10000000000E+04  0.00000000000E+00 0.  1.
    9000005    2    1    2  501    0  0.13755303433E+02  0.64526396674E+02 -0.63900419295E+03  0.64240938741E+03  0.32554846843E+01 0.  0.
         13    1    3    3    0    0 -0.16007262728E+00  0.73487310562E+00 -0.87440398301E+01  0.87763257846E+01  0.00000000000E+00 0.  1.
          3    1    3    3  501    0  0.13915376060E+02  0.63791523568E+02 -0.63026015312E+03  0.63363306163E+03  0.00000000000E+00 0.  1.
         21    1    1    2  502  501 -0.13755303433E+02 -0.64526396674E+02 -0.35626444103E+03  0.36232197861E+03  0.00000000000E+00 0.  1.
<mgrwt>
<rscale>  1 0.30000000E+03</rscale>
<asrwt>0</asrwt>
<pdfrwt beam="1">  1        1 0.17205004E-01 0.30000000E+03</pdfrwt>
<pdfrwt beam="2">0</pdfrwt>
<totfact> 0.36033977E+02</totfact>
</mgrwt>
</event>
<event>
 6    1  0.3125838E-002  0.3000000E+03  0.7818608E-02  0.1093470E+00
          1   -1    0    0  502    0  0.00000000000E+00  0.00000000000E+00  0.16896507560E+01  0.16896507560E+01  0.00000000000E+00 0.  1.
         13   -1    0    0    0    0 -0.00000000000E+00 -0.00000000000E+00 -0.10000000000E+04  0.10000000000E+04  0.00000000000E+00 0.  1.
    9000005    2    1    2  501    0  0.11397294748E+02 -0.30045202575E+02 -0.81112906286E+03  0.81177007173E+03  0.27713198526E+01 0.  0.
         13    1    3    3    0    0  0.43244686791E+01 -0.85786870583E+01 -0.22280737943E+03  0.22301440140E+03  0.00000000000E+00 0.  1.
          1    1    3    3  501    0  0.70728260687E+01 -0.21466515517E+02 -0.58832168343E+03  0.58875567033E+03  0.00000000000E+00 0.  1.
         21    1    1    2  502  501 -0.11397294748E+02  0.30045202575E+02 -0.18718128638E+03  0.18991957903E+03  0.00000000000E+00 0.  1.
<mgrwt>
<rscale>  1 0.30000000E+03</rscale>
<asrwt>0</asrwt>
<pdfrwt beam="1">  1        1 0.61441975E-02 0.30000000E+03</pdfrwt>
<pdfrwt beam="2">0</pdfrwt>
<totfact> 0.14894003E+03</totfact>
</mgrwt>
</event>
<event>
 6    1  0.3125838E-002  0.3000000E+03  0.7818608E-02  0.1093470E+00
          3   -1    0    0  502    0  0.00000000000E+00  0.00000000000E+00  0.20217168021E+01  0.20217168021E+01  0.00000000000E+00 0.  1.
         13   -1    0    0    0    0 -0.00000000000E+00 -0.00000000000E+00 -0.10000000000E+04  0.10000000000E+04  0.00000000000E+00 0.  1.
    9000005    2    1    2  501    0  0.30163836850E+02 -0.16076219839E+02 -0.82409758362E+03  0.82481336603E+03  0.34582589380E+01 0.  0.
         13    1    3    3    0    0  0.60133584150E+01 -0.28780337812E+01 -0.19538096005E+03  0.19549466261E+03  0.00000000000E+00 0.  1.
          3    1    3    3  501    0  0.24150478435E+02 -0.13198186057E+02 -0.62871662356E+03  0.62931870342E+03  0.00000000000E+00 0.  1.
         21    1    1    2  502  501 -0.30163836850E+02  0.16076219839E+02 -0.17388069958E+03  0.17720835078E+03  0.00000000000E+00 0.  1.
<mgrwt>
<rscale>  1 0.30000000E+03</rscale>
<asrwt>0</asrwt>
<pdfrwt beam="1">  1        3 0.73517130E-02 0.30000000E+03</pdfrwt>
<pdfrwt beam="2">0</pdfrwt>
<totfact> 0.54209335E+02</totfact>
</mgrwt>
</event>
<event>
 6    1  0.3125838E-002  0.3000000E+03  0.7818608E-02  0.1093470E+00
          1   -1    0    0  502    0  0.00000000000E+00  0.00000000000E+00  0.95690398097E+00  0.95690398097E+00  0.00000000000E+00 0.  1.
         13   -1    0    0    0    0 -0.00000000000E+00 -0.00000000000E+00 -0.10000000000E+04  0.10000000000E+04  0.00000000000E+00 0.  1.
    9000005    2    1    2  501    0 -0.30143294905E+02 -0.17083094295E+01 -0.39808628178E+03  0.39924216332E+03  0.31750089541E+01 0.  0.
         13    1    3    3    0    0 -0.59999543263E+01 -0.16139343408E+01 -0.83032037930E+02  0.83264179326E+02  0.00000000000E+00 0.  1.
          1    1    3    3  501    0 -0.24143340579E+02 -0.94375088701E-01 -0.31505424385E+03  0.31597798400E+03  0.00000000000E+00 0.  1.
         21    1    1    2  502  501  0.30143294905E+02  0.17083094295E+01 -0.60095681423E+03  0.60171474066E+03  0.00000000000E+00 0.  1.
<mgrwt>
<rscale>  1 0.30000000E+03</rscale>
<asrwt>0</asrwt>
<pdfrwt beam="1">  1        1 0.34796582E-02 0.30000000E+03</pdfrwt>
<pdfrwt beam="2">0</pdfrwt>
<totfact> 0.33129315E+03</totfact>
</mgrwt>
</event>
<event>
 6    1  0.3125838E-002  0.3000000E+03  0.7818608E-02  0.1093470E+00
          1   -1    0    0  502    0  0.00000000000E+00  0.00000000000E+00  0.10423551377E+01  0.10423551377E+01  0.00000000000E+00 0.  1.
         13   -1    0    0    0    0 -0.00000000000E+00 -0.00000000000E+00 -0.10000000000E+04  0.10000000000E+04  0.00000000000E+00 0.  1.
    9000005    2    1    2  501    0 -0.16087883333E+02 -0.27325605796E+02 -0.58746257294E+03  0.58832731672E+03  0.33538437387E+01 0.  0.
         13    1    3    3    0    0 -0.80178478278E+01 -0.12431726032E+02 -0.24525050137E+03  0.24569623953E+03  0.00000000000E+00 0.  1.
          3    1    3    3  501    0 -0.80700355050E+01 -0.14893879764E+02 -0.34221207157E+03  0.34263107719E+03  0.00000000000E+00 0.  1.
         21    1    1    2  502  501  0.16087883333E+02  0.27325605796E+02 -0.41149507192E+03  0.41271503842E+03  0.00000000000E+00 0.  1.
<mgrwt>
<rscale>  1 0.30000000E+03</rscale>
<asrwt>0</asrwt>
<pdfrwt beam="1">  1        1 0.37903903E-02 0.30000000E+03</pdfrwt>
<pdfrwt beam="2">0</pdfrwt>
<totfact> 0.29373008E+03</totfact>
</mgrwt>
</event>
<event>
 6    1  0.3125838E-002  0.3000000E+03  0.7818608E-02  0.1093470E+00
          1   -1    0    0  502    0  0.00000000000E+00  0.00000000000E+00  0.99596751558E+00  0.99596751558E+00  0.00000000000E+00 0.  1.
         13   -1    0    0    0    0 -0.00000000000E+00 -0.00000000000E+00 -0.10000000000E+04  0.10000000000E+04  0.00000000000E+00 0.  1.
    9000005    2    1    2  501    0 -0.84311907746E+01 -0.30221389663E+02 -0.51370548209E+03  0.51468423582E+03  0.47034986979E+01 0.  0.
         13    1    3    3    0    0 -0.54592698225E+00 -0.45015800604E+01 -0.52804713328E+02  0.52999056680E+02  0.00000000000E+00 0.  1.
          1    1    3    3  501    0 -0.78852637923E+01 -0.25719809602E+02 -0.46090076876E+03  0.46168517914E+03  0.00000000000E+00 0.  1.
         21    1    1    2  502  501  0.84311907746E+01  0.30221389663E+02 -0.48529855039E+03  0.48631173170E+03  0.00000000000E+00 0.  1.
<mgrwt>
<rscale>  1 0.30000000E+03</rscale>
<asrwt>0</asrwt>
<pdfrwt beam="1">  1        1 0.36217077E-02 0.30000000E+03</pdfrwt>
<pdfrwt beam="2">0</pdfrwt>
<totfact> 0.31316303E+03</totfact>
</mgrwt>
</event>
<event>
 6    1  0.3125838E-002  0.3000000E+03  0.7818608E-02  0.1093470E+00
          1   -1    0    0  502    0  0.00000000000E+00  0.00000000000E+00  0.30140355634E+01  0.30140355634E+01  0.00000000000E+00 0.  1.
         13   -1    0    0    0    0 -0.00000000000E+00 -0.00000000000E+00 -0.10000000000E+04  0.10000000000E+04  0.00000000000E+00 0.  1.
    9000005    2    1    2  501    0  0.37425653682E+02 -0.95590483032E+01 -0.85469678247E+03  0.85557500999E+03  0.31548047190E+01 0.  0.
         13    1    3    3    0    0  0.11193886067E+02 -0.34476401341E+01 -0.28941934727E+03  0.28965625814E+03  0.00000000000E+00 0.  1.
          3    1    3    3  501    0  0.26231767615E+02 -0.61114081692E+01 -0.56527743520E+03  0.56591875184E+03  0.00000000000E+00 0.  1.
         21    1    1    2  502  501 -0.37425653682E+02  0.95590483032E+01 -0.14228918197E+03  0.14743902558E+03  0.00000000000E+00 0.  1.
<mgrwt>
<rscale>  1 0.30000000E+03</rscale>
<asrwt>0</asrwt>
<pdfrwt beam="1">  1        1 0.10960152E-01 0.30000000E+03</pdfrwt>
<pdfrwt beam="2">0</pdfrwt>
<totfact> 0.66608719E+02</totfact>
</mgrwt>
</event>
<event>
 6    1  0.3125838E-002  0.3000000E+03  0.7818608E-02  0.1093470E+00
          1   -1    0    0  502    0  0.00000000000E+00  0.00000000000E+00  0.24926764290E+01  0.24926764290E+01  0.00000000000E+00 0.  1.
         13   -1    0    0    0    0 -0.00000000000E+00 -0.00000000000E+00 -0.10000000000E+04  0.10000000000E+04  0.00000000000E+00 0.  1.
    9000005    2    1    2  501    0 -0.45566729673E+02 -0.35176054413E+01 -0.69984031174E+03  0.70133764935E+03  0.30554969735E+01 0.  0.
         13    1    3    3    0    0 -0.47476865318E+01  0.21740449546E+00 -0.84630340802E+02  0.84763685482E+02  0.00000000000E+00 0.  1.
          1    1    3    3  501    0 -0.40819043141E+02 -0.37350099368E+01 -0.61520997094E+03  0.61657396387E+03  0.00000000000E+00 0.  1.
         21    1    1    2  502  501  0.45566729673E+02  0.35176054413E+01 -0.29766701183E+03  0.30115502708E+03  0.00000000000E+00 0.  1.
<mgrwt>
<rscale>  1 0.30000000E+03</rscale>
<asrwt>0</asrwt>
<pdfrwt beam="1">  1        1 0.90642970E-02 0.30000000E+03</pdfrwt>
<pdfrwt beam="2">0</pdfrwt>
<totfact> 0.86578731E+02</totfact>
</mgrwt>
</event>
<event>
 6    1  0.3125838E-002  0.3000000E+03  0.7818608E-02  0.1093470E+00
          1   -1    0    0  502    0  0.00000000000E+00  0.00000000000E+00  0.95891696716E+00  0.95891696716E+00  0.00000000000E+00 0.  1.
         13   -1    0    0    0    0 -0.00000000000E+00 -0.00000000000E+00 -0.10000000000E+04  0.10000000000E+04  0.00000000000E+00 0.  1.
    9000005    2    1    2  501    0  0.87118856450E+01 -0.28743176331E+02 -0.40193261600E+03  0.40309556423E+03  0.58428558751E+01 0.  0.
         13    1    3    3    0    0  0.42028818481E+01 -0.90173746047E+01 -0.16544872725E+03  0.16574757497E+03  0.00000000000E+00 0.  1.
          1    1    3    3  501    0  0.45090037968E+01 -0.19725801726E+02 -0.23648388875E+03  0.23734798926E+03  0.00000000000E+00 0.  1.
         21    1    1    2  502  501 -0.87118856450E+01  0.28743176331E+02 -0.59710846704E+03  0.59786335273E+03  0.00000000000E+00 0.  1.
<mgrwt>
<rscale>  1 0.30000000E+03</rscale>
<asrwt>0</asrwt>
<pdfrwt beam="1">  1        1 0.34869781E-02 0.30000000E+03</pdfrwt>
<pdfrwt beam="2">0</pdfrwt>
<totfact> 0.33031552E+03</totfact>
</mgrwt>
</event>
<event>
 6    1  0.3125838E-002  0.3000000E+03  0.7818608E-02  0.1093470E+00
          1   -1    0    0  502    0  0.00000000000E+00  0.00000000000E+00  0.20996056757E+01  0.20996056757E+01  0.00000000000E+00 0.  1.
         13   -1    0    0    0    0 -0.00000000000E+00 -0.00000000000E+00 -0.10000000000E+04  0.10000000000E+04  0.00000000000E+00 0.  1.
    9000005    2    1    2  501    0 -0.21793625902E+02  0.39740206854E+02 -0.56560844995E+03  0.56743816116E+03  0.43476342686E+01 0.  0.
         13    1    3    3    0    0 -0.16272701811E+02  0.27079623095E+02 -0.37343910319E+03  0.37477309215E+03  0.00000000000E+00 0.  1.
          1    1    3    3  501    0 -0.55209240913E+01  0.12660583759E+02 -0.19216934676E+03  0.19266506901E+03  0.00000000000E+00 0.  1.
         21    1    1    2  502  501  0.21793625902E+02 -0.39740206854E+02 -0.43229194438E+03  0.43466144451E+03  0.00000000000E+00 0.  1.
<mgrwt>
<rscale>  1 0.30000000E+03</rscale>
<asrwt>0</asrwt>
<pdfrwt beam="1">  1        1 0.76349458E-02 0.30000000E+03</pdfrwt>
<pdfrwt beam="2">0</pdfrwt>
<totfact> 0.10991011E+03</totfact>
</mgrwt>
</event>
<event>
 6    1  0.3125838E-002  0.3000000E+03  0.7818608E-02  0.1093470E+00
          1   -1    0    0  502    0  0.00000000000E+00  0.00000000000E+00  0.17106345886E+02  0.17106345886E+02  0.00000000000E+00 0.  1.
         13   -1    0    0    0    0 -0.00000000000E+00 -0.00000000000E+00 -0.10000000000E+04  0.10000000000E+04  0.00000000000E+00 0.  1.
    9000005    2    1    2  501    0 -0.47523595472E+02 -0.35748254979E+02 -0.94438086035E+03  0.94625675065E+03  0.31935733265E+01 0.  0.
         13    1    3    3    0    0 -0.35843440884E+02 -0.27420343387E+02 -0.69502084343E+03  0.69648445804E+03  0.00000000000E+00 0.  1.
          3    1    3    3  501    0 -0.11680154587E+02 -0.83279115913E+01 -0.24936001692E+03  0.24977229262E+03  0.00000000000E+00 0.  1.
         21    1    1    2  502  501  0.47523595472E+02  0.35748254979E+02 -0.38512793769E+02  0.70849595231E+02  0.00000000000E+00 0.  1.
<mgrwt>
<rscale>  1 0.30000000E+03</rscale>
<asrwt>0</asrwt>
<pdfrwt beam="1">  1        1 0.62205025E-01 0.30000000E+03</pdfrwt>
<pdfrwt beam="2">0</pdfrwt>
<totfact> 0.66089049E+01</totfact>
</mgrwt>
</event>
<event>
 6    1  0.3125838E-002  0.3000000E+03  0.7818608E-02  0.1093470E+00
          1   -1    0    0  502    0  0.00000000000E+00  0.00000000000E+00  0.18427183520E+01  0.18427183520E+01  0.00000000000E+00 0.  1.
         13   -1    0    0    0    0 -0.00000000000E+00 -0.00000000000E+00 -0.10000000000E+04  0.10000000000E+04  0.00000000000E+00 0.  1.
    9000005    2    1    2  501    0  0.49248697121E+01  0.37992414701E+02 -0.72301795583E+03  0.72404904216E+03  0.49369114643E+01 0.  0.
         13    1    3    3    0    0  0.58568320138E+01  0.28932263133E+02 -0.55252869907E+03  0.55331667391E+03  0.00000000000E+00 0.  1.
          1    1    3    3  501    0 -0.93196230162E+00  0.90601515675E+01 -0.17048925676E+03  0.17073236826E+03  0.00000000000E+00 0.  1.
         21    1    1    2  502  501 -0.49248697121E+01 -0.37992414701E+02 -0.27513932582E+03  0.27779367619E+03  0.00000000000E+00 0.  1.
<mgrwt>
<rscale>  1 0.30000000E+03</rscale>
<asrwt>0</asrwt>
<pdfrwt beam="1">  1        1 0.67008081E-02 0.30000000E+03</pdfrwt>
<pdfrwt beam="2">0</pdfrwt>
<totfact> 0.13190054E+03</totfact>
</mgrwt>
</event>
<event>
 6    1  0.3295728E-002  0.3000000E+03  0.7818608E-02  0.1093470E+00
          1   -1    0    0  502    0  0.00000000000E+00  0.00000000000E+00  0.15387323337E+01  0.15387323337E+01  0.00000000000E+00 0.  1.
         13   -1    0    0    0    0 -0.00000000000E+00 -0.00000000000E+00 -0.10000000000E+04  0.10000000000E+04  0.00000000000E+00 0.  1.
    9000005    2    1    2  501    0 -0.23869620811E+02  0.24052719702E+02 -0.74496536865E+03  0.74578794946E+03  0.88302292400E+01 0.  0.
         13    1    3    3    0    0 -0.36964086984E+01  0.80891223113E+01 -0.24470899000E+03  0.24487055177E+03  0.00000000000E+00 0.  1.
          3    1    3    3  501    0 -0.20173212113E+02  0.15963597391E+02 -0.50025637865E+03  0.50091739769E+03  0.00000000000E+00 0.  1.
         21    1    1    2  502  501  0.23869620811E+02 -0.24052719702E+02 -0.25349589902E+03  0.25575078288E+03  0.00000000000E+00 0.  1.
<mgrwt>
<rscale>  1 0.30000000E+03</rscale>
<asrwt>0</asrwt>
<pdfrwt beam="1">  1        1 0.55954021E-02 0.30000000E+03</pdfrwt>
<pdfrwt beam="2">0</pdfrwt>
<totfact> 0.16983701E+03</totfact>
</mgrwt>
</event>
<event>
 6    1  0.3125838E-002  0.3000000E+03  0.7818608E-02  0.1093470E+00
          1   -1    0    0  502    0  0.00000000000E+00  0.00000000000E+00  0.28539697139E+01  0.28539697139E+01  0.00000000000E+00 0.  1.
         13   -1    0    0    0    0 -0.00000000000E+00 -0.00000000000E+00 -0.10000000000E+04  0.10000000000E+04  0.00000000000E+00 0.  1.
    9000005    2    1    2  501    0  0.30463598567E+02 -0.33746648030E+02 -0.23679569017E+03  0.24114568775E+03  0.34895198207E+01 0.  0.
         13    1    3    3    0    0  0.78117215593E+01 -0.11022028177E+02 -0.69467546154E+02  0.70768976731E+02  0.00000000000E+00 0.  1.
          3    1    3    3  501    0  0.22651877007E+02 -0.22724619853E+02 -0.16732814401E+03  0.17037671102E+03  0.00000000000E+00 0.  1.
         21    1    1    2  502  501 -0.30463598567E+02  0.33746648030E+02 -0.76035034012E+03  0.76170828196E+03  0.00000000000E+00 0.  1.
<mgrwt>
<rscale>  1 0.30000000E+03</rscale>
<asrwt>0</asrwt>
<pdfrwt beam="1">  1        1 0.10378094E-01 0.30000000E+03</pdfrwt>
<pdfrwt beam="2">0</pdfrwt>
<totfact> 0.71803071E+02</totfact>
</mgrwt>
</event>
<event>
 6    1  0.3125838E-002  0.3000000E+03  0.7818608E-02  0.1093470E+00
          1   -1    0    0  502    0  0.00000000000E+00  0.00000000000E+00  0.30347221553E+01  0.30347221553E+01  0.00000000000E+00 0.  1.
         13   -1    0    0    0    0 -0.00000000000E+00 -0.00000000000E+00 -0.10000000000E+04  0.10000000000E+04  0.00000000000E+00 0.  1.
    9000005    2    1    2  501    0 -0.33618606551E+02  0.37496065989E+02 -0.69853541907E+03  0.70038550891E+03  0.72085866431E+01 0.  0.
         13    1    3    3    0    0 -0.23102428748E+02  0.21013247505E+02 -0.44982672611E+03  0.45090948350E+03  0.00000000000E+00 0.  1.
          3    1    3    3  501    0 -0.10516177803E+02  0.16482818485E+02 -0.24870869297E+03  0.24947602542E+03  0.00000000000E+00 0.  1.
         21    1    1    2  502  501  0.33618606551E+02 -0.37496065989E+02 -0.29842985877E+03  0.30264921324E+03  0.00000000000E+00 0.  1.
<mgrwt>
<rscale>  1 0.30000000E+03</rscale>
<asrwt>0</asrwt>
<pdfrwt beam="1">  1        1 0.11035377E-01 0.30000000E+03</pdfrwt>
<pdfrwt beam="2">0</pdfrwt>
<totfact> 0.65985506E+02</totfact>
</mgrwt>
</event>
<event>
 6    1  0.3125838E-002  0.3000000E+03  0.7818608E-02  0.1093470E+00
          1   -1    0    0  502    0  0.00000000000E+00  0.00000000000E+00  0.64296733395E+01  0.64296733395E+01  0.00000000000E+00 0.  1.
         13   -1    0    0    0    0 -0.00000000000E+00 -0.00000000000E+00 -0.10000000000E+04  0.10000000000E+04  0.00000000000E+00 0.  1.
    9000005    2    1    2  501    0 -0.34744845013E+02  0.99455126980E+01 -0.94596509148E+03  0.94666031752E+03  0.31120738552E+01 0.  0.
         13    1    3    3    0    0 -0.25898098204E+02  0.60006376197E+01 -0.68758571045E+03  0.68809943202E+03  0.00000000000E+00 0.  1.
          1    1    3    3  501    0 -0.88467468090E+01  0.39448750782E+01 -0.25837938103E+03  0.25856088550E+03  0.00000000000E+00 0.  1.
         21    1    1    2  502  501  0.34744845013E+02 -0.99455126980E+01 -0.47605235185E+02  0.59769355817E+02  0.00000000000E+00 0.  1.
<mgrwt>
<rscale>  1 0.30000000E+03</rscale>
<asrwt>0</asrwt>
<pdfrwt beam="1">  1        1 0.23380680E-01 0.30000000E+03</pdfrwt>
<pdfrwt beam="2">0</pdfrwt>
<totfact> 0.23920636E+02</totfact>
</mgrwt>
</event>
<event>
 6    1  0.3125838E-002  0.3000000E+03  0.7818608E-02  0.1093470E+00
          1   -1    0    0  502    0  0.00000000000E+00  0.00000000000E+00  0.25653082159E+01  0.25653082159E+01  0.00000000000E+00 0.  1.
         13   -1    0    0    0    0 -0.00000000000E+00 -0.00000000000E+00 -0.10000000000E+04  0.10000000000E+04  0.00000000000E+00 0.  1.
    9000005    2    1    2  501    0 -0.44866467142E+02  0.19664437854E+02 -0.62469714837E+03  0.62662253829E+03  0.30965013212E+01 0.  0.
         13    1    3    3    0    0 -0.32723273953E+02  0.13011987176E+02 -0.43963901145E+03  0.44104714585E+03  0.00000000000E+00 0.  1.
          3    1    3    3  501    0 -0.12143193188E+02  0.66524506774E+01 -0.18505813692E+03  0.18557539244E+03  0.00000000000E+00 0.  1.
         21    1    1    2  502  501  0.44866467142E+02 -0.19664437854E+02 -0.37273754341E+03  0.37594276992E+03  0.00000000000E+00 0.  1.
<mgrwt>
<rscale>  1 0.30000000E+03</rscale>
<asrwt>0</asrwt>
<pdfrwt beam="1">  1        1 0.93284132E-02 0.30000000E+03</pdfrwt>
<pdfrwt beam="2">0</pdfrwt>
<totfact> 0.83200625E+02</totfact>
</mgrwt>
</event>
<event>
 6    1  0.3125838E-002  0.3000000E+03  0.7818608E-02  0.1093470E+00
          3   -1    0    0  502    0  0.00000000000E+00  0.00000000000E+00  0.11002306737E+01  0.11002306737E+01  0.00000000000E+00 0.  1.
         13   -1    0    0    0    0 -0.00000000000E+00 -0.00000000000E+00 -0.10000000000E+04  0.10000000000E+04  0.00000000000E+00 0.  1.
    9000005    2    1    2  501    0 -0.24354495112E+02  0.20602723728E+02 -0.63362850870E+03  0.63443865988E+03  0.31164813865E+01 0.  0.
         13    1    3    3    0    0 -0.16187356963E+02  0.13617740443E+02 -0.39004278559E+03  0.39061598530E+03  0.00000000000E+00 0.  1.
          1    1    3    3  501    0 -0.81671381482E+01  0.69849832850E+01 -0.24358572311E+03  0.24382267458E+03  0.00000000000E+00 0.  1.
         21    1    1    2  502  501  0.24354495112E+02 -0.20602723728E+02 -0.36527126063E+03  0.36666157080E+03  0.00000000000E+00 0.  1.
<mgrwt>
<rscale>  1 0.30000000E+03</rscale>
<asrwt>0</asrwt>
<pdfrwt beam="1">  1        3 0.40008473E-02 0.30000000E+03</pdfrwt>
<pdfrwt beam="2">0</pdfrwt>
<totfact> 0.13948119E+03</totfact>
</mgrwt>
</event>
<event>
 6    1  0.3125838E-002  0.3000000E+03  0.7818608E-02  0.1093470E+00
          1   -1    0    0  502    0  0.00000000000E+00  0.00000000000E+00  0.10213566634E+01  0.10213566634E+01  0.00000000000E+00 0.  1.
         13   -1    0    0    0    0 -0.00000000000E+00 -0.00000000000E+00 -0.10000000000E+04  0.10000000000E+04  0.00000000000E+00 0.  1.
    9000005    2    1    2  501    0 -0.30620476276E+02  0.17723348898E+01 -0.36991919373E+03  0.37121460386E+03  0.43951666831E+01 0.  0.
         13    1    3    3    0    0 -0.18604656413E+02  0.47366238673E+00 -0.19884117203E+03  0.19971021329E+03  0.00000000000E+00 0.  1.
          1    1    3    3  501    0 -0.12015819863E+02  0.12986725031E+01 -0.17107802170E+03  0.17150439058E+03  0.00000000000E+00 0.  1.
         21    1    1    2  502  501  0.30620476276E+02 -0.17723348898E+01 -0.62905944960E+03  0.62980675280E+03  0.00000000000E+00 0.  1.
<mgrwt>
<rscale>  1 0.30000000E+03</rscale>
<asrwt>0</asrwt>
<pdfrwt beam="1">  1        1 0.37140321E-02 0.30000000E+03</pdfrwt>
<pdfrwt beam="2">0</pdfrwt>
<totfact> 0.30226484E+03</totfact>
</mgrwt>
</event>
<event>
 6    1  0.3125838E-002  0.3000000E+03  0.7818608E-02  0.1093470E+00
          1   -1    0    0  502    0  0.00000000000E+00  0.00000000000E+00  0.41872562216E+01  0.41872562216E+01  0.00000000000E+00 0.  1.
         13   -1    0    0    0    0 -0.00000000000E+00 -0.00000000000E+00 -0.10000000000E+04  0.10000000000E+04  0.00000000000E+00 0.  1.
    9000005    2    1    2  501    0 -0.22603525819E+02 -0.50966950172E+02 -0.75173660586E+03  0.75382409901E+03  0.58564720155E+01 0.  0.
         13    1    3    3    0    0 -0.10069108859E+02 -0.24173722757E+02 -0.39171400762E+03  0.39258835896E+03  0.00000000000E+00 0.  1.
          1    1    3    3  501    0 -0.12534416960E+02 -0.26793227415E+02 -0.36002259824E+03  0.36123574005E+03  0.00000000000E+00 0.  1.
         21    1    1    2  502  501  0.22603525819E+02  0.50966950172E+02 -0.24407613792E+03  0.25036315721E+03  0.00000000000E+00 0.  1.
<mgrwt>
<rscale>  1 0.30000000E+03</rscale>
<asrwt>0</asrwt>
<pdfrwt beam="1">  1        1 0.15226418E-01 0.30000000E+03</pdfrwt>
<pdfrwt beam="2">0</pdfrwt>
<totfact> 0.42507389E+02</totfact>
</mgrwt>
</event>
<event>
 6    1  0.3125838E-002  0.3000000E+03  0.7818608E-02  0.1093470E+00
          1   -1    0    0  502    0  0.00000000000E+00  0.00000000000E+00  0.55926113444E+01  0.55926113444E+01  0.00000000000E+00 0.  1.
         13   -1    0    0    0    0 -0.00000000000E+00 -0.00000000000E+00 -0.10000000000E+04  0.10000000000E+04  0.00000000000E+00 0.  1.
    9000005    2    1    2  501    0 -0.30416784688E+02  0.17050482655E+02 -0.94196997931E+03  0.94261974696E+03  0.29403560425E+01 0.  0.
         13    1    3    3    0    0 -0.93862660491E+01  0.59562969226E+01 -0.26795565701E+03  0.26818615472E+03  0.00000000000E+00 0.  1.
          1    1    3    3  501    0 -0.21030518639E+02  0.11094185733E+02 -0.67401432230E+03  0.67443359224E+03  0.00000000000E+00 0.  1.
         21    1    1    2  502  501  0.30416784688E+02 -0.17050482655E+02 -0.52437409345E+02  0.62972864381E+02  0.00000000000E+00 0.  1.
<mgrwt>
<rscale>  1 0.30000000E+03</rscale>
<asrwt>0</asrwt>
<pdfrwt beam="1">  1        1 0.20336811E-01 0.30000000E+03</pdfrwt>
<pdfrwt beam="2">0</pdfrwt>
<totfact> 0.28791706E+02</totfact>
</mgrwt>
</event>
<event>
 6    1  0.3125838E-002  0.3000000E+03  0.7818608E-02  0.1093470E+00
          3   -1    0    0  502    0  0.00000000000E+00  0.00000000000E+00  0.10163784823E+01  0.10163784823E+01  0.00000000000E+00 0.  1.
         13   -1    0    0    0    0 -0.00000000000E+00 -0.00000000000E+00 -0.10000000000E+04  0.10000000000E+04  0.00000000000E+00 0.  1.
    9000005    2    1    2  501    0  0.24975655039E+02  0.19417409731E+02 -0.55109002514E+03  0.55200692110E+03  0.32566831150E+01 0.  0.
         13    1    3    3    0    0  0.10344607385E+02  0.10047865924E+02 -0.25602514813E+03  0.25643097899E+03  0.00000000000E+00 0.  1.
          3    1    3    3  501    0  0.14631047654E+02  0.93695438071E+01 -0.29506487702E+03  0.29557594211E+03  0.00000000000E+00 0.  1.
         21    1    1    2  502  501 -0.24975655039E+02 -0.19417409731E+02 -0.44789359637E+03  0.44900945738E+03  0.00000000000E+00 0.  1.
<mgrwt>
<rscale>  1 0.30000000E+03</rscale>
<asrwt>0</asrwt>
<pdfrwt beam="1">  1        3 0.36959295E-02 0.30000000E+03</pdfrwt>
<pdfrwt beam="2">0</pdfrwt>
<totfact> 0.15756277E+03</totfact>
</mgrwt>
</event>
<event>
 6    1  0.3125838E-002  0.3000000E+03  0.7818608E-02  0.1093470E+00
          1   -1    0    0  502    0  0.00000000000E+00  0.00000000000E+00  0.11473802236E+02  0.11473802236E+02  0.00000000000E+00 0.  1.
         13   -1    0    0    0    0 -0.00000000000E+00 -0.00000000000E+00 -0.10000000000E+04  0.10000000000E+04  0.00000000000E+00 0.  1.
    9000005    2    1    2  501    0  0.15539137984E+02 -0.45794379216E+02 -0.94550309571E+03  0.94674685818E+03  0.38625754596E+01 0.  0.
         13    1    3    3    0    0  0.78818436865E+01 -0.19315577810E+02 -0.37942815115E+03  0.38000123275E+03  0.00000000000E+00 0.  1.
          3    1    3    3  501    0  0.76572942978E+01 -0.26478801405E+02 -0.56607494456E+03  0.56674562542E+03  0.00000000000E+00 0.  1.
         21    1    1    2  502  501 -0.15539137984E+02  0.45794379216E+02 -0.43023102051E+02  0.64726944058E+02  0.00000000000E+00 0.  1.
<mgrwt>
<rscale>  1 0.30000000E+03</rscale>
<asrwt>0</asrwt>
<pdfrwt beam="1">  1        1 0.41723005E-01 0.30000000E+03</pdfrwt>
<pdfrwt beam="2">0</pdfrwt>
<totfact> 0.11186312E+02</totfact>
</mgrwt>
</event>
<event>
 6    1  0.3125838E-002  0.3000000E+03  0.7818608E-02  0.1093470E+00
          1   -1    0    0  502    0  0.00000000000E+00  0.00000000000E+00  0.36989689884E+01  0.36989689884E+01  0.00000000000E+00 0.  1.
         13   -1    0    0    0    0 -0.00000000000E+00 -0.00000000000E+00 -0.10000000000E+04  0.10000000000E+04  0.00000000000E+00 0.  1.
    9000005    2    1    2  501    0 -0.16002305843E+02  0.29250233548E+02 -0.91779413274E+03  0.91840545792E+03  0.32962223180E+01 0.  0.
         13    1    3    3    0    0 -0.13685303193E+02  0.25164878246E+02 -0.75380126812E+03  0.75434535224E+03  0.00000000000E+00 0.  1.
          3    1    3    3  501    0 -0.23170026503E+01  0.40853553018E+01 -0.16399286462E+03  0.16406010568E+03  0.00000000000E+00 0.  1.
         21    1    1    2  502  501  0.16002305843E+02 -0.29250233548E+02 -0.78506898268E+02  0.85293511070E+02  0.00000000000E+00 0.  1.
<mgrwt>
<rscale>  1 0.30000000E+03</rscale>
<asrwt>0</asrwt>
<pdfrwt beam="1">  1        1 0.13450825E-01 0.30000000E+03</pdfrwt>
<pdfrwt beam="2">0</pdfrwt>
<totfact> 0.50316737E+02</totfact>
</mgrwt>
</event>
<event>
 6    1  0.3125838E-002  0.3000000E+03  0.7818608E-02  0.1093470E+00
          1   -1    0    0  502    0  0.00000000000E+00  0.00000000000E+00  0.44458100921E+01  0.44458100921E+01  0.00000000000E+00 0.  1.
         13   -1    0    0    0    0 -0.00000000000E+00 -0.00000000000E+00 -0.10000000000E+04  0.10000000000E+04  0.00000000000E+00 0.  1.
    9000005    2    1    2  501    0  0.36996267951E+02 -0.37348099908E+02 -0.80654386044E+03  0.80826092521E+03  0.30199346764E+01 0.  0.
         13    1    3    3    0    0  0.33595858161E+02 -0.32899909783E+02 -0.71114479621E+03  0.71269769673E+03  0.00000000000E+00 0.  1.
          1    1    3    3  501    0  0.34004097904E+01 -0.44481901251E+01 -0.95399064226E+02  0.95563228479E+02  0.00000000000E+00 0.  1.
         21    1    1    2  502  501 -0.36996267951E+02  0.37348099908E+02 -0.18901032947E+03  0.19618488488E+03  0.00000000000E+00 0.  1.
<mgrwt>
<rscale>  1 0.30000000E+03</rscale>
<asrwt>0</asrwt>
<pdfrwt beam="1">  1        1 0.16166616E-01 0.30000000E+03</pdfrwt>
<pdfrwt beam="2">0</pdfrwt>
<totfact> 0.39193121E+02</totfact>
</mgrwt>
</event>
<event>
 6    1  0.3125838E-002  0.3000000E+03  0.7818608E-02  0.1093470E+00
          1   -1    0    0  502    0  0.00000000000E+00  0.00000000000E+00  0.34419364703E+01  0.34419364703E+01  0.00000000000E+00 0.  1.
         13   -1    0    0    0    0 -0.00000000000E+00 -0.00000000000E+00 -0.10000000000E+04  0.10000000000E+04  0.00000000000E+00 0.  1.
    9000005    2    1    2  501    0  0.49801592157E+01 -0.54830173572E+02 -0.67085445054E+03  0.67311786312E+03  0.32884530272E+01 0.  0.
         13    1    3    3    0    0  0.13119443836E+01 -0.27031070206E+02 -0.34396258464E+03  0.34502559265E+03  0.00000000000E+00 0.  1.
          3    1    3    3  501    0  0.36682148321E+01 -0.27799103365E+02 -0.32689186590E+03  0.32809227047E+03  0.00000000000E+00 0.  1.
         21    1    1    2  502  501 -0.49801592157E+01  0.54830173572E+02 -0.32570361299E+03  0.33032407335E+03  0.00000000000E+00 0.  1.
<mgrwt>
<rscale>  1 0.30000000E+03</rscale>
<asrwt>0</asrwt>
<pdfrwt beam="1">  1        1 0.12516159E-01 0.30000000E+03</pdfrwt>
<pdfrwt beam="2">0</pdfrwt>
<totfact> 0.55519856E+02</totfact>
</mgrwt>
</event>
<event>
 6    1  0.3125838E-002  0.3000000E+03  0.7818608E-02  0.1093470E+00
          3   -1    0    0  502    0  0.00000000000E+00  0.00000000000E+00  0.53686695545E+01  0.53686695545E+01  0.00000000000E+00 0.  1.
         13   -1    0    0    0    0 -0.00000000000E+00 -0.00000000000E+00 -0.10000000000E+04  0.10000000000E+04  0.00000000000E+00 0.  1.
    9000005    2    1    2  501    0 -0.46634540832E+02  0.56403013464E+02 -0.51817815415E+03  0.52332747886E+03  0.26401444655E+01 0.  0.
         13    1    3    3    0    0 -0.38752247250E+02  0.45481363252E+02 -0.41913873511E+03  0.42337639323E+03  0.00000000000E+00 0.  1.
          1    1    3    3  501    0 -0.78822935816E+01  0.10921650212E+02 -0.99039419043E+02  0.99951085636E+02  0.00000000000E+00 0.  1.
         21    1    1    2  502  501  0.46634540832E+02 -0.56403013464E+02 -0.47645317629E+03  0.48204119069E+03  0.00000000000E+00 0.  1.
<mgrwt>
<rscale>  1 0.30000000E+03</rscale>
<asrwt>0</asrwt>
<pdfrwt beam="1">  1        3 0.19522476E-01 0.30000000E+03</pdfrwt>
<pdfrwt beam="2">0</pdfrwt>
<totfact> 0.10442717E+02</totfact>
</mgrwt>
</event>
<event>
 6    1  0.3125838E-002  0.3000000E+03  0.7818608E-02  0.1093470E+00
          1   -1    0    0  502    0  0.00000000000E+00  0.00000000000E+00  0.10251229610E+03  0.10251229610E+03  0.00000000000E+00 0.  1.
         13   -1    0    0    0    0 -0.00000000000E+00 -0.00000000000E+00 -0.10000000000E+04  0.10000000000E+04  0.00000000000E+00 0.  1.
    9000005    2    1    2  501    0 -0.21388697756E+02  0.44905584751E+02 -0.99329384502E+03  0.99456413905E+03  0.71537532197E+01 0.  0.
         13    1    3    3    0    0 -0.12143649340E+02  0.20271484123E+02 -0.52526859322E+03  0.52579986336E+03  0.00000000000E+00 0.  1.
          3    1    3    3  501    0 -0.92450484152E+01  0.24634100627E+02 -0.46802525180E+03  0.46876427569E+03  0.00000000000E+00 0.  1.
         21    1    1    2  502  501  0.21388697756E+02 -0.44905584751E+02  0.95806141128E+02  0.10794815705E+03  0.00000000000E+00 0.  1.
<mgrwt>
<rscale>  1 0.30000000E+03</rscale>
<asrwt>0</asrwt>
<pdfrwt beam="1">  1        1 0.37277277E+00 0.30000000E+03</pdfrwt>
<pdfrwt beam="2">0</pdfrwt>
<totfact> 0.14914392E+00</totfact>
</mgrwt>
</event>
<event>
 6    1  0.3125838E-002  0.3000000E+03  0.7818608E-02  0.1093470E+00
          3   -1    0    0  502    0  0.00000000000E+00  0.00000000000E+00  0.12251402214E+01  0.12251402214E+01  0.00000000000E+00 0.  1.
         13   -1    0    0    0    0 -0.00000000000E+00 -0.00000000000E+00 -0.10000000000E+04  0.10000000000E+04  0.00000000000E+00 0.  1.
    9000005    2    1    2  501    0  0.25154084395E+02 -0.17066633450E+02 -0.74509264788E+03  0.74572824676E+03  0.48544967797E+01 0.  0.
         13    1    3    3    0    0  0.11402338454E+02 -0.63717445077E+01 -0.26892628189E+03  0.26924330547E+03  0.00000000000E+00 0.  1.
          1    1    3    3  501    0  0.13751745940E+02 -0.10694888942E+02 -0.47616636600E+03  0.47648494129E+03  0.00000000000E+00 0.  1.
         21    1    1    2  502  501 -0.25154084395E+02  0.17066633450E+02 -0.25368221189E+03  0.25549689347E+03  0.00000000000E+00 0.  1.
<mgrwt>
<rscale>  1 0.30000000E+03</rscale>
<asrwt>0</asrwt>
<pdfrwt beam="1">  1        3 0.44550647E-02 0.30000000E+03</pdfrwt>
<pdfrwt beam="2">0</pdfrwt>
<totfact> 0.11822479E+03</totfact>
</mgrwt>
</event>
<event>
 6    1  0.3125838E-002  0.3000000E+03  0.7818608E-02  0.1093470E+00
          1   -1    0    0  502    0  0.00000000000E+00  0.00000000000E+00  0.63076210779E+01  0.63076210779E+01  0.00000000000E+00 0.  1.
         13   -1    0    0    0    0 -0.00000000000E+00 -0.00000000000E+00 -0.10000000000E+04  0.10000000000E+04  0.00000000000E+00 0.  1.
    9000005    2    1    2  501    0  0.30479229740E+01  0.51875162124E+02 -0.87727569499E+03  0.87881971351E+03  0.33348977215E+01 0.  0.
         13    1    3    3    0    0  0.30891980648E+01  0.26372678221E+02 -0.43658796149E+03  0.43739468380E+03  0.00000000000E+00 0.  1.
          1    1    3    3  501    0 -0.41275090830E-01  0.25502483902E+02 -0.44068773351E+03  0.44142502971E+03  0.00000000000E+00 0.  1.
         21    1    1    2  502  501 -0.30479229740E+01 -0.51875162124E+02 -0.11641668393E+03  0.12748790757E+03  0.00000000000E+00 0.  1.
<mgrwt>
<rscale>  1 0.30000000E+03</rscale>
<asrwt>0</asrwt>
<pdfrwt beam="1">  1        1 0.22936852E-01 0.30000000E+03</pdfrwt>
<pdfrwt beam="2">0</pdfrwt>
<totfact> 0.24535456E+02</totfact>
</mgrwt>
</event>
<event>
 6    1  0.3125838E-002  0.3000000E+03  0.7818608E-02  0.1093470E+00
          3   -1    0    0  502    0  0.00000000000E+00  0.00000000000E+00  0.14406053091E+01  0.14406053091E+01  0.00000000000E+00 0.  1.
         13   -1    0    0    0    0 -0.00000000000E+00 -0.00000000000E+00 -0.10000000000E+04  0.10000000000E+04  0.00000000000E+00 0.  1.
    9000005    2    1    2  501    0 -0.25115117398E+02 -0.27622501702E+02 -0.58479322260E+03  0.58599359678E+03  0.34074265366E+01 0.  0.
         13    1    3    3    0    0 -0.12663777819E+02 -0.15221763896E+02 -0.28687948020E+03  0.28756200988E+03  0.00000000000E+00 0.  1.
          1    1    3    3  501    0 -0.12451339579E+02 -0.12400737806E+02 -0.29791374239E+03  0.29843158690E+03  0.00000000000E+00 0.  1.
         21    1    1    2  502  501  0.25115117398E+02  0.27622501702E+02 -0.41376617210E+03  0.41544700853E+03  0.00000000000E+00 0.  1.
<mgrwt>
<rscale>  1 0.30000000E+03</rscale>
<asrwt>0</asrwt>
<pdfrwt beam="1">  1        3 0.52385758E-02 0.30000000E+03</pdfrwt>
<pdfrwt beam="2">0</pdfrwt>
<totfact> 0.92065940E+02</totfact>
</mgrwt>
</event>
<event>
 6    1  0.3125838E-002  0.3000000E+03  0.7818608E-02  0.1093470E+00
          1   -1    0    0  502    0  0.00000000000E+00  0.00000000000E+00  0.11464309005E+01  0.11464309005E+01  0.00000000000E+00 0.  1.
         13   -1    0    0    0    0 -0.00000000000E+00 -0.00000000000E+00 -0.10000000000E+04  0.10000000000E+04  0.00000000000E+00 0.  1.
    9000005    2    1    2  501    0  0.28030497549E+02  0.16753293426E+02 -0.62662763291E+03  0.62749080173E+03  0.40167529927E+01 0.  0.
         13    1    3    3    0    0  0.85243490322E+01  0.30886648431E+01 -0.18240086077E+03  0.18262606163E+03  0.00000000000E+00 0.  1.
          3    1    3    3  501    0  0.19506148517E+02  0.13664628583E+02 -0.44422677214E+03  0.44486474011E+03  0.00000000000E+00 0.  1.
         21    1    1    2  502  501 -0.28030497549E+02 -0.16753293426E+02 -0.37222593619E+03  0.37365562917E+03  0.00000000000E+00 0.  1.
<mgrwt>
<rscale>  1 0.30000000E+03</rscale>
<asrwt>0</asrwt>
<pdfrwt beam="1">  1        1 0.41688484E-02 0.30000000E+03</pdfrwt>
<pdfrwt beam="2">0</pdfrwt>
<totfact> 0.25689644E+03</totfact>
</mgrwt>
</event>
<event>
 6    1  0.3125838E-002  0.3000000E+03  0.7818608E-02  0.1093470E+00
          1   -1    0    0  502    0  0.00000000000E+00  0.00000000000E+00  0.11894964047E+01  0.11894964047E+01  0.00000000000E+00 0.  1.
         13   -1    0    0    0    0 -0.00000000000E+00 -0.00000000000E+00 -0.10000000000E+04  0.10000000000E+04  0.00000000000E+00 0.  1.
    9000005    2    1    2  501    0  0.31042119408E+02  0.14619788856E+02 -0.45493517590E+03  0.45623287108E+03  0.22509963067E+01 0.  0.
         13    1    3    3    0    0  0.16510080360E+02  0.71992408201E+01 -0.22544480128E+03  0.22616314962E+03  0.00000000000E+00 0.  1.
          3    1    3    3  501    0  0.14532039049E+02  0.74205480359E+01 -0.22949037461E+03  0.23006972146E+03  0.00000000000E+00 0.  1.
         21    1    1    2  502  501 -0.31042119408E+02 -0.14619788856E+02 -0.54387532770E+03  0.54495662532E+03  0.00000000000E+00 0.  1.
<mgrwt>
<rscale>  1 0.30000000E+03</rscale>
<asrwt>0</asrwt>
<pdfrwt beam="1">  1        1 0.43254506E-02 0.30000000E+03</pdfrwt>
<pdfrwt beam="2">0</pdfrwt>
<totfact> 0.24389901E+03</totfact>
</mgrwt>
</event>
<event>
 6    1  0.3125838E-002  0.3000000E+03  0.7818608E-02  0.1093470E+00
          1   -1    0    0  502    0  0.00000000000E+00  0.00000000000E+00  0.52728131515E+01  0.52728131515E+01  0.00000000000E+00 0.  1.
         13   -1    0    0    0    0 -0.00000000000E+00 -0.00000000000E+00 -0.10000000000E+04  0.10000000000E+04  0.00000000000E+00 0.  1.
    9000005    2    1    2  501    0  0.49006554551E+02  0.93858145852E+01 -0.86244806619E+03  0.86389565210E+03  0.30487605488E+01 0.  0.
         13    1    3    3    0    0  0.69571383695E+01  0.91700115921E+00 -0.13916885288E+03  0.13934565755E+03  0.00000000000E+00 0.  1.
          3    1    3    3  501    0  0.42049416182E+02  0.84688134260E+01 -0.72327921331E+03  0.72454999455E+03  0.00000000000E+00 0.  1.
         21    1    1    2  502  501 -0.49006554551E+02 -0.93858145852E+01 -0.13227912066E+03  0.14137716105E+03  0.00000000000E+00 0.  1.
<mgrwt>
<rscale>  1 0.30000000E+03</rscale>
<asrwt>0</asrwt>
<pdfrwt beam="1">  1        1 0.19173906E-01 0.30000000E+03</pdfrwt>
<pdfrwt beam="2">0</pdfrwt>
<totfact> 0.31152028E+02</totfact>
</mgrwt>
</event>
<event>
 6    1  0.3523494E-002  0.3000000E+03  0.7818608E-02  0.1093470E+00
          1   -1    0    0  502    0  0.00000000000E+00  0.00000000000E+00  0.76453050377E+01  0.76453050377E+01  0.00000000000E+00 0.  1.
         13   -1    0    0    0    0 -0.00000000000E+00 -0.00000000000E+00 -0.10000000000E+04  0.10000000000E+04  0.00000000000E+00 0.  1.
    9000005    2    1    2  501    0  0.23248793438E+02 -0.62345581041E+02 -0.82244403756E+03  0.82517034957E+03  0.80270187967E+01 0.  0.
         13    1    3    3    0    0  0.28045290414E+01 -0.14836507046E+02 -0.16043650468E+03  0.16114546025E+03  0.00000000000E+00 0.  1.
          1    1    3    3  501    0  0.20444264397E+02 -0.47509073995E+02 -0.66200753288E+03  0.66402488933E+03  0.00000000000E+00 0.  1.
         21    1    1    2  502  501 -0.23248793438E+02  0.62345581041E+02 -0.16991065741E+03  0.18247495546E+03  0.00000000000E+00 0.  1.
<mgrwt>
<rscale>  1 0.30000000E+03</rscale>
<asrwt>0</asrwt>
<pdfrwt beam="1">  1        1 0.27801168E-01 0.30000000E+03</pdfrwt>
<pdfrwt beam="2">0</pdfrwt>
<totfact> 0.19032183E+02</totfact>
</mgrwt>
</event>
<event>
 6    1  0.3125838E-002  0.3000000E+03  0.7818608E-02  0.1093470E+00
          1   -1    0    0  502    0  0.00000000000E+00  0.00000000000E+00  0.14115906126E+01  0.14115906126E+01  0.00000000000E+00 0.  1.
         13   -1    0    0    0    0 -0.00000000000E+00 -0.00000000000E+00 -0.10000000000E+04  0.10000000000E+04  0.00000000000E+00 0.  1.
    9000005    2    1    2  501    0  0.32543951371E+02 -0.11450311117E+01 -0.25392684618E+03  0.25603835284E+03  0.40466094103E+01 0.  0.
         13    1    3    3    0    0  0.43200992750E+01 -0.14323962535E+01 -0.39729181410E+02  0.39989034400E+02  0.00000000000E+00 0.  1.
          1    1    3    3  501    0  0.28223852096E+02  0.28736514178E+00 -0.21419766477E+03  0.21604931844E+03  0.00000000000E+00 0.  1.
         21    1    1    2  502  501 -0.32543951371E+02  0.11450311117E+01 -0.74466156320E+03  0.74537323777E+03  0.00000000000E+00 0.  1.
<mgrwt>
<rscale>  1 0.30000000E+03</rscale>
<asrwt>0</asrwt>
<pdfrwt beam="1">  1        1 0.51330676E-02 0.30000000E+03</pdfrwt>
<pdfrwt beam="2">0</pdfrwt>
<totfact> 0.19170742E+03</totfact>
</mgrwt>
</event>
<event>
 6    1  0.3125838E-002  0.3000000E+03  0.7818608E-02  0.1093470E+00
          1   -1    0    0  502    0  0.00000000000E+00  0.00000000000E+00  0.59798101262E+01  0.59798101262E+01  0.00000000000E+00 0.  1.
         13   -1    0    0    0    0 -0.00000000000E+00 -0.00000000000E+00 -0.10000000000E+04  0.10000000000E+04  0.00000000000E+00 0.  1.
    9000005    2    1    2  501    0  0.60429854651E+02 -0.45479465182E+01 -0.80932234562E+03  0.81159425299E+03  0.31813861731E+01 0.  0.
         13    1    3    3    0    0  0.50771478216E+02 -0.46268390967E+01 -0.66875089217E+03  0.67069136450E+03  0.00000000000E+00 0.  1.
          3    1    3    3  501    0  0.96583764351E+01  0.78892578454E-01 -0.14057145345E+03  0.14090288849E+03  0.00000000000E+00 0.  1.
         21    1    1    2  502  501 -0.60429854651E+02  0.45479465182E+01 -0.18469784425E+03  0.19438555713E+03  0.00000000000E+00 0.  1.
<mgrwt>
<rscale>  1 0.30000000E+03</rscale>
<asrwt>0</asrwt>
<pdfrwt beam="1">  1        1 0.21744810E-01 0.30000000E+03</pdfrwt>
<pdfrwt beam="2">0</pdfrwt>
<totfact> 0.26335550E+02</totfact>
</mgrwt>
</event>
<event>
 6    1  0.3125838E-002  0.3000000E+03  0.7818608E-02  0.1093470E+00
          3   -1    0    0  502    0  0.00000000000E+00  0.00000000000E+00  0.50536999043E+01  0.50536999043E+01  0.00000000000E+00 0.  1.
         13   -1    0    0    0    0 -0.00000000000E+00 -0.00000000000E+00 -0.10000000000E+04  0.10000000000E+04  0.00000000000E+00 0.  1.
    9000005    2    1    2  501    0 -0.30312505977E+02 -0.60841142340E+02 -0.64294645568E+03  0.64655072490E+03  0.52155895831E+01 0.  0.
         13    1    3    3    0    0 -0.12717493144E+02 -0.20035051937E+02 -0.21987487460E+03  0.22115175428E+03  0.00000000000E+00 0.  1.
          1    1    3    3  501    0 -0.17595012832E+02 -0.40806090403E+02 -0.42307158108E+03  0.42539897062E+03  0.00000000000E+00 0.  1.
         21    1    1    2  502  501  0.30312505977E+02  0.60841142340E+02 -0.35199984442E+03  0.35850297501E+03  0.00000000000E+00 0.  1.
<mgrwt>
<rscale>  1 0.30000000E+03</rscale>
<asrwt>0</asrwt>
<pdfrwt beam="1">  1        3 0.18377129E-01 0.30000000E+03</pdfrwt>
<pdfrwt beam="2">0</pdfrwt>
<totfact> 0.11642328E+02</totfact>
</mgrwt>
</event>
<event>
 6    1  0.3125838E-002  0.3000000E+03  0.7818608E-02  0.1093470E+00
          1   -1    0    0  502    0  0.00000000000E+00  0.00000000000E+00  0.10482145978E+01  0.10482145978E+01  0.00000000000E+00 0.  1.
         13   -1    0    0    0    0 -0.00000000000E+00 -0.00000000000E+00 -0.10000000000E+04  0.10000000000E+04  0.00000000000E+00 0.  1.
    9000005    2    1    2  501    0 -0.19690130229E+02  0.23471930141E+02 -0.64620994782E+03  0.64697839561E+03  0.74239476856E+01 0.  0.
         13    1    3    3    0    0 -0.15148223551E+02  0.14871309065E+02 -0.49585946244E+03  0.49631364177E+03  0.00000000000E+00 0.  1.
          1    1    3    3  501    0 -0.45419066778E+01  0.86006210760E+01 -0.15035048538E+03  0.15066475385E+03  0.00000000000E+00 0.  1.
         21    1    1    2  502  501  0.19690130229E+02 -0.23471930141E+02 -0.35274183759E+03  0.35406981898E+03  0.00000000000E+00 0.  1.
<mgrwt>
<rscale>  1 0.30000000E+03</rscale>
<asrwt>0</asrwt>
<pdfrwt beam="1">  1        1 0.38116975E-02 0.30000000E+03</pdfrwt>
<pdfrwt beam="2">0</pdfrwt>
<totfact> 0.29142157E+03</totfact>
</mgrwt>
</event>
<event>
 6    1  0.3125838E-002  0.3000000E+03  0.7818608E-02  0.1093470E+00
          1   -1    0    0  502    0  0.00000000000E+00  0.00000000000E+00  0.31858743056E+01  0.31858743056E+01  0.00000000000E+00 0.  1.
         13   -1    0    0    0    0 -0.00000000000E+00 -0.00000000000E+00 -0.10000000000E+04  0.10000000000E+04  0.00000000000E+00 0.  1.
    9000005    2    1    2  501    0  0.34865715668E+02 -0.90188103001E+01 -0.88447105291E+03  0.88521162682E+03  0.36910356806E+01 0.  0.
         13    1    3    3    0    0  0.27432904885E+02 -0.76591300174E+01 -0.66239167460E+03  0.66300373839E+03  0.00000000000E+00 0.  1.
          1    1    3    3  501    0  0.74328107829E+01 -0.13596802827E+01 -0.22207937831E+03  0.22220788843E+03  0.00000000000E+00 0.  1.
         21    1    1    2  502  501 -0.34865715668E+02  0.90188103001E+01 -0.11234307278E+03  0.11797424749E+03  0.00000000000E+00 0.  1.
<mgrwt>
<rscale>  1 0.30000000E+03</rscale>
<asrwt>0</asrwt>
<pdfrwt beam="1">  1        1 0.11585022E-01 0.30000000E+03</pdfrwt>
<pdfrwt beam="2">0</pdfrwt>
<totfact> 0.61725537E+02</totfact>
</mgrwt>
</event>
<event>
 6    1  0.3125838E-002  0.3000000E+03  0.7818608E-02  0.1093470E+00
          1   -1    0    0  502    0  0.00000000000E+00  0.00000000000E+00  0.16965063014E+01  0.16965063014E+01  0.00000000000E+00 0.  1.
         13   -1    0    0    0    0 -0.00000000000E+00 -0.00000000000E+00 -0.10000000000E+04  0.10000000000E+04  0.00000000000E+00 0.  1.
    9000005    2    1    2  501    0 -0.16479851537E+02  0.37532187453E+02 -0.46059757563E+03  0.46243042640E+03  0.33944051708E+01 0.  0.
         13    1    3    3    0    0 -0.61202921304E+01  0.17718616191E+02 -0.20175626214E+03  0.20262526163E+03  0.00000000000E+00 0.  1.
          1    1    3    3  501    0 -0.10359559407E+02  0.19813571262E+02 -0.25884131348E+03  0.25980516477E+03  0.00000000000E+00 0.  1.
         21    1    1    2  502  501  0.16479851537E+02 -0.37532187453E+02 -0.53770591807E+03  0.53926607990E+03  0.00000000000E+00 0.  1.
<mgrwt>
<rscale>  1 0.30000000E+03</rscale>
<asrwt>0</asrwt>
<pdfrwt beam="1">  1        1 0.61691268E-02 0.30000000E+03</pdfrwt>
<pdfrwt beam="2">0</pdfrwt>
<totfact> 0.14809680E+03</totfact>
</mgrwt>
</event>
<event>
 6    1  0.3125838E-002  0.3000000E+03  0.7818608E-02  0.1093470E+00
          1   -1    0    0  502    0  0.00000000000E+00  0.00000000000E+00  0.29737323436E+02  0.29737323436E+02  0.00000000000E+00 0.  1.
         13   -1    0    0    0    0 -0.00000000000E+00 -0.00000000000E+00 -0.10000000000E+04  0.10000000000E+04  0.00000000000E+00 0.  1.
    9000005    2    1    2  501    0  0.29106968037E+02  0.12339500067E+03 -0.83411519812E+03  0.84370055915E+03  0.29879757425E+01 0.  0.
         13    1    3    3    0    0  0.22575473278E+02  0.10058572257E+03 -0.67592075986E+03  0.68373680111E+03  0.00000000000E+00 0.  1.
          3    1    3    3  501    0  0.65314947596E+01  0.22809278104E+02 -0.15819443826E+03  0.15996375804E+03  0.00000000000E+00 0.  1.
         21    1    1    2  502  501 -0.29106968037E+02 -0.12339500067E+03 -0.13614747844E+03  0.18603676428E+03  0.00000000000E+00 0.  1.
<mgrwt>
<rscale>  1 0.30000000E+03</rscale>
<asrwt>0</asrwt>
<pdfrwt beam="1">  1        1 0.10813595E+00 0.30000000E+03</pdfrwt>
<pdfrwt beam="2">0</pdfrwt>
<totfact> 0.30483752E+01</totfact>
</mgrwt>
</event>
<event>
 6    1  0.3125838E-002  0.3000000E+03  0.7818608E-02  0.1093470E+00
          1   -1    0    0  502    0  0.00000000000E+00  0.00000000000E+00  0.46513062693E+01  0.46513062693E+01  0.00000000000E+00 0.  1.
         13   -1    0    0    0    0 -0.00000000000E+00 -0.00000000000E+00 -0.10000000000E+04  0.10000000000E+04  0.00000000000E+00 0.  1.
    9000005    2    1    2  501    0 -0.77558402803E+01  0.30931732477E+02 -0.94166453663E+03  0.94221002300E+03  0.32715081085E+01 0.  0.
         13    1    3    3    0    0 -0.15094097263E+01  0.12123122173E+02 -0.34261460212E+03  0.34283234094E+03  0.00000000000E+00 0.  1.
          3    1    3    3  501    0 -0.62464305540E+01  0.18808610304E+02 -0.59904993451E+03  0.59937768206E+03  0.00000000000E+00 0.  1.
         21    1    1    2  502  501  0.77558402803E+01 -0.30931732477E+02 -0.53684157100E+02  0.62441283267E+02  0.00000000000E+00 0.  1.
<mgrwt>
<rscale>  1 0.30000000E+03</rscale>
<asrwt>0</asrwt>
<pdfrwt beam="1">  1        1 0.16913877E-01 0.30000000E+03</pdfrwt>
<pdfrwt beam="2">0</pdfrwt>
<totfact> 0.36872659E+02</totfact>
</mgrwt>
</event>
<event>
 6    1  0.3125838E-002  0.3000000E+03  0.7818608E-02  0.1093470E+00
          3   -1    0    0  502    0  0.00000000000E+00  0.00000000000E+00  0.40708835691E+01  0.40708835691E+01  0.00000000000E+00 0.  1.
         13   -1    0    0    0    0 -0.00000000000E+00 -0.00000000000E+00 -0.10000000000E+04  0.10000000000E+04  0.00000000000E+00 0.  1.
    9000005    2    1    2  501    0  0.73752584219E+01  0.49973484059E+02 -0.80441837234E+03  0.80601001250E+03  0.33880597347E+01 0.  0.
         13    1    3    3    0    0  0.62094480349E+00  0.98706369318E+01 -0.14116548853E+03  0.14151151966E+03  0.00000000000E+00 0.  1.
          3    1    3    3  501    0  0.67543136184E+01  0.40102847128E+02 -0.66325288381E+03  0.66449849284E+03  0.00000000000E+00 0.  1.
         21    1    1    2  502  501 -0.73752584219E+01 -0.49973484059E+02 -0.19151074409E+03  0.19806087107E+03  0.00000000000E+00 0.  1.
<mgrwt>
<rscale>  1 0.30000000E+03</rscale>
<asrwt>0</asrwt>
<pdfrwt beam="1">  1        3 0.14803244E-01 0.30000000E+03</pdfrwt>
<pdfrwt beam="2">0</pdfrwt>
<totfact> 0.17029084E+02</totfact>
</mgrwt>
</event>
<event>
 6    1  0.3125838E-002  0.3000000E+03  0.7818608E-02  0.1093470E+00
          1   -1    0    0  502    0  0.00000000000E+00  0.00000000000E+00  0.17277129284E+01  0.17277129284E+01  0.00000000000E+00 0.  1.
         13   -1    0    0    0    0 -0.00000000000E+00 -0.00000000000E+00 -0.10000000000E+04  0.10000000000E+04  0.00000000000E+00 0.  1.
    9000005    2    1    2  501    0  0.63751823906E+01  0.35142824842E+02 -0.75452643785E+03  0.75537897617E+03  0.34045764348E+01 0.  0.
         13    1    3    3    0    0  0.56850345918E+01  0.23896471879E+02 -0.49886356536E+03  0.49946793473E+03  0.00000000000E+00 0.  1.
          3    1    3    3  501    0  0.69014779881E+00  0.11246352963E+02 -0.25566287249E+03  0.25591104144E+03  0.00000000000E+00 0.  1.
         21    1    1    2  502  501 -0.63751823906E+01 -0.35142824842E+02 -0.24374584922E+03  0.24634873675E+03  0.00000000000E+00 0.  1.
<mgrwt>
<rscale>  1 0.30000000E+03</rscale>
<asrwt>0</asrwt>
<pdfrwt beam="1">  1        1 0.62826057E-02 0.30000000E+03</pdfrwt>
<pdfrwt beam="2">0</pdfrwt>
<totfact> 0.14436048E+03</totfact>
</mgrwt>
</event>
<event>
 6    1  0.3125838E-002  0.3000000E+03  0.7818608E-02  0.1093470E+00
          1   -1    0    0  502    0  0.00000000000E+00  0.00000000000E+00  0.98397023260E+00  0.98397023260E+00  0.00000000000E+00 0.  1.
         13   -1    0    0    0    0 -0.00000000000E+00 -0.00000000000E+00 -0.10000000000E+04  0.10000000000E+04  0.00000000000E+00 0.  1.
    9000005    2    1    2  501    0  0.23239968406E+02 -0.19441020629E+02 -0.62572154210E+03  0.62646184280E+03  0.29904548750E+01 0.  0.
         13    1    3    3    0    0  0.13218704597E+02 -0.10285471046E+02 -0.37341802693E+03  0.37379345620E+03  0.00000000000E+00 0.  1.
          3    1    3    3  501    0  0.10021263809E+02 -0.91555495829E+01 -0.25230351517E+03  0.25266838660E+03  0.00000000000E+00 0.  1.
         21    1    1    2  502  501 -0.23239968406E+02  0.19441020629E+02 -0.37329448767E+03  0.37452212743E+03  0.00000000000E+00 0.  1.
<mgrwt>
<rscale>  1 0.30000000E+03</rscale>
<asrwt>0</asrwt>
<pdfrwt beam="1">  1        1 0.35780811E-02 0.30000000E+03</pdfrwt>
<pdfrwt beam="2">0</pdfrwt>
<totfact> 0.31854793E+03</totfact>
</mgrwt>
</event>
<event>
 6    1  0.3125838E-002  0.3000000E+03  0.7818608E-02  0.1093470E+00
          1   -1    0    0  502    0  0.00000000000E+00  0.00000000000E+00  0.88815921456E+01  0.88815921456E+01  0.00000000000E+00 0.  1.
         13   -1    0    0    0    0 -0.00000000000E+00 -0.00000000000E+00 -0.10000000000E+04  0.10000000000E+04  0.00000000000E+00 0.  1.
    9000005    2    1    2  501    0  0.37309133745E+02 -0.35452192082E+02 -0.91809736057E+03  0.91954569381E+03  0.35623225694E+01 0.  0.
         13    1    3    3    0    0  0.36808161430E+01 -0.25293777855E+01 -0.67738308023E+02  0.67885377905E+02  0.00000000000E+00 0.  1.
          1    1    3    3  501    0  0.33628317602E+02 -0.32922814297E+02 -0.85035905254E+03  0.85166031591E+03  0.00000000000E+00 0.  1.
         21    1    1    2  502  501 -0.37309133745E+02  0.35452192082E+02 -0.73021047288E+02  0.89335898335E+02  0.00000000000E+00 0.  1.
<mgrwt>
<rscale>  1 0.30000000E+03</rscale>
<asrwt>0</asrwt>
<pdfrwt beam="1">  1        1 0.32296767E-01 0.30000000E+03</pdfrwt>
<pdfrwt beam="2">0</pdfrwt>
<totfact> 0.15633895E+02</totfact>
</mgrwt>
</event>
<event>
 6    1  0.3125838E-002  0.3000000E+03  0.7818608E-02  0.1093470E+00
          1   -1    0    0  502    0  0.00000000000E+00  0.00000000000E+00  0.14735601793E+01  0.14735601793E+01  0.00000000000E+00 0.  1.
         13   -1    0    0    0    0 -0.00000000000E+00 -0.00000000000E+00 -0.10000000000E+04  0.10000000000E+04  0.00000000000E+00 0.  1.
    9000005    2    1    2  501    0 -0.10636024390E+02  0.35412440278E+02 -0.63159115254E+03  0.63268002581E+03  0.30765484247E+01 0.  0.
         13    1    3    3    0    0 -0.88372582868E+01  0.28115108220E+02 -0.48193833855E+03  0.48283860513E+03  0.00000000000E+00 0.  1.
          3    1    3    3  501    0 -0.17987661036E+01  0.72973320575E+01 -0.14965281400E+03  0.14984142068E+03  0.00000000000E+00 0.  1.
         21    1    1    2  502  501  0.10636024390E+02 -0.35412440278E+02 -0.36693528728E+03  0.36879353437E+03  0.00000000000E+00 0.  1.
<mgrwt>
<rscale>  1 0.30000000E+03</rscale>
<asrwt>0</asrwt>
<pdfrwt beam="1">  1        1 0.53584120E-02 0.30000000E+03</pdfrwt>
<pdfrwt beam="2">0</pdfrwt>
<totfact> 0.18047863E+03</totfact>
</mgrwt>
</event>
<event>
 6    1  0.3125838E-002  0.3000000E+03  0.7818608E-02  0.1093470E+00
          1   -1    0    0  502    0  0.00000000000E+00  0.00000000000E+00  0.63748533271E+01  0.63748533271E+01  0.00000000000E+00 0.  1.
         13   -1    0    0    0    0 -0.00000000000E+00 -0.00000000000E+00 -0.10000000000E+04  0.10000000000E+04  0.00000000000E+00 0.  1.
    9000005    2    1    2  501    0 -0.30754275527E+02 -0.24285851004E+02 -0.93517929469E+03  0.93600763343E+03  0.37879544691E+01 0.  0.
         13    1    3    3    0    0 -0.38711364099E+01 -0.16131700824E+01 -0.93820301192E+02  0.93913986874E+02  0.00000000000E+00 0.  1.
          1    1    3    3  501    0 -0.26883139117E+02 -0.22672680922E+02 -0.84135899349E+03  0.84209364655E+03  0.00000000000E+00 0.  1.
         21    1    1    2  502  501  0.30754275527E+02  0.24285851004E+02 -0.58445851986E+02  0.70367219901E+02  0.00000000000E+00 0.  1.
<mgrwt>
<rscale>  1 0.30000000E+03</rscale>
<asrwt>0</asrwt>
<pdfrwt beam="1">  1        1 0.23181334E-01 0.30000000E+03</pdfrwt>
<pdfrwt beam="2">0</pdfrwt>
<totfact> 0.24193337E+02</totfact>
</mgrwt>
</event>
<event>
 6    1  0.3125838E-002  0.3000000E+03  0.7818608E-02  0.1093470E+00
          1   -1    0    0  502    0  0.00000000000E+00  0.00000000000E+00  0.32091404594E+01  0.32091404594E+01  0.00000000000E+00 0.  1.
         13   -1    0    0    0    0 -0.00000000000E+00 -0.00000000000E+00 -0.10000000000E+04  0.10000000000E+04  0.00000000000E+00 0.  1.
    9000005    2    1    2  501    0 -0.13917028516E+02  0.28339656614E+02 -0.91476133804E+03  0.91531339416E+03  0.36720754329E+01 0.  0.
         13    1    3    3    0    0 -0.32539641864E+01  0.79235792197E+01 -0.20633121630E+03  0.20650893978E+03  0.00000000000E+00 0.  1.
          3    1    3    3  501    0 -0.10663064329E+02  0.20416077395E+02 -0.70843012174E+03  0.70880445438E+03  0.00000000000E+00 0.  1.
         21    1    1    2  502  501  0.13917028516E+02 -0.28339656614E+02 -0.82029521501E+02  0.87895746298E+02  0.00000000000E+00 0.  1.
<mgrwt>
<rscale>  1 0.30000000E+03</rscale>
<asrwt>0</asrwt>
<pdfrwt beam="1">  1        1 0.11669626E-01 0.30000000E+03</pdfrwt>
<pdfrwt beam="2">0</pdfrwt>
<totfact> 0.61112464E+02</totfact>
</mgrwt>
</event>
<event>
 6    1  0.3125838E-002  0.3000000E+03  0.7818608E-02  0.1093470E+00
          1   -1    0    0  502    0  0.00000000000E+00  0.00000000000E+00  0.13930986384E+01  0.13930986384E+01  0.00000000000E+00 0.  1.
         13   -1    0    0    0    0 -0.00000000000E+00 -0.00000000000E+00 -0.10000000000E+04  0.10000000000E+04  0.00000000000E+00 0.  1.
    9000005    2    1    2  501    0 -0.17951276782E+02 -0.29377606423E+02 -0.30986811512E+03  0.31179436911E+03  0.34910946491E+01 0.  0.
         13    1    3    3    0    0 -0.83029149578E+01 -0.15331390289E+02 -0.14326887840E+03  0.14432588625E+03  0.00000000000E+00 0.  1.
          1    1    3    3  501    0 -0.96483618239E+01 -0.14046216134E+02 -0.16659923673E+03  0.16746848286E+03  0.00000000000E+00 0.  1.
         21    1    1    2  502  501  0.17951276782E+02  0.29377606423E+02 -0.68873878624E+03  0.68959872953E+03  0.00000000000E+00 0.  1.
<mgrwt>
<rscale>  1 0.30000000E+03</rscale>
<asrwt>0</asrwt>
<pdfrwt beam="1">  1        1 0.50658239E-02 0.30000000E+03</pdfrwt>
<pdfrwt beam="2">0</pdfrwt>
<totfact> 0.19529299E+03</totfact>
</mgrwt>
</event>
<event>
 6    1  0.3125838E-002  0.3000000E+03  0.7818608E-02  0.1093470E+00
          1   -1    0    0  502    0  0.00000000000E+00  0.00000000000E+00  0.29623193708E+01  0.29623193708E+01  0.00000000000E+00 0.  1.
         13   -1    0    0    0    0 -0.00000000000E+00 -0.00000000000E+00 -0.10000000000E+04  0.10000000000E+04  0.00000000000E+00 0.  1.
    9000005    2    1    2  501    0 -0.29027441900E+02 -0.16540259899E+02 -0.89433746844E+03  0.89496460567E+03  0.24424098549E+01 0.  0.
         13    1    3    3    0    0 -0.20503168054E+02 -0.12003578244E+02 -0.66359158926E+03  0.66401676419E+03  0.00000000000E+00 0.  1.
          1    1    3    3  501    0 -0.85242738469E+01 -0.45366816556E+01 -0.23074587918E+03  0.23094784148E+03  0.00000000000E+00 0.  1.
         21    1    1    2  502  501  0.29027441900E+02  0.16540259899E+02 -0.10270021219E+03  0.10799771370E+03  0.00000000000E+00 0.  1.
<mgrwt>
<rscale>  1 0.30000000E+03</rscale>
<asrwt>0</asrwt>
<pdfrwt beam="1">  1        1 0.10772093E-01 0.30000000E+03</pdfrwt>
<pdfrwt beam="2">0</pdfrwt>
<totfact> 0.68212842E+02</totfact>
</mgrwt>
</event>
<event>
 6    1  0.3125838E-002  0.3000000E+03  0.7818608E-02  0.1093470E+00
          1   -1    0    0  502    0  0.00000000000E+00  0.00000000000E+00  0.16153652336E+01  0.16153652336E+01  0.00000000000E+00 0.  1.
         13   -1    0    0    0    0 -0.00000000000E+00 -0.00000000000E+00 -0.10000000000E+04  0.10000000000E+04  0.00000000000E+00 0.  1.
    9000005    2    1    2  501    0  0.37740094184E+02 -0.38367074120E+00 -0.66982300196E+03  0.67089311249E+03  0.32019540643E+01 0.  0.
         13    1    3    3    0    0  0.18609595914E+02 -0.16445226330E+01 -0.31876831999E+03  0.31931530396E+03  0.00000000000E+00 0.  1.
          3    1    3    3  501    0  0.19130498270E+02  0.12608518918E+01 -0.35105468197E+03  0.35157780852E+03  0.00000000000E+00 0.  1.
         21    1    1    2  502  501 -0.37740094184E+02  0.38367074120E+00 -0.32856163280E+03  0.33072225275E+03  0.00000000000E+00 0.  1.
<mgrwt>
<rscale>  1 0.30000000E+03</rscale>
<asrwt>0</asrwt>
<pdfrwt beam="1">  1        1 0.58740678E-02 0.30000000E+03</pdfrwt>
<pdfrwt beam="2">0</pdfrwt>
<totfact> 0.15863642E+03</totfact>
</mgrwt>
</event>
<event>
 6    1  0.3125838E-002  0.3000000E+03  0.7818608E-02  0.1093470E+00
          1   -1    0    0  502    0  0.00000000000E+00  0.00000000000E+00  0.32029317727E+01  0.32029317727E+01  0.00000000000E+00 0.  1.
         13   -1    0    0    0    0 -0.00000000000E+00 -0.00000000000E+00 -0.10000000000E+04  0.10000000000E+04  0.00000000000E+00 0.  1.
    9000005    2    1    2  501    0  0.43740545755E+02 -0.22927170087E+02 -0.74278363765E+03  0.74443331728E+03  0.38132721680E+01 0.  0.
         13    1    3    3    0    0  0.27884123455E+02 -0.12523795556E+02 -0.45893296574E+03  0.45994981991E+03  0.00000000000E+00 0.  1.
          1    1    3    3  501    0  0.15856422301E+02 -0.10403374530E+02 -0.28385067191E+03  0.28448349737E+03  0.00000000000E+00 0.  1.
         21    1    1    2  502  501 -0.43740545755E+02  0.22927170087E+02 -0.25401343058E+03  0.25876961449E+03  0.00000000000E+00 0.  1.
<mgrwt>
<rscale>  1 0.30000000E+03</rscale>
<asrwt>0</asrwt>
<pdfrwt beam="1">  1        1 0.11647049E-01 0.30000000E+03</pdfrwt>
<pdfrwt beam="2">0</pdfrwt>
<totfact> 0.61275021E+02</totfact>
</mgrwt>
</event>
<event>
 6    1  0.3125838E-002  0.3000000E+03  0.7818608E-02  0.1093470E+00
          3   -1    0    0  502    0  0.00000000000E+00  0.00000000000E+00  0.60237233590E+01  0.60237233590E+01  0.00000000000E+00 0.  1.
         13   -1    0    0    0    0 -0.00000000000E+00 -0.00000000000E+00 -0.10000000000E+04  0.10000000000E+04  0.00000000000E+00 0.  1.
    9000005    2    1    2  501    0 -0.40653912579E+02 -0.31813379186E+02 -0.87251235603E+03  0.87404525650E+03  0.35309048845E+01 0.  0.
         13    1    3    3    0    0 -0.24433259168E+02 -0.17335418062E+02 -0.48805870705E+03  0.48897730254E+03  0.00000000000E+00 0.  1.
          3    1    3    3  501    0 -0.16220653411E+02 -0.14477961124E+02 -0.38445364898E+03  0.38506795396E+03  0.00000000000E+00 0.  1.
         21    1    1    2  502  501  0.40653912579E+02  0.31813379186E+02 -0.12146392061E+03  0.13197846686E+03  0.00000000000E+00 0.  1.
<mgrwt>
<rscale>  1 0.30000000E+03</rscale>
<asrwt>0</asrwt>
<pdfrwt beam="1">  1        3 0.21904495E-01 0.30000000E+03</pdfrwt>
<pdfrwt beam="2">0</pdfrwt>
<totfact> 0.84563228E+01</totfact>
</mgrwt>
</event>
<event>
 6    1  0.3125838E-002  0.3000000E+03  0.7818608E-02  0.1093470E+00
          1   -1    0    0  502    0  0.00000000000E+00  0.00000000000E+00  0.13993736582E+01  0.13993736582E+01  0.00000000000E+00 0.  1.
         13   -1    0    0    0    0 -0.00000000000E+00 -0.00000000000E+00 -0.10000000000E+04  0.10000000000E+04  0.00000000000E+00 0.  1.
    9000005    2    1    2  501    0  0.35903562968E+02  0.92650748699E+01 -0.44999570287E+03  0.45154278371E+03  0.44548263376E+01 0.  0.
         13    1    3    3    0    0  0.13149213718E+02  0.56183198663E+01 -0.16979315853E+03  0.17039420185E+03  0.00000000000E+00 0.  1.
          3    1    3    3  501    0  0.22754349250E+02  0.36467550036E+01 -0.28020254434E+03  0.28114858187E+03  0.00000000000E+00 0.  1.
         21    1    1    2  502  501 -0.35903562968E+02 -0.92650748699E+01 -0.54860492347E+03  0.54985658994E+03  0.00000000000E+00 0.  1.
<mgrwt>
<rscale>  1 0.30000000E+03</rscale>
<asrwt>0</asrwt>
<pdfrwt beam="1">  1        1 0.50886422E-02 0.30000000E+03</pdfrwt>
<pdfrwt beam="2">0</pdfrwt>
<totfact> 0.19406344E+03</totfact>
</mgrwt>
</event>
<event>
 6    1  0.3125838E-002  0.3000000E+03  0.7818608E-02  0.1093470E+00
          1   -1    0    0  502    0  0.00000000000E+00  0.00000000000E+00  0.71099792290E+01  0.71099792290E+01  0.00000000000E+00 0.  1.
         13   -1    0    0    0    0 -0.00000000000E+00 -0.00000000000E+00 -0.10000000000E+04  0.10000000000E+04  0.00000000000E+00 0.  1.
    9000005    2    1    2  501    0 -0.12823836778E+02 -0.83310538067E+02 -0.49609457271E+03  0.50321434146E+03  0.31227939145E+01 0.  0.
         13    1    3    3    0    0 -0.95312573349E+01 -0.68222638181E+02 -0.40954569019E+03  0.41529850178E+03  0.00000000000E+00 0.  1.
          1    1    3    3  501    0 -0.32925794432E+01 -0.15087899886E+02 -0.86548882517E+02  0.87915839684E+02  0.00000000000E+00 0.  1.
         21    1    1    2  502  501  0.12823836778E+02  0.83310538067E+02 -0.49679544806E+03  0.50389563777E+03  0.00000000000E+00 0.  1.
<mgrwt>
<rscale>  1 0.30000000E+03</rscale>
<asrwt>0</asrwt>
<pdfrwt beam="1">  1        1 0.25854524E-01 0.30000000E+03</pdfrwt>
<pdfrwt beam="2">0</pdfrwt>
<totfact> 0.20942644E+02</totfact>
</mgrwt>
</event>
<event>
 6    1  0.3125838E-002  0.3000000E+03  0.7818608E-02  0.1093470E+00
          3   -1    0    0  502    0  0.00000000000E+00  0.00000000000E+00  0.23941502108E+02  0.23941502108E+02  0.00000000000E+00 0.  1.
         13   -1    0    0    0    0 -0.00000000000E+00 -0.00000000000E+00 -0.10000000000E+04  0.10000000000E+04  0.00000000000E+00 0.  1.
    9000005    2    1    2  501    0  0.79142569567E+02  0.21569206108E+02 -0.92212197835E+03  0.92576856739E+03  0.31177639735E+01 0.  0.
         13    1    3    3    0    0  0.43552267948E+02  0.12916580983E+02 -0.52372506041E+03  0.52569152267E+03  0.00000000000E+00 0.  1.
          3    1    3    3  501    0  0.35590301620E+02  0.86526251253E+01 -0.39839691794E+03  0.40007704472E+03  0.00000000000E+00 0.  1.
         21    1    1    2  502  501 -0.79142569567E+02 -0.21569206108E+02 -0.53936519544E+02  0.98172934714E+02  0.00000000000E+00 0.  1.
<mgrwt>
<rscale>  1 0.30000000E+03</rscale>
<asrwt>0</asrwt>
<pdfrwt beam="1">  1        3 0.87060191E-01 0.30000000E+03</pdfrwt>
<pdfrwt beam="2">0</pdfrwt>
<totfact> 0.55223867E+00</totfact>
</mgrwt>
</event>
<event>
 6    1  0.3125838E-002  0.3000000E+03  0.7818608E-02  0.1093470E+00
          1   -1    0    0  502    0  0.00000000000E+00  0.00000000000E+00  0.32959022714E+01  0.32959022714E+01  0.00000000000E+00 0.  1.
         13   -1    0    0    0    0 -0.00000000000E+00 -0.00000000000E+00 -0.10000000000E+04  0.10000000000E+04  0.00000000000E+00 0.  1.
    9000005    2    1    2  501    0  0.28083271441E+02 -0.26221213660E+02 -0.87094042509E+03  0.87179410176E+03  0.33925856488E+01 0.  0.
         13    1    3    3    0    0  0.26366400803E+02 -0.24630491003E+02 -0.83350395894E+03  0.83428454244E+03  0.00000000000E+00 0.  1.
          1    1    3    3  501    0  0.17168706377E+01 -0.15907226565E+01 -0.37436466146E+02  0.37509559327E+02  0.00000000000E+00 0.  1.
         21    1    1    2  502  501 -0.28083271441E+02  0.26221213660E+02 -0.12576367264E+03  0.13150180051E+03  0.00000000000E+00 0.  1.
<mgrwt>
<rscale>  1 0.30000000E+03</rscale>
<asrwt>0</asrwt>
<pdfrwt beam="1">  1        1 0.11985124E-01 0.30000000E+03</pdfrwt>
<pdfrwt beam="2">0</pdfrwt>
<totfact> 0.58917348E+02</totfact>
</mgrwt>
</event>
<event>
 6    1  0.3125838E-002  0.3000000E+03  0.7818608E-02  0.1093470E+00
          1   -1    0    0  502    0  0.00000000000E+00  0.00000000000E+00  0.40757274745E+01  0.40757274745E+01  0.00000000000E+00 0.  1.
         13   -1    0    0    0    0 -0.00000000000E+00 -0.00000000000E+00 -0.10000000000E+04  0.10000000000E+04  0.00000000000E+00 0.  1.
    9000005    2    1    2  501    0 -0.85689533415E+01  0.46205489024E+02 -0.83760372834E+03  0.83892800909E+03  0.34386806067E+01 0.  0.
         13    1    3    3    0    0 -0.23521519448E+01  0.62142410789E+01 -0.11491672778E+03  0.11510866056E+03  0.00000000000E+00 0.  1.
          1    1    3    3  501    0 -0.62168013966E+01  0.39991247946E+02 -0.72268700056E+03  0.72381934853E+03  0.00000000000E+00 0.  1.
         21    1    1    2  502  501  0.85689533415E+01 -0.46205489024E+02 -0.15832054418E+03  0.16514771838E+03  0.00000000000E+00 0.  1.
<mgrwt>
<rscale>  1 0.30000000E+03</rscale>
<asrwt>0</asrwt>
<pdfrwt beam="1">  1        1 0.14820858E-01 0.30000000E+03</pdfrwt>
<pdfrwt beam="2">0</pdfrwt>
<totfact> 0.44094007E+02</totfact>
</mgrwt>
</event>
<event>
 6    1  0.3125838E-002  0.3000000E+03  0.7818608E-02  0.1093470E+00
          1   -1    0    0  502    0  0.00000000000E+00  0.00000000000E+00  0.69747606412E+01  0.69747606412E+01  0.00000000000E+00 0.  1.
         13   -1    0    0    0    0 -0.00000000000E+00 -0.00000000000E+00 -0.10000000000E+04  0.10000000000E+04  0.00000000000E+00 0.  1.
    9000005    2    1    2  501    0 -0.16796920484E+02  0.37044576017E+02 -0.93621166361E+03  0.93710187935E+03  0.36353899320E+01 0.  0.
         13    1    3    3    0    0 -0.20085507338E+01  0.30641611447E+01 -0.66221370890E+02  0.66322645621E+02  0.00000000000E+00 0.  1.
          1    1    3    3  501    0 -0.14788369751E+02  0.33980414872E+02 -0.86999029272E+03  0.87077923373E+03  0.00000000000E+00 0.  1.
         21    1    1    2  502  501  0.16796920484E+02 -0.37044576017E+02 -0.56813575750E+02  0.69872881288E+02  0.00000000000E+00 0.  1.
<mgrwt>
<rscale>  1 0.30000000E+03</rscale>
<asrwt>0</asrwt>
<pdfrwt beam="1">  1        1 0.25362819E-01 0.30000000E+03</pdfrwt>
<pdfrwt beam="2">0</pdfrwt>
<totfact> 0.21480684E+02</totfact>
</mgrwt>
</event>
<event>
 6    1  0.3125838E-002  0.3000000E+03  0.7818608E-02  0.1093470E+00
          3   -1    0    0  502    0  0.00000000000E+00  0.00000000000E+00  0.43675951687E+01  0.43675951687E+01  0.00000000000E+00 0.  1.
         13   -1    0    0    0    0 -0.00000000000E+00 -0.00000000000E+00 -0.10000000000E+04  0.10000000000E+04  0.00000000000E+00 0.  1.
    9000005    2    1    2  501    0 -0.45154377031E+02  0.44693254321E+02 -0.63518183796E+03  0.63836074290E+03  0.34736234190E+01 0.  0.
         13    1    3    3    0    0 -0.19420929267E+02  0.19048882859E+02 -0.28930666469E+03  0.29058282583E+03  0.00000000000E+00 0.  1.
          1    1    3    3  501    0 -0.25733447764E+02  0.25644371462E+02 -0.34587517327E+03  0.34777791707E+03  0.00000000000E+00 0.  1.
         21    1    1    2  502  501  0.45154377031E+02 -0.44693254321E+02 -0.36045056688E+03  0.36600685227E+03  0.00000000000E+00 0.  1.
<mgrwt>
<rscale>  1 0.30000000E+03</rscale>
<asrwt>0</asrwt>
<pdfrwt beam="1">  1        3 0.15882198E-01 0.30000000E+03</pdfrwt>
<pdfrwt beam="2">0</pdfrwt>
<totfact> 0.15068318E+02</totfact>
</mgrwt>
</event>
<event>
 6    1  0.3125838E-002  0.3000000E+03  0.7818608E-02  0.1093470E+00
          1   -1    0    0  502    0  0.00000000000E+00  0.00000000000E+00  0.15823175291E+01  0.15823175291E+01  0.00000000000E+00 0.  1.
         13   -1    0    0    0    0 -0.00000000000E+00 -0.00000000000E+00 -0.10000000000E+04  0.10000000000E+04  0.00000000000E+00 0.  1.
    9000005    2    1    2  501    0  0.31407003140E+02  0.24123033471E+02 -0.46207798403E+03  0.46378254744E+03  0.31412401317E+01 0.  0.
         13    1    3    3    0    0  0.18662965793E+02  0.14238203055E+02 -0.25562939775E+03  0.25670493122E+03  0.00000000000E+00 0.  1.
          3    1    3    3  501    0  0.12744037347E+02  0.98848304161E+01 -0.20644858628E+03  0.20707761622E+03  0.00000000000E+00 0.  1.
         21    1    1    2  502  501 -0.31407003140E+02 -0.24123033471E+02 -0.53633969844E+03  0.53779977009E+03  0.00000000000E+00 0.  1.
<mgrwt>
<rscale>  1 0.30000000E+03</rscale>
<asrwt>0</asrwt>
<pdfrwt beam="1">  1        1 0.57538941E-02 0.30000000E+03</pdfrwt>
<pdfrwt beam="2">0</pdfrwt>
<totfact> 0.16330628E+03</totfact>
</mgrwt>
</event>
<event>
 6    1  0.3125838E-002  0.3000000E+03  0.7818608E-02  0.1093470E+00
          1   -1    0    0  502    0  0.00000000000E+00  0.00000000000E+00  0.13524063201E+01  0.13524063201E+01  0.00000000000E+00 0.  1.
         13   -1    0    0    0    0 -0.00000000000E+00 -0.00000000000E+00 -0.10000000000E+04  0.10000000000E+04  0.00000000000E+00 0.  1.
    9000005    2    1    2  501    0  0.23461347952E+02  0.22071084866E+02 -0.73983427756E+03  0.74054232171E+03  0.32564323532E+01 0.  0.
         13    1    3    3    0    0  0.14873878624E+02  0.14104261672E+02 -0.50557165860E+03  0.50598702003E+03  0.00000000000E+00 0.  1.
          1    1    3    3  501    0  0.85874693288E+01  0.79668231941E+01 -0.23426261896E+03  0.23455530167E+03  0.00000000000E+00 0.  1.
         21    1    1    2  502  501 -0.23461347952E+02 -0.22071084866E+02 -0.25881331612E+03  0.26081008461E+03  0.00000000000E+00 0.  1.
<mgrwt>
<rscale>  1 0.30000000E+03</rscale>
<asrwt>0</asrwt>
<pdfrwt beam="1">  1        1 0.49178515E-02 0.30000000E+03</pdfrwt>
<pdfrwt beam="2">0</pdfrwt>
<totfact> 0.20360254E+03</totfact>
</mgrwt>
</event>
<event>
 6    1  0.3125838E-002  0.3000000E+03  0.7818608E-02  0.1093470E+00
          1   -1    0    0  502    0  0.00000000000E+00  0.00000000000E+00  0.27324914933E+01  0.27324914933E+01  0.00000000000E+00 0.  1.
         13   -1    0    0    0    0 -0.00000000000E+00 -0.00000000000E+00 -0.10000000000E+04  0.10000000000E+04  0.00000000000E+00 0.  1.
    9000005    2    1    2  501    0  0.33273337180E+02  0.64149267017E+01 -0.88015933255E+03  0.88082026435E+03  0.39523612299E+01 0.  0.
         13    1    3    3    0    0  0.27864392926E+02  0.66727790750E+01 -0.75658684783E+03  0.75712918890E+03  0.00000000000E+00 0.  1.
          3    1    3    3  501    0  0.54089442539E+01 -0.25785237324E+00 -0.12357248472E+03  0.12369107545E+03  0.00000000000E+00 0.  1.
         21    1    1    2  502  501 -0.33273337180E+02 -0.64149267017E+01 -0.11710817596E+03  0.12191222714E+03  0.00000000000E+00 0.  1.
<mgrwt>
<rscale>  1 0.30000000E+03</rscale>
<asrwt>0</asrwt>
<pdfrwt beam="1">  1        1 0.99363537E-02 0.30000000E+03</pdfrwt>
<pdfrwt beam="2">0</pdfrwt>
<totfact> 0.76242808E+02</totfact>
</mgrwt>
</event>
<event>
 6    1  0.3125838E-002  0.3000000E+03  0.7818608E-02  0.1093470E+00
          1   -1    0    0  502    0  0.00000000000E+00  0.00000000000E+00  0.10874765871E+01  0.10874765871E+01  0.00000000000E+00 0.  1.
         13   -1    0    0    0    0 -0.00000000000E+00 -0.00000000000E+00 -0.10000000000E+04  0.10000000000E+04  0.00000000000E+00 0.  1.
    9000005    2    1    2  501    0 -0.23686748424E+01 -0.31883869874E+02 -0.61840769113E+03  0.61924180204E+03  0.31851480332E+01 0.  0.
         13    1    3    3    0    0 -0.84839252739E+00 -0.74965947151E+01 -0.17292465994E+03  0.17308915829E+03  0.00000000000E+00 0.  1.
          3    1    3    3  501    0 -0.15202823150E+01 -0.24387275159E+02 -0.44548303119E+03  0.44615264375E+03  0.00000000000E+00 0.  1.
         21    1    1    2  502  501  0.23686748424E+01  0.31883869874E+02 -0.38050483229E+03  0.38184567455E+03  0.00000000000E+00 0.  1.
<mgrwt>
<rscale>  1 0.30000000E+03</rscale>
<asrwt>0</asrwt>
<pdfrwt beam="1">  1        1 0.39544687E-02 0.30000000E+03</pdfrwt>
<pdfrwt beam="2">0</pdfrwt>
<totfact> 0.27671970E+03</totfact>
</mgrwt>
</event>
<event>
 6    1  0.3125838E-002  0.3000000E+03  0.7818608E-02  0.1093470E+00
          3   -1    0    0  502    0  0.00000000000E+00  0.00000000000E+00  0.21424717769E+01  0.21424717769E+01  0.00000000000E+00 0.  1.
         13   -1    0    0    0    0 -0.00000000000E+00 -0.00000000000E+00 -0.10000000000E+04  0.10000000000E+04  0.00000000000E+00 0.  1.
    9000005    2    1    2  501    0 -0.17296989906E+02 -0.36526525733E+02 -0.74290205101E+03  0.74400361709E+03  0.21335170816E+01 0.  0.
         13    1    3    3    0    0 -0.23917847239E+01 -0.41066098277E+01 -0.98056418358E+02  0.98171513483E+02  0.00000000000E+00 0.  1.
          3    1    3    3  501    0 -0.14905205182E+02 -0.32419915905E+02 -0.64484563266E+03  0.64583210360E+03  0.00000000000E+00 0.  1.
         21    1    1    2  502  501  0.17296989906E+02  0.36526525733E+02 -0.25495547721E+03  0.25813885469E+03  0.00000000000E+00 0.  1.
<mgrwt>
<rscale>  1 0.30000000E+03</rscale>
<asrwt>0</asrwt>
<pdfrwt beam="1">  1        3 0.77908229E-02 0.30000000E+03</pdfrwt>
<pdfrwt beam="2">0</pdfrwt>
<totfact> 0.49435937E+02</totfact>
</mgrwt>
</event>
<event>
 6    1  0.3125838E-002  0.3000000E+03  0.7818608E-02  0.1093470E+00
          1   -1    0    0  502    0  0.00000000000E+00  0.00000000000E+00  0.12915227550E+02  0.12915227550E+02  0.00000000000E+00 0.  1.
         13   -1    0    0    0    0 -0.00000000000E+00 -0.00000000000E+00 -0.10000000000E+04  0.10000000000E+04  0.00000000000E+00 0.  1.
    9000005    2    1    2  501    0  0.33048049538E+02  0.33419186590E+01 -0.97787636804E+03  0.97844586854E+03  0.32839751325E+01 0.  0.
         13    1    3    3    0    0  0.27915570670E+02  0.18500232899E+01 -0.79892037244E+03  0.79941007197E+03  0.00000000000E+00 0.  1.
          3    1    3    3  501    0  0.51324788682E+01  0.14918953692E+01 -0.17895599561E+03  0.17903579657E+03  0.00000000000E+00 0.  1.
         21    1    1    2  502  501 -0.33048049538E+02 -0.33419186590E+01 -0.92084044047E+01  0.34469359006E+02  0.00000000000E+00 0.  1.
<mgrwt>
<rscale>  1 0.30000000E+03</rscale>
<asrwt>0</asrwt>
<pdfrwt beam="1">  1        1 0.46964563E-01 0.30000000E+03</pdfrwt>
<pdfrwt beam="2">0</pdfrwt>
<totfact> 0.95806511E+01</totfact>
</mgrwt>
</event>
<event>
 6    1  0.3125838E-002  0.3000000E+03  0.7818608E-02  0.1093470E+00
          1   -1    0    0  502    0  0.00000000000E+00  0.00000000000E+00  0.81439168128E+01  0.81439168128E+01  0.00000000000E+00 0.  1.
         13   -1    0    0    0    0 -0.00000000000E+00 -0.00000000000E+00 -0.10000000000E+04  0.10000000000E+04  0.00000000000E+00 0.  1.
    9000005    2    1    2  501    0  0.22194177067E+02 -0.22317077468E+02 -0.96833488739E+03  0.96885167720E+03  0.32380282282E+01 0.  0.
         13    1    3    3    0    0  0.51809372125E+01 -0.34905409237E+01 -0.20480159239E+03  0.20489684778E+03  0.00000000000E+00 0.  1.
          3    1    3    3  501    0  0.17013239854E+02 -0.18826536544E+02 -0.76353329500E+03  0.76395482941E+03  0.00000000000E+00 0.  1.
         21    1    1    2  502  501 -0.22194177067E+02  0.22317077468E+02 -0.23521195797E+02  0.39292239617E+02  0.00000000000E+00 0.  1.
<mgrwt>
<rscale>  1 0.30000000E+03</rscale>
<asrwt>0</asrwt>
<pdfrwt beam="1">  1        1 0.29614305E-01 0.30000000E+03</pdfrwt>
<pdfrwt beam="2">0</pdfrwt>
<totfact> 0.17516464E+02</totfact>
</mgrwt>
</event>
<event>
 6    1  0.3125838E-002  0.3000000E+03  0.7818608E-02  0.1093470E+00
          3   -1    0    0  502    0  0.00000000000E+00  0.00000000000E+00  0.12651282394E+01  0.12651282394E+01  0.00000000000E+00 0.  1.
         13   -1    0    0    0    0 -0.00000000000E+00 -0.00000000000E+00 -0.10000000000E+04  0.10000000000E+04  0.00000000000E+00 0.  1.
    9000005    2    1    2  501    0  0.15418988626E+02 -0.31621188967E+02 -0.43381610302E+03  0.43525200112E+03  0.32013174064E+01 0.  0.
         13    1    3    3    0    0  0.10292257013E+02 -0.18342936681E+02 -0.27090328058E+03  0.27171857005E+03  0.00000000000E+00 0.  1.
          3    1    3    3  501    0  0.51267316131E+01 -0.13278252285E+02 -0.16291282245E+03  0.16353343107E+03  0.00000000000E+00 0.  1.
         21    1    1    2  502  501 -0.15418988626E+02  0.31621188967E+02 -0.56491876874E+03  0.56601312712E+03  0.00000000000E+00 0.  1.
<mgrwt>
<rscale>  1 0.30000000E+03</rscale>
<asrwt>0</asrwt>
<pdfrwt beam="1">  1        3 0.46004760E-02 0.30000000E+03</pdfrwt>
<pdfrwt beam="2">0</pdfrwt>
<totfact> 0.11250849E+03</totfact>
</mgrwt>
</event>
<event>
 6    1  0.3125838E-002  0.3000000E+03  0.7818608E-02  0.1093470E+00
          1   -1    0    0  502    0  0.00000000000E+00  0.00000000000E+00  0.11760186074E+01  0.11760186074E+01  0.00000000000E+00 0.  1.
         13   -1    0    0    0    0 -0.00000000000E+00 -0.00000000000E+00 -0.10000000000E+04  0.10000000000E+04  0.00000000000E+00 0.  1.
    9000005    2    1    2  501    0 -0.31446797068E+02  0.82485877716E+01 -0.65630082681E+03  0.65711344920E+03  0.32201854258E+01 0.  0.
         13    1    3    3    0    0 -0.19005415370E+02  0.33760321419E+01 -0.38201830782E+03  0.38250567435E+03  0.00000000000E+00 0.  1.
          3    1    3    3  501    0 -0.12441381698E+02  0.48725556297E+01 -0.27428251900E+03  0.27460777484E+03  0.00000000000E+00 0.  1.
         21    1    1    2  502  501  0.31446797068E+02 -0.82485877716E+01 -0.34252315458E+03  0.34406256941E+03  0.00000000000E+00 0.  1.
<mgrwt>
<rscale>  1 0.30000000E+03</rscale>
<asrwt>0</asrwt>
<pdfrwt beam="1">  1        1 0.42764403E-02 0.30000000E+03</pdfrwt>
<pdfrwt beam="2">0</pdfrwt>
<totfact> 0.24784341E+03</totfact>
</mgrwt>
</event>
<event>
 6    1  0.3125838E-002  0.3000000E+03  0.7818608E-02  0.1093470E+00
          1   -1    0    0  502    0  0.00000000000E+00  0.00000000000E+00  0.34121554647E+01  0.34121554647E+01  0.00000000000E+00 0.  1.
         13   -1    0    0    0    0 -0.00000000000E+00 -0.00000000000E+00 -0.10000000000E+04  0.10000000000E+04  0.00000000000E+00 0.  1.
    9000005    2    1    2  501    0  0.21107446184E+02  0.39869218414E+02 -0.81673762966E+03  0.81799053145E+03  0.36159340849E+01 0.  0.
         13    1    3    3    0    0  0.14669516601E+02  0.24248297462E+02 -0.49964537281E+03  0.50044847209E+03  0.00000000000E+00 0.  1.
          3    1    3    3  501    0  0.64379295822E+01  0.15620920951E+02 -0.31709225684E+03  0.31754205935E+03  0.00000000000E+00 0.  1.
         21    1    1    2  502  501 -0.21107446184E+02 -0.39869218414E+02 -0.17985021488E+03  0.18542162402E+03  0.00000000000E+00 0.  1.
<mgrwt>
<rscale>  1 0.30000000E+03</rscale>
<asrwt>0</asrwt>
<pdfrwt beam="1">  1        1 0.12407864E-01 0.30000000E+03</pdfrwt>
<pdfrwt beam="2">0</pdfrwt>
<totfact> 0.56184305E+02</totfact>
</mgrwt>
</event>
<event>
 6    1  0.3125838E-002  0.3000000E+03  0.7818608E-02  0.1093470E+00
          3   -1    0    0  502    0  0.00000000000E+00  0.00000000000E+00  0.13681235309E+01  0.13681235309E+01  0.00000000000E+00 0.  1.
         13   -1    0    0    0    0 -0.00000000000E+00 -0.00000000000E+00 -0.10000000000E+04  0.10000000000E+04  0.00000000000E+00 0.  1.
    9000005    2    1    2  501    0  0.37342040092E+01 -0.31626841056E+02 -0.75303827144E+03  0.75371833010E+03  0.32375178676E+01 0.  0.
         13    1    3    3    0    0  0.42155894031E+01 -0.26707840250E+02 -0.64791713126E+03  0.64848106287E+03  0.00000000000E+00 0.  1.
          3    1    3    3  501    0 -0.48138539389E+00 -0.49190008063E+01 -0.10512114018E+03  0.10523726723E+03  0.00000000000E+00 0.  1.
         21    1    1    2  502  501 -0.37342040092E+01  0.31626841056E+02 -0.24559360503E+03  0.24764979343E+03  0.00000000000E+00 0.  1.
<mgrwt>
<rscale>  1 0.30000000E+03</rscale>
<asrwt>0</asrwt>
<pdfrwt beam="1">  1        3 0.49750051E-02 0.30000000E+03</pdfrwt>
<pdfrwt beam="2">0</pdfrwt>
<totfact> 0.99707834E+02</totfact>
</mgrwt>
</event>
<event>
 6    1  0.3125838E-002  0.3000000E+03  0.7818608E-02  0.1093470E+00
          3   -1    0    0  502    0  0.00000000000E+00  0.00000000000E+00  0.42273244005E+01  0.42273244005E+01  0.00000000000E+00 0.  1.
         13   -1    0    0    0    0 -0.00000000000E+00 -0.00000000000E+00 -0.10000000000E+04  0.10000000000E+04  0.00000000000E+00 0.  1.
    9000005    2    1    2  501    0  0.27616975742E+02 -0.37086292247E+02 -0.85069789693E+03  0.85196182658E+03  0.37351947018E+01 0.  0.
         13    1    3    3    0    0  0.92932313476E+01 -0.11201997515E+02 -0.29704937270E+03  0.29740574763E+03  0.00000000000E+00 0.  1.
          3    1    3    3  501    0  0.18323744395E+02 -0.25884294733E+02 -0.55364852423E+03  0.55455607895E+03  0.00000000000E+00 0.  1.
         21    1    1    2  502  501 -0.27616975742E+02  0.37086292247E+02 -0.14507477867E+03  0.15226549782E+03  0.00000000000E+00 0.  1.
<mgrwt>
<rscale>  1 0.30000000E+03</rscale>
<asrwt>0</asrwt>
<pdfrwt beam="1">  1        3 0.15372121E-01 0.30000000E+03</pdfrwt>
<pdfrwt beam="2">0</pdfrwt>
<totfact> 0.15951073E+02</totfact>
</mgrwt>
</event>
<event>
 6    1  0.3125838E-002  0.3000000E+03  0.7818608E-02  0.1093470E+00
          1   -1    0    0  502    0  0.00000000000E+00  0.00000000000E+00  0.17652652677E+01  0.17652652677E+01  0.00000000000E+00 0.  1.
         13   -1    0    0    0    0 -0.00000000000E+00 -0.00000000000E+00 -0.10000000000E+04  0.10000000000E+04  0.00000000000E+00 0.  1.
    9000005    2    1    2  501    0 -0.30489509028E+02 -0.20805048560E+02 -0.26220357661E+03  0.26480914314E+03  0.32720788664E+01 0.  0.
         13    1    3    3    0    0 -0.15059951884E+02 -0.11247501462E+02 -0.14357040347E+03  0.14479561179E+03  0.00000000000E+00 0.  1.
          3    1    3    3  501    0 -0.15429557145E+02 -0.95575470978E+01 -0.11863317313E+03  0.12001353135E+03  0.00000000000E+00 0.  1.
         21    1    1    2  502  501  0.30489509028E+02  0.20805048560E+02 -0.73603115813E+03  0.73695612213E+03  0.00000000000E+00 0.  1.
<mgrwt>
<rscale>  1 0.30000000E+03</rscale>
<asrwt>0</asrwt>
<pdfrwt beam="1">  1        1 0.64191600E-02 0.30000000E+03</pdfrwt>
<pdfrwt beam="2">0</pdfrwt>
<totfact> 0.14007552E+03</totfact>
</mgrwt>
</event>
<event>
 6    1  0.3125838E-002  0.3000000E+03  0.7818608E-02  0.1093470E+00
          1   -1    0    0  502    0  0.00000000000E+00  0.00000000000E+00  0.15311195410E+01  0.15311195410E+01  0.00000000000E+00 0.  1.
         13   -1    0    0    0    0 -0.00000000000E+00 -0.00000000000E+00 -0.10000000000E+04  0.10000000000E+04  0.00000000000E+00 0.  1.
    9000005    2    1    2  501    0  0.38800061897E+02  0.37575601280E+01 -0.52190731671E+03  0.52337791386E+03  0.41987401100E+01 0.  0.
         13    1    3    3    0    0  0.11965279760E+02  0.23898407024E+01 -0.14348084247E+03  0.14399872018E+03  0.00000000000E+00 0.  1.
          3    1    3    3  501    0  0.26834782137E+02  0.13677194256E+01 -0.37842647424E+03  0.37937919368E+03  0.00000000000E+00 0.  1.
         21    1    1    2  502  501 -0.38800061897E+02 -0.37575601280E+01 -0.47656156375E+03  0.47815320569E+03  0.00000000000E+00 0.  1.
<mgrwt>
<rscale>  1 0.30000000E+03</rscale>
<asrwt>0</asrwt>
<pdfrwt beam="1">  1        1 0.55677192E-02 0.30000000E+03</pdfrwt>
<pdfrwt beam="2">0</pdfrwt>
<totfact> 0.17102381E+03</totfact>
</mgrwt>
</event>
<event>
 6    1  0.3125838E-002  0.3000000E+03  0.7818608E-02  0.1093470E+00
          1   -1    0    0  502    0  0.00000000000E+00  0.00000000000E+00  0.58489192077E+01  0.58489192077E+01  0.00000000000E+00 0.  1.
         13   -1    0    0    0    0 -0.00000000000E+00 -0.00000000000E+00 -0.10000000000E+04  0.10000000000E+04  0.00000000000E+00 0.  1.
    9000005    2    1    2  501    0  0.15928805849E+02 -0.26718681575E+02 -0.95649748298E+03  0.95700827804E+03  0.31296168649E+01 0.  0.
         13    1    3    3    0    0  0.90507826202E+01 -0.16898658624E+02 -0.62578622143E+03  0.62607976829E+03  0.00000000000E+00 0.  1.
          1    1    3    3  501    0  0.68780232292E+01 -0.98200229516E+01 -0.33071126155E+03  0.33092850975E+03  0.00000000000E+00 0.  1.
         21    1    1    2  502  501 -0.15928805849E+02  0.26718681575E+02 -0.37653597817E+02  0.48840641165E+02  0.00000000000E+00 0.  1.
<mgrwt>
<rscale>  1 0.30000000E+03</rscale>
<asrwt>0</asrwt>
<pdfrwt beam="1">  1        1 0.21268842E-01 0.30000000E+03</pdfrwt>
<pdfrwt beam="2">0</pdfrwt>
<totfact> 0.27122108E+02</totfact>
</mgrwt>
</event>
<event>
 6    1  0.3125838E-002  0.3000000E+03  0.7818608E-02  0.1093470E+00
          3   -1    0    0  502    0  0.00000000000E+00  0.00000000000E+00  0.31714298558E+01  0.31714298558E+01  0.00000000000E+00 0.  1.
         13   -1    0    0    0    0 -0.00000000000E+00 -0.00000000000E+00 -0.10000000000E+04  0.10000000000E+04  0.00000000000E+00 0.  1.
    9000005    2    1    2  501    0 -0.49808231859E+02  0.20118145278E+02 -0.34996984732E+03  0.35408606796E+03  0.35284219806E+01 0.  0.
         13    1    3    3    0    0 -0.12894171037E+02  0.64366655727E+01 -0.86909957899E+02  0.88096714425E+02  0.00000000000E+00 0.  1.
          1    1    3    3  501    0 -0.36914060822E+02  0.13681479705E+02 -0.26305988942E+03  0.26598935353E+03  0.00000000000E+00 0.  1.
         21    1    1    2  502  501  0.49808231859E+02 -0.20118145278E+02 -0.64685872283E+03  0.64908536190E+03  0.00000000000E+00 0.  1.
<mgrwt>
<rscale>  1 0.30000000E+03</rscale>
<asrwt>0</asrwt>
<pdfrwt beam="1">  1        3 0.11532497E-01 0.30000000E+03</pdfrwt>
<pdfrwt beam="2">0</pdfrwt>
<totfact> 0.26046489E+02</totfact>
</mgrwt>
</event>
<event>
 6    1  0.3125838E-002  0.3000000E+03  0.7818608E-02  0.1093470E+00
          3   -1    0    0  502    0  0.00000000000E+00  0.00000000000E+00  0.30022441277E+01  0.30022441277E+01  0.00000000000E+00 0.  1.
         13   -1    0    0    0    0 -0.00000000000E+00 -0.00000000000E+00 -0.10000000000E+04  0.10000000000E+04  0.00000000000E+00 0.  1.
    9000005    2    1    2  501    0 -0.13829760342E+02 -0.44691350400E+02 -0.23880754345E+03  0.24337011126E+03  0.33747851183E+01 0.  0.
         13    1    3    3    0    0 -0.20229774816E+01 -0.11463390489E+02 -0.59133740639E+02  0.60268574244E+02  0.00000000000E+00 0.  1.
          1    1    3    3  501    0 -0.11806782861E+02 -0.33227959910E+02 -0.17967380281E+03  0.18310153702E+03  0.00000000000E+00 0.  1.
         21    1    1    2  502  501  0.13829760342E+02  0.44691350400E+02 -0.75819021242E+03  0.75963213287E+03  0.00000000000E+00 0.  1.
<mgrwt>
<rscale>  1 0.30000000E+03</rscale>
<asrwt>0</asrwt>
<pdfrwt beam="1">  1        3 0.10917274E-01 0.30000000E+03</pdfrwt>
<pdfrwt beam="2">0</pdfrwt>
<totfact> 0.28550860E+02</totfact>
</mgrwt>
</event>
<event>
 6    1  0.3125838E-002  0.3000000E+03  0.7818608E-02  0.1093470E+00
          1   -1    0    0  502    0  0.00000000000E+00  0.00000000000E+00  0.14233789859E+01  0.14233789859E+01  0.00000000000E+00 0.  1.
         13   -1    0    0    0    0 -0.00000000000E+00 -0.00000000000E+00 -0.10000000000E+04  0.10000000000E+04  0.00000000000E+00 0.  1.
    9000005    2    1    2  501    0  0.30584930394E+02 -0.66280649338E+01 -0.77817850319E+03  0.77881453022E+03  0.33046074490E+01 0.  0.
         13    1    3    3    0    0  0.27749014944E+02 -0.68225392531E+01 -0.71948209617E+03  0.72004933275E+03  0.00000000000E+00 0.  1.
          3    1    3    3  501    0  0.28359154497E+01  0.19447431925E+00 -0.58696407020E+02  0.58765197470E+02  0.00000000000E+00 0.  1.
         21    1    1    2  502  501 -0.30584930394E+02  0.66280649338E+01 -0.22039811782E+03  0.22260884877E+03  0.00000000000E+00 0.  1.
<mgrwt>
<rscale>  1 0.30000000E+03</rscale>
<asrwt>0</asrwt>
<pdfrwt beam="1">  1        1 0.51759345E-02 0.30000000E+03</pdfrwt>
<pdfrwt beam="2">0</pdfrwt>
<totfact> 0.18948028E+03</totfact>
</mgrwt>
</event>
<event>
 6    1  0.3125838E-002  0.3000000E+03  0.7818608E-02  0.1093470E+00
          3   -1    0    0  502    0  0.00000000000E+00  0.00000000000E+00  0.14014319594E+01  0.14014319594E+01  0.00000000000E+00 0.  1.
         13   -1    0    0    0    0 -0.00000000000E+00 -0.00000000000E+00 -0.10000000000E+04  0.10000000000E+04  0.00000000000E+00 0.  1.
    9000005    2    1    2  501    0  0.65663812861E+01 -0.30590050934E+02 -0.77375638652E+03  0.77439289651E+03  0.25581034989E+01 0.  0.
         13    1    3    3    0    0  0.63118935118E+01 -0.24892407374E+02 -0.62637473848E+03  0.62690093711E+03  0.00000000000E+00 0.  1.
          1    1    3    3  501    0  0.25448777432E+00 -0.56976435605E+01 -0.14738164804E+03  0.14749195939E+03  0.00000000000E+00 0.  1.
         21    1    1    2  502  501 -0.65663812861E+01  0.30590050934E+02 -0.22484218152E+03  0.22700853545E+03  0.00000000000E+00 0.  1.
<mgrwt>
<rscale>  1 0.30000000E+03</rscale>
<asrwt>0</asrwt>
<pdfrwt beam="1">  1        3 0.50961270E-02 0.30000000E+03</pdfrwt>
<pdfrwt beam="2">0</pdfrwt>
<totfact> 0.96072633E+02</totfact>
</mgrwt>
</event>
<event>
 6    1  0.3125838E-002  0.3000000E+03  0.7818608E-02  0.1093470E+00
          1   -1    0    0  502    0  0.00000000000E+00  0.00000000000E+00  0.16763357102E+01  0.16763357102E+01  0.00000000000E+00 0.  1.
         13   -1    0    0    0    0 -0.00000000000E+00 -0.00000000000E+00 -0.10000000000E+04  0.10000000000E+04  0.00000000000E+00 0.  1.
    9000005    2    1    2  501    0  0.24877268699E+01 -0.30677561372E+02 -0.82901384236E+03  0.82959171304E+03  0.33403544331E+01 0.  0.
         13    1    3    3    0    0  0.21617254434E+01 -0.26422496138E+02 -0.67945619230E+03  0.67997318963E+03  0.00000000000E+00 0.  1.
          3    1    3    3  501    0  0.32600142649E+00 -0.42550652345E+01 -0.14955765006E+03  0.14961852342E+03  0.00000000000E+00 0.  1.
         21    1    1    2  502  501 -0.24877268699E+01  0.30677561372E+02 -0.16930982193E+03  0.17208462267E+03  0.00000000000E+00 0.  1.
<mgrwt>
<rscale>  1 0.30000000E+03</rscale>
<asrwt>0</asrwt>
<pdfrwt beam="1">  1        1 0.60957791E-02 0.30000000E+03</pdfrwt>
<pdfrwt beam="2">0</pdfrwt>
<totfact> 0.15060166E+03</totfact>
</mgrwt>
</event>
<event>
 6    1  0.3125838E-002  0.3000000E+03  0.7818608E-02  0.1093470E+00
          3   -1    0    0  502    0  0.00000000000E+00  0.00000000000E+00  0.16125611401E+01  0.16125611401E+01  0.00000000000E+00 0.  1.
         13   -1    0    0    0    0 -0.00000000000E+00 -0.00000000000E+00 -0.10000000000E+04  0.10000000000E+04  0.00000000000E+00 0.  1.
    9000005    2    1    2  501    0  0.34889271967E+02 -0.89280382648E+00 -0.74609133249E+03  0.74691394771E+03  0.31796950056E+01 0.  0.
         13    1    3    3    0    0  0.32142177376E+02 -0.18441641462E+00 -0.67189008743E+03  0.67265848925E+03  0.00000000000E+00 0.  1.
          1    1    3    3  501    0  0.27470945908E+01 -0.70838741186E+00 -0.74201245060E+02  0.74255458452E+02  0.00000000000E+00 0.  1.
         21    1    1    2  502  501 -0.34889271967E+02  0.89280382648E+00 -0.25229610637E+03  0.25469861343E+03  0.00000000000E+00 0.  1.
<mgrwt>
<rscale>  1 0.30000000E+03</rscale>
<asrwt>0</asrwt>
<pdfrwt beam="1">  1        3 0.58638711E-02 0.30000000E+03</pdfrwt>
<pdfrwt beam="2">0</pdfrwt>
<totfact> 0.77287124E+02</totfact>
</mgrwt>
</event>
<event>
 6    1  0.3125838E-002  0.3000000E+03  0.7818608E-02  0.1093470E+00
          1   -1    0    0  502    0  0.00000000000E+00  0.00000000000E+00  0.53128355533E+01  0.53128355533E+01  0.00000000000E+00 0.  1.
         13   -1    0    0    0    0 -0.00000000000E+00 -0.00000000000E+00 -0.10000000000E+04  0.10000000000E+04  0.00000000000E+00 0.  1.
    9000005    2    1    2  501    0 -0.55668348655E+02 -0.39595291543E+02 -0.32377655805E+03  0.33093327334E+03  0.43381686157E+01 0.  0.
         13    1    3    3    0    0 -0.40926725630E+02 -0.26787550913E+02 -0.22894559054E+03  0.23411247976E+03  0.00000000000E+00 0.  1.
          1    1    3    3  501    0 -0.14741623025E+02 -0.12807740630E+02 -0.94830967510E+02  0.96820793574E+02  0.00000000000E+00 0.  1.
         21    1    1    2  502  501  0.55668348655E+02  0.39595291543E+02 -0.67091060640E+03  0.67437956222E+03  0.00000000000E+00 0.  1.
<mgrwt>
<rscale>  1 0.30000000E+03</rscale>
<asrwt>0</asrwt>
<pdfrwt beam="1">  1        1 0.19319443E-01 0.30000000E+03</pdfrwt>
<pdfrwt beam="2">0</pdfrwt>
<totfact> 0.30838026E+02</totfact>
</mgrwt>
</event>
<event>
 6    1  0.3125838E-002  0.3000000E+03  0.7818608E-02  0.1093470E+00
          3   -1    0    0  502    0  0.00000000000E+00  0.00000000000E+00  0.23089182796E+01  0.23089182796E+01  0.00000000000E+00 0.  1.
         13   -1    0    0    0    0 -0.00000000000E+00 -0.00000000000E+00 -0.10000000000E+04  0.10000000000E+04  0.00000000000E+00 0.  1.
    9000005    2    1    2  501    0  0.27759965010E+02 -0.17007567960E+02 -0.86723851563E+03  0.86785541321E+03  0.32407136598E+01 0.  0.
         13    1    3    3    0    0  0.21318429251E+02 -0.11686593648E+02 -0.66572120689E+03  0.66616497746E+03  0.00000000000E+00 0.  1.
          3    1    3    3  501    0  0.64415357587E+01 -0.53209743115E+01 -0.20151730874E+03  0.20169043575E+03  0.00000000000E+00 0.  1.
         21    1    1    2  502  501 -0.27759965010E+02  0.17007567960E+02 -0.13045256609E+03  0.13445350507E+03  0.00000000000E+00 0.  1.
<mgrwt>
<rscale>  1 0.30000000E+03</rscale>
<asrwt>0</asrwt>
<pdfrwt beam="1">  1        3 0.83960842E-02 0.30000000E+03</pdfrwt>
<pdfrwt beam="2">0</pdfrwt>
<totfact> 0.43865114E+02</totfact>
</mgrwt>
</event>
<event>
 6    1  0.3125838E-002  0.3000000E+03  0.7818608E-02  0.1093470E+00
          3   -1    0    0  502    0  0.00000000000E+00  0.00000000000E+00  0.12647655412E+01  0.12647655412E+01  0.00000000000E+00 0.  1.
         13   -1    0    0    0    0 -0.00000000000E+00 -0.00000000000E+00 -0.10000000000E+04  0.10000000000E+04  0.00000000000E+00 0.  1.
    9000005    2    1    2  501    0 -0.11095743450E+02  0.30431494345E+02 -0.70412902412E+03  0.70488323687E+03  0.36747289576E+01 0.  0.
         13    1    3    3    0    0 -0.10814445366E+02  0.26338502702E+02 -0.60605696595E+03  0.60672540323E+03  0.00000000000E+00 0.  1.
          1    1    3    3  501    0 -0.28129808466E+00  0.40929916427E+01 -0.98072058174E+02  0.98157833634E+02  0.00000000000E+00 0.  1.
         21    1    1    2  502  501  0.11095743450E+02 -0.30431494345E+02 -0.29460621033E+03  0.29638152867E+03  0.00000000000E+00 0.  1.
<mgrwt>
<rscale>  1 0.30000000E+03</rscale>
<asrwt>0</asrwt>
<pdfrwt beam="1">  1        3 0.45991571E-02 0.30000000E+03</pdfrwt>
<pdfrwt beam="2">0</pdfrwt>
<totfact> 0.11255830E+03</totfact>
</mgrwt>
</event>
<event>
 6    1  0.3125838E-002  0.3000000E+03  0.7818608E-02  0.1093470E+00
          1   -1    0    0  502    0  0.00000000000E+00  0.00000000000E+00  0.29801565329E+01  0.29801565329E+01  0.00000000000E+00 0.  1.
         13   -1    0    0    0    0 -0.00000000000E+00 -0.00000000000E+00 -0.10000000000E+04  0.10000000000E+04  0.00000000000E+00 0.  1.
    9000005    2    1    2  501    0  0.10121922685E+02 -0.28389138284E+02 -0.91657115812E+03  0.91707097503E+03  0.28440931303E+01 0.  0.
         13    1    3    3    0    0  0.18000195242E+01 -0.73931927266E+01 -0.26099881704E+03  0.26110971232E+03  0.00000000000E+00 0.  1.
          1    1    3    3  501    0  0.83219031612E+01 -0.20995945557E+02 -0.65557234108E+03  0.65596126272E+03  0.00000000000E+00 0.  1.
         21    1    1    2  502  501 -0.10121922685E+02  0.28389138284E+02 -0.80448685349E+02  0.85909181498E+02  0.00000000000E+00 0.  1.
<mgrwt>
<rscale>  1 0.30000000E+03</rscale>
<asrwt>0</asrwt>
<pdfrwt beam="1">  1        1 0.10836956E-01 0.30000000E+03</pdfrwt>
<pdfrwt beam="2">0</pdfrwt>
<totfact> 0.67651973E+02</totfact>
</mgrwt>
</event>
<event>
 6    1  0.3125838E-002  0.3000000E+03  0.7818608E-02  0.1093470E+00
          1   -1    0    0  502    0  0.00000000000E+00  0.00000000000E+00  0.76990694575E+01  0.76990694575E+01  0.00000000000E+00 0.  1.
         13   -1    0    0    0    0 -0.00000000000E+00 -0.00000000000E+00 -0.10000000000E+04  0.10000000000E+04  0.00000000000E+00 0.  1.
    9000005    2    1    2  501    0 -0.35826415421E+02 -0.53845067213E+01 -0.95502013920E+03  0.95571462604E+03  0.38019979795E+01 0.  0.
         13    1    3    3    0    0 -0.80008976084E+01 -0.25965555534E+01 -0.20018733065E+03  0.20036397834E+03  0.00000000000E+00 0.  1.
          3    1    3    3  501    0 -0.27825517812E+02 -0.27879511679E+01 -0.75483280855E+03  0.75535064770E+03  0.00000000000E+00 0.  1.
         21    1    1    2  502  501  0.35826415421E+02  0.53845067213E+01 -0.37280791339E+02  0.51984443417E+02  0.00000000000E+00 0.  1.
<mgrwt>
<rscale>  1 0.30000000E+03</rscale>
<asrwt>0</asrwt>
<pdfrwt beam="1">  1        1 0.27996675E-01 0.30000000E+03</pdfrwt>
<pdfrwt beam="2">0</pdfrwt>
<totfact> 0.18857605E+02</totfact>
</mgrwt>
</event>
<event>
 6    1  0.3125838E-002  0.3000000E+03  0.7818608E-02  0.1093470E+00
          1   -1    0    0  502    0  0.00000000000E+00  0.00000000000E+00  0.58951570505E+02  0.58951570505E+02  0.00000000000E+00 0.  1.
         13   -1    0    0    0    0 -0.00000000000E+00 -0.00000000000E+00 -0.10000000000E+04  0.10000000000E+04  0.00000000000E+00 0.  1.
    9000005    2    1    2  501    0 -0.20600781783E+03  0.83297324159E+02 -0.68357960398E+03  0.71885178907E+03  0.94421633314E+01 0.  0.
         13    1    3    3    0    0 -0.99817826062E+02  0.35561069243E+02 -0.33076332027E+03  0.34732198618E+03  0.00000000000E+00 0.  1.
          3    1    3    3  501    0 -0.10618999177E+03  0.47736254916E+02 -0.35281628371E+03  0.37152980289E+03  0.00000000000E+00 0.  1.
         21    1    1    2  502  501  0.20600781783E+03 -0.83297324159E+02 -0.25746882551E+03  0.34009978144E+03  0.00000000000E+00 0.  1.
<mgrwt>
<rscale>  1 0.30000000E+03</rscale>
<asrwt>0</asrwt>
<pdfrwt beam="1">  1        1 0.21436980E+00 0.30000000E+03</pdfrwt>
<pdfrwt beam="2">0</pdfrwt>
<totfact> 0.87604814E+00</totfact>
</mgrwt>
</event>
<event>
 6    1  0.3125838E-002  0.3000000E+03  0.7818608E-02  0.1093470E+00
          1   -1    0    0  502    0  0.00000000000E+00  0.00000000000E+00  0.34675540664E+01  0.34675540664E+01  0.00000000000E+00 0.  1.
         13   -1    0    0    0    0 -0.00000000000E+00 -0.00000000000E+00 -0.10000000000E+04  0.10000000000E+04  0.00000000000E+00 0.  1.
    9000005    2    1    2  501    0 -0.43812101356E+02 -0.37483661919E+02 -0.59837902096E+03  0.60116086141E+03  0.35218507870E+01 0.  0.
         13    1    3    3    0    0 -0.27774454529E+02 -0.24631352024E+02 -0.40103579138E+03  0.40275033184E+03  0.00000000000E+00 0.  1.
          3    1    3    3  501    0 -0.16037646827E+02 -0.12852309894E+02 -0.19734322958E+03  0.19841052957E+03  0.00000000000E+00 0.  1.
         21    1    1    2  502  501  0.43812101356E+02  0.37483661919E+02 -0.39815342498E+03  0.40230669266E+03  0.00000000000E+00 0.  1.
<mgrwt>
<rscale>  1 0.30000000E+03</rscale>
<asrwt>0</asrwt>
<pdfrwt beam="1">  1        1 0.12609314E-01 0.30000000E+03</pdfrwt>
<pdfrwt beam="2">0</pdfrwt>
<totfact> 0.54959320E+02</totfact>
</mgrwt>
</event>
<event>
 6    1  0.3125838E-002  0.3000000E+03  0.7818608E-02  0.1093470E+00
          3   -1    0    0  502    0  0.00000000000E+00  0.00000000000E+00  0.21053537425E+01  0.21053537425E+01  0.00000000000E+00 0.  1.
         13   -1    0    0    0    0 -0.00000000000E+00 -0.00000000000E+00 -0.10000000000E+04  0.10000000000E+04  0.00000000000E+00 0.  1.
    9000005    2    1    2  501    0  0.44715769301E+02  0.60683588582E+01 -0.58547619730E+03  0.58722548915E+03  0.38823317284E+01 0.  0.
         13    1    3    3    0    0  0.85081950025E+01  0.26144285441E+01 -0.10839499946E+03  0.10875982956E+03  0.00000000000E+00 0.  1.
          3    1    3    3  501    0  0.36207574298E+02  0.34539303141E+01 -0.47708119784E+03  0.47846565959E+03  0.00000000000E+00 0.  1.
         21    1    1    2  502  501 -0.44715769301E+02 -0.60683588582E+01 -0.41241844896E+03  0.41487986459E+03  0.00000000000E+00 0.  1.
<mgrwt>
<rscale>  1 0.30000000E+03</rscale>
<asrwt>0</asrwt>
<pdfrwt beam="1">  1        3 0.76558479E-02 0.30000000E+03</pdfrwt>
<pdfrwt beam="2">0</pdfrwt>
<totfact> 0.50830159E+02</totfact>
</mgrwt>
</event>
<event>
 6    1  0.3125839E-002  0.3000000E+03  0.7818608E-02  0.1093470E+00
          3   -1    0    0  502    0  0.00000000000E+00  0.00000000000E+00  0.14438786653E+01  0.14438786653E+01  0.00000000000E+00 0.  1.
         13   -1    0    0    0    0 -0.00000000000E+00 -0.00000000000E+00 -0.10000000000E+04  0.10000000000E+04  0.00000000000E+00 0.  1.
    9000005    2    1    2  501    0  0.29480834978E+02 -0.16696701612E+02 -0.71696631726E+03  0.71782315087E+03  0.90264259469E+01 0.  0.
         13    1    3    3    0    0  0.10561335168E+02 -0.96037880806E+01 -0.36304800245E+03  0.36332853814E+03  0.00000000000E+00 0.  1.
          3    1    3    3  501    0  0.18919499811E+02 -0.70929135314E+01 -0.35391831481E+03  0.35449461273E+03  0.00000000000E+00 0.  1.
         21    1    1    2  502  501 -0.29480834978E+02  0.16696701612E+02 -0.28158980407E+03  0.28362072779E+03  0.00000000000E+00 0.  1.
<mgrwt>
<rscale>  1 0.30000000E+03</rscale>
<asrwt>0</asrwt>
<pdfrwt beam="1">  1        3 0.52504789E-02 0.30000000E+03</pdfrwt>
<pdfrwt beam="2">0</pdfrwt>
<totfact> 0.91743436E+02</totfact>
</mgrwt>
</event>
<event>
 6    1  0.3125838E-002  0.3000000E+03  0.7818608E-02  0.1093470E+00
          3   -1    0    0  502    0  0.00000000000E+00  0.00000000000E+00  0.10502704461E+01  0.10502704461E+01  0.00000000000E+00 0.  1.
         13   -1    0    0    0    0 -0.00000000000E+00 -0.00000000000E+00 -0.10000000000E+04  0.10000000000E+04  0.00000000000E+00 0.  1.
    9000005    2    1    2  501    0  0.30790017006E+02 -0.95203846489E+01 -0.46408752886E+03  0.46521798642E+03  0.34463859893E+01 0.  0.
         13    1    3    3    0    0  0.81269031642E+01 -0.11117163648E+01 -0.12746817548E+03  0.12773182152E+03  0.00000000000E+00 0.  1.
          1    1    3    3  501    0  0.22663113842E+02 -0.84086682841E+01 -0.33661935338E+03  0.33748616490E+03  0.00000000000E+00 0.  1.
         21    1    1    2  502  501 -0.30790017006E+02  0.95203846489E+01 -0.53486220069E+03  0.53583228402E+03  0.00000000000E+00 0.  1.
<mgrwt>
<rscale>  1 0.30000000E+03</rscale>
<asrwt>0</asrwt>
<pdfrwt beam="1">  1        3 0.38191733E-02 0.30000000E+03</pdfrwt>
<pdfrwt beam="2">0</pdfrwt>
<totfact> 0.14980663E+03</totfact>
</mgrwt>
</event>
<event>
 6    1  0.3125838E-002  0.3000000E+03  0.7818608E-02  0.1093470E+00
          1   -1    0    0  502    0  0.00000000000E+00  0.00000000000E+00  0.20906449080E+01  0.20906449080E+01  0.00000000000E+00 0.  1.
         13   -1    0    0    0    0 -0.00000000000E+00 -0.00000000000E+00 -0.10000000000E+04  0.10000000000E+04  0.00000000000E+00 0.  1.
    9000005    2    1    2  501    0 -0.17246187065E+02  0.37488641718E+02 -0.71414316728E+03  0.71533974504E+03  0.27673532536E+01 0.  0.
         13    1    3    3    0    0 -0.15764532191E+02  0.32194441642E+02 -0.62521639415E+03  0.62624319722E+03  0.00000000000E+00 0.  1.
          3    1    3    3  501    0 -0.14816548744E+01  0.52942000767E+01 -0.88926773129E+02  0.89096547827E+02  0.00000000000E+00 0.  1.
         21    1    1    2  502  501  0.17246187065E+02 -0.37488641718E+02 -0.28376618781E+03  0.28675089986E+03  0.00000000000E+00 0.  1.
<mgrwt>
<rscale>  1 0.30000000E+03</rscale>
<asrwt>0</asrwt>
<pdfrwt beam="1">  1        1 0.76023612E-02 0.30000000E+03</pdfrwt>
<pdfrwt beam="2">0</pdfrwt>
<totfact> 0.11056780E+03</totfact>
</mgrwt>
</event>
<event>
 6    1  0.3125838E-002  0.3000000E+03  0.7818608E-02  0.1093470E+00
          1   -1    0    0  502    0  0.00000000000E+00  0.00000000000E+00  0.19199502966E+01  0.19199502966E+01  0.00000000000E+00 0.  1.
         13   -1    0    0    0    0 -0.00000000000E+00 -0.00000000000E+00 -0.10000000000E+04  0.10000000000E+04  0.00000000000E+00 0.  1.
    9000005    2    1    2  501    0  0.38753730883E+02  0.22173569483E+01 -0.73021977753E+03  0.73126169024E+03  0.39959710188E+01 0.  0.
         13    1    3    3    0    0  0.57385278333E+01  0.16772225137E+01 -0.12150558108E+03  0.12165257914E+03  0.00000000000E+00 0.  1.
          1    1    3    3  501    0  0.33015203050E+02  0.54013443460E+00 -0.60871419645E+03  0.60960911110E+03  0.00000000000E+00 0.  1.
         21    1    1    2  502  501 -0.38753730883E+02 -0.22173569483E+01 -0.26786027217E+03  0.27065826006E+03  0.00000000000E+00 0.  1.
<mgrwt>
<rscale>  1 0.30000000E+03</rscale>
<asrwt>0</asrwt>
<pdfrwt beam="1">  1        1 0.69816522E-02 0.30000000E+03</pdfrwt>
<pdfrwt beam="2">0</pdfrwt>
<totfact> 0.12453736E+03</totfact>
</mgrwt>
</event>
<event>
 6    1  0.3125838E-002  0.3000000E+03  0.7818608E-02  0.1093470E+00
          1   -1    0    0  502    0  0.00000000000E+00  0.00000000000E+00  0.23244470378E+01  0.23244470378E+01  0.00000000000E+00 0.  1.
         13   -1    0    0    0    0 -0.00000000000E+00 -0.00000000000E+00 -0.10000000000E+04  0.10000000000E+04  0.00000000000E+00 0.  1.
    9000005    2    1    2  501    0  0.13238983381E+02  0.27341036698E+02 -0.88762337904E+03  0.88815665843E+03  0.49177171082E+01 0.  0.
         13    1    3    3    0    0  0.11691224689E+02  0.20813571970E+02 -0.73094874985E+03  0.73133847459E+03  0.00000000000E+00 0.  1.
          3    1    3    3  501    0  0.15477586918E+01  0.65274647279E+01 -0.15667462919E+03  0.15681818384E+03  0.00000000000E+00 0.  1.
         21    1    1    2  502  501 -0.13238983381E+02 -0.27341036698E+02 -0.11005217393E+03  0.11416778860E+03  0.00000000000E+00 0.  1.
<mgrwt>
<rscale>  1 0.30000000E+03</rscale>
<asrwt>0</asrwt>
<pdfrwt beam="1">  1        1 0.84525525E-02 0.30000000E+03</pdfrwt>
<pdfrwt beam="2">0</pdfrwt>
<totfact> 0.95395876E+02</totfact>
</mgrwt>
</event>
<event>
 6    1  0.3125838E-002  0.3000000E+03  0.7818608E-02  0.1093470E+00
          1   -1    0    0  502    0  0.00000000000E+00  0.00000000000E+00  0.34153143846E+01  0.34153143846E+01  0.00000000000E+00 0.  1.
         13   -1    0    0    0    0 -0.00000000000E+00 -0.00000000000E+00 -0.10000000000E+04  0.10000000000E+04  0.00000000000E+00 0.  1.
    9000005    2    1    2  501    0  0.12874705959E+01  0.47681011423E+02 -0.78779687441E+03  0.78924835489E+03  0.37301389554E+01 0.  0.
         13    1    3    3    0    0  0.17586241206E+00  0.45015690034E+01 -0.94419856755E+02  0.94527268027E+02  0.00000000000E+00 0.  1.
          3    1    3    3  501    0  0.11116081838E+01  0.43179442420E+02 -0.69337701766E+03  0.69472108686E+03  0.00000000000E+00 0.  1.
         21    1    1    2  502  501 -0.12874705959E+01 -0.47681011423E+02 -0.20878781121E+03  0.21416695949E+03  0.00000000000E+00 0.  1.
<mgrwt>
<rscale>  1 0.30000000E+03</rscale>
<asrwt>0</asrwt>
<pdfrwt beam="1">  1        1 0.12419351E-01 0.30000000E+03</pdfrwt>
<pdfrwt beam="2">0</pdfrwt>
<totfact> 0.56113161E+02</totfact>
</mgrwt>
</event>
<event>
 6    1  0.3125838E-002  0.3000000E+03  0.7818608E-02  0.1093470E+00
          1   -1    0    0  502    0  0.00000000000E+00  0.00000000000E+00  0.20684945237E+01  0.20684945237E+01  0.00000000000E+00 0.  1.
         13   -1    0    0    0    0 -0.00000000000E+00 -0.00000000000E+00 -0.10000000000E+04  0.10000000000E+04  0.00000000000E+00 0.  1.
    9000005    2    1    2  501    0  0.24585490689E+02 -0.34254185275E+02 -0.32931044233E+03  0.33211930119E+03  0.89480297335E+01 0.  0.
         13    1    3    3    0    0  0.25017102946E+02 -0.34482306590E+02 -0.32460224707E+03  0.32738586364E+03  0.00000000000E+00 0.  1.
          1    1    3    3  501    0 -0.43161225715E+00  0.22812131484E+00 -0.47081952515E+01  0.47334375460E+01  0.00000000000E+00 0.  1.
         21    1    1    2  502  501 -0.24585490689E+02  0.34254185275E+02 -0.66862106315E+03  0.66994919334E+03  0.00000000000E+00 0.  1.
<mgrwt>
<rscale>  1 0.30000000E+03</rscale>
<asrwt>0</asrwt>
<pdfrwt beam="1">  1        1 0.75218141E-02 0.30000000E+03</pdfrwt>
<pdfrwt beam="2">0</pdfrwt>
<totfact> 0.11222337E+03</totfact>
</mgrwt>
</event>
<event>
 6    1  0.3125838E-002  0.3000000E+03  0.7818608E-02  0.1093470E+00
          1   -1    0    0  502    0  0.00000000000E+00  0.00000000000E+00  0.15711708420E+01  0.15711708420E+01  0.00000000000E+00 0.  1.
         13   -1    0    0    0    0 -0.00000000000E+00 -0.00000000000E+00 -0.10000000000E+04  0.10000000000E+04  0.00000000000E+00 0.  1.
    9000005    2    1    2  501    0 -0.18264404348E+02  0.29429205989E+02 -0.74183377760E+03  0.74264900664E+03  0.32445096245E+01 0.  0.
         13    1    3    3    0    0 -0.15844599678E+02  0.27031059351E+02 -0.65657342820E+03  0.65732061898E+03  0.00000000000E+00 0.  1.
          3    1    3    3  501    0 -0.24198046700E+01  0.23981466380E+01 -0.85260349398E+02  0.85328387664E+02  0.00000000000E+00 0.  1.
         21    1    1    2  502  501  0.18264404348E+02 -0.29429205989E+02 -0.25659505156E+03  0.25892216420E+03  0.00000000000E+00 0.  1.
<mgrwt>
<rscale>  1 0.30000000E+03</rscale>
<asrwt>0</asrwt>
<pdfrwt beam="1">  1        1 0.57133606E-02 0.30000000E+03</pdfrwt>
<pdfrwt beam="2">0</pdfrwt>
<totfact> 0.16493494E+03</totfact>
</mgrwt>
</event>
<event>
 6    1  0.3125838E-002  0.3000000E+03  0.7818608E-02  0.1093470E+00
          3   -1    0    0  502    0  0.00000000000E+00  0.00000000000E+00  0.47695281028E+01  0.47695281028E+01  0.00000000000E+00 0.  1.
         13   -1    0    0    0    0 -0.00000000000E+00 -0.00000000000E+00 -0.10000000000E+04  0.10000000000E+04  0.00000000000E+00 0.  1.
    9000005    2    1    2  501    0  0.24260030924E+02  0.27456183622E+02 -0.92341773725E+03  0.92415029977E+03  0.33268569649E+01 0.  0.
         13    1    3    3    0    0  0.15603441746E+02  0.15710386154E+02 -0.53140462107E+03  0.53186573016E+03  0.00000000000E+00 0.  1.
          1    1    3    3  501    0  0.86565891780E+01  0.11745797468E+02 -0.39201311618E+03  0.39228456961E+03  0.00000000000E+00 0.  1.
         21    1    1    2  502  501 -0.24260030924E+02 -0.27456183622E+02 -0.71812734650E+02  0.80619228335E+02  0.00000000000E+00 0.  1.
<mgrwt>
<rscale>  1 0.30000000E+03</rscale>
<asrwt>0</asrwt>
<pdfrwt beam="1">  1        3 0.17343775E-01 0.30000000E+03</pdfrwt>
<pdfrwt beam="2">0</pdfrwt>
<totfact> 0.12905752E+02</totfact>
</mgrwt>
</event>
<event>
 6    1  0.3125838E-002  0.3000000E+03  0.7818608E-02  0.1093470E+00
          1   -1    0    0  502    0  0.00000000000E+00  0.00000000000E+00  0.18346019007E+01  0.18346019007E+01  0.00000000000E+00 0.  1.
         13   -1    0    0    0    0 -0.00000000000E+00 -0.00000000000E+00 -0.10000000000E+04  0.10000000000E+04  0.00000000000E+00 0.  1.
    9000005    2    1    2  501    0  0.14098208769E+02 -0.30582728110E+02 -0.80816550626E+03  0.80887340983E+03  0.32626462756E+01 0.  0.
         13    1    3    3    0    0  0.13655691794E+02 -0.30409160146E+02 -0.79265751534E+03  0.79335813575E+03  0.00000000000E+00 0.  1.
          3    1    3    3  501    0  0.44251697564E+00 -0.17356796350E+00 -0.15507990925E+02  0.15515274076E+02  0.00000000000E+00 0.  1.
         21    1    1    2  502  501 -0.14098208769E+02  0.30582728110E+02 -0.18999989183E+03  0.19296119207E+03  0.00000000000E+00 0.  1.
<mgrwt>
<rscale>  1 0.30000000E+03</rscale>
<asrwt>0</asrwt>
<pdfrwt beam="1">  1        1 0.66712937E-02 0.30000000E+03</pdfrwt>
<pdfrwt beam="2">0</pdfrwt>
<totfact> 0.13271810E+03</totfact>
</mgrwt>
</event>
<event>
 6    1  0.3125838E-002  0.3000000E+03  0.7818608E-02  0.1093470E+00
          1   -1    0    0  502    0  0.00000000000E+00  0.00000000000E+00  0.94282778279E+01  0.94282778279E+01  0.00000000000E+00 0.  1.
         13   -1    0    0    0    0 -0.00000000000E+00 -0.00000000000E+00 -0.10000000000E+04  0.10000000000E+04  0.00000000000E+00 0.  1.
    9000005    2    1    2  501    0  0.62892989270E+02 -0.21041560265E+02 -0.86386857303E+03  0.86641791680E+03  0.35804654643E+01 0.  0.
         13    1    3    3    0    0  0.25208820032E+02 -0.10098566500E+02 -0.34320662919E+03  0.34427932841E+03  0.00000000000E+00 0.  1.
          1    1    3    3  501    0  0.37684169238E+02 -0.10942993765E+02 -0.52066194384E+03  0.52213858839E+03  0.00000000000E+00 0.  1.
         21    1    1    2  502  501 -0.62892989270E+02  0.21041560265E+02 -0.12670314915E+03  0.14301036103E+03  0.00000000000E+00 0.  1.
<mgrwt>
<rscale>  1 0.30000000E+03</rscale>
<asrwt>0</asrwt>
<pdfrwt beam="1">  1        1 0.34284719E-01 0.30000000E+03</pdfrwt>
<pdfrwt beam="2">0</pdfrwt>
<totfact> 0.14457268E+02</totfact>
</mgrwt>
</event>
<event>
 6    1  0.3125838E-002  0.3000000E+03  0.7818608E-02  0.1093470E+00
          1   -1    0    0  502    0  0.00000000000E+00  0.00000000000E+00  0.28413761439E+02  0.28413761439E+02  0.00000000000E+00 0.  1.
         13   -1    0    0    0    0 -0.00000000000E+00 -0.00000000000E+00 -0.10000000000E+04  0.10000000000E+04  0.00000000000E+00 0.  1.
    9000005    2    1    2  501    0 -0.35845152678E+02  0.58662695815E+02 -0.95528385504E+03  0.95775999608E+03  0.32832206337E+01 0.  0.
         13    1    3    3    0    0 -0.33826840618E+02  0.55598169618E+02 -0.91351986274E+03  0.91583511138E+03  0.00000000000E+00 0.  1.
          3    1    3    3  501    0 -0.20183120604E+01  0.30645261969E+01 -0.41763992303E+02  0.41924884704E+02  0.00000000000E+00 0.  1.
         21    1    1    2  502  501  0.35845152678E+02 -0.58662695815E+02 -0.16302383517E+02  0.70653765357E+02  0.00000000000E+00 0.  1.
<mgrwt>
<rscale>  1 0.30000000E+03</rscale>
<asrwt>0</asrwt>
<pdfrwt beam="1">  1        1 0.10332299E+00 0.30000000E+03</pdfrwt>
<pdfrwt beam="2">0</pdfrwt>
<totfact> 0.32621504E+01</totfact>
</mgrwt>
</event>
<event>
 6    1  0.3125838E-002  0.3000000E+03  0.7818608E-02  0.1093470E+00
          1   -1    0    0  502    0  0.00000000000E+00  0.00000000000E+00  0.19418571907E+01  0.19418571907E+01  0.00000000000E+00 0.  1.
         13   -1    0    0    0    0 -0.00000000000E+00 -0.00000000000E+00 -0.10000000000E+04  0.10000000000E+04  0.00000000000E+00 0.  1.
    9000005    2    1    2  501    0 -0.19609274088E+02 -0.26220809705E+02 -0.83394245986E+03  0.83459188892E+03  0.33970861218E+01 0.  0.
         13    1    3    3    0    0 -0.32274963230E+01 -0.54017126473E+01 -0.19186100980E+03  0.19196416934E+03  0.00000000000E+00 0.  1.
          1    1    3    3  501    0 -0.16381777765E+02 -0.20819097057E+02 -0.64208145007E+03  0.64262771958E+03  0.00000000000E+00 0.  1.
         21    1    1    2  502  501  0.19609274088E+02  0.26220809705E+02 -0.16411568294E+03  0.16734996827E+03  0.00000000000E+00 0.  1.
<mgrwt>
<rscale>  1 0.30000000E+03</rscale>
<asrwt>0</asrwt>
<pdfrwt beam="1">  1        1 0.70613138E-02 0.30000000E+03</pdfrwt>
<pdfrwt beam="2">0</pdfrwt>
<totfact> 0.12257735E+03</totfact>
</mgrwt>
</event>
<event>
 6    1  0.3125838E-002  0.3000000E+03  0.7818608E-02  0.1093470E+00
          1   -1    0    0  502    0  0.00000000000E+00  0.00000000000E+00  0.19938090932E+01  0.19938090932E+01  0.00000000000E+00 0.  1.
         13   -1    0    0    0    0 -0.00000000000E+00 -0.00000000000E+00 -0.10000000000E+04  0.10000000000E+04  0.00000000000E+00 0.  1.
    9000005    2    1    2  501    0 -0.41121859703E+02 -0.13708072139E+02 -0.61632746518E+03  0.61786158152E+03  0.38040763923E+01 0.  0.
         13    1    3    3    0    0 -0.17640183137E+02 -0.67926513311E+01 -0.24499379701E+03  0.24572195008E+03  0.00000000000E+00 0.  1.
          1    1    3    3  501    0 -0.23481676566E+02 -0.69154208077E+01 -0.37133366817E+03  0.37213963145E+03  0.00000000000E+00 0.  1.
         21    1    1    2  502  501  0.41121859703E+02  0.13708072139E+02 -0.38167872573E+03  0.38413222757E+03  0.00000000000E+00 0.  1.
<mgrwt>
<rscale>  1 0.30000000E+03</rscale>
<asrwt>0</asrwt>
<pdfrwt beam="1">  1        1 0.72502302E-02 0.30000000E+03</pdfrwt>
<pdfrwt beam="2">0</pdfrwt>
<totfact> 0.11813683E+03</totfact>
</mgrwt>
</event>
<event>
 6    1  0.3125838E-002  0.3000000E+03  0.7818608E-02  0.1093470E+00
          1   -1    0    0  502    0  0.00000000000E+00  0.00000000000E+00  0.11470517173E+01  0.11470517173E+01  0.00000000000E+00 0.  1.
         13   -1    0    0    0    0 -0.00000000000E+00 -0.00000000000E+00 -0.10000000000E+04  0.10000000000E+04  0.00000000000E+00 0.  1.
    9000005    2    1    2  501    0 -0.66601664591E+01  0.30216713784E+02 -0.70084412302E+03  0.70153619152E+03  0.36243126702E+01 0.  0.
         13    1    3    3    0    0 -0.24842765201E+01  0.77151108212E+01 -0.21653230110E+03  0.21668394492E+03  0.00000000000E+00 0.  1.
          1    1    3    3  501    0 -0.41758899390E+01  0.22501602962E+02 -0.48431182191E+03  0.48485224660E+03  0.00000000000E+00 0.  1.
         21    1    1    2  502  501  0.66601664591E+01 -0.30216713784E+02 -0.29800882527E+03  0.29961086019E+03  0.00000000000E+00 0.  1.
<mgrwt>
<rscale>  1 0.30000000E+03</rscale>
<asrwt>0</asrwt>
<pdfrwt beam="1">  1        1 0.41711059E-02 0.30000000E+03</pdfrwt>
<pdfrwt beam="2">0</pdfrwt>
<totfact> 0.25670070E+03</totfact>
</mgrwt>
</event>
<event>
 6    1  0.3125838E-002  0.3000000E+03  0.7818608E-02  0.1093470E+00
          1   -1    0    0  502    0  0.00000000000E+00  0.00000000000E+00  0.28483605725E+01  0.28483605725E+01  0.00000000000E+00 0.  1.
         13   -1    0    0    0    0 -0.00000000000E+00 -0.00000000000E+00 -0.10000000000E+04  0.10000000000E+04  0.00000000000E+00 0.  1.
    9000005    2    1    2  501    0 -0.28944552790E+02 -0.20975518104E+02 -0.87067753455E+03  0.87141982980E+03  0.39231500031E+01 0.  0.
         13    1    3    3    0    0 -0.98051363656E+01 -0.79195226774E+01 -0.26557931327E+03  0.26587822622E+03  0.00000000000E+00 0.  1.
          3    1    3    3  501    0 -0.19139416425E+02 -0.13055995426E+02 -0.60509822128E+03  0.60554160358E+03  0.00000000000E+00 0.  1.
         21    1    1    2  502  501  0.28944552790E+02  0.20975518104E+02 -0.12647410488E+03  0.13142853077E+03  0.00000000000E+00 0.  1.
<mgrwt>
<rscale>  1 0.30000000E+03</rscale>
<asrwt>0</asrwt>
<pdfrwt beam="1">  1        1 0.10357697E-01 0.30000000E+03</pdfrwt>
<pdfrwt beam="2">0</pdfrwt>
<totfact> 0.71997970E+02</totfact>
</mgrwt>
</event>
<event>
 6    1  0.3125838E-002  0.3000000E+03  0.7818608E-02  0.1093470E+00
          1   -1    0    0  502    0  0.00000000000E+00  0.00000000000E+00  0.40165414705E+01  0.40165414705E+01  0.00000000000E+00 0.  1.
         13   -1    0    0    0    0 -0.00000000000E+00 -0.00000000000E+00 -0.10000000000E+04  0.10000000000E+04  0.00000000000E+00 0.  1.
    9000005    2    1    2  501    0 -0.30045829035E+02  0.11541192973E+02 -0.93017198206E+03  0.93075603770E+03  0.71368429640E+01 0.  0.
         13    1    3    3    0    0 -0.37820536151E+01  0.36821738708E+01 -0.19987088229E+03  0.19994057097E+03  0.00000000000E+00 0.  1.
          1    1    3    3  501    0 -0.26263775420E+02  0.78590191021E+01 -0.73030109977E+03  0.73081546673E+03  0.00000000000E+00 0.  1.
         21    1    1    2  502  501  0.30045829035E+02 -0.11541192973E+02 -0.65811476471E+02  0.73260503772E+02  0.00000000000E+00 0.  1.
<mgrwt>
<rscale>  1 0.30000000E+03</rscale>
<asrwt>0</asrwt>
<pdfrwt beam="1">  1        1 0.14605636E-01 0.30000000E+03</pdfrwt>
<pdfrwt beam="2">0</pdfrwt>
<totfact> 0.44979083E+02</totfact>
</mgrwt>
</event>
<event>
 6    1  0.3125838E-002  0.3000000E+03  0.7818608E-02  0.1093470E+00
          1   -1    0    0  502    0  0.00000000000E+00  0.00000000000E+00  0.43675419006E+01  0.43675419006E+01  0.00000000000E+00 0.  1.
         13   -1    0    0    0    0 -0.00000000000E+00 -0.00000000000E+00 -0.10000000000E+04  0.10000000000E+04  0.00000000000E+00 0.  1.
    9000005    2    1    2  501    0  0.12634850309E+02  0.35091787930E+02 -0.91231908404E+03  0.91308670427E+03  0.31851809225E+01 0.  0.
         13    1    3    3    0    0  0.79912199644E+01  0.26266760375E+02 -0.67591719771E+03  0.67647458227E+03  0.00000000000E+00 0.  1.
          3    1    3    3  501    0  0.46436303447E+01  0.88250275552E+01 -0.23640188633E+03  0.23661212199E+03  0.00000000000E+00 0.  1.
         21    1    1    2  502  501 -0.12634850309E+02 -0.35091787930E+02 -0.83313374058E+02  0.91280837635E+02  0.00000000000E+00 0.  1.
<mgrwt>
<rscale>  1 0.30000000E+03</rscale>
<asrwt>0</asrwt>
<pdfrwt beam="1">  1        1 0.15882004E-01 0.30000000E+03</pdfrwt>
<pdfrwt beam="2">0</pdfrwt>
<totfact> 0.40146582E+02</totfact>
</mgrwt>
</event>
<event>
 6    1  0.3125838E-002  0.3000000E+03  0.7818608E-02  0.1093470E+00
          1   -1    0    0  502    0  0.00000000000E+00  0.00000000000E+00  0.51498786280E+01  0.51498786280E+01  0.00000000000E+00 0.  1.
         13   -1    0    0    0    0 -0.00000000000E+00 -0.00000000000E+00 -0.10000000000E+04  0.10000000000E+04  0.00000000000E+00 0.  1.
    9000005    2    1    2  501    0 -0.43468192852E+02 -0.42157901088E+01 -0.89618191833E+03  0.89724866933E+03  0.24263552804E+01 0.  0.
         13    1    3    3    0    0 -0.36160520312E+02 -0.37509079152E+01 -0.76302025393E+03  0.76388582946E+03  0.00000000000E+00 0.  1.
          3    1    3    3  501    0 -0.73076725397E+01 -0.46488219356E+00 -0.13316166440E+03  0.13336283987E+03  0.00000000000E+00 0.  1.
         21    1    1    2  502  501  0.43468192852E+02  0.42157901088E+01 -0.98668203044E+02  0.10790120930E+03  0.00000000000E+00 0.  1.
<mgrwt>
<rscale>  1 0.30000000E+03</rscale>
<asrwt>0</asrwt>
<pdfrwt beam="1">  1        1 0.18726871E-01 0.30000000E+03</pdfrwt>
<pdfrwt beam="2">0</pdfrwt>
<totfact> 0.32153092E+02</totfact>
</mgrwt>
</event>
<event>
 6    1  0.3125838E-002  0.3000000E+03  0.7818608E-02  0.1093470E+00
          1   -1    0    0  502    0  0.00000000000E+00  0.00000000000E+00  0.78009648553E+01  0.78009648553E+01  0.00000000000E+00 0.  1.
         13   -1    0    0    0    0 -0.00000000000E+00 -0.00000000000E+00 -0.10000000000E+04  0.10000000000E+04  0.00000000000E+00 0.  1.
    9000005    2    1    2  501    0  0.34995682104E+02 -0.12842888562E+02 -0.95290162128E+03  0.95363525348E+03  0.30098647227E+01 0.  0.
         13    1    3    3    0    0  0.28520869131E+02 -0.91895896405E+01 -0.76358636822E+03  0.76417408375E+03  0.00000000000E+00 0.  1.
          1    1    3    3  501    0  0.64748129729E+01 -0.36532989219E+01 -0.18931525306E+03  0.18946116973E+03  0.00000000000E+00 0.  1.
         21    1    1    2  502  501 -0.34995682104E+02  0.12842888562E+02 -0.39297413866E+02  0.54165711378E+02  0.00000000000E+00 0.  1.
<mgrwt>
<rscale>  1 0.30000000E+03</rscale>
<asrwt>0</asrwt>
<pdfrwt beam="1">  1        1 0.28367205E-01 0.30000000E+03</pdfrwt>
<pdfrwt beam="2">0</pdfrwt>
<totfact> 0.18534510E+02</totfact>
</mgrwt>
</event>
<event>
 6    1  0.3125838E-002  0.3000000E+03  0.7818608E-02  0.1093470E+00
          1   -1    0    0  502    0  0.00000000000E+00  0.00000000000E+00  0.10695551448E+01  0.10695551448E+01  0.00000000000E+00 0.  1.
         13   -1    0    0    0    0 -0.00000000000E+00 -0.00000000000E+00 -0.10000000000E+04  0.10000000000E+04  0.00000000000E+00 0.  1.
    9000005    2    1    2  501    0  0.10633787791E+01 -0.31222129463E+02 -0.35720742351E+03  0.35858656839E+03  0.33513396881E+01 0.  0.
         13    1    3    3    0    0 -0.59896044722E+00 -0.45693204424E+01 -0.42939225397E+02  0.43185813882E+02  0.00000000000E+00 0.  1.
          1    1    3    3  501    0  0.16623392263E+01 -0.26652809021E+02 -0.31426819811E+03  0.31540075451E+03  0.00000000000E+00 0.  1.
         21    1    1    2  502  501 -0.10633787791E+01  0.31222129463E+02 -0.64172302135E+03  0.64248298676E+03  0.00000000000E+00 0.  1.
<mgrwt>
<rscale>  1 0.30000000E+03</rscale>
<asrwt>0</asrwt>
<pdfrwt beam="1">  1        1 0.38892996E-02 0.30000000E+03</pdfrwt>
<pdfrwt beam="2">0</pdfrwt>
<totfact> 0.28326970E+03</totfact>
</mgrwt>
</event>
<event>
 6    1  0.3125838E-002  0.3000000E+03  0.7818608E-02  0.1093470E+00
          3   -1    0    0  502    0  0.00000000000E+00  0.00000000000E+00  0.10104628665E+01  0.10104628665E+01  0.00000000000E+00 0.  1.
         13   -1    0    0    0    0 -0.00000000000E+00 -0.00000000000E+00 -0.10000000000E+04  0.10000000000E+04  0.00000000000E+00 0.  1.
    9000005    2    1    2  501    0 -0.52464637330E+01  0.30749725996E+02 -0.58940096615E+03  0.59023574540E+03  0.34154380502E+01 0.  0.
         13    1    3    3    0    0 -0.52209984407E+01  0.24622517070E+02 -0.45598165259E+03  0.45667580916E+03  0.00000000000E+00 0.  1.
          1    1    3    3  501    0 -0.25465292271E-01  0.61272089265E+01 -0.13341931355E+03  0.13355993623E+03  0.00000000000E+00 0.  1.
         21    1    1    2  502  501  0.52464637330E+01 -0.30749725996E+02 -0.40958857099E+03  0.41077471747E+03  0.00000000000E+00 0.  1.
<mgrwt>
<rscale>  1 0.30000000E+03</rscale>
<asrwt>0</asrwt>
<pdfrwt beam="1">  1        3 0.36744182E-02 0.30000000E+03</pdfrwt>
<pdfrwt beam="2">0</pdfrwt>
<totfact> 0.15898598E+03</totfact>
</mgrwt>
</event>
<event>
 6    1  0.3125838E-002  0.3000000E+03  0.7818608E-02  0.1093470E+00
          1   -1    0    0  502    0  0.00000000000E+00  0.00000000000E+00  0.21417978739E+01  0.21417978739E+01  0.00000000000E+00 0.  1.
         13   -1    0    0    0    0 -0.00000000000E+00 -0.00000000000E+00 -0.10000000000E+04  0.10000000000E+04  0.00000000000E+00 0.  1.
    9000005    2    1    2  501    0  0.26951798607E+02 -0.36651159184E+02 -0.58797365893E+03  0.58974023911E+03  0.32892423626E+01 0.  0.
         13    1    3    3    0    0  0.91153426311E+00 -0.57146212930E+00 -0.10536564601E+02  0.10591348227E+02  0.00000000000E+00 0.  1.
          1    1    3    3  501    0  0.26040264343E+02 -0.36079697055E+02 -0.57743709433E+03  0.57914889088E+03  0.00000000000E+00 0.  1.
         21    1    1    2  502  501 -0.26951798607E+02  0.36651159184E+02 -0.40988454320E+03  0.41240155876E+03  0.00000000000E+00 0.  1.
<mgrwt>
<rscale>  1 0.30000000E+03</rscale>
<asrwt>0</asrwt>
<pdfrwt beam="1">  1        1 0.77883723E-02 0.30000000E+03</pdfrwt>
<pdfrwt beam="2">0</pdfrwt>
<totfact> 0.10690304E+03</totfact>
</mgrwt>
</event>
<event>
 6    1  0.3125838E-002  0.3000000E+03  0.7818608E-02  0.1093470E+00
          3   -1    0    0  502    0  0.00000000000E+00  0.00000000000E+00  0.96416974188E+01  0.96416974188E+01  0.00000000000E+00 0.  1.
         13   -1    0    0    0    0 -0.00000000000E+00 -0.00000000000E+00 -0.10000000000E+04  0.10000000000E+04  0.00000000000E+00 0.  1.
    9000005    2    1    2  501    0 -0.70933827094E+01  0.59239804174E+02 -0.89597721193E+03  0.89798391332E+03  0.63461651888E+01 0.  0.
         13    1    3    3    0    0 -0.66513942227E+01  0.42190229082E+02 -0.60307830856E+03  0.60458887083E+03  0.00000000000E+00 0.  1.
          3    1    3    3  501    0 -0.44198848668E+00  0.17049575091E+02 -0.29289890337E+03  0.29339504249E+03  0.00000000000E+00 0.  1.
         21    1    1    2  502  501  0.70933827094E+01 -0.59239804174E+02 -0.94381090656E+02  0.11165778410E+03  0.00000000000E+00 0.  1.
<mgrwt>
<rscale>  1 0.30000000E+03</rscale>
<asrwt>0</asrwt>
<pdfrwt beam="1">  1        3 0.35060792E-01 0.30000000E+03</pdfrwt>
<pdfrwt beam="2">0</pdfrwt>
<totfact> 0.34706088E+01</totfact>
</mgrwt>
</event>
<event>
 6    1  0.3125838E-002  0.3000000E+03  0.7818608E-02  0.1093470E+00
          1   -1    0    0  502    0  0.00000000000E+00  0.00000000000E+00  0.17412574571E+01  0.17412574571E+01  0.00000000000E+00 0.  1.
         13   -1    0    0    0    0 -0.00000000000E+00 -0.00000000000E+00 -0.10000000000E+04  0.10000000000E+04  0.00000000000E+00 0.  1.
    9000005    2    1    2  501    0  0.25341655175E+02 -0.27401012898E+02 -0.72088004680E+03  0.72186279125E+03  0.49832239460E+01 0.  0.
         13    1    3    3    0    0  0.24933601972E+02 -0.26230204029E+02 -0.67835200044E+03  0.67931667477E+03  0.00000000000E+00 0.  1.
          1    1    3    3  501    0  0.40805320329E+00 -0.11708088690E+01 -0.42528046358E+02  0.42546116484E+02  0.00000000000E+00 0.  1.
         21    1    1    2  502  501 -0.25341655175E+02  0.27401012898E+02 -0.27737869574E+03  0.27987846621E+03  0.00000000000E+00 0.  1.
<mgrwt>
<rscale>  1 0.30000000E+03</rscale>
<asrwt>0</asrwt>
<pdfrwt beam="1">  1        1 0.63318587E-02 0.30000000E+03</pdfrwt>
<pdfrwt beam="2">0</pdfrwt>
<totfact> 0.14278915E+03</totfact>
</mgrwt>
</event>
<event>
 6    1  0.3125838E-002  0.3000000E+03  0.7818608E-02  0.1093470E+00
          1   -1    0    0  502    0  0.00000000000E+00  0.00000000000E+00  0.11452245724E+01  0.11452245724E+01  0.00000000000E+00 0.  1.
         13   -1    0    0    0    0 -0.00000000000E+00 -0.00000000000E+00 -0.10000000000E+04  0.10000000000E+04  0.00000000000E+00 0.  1.
    9000005    2    1    2  501    0  0.29924078124E+02 -0.13984608507E+02 -0.60397177478E+03  0.60488318510E+03  0.32776758123E+01 0.  0.
         13    1    3    3    0    0  0.95428193213E+01 -0.28654204667E+01 -0.17399191429E+03  0.17427697001E+03  0.00000000000E+00 0.  1.
          1    1    3    3  501    0  0.20381258803E+02 -0.11119188040E+02 -0.42997986048E+03  0.43060621509E+03  0.00000000000E+00 0.  1.
         21    1    1    2  502  501 -0.29924078124E+02  0.13984608507E+02 -0.39488300065E+03  0.39626203947E+03  0.00000000000E+00 0.  1.
<mgrwt>
<rscale>  1 0.30000000E+03</rscale>
<asrwt>0</asrwt>
<pdfrwt beam="1">  1        1 0.41644618E-02 0.30000000E+03</pdfrwt>
<pdfrwt beam="2">0</pdfrwt>
<totfact> 0.25727753E+03</totfact>
</mgrwt>
</event>
<event>
 6    1  0.3125838E-002  0.3000000E+03  0.7818608E-02  0.1093470E+00
          1   -1    0    0  502    0  0.00000000000E+00  0.00000000000E+00  0.31311490387E+01  0.31311490387E+01  0.00000000000E+00 0.  1.
         13   -1    0    0    0    0 -0.00000000000E+00 -0.00000000000E+00 -0.10000000000E+04  0.10000000000E+04  0.00000000000E+00 0.  1.
    9000005    2    1    2  501    0 -0.28829703675E+02  0.46873252202E+02 -0.58781952467E+03  0.59039684597E+03  0.28963024979E+01 0.  0.
         13    1    3    3    0    0 -0.15198645580E+02  0.26118960415E+02 -0.33588726618E+03  0.33724390951E+03  0.00000000000E+00 0.  1.
          3    1    3    3  501    0 -0.13631058095E+02  0.20754291787E+02 -0.25193225849E+03  0.25315293646E+03  0.00000000000E+00 0.  1.
         21    1    1    2  502  501  0.28829703675E+02 -0.46873252202E+02 -0.40904932629E+03  0.41273430307E+03  0.00000000000E+00 0.  1.
<mgrwt>
<rscale>  1 0.30000000E+03</rscale>
<asrwt>0</asrwt>
<pdfrwt beam="1">  1        1 0.11386021E-01 0.30000000E+03</pdfrwt>
<pdfrwt beam="2">0</pdfrwt>
<totfact> 0.63210808E+02</totfact>
</mgrwt>
</event>
<event>
 6    1  0.3125838E-002  0.3000000E+03  0.7818608E-02  0.1093470E+00
          1   -1    0    0  502    0  0.00000000000E+00  0.00000000000E+00  0.12415737022E+01  0.12415737022E+01  0.00000000000E+00 0.  1.
         13   -1    0    0    0    0 -0.00000000000E+00 -0.00000000000E+00 -0.10000000000E+04  0.10000000000E+04  0.00000000000E+00 0.  1.
    9000005    2    1    2  501    0 -0.30214063367E+02 -0.12376061486E+01 -0.75537183282E+03  0.75598363769E+03  0.31989587649E+01 0.  0.
         13    1    3    3    0    0 -0.17862955410E+02  0.19946156385E+00 -0.41332813936E+03  0.41371400235E+03  0.00000000000E+00 0.  1.
          3    1    3    3  501    0 -0.12351107956E+02 -0.14370677125E+01 -0.34204369346E+03  0.34226963533E+03  0.00000000000E+00 0.  1.
         21    1    1    2  502  501  0.30214063367E+02  0.12376061486E+01 -0.24338659348E+03  0.24525793602E+03  0.00000000000E+00 0.  1.
<mgrwt>
<rscale>  1 0.30000000E+03</rscale>
<asrwt>0</asrwt>
<pdfrwt beam="1">  1        1 0.45148230E-02 0.30000000E+03</pdfrwt>
<pdfrwt beam="2">0</pdfrwt>
<totfact> 0.22962318E+03</totfact>
</mgrwt>
</event>
<event>
 6    1  0.3125838E-002  0.3000000E+03  0.7818608E-02  0.1093470E+00
          1   -1    0    0  502    0  0.00000000000E+00  0.00000000000E+00  0.31609130095E+01  0.31609130095E+01  0.00000000000E+00 0.  1.
         13   -1    0    0    0    0 -0.00000000000E+00 -0.00000000000E+00 -0.10000000000E+04  0.10000000000E+04  0.00000000000E+00 0.  1.
    9000005    2    1    2  501    0  0.51527319913E+02  0.18675262059E+02 -0.60890398523E+03  0.61137337710E+03  0.30842983699E+01 0.  0.
         13    1    3    3    0    0  0.15768864274E+02  0.69028445008E+01 -0.18122752098E+03  0.18204318362E+03  0.00000000000E+00 0.  1.
          3    1    3    3  501    0  0.35758455639E+02  0.11772417558E+02 -0.42767646425E+03  0.42933019348E+03  0.00000000000E+00 0.  1.
         21    1    1    2  502  501 -0.51527319913E+02 -0.18675262059E+02 -0.38793510176E+03  0.39178753591E+03  0.00000000000E+00 0.  1.
<mgrwt>
<rscale>  1 0.30000000E+03</rscale>
<asrwt>0</asrwt>
<pdfrwt beam="1">  1        1 0.11494253E-01 0.30000000E+03</pdfrwt>
<pdfrwt beam="2">0</pdfrwt>
<totfact> 0.62395339E+02</totfact>
</mgrwt>
</event>
<event>
 6    1  0.3125838E-002  0.3000000E+03  0.7818608E-02  0.1093470E+00
          1   -1    0    0  502    0  0.00000000000E+00  0.00000000000E+00  0.78586813103E+01  0.78586813103E+01  0.00000000000E+00 0.  1.
         13   -1    0    0    0    0 -0.00000000000E+00 -0.00000000000E+00 -0.10000000000E+04  0.10000000000E+04  0.00000000000E+00 0.  1.
    9000005    2    1    2  501    0 -0.22042605383E+02  0.47063709408E+02 -0.90421357427E+03  0.90572074794E+03  0.51977064060E+01 0.  0.
         13    1    3    3    0    0 -0.21147908120E+02  0.45425462715E+02 -0.88479237011E+03  0.88621004558E+03  0.00000000000E+00 0.  1.
          3    1    3    3  501    0 -0.89469726294E+00  0.16382466933E+01 -0.19421204162E+02  0.19510702358E+02  0.00000000000E+00 0.  1.
         21    1    1    2  502  501  0.22042605383E+02 -0.47063709408E+02 -0.87927744420E+02  0.10213793338E+03  0.00000000000E+00 0.  1.
<mgrwt>
<rscale>  1 0.30000000E+03</rscale>
<asrwt>0</asrwt>
<pdfrwt beam="1">  1        1 0.28577083E-01 0.30000000E+03</pdfrwt>
<pdfrwt beam="2">0</pdfrwt>
<totfact> 0.18355868E+02</totfact>
</mgrwt>
</event>
<event>
 6    1  0.3125838E-002  0.3000000E+03  0.7818608E-02  0.1093470E+00
          1   -1    0    0  502    0  0.00000000000E+00  0.00000000000E+00  0.37880297950E+02  0.37880297950E+02  0.00000000000E+00 0.  1.
         13   -1    0    0    0    0 -0.00000000000E+00 -0.00000000000E+00 -0.10000000000E+04  0.10000000000E+04  0.00000000000E+00 0.  1.
    9000005    2    1    2  501    0 -0.70471919311E+02 -0.35842487517E+02 -0.95524506902E+03  0.95851887217E+03  0.37829995669E+01 0.  0.
         13    1    3    3    0    0 -0.23987928425E+02 -0.13294377104E+02 -0.34981246043E+03  0.35088590545E+03  0.00000000000E+00 0.  1.
          1    1    3    3  501    0 -0.46483990886E+02 -0.22548110413E+02 -0.60543260860E+03  0.60763296672E+03  0.00000000000E+00 0.  1.
         21    1    1    2  502  501  0.70471919311E+02  0.35842487517E+02 -0.68746330250E+01  0.79361425781E+02  0.00000000000E+00 0.  1.
<mgrwt>
<rscale>  1 0.30000000E+03</rscale>
<asrwt>0</asrwt>
<pdfrwt beam="1">  1        1 0.13774683E+00 0.30000000E+03</pdfrwt>
<pdfrwt beam="2">0</pdfrwt>
<totfact> 0.20792337E+01</totfact>
</mgrwt>
</event>
<event>
 6    1  0.3125838E-002  0.3000000E+03  0.7818608E-02  0.1093470E+00
          1   -1    0    0  502    0  0.00000000000E+00  0.00000000000E+00  0.28247271970E+01  0.28247271970E+01  0.00000000000E+00 0.  1.
         13   -1    0    0    0    0 -0.00000000000E+00 -0.00000000000E+00 -0.10000000000E+04  0.10000000000E+04  0.00000000000E+00 0.  1.
    9000005    2    1    2  501    0  0.13670805925E+02 -0.39151044458E+02 -0.81143948358E+03  0.81251582406E+03  0.53135308754E+01 0.  0.
         13    1    3    3    0    0  0.50999014224E+01 -0.10848192952E+02 -0.27624576186E+03  0.27650572007E+03  0.00000000000E+00 0.  1.
          1    1    3    3  501    0  0.85709045030E+01 -0.28302851506E+02 -0.53519372172E+03  0.53601010399E+03  0.00000000000E+00 0.  1.
         21    1    1    2  502  501 -0.13670805925E+02  0.39151044458E+02 -0.18573578922E+03  0.19030890314E+03  0.00000000000E+00 0.  1.
<mgrwt>
<rscale>  1 0.30000000E+03</rscale>
<asrwt>0</asrwt>
<pdfrwt beam="1">  1        1 0.10271757E-01 0.30000000E+03</pdfrwt>
<pdfrwt beam="2">0</pdfrwt>
<totfact> 0.72829480E+02</totfact>
</mgrwt>
</event>
<event>
 6    1  0.3125838E-002  0.3000000E+03  0.7818608E-02  0.1093470E+00
          1   -1    0    0  502    0  0.00000000000E+00  0.00000000000E+00  0.27258126067E+01  0.27258126067E+01  0.00000000000E+00 0.  1.
         13   -1    0    0    0    0 -0.00000000000E+00 -0.00000000000E+00 -0.10000000000E+04  0.10000000000E+04  0.00000000000E+00 0.  1.
    9000005    2    1    2  501    0  0.11270852400E+02 -0.37750038927E+02 -0.17091435476E+03  0.17542739575E+03  0.33101301977E+01 0.  0.
         13    1    3    3    0    0  0.25547861342E+01 -0.84511136881E+01 -0.32499862411E+02  0.33677727232E+02  0.00000000000E+00 0.  1.
          1    1    3    3  501    0  0.87160662655E+01 -0.29298925239E+02 -0.13841449235E+03  0.14174966851E+03  0.00000000000E+00 0.  1.
         21    1    1    2  502  501 -0.11270852400E+02  0.37750038927E+02 -0.82635983263E+03  0.82729841686E+03  0.00000000000E+00 0.  1.
<mgrwt>
<rscale>  1 0.30000000E+03</rscale>
<asrwt>0</asrwt>
<pdfrwt beam="1">  1        1 0.99120667E-02 0.30000000E+03</pdfrwt>
<pdfrwt beam="2">0</pdfrwt>
<totfact> 0.76500915E+02</totfact>
</mgrwt>
</event>
<event>
 6    1  0.3125838E-002  0.3000000E+03  0.7818608E-02  0.1093470E+00
          1   -1    0    0  502    0  0.00000000000E+00  0.00000000000E+00  0.26947272860E+01  0.26947272860E+01  0.00000000000E+00 0.  1.
         13   -1    0    0    0    0 -0.00000000000E+00 -0.00000000000E+00 -0.10000000000E+04  0.10000000000E+04  0.00000000000E+00 0.  1.
    9000005    2    1    2  501    0 -0.41807787826E+02 -0.17940257647E+02 -0.73813718624E+03  0.73956388338E+03  0.62038636901E+01 0.  0.
         13    1    3    3    0    0 -0.47114589537E+01 -0.11881827028E+01 -0.11177048924E+03  0.11187605592E+03  0.00000000000E+00 0.  1.
          3    1    3    3  501    0 -0.37096328872E+02 -0.16752074944E+02 -0.62636669700E+03  0.62768782746E+03  0.00000000000E+00 0.  1.
         21    1    1    2  502  501  0.41807787826E+02  0.17940257647E+02 -0.25916808648E+03  0.26313084391E+03  0.00000000000E+00 0.  1.
<mgrwt>
<rscale>  1 0.30000000E+03</rscale>
<asrwt>0</asrwt>
<pdfrwt beam="1">  1        1 0.97990290E-02 0.30000000E+03</pdfrwt>
<pdfrwt beam="2">0</pdfrwt>
<totfact> 0.77722769E+02</totfact>
</mgrwt>
</event>
<event>
 6    1  0.3125838E-002  0.3000000E+03  0.7818608E-02  0.1093470E+00
          3   -1    0    0  502    0  0.00000000000E+00  0.00000000000E+00  0.45113737214E+01  0.45113737214E+01  0.00000000000E+00 0.  1.
         13   -1    0    0    0    0 -0.00000000000E+00 -0.00000000000E+00 -0.10000000000E+04  0.10000000000E+04  0.00000000000E+00 0.  1.
    9000005    2    1    2  501    0  0.34055357806E+02  0.47784996602E+02 -0.74142831860E+03  0.74376281048E+03  0.48982990147E+01 0.  0.
         13    1    3    3    0    0  0.51798328874E+01  0.10513028323E+02 -0.15422990895E+03  0.15467455915E+03  0.00000000000E+00 0.  1.
          1    1    3    3  501    0  0.28875524918E+02  0.37271968279E+02 -0.58719840965E+03  0.58908825133E+03  0.00000000000E+00 0.  1.
         21    1    1    2  502  501 -0.34055357806E+02 -0.47784996602E+02 -0.25406030768E+03  0.26074856324E+03  0.00000000000E+00 0.  1.
<mgrwt>
<rscale>  1 0.30000000E+03</rscale>
<asrwt>0</asrwt>
<pdfrwt beam="1">  1        3 0.16405030E-01 0.30000000E+03</pdfrwt>
<pdfrwt beam="2">0</pdfrwt>
<totfact> 0.14236869E+02</totfact>
</mgrwt>
</event>
<event>
 6    1  0.3125838E-002  0.3000000E+03  0.7818608E-02  0.1093470E+00
          1   -1    0    0  502    0  0.00000000000E+00  0.00000000000E+00  0.14384613794E+02  0.14384613794E+02  0.00000000000E+00 0.  1.
         13   -1    0    0    0    0 -0.00000000000E+00 -0.00000000000E+00 -0.10000000000E+04  0.10000000000E+04  0.00000000000E+00 0.  1.
    9000005    2    1    2  501    0  0.88639114658E+02  0.24123086247E+02 -0.81882729891E+03  0.82397168881E+03  0.35188892879E+01 0.  0.
         13    1    3    3    0    0  0.78203200149E+02  0.22335495657E+02 -0.72013622554E+03  0.72471428730E+03  0.00000000000E+00 0.  1.
          3    1    3    3  501    0  0.10435914509E+02  0.17875905910E+01 -0.98691073371E+02  0.99257401512E+02  0.00000000000E+00 0.  1.
         21    1    1    2  502  501 -0.88639114658E+02 -0.24123086247E+02 -0.16678808730E+03  0.19041292499E+03  0.00000000000E+00 0.  1.
<mgrwt>
<rscale>  1 0.30000000E+03</rscale>
<asrwt>0</asrwt>
<pdfrwt beam="1">  1        1 0.52307797E-01 0.30000000E+03</pdfrwt>
<pdfrwt beam="2">0</pdfrwt>
<totfact> 0.83161150E+01</totfact>
</mgrwt>
</event>
<event>
 6    1  0.3125838E-002  0.3000000E+03  0.7818608E-02  0.1093470E+00
          1   -1    0    0  502    0  0.00000000000E+00  0.00000000000E+00  0.29957870107E+01  0.29957870107E+01  0.00000000000E+00 0.  1.
         13   -1    0    0    0    0 -0.00000000000E+00 -0.00000000000E+00 -0.10000000000E+04  0.10000000000E+04  0.00000000000E+00 0.  1.
    9000005    2    1    2  501    0  0.14408999055E+02 -0.36012703415E+02 -0.85208584668E+03  0.85297623177E+03  0.36915837118E+01 0.  0.
         13    1    3    3    0    0  0.30596313555E+01 -0.10190024196E+02 -0.20500194238E+03  0.20527784663E+03  0.00000000000E+00 0.  1.
          3    1    3    3  501    0  0.11349367699E+02 -0.25822679219E+02 -0.64708390430E+03  0.64769838514E+03  0.00000000000E+00 0.  1.
         21    1    1    2  502  501 -0.14408999055E+02  0.36012703415E+02 -0.14491836631E+03  0.15001955524E+03  0.00000000000E+00 0.  1.
<mgrwt>
<rscale>  1 0.30000000E+03</rscale>
<asrwt>0</asrwt>
<pdfrwt beam="1">  1        1 0.10893794E-01 0.30000000E+03</pdfrwt>
<pdfrwt beam="2">0</pdfrwt>
<totfact> 0.67167116E+02</totfact>
</mgrwt>
</event>
<event>
 6    1  0.3125838E-002  0.3000000E+03  0.7818608E-02  0.1093470E+00
          1   -1    0    0  502    0  0.00000000000E+00  0.00000000000E+00  0.37903149687E+01  0.37903149687E+01  0.00000000000E+00 0.  1.
         13   -1    0    0    0    0 -0.00000000000E+00 -0.00000000000E+00 -0.10000000000E+04  0.10000000000E+04  0.00000000000E+00 0.  1.
    9000005    2    1    2  501    0  0.64759261677E+00 -0.34863133290E+02 -0.91163616746E+03  0.91231060513E+03  0.37790157295E+01 0.  0.
         13    1    3    3    0    0  0.20394997485E+01 -0.13625383198E+02 -0.37035778815E+03  0.37061395261E+03  0.00000000000E+00 0.  1.
          1    1    3    3  501    0 -0.13919071318E+01 -0.21237750092E+02 -0.54127837931E+03  0.54169665252E+03  0.00000000000E+00 0.  1.
         21    1    1    2  502  501 -0.64759261677E+00  0.34863133290E+02 -0.84573517568E+02  0.91479709842E+02  0.00000000000E+00 0.  1.
<mgrwt>
<rscale>  1 0.30000000E+03</rscale>
<asrwt>0</asrwt>
<pdfrwt beam="1">  1        1 0.13782993E-01 0.30000000E+03</pdfrwt>
<pdfrwt beam="2">0</pdfrwt>
<totfact> 0.48670918E+02</totfact>
</mgrwt>
</event>
<event>
 6    1  0.3125838E-002  0.3000000E+03  0.7818608E-02  0.1093470E+00
          3   -1    0    0  502    0  0.00000000000E+00  0.00000000000E+00  0.16672628127E+01  0.16672628127E+01  0.00000000000E+00 0.  1.
         13   -1    0    0    0    0 -0.00000000000E+00 -0.00000000000E+00 -0.10000000000E+04  0.10000000000E+04  0.00000000000E+00 0.  1.
    9000005    2    1    2  501    0 -0.35931838911E+02  0.18988053446E+02 -0.46098278866E+03  0.46278266440E+03  0.33196098887E+01 0.  0.
         13    1    3    3    0    0 -0.14247855608E+02  0.76717508761E+01 -0.20224758143E+03  0.20289391648E+03  0.00000000000E+00 0.  1.
          3    1    3    3  501    0 -0.21683983303E+02  0.11316302570E+02 -0.25873520724E+03  0.25988874793E+03  0.00000000000E+00 0.  1.
         21    1    1    2  502  501  0.35931838911E+02 -0.18988053446E+02 -0.53734994853E+03  0.53888459841E+03  0.00000000000E+00 0.  1.
<mgrwt>
<rscale>  1 0.30000000E+03</rscale>
<asrwt>0</asrwt>
<pdfrwt beam="1">  1        3 0.60627866E-02 0.30000000E+03</pdfrwt>
<pdfrwt beam="2">0</pdfrwt>
<totfact> 0.73369393E+02</totfact>
</mgrwt>
</event>
<event>
 6    1  0.3125838E-002  0.3000000E+03  0.7818608E-02  0.1093470E+00
          1   -1    0    0  502    0  0.00000000000E+00  0.00000000000E+00  0.30014976094E+01  0.30014976094E+01  0.00000000000E+00 0.  1.
         13   -1    0    0    0    0 -0.00000000000E+00 -0.00000000000E+00 -0.10000000000E+04  0.10000000000E+04  0.00000000000E+00 0.  1.
    9000005    2    1    2  501    0  0.28404488234E+02 -0.16220991608E+02 -0.90068096065E+03  0.90128127166E+03  0.34354393881E+01 0.  0.
         13    1    3    3    0    0  0.17668319863E+02 -0.86777543392E+01 -0.50838825394E+03  0.50876919098E+03  0.00000000000E+00 0.  1.
          1    1    3    3  501    0  0.10736168372E+02 -0.75432372688E+01 -0.39229270671E+03  0.39251208068E+03  0.00000000000E+00 0.  1.
         21    1    1    2  502  501 -0.28404488234E+02  0.16220991608E+02 -0.96317541738E+02  0.10172022595E+03  0.00000000000E+00 0.  1.
<mgrwt>
<rscale>  1 0.30000000E+03</rscale>
<asrwt>0</asrwt>
<pdfrwt beam="1">  1        1 0.10914560E-01 0.30000000E+03</pdfrwt>
<pdfrwt beam="2">0</pdfrwt>
<totfact> 0.66991493E+02</totfact>
</mgrwt>
</event>
<event>
 6    1  0.3125838E-002  0.3000000E+03  0.7818608E-02  0.1093470E+00
          1   -1    0    0  502    0  0.00000000000E+00  0.00000000000E+00  0.13523165845E+01  0.13523165845E+01  0.00000000000E+00 0.  1.
         13   -1    0    0    0    0 -0.00000000000E+00 -0.00000000000E+00 -0.10000000000E+04  0.10000000000E+04  0.00000000000E+00 0.  1.
    9000005    2    1    2  501    0 -0.14961478343E+02 -0.29229990897E+02 -0.27739234374E+03  0.27934989054E+03  0.34074591221E+01 0.  0.
         13    1    3    3    0    0 -0.11587161470E+02 -0.20487012577E+02 -0.18798717534E+03  0.18945489723E+03  0.00000000000E+00 0.  1.
          3    1    3    3  501    0 -0.33743168728E+01 -0.87429783199E+01 -0.89405168401E+02  0.89894993304E+02  0.00000000000E+00 0.  1.
         21    1    1    2  502  501  0.14961478343E+02  0.29229990897E+02 -0.72125533968E+03  0.72200242605E+03  0.00000000000E+00 0.  1.
<mgrwt>
<rscale>  1 0.30000000E+03</rscale>
<asrwt>0</asrwt>
<pdfrwt beam="1">  1        1 0.49175252E-02 0.30000000E+03</pdfrwt>
<pdfrwt beam="2">0</pdfrwt>
<totfact> 0.20362153E+03</totfact>
</mgrwt>
</event>
<event>
 6    1  0.3125838E-002  0.3000000E+03  0.7818608E-02  0.1093470E+00
          1   -1    0    0  502    0  0.00000000000E+00  0.00000000000E+00  0.14188248111E+01  0.14188248111E+01  0.00000000000E+00 0.  1.
         13   -1    0    0    0    0 -0.00000000000E+00 -0.00000000000E+00 -0.10000000000E+04  0.10000000000E+04  0.00000000000E+00 0.  1.
    9000005    2    1    2  501    0 -0.29861737878E+02 -0.13529691641E+02 -0.74489856326E+03  0.74562663662E+03  0.32304402316E+01 0.  0.
         13    1    3    3    0    0 -0.21280389110E+02 -0.11056295761E+02 -0.52814071968E+03  0.52868489332E+03  0.00000000000E+00 0.  1.
          1    1    3    3  501    0 -0.85813487678E+01 -0.24733958803E+01 -0.21675784358E+03  0.21694174330E+03  0.00000000000E+00 0.  1.
         21    1    1    2  502  501  0.29861737878E+02  0.13529691641E+02 -0.25368261193E+03  0.25579218819E+03  0.00000000000E+00 0.  1.
<mgrwt>
<rscale>  1 0.30000000E+03</rscale>
<asrwt>0</asrwt>
<pdfrwt beam="1">  1        1 0.51593738E-02 0.30000000E+03</pdfrwt>
<pdfrwt beam="2">0</pdfrwt>
<totfact> 0.19033539E+03</totfact>
</mgrwt>
</event>
<event>
 6    1  0.3125838E-002  0.3000000E+03  0.7818608E-02  0.1093470E+00
          1   -1    0    0  502    0  0.00000000000E+00  0.00000000000E+00  0.11827499356E+01  0.11827499356E+01  0.00000000000E+00 0.  1.
         13   -1    0    0    0    0 -0.00000000000E+00 -0.00000000000E+00 -0.10000000000E+04  0.10000000000E+04  0.00000000000E+00 0.  1.
    9000005    2    1    2  501    0 -0.13340210560E+02 -0.27343570844E+02 -0.72644945355E+03  0.72712098927E+03  0.71057991052E+01 0.  0.
         13    1    3    3    0    0 -0.12985944528E+02 -0.25962143280E+02 -0.71404530600E+03  0.71463512835E+03  0.00000000000E+00 0.  1.
          1    1    3    3  501    0 -0.35426603137E+00 -0.13814275639E+01 -0.12404147550E+02  0.12485860923E+02  0.00000000000E+00 0.  1.
         21    1    1    2  502  501  0.13340210560E+02  0.27343570844E+02 -0.27236779651E+03  0.27406176067E+03  0.00000000000E+00 0.  1.
<mgrwt>
<rscale>  1 0.30000000E+03</rscale>
<asrwt>0</asrwt>
<pdfrwt beam="1">  1        1 0.43009179E-02 0.30000000E+03</pdfrwt>
<pdfrwt beam="2">0</pdfrwt>
<totfact> 0.24585987E+03</totfact>
</mgrwt>
</event>
<event>
 6    1  0.3125838E-002  0.3000000E+03  0.7818608E-02  0.1093470E+00
          1   -1    0    0  502    0  0.00000000000E+00  0.00000000000E+00  0.12128796557E+01  0.12128796557E+01  0.00000000000E+00 0.  1.
         13   -1    0    0    0    0 -0.00000000000E+00 -0.00000000000E+00 -0.10000000000E+04  0.10000000000E+04  0.00000000000E+00 0.  1.
    9000005    2    1    2  501    0  0.10404270214E+02 -0.32745502171E+02 -0.57232265033E+03  0.57336657438E+03  0.39364689257E+01 0.  0.
         13    1    3    3    0    0  0.39609136885E+01 -0.73009846768E+01 -0.14795642812E+03  0.14818939853E+03  0.00000000000E+00 0.  1.
          3    1    3    3  501    0  0.64433565252E+01 -0.25444517494E+02 -0.42436622221E+03  0.42517717585E+03  0.00000000000E+00 0.  1.
         21    1    1    2  502  501 -0.10404270214E+02  0.32745502171E+02 -0.42646447001E+03  0.42784630527E+03  0.00000000000E+00 0.  1.
<mgrwt>
<rscale>  1 0.30000000E+03</rscale>
<asrwt>0</asrwt>
<pdfrwt beam="1">  1        1 0.44104808E-02 0.30000000E+03</pdfrwt>
<pdfrwt beam="2">0</pdfrwt>
<totfact> 0.23730582E+03</totfact>
</mgrwt>
</event>
<event>
 6    1  0.3125838E-002  0.3000000E+03  0.7818608E-02  0.1093470E+00
          3   -1    0    0  502    0  0.00000000000E+00  0.00000000000E+00  0.38921992667E+01  0.38921992667E+01  0.00000000000E+00 0.  1.
         13   -1    0    0    0    0 -0.00000000000E+00 -0.00000000000E+00 -0.10000000000E+04  0.10000000000E+04  0.00000000000E+00 0.  1.
    9000005    2    1    2  501    0  0.25663330550E+02 -0.17011767597E+02 -0.93453885526E+03  0.93505367939E+03  0.38084884590E+01 0.  0.
         13    1    3    3    0    0  0.22382666616E+02 -0.13241372662E+02 -0.79594663120E+03  0.79637136904E+03  0.00000000000E+00 0.  1.
          1    1    3    3  501    0  0.32806639347E+01 -0.37703949345E+01 -0.13859222406E+03  0.13868231035E+03  0.00000000000E+00 0.  1.
         21    1    1    2  502  501 -0.25663330550E+02  0.17011767597E+02 -0.61568945475E+02  0.68838519875E+02  0.00000000000E+00 0.  1.
<mgrwt>
<rscale>  1 0.30000000E+03</rscale>
<asrwt>0</asrwt>
<pdfrwt beam="1">  1        3 0.14153482E-01 0.30000000E+03</pdfrwt>
<pdfrwt beam="2">0</pdfrwt>
<totfact> 0.18398742E+02</totfact>
</mgrwt>
</event>
<event>
 6    1  0.3125838E-002  0.3000000E+03  0.7818608E-02  0.1093470E+00
          1   -1    0    0  502    0  0.00000000000E+00  0.00000000000E+00  0.11177357333E+01  0.11177357333E+01  0.00000000000E+00 0.  1.
         13   -1    0    0    0    0 -0.00000000000E+00 -0.00000000000E+00 -0.10000000000E+04  0.10000000000E+04  0.00000000000E+00 0.  1.
    9000005    2    1    2  501    0 -0.23751740360E+02  0.20378328820E+02 -0.67314815188E+03  0.67388367053E+03  0.33683193106E+01 0.  0.
         13    1    3    3    0    0 -0.15872971092E+02  0.15256038781E+02 -0.49076660101E+03  0.49126016997E+03  0.00000000000E+00 0.  1.
          3    1    3    3  501    0 -0.78787692679E+01  0.51222900383E+01 -0.18238155087E+03  0.18262350056E+03  0.00000000000E+00 0.  1.
         21    1    1    2  502  501  0.23751740360E+02 -0.20378328820E+02 -0.32573411239E+03  0.32723406520E+03  0.00000000000E+00 0.  1.
<mgrwt>
<rscale>  1 0.30000000E+03</rscale>
<asrwt>0</asrwt>
<pdfrwt beam="1">  1        1 0.40645021E-02 0.30000000E+03</pdfrwt>
<pdfrwt beam="2">0</pdfrwt>
<totfact> 0.26623084E+03</totfact>
</mgrwt>
</event>
<event>
 6    1  0.3125838E-002  0.3000000E+03  0.7818608E-02  0.1093470E+00
          3   -1    0    0  502    0  0.00000000000E+00  0.00000000000E+00  0.34667915701E+01  0.34667915701E+01  0.00000000000E+00 0.  1.
         13   -1    0    0    0    0 -0.00000000000E+00 -0.00000000000E+00 -0.10000000000E+04  0.10000000000E+04  0.00000000000E+00 0.  1.
    9000005    2    1    2  501    0 -0.40385994648E+02  0.18984623605E+01 -0.86283961792E+03  0.86379356984E+03  0.35344496468E+01 0.  0.
         13    1    3    3    0    0 -0.24262065958E+02  0.19009817104E+01 -0.55154743857E+03  0.55208408650E+03  0.00000000000E+00 0.  1.
          3    1    3    3  501    0 -0.16123928690E+02 -0.25193498647E-02 -0.31129217935E+03  0.31170948334E+03  0.00000000000E+00 0.  1.
         21    1    1    2  502  501  0.40385994648E+02 -0.18984623605E+01 -0.13369359051E+03  0.13967322173E+03  0.00000000000E+00 0.  1.
<mgrwt>
<rscale>  1 0.30000000E+03</rscale>
<asrwt>0</asrwt>
<pdfrwt beam="1">  1        3 0.12606541E-01 0.30000000E+03</pdfrwt>
<pdfrwt beam="2">0</pdfrwt>
<totfact> 0.22413855E+02</totfact>
</mgrwt>
</event>
<event>
 6    1  0.3125838E-002  0.3000000E+03  0.7818608E-02  0.1093470E+00
          3   -1    0    0  502    0  0.00000000000E+00  0.00000000000E+00  0.15380691388E+01  0.15380691388E+01  0.00000000000E+00 0.  1.
         13   -1    0    0    0    0 -0.00000000000E+00 -0.00000000000E+00 -0.10000000000E+04  0.10000000000E+04  0.00000000000E+00 0.  1.
    9000005    2    1    2  501    0  0.15571195889E+02 -0.35920193668E+02 -0.49778688186E+03  0.49933469684E+03  0.32614817649E+01 0.  0.
         13    1    3    3    0    0  0.76357204861E+01 -0.16393236397E+02 -0.24971139245E+03  0.25036537689E+03  0.00000000000E+00 0.  1.
          1    1    3    3  501    0  0.79354754025E+01 -0.19526957271E+02 -0.24807548940E+03  0.24896931994E+03  0.00000000000E+00 0.  1.
         21    1    1    2  502  501 -0.15571195889E+02  0.35920193668E+02 -0.50067504900E+03  0.50220337230E+03  0.00000000000E+00 0.  1.
<mgrwt>
<rscale>  1 0.30000000E+03</rscale>
<asrwt>0</asrwt>
<pdfrwt beam="1">  1        3 0.55929905E-02 0.30000000E+03</pdfrwt>
<pdfrwt beam="2">0</pdfrwt>
<totfact> 0.83188311E+02</totfact>
</mgrwt>
</event>
<event>
 6    1  0.3125838E-002  0.3000000E+03  0.7818608E-02  0.1093470E+00
          1   -1    0    0  502    0  0.00000000000E+00  0.00000000000E+00  0.42693541399E+01  0.42693541399E+01  0.00000000000E+00 0.  1.
         13   -1    0    0    0    0 -0.00000000000E+00 -0.00000000000E+00 -0.10000000000E+04  0.10000000000E+04  0.00000000000E+00 0.  1.
    9000005    2    1    2  501    0 -0.31433756408E+02  0.10114839748E+02 -0.93098750326E+03  0.93159153401E+03  0.58876131815E+01 0.  0.
         13    1    3    3    0    0 -0.27790714057E+02  0.81905040856E+01 -0.85680330907E+03  0.85729301792E+03  0.00000000000E+00 0.  1.
          3    1    3    3  501    0 -0.36430423514E+01  0.19243356627E+01 -0.74184194187E+02  0.74298516085E+02  0.00000000000E+00 0.  1.
         21    1    1    2  502  501  0.31433756408E+02 -0.10114839748E+02 -0.64743142603E+02  0.72677820133E+02  0.00000000000E+00 0.  1.
<mgrwt>
<rscale>  1 0.30000000E+03</rscale>
<asrwt>0</asrwt>
<pdfrwt beam="1">  1        1 0.15524957E-01 0.30000000E+03</pdfrwt>
<pdfrwt beam="2">0</pdfrwt>
<totfact> 0.41402661E+02</totfact>
</mgrwt>
</event>
<event>
 6    1  0.3125838E-002  0.3000000E+03  0.7818608E-02  0.1093470E+00
          3   -1    0    0  502    0  0.00000000000E+00  0.00000000000E+00  0.22338536269E+01  0.22338536269E+01  0.00000000000E+00 0.  1.
         13   -1    0    0    0    0 -0.00000000000E+00 -0.00000000000E+00 -0.10000000000E+04  0.10000000000E+04  0.00000000000E+00 0.  1.
    9000005    2    1    2  501    0 -0.21864089219E+02 -0.21903624490E+02 -0.87747501861E+03  0.87802530891E+03  0.28683848088E+01 0.  0.
         13    1    3    3    0    0 -0.40822551886E+01 -0.34063854579E+01 -0.17999055776E+03  0.18006906773E+03  0.00000000000E+00 0.  1.
          1    1    3    3  501    0 -0.17781834031E+02 -0.18497239033E+02 -0.69748446085E+03  0.69795624118E+03  0.00000000000E+00 0.  1.
         21    1    1    2  502  501  0.21864089219E+02  0.21903624490E+02 -0.12029112776E+03  0.12420854472E+03  0.00000000000E+00 0.  1.
<mgrwt>
<rscale>  1 0.30000000E+03</rscale>
<asrwt>0</asrwt>
<pdfrwt beam="1">  1        3 0.81231212E-02 0.30000000E+03</pdfrwt>
<pdfrwt beam="2">0</pdfrwt>
<totfact> 0.46249055E+02</totfact>
</mgrwt>
</event>
<event>
 6    1  0.3125838E-002  0.3000000E+03  0.7818608E-02  0.1093470E+00
          3   -1    0    0  502    0  0.00000000000E+00  0.00000000000E+00  0.36711840655E+01  0.36711840655E+01  0.00000000000E+00 0.  1.
         13   -1    0    0    0    0 -0.00000000000E+00 -0.00000000000E+00 -0.10000000000E+04  0.10000000000E+04  0.00000000000E+00 0.  1.
    9000005    2    1    2  501    0 -0.98957025661E+01  0.33068900472E+02 -0.91048691316E+03  0.91114924408E+03  0.38792826522E+01 0.  0.
         13    1    3    3    0    0 -0.77600656730E+01  0.29998423430E+02 -0.80578424810E+03  0.80637979793E+03  0.00000000000E+00 0.  1.
          3    1    3    3  501    0 -0.21356368931E+01  0.30704770420E+01 -0.10470266507E+03  0.10476944615E+03  0.00000000000E+00 0.  1.
         21    1    1    2  502  501  0.98957025661E+01 -0.33068900472E+02 -0.85841902770E+02  0.92521939987E+02  0.00000000000E+00 0.  1.
<mgrwt>
<rscale>  1 0.30000000E+03</rscale>
<asrwt>0</asrwt>
<pdfrwt beam="1">  1        3 0.13349788E-01 0.30000000E+03</pdfrwt>
<pdfrwt beam="2">0</pdfrwt>
<totfact> 0.20334727E+02</totfact>
</mgrwt>
</event>
<event>
 6    1  0.3125838E-002  0.3000000E+03  0.7818608E-02  0.1093470E+00
          3   -1    0    0  502    0  0.00000000000E+00  0.00000000000E+00  0.15250309952E+01  0.15250309952E+01  0.00000000000E+00 0.  1.
         13   -1    0    0    0    0 -0.00000000000E+00 -0.00000000000E+00 -0.10000000000E+04  0.10000000000E+04  0.00000000000E+00 0.  1.
    9000005    2    1    2  501    0  0.33298287405E+02  0.77919853874E+01 -0.74016794126E+03  0.74096407544E+03  0.31126893523E+01 0.  0.
         13    1    3    3    0    0  0.26533744812E+01  0.15028510139E+01 -0.61854753271E+02  0.61929875339E+02  0.00000000000E+00 0.  1.
          3    1    3    3  501    0  0.30644912923E+02  0.62891343735E+01 -0.67831318799E+03  0.67903420010E+03  0.00000000000E+00 0.  1.
         21    1    1    2  502  501 -0.33298287405E+02 -0.77919853874E+01 -0.25830702774E+03  0.26056095556E+03  0.00000000000E+00 0.  1.
<mgrwt>
<rscale>  1 0.30000000E+03</rscale>
<asrwt>0</asrwt>
<pdfrwt beam="1">  1        3 0.55455789E-02 0.30000000E+03</pdfrwt>
<pdfrwt beam="2">0</pdfrwt>
<totfact> 0.84294629E+02</totfact>
</mgrwt>
</event>
<event>
 6    1  0.3125838E-002  0.3000000E+03  0.7818608E-02  0.1093470E+00
          1   -1    0    0  502    0  0.00000000000E+00  0.00000000000E+00  0.22602483089E+01  0.22602483089E+01  0.00000000000E+00 0.  1.
         13   -1    0    0    0    0 -0.00000000000E+00 -0.00000000000E+00 -0.10000000000E+04  0.10000000000E+04  0.00000000000E+00 0.  1.
    9000005    2    1    2  501    0 -0.68093298150E+01 -0.38082030311E+02 -0.78976286012E+03  0.79071593750E+03  0.31161831435E+01 0.  0.
         13    1    3    3    0    0 -0.40520711860E+01 -0.14558123011E+02 -0.31835028626E+03  0.31870874319E+03  0.00000000000E+00 0.  1.
          3    1    3    3  501    0 -0.27572586290E+01 -0.23523907300E+02 -0.47141257386E+03  0.47200719431E+03  0.00000000000E+00 0.  1.
         21    1    1    2  502  501  0.68093298150E+01  0.38082030311E+02 -0.20797689158E+03  0.21154431081E+03  0.00000000000E+00 0.  1.
<mgrwt>
<rscale>  1 0.30000000E+03</rscale>
<asrwt>0</asrwt>
<pdfrwt beam="1">  1        1 0.82191021E-02 0.30000000E+03</pdfrwt>
<pdfrwt beam="2">0</pdfrwt>
<totfact> 0.99183676E+02</totfact>
</mgrwt>
</event>
<event>
 6    1  0.3125838E-002  0.3000000E+03  0.7818608E-02  0.1093470E+00
          1   -1    0    0  502    0  0.00000000000E+00  0.00000000000E+00  0.53681157905E+01  0.53681157905E+01  0.00000000000E+00 0.  1.
         13   -1    0    0    0    0 -0.00000000000E+00 -0.00000000000E+00 -0.10000000000E+04  0.10000000000E+04  0.00000000000E+00 0.  1.
    9000005    2    1    2  501    0  0.11228863306E+02  0.32113545188E+02 -0.94236009523E+03  0.94300059958E+03  0.70862233339E+01 0.  0.
         13    1    3    3    0    0  0.25119692525E+01  0.83117290707E+01 -0.16614434553E+03  0.16637108637E+03  0.00000000000E+00 0.  1.
          3    1    3    3  501    0  0.87168940538E+01  0.23801816117E+02 -0.77621574971E+03  0.77662951321E+03  0.00000000000E+00 0.  1.
         21    1    1    2  502  501 -0.11228863306E+02 -0.32113545188E+02 -0.52271788975E+02  0.62367516211E+02  0.00000000000E+00 0.  1.
<mgrwt>
<rscale>  1 0.30000000E+03</rscale>
<asrwt>0</asrwt>
<pdfrwt beam="1">  1        1 0.19520462E-01 0.30000000E+03</pdfrwt>
<pdfrwt beam="2">0</pdfrwt>
<totfact> 0.30413482E+02</totfact>
</mgrwt>
</event>
<event>
 6    1  0.3125838E-002  0.3000000E+03  0.7818608E-02  0.1093470E+00
          1   -1    0    0  502    0  0.00000000000E+00  0.00000000000E+00  0.17129139703E+02  0.17129139703E+02  0.00000000000E+00 0.  1.
         13   -1    0    0    0    0 -0.00000000000E+00 -0.00000000000E+00 -0.10000000000E+04  0.10000000000E+04  0.00000000000E+00 0.  1.
    9000005    2    1    2  501    0 -0.76485119128E+02 -0.76449312054E+02 -0.77779082931E+03  0.78528373891E+03  0.41839773217E+01 0.  0.
         13    1    3    3    0    0 -0.31877282399E+02 -0.29824019683E+02 -0.30331110669E+03  0.30643638936E+03  0.00000000000E+00 0.  1.
          1    1    3    3  501    0 -0.44607836730E+02 -0.46625292371E+02 -0.47447972263E+03  0.47884734955E+03  0.00000000000E+00 0.  1.
         21    1    1    2  502  501  0.76485119128E+02  0.76449312054E+02 -0.20508003098E+03  0.23184540079E+03  0.00000000000E+00 0.  1.
<mgrwt>
<rscale>  1 0.30000000E+03</rscale>
<asrwt>0</asrwt>
<pdfrwt beam="1">  1        1 0.62287912E-01 0.30000000E+03</pdfrwt>
<pdfrwt beam="2">0</pdfrwt>
<totfact> 0.65971717E+01</totfact>
</mgrwt>
</event>
<event>
 6    1  0.3125838E-002  0.3000000E+03  0.7818608E-02  0.1093470E+00
          1   -1    0    0  502    0  0.00000000000E+00  0.00000000000E+00  0.21064658131E+02  0.21064658131E+02  0.00000000000E+00 0.  1.
         13   -1    0    0    0    0 -0.00000000000E+00 -0.00000000000E+00 -0.10000000000E+04  0.10000000000E+04  0.00000000000E+00 0.  1.
    9000005    2    1    2  501    0 -0.10131934971E+03  0.10213225703E+02 -0.85321226537E+03  0.85927401387E+03  0.32772751217E+01 0.  0.
         13    1    3    3    0    0 -0.50234910435E+02  0.44768497449E+01 -0.43545188809E+03  0.43836278953E+03  0.00000000000E+00 0.  1.
          1    1    3    3  501    0 -0.51084439277E+02  0.57363759579E+01 -0.41776037729E+03  0.42091122434E+03  0.00000000000E+00 0.  1.
         21    1    1    2  502  501  0.10131934971E+03 -0.10213225703E+02 -0.12572307650E+03  0.16179064426E+03  0.00000000000E+00 0.  1.
<mgrwt>
<rscale>  1 0.30000000E+03</rscale>
<asrwt>0</asrwt>
<pdfrwt beam="1">  1        1 0.76598918E-01 0.30000000E+03</pdfrwt>
<pdfrwt beam="2">0</pdfrwt>
<totfact> 0.49862435E+01</totfact>
</mgrwt>
</event>
<event>
 6    1  0.3125838E-002  0.3000000E+03  0.7818608E-02  0.1093470E+00
          1   -1    0    0  502    0  0.00000000000E+00  0.00000000000E+00  0.26536509565E+01  0.26536509565E+01  0.00000000000E+00 0.  1.
         13   -1    0    0    0    0 -0.00000000000E+00 -0.00000000000E+00 -0.10000000000E+04  0.10000000000E+04  0.00000000000E+00 0.  1.
    9000005    2    1    2  501    0  0.11001172956E+02 -0.30289319385E+02 -0.88950705821E+03  0.89010241230E+03  0.45857502329E+01 0.  0.
         13    1    3    3    0    0  0.31848481417E+01 -0.15436345166E+02 -0.43806498327E+03  0.43834843855E+03  0.00000000000E+00 0.  1.
          1    1    3    3  501    0  0.78163248143E+01 -0.14852974219E+02 -0.45144207493E+03  0.45175397375E+03  0.00000000000E+00 0.  1.
         21    1    1    2  502  501 -0.11001172956E+02  0.30289319385E+02 -0.10783929084E+03  0.11255123866E+03  0.00000000000E+00 0.  1.
<mgrwt>
<rscale>  1 0.30000000E+03</rscale>
<asrwt>0</asrwt>
<pdfrwt beam="1">  1        1 0.96496602E-02 0.30000000E+03</pdfrwt>
<pdfrwt beam="2">0</pdfrwt>
<totfact> 0.79391056E+02</totfact>
</mgrwt>
</event>
<event>
 6    1  0.3125838E-002  0.3000000E+03  0.7818608E-02  0.1093470E+00
          1   -1    0    0  502    0  0.00000000000E+00  0.00000000000E+00  0.18894293768E+02  0.18894293768E+02  0.00000000000E+00 0.  1.
         13   -1    0    0    0    0 -0.00000000000E+00 -0.00000000000E+00 -0.10000000000E+04  0.10000000000E+04  0.00000000000E+00 0.  1.
    9000005    2    1    2  501    0 -0.57767614290E+02 -0.66423297534E+01 -0.95216020084E+03  0.95394000147E+03  0.33556718230E+01 0.  0.
         13    1    3    3    0    0 -0.39511904595E+01  0.34765203792E+00 -0.69462758626E+02  0.69575912527E+02  0.00000000000E+00 0.  1.
          3    1    3    3  501    0 -0.53816423831E+02 -0.69899817913E+01 -0.88269744222E+03  0.88436408895E+03  0.00000000000E+00 0.  1.
         21    1    1    2  502  501  0.57767614290E+02  0.66423297534E+01 -0.28945505388E+02  0.64954292295E+02  0.00000000000E+00 0.  1.
<mgrwt>
<rscale>  1 0.30000000E+03</rscale>
<asrwt>0</asrwt>
<pdfrwt beam="1">  1        1 0.68706668E-01 0.30000000E+03</pdfrwt>
<pdfrwt beam="2">0</pdfrwt>
<totfact> 0.57827779E+01</totfact>
</mgrwt>
</event>
<event>
 6    1  0.3125838E-002  0.3000000E+03  0.7818608E-02  0.1093470E+00
          1   -1    0    0  502    0  0.00000000000E+00  0.00000000000E+00  0.66474255698E+01  0.66474255698E+01  0.00000000000E+00 0.  1.
         13   -1    0    0    0    0 -0.00000000000E+00 -0.00000000000E+00 -0.10000000000E+04  0.10000000000E+04  0.00000000000E+00 0.  1.
    9000005    2    1    2  501    0 -0.43531273630E+02  0.13095498609E+02 -0.91446633148E+03  0.91560071671E+03  0.30882290284E+01 0.  0.
         13    1    3    3    0    0 -0.25960884150E+02  0.66038197349E+01 -0.55785265014E+03  0.55849544063E+03  0.00000000000E+00 0.  1.
          1    1    3    3  501    0 -0.17570389481E+02  0.64916788743E+01 -0.35661368134E+03  0.35710527608E+03  0.00000000000E+00 0.  1.
         21    1    1    2  502  501  0.43531273630E+02 -0.13095498609E+02 -0.78886242950E+02  0.91046708861E+02  0.00000000000E+00 0.  1.
<mgrwt>
<rscale>  1 0.30000000E+03</rscale>
<asrwt>0</asrwt>
<pdfrwt beam="1">  1        1 0.24172508E-01 0.30000000E+03</pdfrwt>
<pdfrwt beam="2">0</pdfrwt>
<totfact> 0.22889585E+02</totfact>
</mgrwt>
</event>
<event>
 6    1  0.3125838E-002  0.3000000E+03  0.7818608E-02  0.1093470E+00
          1   -1    0    0  502    0  0.00000000000E+00  0.00000000000E+00  0.15707717544E+01  0.15707717544E+01  0.00000000000E+00 0.  1.
         13   -1    0    0    0    0 -0.00000000000E+00 -0.00000000000E+00 -0.10000000000E+04  0.10000000000E+04  0.00000000000E+00 0.  1.
    9000005    2    1    2  501    0  0.37207230768E+02  0.37195214076E+01 -0.65886548578E+03  0.65995439619E+03  0.61533591507E+01 0.  0.
         13    1    3    3    0    0  0.14630083737E+02 -0.13860617680E+01 -0.23909390768E+03  0.23954510475E+03  0.00000000000E+00 0.  1.
          3    1    3    3  501    0  0.22577147032E+02  0.51055831756E+01 -0.41977157810E+03  0.42040929144E+03  0.00000000000E+00 0.  1.
         21    1    1    2  502  501 -0.37207230768E+02 -0.37195214076E+01 -0.33956374246E+03  0.34161637557E+03  0.00000000000E+00 0.  1.
<mgrwt>
<rscale>  1 0.30000000E+03</rscale>
<asrwt>0</asrwt>
<pdfrwt beam="1">  1        1 0.57119093E-02 0.30000000E+03</pdfrwt>
<pdfrwt beam="2">0</pdfrwt>
<totfact> 0.16499377E+03</totfact>
</mgrwt>
</event>
<event>
 6    1  0.3125838E-002  0.3000000E+03  0.7818608E-02  0.1093470E+00
          3   -1    0    0  502    0  0.00000000000E+00  0.00000000000E+00  0.10651821680E+01  0.10651821680E+01  0.00000000000E+00 0.  1.
         13   -1    0    0    0    0 -0.00000000000E+00 -0.00000000000E+00 -0.10000000000E+04  0.10000000000E+04  0.00000000000E+00 0.  1.
    9000005    2    1    2  501    0 -0.27284798955E+02  0.14188182305E+02 -0.66435509774E+03  0.66507507239E+03  0.33750928247E+01 0.  0.
         13    1    3    3    0    0 -0.34858653266E+00  0.49582050230E+00 -0.71264015333E+01  0.71521290085E+01  0.00000000000E+00 0.  1.
          3    1    3    3  501    0 -0.26936212422E+02  0.13692361803E+02 -0.65722869621E+03  0.65792294338E+03  0.00000000000E+00 0.  1.
         21    1    1    2  502  501  0.27284798955E+02 -0.14188182305E+02 -0.33457972009E+03  0.33599010978E+03  0.00000000000E+00 0.  1.
<mgrwt>
<rscale>  1 0.30000000E+03</rscale>
<asrwt>0</asrwt>
<pdfrwt beam="1">  1        3 0.38733979E-02 0.30000000E+03</pdfrwt>
<pdfrwt beam="2">0</pdfrwt>
<totfact> 0.14659464E+03</totfact>
</mgrwt>
</event>
<event>
 6    1  0.3125838E-002  0.3000000E+03  0.7818608E-02  0.1093470E+00
          1   -1    0    0  502    0  0.00000000000E+00  0.00000000000E+00  0.13900385834E+01  0.13900385834E+01  0.00000000000E+00 0.  1.
         13   -1    0    0    0    0 -0.00000000000E+00 -0.00000000000E+00 -0.10000000000E+04  0.10000000000E+04  0.00000000000E+00 0.  1.
    9000005    2    1    2  501    0 -0.29131217931E+02  0.15301325218E+02 -0.73296799418E+03  0.73371782641E+03  0.41243048569E+01 0.  0.
         13    1    3    3    0    0 -0.66872668401E+01  0.17276463917E+01 -0.16506861504E+03  0.16521305024E+03  0.00000000000E+00 0.  1.
          1    1    3    3  501    0 -0.22443951091E+02  0.13573678826E+02 -0.56789937914E+03  0.56850477617E+03  0.00000000000E+00 0.  1.
         21    1    1    2  502  501  0.29131217931E+02 -0.15301325218E+02 -0.26564196724E+03  0.26767221217E+03  0.00000000000E+00 0.  1.
<mgrwt>
<rscale>  1 0.30000000E+03</rscale>
<asrwt>0</asrwt>
<pdfrwt beam="1">  1        1 0.50546964E-02 0.30000000E+03</pdfrwt>
<pdfrwt beam="2">0</pdfrwt>
<totfact> 0.19589746E+03</totfact>
</mgrwt>
</event>
<event>
 6    1  0.3125838E-002  0.3000000E+03  0.7818608E-02  0.1093470E+00
          3   -1    0    0  502    0  0.00000000000E+00  0.00000000000E+00  0.45084649050E+01  0.45084649050E+01  0.00000000000E+00 0.  1.
         13   -1    0    0    0    0 -0.00000000000E+00 -0.00000000000E+00 -0.10000000000E+04  0.10000000000E+04  0.00000000000E+00 0.  1.
    9000005    2    1    2  501    0  0.34069614403E+02 -0.14824203756E+01 -0.93034124117E+03  0.93097277973E+03  0.35433571840E+01 0.  0.
         13    1    3    3    0    0  0.36921436375E+01 -0.11884375916E+01 -0.94017108083E+02  0.94097082425E+02  0.00000000000E+00 0.  1.
          1    1    3    3  501    0  0.30377470765E+02 -0.29398278398E+00 -0.83632413309E+03  0.83687569730E+03  0.00000000000E+00 0.  1.
         21    1    1    2  502  501 -0.34069614403E+02  0.14824203756E+01 -0.65150293926E+02  0.73535685176E+02  0.00000000000E+00 0.  1.
<mgrwt>
<rscale>  1 0.30000000E+03</rscale>
<asrwt>0</asrwt>
<pdfrwt beam="1">  1        3 0.16394452E-01 0.30000000E+03</pdfrwt>
<pdfrwt beam="2">0</pdfrwt>
<totfact> 0.14253007E+02</totfact>
</mgrwt>
</event>
<event>
 6    1  0.3125838E-002  0.3000000E+03  0.7818608E-02  0.1093470E+00
          3   -1    0    0  502    0  0.00000000000E+00  0.00000000000E+00  0.20472687194E+01  0.20472687194E+01  0.00000000000E+00 0.  1.
         13   -1    0    0    0    0 -0.00000000000E+00 -0.00000000000E+00 -0.10000000000E+04  0.10000000000E+04  0.00000000000E+00 0.  1.
    9000005    2    1    2  501    0  0.19920964397E+02  0.28030268657E+02 -0.82419621214E+03  0.82492056625E+03  0.34646406164E+01 0.  0.
         13    1    3    3    0    0  0.17946221432E+01  0.43155774965E+01 -0.12578360190E+03  0.12587040711E+03  0.00000000000E+00 0.  1.
          3    1    3    3  501    0  0.18126342253E+02  0.23714691160E+02 -0.69841261023E+03  0.69905015914E+03  0.00000000000E+00 0.  1.
         21    1    1    2  502  501 -0.19920964397E+02 -0.28030268657E+02 -0.17375651914E+03  0.17712670247E+03  0.00000000000E+00 0.  1.
<mgrwt>
<rscale>  1 0.30000000E+03</rscale>
<asrwt>0</asrwt>
<pdfrwt beam="1">  1        3 0.74446292E-02 0.30000000E+03</pdfrwt>
<pdfrwt beam="2">0</pdfrwt>
<totfact> 0.53140386E+02</totfact>
</mgrwt>
</event>
<event>
 6    1  0.3125838E-002  0.3000000E+03  0.7818608E-02  0.1093470E+00
          1   -1    0    0  502    0  0.00000000000E+00  0.00000000000E+00  0.68396651743E+01  0.68396651743E+01  0.00000000000E+00 0.  1.
         13   -1    0    0    0    0 -0.00000000000E+00 -0.00000000000E+00 -0.10000000000E+04  0.10000000000E+04  0.00000000000E+00 0.  1.
    9000005    2    1    2  501    0  0.51563358080E+02  0.21943579528E+02 -0.86666821737E+03  0.86849026562E+03  0.46088930752E+01 0.  0.
         13    1    3    3    0    0  0.86733291109E+01  0.54733236132E+01 -0.14784958287E+03  0.14820486855E+03  0.00000000000E+00 0.  1.
          1    1    3    3  501    0  0.42890028969E+02  0.16470255915E+02 -0.71881863451E+03  0.72028539707E+03  0.00000000000E+00 0.  1.
         21    1    1    2  502  501 -0.51563358080E+02 -0.21943579528E+02 -0.12649211745E+03  0.13834939955E+03  0.00000000000E+00 0.  1.
<mgrwt>
<rscale>  1 0.30000000E+03</rscale>
<asrwt>0</asrwt>
<pdfrwt beam="1">  1        1 0.24871562E-01 0.30000000E+03</pdfrwt>
<pdfrwt beam="2">0</pdfrwt>
<totfact> 0.22043075E+02</totfact>
</mgrwt>
</event>
<event>
 6    1  0.3125838E-002  0.3000000E+03  0.7818608E-02  0.1093470E+00
          1   -1    0    0  502    0  0.00000000000E+00  0.00000000000E+00  0.14604265507E+02  0.14604265507E+02  0.00000000000E+00 0.  1.
         13   -1    0    0    0    0 -0.00000000000E+00 -0.00000000000E+00 -0.10000000000E+04  0.10000000000E+04  0.00000000000E+00 0.  1.
    9000005    2    1    2  501    0 -0.54152564922E+02  0.82353536819E+02 -0.78614044107E+03  0.79230429414E+03  0.38335501597E+01 0.  0.
         13    1    3    3    0    0 -0.52252245076E+01  0.10125395060E+02 -0.92886284158E+02  0.93582521771E+02  0.00000000000E+00 0.  1.
          1    1    3    3  501    0 -0.48927340414E+02  0.72228141759E+02 -0.69325415691E+03  0.69872177236E+03  0.00000000000E+00 0.  1.
         21    1    1    2  502  501  0.54152564922E+02 -0.82353536819E+02 -0.19925529342E+03  0.22229997137E+03  0.00000000000E+00 0.  1.
<mgrwt>
<rscale>  1 0.30000000E+03</rscale>
<asrwt>0</asrwt>
<pdfrwt beam="1">  1        1 0.53106532E-01 0.30000000E+03</pdfrwt>
<pdfrwt beam="2">0</pdfrwt>
<totfact> 0.81514475E+01</totfact>
</mgrwt>
</event>
<event>
 6    1  0.3125838E-002  0.3000000E+03  0.7818608E-02  0.1093470E+00
          1   -1    0    0  502    0  0.00000000000E+00  0.00000000000E+00  0.13425611461E+01  0.13425611461E+01  0.00000000000E+00 0.  1.
         13   -1    0    0    0    0 -0.00000000000E+00 -0.00000000000E+00 -0.10000000000E+04  0.10000000000E+04  0.00000000000E+00 0.  1.
    9000005    2    1    2  501    0 -0.14392861208E+02  0.27848176490E+02 -0.75512772397E+03  0.75580356746E+03  0.62030390949E+01 0.  0.
         13    1    3    3    0    0 -0.59556733427E+01  0.11526746795E+02 -0.24268697762E+03  0.24303354715E+03  0.00000000000E+00 0.  1.
          3    1    3    3  501    0 -0.84371878653E+01  0.16321429695E+02 -0.51244074635E+03  0.51277002031E+03  0.00000000000E+00 0.  1.
         21    1    1    2  502  501  0.14392861208E+02 -0.27848176490E+02 -0.24352971488E+03  0.24553899368E+03  0.00000000000E+00 0.  1.
<mgrwt>
<rscale>  1 0.30000000E+03</rscale>
<asrwt>0</asrwt>
<pdfrwt beam="1">  1        1 0.48820508E-02 0.30000000E+03</pdfrwt>
<pdfrwt beam="2">0</pdfrwt>
<totfact> 0.20570471E+03</totfact>
</mgrwt>
</event>
<event>
 6    1  0.3125838E-002  0.3000000E+03  0.7818608E-02  0.1093470E+00
          3   -1    0    0  502    0  0.00000000000E+00  0.00000000000E+00  0.93566517850E+00  0.93566517850E+00  0.00000000000E+00 0.  1.
         13   -1    0    0    0    0 -0.00000000000E+00 -0.00000000000E+00 -0.10000000000E+04  0.10000000000E+04  0.00000000000E+00 0.  1.
    9000005    2    1    2  501    0  0.80420113234E+01  0.29112869261E+02 -0.48607024267E+03  0.48705321589E+03  0.66574167954E+01 0.  0.
         13    1    3    3    0    0  0.50978903952E+01  0.25516724087E+02 -0.43233784808E+03  0.43312019877E+03  0.00000000000E+00 0.  1.
          1    1    3    3  501    0  0.29441209283E+01  0.35961451739E+01 -0.53732394583E+02  0.53933017121E+02  0.00000000000E+00 0.  1.
         21    1    1    2  502  501 -0.80420113234E+01 -0.29112869261E+02 -0.51299409216E+03  0.51388244929E+03  0.00000000000E+00 0.  1.
<mgrwt>
<rscale>  1 0.30000000E+03</rscale>
<asrwt>0</asrwt>
<pdfrwt beam="1">  1        3 0.34024260E-02 0.30000000E+03</pdfrwt>
<pdfrwt beam="2">0</pdfrwt>
<totfact> 0.17902074E+03</totfact>
</mgrwt>
</event>
<event>
 6    1  0.3125838E-002  0.3000000E+03  0.7818608E-02  0.1093470E+00
          3   -1    0    0  502    0  0.00000000000E+00  0.00000000000E+00  0.13381300247E+01  0.13381300247E+01  0.00000000000E+00 0.  1.
         13   -1    0    0    0    0 -0.00000000000E+00 -0.00000000000E+00 -0.10000000000E+04  0.10000000000E+04  0.00000000000E+00 0.  1.
    9000005    2    1    2  501    0 -0.30416891754E+02  0.18720067745E+02 -0.60332012603E+03  0.60438634108E+03  0.34708171150E+01 0.  0.
         13    1    3    3    0    0 -0.11080869355E+02  0.80063194224E+01 -0.25370664457E+03  0.25407469043E+03  0.00000000000E+00 0.  1.
          3    1    3    3  501    0 -0.19336022399E+02  0.10713748323E+02 -0.34961348146E+03  0.35031165066E+03  0.00000000000E+00 0.  1.
         21    1    1    2  502  501  0.30416891754E+02 -0.18720067745E+02 -0.39534174394E+03  0.39695178894E+03  0.00000000000E+00 0.  1.
<mgrwt>
<rscale>  1 0.30000000E+03</rscale>
<asrwt>0</asrwt>
<pdfrwt beam="1">  1        3 0.48659376E-02 0.30000000E+03</pdfrwt>
<pdfrwt beam="2">0</pdfrwt>
<totfact> 0.10317798E+03</totfact>
</mgrwt>
</event>
<event>
 6    1  0.3125838E-002  0.3000000E+03  0.7818608E-02  0.1093470E+00
          3   -1    0    0  502    0  0.00000000000E+00  0.00000000000E+00  0.20429385946E+01  0.20429385946E+01  0.00000000000E+00 0.  1.
         13   -1    0    0    0    0 -0.00000000000E+00 -0.00000000000E+00 -0.10000000000E+04  0.10000000000E+04  0.00000000000E+00 0.  1.
    9000005    2    1    2  501    0 -0.26623310227E+02  0.35437804461E+02 -0.59270501999E+03  0.59437413220E+03  0.40901930975E+01 0.  0.
         13    1    3    3    0    0 -0.25602600340E+02  0.32467988287E+02 -0.54556835607E+03  0.54713297703E+03  0.00000000000E+00 0.  1.
          1    1    3    3  501    0 -0.10207098866E+01  0.29698161741E+01 -0.47136663914E+02  0.47241155169E+02  0.00000000000E+00 0.  1.
         21    1    1    2  502  501  0.26623310227E+02 -0.35437804461E+02 -0.40525204142E+03  0.40766880639E+03  0.00000000000E+00 0.  1.
<mgrwt>
<rscale>  1 0.30000000E+03</rscale>
<asrwt>0</asrwt>
<pdfrwt beam="1">  1        3 0.74288833E-02 0.30000000E+03</pdfrwt>
<pdfrwt beam="2">0</pdfrwt>
<totfact> 0.53319226E+02</totfact>
</mgrwt>
</event>
<event>
 6    1  0.3125838E-002  0.3000000E+03  0.7818608E-02  0.1093470E+00
          1   -1    0    0  502    0  0.00000000000E+00  0.00000000000E+00  0.12282013265E+02  0.12282013265E+02  0.00000000000E+00 0.  1.
         13   -1    0    0    0    0 -0.00000000000E+00 -0.00000000000E+00 -0.10000000000E+04  0.10000000000E+04  0.00000000000E+00 0.  1.
    9000005    2    1    2  501    0  0.34308461608E+02  0.15090201449E+02 -0.97016649091E+03  0.97089554539E+03  0.32179574284E+01 0.  0.
         13    1    3    3    0    0  0.21585420745E+02  0.11070473607E+02 -0.63961231175E+03  0.64007217961E+03  0.00000000000E+00 0.  1.
          1    1    3    3  501    0  0.12723040862E+02  0.40197278421E+01 -0.33055417916E+03  0.33082336578E+03  0.00000000000E+00 0.  1.
         21    1    1    2  502  501 -0.34308461608E+02 -0.15090201449E+02 -0.17551495825E+02  0.41386467877E+02  0.00000000000E+00 0.  1.
<mgrwt>
<rscale>  1 0.30000000E+03</rscale>
<asrwt>0</asrwt>
<pdfrwt beam="1">  1        1 0.44661961E-01 0.30000000E+03</pdfrwt>
<pdfrwt beam="2">0</pdfrwt>
<totfact> 0.10232506E+02</totfact>
</mgrwt>
</event>
<event>
 6    1  0.3125838E-002  0.3000000E+03  0.7818608E-02  0.1093470E+00
          1   -1    0    0  502    0  0.00000000000E+00  0.00000000000E+00  0.36296717349E+01  0.36296717349E+01  0.00000000000E+00 0.  1.
         13   -1    0    0    0    0 -0.00000000000E+00 -0.00000000000E+00 -0.10000000000E+04  0.10000000000E+04  0.00000000000E+00 0.  1.
    9000005    2    1    2  501    0  0.13185649038E+02  0.29900967281E+02 -0.91969133207E+03  0.92027742136E+03  0.32336971513E+01 0.  0.
         13    1    3    3    0    0  0.46685615016E+01  0.11723746183E+02 -0.31370981045E+03  0.31396351199E+03  0.00000000000E+00 0.  1.
          1    1    3    3  501    0  0.85170875363E+01  0.18177221097E+02 -0.60598152163E+03  0.60631390937E+03  0.00000000000E+00 0.  1.
         21    1    1    2  502  501 -0.13185649038E+02 -0.29900967281E+02 -0.76678996192E+02  0.83352250370E+02  0.00000000000E+00 0.  1.
<mgrwt>
<rscale>  1 0.30000000E+03</rscale>
<asrwt>0</asrwt>
<pdfrwt beam="1">  1        1 0.13198834E-01 0.30000000E+03</pdfrwt>
<pdfrwt beam="2">0</pdfrwt>
<totfact> 0.51632173E+02</totfact>
</mgrwt>
</event>
<event>
 6    1  0.3125838E-002  0.3000000E+03  0.7818608E-02  0.1093470E+00
          1   -1    0    0  502    0  0.00000000000E+00  0.00000000000E+00  0.13661872849E+01  0.13661872849E+01  0.00000000000E+00 0.  1.
         13   -1    0    0    0    0 -0.00000000000E+00 -0.00000000000E+00 -0.10000000000E+04  0.10000000000E+04  0.00000000000E+00 0.  1.
    9000005    2    1    2  501    0 -0.32824411538E+02  0.16842619196E+02 -0.48680991258E+03  0.48821433787E+03  0.28693023549E+01 0.  0.
         13    1    3    3    0    0 -0.48497689909E+01  0.14314271790E+01 -0.70394426550E+02  0.70575806991E+02  0.00000000000E+00 0.  1.
          3    1    3    3  501    0 -0.27974642548E+02  0.15411192017E+02 -0.41641548603E+03  0.41763853087E+03  0.00000000000E+00 0.  1.
         21    1    1    2  502  501  0.32824411538E+02 -0.16842619196E+02 -0.51182390013E+03  0.51315184942E+03  0.00000000000E+00 0.  1.
<mgrwt>
<rscale>  1 0.30000000E+03</rscale>
<asrwt>0</asrwt>
<pdfrwt beam="1">  1        1 0.49679642E-02 0.30000000E+03</pdfrwt>
<pdfrwt beam="2">0</pdfrwt>
<totfact> 0.20072137E+03</totfact>
</mgrwt>
</event>
<event>
 6    1  0.3125838E-002  0.3000000E+03  0.7818608E-02  0.1093470E+00
          1   -1    0    0  502    0  0.00000000000E+00  0.00000000000E+00  0.16731147223E+01  0.16731147223E+01  0.00000000000E+00 0.  1.
         13   -1    0    0    0    0 -0.00000000000E+00 -0.00000000000E+00 -0.10000000000E+04  0.10000000000E+04  0.00000000000E+00 0.  1.
    9000005    2    1    2  501    0  0.22377073329E+02 -0.33458714448E+02 -0.58464144282E+03  0.58603401131E+03  0.31665070749E+01 0.  0.
         13    1    3    3    0    0  0.25948641867E+01 -0.50606028847E+01 -0.70468956233E+02  0.70698067967E+02  0.00000000000E+00 0.  1.
          3    1    3    3  501    0  0.19782209142E+02 -0.28398111564E+02 -0.51417248659E+03  0.51533594335E+03  0.00000000000E+00 0.  1.
         21    1    1    2  502  501 -0.22377073329E+02  0.33458714448E+02 -0.41368544245E+03  0.41563910341E+03  0.00000000000E+00 0.  1.
<mgrwt>
<rscale>  1 0.30000000E+03</rscale>
<asrwt>0</asrwt>
<pdfrwt beam="1">  1        1 0.60840664E-02 0.30000000E+03</pdfrwt>
<pdfrwt beam="2">0</pdfrwt>
<totfact> 0.15100844E+03</totfact>
</mgrwt>
</event>
<event>
 6    1  0.3125838E-002  0.3000000E+03  0.7818608E-02  0.1093470E+00
          3   -1    0    0  502    0  0.00000000000E+00  0.00000000000E+00  0.14793623595E+01  0.14793623595E+01  0.00000000000E+00 0.  1.
         13   -1    0    0    0    0 -0.00000000000E+00 -0.00000000000E+00 -0.10000000000E+04  0.10000000000E+04  0.00000000000E+00 0.  1.
    9000005    2    1    2  501    0 -0.33033621426E+02 -0.13639041651E+02 -0.31770801477E+03  0.31972935608E+03  0.33518485540E+01 0.  0.
         13    1    3    3    0    0 -0.11555323586E+02 -0.30647713039E+01 -0.10648107326E+03  0.10715006901E+03  0.00000000000E+00 0.  1.
          1    1    3    3  501    0 -0.21478297840E+02 -0.10574270348E+02 -0.21122694150E+03  0.21257928706E+03  0.00000000000E+00 0.  1.
         21    1    1    2  502  501  0.33033621426E+02  0.13639041651E+02 -0.68081262287E+03  0.68175000628E+03  0.00000000000E+00 0.  1.
<mgrwt>
<rscale>  1 0.30000000E+03</rscale>
<asrwt>0</asrwt>
<pdfrwt beam="1">  1        3 0.53795108E-02 0.30000000E+03</pdfrwt>
<pdfrwt beam="2">0</pdfrwt>
<totfact> 0.88361318E+02</totfact>
</mgrwt>
</event>
<event>
 6    1  0.3125838E-002  0.3000000E+03  0.7818608E-02  0.1093470E+00
          1   -1    0    0  502    0  0.00000000000E+00  0.00000000000E+00  0.14968686259E+01  0.14968686259E+01  0.00000000000E+00 0.  1.
         13   -1    0    0    0    0 -0.00000000000E+00 -0.00000000000E+00 -0.10000000000E+04  0.10000000000E+04  0.00000000000E+00 0.  1.
    9000005    2    1    2  501    0  0.26245544734E+02 -0.23824901568E+02 -0.30435554175E+03  0.30644483407E+03  0.44368889977E+01 0.  0.
         13    1    3    3    0    0  0.93015004588E+01 -0.73990554400E+01 -0.11931968196E+03  0.11991017653E+03  0.00000000000E+00 0.  1.
          1    1    3    3  501    0  0.16944044275E+02 -0.16425846128E+02 -0.18503585978E+03  0.18653465754E+03  0.00000000000E+00 0.  1.
         21    1    1    2  502  501 -0.26245544734E+02  0.23824901568E+02 -0.69414758962E+03  0.69505203455E+03  0.00000000000E+00 0.  1.
<mgrwt>
<rscale>  1 0.30000000E+03</rscale>
<asrwt>0</asrwt>
<pdfrwt beam="1">  1        1 0.54431701E-02 0.30000000E+03</pdfrwt>
<pdfrwt beam="2">0</pdfrwt>
<totfact> 0.17654418E+03</totfact>
</mgrwt>
</event>
<event>
 6    1  0.3125838E-002  0.3000000E+03  0.7818608E-02  0.1093470E+00
          3   -1    0    0  502    0  0.00000000000E+00  0.00000000000E+00  0.25669739493E+01  0.25669739493E+01  0.00000000000E+00 0.  1.
         13   -1    0    0    0    0 -0.00000000000E+00 -0.00000000000E+00 -0.10000000000E+04  0.10000000000E+04  0.00000000000E+00 0.  1.
    9000005    2    1    2  501    0 -0.48952500079E+02  0.12823705363E+02 -0.48927640959E+03  0.49189688325E+03  0.32162222285E+01 0.  0.
         13    1    3    3    0    0 -0.94485374864E+01  0.19765093420E+01 -0.82484444686E+02  0.83047366394E+02  0.00000000000E+00 0.  1.
          1    1    3    3  501    0 -0.39503962593E+02  0.10847196021E+02 -0.40679196490E+03  0.40884951685E+03  0.00000000000E+00 0.  1.
         21    1    1    2  502  501  0.48952500079E+02 -0.12823705363E+02 -0.50815661646E+03  0.51067009070E+03  0.00000000000E+00 0.  1.
<mgrwt>
<rscale>  1 0.30000000E+03</rscale>
<asrwt>0</asrwt>
<pdfrwt beam="1">  1        3 0.93344704E-02 0.30000000E+03</pdfrwt>
<pdfrwt beam="2">0</pdfrwt>
<totfact> 0.36966196E+02</totfact>
</mgrwt>
</event>
<event>
 6    1  0.3125838E-002  0.3000000E+03  0.7818608E-02  0.1093470E+00
          1   -1    0    0  502    0  0.00000000000E+00  0.00000000000E+00  0.26571888074E+01  0.26571888074E+01  0.00000000000E+00 0.  1.
         13   -1    0    0    0    0 -0.00000000000E+00 -0.00000000000E+00 -0.10000000000E+04  0.10000000000E+04  0.00000000000E+00 0.  1.
    9000005    2    1    2  501    0 -0.29683005702E+02  0.39278632189E+02 -0.64458192138E+03  0.64647726636E+03  0.48073667081E+01 0.  0.
         13    1    3    3    0    0 -0.24683825880E+02  0.30625620676E+02 -0.53242553398E+03  0.53387654859E+03  0.00000000000E+00 0.  1.
          3    1    3    3  501    0 -0.49991798219E+01  0.86530115134E+01 -0.11215638740E+03  0.11260071777E+03  0.00000000000E+00 0.  1.
         21    1    1    2  502  501  0.29683005702E+02 -0.39278632189E+02 -0.35276088981E+03  0.35617992245E+03  0.00000000000E+00 0.  1.
<mgrwt>
<rscale>  1 0.30000000E+03</rscale>
<asrwt>0</asrwt>
<pdfrwt beam="1">  1        1 0.96625251E-02 0.30000000E+03</pdfrwt>
<pdfrwt beam="2">0</pdfrwt>
<totfact> 0.79244888E+02</totfact>
</mgrwt>
</event>
<event>
 6    1  0.3125838E-002  0.3000000E+03  0.7818608E-02  0.1093470E+00
          3   -1    0    0  502    0  0.00000000000E+00  0.00000000000E+00  0.95345618984E+00  0.95345618984E+00  0.00000000000E+00 0.  1.
         13   -1    0    0    0    0 -0.00000000000E+00 -0.00000000000E+00 -0.10000000000E+04  0.10000000000E+04  0.00000000000E+00 0.  1.
    9000005    2    1    2  501    0 -0.39023248530E+01 -0.30482252003E+02 -0.46777131937E+03  0.46879017304E+03  0.31342127231E+01 0.  0.
         13    1    3    3    0    0 -0.94653269452E+00 -0.18309376510E+02 -0.26766599009E+03  0.26829314461E+03  0.00000000000E+00 0.  1.
          3    1    3    3  501    0 -0.29557921585E+01 -0.12172875493E+02 -0.20010532927E+03  0.20049702843E+03  0.00000000000E+00 0.  1.
         21    1    1    2  502  501  0.39023248530E+01  0.30482252003E+02 -0.53127522444E+03  0.53216328315E+03  0.00000000000E+00 0.  1.
<mgrwt>
<rscale>  1 0.30000000E+03</rscale>
<asrwt>0</asrwt>
<pdfrwt beam="1">  1        3 0.34671207E-02 0.30000000E+03</pdfrwt>
<pdfrwt beam="2">0</pdfrwt>
<totfact> 0.17389063E+03</totfact>
</mgrwt>
</event>
<event>
 6    1  0.3125838E-002  0.3000000E+03  0.7818608E-02  0.1093470E+00
          1   -1    0    0  502    0  0.00000000000E+00  0.00000000000E+00  0.98285977522E+00  0.98285977522E+00  0.00000000000E+00 0.  1.
         13   -1    0    0    0    0 -0.00000000000E+00 -0.00000000000E+00 -0.10000000000E+04  0.10000000000E+04  0.00000000000E+00 0.  1.
    9000005    2    1    2  501    0  0.22349736042E+02 -0.21547038443E+02 -0.44052360105E+03  0.44162714213E+03  0.31151265719E+01 0.  0.
         13    1    3    3    0    0  0.78643500699E+01 -0.95413741911E+01 -0.18291574555E+03  0.18333318247E+03  0.00000000000E+00 0.  1.
          3    1    3    3  501    0  0.14485385972E+02 -0.12005664252E+02 -0.25760785550E+03  0.25829395965E+03  0.00000000000E+00 0.  1.
         21    1    1    2  502  501 -0.22349736042E+02  0.21547038443E+02 -0.55849353917E+03  0.55935571765E+03  0.00000000000E+00 0.  1.
<mgrwt>
<rscale>  1 0.30000000E+03</rscale>
<asrwt>0</asrwt>
<pdfrwt beam="1">  1        1 0.35740431E-02 0.30000000E+03</pdfrwt>
<pdfrwt beam="2">0</pdfrwt>
<totfact> 0.31905432E+03</totfact>
</mgrwt>
</event>
<event>
 6    1  0.3125838E-002  0.3000000E+03  0.7818608E-02  0.1093470E+00
          1   -1    0    0  502    0  0.00000000000E+00  0.00000000000E+00  0.42117295181E+01  0.42117295181E+01  0.00000000000E+00 0.  1.
         13   -1    0    0    0    0 -0.00000000000E+00 -0.00000000000E+00 -0.10000000000E+04  0.10000000000E+04  0.00000000000E+00 0.  1.
    9000005    2    1    2  501    0  0.20801429350E+02 -0.59962113716E+02 -0.59939377303E+03  0.60276839335E+03  0.53559620329E+01 0.  0.
         13    1    3    3    0    0  0.20405182236E+02 -0.54179556947E+02 -0.54328452245E+03  0.54636056610E+03  0.00000000000E+00 0.  1.
          1    1    3    3  501    0  0.39624711389E+00 -0.57825567692E+01 -0.56109250583E+02  0.56407827254E+02  0.00000000000E+00 0.  1.
         21    1    1    2  502  501 -0.20801429350E+02  0.59962113716E+02 -0.39639449745E+03  0.40144333616E+03  0.00000000000E+00 0.  1.
<mgrwt>
<rscale>  1 0.30000000E+03</rscale>
<asrwt>0</asrwt>
<pdfrwt beam="1">  1        1 0.15315412E-01 0.30000000E+03</pdfrwt>
<pdfrwt beam="2">0</pdfrwt>
<totfact> 0.42172671E+02</totfact>
</mgrwt>
</event>
<event>
 6    1  0.3125838E-002  0.3000000E+03  0.7818608E-02  0.1093470E+00
          1   -1    0    0  502    0  0.00000000000E+00  0.00000000000E+00  0.21818575162E+02  0.21818575162E+02  0.00000000000E+00 0.  1.
         13   -1    0    0    0    0 -0.00000000000E+00 -0.00000000000E+00 -0.10000000000E+04  0.10000000000E+04  0.00000000000E+00 0.  1.
    9000005    2    1    2  501    0  0.14684076615E+03 -0.15748070098E+02 -0.48627506745E+03  0.50822138206E+03  0.39140325559E+01 0.  0.
         13    1    3    3    0    0  0.87245143195E+02 -0.10012994543E+02 -0.28289956723E+03  0.29621637398E+03  0.00000000000E+00 0.  1.
          1    1    3    3  501    0  0.59595622957E+02 -0.57350755552E+01 -0.20337550021E+03  0.21200500809E+03  0.00000000000E+00 0.  1.
         21    1    1    2  502  501 -0.14684076615E+03  0.15748070098E+02 -0.49190635739E+03  0.51359719310E+03  0.00000000000E+00 0.  1.
<mgrwt>
<rscale>  1 0.30000000E+03</rscale>
<asrwt>0</asrwt>
<pdfrwt beam="1">  1        1 0.79340441E-01 0.30000000E+03</pdfrwt>
<pdfrwt beam="2">0</pdfrwt>
<totfact> 0.47506077E+01</totfact>
</mgrwt>
</event>
<event>
 6    1  0.3125838E-002  0.3000000E+03  0.7818608E-02  0.1093470E+00
          1   -1    0    0  502    0  0.00000000000E+00  0.00000000000E+00  0.12103486689E+01  0.12103486689E+01  0.00000000000E+00 0.  1.
         13   -1    0    0    0    0 -0.00000000000E+00 -0.00000000000E+00 -0.10000000000E+04  0.10000000000E+04  0.00000000000E+00 0.  1.
    9000005    2    1    2  501    0  0.61250683061E+01 -0.31514539857E+02 -0.31005402044E+03  0.31172688118E+03  0.30773647728E+01 0.  0.
         13    1    3    3    0    0  0.57404345070E+00 -0.78735552702E+01 -0.67397015521E+02  0.67857793212E+02  0.00000000000E+00 0.  1.
          1    1    3    3  501    0  0.55510248554E+01 -0.23640984587E+02 -0.24265700492E+03  0.24386908797E+03  0.00000000000E+00 0.  1.
         21    1    1    2  502  501 -0.61250683061E+01  0.31514539857E+02 -0.68873563089E+03  0.68948346749E+03  0.00000000000E+00 0.  1.
<mgrwt>
<rscale>  1 0.30000000E+03</rscale>
<asrwt>0</asrwt>
<pdfrwt beam="1">  1        1 0.44012772E-02 0.30000000E+03</pdfrwt>
<pdfrwt beam="2">0</pdfrwt>
<totfact> 0.23800463E+03</totfact>
</mgrwt>
</event>
<event>
 6    1  0.3125838E-002  0.3000000E+03  0.7818608E-02  0.1093470E+00
          1   -1    0    0  502    0  0.00000000000E+00  0.00000000000E+00  0.51806480131E+01  0.51806480131E+01  0.00000000000E+00 0.  1.
         13   -1    0    0    0    0 -0.00000000000E+00 -0.00000000000E+00 -0.10000000000E+04  0.10000000000E+04  0.00000000000E+00 0.  1.
    9000005    2    1    2  501    0  0.43493719244E+02  0.56076934944E+02 -0.57990513585E+03  0.58424106446E+03  0.33657947183E+01 0.  0.
         13    1    3    3    0    0  0.21218914195E+02  0.27748727764E+02 -0.27175154636E+03  0.27398747629E+03  0.00000000000E+00 0.  1.
          1    1    3    3  501    0  0.22274805049E+02  0.28328207180E+02 -0.30815358949E+03  0.31025358817E+03  0.00000000000E+00 0.  1.
         21    1    1    2  502  501 -0.43493719244E+02 -0.56076934944E+02 -0.41491421614E+03  0.42093958355E+03  0.00000000000E+00 0.  1.
<mgrwt>
<rscale>  1 0.30000000E+03</rscale>
<asrwt>0</asrwt>
<pdfrwt beam="1">  1        1 0.18838760E-01 0.30000000E+03</pdfrwt>
<pdfrwt beam="2">0</pdfrwt>
<totfact> 0.31897207E+02</totfact>
</mgrwt>
</event>
<event>
 6    1  0.3125838E-002  0.3000000E+03  0.7818608E-02  0.1093470E+00
          1   -1    0    0  502    0  0.00000000000E+00  0.00000000000E+00  0.86785729051E+01  0.86785729051E+01  0.00000000000E+00 0.  1.
         13   -1    0    0    0    0 -0.00000000000E+00 -0.00000000000E+00 -0.10000000000E+04  0.10000000000E+04  0.00000000000E+00 0.  1.
    9000005    2    1    2  501    0 -0.43442413321E+02  0.27512999159E+02 -0.91616773463E+03  0.91761658364E+03  0.35592408207E+01 0.  0.
         13    1    3    3    0    0 -0.18411084368E-01 -0.56832473959E-01 -0.35239418313E+01  0.35244481736E+01  0.00000000000E+00 0.  1.
          3    1    3    3  501    0 -0.43424002237E+02  0.27569831633E+02 -0.91264379280E+03  0.91409213547E+03  0.00000000000E+00 0.  1.
         21    1    1    2  502  501  0.43442413321E+02 -0.27512999159E+02 -0.75153692464E+02  0.91061989265E+02  0.00000000000E+00 0.  1.
<mgrwt>
<rscale>  1 0.30000000E+03</rscale>
<asrwt>0</asrwt>
<pdfrwt beam="1">  1        1 0.31558513E-01 0.30000000E+03</pdfrwt>
<pdfrwt beam="2">0</pdfrwt>
<totfact> 0.16115058E+02</totfact>
</mgrwt>
</event>
<event>
 6    1  0.3125838E-002  0.3000000E+03  0.7818608E-02  0.1093470E+00
          3   -1    0    0  502    0  0.00000000000E+00  0.00000000000E+00  0.10473171725E+01  0.10473171725E+01  0.00000000000E+00 0.  1.
         13   -1    0    0    0    0 -0.00000000000E+00 -0.00000000000E+00 -0.10000000000E+04  0.10000000000E+04  0.00000000000E+00 0.  1.
    9000005    2    1    2  501    0  0.23786856908E+02 -0.21039448785E+02 -0.58522956397E+03  0.58610721060E+03  0.44211767569E+01 0.  0.
         13    1    3    3    0    0  0.38657477278E+01 -0.57810304369E+01 -0.11974261273E+03  0.11994439387E+03  0.00000000000E+00 0.  1.
          1    1    3    3  501    0  0.19921109180E+02 -0.15258418349E+02 -0.46548695125E+03  0.46616281673E+03  0.00000000000E+00 0.  1.
         21    1    1    2  502  501 -0.23786856908E+02  0.21039448785E+02 -0.41372311885E+03  0.41494010657E+03  0.00000000000E+00 0.  1.
<mgrwt>
<rscale>  1 0.30000000E+03</rscale>
<asrwt>0</asrwt>
<pdfrwt beam="1">  1        3 0.38084341E-02 0.30000000E+03</pdfrwt>
<pdfrwt beam="2">0</pdfrwt>
<totfact> 0.15045676E+03</totfact>
</mgrwt>
</event>
<event>
 6    1  0.3125838E-002  0.3000000E+03  0.7818608E-02  0.1093470E+00
          1   -1    0    0  502    0  0.00000000000E+00  0.00000000000E+00  0.16209999418E+01  0.16209999418E+01  0.00000000000E+00 0.  1.
         13   -1    0    0    0    0 -0.00000000000E+00 -0.00000000000E+00 -0.10000000000E+04  0.10000000000E+04  0.00000000000E+00 0.  1.
    9000005    2    1    2  501    0 -0.32001942866E+02  0.11913689945E+02 -0.76374080762E+03  0.76451102186E+03  0.33197840345E+01 0.  0.
         13    1    3    3    0    0 -0.11922066588E+02  0.35109302160E+01 -0.30812351952E+03  0.30837406763E+03  0.00000000000E+00 0.  1.
          1    1    3    3  501    0 -0.20079876278E+02  0.84027597295E+01 -0.45561728810E+03  0.45613695423E+03  0.00000000000E+00 0.  1.
         21    1    1    2  502  501  0.32001942866E+02 -0.11913689945E+02 -0.23463819244E+03  0.23710997808E+03  0.00000000000E+00 0.  1.
<mgrwt>
<rscale>  1 0.30000000E+03</rscale>
<asrwt>0</asrwt>
<pdfrwt beam="1">  1        1 0.58945577E-02 0.30000000E+03</pdfrwt>
<pdfrwt beam="2">0</pdfrwt>
<totfact> 0.15786313E+03</totfact>
</mgrwt>
</event>
<event>
 6    1  0.3125838E-002  0.3000000E+03  0.7818608E-02  0.1093470E+00
          3   -1    0    0  502    0  0.00000000000E+00  0.00000000000E+00  0.95701869427E+00  0.95701869427E+00  0.00000000000E+00 0.  1.
         13   -1    0    0    0    0 -0.00000000000E+00 -0.00000000000E+00 -0.10000000000E+04  0.10000000000E+04  0.00000000000E+00 0.  1.
    9000005    2    1    2  501    0 -0.12751175313E+02  0.27886036239E+02 -0.55790333236E+03  0.55875297828E+03  0.29221544454E+01 0.  0.
         13    1    3    3    0    0 -0.12887326483E+02  0.27752066959E+02 -0.55549197253E+03  0.55633406506E+03  0.00000000000E+00 0.  1.
          1    1    3    3  501    0  0.13615116983E+00  0.13396927985E+00 -0.24113598274E+01  0.24189132118E+01  0.00000000000E+00 0.  1.
         21    1    1    2  502  501  0.12751175313E+02 -0.27886036239E+02 -0.44113964895E+03  0.44220404042E+03  0.00000000000E+00 0.  1.
<mgrwt>
<rscale>  1 0.30000000E+03</rscale>
<asrwt>0</asrwt>
<pdfrwt beam="1">  1        3 0.34800753E-02 0.30000000E+03</pdfrwt>
<pdfrwt beam="2">0</pdfrwt>
<totfact> 0.17289233E+03</totfact>
</mgrwt>
</event>
<event>
 6    1  0.3125838E-002  0.3000000E+03  0.7818608E-02  0.1093470E+00
          1   -1    0    0  502    0  0.00000000000E+00  0.00000000000E+00  0.27432121207E+02  0.27432121207E+02  0.00000000000E+00 0.  1.
         13   -1    0    0    0    0 -0.00000000000E+00 -0.00000000000E+00 -0.10000000000E+04  0.10000000000E+04  0.00000000000E+00 0.  1.
    9000005    2    1    2  501    0 -0.33730535273E+02  0.25478953062E+02 -0.98298246633E+03  0.98389604774E+03  0.31587326740E+01 0.  0.
         13    1    3    3    0    0 -0.13385204868E+02  0.82009881031E+01 -0.36265017968E+03  0.36298976947E+03  0.00000000000E+00 0.  1.
          1    1    3    3  501    0 -0.20345330405E+02  0.17277964959E+02 -0.62033228665E+03  0.62090627828E+03  0.00000000000E+00 0.  1.
         21    1    1    2  502  501  0.33730535273E+02 -0.25478953062E+02  0.10414587539E+02  0.43536073463E+02  0.00000000000E+00 0.  1.
<mgrwt>
<rscale>  1 0.30000000E+03</rscale>
<asrwt>0</asrwt>
<pdfrwt beam="1">  1        1 0.99753378E-01 0.30000000E+03</pdfrwt>
<pdfrwt beam="2">0</pdfrwt>
<totfact> 0.34350697E+01</totfact>
</mgrwt>
</event>
<event>
 6    1  0.3125838E-002  0.3000000E+03  0.7818608E-02  0.1093470E+00
          3   -1    0    0  502    0  0.00000000000E+00  0.00000000000E+00  0.28206873339E+01  0.28206873339E+01  0.00000000000E+00 0.  1.
         13   -1    0    0    0    0 -0.00000000000E+00 -0.00000000000E+00 -0.10000000000E+04  0.10000000000E+04  0.00000000000E+00 0.  1.
    9000005    2    1    2  501    0  0.81022014546E+01 -0.42184851090E+02 -0.79322871780E+03  0.79439551497E+03  0.26885176631E+01 0.  0.
         13    1    3    3    0    0  0.82808351577E+01 -0.41190242129E+02 -0.77114493120E+03  0.77228862040E+03  0.00000000000E+00 0.  1.
          1    1    3    3  501    0 -0.17863370310E+00 -0.99460896095E+00 -0.22083786597E+02  0.22106894569E+02  0.00000000000E+00 0.  1.
         21    1    1    2  502  501 -0.81022014546E+01  0.42184851090E+02 -0.20395059487E+03  0.20842517237E+03  0.00000000000E+00 0.  1.
<mgrwt>
<rscale>  1 0.30000000E+03</rscale>
<asrwt>0</asrwt>
<pdfrwt beam="1">  1        3 0.10257066E-01 0.30000000E+03</pdfrwt>
<pdfrwt beam="2">0</pdfrwt>
<totfact> 0.31669069E+02</totfact>
</mgrwt>
</event>
<event>
 6    1  0.3125838E-002  0.3000000E+03  0.7818608E-02  0.1093470E+00
          3   -1    0    0  502    0  0.00000000000E+00  0.00000000000E+00  0.17869588272E+01  0.17869588272E+01  0.00000000000E+00 0.  1.
         13   -1    0    0    0    0 -0.00000000000E+00 -0.00000000000E+00 -0.10000000000E+04  0.10000000000E+04  0.00000000000E+00 0.  1.
    9000005    2    1    2  501    0  0.15509469147E+02 -0.27253582409E+02 -0.83461329289E+03  0.83520911208E+03  0.34074700852E+01 0.  0.
         13    1    3    3    0    0  0.15623948491E+02 -0.26613654018E+02 -0.82194525018E+03  0.82252440003E+03  0.00000000000E+00 0.  1.
          3    1    3    3  501    0 -0.11447934339E+00 -0.63992839146E+00 -0.12668042701E+02  0.12684712048E+02  0.00000000000E+00 0.  1.
         21    1    1    2  502  501 -0.15509469147E+02  0.27253582409E+02 -0.16359974829E+03  0.16657784675E+03  0.00000000000E+00 0.  1.
<mgrwt>
<rscale>  1 0.30000000E+03</rscale>
<asrwt>0</asrwt>
<pdfrwt beam="1">  1        3 0.64980458E-02 0.30000000E+03</pdfrwt>
<pdfrwt beam="2">0</pdfrwt>
<totfact> 0.65835141E+02</totfact>
</mgrwt>
</event>
<event>
 6    1  0.3125838E-002  0.3000000E+03  0.7818608E-02  0.1093470E+00
          1   -1    0    0  502    0  0.00000000000E+00  0.00000000000E+00  0.12606896874E+01  0.12606896874E+01  0.00000000000E+00 0.  1.
         13   -1    0    0    0    0 -0.00000000000E+00 -0.00000000000E+00 -0.10000000000E+04  0.10000000000E+04  0.00000000000E+00 0.  1.
    9000005    2    1    2  501    0  0.33113887246E+02 -0.61577805484E+01 -0.65547920923E+03  0.65635208616E+03  0.32587556079E+01 0.  0.
         13    1    3    3    0    0  0.23564242379E+02 -0.57469489880E+01 -0.48143458417E+03  0.48204518437E+03  0.00000000000E+00 0.  1.
          3    1    3    3  501    0  0.95496448665E+01 -0.41083156041E+00 -0.17404462506E+03  0.17430690179E+03  0.00000000000E+00 0.  1.
         21    1    1    2  502  501 -0.33113887246E+02  0.61577805484E+01 -0.34326010108E+03  0.34490860352E+03  0.00000000000E+00 0.  1.
<mgrwt>
<rscale>  1 0.30000000E+03</rscale>
<asrwt>0</asrwt>
<pdfrwt beam="1">  1        1 0.45843358E-02 0.30000000E+03</pdfrwt>
<pdfrwt beam="2">0</pdfrwt>
<totfact> 0.22473877E+03</totfact>
</mgrwt>
</event>
<event>
 6    1  0.3125838E-002  0.3000000E+03  0.7818608E-02  0.1093470E+00
          1   -1    0    0  502    0  0.00000000000E+00  0.00000000000E+00  0.34749084739E+01  0.34749084739E+01  0.00000000000E+00 0.  1.
         13   -1    0    0    0    0 -0.00000000000E+00 -0.00000000000E+00 -0.10000000000E+04  0.10000000000E+04  0.00000000000E+00 0.  1.
    9000005    2    1    2  501    0 -0.40283667942E+02 -0.14133368287E+02 -0.84396111795E+03  0.84505050368E+03  0.41784148625E+01 0.  0.
         13    1    3    3    0    0 -0.29060902894E+02 -0.11562139495E+02 -0.58969870606E+03  0.59052754642E+03  0.00000000000E+00 0.  1.
          1    1    3    3  501    0 -0.11222765048E+02 -0.25712287911E+01 -0.25426241189E+03  0.25452295726E+03  0.00000000000E+00 0.  1.
         21    1    1    2  502  501  0.40283667942E+02  0.14133368287E+02 -0.15256397357E+03  0.15842440479E+03  0.00000000000E+00 0.  1.
<mgrwt>
<rscale>  1 0.30000000E+03</rscale>
<asrwt>0</asrwt>
<pdfrwt beam="1">  1        1 0.12636057E-01 0.30000000E+03</pdfrwt>
<pdfrwt beam="2">0</pdfrwt>
<totfact> 0.54800243E+02</totfact>
</mgrwt>
</event>
<event>
 6    1  0.3125838E-002  0.3000000E+03  0.7818608E-02  0.1093470E+00
          1   -1    0    0  502    0  0.00000000000E+00  0.00000000000E+00  0.16140947127E+01  0.16140947127E+01  0.00000000000E+00 0.  1.
         13   -1    0    0    0    0 -0.00000000000E+00 -0.00000000000E+00 -0.10000000000E+04  0.10000000000E+04  0.00000000000E+00 0.  1.
    9000005    2    1    2  501    0 -0.28393701858E+02 -0.28227770555E+02 -0.53013291336E+03  0.53165252843E+03  0.32397254102E+01 0.  0.
         13    1    3    3    0    0 -0.88513729619E+01 -0.10754430688E+02 -0.17510945631E+03  0.17566253519E+03  0.00000000000E+00 0.  1.
          3    1    3    3  501    0 -0.19542328896E+02 -0.17473339867E+02 -0.35502345705E+03  0.35598999323E+03  0.00000000000E+00 0.  1.
         21    1    1    2  502  501  0.28393701858E+02  0.28227770555E+02 -0.46825299193E+03  0.46996156629E+03  0.00000000000E+00 0.  1.
<mgrwt>
<rscale>  1 0.30000000E+03</rscale>
<asrwt>0</asrwt>
<pdfrwt beam="1">  1        1 0.58694477E-02 0.30000000E+03</pdfrwt>
<pdfrwt beam="2">0</pdfrwt>
<totfact> 0.15881169E+03</totfact>
</mgrwt>
</event>
<event>
 6    1  0.3125838E-002  0.3000000E+03  0.7818608E-02  0.1093470E+00
          1   -1    0    0  502    0  0.00000000000E+00  0.00000000000E+00  0.77339158191E+01  0.77339158191E+01  0.00000000000E+00 0.  1.
         13   -1    0    0    0    0 -0.00000000000E+00 -0.00000000000E+00 -0.10000000000E+04  0.10000000000E+04  0.00000000000E+00 0.  1.
    9000005    2    1    2  501    0  0.33758068595E+01  0.42088506700E+02 -0.93809550061E+03  0.93905138098E+03  0.33895983491E+01 0.  0.
         13    1    3    3    0    0  0.17190985813E+01  0.21301955906E+02 -0.43720558317E+03  0.43772759860E+03  0.00000000000E+00 0.  1.
          3    1    3    3  501    0  0.16567082781E+01  0.20786550794E+02 -0.50088991745E+03  0.50132378238E+03  0.00000000000E+00 0.  1.
         21    1    1    2  502  501 -0.33758068595E+01 -0.42088506700E+02 -0.54170583566E+02  0.68682534840E+02  0.00000000000E+00 0.  1.
<mgrwt>
<rscale>  1 0.30000000E+03</rscale>
<asrwt>0</asrwt>
<pdfrwt beam="1">  1        1 0.28123390E-01 0.30000000E+03</pdfrwt>
<pdfrwt beam="2">0</pdfrwt>
<totfact> 0.18745984E+02</totfact>
</mgrwt>
</event>
<event>
 6    1  0.3125838E-002  0.3000000E+03  0.7818608E-02  0.1093470E+00
          1   -1    0    0  502    0  0.00000000000E+00  0.00000000000E+00  0.14986497072E+01  0.14986497072E+01  0.00000000000E+00 0.  1.
         13   -1    0    0    0    0 -0.00000000000E+00 -0.00000000000E+00 -0.10000000000E+04  0.10000000000E+04  0.00000000000E+00 0.  1.
    9000005    2    1    2  501    0  0.30976799035E+02  0.37756103584E+01 -0.79478758768E+03  0.79540858592E+03  0.37002324937E+01 0.  0.
         13    1    3    3    0    0  0.26376248177E+02  0.45139023594E+01 -0.67151554967E+03  0.67204852149E+03  0.00000000000E+00 0.  1.
          1    1    3    3  501    0  0.46005508579E+01 -0.73829200102E+00 -0.12327203801E+03  0.12336006444E+03  0.00000000000E+00 0.  1.
         21    1    1    2  502  501 -0.30976799035E+02 -0.37756103584E+01 -0.20371376261E+03  0.20609006378E+03  0.00000000000E+00 0.  1.
<mgrwt>
<rscale>  1 0.30000000E+03</rscale>
<asrwt>0</asrwt>
<pdfrwt beam="1">  1        1 0.54496468E-02 0.30000000E+03</pdfrwt>
<pdfrwt beam="2">0</pdfrwt>
<totfact> 0.17624960E+03</totfact>
</mgrwt>
</event>
<event>
 6    1  0.3125838E-002  0.3000000E+03  0.7818608E-02  0.1093470E+00
          1   -1    0    0  502    0  0.00000000000E+00  0.00000000000E+00  0.59481351054E+01  0.59481351054E+01  0.00000000000E+00 0.  1.
         13   -1    0    0    0    0 -0.00000000000E+00 -0.00000000000E+00 -0.10000000000E+04  0.10000000000E+04  0.00000000000E+00 0.  1.
    9000005    2    1    2  501    0 -0.36937077002E+02 -0.21116752653E+02 -0.91645932548E+03  0.91745594860E+03  0.41782122470E+01 0.  0.
         13    1    3    3    0    0 -0.19752801122E+01 -0.17004452714E+01 -0.40096808207E+02  0.40181429467E+02  0.00000000000E+00 0.  1.
          3    1    3    3  501    0 -0.34961796890E+02 -0.19416307382E+02 -0.87636251728E+03  0.87727451913E+03  0.00000000000E+00 0.  1.
         21    1    1    2  502  501  0.36937077002E+02  0.21116752653E+02 -0.77592539411E+02  0.88492186504E+02  0.00000000000E+00 0.  1.
<mgrwt>
<rscale>  1 0.30000000E+03</rscale>
<asrwt>0</asrwt>
<pdfrwt beam="1">  1        1 0.21629628E-01 0.30000000E+03</pdfrwt>
<pdfrwt beam="2">0</pdfrwt>
<totfact> 0.26522088E+02</totfact>
</mgrwt>
</event>
<event>
 6    1  0.3125838E-002  0.3000000E+03  0.7818608E-02  0.1093470E+00
          3   -1    0    0  502    0  0.00000000000E+00  0.00000000000E+00  0.17114720575E+01  0.17114720575E+01  0.00000000000E+00 0.  1.
         13   -1    0    0    0    0 -0.00000000000E+00 -0.00000000000E+00 -0.10000000000E+04  0.10000000000E+04  0.00000000000E+00 0.  1.
    9000005    2    1    2  501    0 -0.10808160812E+01 -0.40918984132E+02 -0.43220279868E+03  0.43414774497E+03  0.30779625977E+01 0.  0.
         13    1    3    3    0    0 -0.17549766077E+01 -0.21710498073E+02 -0.21918303269E+03  0.22026263298E+03  0.00000000000E+00 0.  1.
          1    1    3    3  501    0  0.67416052649E+00 -0.19208486059E+02 -0.21301976599E+03  0.21388511199E+03  0.00000000000E+00 0.  1.
         21    1    1    2  502  501  0.10808160812E+01  0.40918984132E+02 -0.56608572927E+03  0.56756372709E+03  0.00000000000E+00 0.  1.
<mgrwt>
<rscale>  1 0.30000000E+03</rscale>
<asrwt>0</asrwt>
<pdfrwt beam="1">  1        3 0.62235479E-02 0.30000000E+03</pdfrwt>
<pdfrwt beam="2">0</pdfrwt>
<totfact> 0.70432274E+02</totfact>
</mgrwt>
</event>
<event>
 6    1  0.3125838E-002  0.3000000E+03  0.7818608E-02  0.1093470E+00
          3   -1    0    0  502    0  0.00000000000E+00  0.00000000000E+00  0.20977166189E+01  0.20977166189E+01  0.00000000000E+00 0.  1.
         13   -1    0    0    0    0 -0.00000000000E+00 -0.00000000000E+00 -0.10000000000E+04  0.10000000000E+04  0.00000000000E+00 0.  1.
    9000005    2    1    2  501    0  0.34877256690E+02  0.29563997965E+02 -0.51584571896E+03  0.51787774149E+03  0.31774760499E+01 0.  0.
         13    1    3    3    0    0  0.16524352049E+02  0.14580533800E+02 -0.23138362344E+03  0.23243069370E+03  0.00000000000E+00 0.  1.
          3    1    3    3  501    0  0.18352904642E+02  0.14983464165E+02 -0.28446209552E+03  0.28544704780E+03  0.00000000000E+00 0.  1.
         21    1    1    2  502  501 -0.34877256690E+02 -0.29563997965E+02 -0.48205656442E+03  0.48421997512E+03  0.00000000000E+00 0.  1.
<mgrwt>
<rscale>  1 0.30000000E+03</rscale>
<asrwt>0</asrwt>
<pdfrwt beam="1">  1        3 0.76280765E-02 0.30000000E+03</pdfrwt>
<pdfrwt beam="2">0</pdfrwt>
<totfact> 0.51124733E+02</totfact>
</mgrwt>
</event>
<event>
 6    1  0.3125838E-002  0.3000000E+03  0.7818608E-02  0.1093470E+00
          1   -1    0    0  502    0  0.00000000000E+00  0.00000000000E+00  0.77318007229E+01  0.77318007229E+01  0.00000000000E+00 0.  1.
         13   -1    0    0    0    0 -0.00000000000E+00 -0.00000000000E+00 -0.10000000000E+04  0.10000000000E+04  0.00000000000E+00 0.  1.
    9000005    2    1    2  501    0  0.73930045562E+02  0.41990491882E+02 -0.62409910971E+03  0.62987292289E+03  0.33685608852E+01 0.  0.
         13    1    3    3    0    0  0.80881046338E+01  0.54668226933E+01 -0.66198107902E+02  0.66914072337E+02  0.00000000000E+00 0.  1.
          3    1    3    3  501    0  0.65841940929E+02  0.36523669188E+02 -0.55790100181E+03  0.56295885055E+03  0.00000000000E+00 0.  1.
         21    1    1    2  502  501 -0.73930045562E+02 -0.41990491882E+02 -0.36816908957E+03  0.37785887783E+03  0.00000000000E+00 0.  1.
<mgrwt>
<rscale>  1 0.30000000E+03</rscale>
<asrwt>0</asrwt>
<pdfrwt beam="1">  1        1 0.28115698E-01 0.30000000E+03</pdfrwt>
<pdfrwt beam="2">0</pdfrwt>
<totfact> 0.18752725E+02</totfact>
</mgrwt>
</event>
<event>
 6    1  0.3125838E-002  0.3000000E+03  0.7818608E-02  0.1093470E+00
          1   -1    0    0  502    0  0.00000000000E+00  0.00000000000E+00  0.26767677310E+01  0.26767677310E+01  0.00000000000E+00 0.  1.
         13   -1    0    0    0    0 -0.00000000000E+00 -0.00000000000E+00 -0.10000000000E+04  0.10000000000E+04  0.00000000000E+00 0.  1.
    9000005    2    1    2  501    0 -0.29803081804E+01 -0.32112928658E+02 -0.89039563725E+03  0.89099134791E+03  0.45900757014E+01 0.  0.
         13    1    3    3    0    0  0.70565230755E+00 -0.15932358780E+02 -0.41636269047E+03  0.41666800695E+03  0.00000000000E+00 0.  1.
          3    1    3    3  501    0 -0.36859604880E+01 -0.16180569878E+02 -0.47403294678E+03  0.47432334096E+03  0.00000000000E+00 0.  1.
         21    1    1    2  502  501  0.29803081804E+01  0.32112928658E+02 -0.10692759502E+03  0.11168541982E+03  0.00000000000E+00 0.  1.
<mgrwt>
<rscale>  1 0.30000000E+03</rscale>
<asrwt>0</asrwt>
<pdfrwt beam="1">  1        1 0.97337214E-02 0.30000000E+03</pdfrwt>
<pdfrwt beam="2">0</pdfrwt>
<totfact> 0.78444497E+02</totfact>
</mgrwt>
</event>
<event>
 6    1  0.3125838E-002  0.3000000E+03  0.7818608E-02  0.1093470E+00
          1   -1    0    0  502    0  0.00000000000E+00  0.00000000000E+00  0.14738174164E+01  0.14738174164E+01  0.00000000000E+00 0.  1.
         13   -1    0    0    0    0 -0.00000000000E+00 -0.00000000000E+00 -0.10000000000E+04  0.10000000000E+04  0.00000000000E+00 0.  1.
    9000005    2    1    2  501    0 -0.34968567902E+02  0.11855709149E+02 -0.63418016621E+03  0.63526161359E+03  0.30782969904E+01 0.  0.
         13    1    3    3    0    0 -0.10392984227E+02  0.50281808000E+01 -0.19763650945E+03  0.19797344921E+03  0.00000000000E+00 0.  1.
          1    1    3    3  501    0 -0.24575583676E+02  0.68275283489E+01 -0.43654365676E+03  0.43728816438E+03  0.00000000000E+00 0.  1.
         21    1    1    2  502  501  0.34968567902E+02 -0.11855709149E+02 -0.36434601637E+03  0.36621220382E+03  0.00000000000E+00 0.  1.
<mgrwt>
<rscale>  1 0.30000000E+03</rscale>
<asrwt>0</asrwt>
<pdfrwt beam="1">  1        1 0.53593474E-02 0.30000000E+03</pdfrwt>
<pdfrwt beam="2">0</pdfrwt>
<totfact> 0.18043439E+03</totfact>
</mgrwt>
</event>
<event>
 6    1  0.3125838E-002  0.3000000E+03  0.7818608E-02  0.1093470E+00
          1   -1    0    0  502    0  0.00000000000E+00  0.00000000000E+00  0.47455389499E+01  0.47455389499E+01  0.00000000000E+00 0.  1.
         13   -1    0    0    0    0 -0.00000000000E+00 -0.00000000000E+00 -0.10000000000E+04  0.10000000000E+04  0.00000000000E+00 0.  1.
    9000005    2    1    2  501    0 -0.43192911619E+02 -0.48787350618E+02 -0.65970338025E+03  0.66292634549E+03  0.41178187503E+01 0.  0.
         13    1    3    3    0    0 -0.17391155635E+02 -0.22205309722E+02 -0.27374078633E+03  0.27519001831E+03  0.00000000000E+00 0.  1.
          3    1    3    3  501    0 -0.25801755984E+02 -0.26582040896E+02 -0.38596259392E+03  0.38773632718E+03  0.00000000000E+00 0.  1.
         21    1    1    2  502  501  0.43192911619E+02  0.48787350618E+02 -0.33555108080E+03  0.34181919346E+03  0.00000000000E+00 0.  1.
<mgrwt>
<rscale>  1 0.30000000E+03</rscale>
<asrwt>0</asrwt>
<pdfrwt beam="1">  1        1 0.17256542E-01 0.30000000E+03</pdfrwt>
<pdfrwt beam="2">0</pdfrwt>
<totfact> 0.35889046E+02</totfact>
</mgrwt>
</event>
<event>
 6    1  0.3125838E-002  0.3000000E+03  0.7818608E-02  0.1093470E+00
          1   -1    0    0  502    0  0.00000000000E+00  0.00000000000E+00  0.19598992714E+01  0.19598992714E+01  0.00000000000E+00 0.  1.
         13   -1    0    0    0    0 -0.00000000000E+00 -0.00000000000E+00 -0.10000000000E+04  0.10000000000E+04  0.00000000000E+00 0.  1.
    9000005    2    1    2  501    0 -0.37924443683E+02  0.76677277788E+01 -0.74091508782E+03  0.74194003514E+03  0.47739827209E+01 0.  0.
         13    1    3    3    0    0 -0.15317986416E+02  0.51203131905E+01 -0.33196445899E+03  0.33235712773E+03  0.00000000000E+00 0.  1.
          3    1    3    3  501    0 -0.22606457268E+02  0.25474145883E+01 -0.40895062882E+03  0.40958290741E+03  0.00000000000E+00 0.  1.
         21    1    1    2  502  501  0.37924443683E+02 -0.76677277788E+01 -0.25712501291E+03  0.26001986413E+03  0.00000000000E+00 0.  1.
<mgrwt>
<rscale>  1 0.30000000E+03</rscale>
<asrwt>0</asrwt>
<pdfrwt beam="1">  1        1 0.71269215E-02 0.30000000E+03</pdfrwt>
<pdfrwt beam="2">0</pdfrwt>
<totfact> 0.12100290E+03</totfact>
</mgrwt>
</event>
<event>
 6    1  0.3125838E-002  0.3000000E+03  0.7818608E-02  0.1093470E+00
          1   -1    0    0  502    0  0.00000000000E+00  0.00000000000E+00  0.98762222879E+01  0.98762222879E+01  0.00000000000E+00 0.  1.
         13   -1    0    0    0    0 -0.00000000000E+00 -0.00000000000E+00 -0.10000000000E+04  0.10000000000E+04  0.00000000000E+00 0.  1.
    9000005    2    1    2  501    0  0.21281699826E+01 -0.33555436702E+02 -0.97020197410E+03  0.97079458083E+03  0.44442306845E+01 0.  0.
         13    1    3    3    0    0  0.18212524609E+01 -0.14982925059E+02 -0.49383309588E+03  0.49406369183E+03  0.00000000000E+00 0.  1.
          3    1    3    3  501    0  0.30691752168E+00 -0.18572511643E+02 -0.47636887822E+03  0.47673088900E+03  0.00000000000E+00 0.  1.
         21    1    1    2  502  501 -0.21281699826E+01  0.33555436702E+02 -0.19921803613E+02  0.39081641457E+02  0.00000000000E+00 0.  1.
<mgrwt>
<rscale>  1 0.30000000E+03</rscale>
<asrwt>0</asrwt>
<pdfrwt beam="1">  1        1 0.35913611E-01 0.30000000E+03</pdfrwt>
<pdfrwt beam="2">0</pdfrwt>
<totfact> 0.13606365E+02</totfact>
</mgrwt>
</event>
<event>
 6    1  0.3125838E-002  0.3000000E+03  0.7818608E-02  0.1093470E+00
          3   -1    0    0  502    0  0.00000000000E+00  0.00000000000E+00  0.22186472118E+01  0.22186472118E+01  0.00000000000E+00 0.  1.
         13   -1    0    0    0    0 -0.00000000000E+00 -0.00000000000E+00 -0.10000000000E+04  0.10000000000E+04  0.00000000000E+00 0.  1.
    9000005    2    1    2  501    0  0.14394409550E+02 -0.39687793620E+02 -0.72033558272E+03  0.72157924278E+03  0.33063417542E+01 0.  0.
         13    1    3    3    0    0  0.90441401898E+01 -0.24148851974E+02 -0.46656820576E+03  0.46728027365E+03  0.00000000000E+00 0.  1.
          3    1    3    3  501    0  0.53502693606E+01 -0.15538941645E+02 -0.25376737696E+03  0.25429896913E+03  0.00000000000E+00 0.  1.
         21    1    1    2  502  501 -0.14394409550E+02  0.39687793620E+02 -0.27744577007E+03  0.28063940443E+03  0.00000000000E+00 0.  1.
<mgrwt>
<rscale>  1 0.30000000E+03</rscale>
<asrwt>0</asrwt>
<pdfrwt beam="1">  1        3 0.80678251E-02 0.30000000E+03</pdfrwt>
<pdfrwt beam="2">0</pdfrwt>
<totfact> 0.46756624E+02</totfact>
</mgrwt>
</event>
<event>
 6    1  0.3125838E-002  0.3000000E+03  0.7818608E-02  0.1093470E+00
          1   -1    0    0  502    0  0.00000000000E+00  0.00000000000E+00  0.11415083324E+02  0.11415083324E+02  0.00000000000E+00 0.  1.
         13   -1    0    0    0    0 -0.00000000000E+00 -0.00000000000E+00 -0.10000000000E+04  0.10000000000E+04  0.00000000000E+00 0.  1.
    9000005    2    1    2  501    0 -0.65492427342E+02  0.28068767141E+02 -0.87105984529E+03  0.87397689310E+03  0.36389373101E+01 0.  0.
         13    1    3    3    0    0 -0.21707045331E+02  0.11158327379E+02 -0.30128843836E+03  0.30227541609E+03  0.00000000000E+00 0.  1.
          1    1    3    3  501    0 -0.43785382011E+02  0.16910439762E+02 -0.56977140694E+03  0.57170147701E+03  0.00000000000E+00 0.  1.
         21    1    1    2  502  501  0.65492427342E+02 -0.28068767141E+02 -0.11752507138E+03  0.13743819022E+03  0.00000000000E+00 0.  1.
<mgrwt>
<rscale>  1 0.30000000E+03</rscale>
<asrwt>0</asrwt>
<pdfrwt beam="1">  1        1 0.41509481E-01 0.30000000E+03</pdfrwt>
<pdfrwt beam="2">0</pdfrwt>
<totfact> 0.11261693E+02</totfact>
</mgrwt>
</event>
<event>
 6    1  0.3125838E-002  0.3000000E+03  0.7818608E-02  0.1093470E+00
          1   -1    0    0  502    0  0.00000000000E+00  0.00000000000E+00  0.33024813451E+01  0.33024813451E+01  0.00000000000E+00 0.  1.
         13   -1    0    0    0    0 -0.00000000000E+00 -0.00000000000E+00 -0.10000000000E+04  0.10000000000E+04  0.00000000000E+00 0.  1.
    9000005    2    1    2  501    0 -0.34771600181E+02 -0.18205951757E+02 -0.86463826168E+03  0.86553395007E+03  0.30289097157E+01 0.  0.
         13    1    3    3    0    0 -0.27368596689E+02 -0.13901636265E+02 -0.70097359112E+03  0.70164540263E+03  0.00000000000E+00 0.  1.
          3    1    3    3  501    0 -0.74030034919E+01 -0.43043154919E+01 -0.16366467056E+03  0.16388854744E+03  0.00000000000E+00 0.  1.
         21    1    1    2  502  501  0.34771600181E+02  0.18205951757E+02 -0.13205925697E+03  0.13776853128E+03  0.00000000000E+00 0.  1.
<mgrwt>
<rscale>  1 0.30000000E+03</rscale>
<asrwt>0</asrwt>
<pdfrwt beam="1">  1        1 0.12009048E-01 0.30000000E+03</pdfrwt>
<pdfrwt beam="2">0</pdfrwt>
<totfact> 0.58756514E+02</totfact>
</mgrwt>
</event>
<event>
 6    1  0.3125838E-002  0.3000000E+03  0.7818608E-02  0.1093470E+00
          3   -1    0    0  502    0  0.00000000000E+00  0.00000000000E+00  0.82868564863E+01  0.82868564863E+01  0.00000000000E+00 0.  1.
         13   -1    0    0    0    0 -0.00000000000E+00 -0.00000000000E+00 -0.10000000000E+04  0.10000000000E+04  0.00000000000E+00 0.  1.
    9000005    2    1    2  501    0  0.78686704221E+02  0.54608014820E+01 -0.24461545590E+03  0.25703698286E+03  0.31418979159E+01 0.  0.
         13    1    3    3    0    0  0.28003533005E+02  0.47327261450E+00 -0.87868655675E+02  0.92224305353E+02  0.00000000000E+00 0.  1.
          1    1    3    3  501    0  0.50683171217E+02  0.49875288675E+01 -0.15674680022E+03  0.16481267751E+03  0.00000000000E+00 0.  1.
         21    1    1    2  502  501 -0.78686704221E+02 -0.54608014820E+01 -0.74709768762E+03  0.75124987362E+03  0.00000000000E+00 0.  1.
<mgrwt>
<rscale>  1 0.30000000E+03</rscale>
<asrwt>0</asrwt>
<pdfrwt beam="1">  1        3 0.30134087E-01 0.30000000E+03</pdfrwt>
<pdfrwt beam="2">0</pdfrwt>
<totfact> 0.46369098E+01</totfact>
</mgrwt>
</event>
<event>
 6    1  0.3125838E-002  0.3000000E+03  0.7818608E-02  0.1093470E+00
          3   -1    0    0  502    0  0.00000000000E+00  0.00000000000E+00  0.13417316000E+01  0.13417316000E+01  0.00000000000E+00 0.  1.
         13   -1    0    0    0    0 -0.00000000000E+00 -0.00000000000E+00 -0.10000000000E+04  0.10000000000E+04  0.00000000000E+00 0.  1.
    9000005    2    1    2  501    0  0.33048870484E+02 -0.12075830380E+02 -0.63518476382E+03  0.63616911207E+03  0.36607989289E+01 0.  0.
         13    1    3    3    0    0  0.17182176587E+02 -0.80888927875E+01 -0.35311649583E+03  0.35362680470E+03  0.00000000000E+00 0.  1.
          3    1    3    3  501    0  0.15866693897E+02 -0.39869375930E+01 -0.28206826799E+03  0.28254230737E+03  0.00000000000E+00 0.  1.
         21    1    1    2  502  501 -0.33048870484E+02  0.12075830380E+02 -0.36347350458E+03  0.36517261953E+03  0.00000000000E+00 0.  1.
<mgrwt>
<rscale>  1 0.30000000E+03</rscale>
<asrwt>0</asrwt>
<pdfrwt beam="1">  1        3 0.48790343E-02 0.30000000E+03</pdfrwt>
<pdfrwt beam="2">0</pdfrwt>
<totfact> 0.10275090E+03</totfact>
</mgrwt>
</event>
<event>
 6    1  0.3125838E-002  0.3000000E+03  0.7818608E-02  0.1093470E+00
          3   -1    0    0  502    0  0.00000000000E+00  0.00000000000E+00  0.18925666385E+01  0.18925666385E+01  0.00000000000E+00 0.  1.
         13   -1    0    0    0    0 -0.00000000000E+00 -0.00000000000E+00 -0.10000000000E+04  0.10000000000E+04  0.00000000000E+00 0.  1.
    9000005    2    1    2  501    0  0.32852116167E+02 -0.78689833185E+01 -0.81395839851E+03  0.81467064092E+03  0.43354616303E+01 0.  0.
         13    1    3    3    0    0  0.27527673395E+02 -0.49152296040E+01 -0.67442956272E+03  0.67500901280E+03  0.00000000000E+00 0.  1.
          1    1    3    3  501    0  0.53244427723E+01 -0.29537537145E+01 -0.13952883579E+03  0.13966162812E+03  0.00000000000E+00 0.  1.
         21    1    1    2  502  501 -0.32852116167E+02  0.78689833185E+01 -0.18414903485E+03  0.18722192572E+03  0.00000000000E+00 0.  1.
<mgrwt>
<rscale>  1 0.30000000E+03</rscale>
<asrwt>0</asrwt>
<pdfrwt beam="1">  1        3 0.68820750E-02 0.30000000E+03</pdfrwt>
<pdfrwt beam="2">0</pdfrwt>
<totfact> 0.60162527E+02</totfact>
</mgrwt>
</event>
<event>
 6    1  0.3125838E-002  0.3000000E+03  0.7818608E-02  0.1093470E+00
          1   -1    0    0  502    0  0.00000000000E+00  0.00000000000E+00  0.66957303170E+01  0.66957303170E+01  0.00000000000E+00 0.  1.
         13   -1    0    0    0    0 -0.00000000000E+00 -0.00000000000E+00 -0.10000000000E+04  0.10000000000E+04  0.00000000000E+00 0.  1.
    9000005    2    1    2  501    0  0.52016096812E+02  0.62965066966E+02 -0.52391387061E+03  0.53025305725E+03  0.35052689731E+01 0.  0.
         13    1    3    3    0    0  0.29767441352E+01  0.50064405198E+01 -0.37998352214E+02  0.38442167256E+02  0.00000000000E+00 0.  1.
          1    1    3    3  501    0  0.49039352677E+02  0.57958626446E+02 -0.48591551840E+03  0.49181088999E+03  0.00000000000E+00 0.  1.
         21    1    1    2  502  501 -0.52016096812E+02 -0.62965066966E+02 -0.46939039907E+03  0.47644267307E+03  0.00000000000E+00 0.  1.
<mgrwt>
<rscale>  1 0.30000000E+03</rscale>
<asrwt>0</asrwt>
<pdfrwt beam="1">  1        1 0.24348162E-01 0.30000000E+03</pdfrwt>
<pdfrwt beam="2">0</pdfrwt>
<totfact> 0.22671520E+02</totfact>
</mgrwt>
</event>
<event>
 6    1  0.3125838E-002  0.3000000E+03  0.7818608E-02  0.1093470E+00
          1   -1    0    0  502    0  0.00000000000E+00  0.00000000000E+00  0.10974199313E+01  0.10974199313E+01  0.00000000000E+00 0.  1.
         13   -1    0    0    0    0 -0.00000000000E+00 -0.00000000000E+00 -0.10000000000E+04  0.10000000000E+04  0.00000000000E+00 0.  1.
    9000005    2    1    2  501    0  0.29276895361E+02  0.81421798761E+01 -0.69686436074E+03  0.69753438261E+03  0.32933193590E+01 0.  0.
         13    1    3    3    0    0  0.17462166201E+02  0.63436959045E+01 -0.44050268776E+03  0.44089430439E+03  0.00000000000E+00 0.  1.
          3    1    3    3  501    0  0.11814729159E+02  0.17984839716E+01 -0.25636167299E+03  0.25664007821E+03  0.00000000000E+00 0.  1.
         21    1    1    2  502  501 -0.29276895361E+02 -0.81421798761E+01 -0.30203821933E+03  0.30356303732E+03  0.00000000000E+00 0.  1.
<mgrwt>
<rscale>  1 0.30000000E+03</rscale>
<asrwt>0</asrwt>
<pdfrwt beam="1">  1        1 0.39906263E-02 0.30000000E+03</pdfrwt>
<pdfrwt beam="2">0</pdfrwt>
<totfact> 0.27319621E+03</totfact>
</mgrwt>
</event>
<event>
 6    1  0.3125838E-002  0.3000000E+03  0.7818608E-02  0.1093470E+00
          1   -1    0    0  502    0  0.00000000000E+00  0.00000000000E+00  0.53235108956E+01  0.53235108956E+01  0.00000000000E+00 0.  1.
         13   -1    0    0    0    0 -0.00000000000E+00 -0.00000000000E+00 -0.10000000000E+04  0.10000000000E+04  0.00000000000E+00 0.  1.
    9000005    2    1    2  501    0 -0.39203938768E+02  0.32832448063E+02 -0.85578902892E+03  0.85732133167E+03  0.31757275706E+01 0.  0.
         13    1    3    3    0    0 -0.37678085087E+02  0.31031230674E+02 -0.82429533057E+03  0.82573928535E+03  0.00000000000E+00 0.  1.
          3    1    3    3  501    0 -0.15258536807E+01  0.18012173896E+01 -0.31493698359E+02  0.31582046322E+02  0.00000000000E+00 0.  1.
         21    1    1    2  502  501  0.39203938768E+02 -0.32832448063E+02 -0.13888746018E+03  0.14800217923E+03  0.00000000000E+00 0.  1.
<mgrwt>
<rscale>  1 0.30000000E+03</rscale>
<asrwt>0</asrwt>
<pdfrwt beam="1">  1        1 0.19358262E-01 0.30000000E+03</pdfrwt>
<pdfrwt beam="2">0</pdfrwt>
<totfact> 0.30755222E+02</totfact>
</mgrwt>
</event>
<event>
 6    1  0.3125838E-002  0.3000000E+03  0.7818608E-02  0.1093470E+00
          3   -1    0    0  502    0  0.00000000000E+00  0.00000000000E+00  0.13180590229E+01  0.13180590229E+01  0.00000000000E+00 0.  1.
         13   -1    0    0    0    0 -0.00000000000E+00 -0.00000000000E+00 -0.10000000000E+04  0.10000000000E+04  0.00000000000E+00 0.  1.
    9000005    2    1    2  501    0 -0.33927475730E+02 -0.15973181250E+00 -0.67511422946E+03  0.67597644923E+03  0.37199430150E+01 0.  0.
         13    1    3    3    0    0 -0.29262500535E+02  0.10093954139E+01 -0.56758529140E+03  0.56834001780E+03  0.00000000000E+00 0.  1.
          3    1    3    3  501    0 -0.46649751954E+01 -0.11691272264E+01 -0.10752893805E+03  0.10763643143E+03  0.00000000000E+00 0.  1.
         21    1    1    2  502  501  0.33927475730E+02  0.15973181250E+00 -0.32356771152E+03  0.32534160979E+03  0.00000000000E+00 0.  1.
<mgrwt>
<rscale>  1 0.30000000E+03</rscale>
<asrwt>0</asrwt>
<pdfrwt beam="1">  1        3 0.47929520E-02 0.30000000E+03</pdfrwt>
<pdfrwt beam="2">0</pdfrwt>
<totfact> 0.10561244E+03</totfact>
</mgrwt>
</event>
<event>
 6    1  0.3125838E-002  0.3000000E+03  0.7818608E-02  0.1093470E+00
          3   -1    0    0  502    0  0.00000000000E+00  0.00000000000E+00  0.19858402555E+01  0.19858402555E+01  0.00000000000E+00 0.  1.
         13   -1    0    0    0    0 -0.00000000000E+00 -0.00000000000E+00 -0.10000000000E+04  0.10000000000E+04  0.00000000000E+00 0.  1.
    9000005    2    1    2  501    0  0.34482891729E+02 -0.22314815194E+02 -0.69156775567E+03  0.69279913393E+03  0.42022006713E+01 0.  0.
         13    1    3    3    0    0  0.27023304377E+02 -0.16797436936E+02 -0.56156901146E+03  0.56246970363E+03  0.00000000000E+00 0.  1.
          1    1    3    3  501    0  0.74595873521E+01 -0.55173782578E+01 -0.12999874421E+03  0.13032943030E+03  0.00000000000E+00 0.  1.
         21    1    1    2  502  501 -0.34482891729E+02  0.22314815194E+02 -0.30644640407E+03  0.30918670633E+03  0.00000000000E+00 0.  1.
<mgrwt>
<rscale>  1 0.30000000E+03</rscale>
<asrwt>0</asrwt>
<pdfrwt beam="1">  1        3 0.72212525E-02 0.30000000E+03</pdfrwt>
<pdfrwt beam="2">0</pdfrwt>
<totfact> 0.55767480E+02</totfact>
</mgrwt>
</event>
<event>
 6    1  0.3125838E-002  0.3000000E+03  0.7818608E-02  0.1093470E+00
          3   -1    0    0  502    0  0.00000000000E+00  0.00000000000E+00  0.20322189198E+01  0.20322189198E+01  0.00000000000E+00 0.  1.
         13   -1    0    0    0    0 -0.00000000000E+00 -0.00000000000E+00 -0.10000000000E+04  0.10000000000E+04  0.00000000000E+00 0.  1.
    9000005    2    1    2  501    0  0.31797382469E+02 -0.75439540138E+01 -0.84366010680E+03  0.84430193294E+03  0.39234402509E+01 0.  0.
         13    1    3    3    0    0  0.36447776171E+01 -0.46416593849E+00 -0.12942567951E+03  0.12947782193E+03  0.00000000000E+00 0.  1.
          3    1    3    3  501    0  0.28152604852E+02 -0.70797880753E+01 -0.71423442729E+03  0.71482411101E+03  0.00000000000E+00 0.  1.
         21    1    1    2  502  501 -0.31797382469E+02  0.75439540138E+01 -0.15430767428E+03  0.15773028598E+03  0.00000000000E+00 0.  1.
<mgrwt>
<rscale>  1 0.30000000E+03</rscale>
<asrwt>0</asrwt>
<pdfrwt beam="1">  1        3 0.73899026E-02 0.30000000E+03</pdfrwt>
<pdfrwt beam="2">0</pdfrwt>
<totfact> 0.53765990E+02</totfact>
</mgrwt>
</event>
<event>
 6    1  0.3125838E-002  0.3000000E+03  0.7818608E-02  0.1093470E+00
          1   -1    0    0  502    0  0.00000000000E+00  0.00000000000E+00  0.53124883894E+01  0.53124883894E+01  0.00000000000E+00 0.  1.
         13   -1    0    0    0    0 -0.00000000000E+00 -0.00000000000E+00 -0.10000000000E+04  0.10000000000E+04  0.00000000000E+00 0.  1.
    9000005    2    1    2  501    0  0.24917475941E+02  0.18128948601E+02 -0.95283966460E+03  0.95334344294E+03  0.32793893620E+01 0.  0.
         13    1    3    3    0    0  0.23958357828E+02  0.16496368770E+02 -0.89920095638E+03  0.89967132501E+03  0.00000000000E+00 0.  1.
          3    1    3    3  501    0  0.95911811270E+00  0.16325798313E+01 -0.53638708215E+02  0.53672117933E+02  0.00000000000E+00 0.  1.
         21    1    1    2  502  501 -0.24917475941E+02 -0.18128948601E+02 -0.41847847016E+02  0.51969045445E+02  0.00000000000E+00 0.  1.
<mgrwt>
<rscale>  1 0.30000000E+03</rscale>
<asrwt>0</asrwt>
<pdfrwt beam="1">  1        1 0.19318180E-01 0.30000000E+03</pdfrwt>
<pdfrwt beam="2">0</pdfrwt>
<totfact> 0.30840725E+02</totfact>
</mgrwt>
</event>
<event>
 6    1  0.3125838E-002  0.3000000E+03  0.7818608E-02  0.1093470E+00
          1   -1    0    0  502    0  0.00000000000E+00  0.00000000000E+00  0.25259209859E+01  0.25259209859E+01  0.00000000000E+00 0.  1.
         13   -1    0    0    0    0 -0.00000000000E+00 -0.00000000000E+00 -0.10000000000E+04  0.10000000000E+04  0.00000000000E+00 0.  1.
    9000005    2    1    2  501    0  0.45647175323E+02 -0.16901104175E+02 -0.62125463439E+03  0.62317070164E+03  0.38846730644E+01 0.  0.
         13    1    3    3    0    0  0.36018927002E+02 -0.11740655619E+02 -0.47421082157E+03  0.47572167219E+03  0.00000000000E+00 0.  1.
          1    1    3    3  501    0  0.96282483214E+01 -0.51604485557E+01 -0.14704381282E+03  0.14744902945E+03  0.00000000000E+00 0.  1.
         21    1    1    2  502  501 -0.45647175323E+02  0.16901104175E+02 -0.37621944462E+03  0.37935521935E+03  0.00000000000E+00 0.  1.
<mgrwt>
<rscale>  1 0.30000000E+03</rscale>
<asrwt>0</asrwt>
<pdfrwt beam="1">  1        1 0.91851866E-02 0.30000000E+03</pdfrwt>
<pdfrwt beam="2">0</pdfrwt>
<totfact> 0.85003383E+02</totfact>
</mgrwt>
</event>
<event>
 6    1  0.3125838E-002  0.3000000E+03  0.7818608E-02  0.1093470E+00
          1   -1    0    0  502    0  0.00000000000E+00  0.00000000000E+00  0.98153406964E+00  0.98153406964E+00  0.00000000000E+00 0.  1.
         13   -1    0    0    0    0 -0.00000000000E+00 -0.00000000000E+00 -0.10000000000E+04  0.10000000000E+04  0.00000000000E+00 0.  1.
    9000005    2    1    2  501    0 -0.18711040032E+02 -0.23479557785E+02 -0.64092523386E+03  0.64163190557E+03  0.22258000268E+01 0.  0.
         13    1    3    3    0    0 -0.16920942964E+02 -0.20190885304E+02 -0.56812992322E+03  0.56874036240E+03  0.00000000000E+00 0.  1.
          1    1    3    3  501    0 -0.17900970672E+01 -0.32886724813E+01 -0.72795310641E+02  0.72891543169E+02  0.00000000000E+00 0.  1.
         21    1    1    2  502  501  0.18711040032E+02  0.23479557785E+02 -0.35809323207E+03  0.35934962850E+03  0.00000000000E+00 0.  1.
<mgrwt>
<rscale>  1 0.30000000E+03</rscale>
<asrwt>0</asrwt>
<pdfrwt beam="1">  1        1 0.35692223E-02 0.30000000E+03</pdfrwt>
<pdfrwt beam="2">0</pdfrwt>
<totfact> 0.31966066E+03</totfact>
</mgrwt>
</event>
<event>
 6    1  0.3125838E-002  0.3000000E+03  0.7818608E-02  0.1093470E+00
          1   -1    0    0  502    0  0.00000000000E+00  0.00000000000E+00  0.20334656134E+01  0.20334656134E+01  0.00000000000E+00 0.  1.
         13   -1    0    0    0    0 -0.00000000000E+00 -0.00000000000E+00 -0.10000000000E+04  0.10000000000E+04  0.00000000000E+00 0.  1.
    9000005    2    1    2  501    0 -0.25063368118E+02  0.24535006751E+02 -0.81345219177E+03  0.81421525135E+03  0.34450339320E+01 0.  0.
         13    1    3    3    0    0 -0.10761938493E+02  0.82892585797E+01 -0.32494712999E+03  0.32523094628E+03  0.00000000000E+00 0.  1.
          1    1    3    3  501    0 -0.14301429624E+02  0.16245748171E+02 -0.48850506178E+03  0.48898430507E+03  0.00000000000E+00 0.  1.
         21    1    1    2  502  501  0.25063368118E+02 -0.24535006751E+02 -0.18451434262E+03  0.18781821427E+03  0.00000000000E+00 0.  1.
<mgrwt>
<rscale>  1 0.30000000E+03</rscale>
<asrwt>0</asrwt>
<pdfrwt beam="1">  1        1 0.73944360E-02 0.30000000E+03</pdfrwt>
<pdfrwt beam="2">0</pdfrwt>
<totfact> 0.11493135E+03</totfact>
</mgrwt>
</event>
<event>
 6    1  0.3125838E-002  0.3000000E+03  0.7818608E-02  0.1093470E+00
          3   -1    0    0  502    0  0.00000000000E+00  0.00000000000E+00  0.25784167090E+01  0.25784167090E+01  0.00000000000E+00 0.  1.
         13   -1    0    0    0    0 -0.00000000000E+00 -0.00000000000E+00 -0.10000000000E+04  0.10000000000E+04  0.00000000000E+00 0.  1.
    9000005    2    1    2  501    0 -0.49652472182E+02 -0.75463987112E+01 -0.56980494815E+03  0.57202260990E+03  0.31418424424E+01 0.  0.
         13    1    3    3    0    0 -0.17246553732E+02 -0.14546862927E+01 -0.20704953396E+03  0.20777167574E+03  0.00000000000E+00 0.  1.
          3    1    3    3  501    0 -0.32405918450E+02 -0.60917124185E+01 -0.36275541419E+03  0.36425093415E+03  0.00000000000E+00 0.  1.
         21    1    1    2  502  501  0.49652472182E+02  0.75463987112E+01 -0.42761663514E+03  0.43055580681E+03  0.00000000000E+00 0.  1.
<mgrwt>
<rscale>  1 0.30000000E+03</rscale>
<asrwt>0</asrwt>
<pdfrwt beam="1">  1        3 0.93760805E-02 0.30000000E+03</pdfrwt>
<pdfrwt beam="2">0</pdfrwt>
<totfact> 0.36699454E+02</totfact>
</mgrwt>
</event>
<event>
 6    1  0.3125838E-002  0.3000000E+03  0.7818608E-02  0.1093470E+00
          1   -1    0    0  502    0  0.00000000000E+00  0.00000000000E+00  0.18052399563E+01  0.18052399563E+01  0.00000000000E+00 0.  1.
         13   -1    0    0    0    0 -0.00000000000E+00 -0.00000000000E+00 -0.10000000000E+04  0.10000000000E+04  0.00000000000E+00 0.  1.
    9000005    2    1    2  501    0 -0.48372258777E+01  0.37092803988E+02 -0.73573074658E+03  0.73668897636E+03  0.34119729701E+01 0.  0.
         13    1    3    3    0    0 -0.53453159354E+01  0.34122838249E+02 -0.68117108356E+03  0.68204617554E+03  0.00000000000E+00 0.  1.
          1    1    3    3  501    0  0.50809005767E+00  0.29699657386E+01 -0.54559663026E+02  0.54642800820E+02  0.00000000000E+00 0.  1.
         21    1    1    2  502  501  0.48372258777E+01 -0.37092803988E+02 -0.26246401346E+03  0.26511626360E+03  0.00000000000E+00 0.  1.
<mgrwt>
<rscale>  1 0.30000000E+03</rscale>
<asrwt>0</asrwt>
<pdfrwt beam="1">  1        1 0.65645228E-02 0.30000000E+03</pdfrwt>
<pdfrwt beam="2">0</pdfrwt>
<totfact> 0.13575024E+03</totfact>
</mgrwt>
</event>
<event>
 6    1  0.3125838E-002  0.3000000E+03  0.7818608E-02  0.1093470E+00
          3   -1    0    0  502    0  0.00000000000E+00  0.00000000000E+00  0.46785810890E+01  0.46785810890E+01  0.00000000000E+00 0.  1.
         13   -1    0    0    0    0 -0.00000000000E+00 -0.00000000000E+00 -0.10000000000E+04  0.10000000000E+04  0.00000000000E+00 0.  1.
    9000005    2    1    2  501    0 -0.12310630807E+02  0.51223392348E+02 -0.81757000389E+03  0.81928453292E+03  0.55719894827E+01 0.  0.
         13    1    3    3    0    0 -0.11315197374E+01  0.15494708085E+02 -0.24380668953E+03  0.24430118332E+03  0.00000000000E+00 0.  1.
          1    1    3    3  501    0 -0.11179111070E+02  0.35728684263E+02 -0.57376331437E+03  0.57498334960E+03  0.00000000000E+00 0.  1.
         21    1    1    2  502  501  0.12310630807E+02 -0.51223392348E+02 -0.17775141502E+03  0.18539404817E+03  0.00000000000E+00 0.  1.
<mgrwt>
<rscale>  1 0.30000000E+03</rscale>
<asrwt>0</asrwt>
<pdfrwt beam="1">  1        3 0.17013058E-01 0.30000000E+03</pdfrwt>
<pdfrwt beam="2">0</pdfrwt>
<totfact> 0.13352870E+02</totfact>
</mgrwt>
</event>
<event>
 6    1  0.3125838E-002  0.3000000E+03  0.7818608E-02  0.1093470E+00
          3   -1    0    0  502    0  0.00000000000E+00  0.00000000000E+00  0.32740534223E+01  0.32740534223E+01  0.00000000000E+00 0.  1.
         13   -1    0    0    0    0 -0.00000000000E+00 -0.00000000000E+00 -0.10000000000E+04  0.10000000000E+04  0.00000000000E+00 0.  1.
    9000005    2    1    2  501    0  0.24503562627E+02  0.46868767838E+02 -0.68892858331E+03  0.69096599587E+03  0.37826659046E+01 0.  0.
         13    1    3    3    0    0  0.73258309091E+01  0.10527823587E+02 -0.16812390298E+03  0.16861242428E+03  0.00000000000E+00 0.  1.
          1    1    3    3  501    0  0.17177731718E+02  0.36340944250E+02 -0.52080468033E+03  0.52235357158E+03  0.00000000000E+00 0.  1.
         21    1    1    2  502  501 -0.24503562627E+02 -0.46868767838E+02 -0.30779736327E+03  0.31230805756E+03  0.00000000000E+00 0.  1.
<mgrwt>
<rscale>  1 0.30000000E+03</rscale>
<asrwt>0</asrwt>
<pdfrwt beam="1">  1        3 0.11905674E-01 0.30000000E+03</pdfrwt>
<pdfrwt beam="2">0</pdfrwt>
<totfact> 0.24687637E+02</totfact>
</mgrwt>
</event>
<event>
 6    1  0.3125838E-002  0.3000000E+03  0.7818608E-02  0.1093470E+00
          1   -1    0    0  502    0  0.00000000000E+00  0.00000000000E+00  0.13620020860E+02  0.13620020860E+02  0.00000000000E+00 0.  1.
         13   -1    0    0    0    0 -0.00000000000E+00 -0.00000000000E+00 -0.10000000000E+04  0.10000000000E+04  0.00000000000E+00 0.  1.
    9000005    2    1    2  501    0 -0.96837751104E+00 -0.36401761359E+02 -0.97468909413E+03  0.97537472340E+03  0.33158497757E+01 0.  0.
         13    1    3    3    0    0 -0.19210617758E+01 -0.12805866038E+02 -0.34867306731E+03  0.34891343991E+03  0.00000000000E+00 0.  1.
          3    1    3    3  501    0  0.95268426480E+00 -0.23595895321E+02 -0.62601602682E+03  0.62646128350E+03  0.00000000000E+00 0.  1.
         21    1    1    2  502  501  0.96837751104E+00  0.36401761359E+02 -0.11690885012E+02  0.38245297455E+02  0.00000000000E+00 0.  1.
<mgrwt>
<rscale>  1 0.30000000E+03</rscale>
<asrwt>0</asrwt>
<pdfrwt beam="1">  1        1 0.49527453E-01 0.30000000E+03</pdfrwt>
<pdfrwt beam="2">0</pdfrwt>
<totfact> 0.89357647E+01</totfact>
</mgrwt>
</event>
<event>
 6    1  0.3125838E-002  0.3000000E+03  0.7818608E-02  0.1093470E+00
          3   -1    0    0  502    0  0.00000000000E+00  0.00000000000E+00  0.93137679667E+00  0.93137679667E+00  0.00000000000E+00 0.  1.
         13   -1    0    0    0    0 -0.00000000000E+00 -0.00000000000E+00 -0.10000000000E+04  0.10000000000E+04  0.00000000000E+00 0.  1.
    9000005    2    1    2  501    0  0.30062434525E+01 -0.30234125938E+02 -0.47447934948E+03  0.47546297054E+03  0.33531177334E+01 0.  0.
         13    1    3    3    0    0  0.24985704749E+01 -0.11880383670E+02 -0.20442816183E+03  0.20478832906E+03  0.00000000000E+00 0.  1.
          1    1    3    3  501    0  0.50767297762E+00 -0.18353742268E+02 -0.27005118765E+03  0.27067464148E+03  0.00000000000E+00 0.  1.
         21    1    1    2  502  501 -0.30062434525E+01  0.30234125938E+02 -0.52458927372E+03  0.52546840625E+03  0.00000000000E+00 0.  1.
<mgrwt>
<rscale>  1 0.30000000E+03</rscale>
<asrwt>0</asrwt>
<pdfrwt beam="1">  1        3 0.33868319E-02 0.30000000E+03</pdfrwt>
<pdfrwt beam="2">0</pdfrwt>
<totfact> 0.18029457E+03</totfact>
</mgrwt>
</event>
<event>
 6    1  0.3125838E-002  0.3000000E+03  0.7818608E-02  0.1093470E+00
          3   -1    0    0  502    0  0.00000000000E+00  0.00000000000E+00  0.10891686916E+01  0.10891686916E+01  0.00000000000E+00 0.  1.
         13   -1    0    0    0    0 -0.00000000000E+00 -0.00000000000E+00 -0.10000000000E+04  0.10000000000E+04  0.00000000000E+00 0.  1.
    9000005    2    1    2  501    0  0.11596961752E+02  0.30781527001E+02 -0.50039957148E+03  0.50149386437E+03  0.37911653985E+01 0.  0.
         13    1    3    3    0    0  0.10680262433E+02  0.27022162079E+02 -0.42223936441E+03  0.42323793085E+03  0.00000000000E+00 0.  1.
          1    1    3    3  501    0  0.91669931816E+00  0.37593649222E+01 -0.78160207065E+02  0.78255933517E+02  0.00000000000E+00 0.  1.
         21    1    1    2  502  501 -0.11596961752E+02 -0.30781527001E+02 -0.49851125983E+03  0.49959530432E+03  0.00000000000E+00 0.  1.
<mgrwt>
<rscale>  1 0.30000000E+03</rscale>
<asrwt>0</asrwt>
<pdfrwt beam="1">  1        3 0.39606218E-02 0.30000000E+03</pdfrwt>
<pdfrwt beam="2">0</pdfrwt>
<totfact> 0.14166326E+03</totfact>
</mgrwt>
</event>
<event>
 6    1  0.3125838E-002  0.3000000E+03  0.7818608E-02  0.1093470E+00
          1   -1    0    0  502    0  0.00000000000E+00  0.00000000000E+00  0.14382522563E+01  0.14382522563E+01  0.00000000000E+00 0.  1.
         13   -1    0    0    0    0 -0.00000000000E+00 -0.00000000000E+00 -0.10000000000E+04  0.10000000000E+04  0.00000000000E+00 0.  1.
    9000005    2    1    2  501    0 -0.19804436098E+02 -0.30552953812E+02 -0.63716899341E+03  0.63821597656E+03  0.30996612313E+01 0.  0.
         13    1    3    3    0    0 -0.13334517832E+02 -0.22720719097E+02 -0.47264061944E+03  0.47337426586E+03  0.00000000000E+00 0.  1.
          3    1    3    3  501    0 -0.64699182662E+01 -0.78322347152E+01 -0.16452837398E+03  0.16484171070E+03  0.00000000000E+00 0.  1.
         21    1    1    2  502  501  0.19804436098E+02  0.30552953812E+02 -0.36139275433E+03  0.36322227569E+03  0.00000000000E+00 0.  1.
<mgrwt>
<rscale>  1 0.30000000E+03</rscale>
<asrwt>0</asrwt>
<pdfrwt beam="1">  1        1 0.52300192E-02 0.30000000E+03</pdfrwt>
<pdfrwt beam="2">0</pdfrwt>
<totfact> 0.18673311E+03</totfact>
</mgrwt>
</event>
<event>
 6    1  0.3125838E-002  0.3000000E+03  0.7818608E-02  0.1093470E+00
          1   -1    0    0  502    0  0.00000000000E+00  0.00000000000E+00  0.31489960785E+01  0.31489960785E+01  0.00000000000E+00 0.  1.
         13   -1    0    0    0    0 -0.00000000000E+00 -0.00000000000E+00 -0.10000000000E+04  0.10000000000E+04  0.00000000000E+00 0.  1.
    9000005    2    1    2  501    0  0.48845481257E+02  0.15696343256E+02 -0.69996130356E+03  0.70185885284E+03  0.52694022757E+01 0.  0.
         13    1    3    3    0    0  0.21512502128E+02  0.42151146037E+01 -0.30345554599E+03  0.30424632016E+03  0.00000000000E+00 0.  1.
          1    1    3    3  501    0  0.27332979129E+02  0.11481228652E+02 -0.39650575757E+03  0.39761253269E+03  0.00000000000E+00 0.  1.
         21    1    1    2  502  501 -0.48845481257E+02 -0.15696343256E+02 -0.29688970036E+03  0.30129014324E+03  0.00000000000E+00 0.  1.
<mgrwt>
<rscale>  1 0.30000000E+03</rscale>
<asrwt>0</asrwt>
<pdfrwt beam="1">  1        1 0.11450919E-01 0.30000000E+03</pdfrwt>
<pdfrwt beam="2">0</pdfrwt>
<totfact> 0.62719614E+02</totfact>
</mgrwt>
</event>
<event>
 6    1  0.3125838E-002  0.3000000E+03  0.7818608E-02  0.1093470E+00
          1   -1    0    0  502    0  0.00000000000E+00  0.00000000000E+00  0.24188997190E+01  0.24188997190E+01  0.00000000000E+00 0.  1.
         13   -1    0    0    0    0 -0.00000000000E+00 -0.00000000000E+00 -0.10000000000E+04  0.10000000000E+04  0.00000000000E+00 0.  1.
    9000005    2    1    2  501    0 -0.66830128173E+01  0.41867673481E+02 -0.75223261079E+03  0.75343406878E+03  0.33809047466E+01 0.  0.
         13    1    3    3    0    0 -0.29926306775E+01  0.10433369288E+02 -0.18041001046E+03  0.18073622466E+03  0.00000000000E+00 0.  1.
          1    1    3    3  501    0 -0.36903821397E+01  0.31434304193E+02 -0.57182260034E+03  0.57269784412E+03  0.00000000000E+00 0.  1.
         21    1    1    2  502  501  0.66830128173E+01 -0.41867673481E+02 -0.24534848949E+03  0.24898483094E+03  0.00000000000E+00 0.  1.
<mgrwt>
<rscale>  1 0.30000000E+03</rscale>
<asrwt>0</asrwt>
<pdfrwt beam="1">  1        1 0.87960175E-02 0.30000000E+03</pdfrwt>
<pdfrwt beam="2">0</pdfrwt>
<totfact> 0.90262807E+02</totfact>
</mgrwt>
</event>
<event>
 6    1  0.3125838E-002  0.3000000E+03  0.7818608E-02  0.1093470E+00
          3   -1    0    0  502    0  0.00000000000E+00  0.00000000000E+00  0.92218097812E+00  0.92218097812E+00  0.00000000000E+00 0.  1.
         13   -1    0    0    0    0 -0.00000000000E+00 -0.00000000000E+00 -0.10000000000E+04  0.10000000000E+04  0.00000000000E+00 0.  1.
    9000005    2    1    2  501    0 -0.30057949739E+02  0.12470486577E+01 -0.55705592712E+03  0.55787772678E+03  0.33491234321E+01 0.  0.
         13    1    3    3    0    0 -0.20510444957E+00 -0.72085456160E-01 -0.12981141748E+02  0.12982962113E+02  0.00000000000E+00 0.  1.
          3    1    3    3  501    0 -0.29852845289E+02  0.13191341138E+01 -0.54407478537E+03  0.54489476467E+03  0.00000000000E+00 0.  1.
         21    1    1    2  502  501  0.30057949739E+02 -0.12470486577E+01 -0.44202189190E+03  0.44304445420E+03  0.00000000000E+00 0.  1.
<mgrwt>
<rscale>  1 0.30000000E+03</rscale>
<asrwt>0</asrwt>
<pdfrwt beam="1">  1        3 0.33533924E-02 0.30000000E+03</pdfrwt>
<pdfrwt beam="2">0</pdfrwt>
<totfact> 0.18307697E+03</totfact>
</mgrwt>
</event>
<event>
 6    1  0.3125838E-002  0.3000000E+03  0.7818608E-02  0.1093470E+00
          1   -1    0    0  502    0  0.00000000000E+00  0.00000000000E+00  0.61127780879E+01  0.61127780879E+01  0.00000000000E+00 0.  1.
         13   -1    0    0    0    0 -0.00000000000E+00 -0.00000000000E+00 -0.10000000000E+04  0.10000000000E+04  0.00000000000E+00 0.  1.
    9000005    2    1    2  501    0  0.22262407436E+01 -0.55243263929E+02 -0.85254386414E+03  0.85434084675E+03  0.32353942659E+01 0.  0.
         13    1    3    3    0    0 -0.39124744576E+00 -0.24837111182E+02 -0.39506398227E+03  0.39584414263E+03  0.00000000000E+00 0.  1.
          3    1    3    3  501    0  0.26174881894E+01 -0.30406152747E+02 -0.45747988187E+03  0.45849670412E+03  0.00000000000E+00 0.  1.
         21    1    1    2  502  501 -0.22262407436E+01  0.55243263929E+02 -0.14134335777E+03  0.15177193134E+03  0.00000000000E+00 0.  1.
<mgrwt>
<rscale>  1 0.30000000E+03</rscale>
<asrwt>0</asrwt>
<pdfrwt beam="1">  1        1 0.22228331E-01 0.30000000E+03</pdfrwt>
<pdfrwt beam="2">0</pdfrwt>
<totfact> 0.25577633E+02</totfact>
</mgrwt>
</event>
<event>
 6    1  0.3125838E-002  0.3000000E+03  0.7818608E-02  0.1093470E+00
          1   -1    0    0  502    0  0.00000000000E+00  0.00000000000E+00  0.51693716325E+01  0.51693716325E+01  0.00000000000E+00 0.  1.
         13   -1    0    0    0    0 -0.00000000000E+00 -0.00000000000E+00 -0.10000000000E+04  0.10000000000E+04  0.00000000000E+00 0.  1.
    9000005    2    1    2  501    0 -0.16928218525E+02  0.33807382005E+02 -0.92485245223E+03  0.92563039505E+03  0.31727246301E+01 0.  0.
         13    1    3    3    0    0 -0.62155524101E+01  0.99453063746E+01 -0.26330778619E+03  0.26356883821E+03  0.00000000000E+00 0.  1.
          3    1    3    3  501    0 -0.10712666114E+02  0.23862075631E+02 -0.66154466604E+03  0.66206155684E+03  0.00000000000E+00 0.  1.
         21    1    1    2  502  501  0.16928218525E+02 -0.33807382005E+02 -0.69978176136E+02  0.79538976582E+02  0.00000000000E+00 0.  1.
<mgrwt>
<rscale>  1 0.30000000E+03</rscale>
<asrwt>0</asrwt>
<pdfrwt beam="1">  1        1 0.18797755E-01 0.30000000E+03</pdfrwt>
<pdfrwt beam="2">0</pdfrwt>
<totfact> 0.31990561E+02</totfact>
</mgrwt>
</event>
<event>
 6    1  0.3125838E-002  0.3000000E+03  0.7818608E-02  0.1093470E+00
          3   -1    0    0  502    0  0.00000000000E+00  0.00000000000E+00  0.15102697374E+01  0.15102697374E+01  0.00000000000E+00 0.  1.
         13   -1    0    0    0    0 -0.00000000000E+00 -0.00000000000E+00 -0.10000000000E+04  0.10000000000E+04  0.00000000000E+00 0.  1.
    9000005    2    1    2  501    0 -0.30991165162E+02 -0.22645044669E+02 -0.42832662047E+03  0.43005666520E+03  0.34338195422E+01 0.  0.
         13    1    3    3    0    0 -0.23211879388E+02 -0.16277119683E+02 -0.33119234351E+03  0.33240352641E+03  0.00000000000E+00 0.  1.
          1    1    3    3  501    0 -0.77792857736E+01 -0.63679249865E+01 -0.97134276964E+02  0.97653138798E+02  0.00000000000E+00 0.  1.
         21    1    1    2  502  501  0.30991165162E+02  0.22645044669E+02 -0.57016310979E+03  0.57145360453E+03  0.00000000000E+00 0.  1.
<mgrwt>
<rscale>  1 0.30000000E+03</rscale>
<asrwt>0</asrwt>
<pdfrwt beam="1">  1        3 0.54919015E-02 0.30000000E+03</pdfrwt>
<pdfrwt beam="2">0</pdfrwt>
<totfact> 0.85575747E+02</totfact>
</mgrwt>
</event>
<event>
 6    1  0.3125838E-002  0.3000000E+03  0.7818608E-02  0.1093470E+00
          1   -1    0    0  502    0  0.00000000000E+00  0.00000000000E+00  0.13926953334E+01  0.13926953334E+01  0.00000000000E+00 0.  1.
         13   -1    0    0    0    0 -0.00000000000E+00 -0.00000000000E+00 -0.10000000000E+04  0.10000000000E+04  0.00000000000E+00 0.  1.
    9000005    2    1    2  501    0 -0.30104925777E+02  0.16603543547E+02 -0.69256583125E+03  0.69342619121E+03  0.32354009039E+01 0.  0.
         13    1    3    3    0    0 -0.92174883711E+01  0.39053518062E+01 -0.18086928230E+03  0.18114610441E+03  0.00000000000E+00 0.  1.
          1    1    3    3  501    0 -0.20887437406E+02  0.12698191741E+02 -0.51169654896E+03  0.51228008680E+03  0.00000000000E+00 0.  1.
         21    1    1    2  502  501  0.30104925777E+02 -0.16603543547E+02 -0.30604147341E+03  0.30796650413E+03  0.00000000000E+00 0.  1.
<mgrwt>
<rscale>  1 0.30000000E+03</rscale>
<asrwt>0</asrwt>
<pdfrwt beam="1">  1        1 0.50643573E-02 0.30000000E+03</pdfrwt>
<pdfrwt beam="2">0</pdfrwt>
<totfact> 0.19537248E+03</totfact>
</mgrwt>
</event>
<event>
 6    1  0.3125838E-002  0.3000000E+03  0.7818608E-02  0.1093470E+00
          1   -1    0    0  502    0  0.00000000000E+00  0.00000000000E+00  0.31837870689E+01  0.31837870689E+01  0.00000000000E+00 0.  1.
         13   -1    0    0    0    0 -0.00000000000E+00 -0.00000000000E+00 -0.10000000000E+04  0.10000000000E+04  0.00000000000E+00 0.  1.
    9000005    2    1    2  501    0 -0.47631618067E+02 -0.55659832739E+01 -0.76231673794E+03  0.76383100355E+03  0.33528828836E+01 0.  0.
         13    1    3    3    0    0 -0.30142806077E+02 -0.43710587224E+01 -0.50536413250E+03  0.50628114850E+03  0.00000000000E+00 0.  1.
          3    1    3    3  501    0 -0.17488811990E+02 -0.11949245515E+01 -0.25695260544E+03  0.25754985504E+03  0.00000000000E+00 0.  1.
         21    1    1    2  502  501  0.47631618067E+02  0.55659832739E+01 -0.23449947499E+03  0.23935278352E+03  0.00000000000E+00 0.  1.
<mgrwt>
<rscale>  1 0.30000000E+03</rscale>
<asrwt>0</asrwt>
<pdfrwt beam="1">  1        1 0.11577432E-01 0.30000000E+03</pdfrwt>
<pdfrwt beam="2">0</pdfrwt>
<totfact> 0.61781062E+02</totfact>
</mgrwt>
</event>
<event>
 6    1  0.3125838E-002  0.3000000E+03  0.7818608E-02  0.1093470E+00
          1   -1    0    0  502    0  0.00000000000E+00  0.00000000000E+00  0.27026899805E+01  0.27026899805E+01  0.00000000000E+00 0.  1.
         13   -1    0    0    0    0 -0.00000000000E+00 -0.00000000000E+00 -0.10000000000E+04  0.10000000000E+04  0.00000000000E+00 0.  1.
    9000005    2    1    2  501    0 -0.27451060780E+02 -0.21143075506E+02 -0.87215576472E+03  0.87285278918E+03  0.39652556307E+01 0.  0.
         13    1    3    3    0    0 -0.14106193869E+02 -0.12724958083E+02 -0.50908975771E+03  0.50944409965E+03  0.00000000000E+00 0.  1.
          1    1    3    3  501    0 -0.13344866912E+02 -0.84181174234E+01 -0.36306600701E+03  0.36340868952E+03  0.00000000000E+00 0.  1.
         21    1    1    2  502  501  0.27451060780E+02  0.21143075506E+02 -0.12514154530E+03  0.12984990080E+03  0.00000000000E+00 0.  1.
<mgrwt>
<rscale>  1 0.30000000E+03</rscale>
<asrwt>0</asrwt>
<pdfrwt beam="1">  1        1 0.98279843E-02 0.30000000E+03</pdfrwt>
<pdfrwt beam="2">0</pdfrwt>
<totfact> 0.77406518E+02</totfact>
</mgrwt>
</event>
<event>
 6    1  0.3125838E-002  0.3000000E+03  0.7818608E-02  0.1093470E+00
          1   -1    0    0  502    0  0.00000000000E+00  0.00000000000E+00  0.62499286487E+01  0.62499286487E+01  0.00000000000E+00 0.  1.
         13   -1    0    0    0    0 -0.00000000000E+00 -0.00000000000E+00 -0.10000000000E+04  0.10000000000E+04  0.00000000000E+00 0.  1.
    9000005    2    1    2  501    0  0.31493546369E+02  0.28560587394E+02 -0.92097624960E+03  0.92196719170E+03  0.43243068220E+01 0.  0.
         13    1    3    3    0    0  0.24698987258E+02  0.19847688272E+02 -0.68389508340E+03  0.68462869922E+03  0.00000000000E+00 0.  1.
          3    1    3    3  501    0  0.67945591108E+01  0.87128991218E+01 -0.23708116620E+03  0.23733849248E+03  0.00000000000E+00 0.  1.
         21    1    1    2  502  501 -0.31493546369E+02 -0.28560587394E+02 -0.72773821749E+02  0.84282736946E+02  0.00000000000E+00 0.  1.
<mgrwt>
<rscale>  1 0.30000000E+03</rscale>
<asrwt>0</asrwt>
<pdfrwt beam="1">  1        1 0.22727061E-01 0.30000000E+03</pdfrwt>
<pdfrwt beam="2">0</pdfrwt>
<totfact> 0.24835999E+02</totfact>
</mgrwt>
</event>
<event>
 6    1  0.3125838E-002  0.3000000E+03  0.7818608E-02  0.1093470E+00
          1   -1    0    0  502    0  0.00000000000E+00  0.00000000000E+00  0.20916953004E+01  0.20916953004E+01  0.00000000000E+00 0.  1.
         13   -1    0    0    0    0 -0.00000000000E+00 -0.00000000000E+00 -0.10000000000E+04  0.10000000000E+04  0.00000000000E+00 0.  1.
    9000005    2    1    2  501    0 -0.30603639267E+02  0.15704998707E+02 -0.82879333215E+03  0.82951387616E+03  0.34137363325E+01 0.  0.
         13    1    3    3    0    0 -0.27376895359E+02  0.12784637714E+02 -0.72375166341E+03  0.72438208954E+03  0.00000000000E+00 0.  1.
          1    1    3    3  501    0 -0.32267439082E+01  0.29203609928E+01 -0.10504166875E+03  0.10513178662E+03  0.00000000000E+00 0.  1.
         21    1    1    2  502  501  0.30603639267E+02 -0.15704998707E+02 -0.16911497255E+03  0.17257781914E+03  0.00000000000E+00 0.  1.
<mgrwt>
<rscale>  1 0.30000000E+03</rscale>
<asrwt>0</asrwt>
<pdfrwt beam="1">  1        1 0.76061808E-02 0.30000000E+03</pdfrwt>
<pdfrwt beam="2">0</pdfrwt>
<totfact> 0.11049035E+03</totfact>
</mgrwt>
</event>
<event>
 6    1  0.3125838E-002  0.3000000E+03  0.7818608E-02  0.1093470E+00
          1   -1    0    0  502    0  0.00000000000E+00  0.00000000000E+00  0.13047810571E+01  0.13047810571E+01  0.00000000000E+00 0.  1.
         13   -1    0    0    0    0 -0.00000000000E+00 -0.00000000000E+00 -0.10000000000E+04  0.10000000000E+04  0.00000000000E+00 0.  1.
    9000005    2    1    2  501    0  0.31341209884E+02 -0.17519948361E+02 -0.45950627072E+03  0.46092163743E+03  0.36773625133E+01 0.  0.
         13    1    3    3    0    0  0.25493528225E+02 -0.15518452127E+02 -0.36947089323E+03  0.37067436286E+03  0.00000000000E+00 0.  1.
          3    1    3    3  501    0  0.58476816589E+01 -0.20014962339E+01 -0.90035377492E+02  0.90247274575E+02  0.00000000000E+00 0.  1.
         21    1    1    2  502  501 -0.31341209884E+02  0.17519948361E+02 -0.53918894823E+03  0.54038314363E+03  0.00000000000E+00 0.  1.
<mgrwt>
<rscale>  1 0.30000000E+03</rscale>
<asrwt>0</asrwt>
<pdfrwt beam="1">  1        1 0.47446684E-02 0.30000000E+03</pdfrwt>
<pdfrwt beam="2">0</pdfrwt>
<totfact> 0.21412927E+03</totfact>
</mgrwt>
</event>
<event>
 6    1  0.3125838E-002  0.3000000E+03  0.7818608E-02  0.1093470E+00
          1   -1    0    0  502    0  0.00000000000E+00  0.00000000000E+00  0.91536764444E+01  0.91536764444E+01  0.00000000000E+00 0.  1.
         13   -1    0    0    0    0 -0.00000000000E+00 -0.00000000000E+00 -0.10000000000E+04  0.10000000000E+04  0.00000000000E+00 0.  1.
    9000005    2    1    2  501    0 -0.41308252137E+02 -0.30084423156E+02 -0.92197423999E+03  0.92339349859E+03  0.27585901612E+01 0.  0.
         13    1    3    3    0    0 -0.94550952460E+01 -0.82824007253E+01 -0.21991751736E+03  0.22027644320E+03  0.00000000000E+00 0.  1.
          3    1    3    3  501    0 -0.31853156891E+02 -0.21802022431E+02 -0.70205672263E+03  0.70311705538E+03  0.00000000000E+00 0.  1.
         21    1    1    2  502  501  0.41308252137E+02  0.30084423156E+02 -0.68872083568E+02  0.85760177858E+02  0.00000000000E+00 0.  1.
<mgrwt>
<rscale>  1 0.30000000E+03</rscale>
<asrwt>0</asrwt>
<pdfrwt beam="1">  1        1 0.33286166E-01 0.30000000E+03</pdfrwt>
<pdfrwt beam="2">0</pdfrwt>
<totfact> 0.15027595E+02</totfact>
</mgrwt>
</event>
<event>
 6    1  0.3125838E-002  0.3000000E+03  0.7818608E-02  0.1093470E+00
          3   -1    0    0  502    0  0.00000000000E+00  0.00000000000E+00  0.27606769922E+01  0.27606769922E+01  0.00000000000E+00 0.  1.
         13   -1    0    0    0    0 -0.00000000000E+00 -0.00000000000E+00 -0.10000000000E+04  0.10000000000E+04  0.00000000000E+00 0.  1.
    9000005    2    1    2  501    0 -0.29426547565E+02 -0.43129563849E+02 -0.44852286536E+03  0.45156576421E+03  0.35773844760E+01 0.  0.
         13    1    3    3    0    0 -0.10611242107E+02 -0.18669586659E+02 -0.18318775385E+03  0.18444214563E+03  0.00000000000E+00 0.  1.
          3    1    3    3  501    0 -0.18815305459E+02 -0.24459977189E+02 -0.26533511150E+03  0.26712361858E+03  0.00000000000E+00 0.  1.
         21    1    1    2  502  501  0.29426547565E+02  0.43129563849E+02 -0.54871645765E+03  0.55119491278E+03  0.00000000000E+00 0.  1.
<mgrwt>
<rscale>  1 0.30000000E+03</rscale>
<asrwt>0</asrwt>
<pdfrwt beam="1">  1        3 0.10038847E-01 0.30000000E+03</pdfrwt>
<pdfrwt beam="2">0</pdfrwt>
<totfact> 0.32813734E+02</totfact>
</mgrwt>
</event>
<event>
 6    1  0.3125838E-002  0.3000000E+03  0.7818608E-02  0.1093470E+00
          3   -1    0    0  502    0  0.00000000000E+00  0.00000000000E+00  0.19533871989E+01  0.19533871989E+01  0.00000000000E+00 0.  1.
         13   -1    0    0    0    0 -0.00000000000E+00 -0.00000000000E+00 -0.10000000000E+04  0.10000000000E+04  0.00000000000E+00 0.  1.
    9000005    2    1    2  501    0 -0.14721612966E+02 -0.30273479962E+02 -0.82248509351E+03  0.82319361395E+03  0.57260387069E+01 0.  0.
         13    1    3    3    0    0 -0.14609372298E+02 -0.30391740226E+02 -0.82170721395E+03  0.82239883092E+03  0.00000000000E+00 0.  1.
          1    1    3    3  501    0 -0.11224066862E+00  0.11826026389E+00 -0.77787955894E+00  0.79478303072E+00  0.00000000000E+00 0.  1.
         21    1    1    2  502  501  0.14721612966E+02  0.30273479962E+02 -0.17556151929E+03  0.17875977325E+03  0.00000000000E+00 0.  1.
<mgrwt>
<rscale>  1 0.30000000E+03</rscale>
<asrwt>0</asrwt>
<pdfrwt beam="1">  1        3 0.71032412E-02 0.30000000E+03</pdfrwt>
<pdfrwt beam="2">0</pdfrwt>
<totfact> 0.57237909E+02</totfact>
</mgrwt>
</event>
<event>
 6    1  0.3125838E-002  0.3000000E+03  0.7818608E-02  0.1093470E+00
          3   -1    0    0  502    0  0.00000000000E+00  0.00000000000E+00  0.38641808533E+01  0.38641808533E+01  0.00000000000E+00 0.  1.
         13   -1    0    0    0    0 -0.00000000000E+00 -0.00000000000E+00 -0.10000000000E+04  0.10000000000E+04  0.00000000000E+00 0.  1.
    9000005    2    1    2  501    0  0.15093422746E+02 -0.60135030191E+02 -0.52910651921E+03  0.53273744603E+03  0.33829669499E+01 0.  0.
         13    1    3    3    0    0  0.14384633772E+01 -0.86990138564E+01 -0.67531287457E+02  0.68104455101E+02  0.00000000000E+00 0.  1.
          1    1    3    3  501    0  0.13654959369E+02 -0.51436016335E+02 -0.46157523175E+03  0.46463299093E+03  0.00000000000E+00 0.  1.
         21    1    1    2  502  501 -0.15093422746E+02  0.60135030191E+02 -0.46702929994E+03  0.47112673483E+03  0.00000000000E+00 0.  1.
<mgrwt>
<rscale>  1 0.30000000E+03</rscale>
<asrwt>0</asrwt>
<pdfrwt beam="1">  1        3 0.14051596E-01 0.30000000E+03</pdfrwt>
<pdfrwt beam="2">0</pdfrwt>
<totfact> 0.18628414E+02</totfact>
</mgrwt>
</event>
<event>
 6    1  0.3125838E-002  0.3000000E+03  0.7818608E-02  0.1093470E+00
          1   -1    0    0  502    0  0.00000000000E+00  0.00000000000E+00  0.10800237691E+01  0.10800237691E+01  0.00000000000E+00 0.  1.
         13   -1    0    0    0    0 -0.00000000000E+00 -0.00000000000E+00 -0.10000000000E+04  0.10000000000E+04  0.00000000000E+00 0.  1.
    9000005    2    1    2  501    0 -0.30570636571E+02 -0.44103743246E+01 -0.66722536446E+03  0.66795042332E+03  0.37504404302E+01 0.  0.
         13    1    3    3    0    0 -0.11284404962E+02 -0.29722089208E+01 -0.22508243654E+03  0.22538472677E+03  0.00000000000E+00 0.  1.
          1    1    3    3  501    0 -0.19286231609E+02 -0.14381654038E+01 -0.44214292792E+03  0.44256569655E+03  0.00000000000E+00 0.  1.
         21    1    1    2  502  501  0.30570636571E+02  0.44103743246E+01 -0.33169461177E+03  0.33312960045E+03  0.00000000000E+00 0.  1.
<mgrwt>
<rscale>  1 0.30000000E+03</rscale>
<asrwt>0</asrwt>
<pdfrwt beam="1">  1        1 0.39273674E-02 0.30000000E+03</pdfrwt>
<pdfrwt beam="2">0</pdfrwt>
<totfact> 0.27941186E+03</totfact>
</mgrwt>
</event>
<event>
 6    1  0.3125838E-002  0.3000000E+03  0.7818608E-02  0.1093470E+00
          1   -1    0    0  502    0  0.00000000000E+00  0.00000000000E+00  0.31425783789E+01  0.31425783789E+01  0.00000000000E+00 0.  1.
         13   -1    0    0    0    0 -0.00000000000E+00 -0.00000000000E+00 -0.10000000000E+04  0.10000000000E+04  0.00000000000E+00 0.  1.
    9000005    2    1    2  501    0  0.37571189298E+02  0.20969449984E+02 -0.81975372787E+03  0.82088717945E+03  0.28766184105E+01 0.  0.
         13    1    3    3    0    0  0.11729214238E+02  0.80789932404E+01 -0.26703943251E+03  0.26741896551E+03  0.00000000000E+00 0.  1.
          3    1    3    3  501    0  0.25841975060E+02  0.12890456744E+02 -0.55271429536E+03  0.55346821394E+03  0.00000000000E+00 0.  1.
         21    1    1    2  502  501 -0.37571189298E+02 -0.20969449984E+02 -0.17710369376E+03  0.18225539893E+03  0.00000000000E+00 0.  1.
<mgrwt>
<rscale>  1 0.30000000E+03</rscale>
<asrwt>0</asrwt>
<pdfrwt beam="1">  1        1 0.11427582E-01 0.30000000E+03</pdfrwt>
<pdfrwt beam="2">0</pdfrwt>
<totfact> 0.62895473E+02</totfact>
</mgrwt>
</event>
<event>
 6    1  0.3125838E-002  0.3000000E+03  0.7818608E-02  0.1093470E+00
          1   -1    0    0  502    0  0.00000000000E+00  0.00000000000E+00  0.14783649923E+01  0.14783649923E+01  0.00000000000E+00 0.  1.
         13   -1    0    0    0    0 -0.00000000000E+00 -0.00000000000E+00 -0.10000000000E+04  0.10000000000E+04  0.00000000000E+00 0.  1.
    9000005    2    1    2  501    0 -0.27119408950E+02  0.25248776763E+02 -0.36849837491E+03  0.37036643250E+03  0.26979514002E+01 0.  0.
         13    1    3    3    0    0 -0.25443867059E+02  0.23722937613E+02 -0.35160628958E+03  0.35332301228E+03  0.00000000000E+00 0.  1.
          1    1    3    3  501    0 -0.16755418911E+01  0.15258391501E+01 -0.16892085338E+02  0.17043420221E+02  0.00000000000E+00 0.  1.
         21    1    1    2  502  501  0.27119408950E+02 -0.25248776763E+02 -0.63002326009E+03  0.63111193249E+03  0.00000000000E+00 0.  1.
<mgrwt>
<rscale>  1 0.30000000E+03</rscale>
<asrwt>0</asrwt>
<pdfrwt beam="1">  1        1 0.53758840E-02 0.30000000E+03</pdfrwt>
<pdfrwt beam="2">0</pdfrwt>
<totfact> 0.17965532E+03</totfact>
</mgrwt>
</event>
<event>
 6    1  0.3125838E-002  0.3000000E+03  0.7818608E-02  0.1093470E+00
          3   -1    0    0  502    0  0.00000000000E+00  0.00000000000E+00  0.20514720856E+01  0.20514720856E+01  0.00000000000E+00 0.  1.
         13   -1    0    0    0    0 -0.00000000000E+00 -0.00000000000E+00 -0.10000000000E+04  0.10000000000E+04  0.00000000000E+00 0.  1.
    9000005    2    1    2  501    0 -0.32368666489E+02  0.62192512704E+01 -0.84229512073E+03  0.84294649785E+03  0.33642509530E+01 0.  0.
         13    1    3    3    0    0 -0.60856847470E+01  0.70515569294E+00 -0.12756282302E+03  0.12770985326E+03  0.00000000000E+00 0.  1.
          3    1    3    3  501    0 -0.26282981742E+02  0.55140955774E+01 -0.71473229771E+03  0.71523664459E+03  0.00000000000E+00 0.  1.
         21    1    1    2  502  501  0.32368666489E+02 -0.62192512704E+01 -0.15565340719E+03  0.15910497423E+03  0.00000000000E+00 0.  1.
<mgrwt>
<rscale>  1 0.30000000E+03</rscale>
<asrwt>0</asrwt>
<pdfrwt beam="1">  1        3 0.74599142E-02 0.30000000E+03</pdfrwt>
<pdfrwt beam="2">0</pdfrwt>
<totfact> 0.52967667E+02</totfact>
</mgrwt>
</event>
<event>
 6    1  0.3125838E-002  0.3000000E+03  0.7818608E-02  0.1093470E+00
          3   -1    0    0  502    0  0.00000000000E+00  0.00000000000E+00  0.12715729280E+01  0.12715729280E+01  0.00000000000E+00 0.  1.
         13   -1    0    0    0    0 -0.00000000000E+00 -0.00000000000E+00 -0.10000000000E+04  0.10000000000E+04  0.00000000000E+00 0.  1.
    9000005    2    1    2  501    0  0.33559808030E+02 -0.33633928186E+01 -0.65768716302E+03  0.65856657309E+03  0.44669527502E+01 0.  0.
         13    1    3    3    0    0  0.18000466151E+02 -0.16977358100E+01 -0.39522184059E+03  0.39563518848E+03  0.00000000000E+00 0.  1.
          1    1    3    3  501    0  0.15559341878E+02 -0.16656570085E+01 -0.26246532243E+03  0.26293138461E+03  0.00000000000E+00 0.  1.
         21    1    1    2  502  501 -0.33559808030E+02  0.33633928186E+01 -0.34104126405E+03  0.34270499984E+03  0.00000000000E+00 0.  1.
<mgrwt>
<rscale>  1 0.30000000E+03</rscale>
<asrwt>0</asrwt>
<pdfrwt beam="1">  1        3 0.46239113E-02 0.30000000E+03</pdfrwt>
<pdfrwt beam="2">0</pdfrwt>
<totfact> 0.11162954E+03</totfact>
</mgrwt>
</event>
<event>
 6    1  0.3125838E-002  0.3000000E+03  0.7818608E-02  0.1093470E+00
          1   -1    0    0  502    0  0.00000000000E+00  0.00000000000E+00  0.51488931179E+01  0.51488931179E+01  0.00000000000E+00 0.  1.
         13   -1    0    0    0    0 -0.00000000000E+00 -0.00000000000E+00 -0.10000000000E+04  0.10000000000E+04  0.00000000000E+00 0.  1.
    9000005    2    1    2  501    0  0.19280918355E+01 -0.44192545784E+02 -0.89305626868E+03  0.89415840828E+03  0.36140585567E+01 0.  0.
         13    1    3    3    0    0  0.22797873069E+01 -0.22558714526E+02 -0.48233425380E+03  0.48286688168E+03  0.00000000000E+00 0.  1.
          3    1    3    3  501    0 -0.35169547134E+00 -0.21633831258E+02 -0.41072201488E+03  0.41129152660E+03  0.00000000000E+00 0.  1.
         21    1    1    2  502  501 -0.19280918355E+01  0.44192545784E+02 -0.10179483820E+03  0.11099048484E+03  0.00000000000E+00 0.  1.
<mgrwt>
<rscale>  1 0.30000000E+03</rscale>
<asrwt>0</asrwt>
<pdfrwt beam="1">  1        1 0.18723287E-01 0.30000000E+03</pdfrwt>
<pdfrwt beam="2">0</pdfrwt>
<totfact> 0.32161348E+02</totfact>
</mgrwt>
</event>
<event>
 6    1  0.3125838E-002  0.3000000E+03  0.7818608E-02  0.1093470E+00
          1   -1    0    0  502    0  0.00000000000E+00  0.00000000000E+00  0.13903148389E+01  0.13903148389E+01  0.00000000000E+00 0.  1.
         13   -1    0    0    0    0 -0.00000000000E+00 -0.00000000000E+00 -0.10000000000E+04  0.10000000000E+04  0.00000000000E+00 0.  1.
    9000005    2    1    2  501    0 -0.52706793593E+01  0.36502413659E+02 -0.51735025277E+03  0.51871977759E+03  0.76627251463E+01 0.  0.
         13    1    3    3    0    0 -0.52430561758E+01  0.33976717297E+02 -0.44523824104E+03  0.44656354334E+03  0.00000000000E+00 0.  1.
          1    1    3    3  501    0 -0.27623183508E-01  0.25256963627E+01 -0.72112011733E+02  0.72156234251E+02  0.00000000000E+00 0.  1.
         21    1    1    2  502  501  0.52706793593E+01 -0.36502413659E+02 -0.48125943239E+03  0.48267053725E+03  0.00000000000E+00 0.  1.
<mgrwt>
<rscale>  1 0.30000000E+03</rscale>
<asrwt>0</asrwt>
<pdfrwt beam="1">  1        1 0.50557010E-02 0.30000000E+03</pdfrwt>
<pdfrwt beam="2">0</pdfrwt>
<totfact> 0.19584276E+03</totfact>
</mgrwt>
</event>
<event>
 6    1  0.3125838E-002  0.3000000E+03  0.7818608E-02  0.1093470E+00
          3   -1    0    0  502    0  0.00000000000E+00  0.00000000000E+00  0.13920008347E+01  0.13920008347E+01  0.00000000000E+00 0.  1.
         13   -1    0    0    0    0 -0.00000000000E+00 -0.00000000000E+00 -0.10000000000E+04  0.10000000000E+04  0.00000000000E+00 0.  1.
    9000005    2    1    2  501    0 -0.17110314716E+00 -0.34947727043E+02 -0.32661596169E+03  0.32849180666E+03  0.27400190992E+01 0.  0.
         13    1    3    3    0    0 -0.33245239233E+00 -0.22963935112E+02 -0.20229785957E+03  0.20359733993E+03  0.00000000000E+00 0.  1.
          3    1    3    3  501    0  0.16134924517E+00 -0.11983791931E+02 -0.12431810213E+03  0.12489446673E+03  0.00000000000E+00 0.  1.
         21    1    1    2  502  501  0.17110314716E+00  0.34947727043E+02 -0.67199203747E+03  0.67290019418E+03  0.00000000000E+00 0.  1.
<mgrwt>
<rscale>  1 0.30000000E+03</rscale>
<asrwt>0</asrwt>
<pdfrwt beam="1">  1        3 0.50618319E-02 0.30000000E+03</pdfrwt>
<pdfrwt beam="2">0</pdfrwt>
<totfact> 0.97079702E+02</totfact>
</mgrwt>
</event>
<event>
 6    1  0.3125838E-002  0.3000000E+03  0.7818608E-02  0.1093470E+00
          1   -1    0    0  502    0  0.00000000000E+00  0.00000000000E+00  0.92548023262E+01  0.92548023262E+01  0.00000000000E+00 0.  1.
         13   -1    0    0    0    0 -0.00000000000E+00 -0.00000000000E+00 -0.10000000000E+04  0.10000000000E+04  0.00000000000E+00 0.  1.
    9000005    2    1    2  501    0  0.30626747369E+02 -0.62622900315E+02 -0.14803777640E+03  0.16366895620E+03  0.35663264131E+01 0.  0.
         13    1    3    3    0    0  0.29812650760E+02 -0.61755213567E+02 -0.14473549547E+03  0.16015887174E+03  0.00000000000E+00 0.  1.
          3    1    3    3  501    0  0.81409660835E+00 -0.86768674803E+00 -0.33022809296E+01  0.35100844603E+01  0.00000000000E+00 0.  1.
         21    1    1    2  502  501 -0.30626747369E+02  0.62622900315E+02 -0.84270742127E+03  0.84558584613E+03  0.00000000000E+00 0.  1.
<mgrwt>
<rscale>  1 0.30000000E+03</rscale>
<asrwt>0</asrwt>
<pdfrwt beam="1">  1        1 0.33653898E-01 0.30000000E+03</pdfrwt>
<pdfrwt beam="2">0</pdfrwt>
<totfact> 0.14812912E+02</totfact>
</mgrwt>
</event>
<event>
 6    1  0.3125838E-002  0.3000000E+03  0.7818608E-02  0.1093470E+00
          1   -1    0    0  502    0  0.00000000000E+00  0.00000000000E+00  0.10295523941E+01  0.10295523941E+01  0.00000000000E+00 0.  1.
         13   -1    0    0    0    0 -0.00000000000E+00 -0.00000000000E+00 -0.10000000000E+04  0.10000000000E+04  0.00000000000E+00 0.  1.
    9000005    2    1    2  501    0  0.29785266936E+02  0.10109924447E+02 -0.59392562007E+03  0.59476524801E+03  0.29470956241E+01 0.  0.
         13    1    3    3    0    0  0.99907859981E+01  0.47347439125E+01 -0.21939629992E+03  0.21967469136E+03  0.00000000000E+00 0.  1.
          1    1    3    3  501    0  0.19794480937E+02  0.53751805343E+01 -0.37452932015E+03  0.37509055665E+03  0.00000000000E+00 0.  1.
         21    1    1    2  502  501 -0.29785266936E+02 -0.10109924447E+02 -0.40504482754E+03  0.40626430438E+03  0.00000000000E+00 0.  1.
<mgrwt>
<rscale>  1 0.30000000E+03</rscale>
<asrwt>0</asrwt>
<pdfrwt beam="1">  1        1 0.37438348E-02 0.30000000E+03</pdfrwt>
<pdfrwt beam="2">0</pdfrwt>
<totfact> 0.29888402E+03</totfact>
</mgrwt>
</event>
<event>
 6    1  0.3125838E-002  0.3000000E+03  0.7818608E-02  0.1093470E+00
          3   -1    0    0  502    0  0.00000000000E+00  0.00000000000E+00  0.13498820278E+02  0.13498820278E+02  0.00000000000E+00 0.  1.
         13   -1    0    0    0    0 -0.00000000000E+00 -0.00000000000E+00 -0.10000000000E+04  0.10000000000E+04  0.00000000000E+00 0.  1.
    9000005    2    1    2  501    0  0.15433439241E+02  0.85253641260E+02 -0.83084237427E+03  0.83535270579E+03  0.29525890143E+01 0.  0.
         13    1    3    3    0    0  0.85516722588E+01  0.53213490996E+02 -0.50739974733E+03  0.51025416246E+03  0.00000000000E+00 0.  1.
          1    1    3    3  501    0  0.68817669827E+01  0.32040150264E+02 -0.32344262695E+03  0.32509854333E+03  0.00000000000E+00 0.  1.
         21    1    1    2  502  501 -0.15433439241E+02 -0.85253641260E+02 -0.15565880545E+03  0.17814611449E+03  0.00000000000E+00 0.  1.
<mgrwt>
<rscale>  1 0.30000000E+03</rscale>
<asrwt>0</asrwt>
<pdfrwt beam="1">  1        3 0.49086723E-01 0.30000000E+03</pdfrwt>
<pdfrwt beam="2">0</pdfrwt>
<totfact> 0.18099265E+01</totfact>
</mgrwt>
</event>
<event>
 6    1  0.3125838E-002  0.3000000E+03  0.7818608E-02  0.1093470E+00
          1   -1    0    0  502    0  0.00000000000E+00  0.00000000000E+00  0.73950775966E+01  0.73950775966E+01  0.00000000000E+00 0.  1.
         13   -1    0    0    0    0 -0.00000000000E+00 -0.00000000000E+00 -0.10000000000E+04  0.10000000000E+04  0.00000000000E+00 0.  1.
    9000005    2    1    2  501    0 -0.31951592425E+02 -0.16173580471E+02 -0.95422091498E+03  0.95489916357E+03  0.35169639977E+01 0.  0.
         13    1    3    3    0    0 -0.27858518552E+02 -0.14680248891E+02 -0.86286502255E+03  0.86343943268E+03  0.00000000000E+00 0.  1.
          3    1    3    3  501    0 -0.40930738734E+01 -0.14933315801E+01 -0.91355892428E+02  0.91459730889E+02  0.00000000000E+00 0.  1.
         21    1    1    2  502  501  0.31951592425E+02  0.16173580471E+02 -0.38384007425E+02  0.52495914029E+02  0.00000000000E+00 0.  1.
<mgrwt>
<rscale>  1 0.30000000E+03</rscale>
<asrwt>0</asrwt>
<pdfrwt beam="1">  1        1 0.26891248E-01 0.30000000E+03</pdfrwt>
<pdfrwt beam="2">0</pdfrwt>
<totfact> 0.19884350E+02</totfact>
</mgrwt>
</event>
<event>
 6    1  0.3125838E-002  0.3000000E+03  0.7818608E-02  0.1093470E+00
          3   -1    0    0  502    0  0.00000000000E+00  0.00000000000E+00  0.10026311033E+02  0.10026311033E+02  0.00000000000E+00 0.  1.
         13   -1    0    0    0    0 -0.00000000000E+00 -0.00000000000E+00 -0.10000000000E+04  0.10000000000E+04  0.00000000000E+00 0.  1.
    9000005    2    1    2  501    0 -0.23763164556E+02  0.49970832800E+02 -0.91586243741E+03  0.91753712395E+03  0.29321389241E+01 0.  0.
         13    1    3    3    0    0 -0.95718957792E+01  0.23506742637E+02 -0.41668432239E+03  0.41745659973E+03  0.00000000000E+00 0.  1.
          1    1    3    3  501    0 -0.14191268777E+02  0.26464090164E+02 -0.49917811503E+03  0.50008052422E+03  0.00000000000E+00 0.  1.
         21    1    1    2  502  501  0.23763164556E+02 -0.49970832800E+02 -0.74111251553E+02  0.92489187083E+02  0.00000000000E+00 0.  1.
<mgrwt>
<rscale>  1 0.30000000E+03</rscale>
<asrwt>0</asrwt>
<pdfrwt beam="1">  1        3 0.36459390E-01 0.30000000E+03</pdfrwt>
<pdfrwt beam="2">0</pdfrwt>
<totfact> 0.32192005E+01</totfact>
</mgrwt>
</event>
<event>
 6    1  0.3125838E-002  0.3000000E+03  0.7818608E-02  0.1093470E+00
          1   -1    0    0  502    0  0.00000000000E+00  0.00000000000E+00  0.16261799232E+01  0.16261799232E+01  0.00000000000E+00 0.  1.
         13   -1    0    0    0    0 -0.00000000000E+00 -0.00000000000E+00 -0.10000000000E+04  0.10000000000E+04  0.00000000000E+00 0.  1.
    9000005    2    1    2  501    0  0.21470110889E+02  0.33880022189E+02 -0.54288623040E+03  0.54437595749E+03  0.33018738050E+01 0.  0.
         13    1    3    3    0    0  0.33876359572E+01  0.36890474908E+01 -0.76643354892E+02  0.76806829110E+02  0.00000000000E+00 0.  1.
          1    1    3    3  501    0  0.18082474932E+02  0.30190974699E+02 -0.46624287551E+03  0.46756912838E+03  0.00000000000E+00 0.  1.
         21    1    1    2  502  501 -0.21470110889E+02 -0.33880022189E+02 -0.45548758968E+03  0.45725022243E+03  0.00000000000E+00 0.  1.
<mgrwt>
<rscale>  1 0.30000000E+03</rscale>
<asrwt>0</asrwt>
<pdfrwt beam="1">  1        1 0.59133940E-02 0.30000000E+03</pdfrwt>
<pdfrwt beam="2">0</pdfrwt>
<totfact> 0.15715796E+03</totfact>
</mgrwt>
</event>
<event>
 6    1  0.3125838E-002  0.3000000E+03  0.7818608E-02  0.1093470E+00
          3   -1    0    0  502    0  0.00000000000E+00  0.00000000000E+00  0.14662857094E+01  0.14662857094E+01  0.00000000000E+00 0.  1.
         13   -1    0    0    0    0 -0.00000000000E+00 -0.00000000000E+00 -0.10000000000E+04  0.10000000000E+04  0.00000000000E+00 0.  1.
    9000005    2    1    2  501    0 -0.37874786971E+02 -0.82568854566E+00 -0.56632076209E+03  0.56759623916E+03  0.33322478521E+01 0.  0.
         13    1    3    3    0    0 -0.32988794825E+02  0.40461221610E+00 -0.49055920204E+03  0.49166732147E+03  0.00000000000E+00 0.  1.
          1    1    3    3  501    0 -0.48859921466E+01 -0.12303007618E+01 -0.75761560059E+02  0.75928917691E+02  0.00000000000E+00 0.  1.
         21    1    1    2  502  501  0.37874786971E+02  0.82568854566E+00 -0.43221295220E+03  0.43387004655E+03  0.00000000000E+00 0.  1.
<mgrwt>
<rscale>  1 0.30000000E+03</rscale>
<asrwt>0</asrwt>
<pdfrwt beam="1">  1        3 0.53319593E-02 0.30000000E+03</pdfrwt>
<pdfrwt beam="2">0</pdfrwt>
<totfact> 0.89583973E+02</totfact>
</mgrwt>
</event>
<event>
 6    1  0.3125838E-002  0.3000000E+03  0.7818608E-02  0.1093470E+00
          1   -1    0    0  502    0  0.00000000000E+00  0.00000000000E+00  0.55495311731E+01  0.55495311731E+01  0.00000000000E+00 0.  1.
         13   -1    0    0    0    0 -0.00000000000E+00 -0.00000000000E+00 -0.10000000000E+04  0.10000000000E+04  0.00000000000E+00 0.  1.
    9000005    2    1    2  501    0  0.43685260173E+02 -0.10191226731E+02 -0.89856446933E+03  0.89968930277E+03  0.32361879999E+01 0.  0.
         13    1    3    3    0    0  0.39876211025E+02 -0.91070250720E+01 -0.83546931402E+03  0.83646997841E+03  0.00000000000E+00 0.  1.
          3    1    3    3  501    0  0.38090491480E+01 -0.10842016589E+01 -0.63095155309E+02  0.63219324356E+02  0.00000000000E+00 0.  1.
         21    1    1    2  502  501 -0.43685260173E+02  0.10191226731E+02 -0.95885999499E+02  0.10586022841E+03  0.00000000000E+00 0.  1.
<mgrwt>
<rscale>  1 0.30000000E+03</rscale>
<asrwt>0</asrwt>
<pdfrwt beam="1">  1        1 0.20180156E-01 0.30000000E+03</pdfrwt>
<pdfrwt beam="2">0</pdfrwt>
<totfact> 0.29090718E+02</totfact>
</mgrwt>
</event>
<event>
 6    1  0.3125838E-002  0.3000000E+03  0.7818608E-02  0.1093470E+00
          3   -1    0    0  502    0  0.00000000000E+00  0.00000000000E+00  0.11346050020E+01  0.11346050020E+01  0.00000000000E+00 0.  1.
         13   -1    0    0    0    0 -0.00000000000E+00 -0.00000000000E+00 -0.10000000000E+04  0.10000000000E+04  0.00000000000E+00 0.  1.
    9000005    2    1    2  501    0  0.15979551815E+02 -0.28737417949E+02 -0.60312097210E+03  0.60402651704E+03  0.34555808666E+01 0.  0.
         13    1    3    3    0    0  0.35174050642E+01 -0.85459497159E+01 -0.19019001162E+03  0.19041440575E+03  0.00000000000E+00 0.  1.
          1    1    3    3  501    0  0.12462146750E+02 -0.20191468233E+02 -0.41293096047E+03  0.41361211129E+03  0.00000000000E+00 0.  1.
         21    1    1    2  502  501 -0.15979551815E+02  0.28737417949E+02 -0.39574442290E+03  0.39710808796E+03  0.00000000000E+00 0.  1.
<mgrwt>
<rscale>  1 0.30000000E+03</rscale>
<asrwt>0</asrwt>
<pdfrwt beam="1">  1        3 0.41258451E-02 0.30000000E+03</pdfrwt>
<pdfrwt beam="2">0</pdfrwt>
<totfact> 0.13304315E+03</totfact>
</mgrwt>
</event>
<event>
 6    1  0.3125838E-002  0.3000000E+03  0.7818608E-02  0.1093470E+00
          1   -1    0    0  502    0  0.00000000000E+00  0.00000000000E+00  0.19873750219E+01  0.19873750219E+01  0.00000000000E+00 0.  1.
         13   -1    0    0    0    0 -0.00000000000E+00 -0.00000000000E+00 -0.10000000000E+04  0.10000000000E+04  0.00000000000E+00 0.  1.
    9000005    2    1    2  501    0  0.42288169880E+02  0.46013485217E+01 -0.35183521486E+03  0.35441135086E+03  0.31504736486E+01 0.  0.
         13    1    3    3    0    0  0.12523740860E+02  0.28154751705E+01 -0.10582075693E+03  0.10659645202E+03  0.00000000000E+00 0.  1.
          3    1    3    3  501    0  0.29764429020E+02  0.17858733512E+01 -0.24601445793E+03  0.24781489885E+03  0.00000000000E+00 0.  1.
         21    1    1    2  502  501 -0.42288169880E+02 -0.46013485217E+01 -0.64617741012E+03  0.64757602416E+03  0.00000000000E+00 0.  1.
<mgrwt>
<rscale>  1 0.30000000E+03</rscale>
<asrwt>0</asrwt>
<pdfrwt beam="1">  1        1 0.72268335E-02 0.30000000E+03</pdfrwt>
<pdfrwt beam="2">0</pdfrwt>
<totfact> 0.11867154E+03</totfact>
</mgrwt>
</event>
<event>
 6    1  0.3125838E-002  0.3000000E+03  0.7818608E-02  0.1093470E+00
          3   -1    0    0  502    0  0.00000000000E+00  0.00000000000E+00  0.69384757887E+01  0.69384757887E+01  0.00000000000E+00 0.  1.
         13   -1    0    0    0    0 -0.00000000000E+00 -0.00000000000E+00 -0.10000000000E+04  0.10000000000E+04  0.00000000000E+00 0.  1.
    9000005    2    1    2  501    0 -0.61318956609E+02 -0.41727579400E+02 -0.26802903269E+03  0.27812209350E+03  0.33363466671E+01 0.  0.
         13    1    3    3    0    0 -0.20996038350E+02 -0.15062276326E+02 -0.87981060913E+02  0.91697180295E+02  0.00000000000E+00 0.  1.
          3    1    3    3  501    0 -0.40322918259E+02 -0.26665303074E+02 -0.18004797178E+03  0.18642491321E+03  0.00000000000E+00 0.  1.
         21    1    1    2  502  501  0.61318956609E+02  0.41727579400E+02 -0.72503249152E+03  0.72881638228E+03  0.00000000000E+00 0.  1.
<mgrwt>
<rscale>  1 0.30000000E+03</rscale>
<asrwt>0</asrwt>
<pdfrwt beam="1">  1        3 0.25230874E-01 0.30000000E+03</pdfrwt>
<pdfrwt beam="2">0</pdfrwt>
<totfact> 0.64874223E+01</totfact>
</mgrwt>
</event>
<event>
 6    1  0.3125838E-002  0.3000000E+03  0.7818608E-02  0.1093470E+00
          1   -1    0    0  502    0  0.00000000000E+00  0.00000000000E+00  0.18548505847E+01  0.18548505847E+01  0.00000000000E+00 0.  1.
         13   -1    0    0    0    0 -0.00000000000E+00 -0.00000000000E+00 -0.10000000000E+04  0.10000000000E+04  0.00000000000E+00 0.  1.
    9000005    2    1    2  501    0  0.29666756459E+02  0.26226151990E+02 -0.69499492481E+03  0.69612950626E+03  0.32274573350E+01 0.  0.
         13    1    3    3    0    0  0.10817665494E+02  0.10472562096E+02 -0.23982523608E+03  0.24029739971E+03  0.00000000000E+00 0.  1.
          1    1    3    3  501    0  0.18849090965E+02  0.15753589894E+02 -0.45516968873E+03  0.45583210655E+03  0.00000000000E+00 0.  1.
         21    1    1    2  502  501 -0.29666756459E+02 -0.26226151990E+02 -0.30315022460E+03  0.30572534433E+03  0.00000000000E+00 0.  1.
<mgrwt>
<rscale>  1 0.30000000E+03</rscale>
<asrwt>0</asrwt>
<pdfrwt beam="1">  1        1 0.67449254E-02 0.30000000E+03</pdfrwt>
<pdfrwt beam="2">0</pdfrwt>
<totfact> 0.13069462E+03</totfact>
</mgrwt>
</event>
<event>
 6    1  0.3125838E-002  0.3000000E+03  0.7818608E-02  0.1093470E+00
          3   -1    0    0  502    0  0.00000000000E+00  0.00000000000E+00  0.13535915270E+01  0.13535915270E+01  0.00000000000E+00 0.  1.
         13   -1    0    0    0    0 -0.00000000000E+00 -0.00000000000E+00 -0.10000000000E+04  0.10000000000E+04  0.00000000000E+00 0.  1.
    9000005    2    1    2  501    0 -0.16235714781E+02  0.27435057945E+02 -0.74812813467E+03  0.74881510664E+03  0.34752282139E+01 0.  0.
         13    1    3    3    0    0 -0.22456406289E+01  0.65954987765E+01 -0.16049123982E+03  0.16064240276E+03  0.00000000000E+00 0.  1.
          3    1    3    3  501    0 -0.13990074152E+02  0.20839559168E+02 -0.58763689486E+03  0.58817270389E+03  0.00000000000E+00 0.  1.
         21    1    1    2  502  501  0.16235714781E+02 -0.27435057945E+02 -0.25051827380E+03  0.25253848488E+03  0.00000000000E+00 0.  1.
<mgrwt>
<rscale>  1 0.30000000E+03</rscale>
<asrwt>0</asrwt>
<pdfrwt beam="1">  1        3 0.49221614E-02 0.30000000E+03</pdfrwt>
<pdfrwt beam="2">0</pdfrwt>
<totfact> 0.10136484E+03</totfact>
</mgrwt>
</event>
<event>
 6    1  0.3125838E-002  0.3000000E+03  0.7818608E-02  0.1093470E+00
          3   -1    0    0  502    0  0.00000000000E+00  0.00000000000E+00  0.10554626052E+02  0.10554626052E+02  0.00000000000E+00 0.  1.
         13   -1    0    0    0    0 -0.00000000000E+00 -0.00000000000E+00 -0.10000000000E+04  0.10000000000E+04  0.00000000000E+00 0.  1.
    9000005    2    1    2  501    0  0.30059807215E+02  0.17515620290E+02 -0.97013598129E+03  0.97076465736E+03  0.31319025881E+01 0.  0.
         13    1    3    3    0    0  0.20822108441E+02  0.13730483833E+02 -0.68424343190E+03  0.68469786073E+03  0.00000000000E+00 0.  1.
          3    1    3    3  501    0  0.92376987742E+01  0.37851364570E+01 -0.28589254939E+03  0.28606679663E+03  0.00000000000E+00 0.  1.
         21    1    1    2  502  501 -0.30059807215E+02 -0.17515620290E+02 -0.19309392657E+02  0.39789968695E+02  0.00000000000E+00 0.  1.
<mgrwt>
<rscale>  1 0.30000000E+03</rscale>
<asrwt>0</asrwt>
<pdfrwt beam="1">  1        3 0.38380539E-01 0.30000000E+03</pdfrwt>
<pdfrwt beam="2">0</pdfrwt>
<totfact> 0.29159584E+01</totfact>
</mgrwt>
</event>
<event>
 6    1  0.3125838E-002  0.3000000E+03  0.7818608E-02  0.1093470E+00
          1   -1    0    0  502    0  0.00000000000E+00  0.00000000000E+00  0.12189696803E+01  0.12189696803E+01  0.00000000000E+00 0.  1.
         13   -1    0    0    0    0 -0.00000000000E+00 -0.00000000000E+00 -0.10000000000E+04  0.10000000000E+04  0.00000000000E+00 0.  1.
    9000005    2    1    2  501    0 -0.24027980134E+02 -0.19575073977E+02 -0.72877872276E+03  0.72944374373E+03  0.30366387168E+01 0.  0.
         13    1    3    3    0    0 -0.22821629573E+02 -0.17903351790E+02 -0.69145872342E+03  0.69206684863E+03  0.00000000000E+00 0.  1.
          3    1    3    3  501    0 -0.12063505608E+01 -0.16717221877E+01 -0.37319999336E+02  0.37376895098E+02  0.00000000000E+00 0.  1.
         21    1    1    2  502  501  0.24027980134E+02  0.19575073977E+02 -0.27000230756E+03  0.27177522595E+03  0.00000000000E+00 0.  1.
<mgrwt>
<rscale>  1 0.30000000E+03</rscale>
<asrwt>0</asrwt>
<pdfrwt beam="1">  1        1 0.44326264E-02 0.30000000E+03</pdfrwt>
<pdfrwt beam="2">0</pdfrwt>
<totfact> 0.23563869E+03</totfact>
</mgrwt>
</event>
<event>
 6    1  0.3125838E-002  0.3000000E+03  0.7818608E-02  0.1093470E+00
          1   -1    0    0  502    0  0.00000000000E+00  0.00000000000E+00  0.14437272838E+01  0.14437272838E+01  0.00000000000E+00 0.  1.
         13   -1    0    0    0    0 -0.00000000000E+00 -0.00000000000E+00 -0.10000000000E+04  0.10000000000E+04  0.00000000000E+00 0.  1.
    9000005    2    1    2  501    0  0.34577409320E+02  0.87311204652E+01 -0.33028535572E+03  0.33222190442E+03  0.33388427077E+01 0.  0.
         13    1    3    3    0    0  0.16797244559E+02  0.53973528743E+01 -0.17456178427E+03  0.17545111960E+03  0.00000000000E+00 0.  1.
          3    1    3    3  501    0  0.17780164761E+02  0.33337675909E+01 -0.15572357146E+03  0.15677078482E+03  0.00000000000E+00 0.  1.
         21    1    1    2  502  501 -0.34577409320E+02 -0.87311204652E+01 -0.66827091699E+03  0.66922182287E+03  0.00000000000E+00 0.  1.
<mgrwt>
<rscale>  1 0.30000000E+03</rscale>
<asrwt>0</asrwt>
<pdfrwt beam="1">  1        1 0.52499285E-02 0.30000000E+03</pdfrwt>
<pdfrwt beam="2">0</pdfrwt>
<totfact> 0.18573904E+03</totfact>
</mgrwt>
</event>
<event>
 6    1  0.3125838E-002  0.3000000E+03  0.7818608E-02  0.1093470E+00
          1   -1    0    0  502    0  0.00000000000E+00  0.00000000000E+00  0.19208976410E+01  0.19208976410E+01  0.00000000000E+00 0.  1.
         13   -1    0    0    0    0 -0.00000000000E+00 -0.00000000000E+00 -0.10000000000E+04  0.10000000000E+04  0.00000000000E+00 0.  1.
    9000005    2    1    2  501    0  0.21052865011E+02 -0.36344721768E+02 -0.64036633146E+03  0.64175067623E+03  0.32756756646E+01 0.  0.
         13    1    3    3    0    0  0.14328178779E+02 -0.27169193811E+02 -0.45497469178E+03  0.45601034195E+03  0.00000000000E+00 0.  1.
          3    1    3    3  501    0  0.67246862320E+01 -0.91755279573E+01 -0.18539163967E+03  0.18574033428E+03  0.00000000000E+00 0.  1.
         21    1    1    2  502  501 -0.21052865011E+02  0.36344721768E+02 -0.35771277090E+03  0.36017022141E+03  0.00000000000E+00 0.  1.
<mgrwt>
<rscale>  1 0.30000000E+03</rscale>
<asrwt>0</asrwt>
<pdfrwt beam="1">  1        1 0.69850971E-02 0.30000000E+03</pdfrwt>
<pdfrwt beam="2">0</pdfrwt>
<totfact> 0.12445148E+03</totfact>
</mgrwt>
</event>
<event>
 6    1  0.3125838E-002  0.3000000E+03  0.7818608E-02  0.1093470E+00
          3   -1    0    0  502    0  0.00000000000E+00  0.00000000000E+00  0.22665607571E+01  0.22665607571E+01  0.00000000000E+00 0.  1.
         13   -1    0    0    0    0 -0.00000000000E+00 -0.00000000000E+00 -0.10000000000E+04  0.10000000000E+04  0.00000000000E+00 0.  1.
    9000005    2    1    2  501    0  0.39608066915E+02  0.93755450041E+01 -0.75828462425E+03  0.75938297792E+03  0.31993712376E+01 0.  0.
         13    1    3    3    0    0  0.78155094015E+01  0.25517422715E+01 -0.17427453301E+03  0.17446835366E+03  0.00000000000E+00 0.  1.
          1    1    3    3  501    0  0.31792557514E+02  0.68238027326E+01 -0.58401009124E+03  0.58491462425E+03  0.00000000000E+00 0.  1.
         21    1    1    2  502  501 -0.39608066915E+02 -0.93755450041E+01 -0.23944881500E+03  0.24288358284E+03  0.00000000000E+00 0.  1.
<mgrwt>
<rscale>  1 0.30000000E+03</rscale>
<asrwt>0</asrwt>
<pdfrwt beam="1">  1        3 0.82420565E-02 0.30000000E+03</pdfrwt>
<pdfrwt beam="2">0</pdfrwt>
<totfact> 0.45186092E+02</totfact>
</mgrwt>
</event>
<event>
 6    1  0.3125838E-002  0.3000000E+03  0.7818608E-02  0.1093470E+00
          1   -1    0    0  502    0  0.00000000000E+00  0.00000000000E+00  0.41733223659E+02  0.41733223659E+02  0.00000000000E+00 0.  1.
         13   -1    0    0    0    0 -0.00000000000E+00 -0.00000000000E+00 -0.10000000000E+04  0.10000000000E+04  0.00000000000E+00 0.  1.
    9000005    2    1    2  501    0  0.85188572127E+02  0.75936883601E+02 -0.91113930080E+03  0.91826459581E+03  0.33969603700E+01 0.  0.
         13    1    3    3    0    0  0.61922421538E+02  0.55385330598E+02 -0.67521584041E+03  0.68030754242E+03  0.00000000000E+00 0.  1.
          1    1    3    3  501    0  0.23266150590E+02  0.20551553003E+02 -0.23592346040E+03  0.23795705339E+03  0.00000000000E+00 0.  1.
         21    1    1    2  502  501 -0.85188572127E+02 -0.75936883601E+02 -0.47127475537E+02  0.12346862785E+03  0.00000000000E+00 0.  1.
<mgrwt>
<rscale>  1 0.30000000E+03</rscale>
<asrwt>0</asrwt>
<pdfrwt beam="1">  1        1 0.15175750E+00 0.30000000E+03</pdfrwt>
<pdfrwt beam="2">0</pdfrwt>
<totfact> 0.17599930E+01</totfact>
</mgrwt>
</event>
<event>
 6    1  0.3125838E-002  0.3000000E+03  0.7818608E-02  0.1093470E+00
          1   -1    0    0  502    0  0.00000000000E+00  0.00000000000E+00  0.11781050001E+01  0.11781050001E+01  0.00000000000E+00 0.  1.
         13   -1    0    0    0    0 -0.00000000000E+00 -0.00000000000E+00 -0.10000000000E+04  0.10000000000E+04  0.00000000000E+00 0.  1.
    9000005    2    1    2  501    0  0.29335960255E+02 -0.16992523699E+02 -0.56531289164E+03  0.56634549305E+03  0.43826489883E+01 0.  0.
         13    1    3    3    0    0  0.10410527081E+02 -0.46174666629E+01 -0.16269171195E+03  0.16308983172E+03  0.00000000000E+00 0.  1.
          1    1    3    3  501    0  0.18925433174E+02 -0.12375057036E+02 -0.40262117969E+03  0.40325566133E+03  0.00000000000E+00 0.  1.
         21    1    1    2  502  501 -0.29335960255E+02  0.16992523699E+02 -0.43350900336E+03  0.43483261195E+03  0.00000000000E+00 0.  1.
<mgrwt>
<rscale>  1 0.30000000E+03</rscale>
<asrwt>0</asrwt>
<pdfrwt beam="1">  1        1 0.42840272E-02 0.30000000E+03</pdfrwt>
<pdfrwt beam="2">0</pdfrwt>
<totfact> 0.24722568E+03</totfact>
</mgrwt>
</event>
<event>
 6    1  0.3125838E-002  0.3000000E+03  0.7818608E-02  0.1093470E+00
          3   -1    0    0  502    0  0.00000000000E+00  0.00000000000E+00  0.23432397347E+01  0.23432397347E+01  0.00000000000E+00 0.  1.
         13   -1    0    0    0    0 -0.00000000000E+00 -0.00000000000E+00 -0.10000000000E+04  0.10000000000E+04  0.00000000000E+00 0.  1.
    9000005    2    1    2  501    0 -0.44627656713E+02 -0.60898442246E+01 -0.68167397308E+03  0.68316643020E+03  0.28726004189E+01 0.  0.
         13    1    3    3    0    0 -0.22964096514E+02 -0.20919680876E+01 -0.33349537478E+03  0.33429162577E+03  0.00000000000E+00 0.  1.
          3    1    3    3  501    0 -0.21663560199E+02 -0.39978761370E+01 -0.34817859830E+03  0.34887480443E+03  0.00000000000E+00 0.  1.
         21    1    1    2  502  501  0.44627656713E+02  0.60898442246E+01 -0.31598278718E+03  0.31917680953E+03  0.00000000000E+00 0.  1.
<mgrwt>
<rscale>  1 0.30000000E+03</rscale>
<asrwt>0</asrwt>
<pdfrwt beam="1">  1        3 0.85208897E-02 0.30000000E+03</pdfrwt>
<pdfrwt beam="2">0</pdfrwt>
<totfact> 0.42838221E+02</totfact>
</mgrwt>
</event>
<event>
 6    1  0.3125838E-002  0.3000000E+03  0.7818608E-02  0.1093470E+00
          3   -1    0    0  502    0  0.00000000000E+00  0.00000000000E+00  0.26621141844E+01  0.26621141844E+01  0.00000000000E+00 0.  1.
         13   -1    0    0    0    0 -0.00000000000E+00 -0.00000000000E+00 -0.10000000000E+04  0.10000000000E+04  0.00000000000E+00 0.  1.
    9000005    2    1    2  501    0 -0.94744997697E+01  0.43388437537E+02 -0.75340247653E+03  0.75471694573E+03  0.31707836236E+01 0.  0.
         13    1    3    3    0    0 -0.43716673475E+01  0.14840820781E+02 -0.24492251296E+03  0.24541067375E+03  0.00000000000E+00 0.  1.
          3    1    3    3  501    0 -0.51028324223E+01  0.28547616757E+02 -0.50847996357E+03  0.50930627198E+03  0.00000000000E+00 0.  1.
         21    1    1    2  502  501  0.94744997697E+01 -0.43388437537E+02 -0.24393540928E+03  0.24794516845E+03  0.00000000000E+00 0.  1.
<mgrwt>
<rscale>  1 0.30000000E+03</rscale>
<asrwt>0</asrwt>
<pdfrwt beam="1">  1        3 0.96804356E-02 0.30000000E+03</pdfrwt>
<pdfrwt beam="2">0</pdfrwt>
<totfact> 0.34833685E+02</totfact>
</mgrwt>
</event>
<event>
 6    1  0.3125838E-002  0.3000000E+03  0.7818608E-02  0.1093470E+00
          1   -1    0    0  502    0  0.00000000000E+00  0.00000000000E+00  0.11853286930E+01  0.11853286930E+01  0.00000000000E+00 0.  1.
         13   -1    0    0    0    0 -0.00000000000E+00 -0.00000000000E+00 -0.10000000000E+04  0.10000000000E+04  0.00000000000E+00 0.  1.
    9000005    2    1    2  501    0 -0.32458456406E+02  0.72466305313E+00 -0.33709728986E+03  0.33867195567E+03  0.31676798620E+01 0.  0.
         13    1    3    3    0    0 -0.12899635347E+02 -0.11247257174E+01 -0.12734601696E+03  0.12800263137E+03  0.00000000000E+00 0.  1.
          1    1    3    3  501    0 -0.19558821059E+02  0.18493887705E+01 -0.20975127290E+03  0.21066932430E+03  0.00000000000E+00 0.  1.
         21    1    1    2  502  501  0.32458456406E+02 -0.72466305313E+00 -0.66171738145E+03  0.66251337303E+03  0.00000000000E+00 0.  1.
<mgrwt>
<rscale>  1 0.30000000E+03</rscale>
<asrwt>0</asrwt>
<pdfrwt beam="1">  1        1 0.43102952E-02 0.30000000E+03</pdfrwt>
<pdfrwt beam="2">0</pdfrwt>
<totfact> 0.24510717E+03</totfact>
</mgrwt>
</event>
<event>
 6    1  0.3125838E-002  0.3000000E+03  0.7818608E-02  0.1093470E+00
          3   -1    0    0  502    0  0.00000000000E+00  0.00000000000E+00  0.43468370490E+01  0.43468370490E+01  0.00000000000E+00 0.  1.
         13   -1    0    0    0    0 -0.00000000000E+00 -0.00000000000E+00 -0.10000000000E+04  0.10000000000E+04  0.00000000000E+00 0.  1.
    9000005    2    1    2  501    0 -0.41852543890E+02  0.20041093211E+02 -0.85441309122E+03  0.85567929281E+03  0.34699928249E+01 0.  0.
         13    1    3    3    0    0 -0.10795100566E+01  0.21400486283E+00 -0.30339601545E+02  0.30359554706E+02  0.00000000000E+00 0.  1.
          1    1    3    3  501    0 -0.40773033833E+02  0.19827088348E+02 -0.82407348968E+03  0.82531973811E+03  0.00000000000E+00 0.  1.
         21    1    1    2  502  501  0.41852543890E+02 -0.20041093211E+02 -0.14124007173E+03  0.14866754423E+03  0.00000000000E+00 0.  1.
<mgrwt>
<rscale>  1 0.30000000E+03</rscale>
<asrwt>0</asrwt>
<pdfrwt beam="1">  1        3 0.15806714E-01 0.30000000E+03</pdfrwt>
<pdfrwt beam="2">0</pdfrwt>
<totfact> 0.15194305E+02</totfact>
</mgrwt>
</event>
<event>
 6    1  0.3125838E-002  0.3000000E+03  0.7818608E-02  0.1093470E+00
          1   -1    0    0  502    0  0.00000000000E+00  0.00000000000E+00  0.13589905901E+01  0.13589905901E+01  0.00000000000E+00 0.  1.
         13   -1    0    0    0    0 -0.00000000000E+00 -0.00000000000E+00 -0.10000000000E+04  0.10000000000E+04  0.00000000000E+00 0.  1.
    9000005    2    1    2  501    0 -0.24031405259E+02  0.26438210726E+02 -0.61838282836E+03  0.61942604925E+03  0.38497602871E+01 0.  0.
         13    1    3    3    0    0 -0.23995648041E+02  0.25964592763E+02 -0.61412160378E+03  0.61513843599E+03  0.00000000000E+00 0.  1.
          1    1    3    3  501    0 -0.35757217643E-01  0.47361796295E+00 -0.42612245783E+01  0.42876132592E+01  0.00000000000E+00 0.  1.
         21    1    1    2  502  501  0.24031405259E+02 -0.26438210726E+02 -0.38025818105E+03  0.38193294134E+03  0.00000000000E+00 0.  1.
<mgrwt>
<rscale>  1 0.30000000E+03</rscale>
<asrwt>0</asrwt>
<pdfrwt beam="1">  1        1 0.49417944E-02 0.30000000E+03</pdfrwt>
<pdfrwt beam="2">0</pdfrwt>
<totfact> 0.20221716E+03</totfact>
</mgrwt>
</event>
<event>
 6    1  0.3125838E-002  0.3000000E+03  0.7818608E-02  0.1093470E+00
          3   -1    0    0  502    0  0.00000000000E+00  0.00000000000E+00  0.11480969309E+01  0.11480969309E+01  0.00000000000E+00 0.  1.
         13   -1    0    0    0    0 -0.00000000000E+00 -0.00000000000E+00 -0.10000000000E+04  0.10000000000E+04  0.00000000000E+00 0.  1.
    9000005    2    1    2  501    0  0.30634157777E+02 -0.61740703220E+01 -0.32095772055E+03  0.32253399933E+03  0.61442312136E+01 0.  0.
         13    1    3    3    0    0  0.95883117438E+01  0.61262364132E+00 -0.84460729447E+02  0.85005445994E+02  0.00000000000E+00 0.  1.
          3    1    3    3  501    0  0.21045846034E+02 -0.67866939634E+01 -0.23649699110E+03  0.23752855334E+03  0.00000000000E+00 0.  1.
         21    1    1    2  502  501 -0.30634157777E+02  0.61740703220E+01 -0.67789418252E+03  0.67861409760E+03  0.00000000000E+00 0.  1.
<mgrwt>
<rscale>  1 0.30000000E+03</rscale>
<asrwt>0</asrwt>
<pdfrwt beam="1">  1        3 0.41749067E-02 0.30000000E+03</pdfrwt>
<pdfrwt beam="2">0</pdfrwt>
<totfact> 0.13064871E+03</totfact>
</mgrwt>
</event>
<event>
 6    1  0.3125838E-002  0.3000000E+03  0.7818608E-02  0.1093470E+00
          3   -1    0    0  502    0  0.00000000000E+00  0.00000000000E+00  0.46121325581E+01  0.46121325581E+01  0.00000000000E+00 0.  1.
         13   -1    0    0    0    0 -0.00000000000E+00 -0.00000000000E+00 -0.10000000000E+04  0.10000000000E+04  0.00000000000E+00 0.  1.
    9000005    2    1    2  501    0 -0.52509727119E+01 -0.37742274574E+02 -0.91341959788E+03  0.91421938274E+03  0.31090166983E+01 0.  0.
         13    1    3    3    0    0 -0.13569719534E+00 -0.78902777852E-01 -0.91118582707E+01  0.91132102204E+01  0.00000000000E+00 0.  1.
          3    1    3    3  501    0 -0.51152755166E+01 -0.37663371796E+02 -0.90430773961E+03  0.90510617252E+03  0.00000000000E+00 0.  1.
         21    1    1    2  502  501  0.52509727119E+01  0.37742274574E+02 -0.81968269563E+02  0.90392749817E+02  0.00000000000E+00 0.  1.
<mgrwt>
<rscale>  1 0.30000000E+03</rscale>
<asrwt>0</asrwt>
<pdfrwt beam="1">  1        3 0.16771426E-01 0.30000000E+03</pdfrwt>
<pdfrwt beam="2">0</pdfrwt>
<totfact> 0.13694169E+02</totfact>
</mgrwt>
</event>
<event>
 6    1  0.3125838E-002  0.3000000E+03  0.7818608E-02  0.1093470E+00
          1   -1    0    0  502    0  0.00000000000E+00  0.00000000000E+00  0.12253126582E+01  0.12253126582E+01  0.00000000000E+00 0.  1.
         13   -1    0    0    0    0 -0.00000000000E+00 -0.00000000000E+00 -0.10000000000E+04  0.10000000000E+04  0.00000000000E+00 0.  1.
    9000005    2    1    2  501    0 -0.74339906273E+01 -0.34113250116E+02 -0.49784919390E+03  0.49908456742E+03  0.35507066934E+01 0.  0.
         13    1    3    3    0    0 -0.57551236509E+01 -0.26443333166E+02 -0.36336080462E+03  0.36436718520E+03  0.00000000000E+00 0.  1.
          1    1    3    3  501    0 -0.16788669764E+01 -0.76699169500E+01 -0.13448838928E+03  0.13471738222E+03  0.00000000000E+00 0.  1.
         21    1    1    2  502  501  0.74339906273E+01  0.34113250116E+02 -0.50092549344E+03  0.50214074524E+03  0.00000000000E+00 0.  1.
<mgrwt>
<rscale>  1 0.30000000E+03</rscale>
<asrwt>0</asrwt>
<pdfrwt beam="1">  1        1 0.44556918E-02 0.30000000E+03</pdfrwt>
<pdfrwt beam="2">0</pdfrwt>
<totfact> 0.23392358E+03</totfact>
</mgrwt>
</event>
<event>
 6    1  0.3125838E-002  0.3000000E+03  0.7818608E-02  0.1093470E+00
          1   -1    0    0  502    0  0.00000000000E+00  0.00000000000E+00  0.24635673259E+01  0.24635673259E+01  0.00000000000E+00 0.  1.
         13   -1    0    0    0    0 -0.00000000000E+00 -0.00000000000E+00 -0.10000000000E+04  0.10000000000E+04  0.00000000000E+00 0.  1.
    9000005    2    1    2  501    0  0.11260229741E+02  0.38033193494E+02 -0.79976090938E+03  0.80074972498E+03  0.30484907716E+01 0.  0.
         13    1    3    3    0    0  0.50063898915E+01  0.15578358078E+02 -0.35948433022E+03  0.35985654483E+03  0.00000000000E+00 0.  1.
          1    1    3    3  501    0  0.62538398498E+01  0.22454835416E+02 -0.44027657916E+03  0.44089318015E+03  0.00000000000E+00 0.  1.
         21    1    1    2  502  501 -0.11260229741E+02 -0.38033193494E+02 -0.19777552329E+03  0.20171384235E+03  0.00000000000E+00 0.  1.
<mgrwt>
<rscale>  1 0.30000000E+03</rscale>
<asrwt>0</asrwt>
<pdfrwt beam="1">  1        1 0.89584455E-02 0.30000000E+03</pdfrwt>
<pdfrwt beam="2">0</pdfrwt>
<totfact> 0.88000438E+02</totfact>
</mgrwt>
</event>
<event>
 6    1  0.3125838E-002  0.3000000E+03  0.7818608E-02  0.1093470E+00
          3   -1    0    0  502    0  0.00000000000E+00  0.00000000000E+00  0.12990656769E+01  0.12990656769E+01  0.00000000000E+00 0.  1.
         13   -1    0    0    0    0 -0.00000000000E+00 -0.00000000000E+00 -0.10000000000E+04  0.10000000000E+04  0.00000000000E+00 0.  1.
    9000005    2    1    2  501    0 -0.22305160083E+02 -0.26754168819E+02 -0.62379994914E+03  0.62478338950E+03  0.38211952137E+01 0.  0.
         13    1    3    3    0    0 -0.10917487822E+02 -0.16024969644E+02 -0.35052194815E+03  0.35105786892E+03  0.00000000000E+00 0.  1.
          3    1    3    3  501    0 -0.11387672261E+02 -0.10729199175E+02 -0.27327800099E+03  0.27372552058E+03  0.00000000000E+00 0.  1.
         21    1    1    2  502  501  0.22305160083E+02  0.26754168819E+02 -0.37490098518E+03  0.37651567618E+03  0.00000000000E+00 0.  1.
<mgrwt>
<rscale>  1 0.30000000E+03</rscale>
<asrwt>0</asrwt>
<pdfrwt beam="1">  1        3 0.47238852E-02 0.30000000E+03</pdfrwt>
<pdfrwt beam="2">0</pdfrwt>
<totfact> 0.10800462E+03</totfact>
</mgrwt>
</event>
<event>
 6    1  0.3125838E-002  0.3000000E+03  0.7818608E-02  0.1093470E+00
          1   -1    0    0  502    0  0.00000000000E+00  0.00000000000E+00  0.49802544438E+01  0.49802544438E+01  0.00000000000E+00 0.  1.
         13   -1    0    0    0    0 -0.00000000000E+00 -0.00000000000E+00 -0.10000000000E+04  0.10000000000E+04  0.00000000000E+00 0.  1.
    9000005    2    1    2  501    0 -0.44428852231E+02 -0.37630463859E+02 -0.78087847802E+03  0.78306482645E+03  0.54175883417E+01 0.  0.
         13    1    3    3    0    0 -0.24446572189E+02 -0.20935840208E+02 -0.46730824524E+03  0.46841535027E+03  0.00000000000E+00 0.  1.
          1    1    3    3  501    0 -0.19982280042E+02 -0.16694623651E+02 -0.31357023278E+03  0.31464947618E+03  0.00000000000E+00 0.  1.
         21    1    1    2  502  501  0.44428852231E+02  0.37630463859E+02 -0.21414126754E+03  0.22191542800E+03  0.00000000000E+00 0.  1.
<mgrwt>
<rscale>  1 0.30000000E+03</rscale>
<asrwt>0</asrwt>
<pdfrwt beam="1">  1        1 0.18110054E-01 0.30000000E+03</pdfrwt>
<pdfrwt beam="2">0</pdfrwt>
<totfact> 0.33631934E+02</totfact>
</mgrwt>
</event>
<event>
 6    1  0.3125838E-002  0.3000000E+03  0.7818608E-02  0.1093470E+00
          3   -1    0    0  502    0  0.00000000000E+00  0.00000000000E+00  0.19188299238E+01  0.19188299238E+01  0.00000000000E+00 0.  1.
         13   -1    0    0    0    0 -0.00000000000E+00 -0.00000000000E+00 -0.10000000000E+04  0.10000000000E+04  0.00000000000E+00 0.  1.
    9000005    2    1    2  501    0 -0.19960561663E+02  0.36145954849E+02 -0.65869002747E+03  0.66002513043E+03  0.74609943925E+01 0.  0.
         13    1    3    3    0    0 -0.12217782434E+02  0.28700046588E+02 -0.47976782520E+03  0.48078075355E+03  0.00000000000E+00 0.  1.
          3    1    3    3  501    0 -0.77427792287E+01  0.74459082605E+01 -0.17892220226E+03  0.17924437688E+03  0.00000000000E+00 0.  1.
         21    1    1    2  502  501  0.19960561663E+02 -0.36145954849E+02 -0.33939114261E+03  0.34189369950E+03  0.00000000000E+00 0.  1.
<mgrwt>
<rscale>  1 0.30000000E+03</rscale>
<asrwt>0</asrwt>
<pdfrwt beam="1">  1        3 0.69775781E-02 0.30000000E+03</pdfrwt>
<pdfrwt beam="2">0</pdfrwt>
<totfact> 0.58871475E+02</totfact>
</mgrwt>
</event>
<event>
 6    1  0.3125838E-002  0.3000000E+03  0.7818608E-02  0.1093470E+00
          1   -1    0    0  502    0  0.00000000000E+00  0.00000000000E+00  0.15740689416E+02  0.15740689416E+02  0.00000000000E+00 0.  1.
         13   -1    0    0    0    0 -0.00000000000E+00 -0.00000000000E+00 -0.10000000000E+04  0.10000000000E+04  0.00000000000E+00 0.  1.
    9000005    2    1    2  501    0 -0.92039418990E+02  0.66792600400E+02 -0.70657283819E+03  0.71567022591E+03  0.24880664330E+01 0.  0.
         13    1    3    3    0    0 -0.55486480693E+02  0.39972030139E+02 -0.43237012805E+03  0.43774472054E+03  0.00000000000E+00 0.  1.
          1    1    3    3  501    0 -0.36552938298E+02  0.26820570260E+02 -0.27420271014E+03  0.27792550537E+03  0.00000000000E+00 0.  1.
         21    1    1    2  502  501  0.92039418990E+02 -0.66792600400E+02 -0.27768647240E+03  0.30007046350E+03  0.00000000000E+00 0.  1.
<mgrwt>
<rscale>  1 0.30000000E+03</rscale>
<asrwt>0</asrwt>
<pdfrwt beam="1">  1        1 0.57238991E-01 0.30000000E+03</pdfrwt>
<pdfrwt beam="2">0</pdfrwt>
<totfact> 0.73818317E+01</totfact>
</mgrwt>
</event>
<event>
 6    1  0.3125838E-002  0.3000000E+03  0.7818608E-02  0.1093470E+00
          3   -1    0    0  502    0  0.00000000000E+00  0.00000000000E+00  0.12120953165E+01  0.12120953165E+01  0.00000000000E+00 0.  1.
         13   -1    0    0    0    0 -0.00000000000E+00 -0.00000000000E+00 -0.10000000000E+04  0.10000000000E+04  0.00000000000E+00 0.  1.
    9000005    2    1    2  501    0  0.21770315660E+02 -0.26116644907E+02 -0.60300977803E+03  0.60397620656E+03  0.32310828058E+01 0.  0.
         13    1    3    3    0    0  0.16951290317E+02 -0.19254652560E+02 -0.43204740206E+03  0.43280832422E+03  0.00000000000E+00 0.  1.
          3    1    3    3  501    0  0.48190253429E+01 -0.68619923477E+01 -0.17096237597E+03  0.17116788233E+03  0.00000000000E+00 0.  1.
         21    1    1    2  502  501 -0.21770315660E+02  0.26116644907E+02 -0.39577812665E+03  0.39723588876E+03  0.00000000000E+00 0.  1.
<mgrwt>
<rscale>  1 0.30000000E+03</rscale>
<asrwt>0</asrwt>
<pdfrwt beam="1">  1        3 0.44076286E-02 0.30000000E+03</pdfrwt>
<pdfrwt beam="2">0</pdfrwt>
<totfact> 0.12019086E+03</totfact>
</mgrwt>
</event>
<event>
 6    1  0.3125838E-002  0.3000000E+03  0.7818608E-02  0.1093470E+00
          1   -1    0    0  502    0  0.00000000000E+00  0.00000000000E+00  0.31155786071E+01  0.31155786071E+01  0.00000000000E+00 0.  1.
         13   -1    0    0    0    0 -0.00000000000E+00 -0.00000000000E+00 -0.10000000000E+04  0.10000000000E+04  0.00000000000E+00 0.  1.
    9000005    2    1    2  501    0 -0.20558568713E+02  0.46669847758E+02 -0.70165371601E+03  0.70351267668E+03  0.33792948078E+01 0.  0.
         13    1    3    3    0    0 -0.69644398074E+01  0.12221501620E+02 -0.18730758987E+03  0.18783503865E+03  0.00000000000E+00 0.  1.
          1    1    3    3  501    0 -0.13594128905E+02  0.34448346138E+02 -0.51434612614E+03  0.51567763803E+03  0.00000000000E+00 0.  1.
         21    1    1    2  502  501  0.20558568713E+02 -0.46669847758E+02 -0.29523070539E+03  0.29960290192E+03  0.00000000000E+00 0.  1.
<mgrwt>
<rscale>  1 0.30000000E+03</rscale>
<asrwt>0</asrwt>
<pdfrwt beam="1">  1        1 0.11329401E-01 0.30000000E+03</pdfrwt>
<pdfrwt beam="2">0</pdfrwt>
<totfact> 0.63644876E+02</totfact>
</mgrwt>
</event>
<event>
 6    1  0.3125838E-002  0.3000000E+03  0.7818608E-02  0.1093470E+00
          3   -1    0    0  502    0  0.00000000000E+00  0.00000000000E+00  0.14266894123E+01  0.14266894123E+01  0.00000000000E+00 0.  1.
         13   -1    0    0    0    0 -0.00000000000E+00 -0.00000000000E+00 -0.10000000000E+04  0.10000000000E+04  0.00000000000E+00 0.  1.
    9000005    2    1    2  501    0  0.16387109961E+02  0.33709263553E+02 -0.55493646582E+03  0.55620932468E+03  0.30789517796E+01 0.  0.
         13    1    3    3    0    0  0.75101970942E+01  0.17886980659E+02 -0.30313874788E+03  0.30375886424E+03  0.00000000000E+00 0.  1.
          1    1    3    3  501    0  0.88769128667E+01  0.15822282894E+02 -0.25179771794E+03  0.25245046044E+03  0.00000000000E+00 0.  1.
         21    1    1    2  502  501 -0.16387109961E+02 -0.33709263553E+02 -0.44363684477E+03  0.44521736473E+03  0.00000000000E+00 0.  1.
<mgrwt>
<rscale>  1 0.30000000E+03</rscale>
<asrwt>0</asrwt>
<pdfrwt beam="1">  1        3 0.51879724E-02 0.30000000E+03</pdfrwt>
<pdfrwt beam="2">0</pdfrwt>
<totfact> 0.93457702E+02</totfact>
</mgrwt>
</event>
<event>
 6    1  0.3125838E-002  0.3000000E+03  0.7818608E-02  0.1093470E+00
          1   -1    0    0  502    0  0.00000000000E+00  0.00000000000E+00  0.34679914143E+01  0.34679914143E+01  0.00000000000E+00 0.  1.
         13   -1    0    0    0    0 -0.00000000000E+00 -0.00000000000E+00 -0.10000000000E+04  0.10000000000E+04  0.00000000000E+00 0.  1.
    9000005    2    1    2  501    0  0.95307187795E+01 -0.55822094689E+02 -0.63493677472E+03  0.63746518540E+03  0.31959113400E+01 0.  0.
         13    1    3    3    0    0  0.33306780259E+01 -0.28997011826E+02 -0.32707561625E+03  0.32837536275E+03  0.00000000000E+00 0.  1.
          3    1    3    3  501    0  0.62000407536E+01 -0.26825082862E+02 -0.30786115847E+03  0.30908982266E+03  0.00000000000E+00 0.  1.
         21    1    1    2  502  501 -0.95307187795E+01  0.55822094689E+02 -0.36159523386E+03  0.36600280601E+03  0.00000000000E+00 0.  1.
<mgrwt>
<rscale>  1 0.30000000E+03</rscale>
<asrwt>0</asrwt>
<pdfrwt beam="1">  1        1 0.12610904E-01 0.30000000E+03</pdfrwt>
<pdfrwt beam="2">0</pdfrwt>
<totfact> 0.54949837E+02</totfact>
</mgrwt>
</event>
<event>
 6    1  0.3125838E-002  0.3000000E+03  0.7818608E-02  0.1093470E+00
          1   -1    0    0  502    0  0.00000000000E+00  0.00000000000E+00  0.12152969881E+01  0.12152969881E+01  0.00000000000E+00 0.  1.
         13   -1    0    0    0    0 -0.00000000000E+00 -0.00000000000E+00 -0.10000000000E+04  0.10000000000E+04  0.00000000000E+00 0.  1.
    9000005    2    1    2  501    0 -0.11515243756E+01  0.31150207790E+02 -0.72092447835E+03  0.72161206757E+03  0.44956779090E+01 0.  0.
         13    1    3    3    0    0 -0.85850094355E+00  0.25475453625E+01 -0.88898519825E+02  0.88939158070E+02  0.00000000000E+00 0.  1.
          3    1    3    3  501    0 -0.29302343209E+00  0.28602662428E+02 -0.63202595853E+03  0.63267290950E+03  0.00000000000E+00 0.  1.
         21    1    1    2  502  501  0.11515243756E+01 -0.31150207790E+02 -0.27786022466E+03  0.27960322942E+03  0.00000000000E+00 0.  1.
<mgrwt>
<rscale>  1 0.30000000E+03</rscale>
<asrwt>0</asrwt>
<pdfrwt beam="1">  1        1 0.44192711E-02 0.30000000E+03</pdfrwt>
<pdfrwt beam="2">0</pdfrwt>
<totfact> 0.23664166E+03</totfact>
</mgrwt>
</event>
<event>
 6    1  0.3125838E-002  0.3000000E+03  0.7818608E-02  0.1093470E+00
          3   -1    0    0  502    0  0.00000000000E+00  0.00000000000E+00  0.24626824700E+01  0.24626824700E+01  0.00000000000E+00 0.  1.
         13   -1    0    0    0    0 -0.00000000000E+00 -0.00000000000E+00 -0.10000000000E+04  0.10000000000E+04  0.00000000000E+00 0.  1.
    9000005    2    1    2  501    0  0.47838744479E+01 -0.46731552308E+02 -0.65926923402E+03  0.66094837859E+03  0.31800620132E+01 0.  0.
         13    1    3    3    0    0  0.47064919109E+01 -0.44040723131E+02 -0.63033487398E+03  0.63188906440E+03  0.00000000000E+00 0.  1.
          1    1    3    3  501    0  0.77382537066E-01 -0.26908291764E+01 -0.28934360046E+02  0.29059314186E+02  0.00000000000E+00 0.  1.
         21    1    1    2  502  501 -0.47838744479E+01  0.46731552308E+02 -0.33826808351E+03  0.34151430388E+03  0.00000000000E+00 0.  1.
<mgrwt>
<rscale>  1 0.30000000E+03</rscale>
<asrwt>0</asrwt>
<pdfrwt beam="1">  1        3 0.89552279E-02 0.30000000E+03</pdfrwt>
<pdfrwt beam="2">0</pdfrwt>
<totfact> 0.39539208E+02</totfact>
</mgrwt>
</event>
<event>
 6    1  0.3125838E-002  0.3000000E+03  0.7818608E-02  0.1093470E+00
          1   -1    0    0  502    0  0.00000000000E+00  0.00000000000E+00  0.33812685467E+01  0.33812685467E+01  0.00000000000E+00 0.  1.
         13   -1    0    0    0    0 -0.00000000000E+00 -0.00000000000E+00 -0.10000000000E+04  0.10000000000E+04  0.00000000000E+00 0.  1.
    9000005    2    1    2  501    0 -0.13708037753E+02 -0.32042495727E+02 -0.89955443681E+03  0.90024975481E+03  0.60666643053E+01 0.  0.
         13    1    3    3    0    0 -0.66726495647E+01 -0.93867723296E+01 -0.25817906081E+03  0.25843580090E+03  0.00000000000E+00 0.  1.
          1    1    3    3  501    0 -0.70353881879E+01 -0.22655723397E+02 -0.64137537601E+03  0.64181395391E+03  0.00000000000E+00 0.  1.
         21    1    1    2  502  501  0.13708037753E+02  0.32042495727E+02 -0.97064294640E+02  0.10313151374E+03  0.00000000000E+00 0.  1.
<mgrwt>
<rscale>  1 0.30000000E+03</rscale>
<asrwt>0</asrwt>
<pdfrwt beam="1">  1        1 0.12295548E-01 0.30000000E+03</pdfrwt>
<pdfrwt beam="2">0</pdfrwt>
<totfact> 0.56888410E+02</totfact>
</mgrwt>
</event>
<event>
 6    1  0.3125838E-002  0.3000000E+03  0.7818608E-02  0.1093470E+00
          1   -1    0    0  502    0  0.00000000000E+00  0.00000000000E+00  0.16292879596E+01  0.16292879596E+01  0.00000000000E+00 0.  1.
         13   -1    0    0    0    0 -0.00000000000E+00 -0.00000000000E+00 -0.10000000000E+04  0.10000000000E+04  0.00000000000E+00 0.  1.
    9000005    2    1    2  501    0 -0.14787544211E+02  0.31770688600E+02 -0.74682303073E+03  0.74765235182E+03  0.33692486152E+01 0.  0.
         13    1    3    3    0    0  0.12255534451E+00  0.80285546358E+00 -0.21751141791E+02  0.21766298856E+02  0.00000000000E+00 0.  1.
          1    1    3    3  501    0 -0.14910099556E+02  0.30967833137E+02 -0.72507188894E+03  0.72588605296E+03  0.00000000000E+00 0.  1.
         21    1    1    2  502  501  0.14787544211E+02 -0.31770688600E+02 -0.25154768131E+03  0.25397693614E+03  0.00000000000E+00 0.  1.
<mgrwt>
<rscale>  1 0.30000000E+03</rscale>
<asrwt>0</asrwt>
<pdfrwt beam="1">  1        1 0.59246960E-02 0.30000000E+03</pdfrwt>
<pdfrwt beam="2">0</pdfrwt>
<totfact> 0.15673745E+03</totfact>
</mgrwt>
</event>
<event>
 6    1  0.3125838E-002  0.3000000E+03  0.7818608E-02  0.1093470E+00
          1   -1    0    0  502    0  0.00000000000E+00  0.00000000000E+00  0.19235382548E+01  0.19235382548E+01  0.00000000000E+00 0.  1.
         13   -1    0    0    0    0 -0.00000000000E+00 -0.00000000000E+00 -0.10000000000E+04  0.10000000000E+04  0.00000000000E+00 0.  1.
    9000005    2    1    2  501    0  0.33344041490E+02 -0.17168119646E+02 -0.75798848559E+03  0.75892393799E+03  0.35256106720E+01 0.  0.
         13    1    3    3    0    0  0.22535415230E+02 -0.11547564231E+02 -0.54387682479E+03  0.54446596930E+03  0.00000000000E+00 0.  1.
          1    1    3    3  501    0  0.10808626260E+02 -0.56205554147E+01 -0.21411166080E+03  0.21445796869E+03  0.00000000000E+00 0.  1.
         21    1    1    2  502  501 -0.33344041490E+02  0.17168119646E+02 -0.24008797616E+03  0.24299960027E+03  0.00000000000E+00 0.  1.
<mgrwt>
<rscale>  1 0.30000000E+03</rscale>
<asrwt>0</asrwt>
<pdfrwt beam="1">  1        1 0.69946993E-02 0.30000000E+03</pdfrwt>
<pdfrwt beam="2">0</pdfrwt>
<totfact> 0.12421264E+03</totfact>
</mgrwt>
</event>
<event>
 6    1  0.3125838E-002  0.3000000E+03  0.7818608E-02  0.1093470E+00
          3   -1    0    0  502    0  0.00000000000E+00  0.00000000000E+00  0.16519147482E+01  0.16519147482E+01  0.00000000000E+00 0.  1.
         13   -1    0    0    0    0 -0.00000000000E+00 -0.00000000000E+00 -0.10000000000E+04  0.10000000000E+04  0.00000000000E+00 0.  1.
    9000005    2    1    2  501    0 -0.23224802139E+02  0.20641784904E+02 -0.82165809255E+03  0.82225060974E+03  0.29273611097E+01 0.  0.
         13    1    3    3    0    0 -0.12125992406E+02  0.96711243844E+01 -0.37775768235E+03  0.37807596712E+03  0.00000000000E+00 0.  1.
          1    1    3    3  501    0 -0.11098809733E+02  0.10970660520E+02 -0.44390041020E+03  0.44417464262E+03  0.00000000000E+00 0.  1.
         21    1    1    2  502  501  0.23224802139E+02 -0.20641784904E+02 -0.17668999270E+03  0.17940130501E+03  0.00000000000E+00 0.  1.
<mgrwt>
<rscale>  1 0.30000000E+03</rscale>
<asrwt>0</asrwt>
<pdfrwt beam="1">  1        3 0.60069754E-02 0.30000000E+03</pdfrwt>
<pdfrwt beam="2">0</pdfrwt>
<totfact> 0.74435579E+02</totfact>
</mgrwt>
</event>
<event>
 6    1  0.3125838E-002  0.3000000E+03  0.7818608E-02  0.1093470E+00
          1   -1    0    0  502    0  0.00000000000E+00  0.00000000000E+00  0.11535331212E+01  0.11535331212E+01  0.00000000000E+00 0.  1.
         13   -1    0    0    0    0 -0.00000000000E+00 -0.00000000000E+00 -0.10000000000E+04  0.10000000000E+04  0.00000000000E+00 0.  1.
    9000005    2    1    2  501    0  0.31703408668E+02 -0.96888755306E+01 -0.39746624457E+03  0.39886028875E+03  0.33367558348E+01 0.  0.
         13    1    3    3    0    0  0.43313560232E+01 -0.23426530543E+01 -0.51259010824E+02  0.51494998388E+02  0.00000000000E+00 0.  1.
          1    1    3    3  501    0  0.27372052645E+02 -0.73462224763E+01 -0.34620723374E+03  0.34736529036E+03  0.00000000000E+00 0.  1.
         21    1    1    2  502  501 -0.31703408668E+02  0.96888755306E+01 -0.60138022231E+03  0.60229324438E+03  0.00000000000E+00 0.  1.
<mgrwt>
<rscale>  1 0.30000000E+03</rscale>
<asrwt>0</asrwt>
<pdfrwt beam="1">  1        1 0.41946747E-02 0.30000000E+03</pdfrwt>
<pdfrwt beam="2">0</pdfrwt>
<totfact> 0.25467225E+03</totfact>
</mgrwt>
</event>
<event>
 6    1  0.3125838E-002  0.3000000E+03  0.7818608E-02  0.1093470E+00
          1   -1    0    0  502    0  0.00000000000E+00  0.00000000000E+00  0.22516701531E+01  0.22516701531E+01  0.00000000000E+00 0.  1.
         13   -1    0    0    0    0 -0.00000000000E+00 -0.00000000000E+00 -0.10000000000E+04  0.10000000000E+04  0.00000000000E+00 0.  1.
    9000005    2    1    2  501    0  0.11965150728E+01 -0.39048077685E+02 -0.78268130236E+03  0.78366527915E+03  0.38813224527E+01 0.  0.
         13    1    3    3    0    0  0.80931269137E+00 -0.37375703549E+02 -0.73080117042E+03  0.73175675528E+03  0.00000000000E+00 0.  1.
          3    1    3    3  501    0  0.38720238140E+00 -0.16723741365E+01 -0.51880131932E+02  0.51908523869E+02  0.00000000000E+00 0.  1.
         21    1    1    2  502  501 -0.11965150728E+01  0.39048077685E+02 -0.21506702749E+03  0.21858639101E+03  0.00000000000E+00 0.  1.
<mgrwt>
<rscale>  1 0.30000000E+03</rscale>
<asrwt>0</asrwt>
<pdfrwt beam="1">  1        1 0.81879087E-02 0.30000000E+03</pdfrwt>
<pdfrwt beam="2">0</pdfrwt>
<totfact> 0.99709694E+02</totfact>
</mgrwt>
</event>
<event>
 6    1  0.3125838E-002  0.3000000E+03  0.7818608E-02  0.1093470E+00
          1   -1    0    0  502    0  0.00000000000E+00  0.00000000000E+00  0.13286023429E+01  0.13286023429E+01  0.00000000000E+00 0.  1.
         13   -1    0    0    0    0 -0.00000000000E+00 -0.00000000000E+00 -0.10000000000E+04  0.10000000000E+04  0.00000000000E+00 0.  1.
    9000005    2    1    2  501    0 -0.27807227564E+02  0.12523017716E+02 -0.77006655625E+03  0.77069850589E+03  0.66043955771E+01 0.  0.
         13    1    3    3    0    0 -0.23724182743E+02  0.12098010012E+02 -0.61280007341E+03  0.61337845468E+03  0.00000000000E+00 0.  1.
          1    1    3    3  501    0 -0.40830448208E+01  0.42500770334E+00 -0.15726648284E+03  0.15732005120E+03  0.00000000000E+00 0.  1.
         21    1    1    2  502  501  0.27807227564E+02 -0.12523017716E+02 -0.22860484141E+03  0.23063009646E+03  0.00000000000E+00 0.  1.
<mgrwt>
<rscale>  1 0.30000000E+03</rscale>
<asrwt>0</asrwt>
<pdfrwt beam="1">  1        1 0.48312914E-02 0.30000000E+03</pdfrwt>
<pdfrwt beam="2">0</pdfrwt>
<totfact> 0.20874993E+03</totfact>
</mgrwt>
</event>
<event>
 6    1  0.3125838E-002  0.3000000E+03  0.7818608E-02  0.1093470E+00
          1   -1    0    0  502    0  0.00000000000E+00  0.00000000000E+00  0.12735678185E+01  0.12735678185E+01  0.00000000000E+00 0.  1.
         13   -1    0    0    0    0 -0.00000000000E+00 -0.00000000000E+00 -0.10000000000E+04  0.10000000000E+04  0.00000000000E+00 0.  1.
    9000005    2    1    2  501    0 -0.17786042136E+02 -0.29849587271E+02 -0.61214097225E+03  0.61312970404E+03  0.20304972852E+01 0.  0.
         13    1    3    3    0    0 -0.11396007376E+02 -0.18846908813E+02 -0.37067139760E+03  0.37132514049E+03  0.00000000000E+00 0.  1.
          3    1    3    3  501    0 -0.63900347601E+01 -0.11002678458E+02 -0.24146957465E+03  0.24180456356E+03  0.00000000000E+00 0.  1.
         21    1    1    2  502  501  0.17786042136E+02  0.29849587271E+02 -0.38658545993E+03  0.38814386378E+03  0.00000000000E+00 0.  1.
<mgrwt>
<rscale>  1 0.30000000E+03</rscale>
<asrwt>0</asrwt>
<pdfrwt beam="1">  1        1 0.46311655E-02 0.30000000E+03</pdfrwt>
<pdfrwt beam="2">0</pdfrwt>
<totfact> 0.22154799E+03</totfact>
</mgrwt>
</event>
<event>
 6    1  0.3125838E-002  0.3000000E+03  0.7818608E-02  0.1093470E+00
          3   -1    0    0  502    0  0.00000000000E+00  0.00000000000E+00  0.23427273389E+01  0.23427273389E+01  0.00000000000E+00 0.  1.
         13   -1    0    0    0    0 -0.00000000000E+00 -0.00000000000E+00 -0.10000000000E+04  0.10000000000E+04  0.00000000000E+00 0.  1.
    9000005    2    1    2  501    0 -0.23413584065E+02 -0.22331013482E+02 -0.87135735491E+03  0.87196428086E+03  0.33462010180E+01 0.  0.
         13    1    3    3    0    0 -0.67807344576E+01 -0.55090080302E+01 -0.20142946810E+03  0.20161884373E+03  0.00000000000E+00 0.  1.
          3    1    3    3  501    0 -0.16632849607E+02 -0.16822005452E+02 -0.66992788681E+03  0.67034543713E+03  0.00000000000E+00 0.  1.
         21    1    1    2  502  501  0.23413584065E+02  0.22331013482E+02 -0.12629991776E+03  0.13037844648E+03  0.00000000000E+00 0.  1.
<mgrwt>
<rscale>  1 0.30000000E+03</rscale>
<asrwt>0</asrwt>
<pdfrwt beam="1">  1        3 0.85190265E-02 0.30000000E+03</pdfrwt>
<pdfrwt beam="2">0</pdfrwt>
<totfact> 0.42853277E+02</totfact>
</mgrwt>
</event>
<event>
 6    1  0.3125838E-002  0.3000000E+03  0.7818608E-02  0.1093470E+00
          1   -1    0    0  502    0  0.00000000000E+00  0.00000000000E+00  0.26183192682E+01  0.26183192682E+01  0.00000000000E+00 0.  1.
         13   -1    0    0    0    0 -0.00000000000E+00 -0.00000000000E+00 -0.10000000000E+04  0.10000000000E+04  0.00000000000E+00 0.  1.
    9000005    2    1    2  501    0  0.33722122226E+02  0.43139485828E+00 -0.87554348539E+03  0.87619872635E+03  0.32319689123E+01 0.  0.
         13    1    3    3    0    0  0.33356430441E+02  0.42979302812E+00 -0.85265800897E+03  0.85331032833E+03  0.00000000000E+00 0.  1.
          1    1    3    3  501    0  0.36569178524E+00  0.16018301649E-02 -0.22885476424E+02  0.22888398026E+02  0.00000000000E+00 0.  1.
         21    1    1    2  502  501 -0.33722122226E+02 -0.43139485828E+00 -0.12183819534E+03  0.12641959292E+03  0.00000000000E+00 0.  1.
<mgrwt>
<rscale>  1 0.30000000E+03</rscale>
<asrwt>0</asrwt>
<pdfrwt beam="1">  1        1 0.95211811E-02 0.30000000E+03</pdfrwt>
<pdfrwt beam="2">0</pdfrwt>
<totfact> 0.80877317E+02</totfact>
</mgrwt>
</event>
<event>
 6    1  0.3125838E-002  0.3000000E+03  0.7818608E-02  0.1093470E+00
          1   -1    0    0  502    0  0.00000000000E+00  0.00000000000E+00  0.22288239609E+01  0.22288239609E+01  0.00000000000E+00 0.  1.
         13   -1    0    0    0    0 -0.00000000000E+00 -0.00000000000E+00 -0.10000000000E+04  0.10000000000E+04  0.00000000000E+00 0.  1.
    9000005    2    1    2  501    0  0.58808815796E+01  0.33350227572E+02 -0.84779924025E+03  0.84848096553E+03  0.30942937773E+01 0.  0.
         13    1    3    3    0    0  0.59880915125E+01  0.28068412192E+02 -0.72689319370E+03  0.72745955768E+03  0.00000000000E+00 0.  1.
          3    1    3    3  501    0 -0.10720993295E+00  0.52818153798E+01 -0.12090604654E+03  0.12102140785E+03  0.00000000000E+00 0.  1.
         21    1    1    2  502  501 -0.58808815796E+01 -0.33350227572E+02 -0.14997193579E+03  0.15374785843E+03  0.00000000000E+00 0.  1.
<mgrwt>
<rscale>  1 0.30000000E+03</rscale>
<asrwt>0</asrwt>
<pdfrwt beam="1">  1        1 0.81048315E-02 0.30000000E+03</pdfrwt>
<pdfrwt beam="2">0</pdfrwt>
<totfact> 0.10113465E+03</totfact>
</mgrwt>
</event>
<event>
 6    1  0.3125838E-002  0.3000000E+03  0.7818608E-02  0.1093470E+00
          3   -1    0    0  502    0  0.00000000000E+00  0.00000000000E+00  0.29699864162E+01  0.29699864162E+01  0.00000000000E+00 0.  1.
         13   -1    0    0    0    0 -0.00000000000E+00 -0.00000000000E+00 -0.10000000000E+04  0.10000000000E+04  0.00000000000E+00 0.  1.
    9000005    2    1    2  501    0 -0.16291735541E+02  0.45817203175E+02 -0.72428457790E+03  0.72592358337E+03  0.35017649261E+01 0.  0.
         13    1    3    3    0    0 -0.74824360543E+01  0.18382775137E+02 -0.27374090916E+03  0.27445946626E+03  0.00000000000E+00 0.  1.
          3    1    3    3  501    0 -0.88092994863E+01  0.27434428038E+02 -0.45054366873E+03  0.45146411711E+03  0.00000000000E+00 0.  1.
         21    1    1    2  502  501  0.16291735541E+02 -0.45817203175E+02 -0.27274543569E+03  0.27704640305E+03  0.00000000000E+00 0.  1.
<mgrwt>
<rscale>  1 0.30000000E+03</rscale>
<asrwt>0</asrwt>
<pdfrwt beam="1">  1        3 0.10799973E-01 0.30000000E+03</pdfrwt>
<pdfrwt beam="2">0</pdfrwt>
<totfact> 0.29069895E+02</totfact>
</mgrwt>
</event>
<event>
 6    1  0.3125838E-002  0.3000000E+03  0.7818608E-02  0.1093470E+00
          3   -1    0    0  502    0  0.00000000000E+00  0.00000000000E+00  0.98629326645E+01  0.98629326645E+01  0.00000000000E+00 0.  1.
         13   -1    0    0    0    0 -0.00000000000E+00 -0.00000000000E+00 -0.10000000000E+04  0.10000000000E+04  0.00000000000E+00 0.  1.
    9000005    2    1    2  501    0  0.20460157406E+02 -0.70093240478E+02 -0.83724874945E+03  0.84043295259E+03  0.32247393619E+01 0.  0.
         13    1    3    3    0    0  0.48370019589E+01 -0.12278534648E+02 -0.15466710052E+03  0.15522909194E+03  0.00000000000E+00 0.  1.
          3    1    3    3  501    0  0.15623155447E+02 -0.57814705830E+02 -0.68258164893E+03  0.68520386065E+03  0.00000000000E+00 0.  1.
         21    1    1    2  502  501 -0.20460157406E+02  0.70093240478E+02 -0.15288831789E+03  0.16942998008E+03  0.00000000000E+00 0.  1.
<mgrwt>
<rscale>  1 0.30000000E+03</rscale>
<asrwt>0</asrwt>
<pdfrwt beam="1">  1        3 0.35865285E-01 0.30000000E+03</pdfrwt>
<pdfrwt beam="2">0</pdfrwt>
<totfact> 0.33225487E+01</totfact>
</mgrwt>
</event>
<event>
 6    1  0.3125838E-002  0.3000000E+03  0.7818608E-02  0.1093470E+00
          1   -1    0    0  502    0  0.00000000000E+00  0.00000000000E+00  0.45756139959E+01  0.45756139959E+01  0.00000000000E+00 0.  1.
         13   -1    0    0    0    0 -0.00000000000E+00 -0.00000000000E+00 -0.10000000000E+04  0.10000000000E+04  0.00000000000E+00 0.  1.
    9000005    2    1    2  501    0 -0.26387444954E+02  0.16399744605E+02 -0.94385303183E+03  0.94436885818E+03  0.29573187529E+01 0.  0.
         13    1    3    3    0    0 -0.21102307595E+02  0.13915022654E+02 -0.79327177161E+03  0.79367439096E+03  0.00000000000E+00 0.  1.
          3    1    3    3  501    0 -0.52851373592E+01  0.24847219509E+01 -0.15058126022E+03  0.15069446722E+03  0.00000000000E+00 0.  1.
         21    1    1    2  502  501  0.26387444954E+02 -0.16399744605E+02 -0.51571354172E+02  0.60206755813E+02  0.00000000000E+00 0.  1.
<mgrwt>
<rscale>  1 0.30000000E+03</rscale>
<asrwt>0</asrwt>
<pdfrwt beam="1">  1        1 0.16638631E-01 0.30000000E+03</pdfrwt>
<pdfrwt beam="2">0</pdfrwt>
<totfact> 0.37698181E+02</totfact>
</mgrwt>
</event>
<event>
 6    1  0.3125838E-002  0.3000000E+03  0.7818608E-02  0.1093470E+00
          1   -1    0    0  502    0  0.00000000000E+00  0.00000000000E+00  0.25562522198E+01  0.25562522198E+01  0.00000000000E+00 0.  1.
         13   -1    0    0    0    0 -0.00000000000E+00 -0.00000000000E+00 -0.10000000000E+04  0.10000000000E+04  0.00000000000E+00 0.  1.
    9000005    2    1    2  501    0 -0.29172091606E+02  0.88829772487E+01 -0.89837572975E+03  0.89890110083E+03  0.37840525748E+01 0.  0.
         13    1    3    3    0    0 -0.14277692446E+02  0.28884821510E+01 -0.39023733108E+03  0.39050911692E+03  0.00000000000E+00 0.  1.
          3    1    3    3  501    0 -0.14894399159E+02  0.59944950977E+01 -0.50813839867E+03  0.50839198391E+03  0.00000000000E+00 0.  1.
         21    1    1    2  502  501  0.29172091606E+02 -0.88829772487E+01 -0.99068018031E+02  0.10365515139E+03  0.00000000000E+00 0.  1.
<mgrwt>
<rscale>  1 0.30000000E+03</rscale>
<asrwt>0</asrwt>
<pdfrwt beam="1">  1        1 0.92954822E-02 0.30000000E+03</pdfrwt>
<pdfrwt beam="2">0</pdfrwt>
<totfact> 0.83609181E+02</totfact>
</mgrwt>
</event>
<event>
 6    1  0.3125838E-002  0.3000000E+03  0.7818608E-02  0.1093470E+00
          1   -1    0    0  502    0  0.00000000000E+00  0.00000000000E+00  0.67508453612E+01  0.67508453612E+01  0.00000000000E+00 0.  1.
         13   -1    0    0    0    0 -0.00000000000E+00 -0.00000000000E+00 -0.10000000000E+04  0.10000000000E+04  0.00000000000E+00 0.  1.
    9000005    2    1    2  501    0 -0.21009192658E+02 -0.36126154320E+02 -0.92995189365E+03  0.93090212454E+03  0.46643070617E+01 0.  0.
         13    1    3    3    0    0 -0.15226327349E+02 -0.29894831077E+02 -0.74101793904E+03  0.74177700689E+03  0.00000000000E+00 0.  1.
          1    1    3    3  501    0 -0.57828653093E+01 -0.62313232429E+01 -0.18893395461E+03  0.18912511764E+03  0.00000000000E+00 0.  1.
         21    1    1    2  502  501  0.21009192658E+02  0.36126154320E+02 -0.63297260987E+02  0.75848720823E+02  0.00000000000E+00 0.  1.
<mgrwt>
<rscale>  1 0.30000000E+03</rscale>
<asrwt>0</asrwt>
<pdfrwt beam="1">  1        1 0.24548580E-01 0.30000000E+03</pdfrwt>
<pdfrwt beam="2">0</pdfrwt>
<totfact> 0.22427173E+02</totfact>
</mgrwt>
</event>
<event>
 6    1  0.3125838E-002  0.3000000E+03  0.7818608E-02  0.1093470E+00
          3   -1    0    0  502    0  0.00000000000E+00  0.00000000000E+00  0.19038152349E+01  0.19038152349E+01  0.00000000000E+00 0.  1.
         13   -1    0    0    0    0 -0.00000000000E+00 -0.00000000000E+00 -0.10000000000E+04  0.10000000000E+04  0.00000000000E+00 0.  1.
    9000005    2    1    2  501    0  0.60923824351E+01  0.42956095197E+02 -0.51746075449E+03  0.51931417582E+03  0.62639866121E+01 0.  0.
         13    1    3    3    0    0  0.59517858984E+01  0.39553316433E+02 -0.45257357009E+03  0.45433767722E+03  0.00000000000E+00 0.  1.
          3    1    3    3  501    0  0.14059653665E+00  0.34027787644E+01 -0.64887184405E+02  0.64976498603E+02  0.00000000000E+00 0.  1.
         21    1    1    2  502  501 -0.60923824351E+01 -0.42956095197E+02 -0.48063543027E+03  0.48258963941E+03  0.00000000000E+00 0.  1.
<mgrwt>
<rscale>  1 0.30000000E+03</rscale>
<asrwt>0</asrwt>
<pdfrwt beam="1">  1        3 0.69229791E-02 0.30000000E+03</pdfrwt>
<pdfrwt beam="2">0</pdfrwt>
<totfact> 0.59604164E+02</totfact>
</mgrwt>
</event>
<event>
 6    1  0.3125838E-002  0.3000000E+03  0.7818608E-02  0.1093470E+00
          3   -1    0    0  502    0  0.00000000000E+00  0.00000000000E+00  0.11184597170E+01  0.11184597170E+01  0.00000000000E+00 0.  1.
         13   -1    0    0    0    0 -0.00000000000E+00 -0.00000000000E+00 -0.10000000000E+04  0.10000000000E+04  0.00000000000E+00 0.  1.
    9000005    2    1    2  501    0  0.64004809596E+01  0.31821574729E+02 -0.61551130606E+03  0.61637657837E+03  0.35127908985E+01 0.  0.
         13    1    3    3    0    0  0.61553587413E+01  0.25873613505E+02 -0.48310379986E+03  0.48383531677E+03  0.00000000000E+00 0.  1.
          1    1    3    3  501    0  0.24512221830E+00  0.59479612248E+01 -0.13240750621E+03  0.13254126160E+03  0.00000000000E+00 0.  1.
         21    1    1    2  502  501 -0.64004809596E+01 -0.31821574729E+02 -0.38337023422E+03  0.38474188134E+03  0.00000000000E+00 0.  1.
<mgrwt>
<rscale>  1 0.30000000E+03</rscale>
<asrwt>0</asrwt>
<pdfrwt beam="1">  1        3 0.40671348E-02 0.30000000E+03</pdfrwt>
<pdfrwt beam="2">0</pdfrwt>
<totfact> 0.13600463E+03</totfact>
</mgrwt>
</event>
<event>
 6    1  0.3125838E-002  0.3000000E+03  0.7818608E-02  0.1093470E+00
          3   -1    0    0  502    0  0.00000000000E+00  0.00000000000E+00  0.20101602921E+02  0.20101602921E+02  0.00000000000E+00 0.  1.
         13   -1    0    0    0    0 -0.00000000000E+00 -0.00000000000E+00 -0.10000000000E+04  0.10000000000E+04  0.00000000000E+00 0.  1.
    9000005    2    1    2  501    0 -0.40010833163E+02  0.58032786458E+02 -0.93247665647E+03  0.93514577583E+03  0.40294067086E+01 0.  0.
         13    1    3    3    0    0 -0.18757103861E+02  0.29901698262E+02 -0.44914852665E+03  0.45053339442E+03  0.00000000000E+00 0.  1.
          1    1    3    3  501    0 -0.21253729303E+02  0.28131088195E+02 -0.48332812982E+03  0.48461238140E+03  0.00000000000E+00 0.  1.
         21    1    1    2  502  501  0.40010833163E+02 -0.58032786458E+02 -0.47421740611E+02  0.84955827093E+02  0.00000000000E+00 0.  1.
<mgrwt>
<rscale>  1 0.30000000E+03</rscale>
<asrwt>0</asrwt>
<pdfrwt beam="1">  1        3 0.73096892E-01 0.30000000E+03</pdfrwt>
<pdfrwt beam="2">0</pdfrwt>
<totfact> 0.81428346E+00</totfact>
</mgrwt>
</event>
<event>
 6    1  0.4790205E-002  0.3000000E+03  0.7818608E-02  0.1093470E+00
          1   -1    0    0  502    0  0.00000000000E+00  0.00000000000E+00  0.38788150492E+01  0.38788150492E+01  0.00000000000E+00 0.  1.
         13   -1    0    0    0    0 -0.00000000000E+00 -0.00000000000E+00 -0.10000000000E+04  0.10000000000E+04  0.00000000000E+00 0.  1.
    9000005    2    1    2  501    0 -0.53301214184E+02  0.74359772584E+01 -0.74751851122E+03  0.74951764943E+03  0.98218629879E+01 0.  0.
         13    1    3    3    0    0 -0.12582542563E+02  0.52087777774E+01 -0.22374757213E+03  0.22416161085E+03  0.00000000000E+00 0.  1.
          3    1    3    3  501    0 -0.40718671621E+02  0.22271994810E+01 -0.52377093909E+03  0.52535603858E+03  0.00000000000E+00 0.  1.
         21    1    1    2  502  501  0.53301214184E+02 -0.74359772584E+01 -0.24860267373E+03  0.25436116562E+03  0.00000000000E+00 0.  1.
<mgrwt>
<rscale>  1 0.30000000E+03</rscale>
<asrwt>0</asrwt>
<pdfrwt beam="1">  1        1 0.14104812E-01 0.30000000E+03</pdfrwt>
<pdfrwt beam="2">0</pdfrwt>
<totfact> 0.47164961E+02</totfact>
</mgrwt>
</event>
<event>
 6    1  0.3125838E-002  0.3000000E+03  0.7818608E-02  0.1093470E+00
          1   -1    0    0  502    0  0.00000000000E+00  0.00000000000E+00  0.41388468815E+02  0.41388468815E+02  0.00000000000E+00 0.  1.
         13   -1    0    0    0    0 -0.00000000000E+00 -0.00000000000E+00 -0.10000000000E+04  0.10000000000E+04  0.00000000000E+00 0.  1.
    9000005    2    1    2  501    0  0.46235510534E+02  0.33047221911E+02 -0.97926695349E+03  0.98091956953E+03  0.30974785957E+01 0.  0.
         13    1    3    3    0    0  0.31677776144E+02  0.21175449471E+02 -0.64134560028E+03  0.64247650553E+03  0.00000000000E+00 0.  1.
          3    1    3    3  501    0  0.14557734390E+02  0.11871772441E+02 -0.33792135322E+03  0.33844306400E+03  0.00000000000E+00 0.  1.
         21    1    1    2  502  501 -0.46235510534E+02 -0.33047221911E+02  0.20655422305E+02  0.60468899287E+02  0.00000000000E+00 0.  1.
<mgrwt>
<rscale>  1 0.30000000E+03</rscale>
<asrwt>0</asrwt>
<pdfrwt beam="1">  1        1 0.15050384E+00 0.30000000E+03</pdfrwt>
<pdfrwt beam="2">0</pdfrwt>
<totfact> 0.17859363E+01</totfact>
</mgrwt>
</event>
<event>
 6    1  0.3125838E-002  0.3000000E+03  0.7818608E-02  0.1093470E+00
          3   -1    0    0  502    0  0.00000000000E+00  0.00000000000E+00  0.11801948114E+01  0.11801948114E+01  0.00000000000E+00 0.  1.
         13   -1    0    0    0    0 -0.00000000000E+00 -0.00000000000E+00 -0.10000000000E+04  0.10000000000E+04  0.00000000000E+00 0.  1.
    9000005    2    1    2  501    0 -0.17037019699E+02 -0.28115527225E+02 -0.35927783657E+03  0.36079384851E+03  0.33006601020E+01 0.  0.
         13    1    3    3    0    0 -0.12690894673E+02 -0.23339493752E+02 -0.29333501275E+03  0.29453560138E+03  0.00000000000E+00 0.  1.
          3    1    3    3  501    0 -0.43461250259E+01 -0.47760334732E+01 -0.65942823820E+02  0.66258247123E+02  0.00000000000E+00 0.  1.
         21    1    1    2  502  501  0.17037019699E+02  0.28115527225E+02 -0.63954196862E+03  0.64038634631E+03  0.00000000000E+00 0.  1.
<mgrwt>
<rscale>  1 0.30000000E+03</rscale>
<asrwt>0</asrwt>
<pdfrwt beam="1">  1        3 0.42916265E-02 0.30000000E+03</pdfrwt>
<pdfrwt beam="2">0</pdfrwt>
<totfact> 0.12522686E+03</totfact>
</mgrwt>
</event>
<event>
 6    1  0.3125838E-002  0.3000000E+03  0.7818608E-02  0.1093470E+00
          1   -1    0    0  502    0  0.00000000000E+00  0.00000000000E+00  0.27920126945E+01  0.27920126945E+01  0.00000000000E+00 0.  1.
         13   -1    0    0    0    0 -0.00000000000E+00 -0.00000000000E+00 -0.10000000000E+04  0.10000000000E+04  0.00000000000E+00 0.  1.
    9000005    2    1    2  501    0 -0.13688862199E-01 -0.32832117562E+02 -0.89103017406E+03  0.89165391771E+03  0.58300731740E+01 0.  0.
         13    1    3    3    0    0  0.13685207986E+01 -0.58113609953E+01 -0.11881387019E+03  0.11896377817E+03  0.00000000000E+00 0.  1.
          1    1    3    3  501    0 -0.13822096608E+01 -0.27020756566E+02 -0.77221630386E+03  0.77269013954E+03  0.00000000000E+00 0.  1.
         21    1    1    2  502  501  0.13688862199E-01  0.32832117562E+02 -0.10617781325E+03  0.11113809499E+03  0.00000000000E+00 0.  1.
<mgrwt>
<rscale>  1 0.30000000E+03</rscale>
<asrwt>0</asrwt>
<pdfrwt beam="1">  1        1 0.10152795E-01 0.30000000E+03</pdfrwt>
<pdfrwt beam="2">0</pdfrwt>
<totfact> 0.74008771E+02</totfact>
</mgrwt>
</event>
<event>
 6    1  0.3125838E-002  0.3000000E+03  0.7818608E-02  0.1093470E+00
          1   -1    0    0  502    0  0.00000000000E+00  0.00000000000E+00  0.15972541733E+01  0.15972541733E+01  0.00000000000E+00 0.  1.
         13   -1    0    0    0    0 -0.00000000000E+00 -0.00000000000E+00 -0.10000000000E+04  0.10000000000E+04  0.00000000000E+00 0.  1.
    9000005    2    1    2  501    0  0.64742241004E+01  0.38157188039E+02 -0.62069522151E+03  0.62191204179E+03  0.37607368868E+01 0.  0.
         13    1    3    3    0    0  0.34295505766E+01  0.21491562328E+02 -0.37830017327E+03  0.37892567894E+03  0.00000000000E+00 0.  1.
          3    1    3    3  501    0  0.30446735238E+01  0.16665625711E+02 -0.24239504824E+03  0.24298636285E+03  0.00000000000E+00 0.  1.
         21    1    1    2  502  501 -0.64742241004E+01 -0.38157188039E+02 -0.37770752431E+03  0.37968521238E+03  0.00000000000E+00 0.  1.
<mgrwt>
<rscale>  1 0.30000000E+03</rscale>
<asrwt>0</asrwt>
<pdfrwt beam="1">  1        1 0.58082092E-02 0.30000000E+03</pdfrwt>
<pdfrwt beam="2">0</pdfrwt>
<totfact> 0.16116674E+03</totfact>
</mgrwt>
</event>
<event>
 6    1  0.3125838E-002  0.3000000E+03  0.7818608E-02  0.1093470E+00
          1   -1    0    0  502    0  0.00000000000E+00  0.00000000000E+00  0.13029769638E+01  0.13029769638E+01  0.00000000000E+00 0.  1.
         13   -1    0    0    0    0 -0.00000000000E+00 -0.00000000000E+00 -0.10000000000E+04  0.10000000000E+04  0.00000000000E+00 0.  1.
    9000005    2    1    2  501    0  0.70072348703E+01 -0.33497930667E+02 -0.34155918197E+03  0.34327459243E+03  0.18863499149E+01 0.  0.
         13    1    3    3    0    0  0.53651710569E+01 -0.21308898385E+02 -0.21727349938E+03  0.21838183932E+03  0.00000000000E+00 0.  1.
          1    1    3    3  501    0  0.16420638134E+01 -0.12189032282E+02 -0.12428568259E+03  0.12489275311E+03  0.00000000000E+00 0.  1.
         21    1    1    2  502  501 -0.70072348703E+01  0.33497930667E+02 -0.65713784106E+03  0.65802838454E+03  0.00000000000E+00 0.  1.
<mgrwt>
<rscale>  1 0.30000000E+03</rscale>
<asrwt>0</asrwt>
<pdfrwt beam="1">  1        1 0.47381080E-02 0.30000000E+03</pdfrwt>
<pdfrwt beam="2">0</pdfrwt>
<totfact> 0.21454637E+03</totfact>
</mgrwt>
</event>
<event>
 6    1  0.3125838E-002  0.3000000E+03  0.7818608E-02  0.1093470E+00
          1   -1    0    0  502    0  0.00000000000E+00  0.00000000000E+00  0.10768222038E+01  0.10768222038E+01  0.00000000000E+00 0.  1.
         13   -1    0    0    0    0 -0.00000000000E+00 -0.00000000000E+00 -0.10000000000E+04  0.10000000000E+04  0.00000000000E+00 0.  1.
    9000005    2    1    2  501    0  0.11133493456E+02 -0.29628850597E+02 -0.62994153056E+03  0.63074011128E+03  0.22209419073E+01 0.  0.
         13    1    3    3    0    0  0.63341594151E+01 -0.18319204985E+02 -0.36636371309E+03  0.36687611685E+03  0.00000000000E+00 0.  1.
          3    1    3    3  501    0  0.47993340404E+01 -0.11309645612E+02 -0.26357781747E+03  0.26386399442E+03  0.00000000000E+00 0.  1.
         21    1    1    2  502  501 -0.11133493456E+02  0.29628850597E+02 -0.36898164724E+03  0.37033671093E+03  0.00000000000E+00 0.  1.
<mgrwt>
<rscale>  1 0.30000000E+03</rscale>
<asrwt>0</asrwt>
<pdfrwt beam="1">  1        1 0.39157254E-02 0.30000000E+03</pdfrwt>
<pdfrwt beam="2">0</pdfrwt>
<totfact> 0.28058212E+03</totfact>
</mgrwt>
</event>
<event>
 6    1  0.3125838E-002  0.3000000E+03  0.7818608E-02  0.1093470E+00
          1   -1    0    0  502    0  0.00000000000E+00  0.00000000000E+00  0.79564391971E+01  0.79564391971E+01  0.00000000000E+00 0.  1.
         13   -1    0    0    0    0 -0.00000000000E+00 -0.00000000000E+00 -0.10000000000E+04  0.10000000000E+04  0.00000000000E+00 0.  1.
    9000005    2    1    2  501    0 -0.53632369369E+02  0.68507894359E+02 -0.60663161570E+03  0.61284616337E+03  0.29563763240E+01 0.  0.
         13    1    3    3    0    0 -0.37301728542E+01  0.45929619116E+01 -0.36355736964E+02  0.36834075240E+02  0.00000000000E+00 0.  1.
          3    1    3    3  501    0 -0.49902196515E+02  0.63914932447E+02 -0.57027587873E+03  0.57601208813E+03  0.00000000000E+00 0.  1.
         21    1    1    2  502  501  0.53632369369E+02 -0.68507894359E+02 -0.38541194511E+03  0.39511027583E+03  0.00000000000E+00 0.  1.
<mgrwt>
<rscale>  1 0.30000000E+03</rscale>
<asrwt>0</asrwt>
<pdfrwt beam="1">  1        1 0.28932567E-01 0.30000000E+03</pdfrwt>
<pdfrwt beam="2">0</pdfrwt>
<totfact> 0.18060228E+02</totfact>
</mgrwt>
</event>
<event>
 6    1  0.3125838E-002  0.3000000E+03  0.7818608E-02  0.1093470E+00
          1   -1    0    0  502    0  0.00000000000E+00  0.00000000000E+00  0.53691026815E+01  0.53691026815E+01  0.00000000000E+00 0.  1.
         13   -1    0    0    0    0 -0.00000000000E+00 -0.00000000000E+00 -0.10000000000E+04  0.10000000000E+04  0.00000000000E+00 0.  1.
    9000005    2    1    2  501    0  0.28288984967E+02  0.46266079104E+02 -0.16056036885E+03  0.16953750289E+03  0.47451128091E+01 0.  0.
         13    1    3    3    0    0  0.22848699291E+02  0.37155502116E+02 -0.13463882640E+03  0.14152811725E+03  0.00000000000E+00 0.  1.
          1    1    3    3  501    0  0.54402856763E+01  0.91105769883E+01 -0.25921542443E+02  0.28009385640E+02  0.00000000000E+00 0.  1.
         21    1    1    2  502  501 -0.28288984967E+02 -0.46266079104E+02 -0.83407052847E+03  0.83583159979E+03  0.00000000000E+00 0.  1.
<mgrwt>
<rscale>  1 0.30000000E+03</rscale>
<asrwt>0</asrwt>
<pdfrwt beam="1">  1        1 0.19524051E-01 0.30000000E+03</pdfrwt>
<pdfrwt beam="2">0</pdfrwt>
<totfact> 0.30405997E+02</totfact>
</mgrwt>
</event>
<event>
 6    1  0.3125838E-002  0.3000000E+03  0.7818608E-02  0.1093470E+00
          3   -1    0    0  502    0  0.00000000000E+00  0.00000000000E+00  0.19467409884E+01  0.19467409884E+01  0.00000000000E+00 0.  1.
         13   -1    0    0    0    0 -0.00000000000E+00 -0.00000000000E+00 -0.10000000000E+04  0.10000000000E+04  0.00000000000E+00 0.  1.
    9000005    2    1    2  501    0  0.43182592478E+02 -0.78415775982E+01 -0.47627841141E+03  0.47832930600E+03  0.56190010254E+01 0.  0.
         13    1    3    3    0    0  0.15603460692E+02 -0.17639748702E+00 -0.16156543671E+03  0.16231724937E+03  0.00000000000E+00 0.  1.
          1    1    3    3  501    0  0.27579131786E+02 -0.76651801112E+01 -0.31471297470E+03  0.31601205663E+03  0.00000000000E+00 0.  1.
         21    1    1    2  502  501 -0.43182592478E+02  0.78415775982E+01 -0.52177484760E+03  0.52361743499E+03  0.00000000000E+00 0.  1.
<mgrwt>
<rscale>  1 0.30000000E+03</rscale>
<asrwt>0</asrwt>
<pdfrwt beam="1">  1        3 0.70790731E-02 0.30000000E+03</pdfrwt>
<pdfrwt beam="2">0</pdfrwt>
<totfact> 0.57546522E+02</totfact>
</mgrwt>
</event>
<event>
 6    1  0.3125838E-002  0.3000000E+03  0.7818608E-02  0.1093470E+00
          1   -1    0    0  502    0  0.00000000000E+00  0.00000000000E+00  0.22671590080E+01  0.22671590080E+01  0.00000000000E+00 0.  1.
         13   -1    0    0    0    0 -0.00000000000E+00 -0.00000000000E+00 -0.10000000000E+04  0.10000000000E+04  0.00000000000E+00 0.  1.
    9000005    2    1    2  501    0 -0.40568954740E+02 -0.83883612216E+01 -0.74533903966E+03  0.74649609802E+03  0.31520805521E+01 0.  0.
         13    1    3    3    0    0 -0.30658599944E+02 -0.52330671321E+01 -0.57310287380E+03  0.57394619843E+03  0.00000000000E+00 0.  1.
          1    1    3    3  501    0 -0.99103547959E+01 -0.31552940895E+01 -0.17223616587E+03  0.17254989958E+03  0.00000000000E+00 0.  1.
         21    1    1    2  502  501  0.40568954740E+02  0.83883612216E+01 -0.25239380133E+03  0.25577106099E+03  0.00000000000E+00 0.  1.
<mgrwt>
<rscale>  1 0.30000000E+03</rscale>
<asrwt>0</asrwt>
<pdfrwt beam="1">  1        1 0.82442320E-02 0.30000000E+03</pdfrwt>
<pdfrwt beam="2">0</pdfrwt>
<totfact> 0.98763419E+02</totfact>
</mgrwt>
</event>
<event>
 6    1  0.3125838E-002  0.3000000E+03  0.7818608E-02  0.1093470E+00
          1   -1    0    0  502    0  0.00000000000E+00  0.00000000000E+00  0.82462110720E+01  0.82462110720E+01  0.00000000000E+00 0.  1.
         13   -1    0    0    0    0 -0.00000000000E+00 -0.00000000000E+00 -0.10000000000E+04  0.10000000000E+04  0.00000000000E+00 0.  1.
    9000005    2    1    2  501    0  0.26424627221E+02 -0.35523100511E+02 -0.93600233856E+03  0.93705368470E+03  0.30130745133E+01 0.  0.
         13    1    3    3    0    0  0.11065027758E+02 -0.13935345007E+02 -0.34756763805E+03  0.34802283216E+03  0.00000000000E+00 0.  1.
          3    1    3    3  501    0  0.15359599463E+02 -0.21587755504E+02 -0.58843470051E+03  0.58903085254E+03  0.00000000000E+00 0.  1.
         21    1    1    2  502  501 -0.26424627221E+02  0.35523100511E+02 -0.55751450368E+02  0.71192526377E+02  0.00000000000E+00 0.  1.
<mgrwt>
<rscale>  1 0.30000000E+03</rscale>
<asrwt>0</asrwt>
<pdfrwt beam="1">  1        1 0.29986285E-01 0.30000000E+03</pdfrwt>
<pdfrwt beam="2">0</pdfrwt>
<totfact> 0.17231930E+02</totfact>
</mgrwt>
</event>
<event>
 6    1  0.3125838E-002  0.3000000E+03  0.7818608E-02  0.1093470E+00
          3   -1    0    0  502    0  0.00000000000E+00  0.00000000000E+00  0.99704275058E+00  0.99704275058E+00  0.00000000000E+00 0.  1.
         13   -1    0    0    0    0 -0.00000000000E+00 -0.00000000000E+00 -0.10000000000E+04  0.10000000000E+04  0.00000000000E+00 0.  1.
    9000005    2    1    2  501    0  0.12399114172E+02  0.27992982476E+02 -0.61704539532E+03  0.61781441760E+03  0.35056542832E+01 0.  0.
         13    1    3    3    0    0  0.31907685981E+01  0.92034984291E+01 -0.16867521710E+03  0.16895624952E+03  0.00000000000E+00 0.  1.
          3    1    3    3  501    0  0.92083455743E+01  0.18789484047E+02 -0.44837017822E+03  0.44885816808E+03  0.00000000000E+00 0.  1.
         21    1    1    2  502  501 -0.12399114172E+02 -0.27992982476E+02 -0.38195756193E+03  0.38318262515E+03  0.00000000000E+00 0.  1.
<mgrwt>
<rscale>  1 0.30000000E+03</rscale>
<asrwt>0</asrwt>
<pdfrwt beam="1">  1        3 0.36256176E-02 0.30000000E+03</pdfrwt>
<pdfrwt beam="2">0</pdfrwt>
<totfact> 0.16229642E+03</totfact>
</mgrwt>
</event>
<event>
 6    1  0.3125838E-002  0.3000000E+03  0.7818608E-02  0.1093470E+00
          1   -1    0    0  502    0  0.00000000000E+00  0.00000000000E+00  0.29029988113E+01  0.29029988113E+01  0.00000000000E+00 0.  1.
         13   -1    0    0    0    0 -0.00000000000E+00 -0.00000000000E+00 -0.10000000000E+04  0.10000000000E+04  0.00000000000E+00 0.  1.
    9000005    2    1    2  501    0  0.15927840871E+02 -0.27698658561E+02 -0.90184431656E+03  0.90243416916E+03  0.65838112342E+01 0.  0.
         13    1    3    3    0    0  0.73311101481E+01 -0.14289178539E+02 -0.36415514273E+03  0.36450911343E+03  0.00000000000E+00 0.  1.
          3    1    3    3  501    0  0.85967307233E+01 -0.13409480022E+02 -0.53768917383E+03  0.53792505573E+03  0.00000000000E+00 0.  1.
         21    1    1    2  502  501 -0.15927840871E+02  0.27698658561E+02 -0.95252684633E+02  0.10046882965E+03  0.00000000000E+00 0.  1.
<mgrwt>
<rscale>  1 0.30000000E+03</rscale>
<asrwt>0</asrwt>
<pdfrwt beam="1">  1        1 0.10556382E-01 0.30000000E+03</pdfrwt>
<pdfrwt beam="2">0</pdfrwt>
<totfact> 0.70138254E+02</totfact>
</mgrwt>
</event>
<event>
 6    1  0.3125838E-002  0.3000000E+03  0.7818608E-02  0.1093470E+00
          3   -1    0    0  502    0  0.00000000000E+00  0.00000000000E+00  0.99759314024E+00  0.99759314024E+00  0.00000000000E+00 0.  1.
         13   -1    0    0    0    0 -0.00000000000E+00 -0.00000000000E+00 -0.10000000000E+04  0.10000000000E+04  0.00000000000E+00 0.  1.
    9000005    2    1    2  501    0  0.18774475077E+02 -0.24543627274E+02 -0.40190771780E+03  0.40310384150E+03  0.28324628678E+01 0.  0.
         13    1    3    3    0    0  0.22893062626E+00 -0.50364156232E-02 -0.54213100030E+01  0.54261438191E+01  0.00000000000E+00 0.  1.
          1    1    3    3  501    0  0.18545544451E+02 -0.24538590858E+02 -0.39648640780E+03  0.39767769768E+03  0.00000000000E+00 0.  1.
         21    1    1    2  502  501 -0.18774475077E+02  0.24543627274E+02 -0.59709468906E+03  0.59789375164E+03  0.00000000000E+00 0.  1.
<mgrwt>
<rscale>  1 0.30000000E+03</rscale>
<asrwt>0</asrwt>
<pdfrwt beam="1">  1        3 0.36276191E-02 0.30000000E+03</pdfrwt>
<pdfrwt beam="2">0</pdfrwt>
<totfact> 0.16215837E+03</totfact>
</mgrwt>
</event>
<event>
 6    1  0.3125838E-002  0.3000000E+03  0.7818608E-02  0.1093470E+00
          1   -1    0    0  502    0  0.00000000000E+00  0.00000000000E+00  0.17834846248E+01  0.17834846248E+01  0.00000000000E+00 0.  1.
         13   -1    0    0    0    0 -0.00000000000E+00 -0.00000000000E+00 -0.10000000000E+04  0.10000000000E+04  0.00000000000E+00 0.  1.
    9000005    2    1    2  501    0 -0.30212369067E+02  0.33247330712E+01 -0.16046939085E+03  0.16348515722E+03  0.72890420406E+01 0.  0.
         13    1    3    3    0    0 -0.27799762051E+02  0.40682314428E+01 -0.15397485240E+03  0.15651719537E+03  0.00000000000E+00 0.  1.
          3    1    3    3  501    0 -0.24126070157E+01 -0.74349837161E+00 -0.64945384572E+01  0.69679618406E+01  0.00000000000E+00 0.  1.
         21    1    1    2  502  501  0.30212369067E+02 -0.33247330712E+01 -0.83774712452E+03  0.83829832741E+03  0.00000000000E+00 0.  1.
<mgrwt>
<rscale>  1 0.30000000E+03</rscale>
<asrwt>0</asrwt>
<pdfrwt beam="1">  1        1 0.64854123E-02 0.30000000E+03</pdfrwt>
<pdfrwt beam="2">0</pdfrwt>
<totfact> 0.13807505E+03</totfact>
</mgrwt>
</event>
<event>
 6    1  0.3125838E-002  0.3000000E+03  0.7818608E-02  0.1093470E+00
          1   -1    0    0  502    0  0.00000000000E+00  0.00000000000E+00  0.22732977402E+01  0.22732977402E+01  0.00000000000E+00 0.  1.
         13   -1    0    0    0    0 -0.00000000000E+00 -0.00000000000E+00 -0.10000000000E+04  0.10000000000E+04  0.00000000000E+00 0.  1.
    9000005    2    1    2  501    0  0.39466070572E+02  0.33311292242E+01 -0.77738397078E+03  0.77839925623E+03  0.33010480157E+01 0.  0.
         13    1    3    3    0    0  0.31503248400E+02  0.28312781781E+01 -0.59345936957E+03  0.59430168612E+03  0.00000000000E+00 0.  1.
          1    1    3    3  501    0  0.79628221715E+01  0.49985104606E+00 -0.18392460121E+03  0.18409757010E+03  0.00000000000E+00 0.  1.
         21    1    1    2  502  501 -0.39466070572E+02 -0.33311292242E+01 -0.22034273148E+03  0.22387404151E+03  0.00000000000E+00 0.  1.
<mgrwt>
<rscale>  1 0.30000000E+03</rscale>
<asrwt>0</asrwt>
<pdfrwt beam="1">  1        1 0.82665547E-02 0.30000000E+03</pdfrwt>
<pdfrwt beam="2">0</pdfrwt>
<totfact> 0.98392705E+02</totfact>
</mgrwt>
</event>
<event>
 6    1  0.3125838E-002  0.3000000E+03  0.7818608E-02  0.1093470E+00
          3   -1    0    0  502    0  0.00000000000E+00  0.00000000000E+00  0.15966892651E+01  0.15966892651E+01  0.00000000000E+00 0.  1.
         13   -1    0    0    0    0 -0.00000000000E+00 -0.00000000000E+00 -0.10000000000E+04  0.10000000000E+04  0.00000000000E+00 0.  1.
    9000005    2    1    2  501    0 -0.31864238772E+02 -0.20239161570E+00 -0.80109463600E+03  0.80173152521E+03  0.23349564663E+01 0.  0.
         13    1    3    3    0    0 -0.22173195679E+02 -0.97500562327E+00 -0.53975105938E+03  0.54020718928E+03  0.00000000000E+00 0.  1.
          1    1    3    3  501    0 -0.96910430925E+01  0.77261400757E+00 -0.26134357662E+03  0.26152433594E+03  0.00000000000E+00 0.  1.
         21    1    1    2  502  501  0.31864238772E+02  0.20239161570E+00 -0.19730867474E+03  0.19986516405E+03  0.00000000000E+00 0.  1.
<mgrwt>
<rscale>  1 0.30000000E+03</rscale>
<asrwt>0</asrwt>
<pdfrwt beam="1">  1        3 0.58061550E-02 0.30000000E+03</pdfrwt>
<pdfrwt beam="2">0</pdfrwt>
<totfact> 0.78487696E+02</totfact>
</mgrwt>
</event>
<event>
 6    1  0.3125838E-002  0.3000000E+03  0.7818608E-02  0.1093470E+00
          1   -1    0    0  502    0  0.00000000000E+00  0.00000000000E+00  0.10370684505E+02  0.10370684505E+02  0.00000000000E+00 0.  1.
         13   -1    0    0    0    0 -0.00000000000E+00 -0.00000000000E+00 -0.10000000000E+04  0.10000000000E+04  0.00000000000E+00 0.  1.
    9000005    2    1    2  501    0  0.90912399729E+01 -0.96971989994E+02 -0.64198606232E+03  0.64934153199E+03  0.34790036092E+01 0.  0.
         13    1    3    3    0    0  0.18864470717E+01 -0.19542607977E+02 -0.13895142351E+03  0.14033164399E+03  0.00000000000E+00 0.  1.
          1    1    3    3  501    0  0.72047929012E+01 -0.77429382017E+02 -0.50303463881E+03  0.50900988801E+03  0.00000000000E+00 0.  1.
         21    1    1    2  502  501 -0.90912399729E+01  0.96971989994E+02 -0.34764325317E+03  0.36102915251E+03  0.00000000000E+00 0.  1.
<mgrwt>
<rscale>  1 0.30000000E+03</rscale>
<asrwt>0</asrwt>
<pdfrwt beam="1">  1        1 0.37711660E-01 0.30000000E+03</pdfrwt>
<pdfrwt beam="2">0</pdfrwt>
<totfact> 0.12765719E+02</totfact>
</mgrwt>
</event>
<event>
 6    1  0.3125838E-002  0.3000000E+03  0.7818608E-02  0.1093470E+00
          1   -1    0    0  502    0  0.00000000000E+00  0.00000000000E+00  0.19204054329E+01  0.19204054329E+01  0.00000000000E+00 0.  1.
         13   -1    0    0    0    0 -0.00000000000E+00 -0.00000000000E+00 -0.10000000000E+04  0.10000000000E+04  0.00000000000E+00 0.  1.
    9000005    2    1    2  501    0 -0.20174275641E+02  0.36210017047E+02 -0.66016763510E+03  0.66147560949E+03  0.32417260111E+01 0.  0.
         13    1    3    3    0    0 -0.93430733901E+01  0.19606837994E+02 -0.33166888989E+03  0.33237926175E+03  0.00000000000E+00 0.  1.
          3    1    3    3  501    0 -0.10831202251E+02  0.16603179053E+02 -0.32849874521E+03  0.32909634774E+03  0.00000000000E+00 0.  1.
         21    1    1    2  502  501  0.20174275641E+02 -0.36210017047E+02 -0.33791195947E+03  0.34044479594E+03  0.00000000000E+00 0.  1.
<mgrwt>
<rscale>  1 0.30000000E+03</rscale>
<asrwt>0</asrwt>
<pdfrwt beam="1">  1        1 0.69833072E-02 0.30000000E+03</pdfrwt>
<pdfrwt beam="2">0</pdfrwt>
<totfact> 0.12449609E+03</totfact>
</mgrwt>
</event>
<event>
 6    1  0.3125838E-002  0.3000000E+03  0.7818608E-02  0.1093470E+00
          1   -1    0    0  502    0  0.00000000000E+00  0.00000000000E+00  0.11430500507E+01  0.11430500507E+01  0.00000000000E+00 0.  1.
         13   -1    0    0    0    0 -0.00000000000E+00 -0.00000000000E+00 -0.10000000000E+04  0.10000000000E+04  0.00000000000E+00 0.  1.
    9000005    2    1    2  501    0  0.61800115528E+01  0.30976272331E+02 -0.32617240216E+03  0.32771731337E+03  0.35326421934E+01 0.  0.
         13    1    3    3    0    0  0.63388911081E+01  0.30651797728E+02 -0.32451393876E+03  0.32601995444E+03  0.00000000000E+00 0.  1.
          1    1    3    3  501    0 -0.15887955538E+00  0.32447460267E+00 -0.16584633986E+01  0.16973589265E+01  0.00000000000E+00 0.  1.
         21    1    1    2  502  501 -0.61800115528E+01 -0.30976272331E+02 -0.67268454779E+03  0.67342573668E+03  0.00000000000E+00 0.  1.
<mgrwt>
<rscale>  1 0.30000000E+03</rscale>
<asrwt>0</asrwt>
<pdfrwt beam="1">  1        1 0.41565544E-02 0.30000000E+03</pdfrwt>
<pdfrwt beam="2">0</pdfrwt>
<totfact> 0.25796692E+03</totfact>
</mgrwt>
</event>
<event>
 6    1  0.3125838E-002  0.3000000E+03  0.7818608E-02  0.1093470E+00
          1   -1    0    0  502    0  0.00000000000E+00  0.00000000000E+00  0.13455502566E+02  0.13455502566E+02  0.00000000000E+00 0.  1.
         13   -1    0    0    0    0 -0.00000000000E+00 -0.00000000000E+00 -0.10000000000E+04  0.10000000000E+04  0.00000000000E+00 0.  1.
    9000005    2    1    2  501    0 -0.35531429074E+02 -0.53855988399E+02 -0.91435871697E+03  0.91663744207E+03  0.30638133265E+01 0.  0.
         13    1    3    3    0    0 -0.23961364711E+02 -0.38181235792E+02 -0.65189414168E+03  0.65345078294E+03  0.00000000000E+00 0.  1.
          3    1    3    3  501    0 -0.11570064363E+02 -0.15674752607E+02 -0.26246457530E+03  0.26318665913E+03  0.00000000000E+00 0.  1.
         21    1    1    2  502  501  0.35531429074E+02  0.53855988399E+02 -0.72185780460E+02  0.96818060500E+02  0.00000000000E+00 0.  1.
<mgrwt>
<rscale>  1 0.30000000E+03</rscale>
<asrwt>0</asrwt>
<pdfrwt beam="1">  1        1 0.48929203E-01 0.30000000E+03</pdfrwt>
<pdfrwt beam="2">0</pdfrwt>
<totfact> 0.90794663E+01</totfact>
</mgrwt>
</event>
<event>
 6    1  0.3125838E-002  0.3000000E+03  0.7818608E-02  0.1093470E+00
          1   -1    0    0  502    0  0.00000000000E+00  0.00000000000E+00  0.12409632574E+01  0.12409632574E+01  0.00000000000E+00 0.  1.
         13   -1    0    0    0    0 -0.00000000000E+00 -0.00000000000E+00 -0.10000000000E+04  0.10000000000E+04  0.00000000000E+00 0.  1.
    9000005    2    1    2  501    0  0.20946713278E+02  0.27825597666E+02 -0.55218755038E+03  0.55331337858E+03  0.56192026622E+01 0.  0.
         13    1    3    3    0    0  0.85969034723E+01  0.70917491252E+01 -0.17225705702E+03  0.17261718729E+03  0.00000000000E+00 0.  1.
          3    1    3    3  501    0  0.12349809805E+02  0.20733848541E+02 -0.37993049337E+03  0.38069619130E+03  0.00000000000E+00 0.  1.
         21    1    1    2  502  501 -0.20946713278E+02 -0.27825597666E+02 -0.44657148636E+03  0.44792758467E+03  0.00000000000E+00 0.  1.
<mgrwt>
<rscale>  1 0.30000000E+03</rscale>
<asrwt>0</asrwt>
<pdfrwt beam="1">  1        1 0.45126032E-02 0.30000000E+03</pdfrwt>
<pdfrwt beam="2">0</pdfrwt>
<totfact> 0.22978216E+03</totfact>
</mgrwt>
</event>
<event>
 6    1  0.3125838E-002  0.3000000E+03  0.7818608E-02  0.1093470E+00
          1   -1    0    0  502    0  0.00000000000E+00  0.00000000000E+00  0.28289132589E+01  0.28289132589E+01  0.00000000000E+00 0.  1.
         13   -1    0    0    0    0 -0.00000000000E+00 -0.00000000000E+00 -0.10000000000E+04  0.10000000000E+04  0.00000000000E+00 0.  1.
    9000005    2    1    2  501    0  0.35294007012E+02 -0.15406154248E+02 -0.84419194051E+03  0.84507709646E+03  0.35000044199E+01 0.  0.
         13    1    3    3    0    0  0.87868022756E+00  0.13845299731E+00 -0.23432285279E+02  0.23449162919E+02  0.00000000000E+00 0.  1.
          1    1    3    3  501    0  0.34415326784E+02 -0.15544607245E+02 -0.82075965523E+03  0.82162793354E+03  0.00000000000E+00 0.  1.
         21    1    1    2  502  501 -0.35294007012E+02  0.15406154248E+02 -0.15297914624E+03  0.15775181680E+03  0.00000000000E+00 0.  1.
<mgrwt>
<rscale>  1 0.30000000E+03</rscale>
<asrwt>0</asrwt>
<pdfrwt beam="1">  1        1 0.10286979E-01 0.30000000E+03</pdfrwt>
<pdfrwt beam="2">0</pdfrwt>
<totfact> 0.72680969E+02</totfact>
</mgrwt>
</event>
<event>
 6    1  0.3125838E-002  0.3000000E+03  0.7818608E-02  0.1093470E+00
          1   -1    0    0  502    0  0.00000000000E+00  0.00000000000E+00  0.94050922167E+00  0.94050922167E+00  0.00000000000E+00 0.  1.
         13   -1    0    0    0    0 -0.00000000000E+00 -0.00000000000E+00 -0.10000000000E+04  0.10000000000E+04  0.00000000000E+00 0.  1.
    9000005    2    1    2  501    0 -0.27411891301E+02  0.12596083170E+02 -0.57394101051E+03  0.57475299725E+03  0.47593282398E+01 0.  0.
         13    1    3    3    0    0 -0.56078860331E+01  0.41901204643E+01 -0.15974311053E+03  0.15989642540E+03  0.00000000000E+00 0.  1.
          1    1    3    3  501    0 -0.21804005268E+02  0.84059627061E+01 -0.41419789999E+03  0.41485657185E+03  0.00000000000E+00 0.  1.
         21    1    1    2  502  501  0.27411891301E+02 -0.12596083170E+02 -0.42511848026E+03  0.42618751197E+03  0.00000000000E+00 0.  1.
<mgrwt>
<rscale>  1 0.30000000E+03</rscale>
<asrwt>0</asrwt>
<pdfrwt beam="1">  1        1 0.34200407E-02 0.30000000E+03</pdfrwt>
<pdfrwt beam="2">0</pdfrwt>
<totfact> 0.33944272E+03</totfact>
</mgrwt>
</event>
<event>
 6    1  0.3125838E-002  0.3000000E+03  0.7818608E-02  0.1093470E+00
          1   -1    0    0  502    0  0.00000000000E+00  0.00000000000E+00  0.51402199600E+02  0.51402199600E+02  0.00000000000E+00 0.  1.
         13   -1    0    0    0    0 -0.00000000000E+00 -0.00000000000E+00 -0.10000000000E+04  0.10000000000E+04  0.00000000000E+00 0.  1.
    9000005    2    1    2  501    0 -0.55153327022E+02  0.29503656187E+02 -0.97959448342E+03  0.98159425185E+03  0.30932366254E+01 0.  0.
         13    1    3    3    0    0 -0.52164650930E+02  0.28213013265E+02 -0.91778654705E+03  0.91970064199E+03  0.00000000000E+00 0.  1.
          1    1    3    3  501    0 -0.29886760916E+01  0.12906429220E+01 -0.61807936372E+02  0.61893609868E+02  0.00000000000E+00 0.  1.
         21    1    1    2  502  501  0.55153327022E+02 -0.29503656187E+02  0.30996683023E+02  0.69807947745E+02  0.00000000000E+00 0.  1.
<mgrwt>
<rscale>  1 0.30000000E+03</rscale>
<asrwt>0</asrwt>
<pdfrwt beam="1">  1        1 0.18691748E+00 0.30000000E+03</pdfrwt>
<pdfrwt beam="2">0</pdfrwt>
<totfact> 0.11830542E+01</totfact>
</mgrwt>
</event>
<event>
 6    1  0.3125838E-002  0.3000000E+03  0.7818608E-02  0.1093470E+00
          3   -1    0    0  502    0  0.00000000000E+00  0.00000000000E+00  0.30475175816E+01  0.30475175816E+01  0.00000000000E+00 0.  1.
         13   -1    0    0    0    0 -0.00000000000E+00 -0.00000000000E+00 -0.10000000000E+04  0.10000000000E+04  0.00000000000E+00 0.  1.
    9000005    2    1    2  501    0  0.33135463728E+02  0.31035028182E+02 -0.78346826130E+03  0.78478931133E+03  0.32580329617E+01 0.  0.
         13    1    3    3    0    0  0.15955828242E+02  0.13359678391E+02 -0.33910515604E+03  0.33974310341E+03  0.00000000000E+00 0.  1.
          1    1    3    3  501    0  0.17179635487E+02  0.17675349791E+02 -0.44436310525E+03  0.44504620791E+03  0.00000000000E+00 0.  1.
         21    1    1    2  502  501 -0.33135463728E+02 -0.31035028182E+02 -0.21348422112E+03  0.21825820625E+03  0.00000000000E+00 0.  1.
<mgrwt>
<rscale>  1 0.30000000E+03</rscale>
<asrwt>0</asrwt>
<pdfrwt beam="1">  1        3 0.11081905E-01 0.30000000E+03</pdfrwt>
<pdfrwt beam="2">0</pdfrwt>
<totfact> 0.27845835E+02</totfact>
</mgrwt>
</event>
<event>
 6    1  0.3125838E-002  0.3000000E+03  0.7818608E-02  0.1093470E+00
          1   -1    0    0  502    0  0.00000000000E+00  0.00000000000E+00  0.21163201222E+01  0.21163201222E+01  0.00000000000E+00 0.  1.
         13   -1    0    0    0    0 -0.00000000000E+00 -0.00000000000E+00 -0.10000000000E+04  0.10000000000E+04  0.00000000000E+00 0.  1.
    9000005    2    1    2  501    0 -0.13231634503E+02  0.33472716876E+02 -0.81041635427E+03  0.81122499739E+03  0.39787163159E+01 0.  0.
         13    1    3    3    0    0 -0.22188110959E+01  0.27930585326E+01 -0.93396854229E+02  0.93464948930E+02  0.00000000000E+00 0.  1.
          3    1    3    3  501    0 -0.11012823407E+02  0.30679658344E+02 -0.71701950004E+03  0.71776004846E+03  0.00000000000E+00 0.  1.
         21    1    1    2  502  501  0.13231634503E+02 -0.33472716876E+02 -0.18746732560E+03  0.19089132274E+03  0.00000000000E+00 0.  1.
<mgrwt>
<rscale>  1 0.30000000E+03</rscale>
<asrwt>0</asrwt>
<pdfrwt beam="1">  1        1 0.76957258E-02 0.30000000E+03</pdfrwt>
<pdfrwt beam="2">0</pdfrwt>
<totfact> 0.10870141E+03</totfact>
</mgrwt>
</event>
<event>
 6    1  0.3125838E-002  0.3000000E+03  0.7818608E-02  0.1093470E+00
          1   -1    0    0  502    0  0.00000000000E+00  0.00000000000E+00  0.11336720646E+01  0.11336720646E+01  0.00000000000E+00 0.  1.
         13   -1    0    0    0    0 -0.00000000000E+00 -0.00000000000E+00 -0.10000000000E+04  0.10000000000E+04  0.00000000000E+00 0.  1.
    9000005    2    1    2  501    0  0.25447413425E+02 -0.17226720124E+02 -0.70172827538E+03  0.70241080214E+03  0.37459000001E+01 0.  0.
         13    1    3    3    0    0  0.18809369131E+02 -0.11710076147E+02 -0.47029719136E+03  0.47081882551E+03  0.00000000000E+00 0.  1.
          3    1    3    3  501    0  0.66380442944E+01 -0.55166439763E+01 -0.23143108401E+03  0.23159197663E+03  0.00000000000E+00 0.  1.
         21    1    1    2  502  501 -0.25447413425E+02  0.17226720124E+02 -0.29713805256E+03  0.29872286992E+03  0.00000000000E+00 0.  1.
<mgrwt>
<rscale>  1 0.30000000E+03</rscale>
<asrwt>0</asrwt>
<pdfrwt beam="1">  1        1 0.41224526E-02 0.30000000E+03</pdfrwt>
<pdfrwt beam="2">0</pdfrwt>
<totfact> 0.26097659E+03</totfact>
</mgrwt>
</event>
<event>
 6    1  0.3125838E-002  0.3000000E+03  0.7818608E-02  0.1093470E+00
          1   -1    0    0  502    0  0.00000000000E+00  0.00000000000E+00  0.56350373325E+01  0.56350373325E+01  0.00000000000E+00 0.  1.
         13   -1    0    0    0    0 -0.00000000000E+00 -0.00000000000E+00 -0.10000000000E+04  0.10000000000E+04  0.00000000000E+00 0.  1.
    9000005    2    1    2  501    0  0.53467726431E+02  0.40242310585E+02 -0.27007047262E+03  0.27825566613E+03  0.31486860734E+01 0.  0.
         13    1    3    3    0    0  0.24603142597E+02  0.18421784642E+02 -0.13057439039E+03  0.13414301399E+03  0.00000000000E+00 0.  1.
          1    1    3    3  501    0  0.28864583834E+02  0.21820525943E+02 -0.13949608222E+03  0.14411265214E+03  0.00000000000E+00 0.  1.
         21    1    1    2  502  501 -0.53467726431E+02 -0.40242310585E+02 -0.72429449005E+03  0.72737937120E+03  0.00000000000E+00 0.  1.
<mgrwt>
<rscale>  1 0.30000000E+03</rscale>
<asrwt>0</asrwt>
<pdfrwt beam="1">  1        1 0.20491088E-01 0.30000000E+03</pdfrwt>
<pdfrwt beam="2">0</pdfrwt>
<totfact> 0.28502642E+02</totfact>
</mgrwt>
</event>
<event>
 6    1  0.3125838E-002  0.3000000E+03  0.7818608E-02  0.1093470E+00
          1   -1    0    0  502    0  0.00000000000E+00  0.00000000000E+00  0.20294932427E+01  0.20294932427E+01  0.00000000000E+00 0.  1.
         13   -1    0    0    0    0 -0.00000000000E+00 -0.00000000000E+00 -0.10000000000E+04  0.10000000000E+04  0.00000000000E+00 0.  1.
    9000005    2    1    2  501    0  0.14893038071E+02  0.34269827166E+02 -0.77713230134E+03  0.77805240377E+03  0.58911449203E+01 0.  0.
         13    1    3    3    0    0  0.12844092070E+02  0.22735374292E+02 -0.53648188113E+03  0.53711700469E+03  0.00000000000E+00 0.  1.
          3    1    3    3  501    0  0.20489460011E+01  0.11534452873E+02 -0.24065042021E+03  0.24093539908E+03  0.00000000000E+00 0.  1.
         21    1    1    2  502  501 -0.14893038071E+02 -0.34269827166E+02 -0.22083820542E+03  0.22397708947E+03  0.00000000000E+00 0.  1.
<mgrwt>
<rscale>  1 0.30000000E+03</rscale>
<asrwt>0</asrwt>
<pdfrwt beam="1">  1        1 0.73799910E-02 0.30000000E+03</pdfrwt>
<pdfrwt beam="2">0</pdfrwt>
<totfact> 0.11524562E+03</totfact>
</mgrwt>
</event>
<event>
 6    1  0.3125838E-002  0.3000000E+03  0.7818608E-02  0.1093470E+00
          3   -1    0    0  502    0  0.00000000000E+00  0.00000000000E+00  0.12184457346E+01  0.12184457346E+01  0.00000000000E+00 0.  1.
         13   -1    0    0    0    0 -0.00000000000E+00 -0.00000000000E+00 -0.10000000000E+04  0.10000000000E+04  0.00000000000E+00 0.  1.
    9000005    2    1    2  501    0 -0.25453611512E+02 -0.23187285571E+02 -0.43577800897E+03  0.43716301533E+03  0.48468878144E+01 0.  0.
         13    1    3    3    0    0 -0.87063378116E+00  0.13502393691E+00 -0.10027660985E+02  0.10066291248E+02  0.00000000000E+00 0.  1.
          3    1    3    3  501    0 -0.24582977731E+02 -0.23322309508E+02 -0.42575034799E+03  0.42709672409E+03  0.00000000000E+00 0.  1.
         21    1    1    2  502  501  0.25453611512E+02  0.23187285571E+02 -0.56300354529E+03  0.56405543040E+03  0.00000000000E+00 0.  1.
<mgrwt>
<rscale>  1 0.30000000E+03</rscale>
<asrwt>0</asrwt>
<pdfrwt beam="1">  1        3 0.44307211E-02 0.30000000E+03</pdfrwt>
<pdfrwt beam="2">0</pdfrwt>
<totfact> 0.11922726E+03</totfact>
</mgrwt>
</event>
<event>
 6    1  0.3125838E-002  0.3000000E+03  0.7818608E-02  0.1093470E+00
          1   -1    0    0  502    0  0.00000000000E+00  0.00000000000E+00  0.11336935413E+01  0.11336935413E+01  0.00000000000E+00 0.  1.
         13   -1    0    0    0    0 -0.00000000000E+00 -0.00000000000E+00 -0.10000000000E+04  0.10000000000E+04  0.00000000000E+00 0.  1.
    9000005    2    1    2  501    0 -0.73330072635E+01 -0.32624863768E+02 -0.45257495310E+03  0.45381989188E+03  0.32017750788E+01 0.  0.
         13    1    3    3    0    0 -0.62606006749E+01 -0.22533716590E+02 -0.32741646480E+03  0.32825067392E+03  0.00000000000E+00 0.  1.
          1    1    3    3  501    0 -0.10724065885E+01 -0.10091147178E+02 -0.12515848830E+03  0.12556921797E+03  0.00000000000E+00 0.  1.
         21    1    1    2  502  501  0.73330072635E+01  0.32624863768E+02 -0.54629135336E+03  0.54731380166E+03  0.00000000000E+00 0.  1.
<mgrwt>
<rscale>  1 0.30000000E+03</rscale>
<asrwt>0</asrwt>
<pdfrwt beam="1">  1        1 0.41225307E-02 0.30000000E+03</pdfrwt>
<pdfrwt beam="2">0</pdfrwt>
<totfact> 0.26096963E+03</totfact>
</mgrwt>
</event>
<event>
 6    1  0.3125838E-002  0.3000000E+03  0.7818608E-02  0.1093470E+00
          1   -1    0    0  502    0  0.00000000000E+00  0.00000000000E+00  0.19859720106E+01  0.19859720106E+01  0.00000000000E+00 0.  1.
         13   -1    0    0    0    0 -0.00000000000E+00 -0.00000000000E+00 -0.10000000000E+04  0.10000000000E+04  0.00000000000E+00 0.  1.
    9000005    2    1    2  501    0 -0.31463975139E+02  0.38250006297E+01 -0.85080964173E+03  0.85140794009E+03  0.37177461032E+01 0.  0.
         13    1    3    3    0    0 -0.23781000922E+02  0.44520425682E+01 -0.63585413923E+03  0.63631426439E+03  0.00000000000E+00 0.  1.
          1    1    3    3  501    0 -0.76829742164E+01 -0.62704193851E+00 -0.21495550250E+03  0.21509367570E+03  0.00000000000E+00 0.  1.
         21    1    1    2  502  501  0.31463975139E+02 -0.38250006297E+01 -0.14720438626E+03  0.15057803192E+03  0.00000000000E+00 0.  1.
<mgrwt>
<rscale>  1 0.30000000E+03</rscale>
<asrwt>0</asrwt>
<pdfrwt beam="1">  1        1 0.72217316E-02 0.30000000E+03</pdfrwt>
<pdfrwt beam="2">0</pdfrwt>
<totfact> 0.11878870E+03</totfact>
</mgrwt>
</event>
<event>
 6    1  0.3125838E-002  0.3000000E+03  0.7818608E-02  0.1093470E+00
          3   -1    0    0  502    0  0.00000000000E+00  0.00000000000E+00  0.20857980015E+01  0.20857980015E+01  0.00000000000E+00 0.  1.
         13   -1    0    0    0    0 -0.00000000000E+00 -0.00000000000E+00 -0.10000000000E+04  0.10000000000E+04  0.00000000000E+00 0.  1.
    9000005    2    1    2  501    0 -0.44640809536E+02  0.46209499481E+01 -0.58879668336E+03  0.59051405564E+03  0.33407359728E+01 0.  0.
         13    1    3    3    0    0 -0.38150050827E+02  0.48835018453E+01 -0.49388622891E+03  0.49538155201E+03  0.00000000000E+00 0.  1.
          3    1    3    3  501    0 -0.64907587092E+01 -0.26255189722E+00 -0.94910454450E+02  0.95132503626E+02  0.00000000000E+00 0.  1.
         21    1    1    2  502  501  0.44640809536E+02 -0.46209499481E+01 -0.40911751864E+03  0.41157174236E+03  0.00000000000E+00 0.  1.
<mgrwt>
<rscale>  1 0.30000000E+03</rscale>
<asrwt>0</asrwt>
<pdfrwt beam="1">  1        3 0.75847360E-02 0.30000000E+03</pdfrwt>
<pdfrwt beam="2">0</pdfrwt>
<totfact> 0.51589880E+02</totfact>
</mgrwt>
</event>
<event>
 6    1  0.3125838E-002  0.3000000E+03  0.7818608E-02  0.1093470E+00
          1   -1    0    0  502    0  0.00000000000E+00  0.00000000000E+00  0.97304953229E+00  0.97304953229E+00  0.00000000000E+00 0.  1.
         13   -1    0    0    0    0 -0.00000000000E+00 -0.00000000000E+00 -0.10000000000E+04  0.10000000000E+04  0.00000000000E+00 0.  1.
    9000005    2    1    2  501    0 -0.94781728056E+01  0.29625080265E+02 -0.49521018888E+03  0.49619704932E+03  0.33014294147E+01 0.  0.
         13    1    3    3    0    0 -0.57664201196E+01  0.14022377436E+02 -0.22304801294E+03  0.22356273112E+03  0.00000000000E+00 0.  1.
          3    1    3    3  501    0 -0.37117526861E+01  0.15602702829E+02 -0.27216217595E+03  0.27263431820E+03  0.00000000000E+00 0.  1.
         21    1    1    2  502  501  0.94781728056E+01 -0.29625080265E+02 -0.50381676158E+03  0.50477600022E+03  0.00000000000E+00 0.  1.
<mgrwt>
<rscale>  1 0.30000000E+03</rscale>
<asrwt>0</asrwt>
<pdfrwt beam="1">  1        1 0.35383694E-02 0.30000000E+03</pdfrwt>
<pdfrwt beam="2">0</pdfrwt>
<totfact> 0.32358813E+03</totfact>
</mgrwt>
</event>
<event>
 6    1  0.3125838E-002  0.3000000E+03  0.7818608E-02  0.1093470E+00
          3   -1    0    0  502    0  0.00000000000E+00  0.00000000000E+00  0.42728023224E+01  0.42728023224E+01  0.00000000000E+00 0.  1.
         13   -1    0    0    0    0 -0.00000000000E+00 -0.00000000000E+00 -0.10000000000E+04  0.10000000000E+04  0.00000000000E+00 0.  1.
    9000005    2    1    2  501    0  0.94386855274E+01 -0.32825471484E+02 -0.92595830342E+03  0.92659205201E+03  0.27296190993E+01 0.  0.
         13    1    3    3    0    0  0.10879819530E+01 -0.57320377198E+01 -0.18311768057E+03  0.18321060258E+03  0.00000000000E+00 0.  1.
          3    1    3    3  501    0  0.83507035744E+01 -0.27093433764E+02 -0.74284062285E+03  0.74338144943E+03  0.00000000000E+00 0.  1.
         21    1    1    2  502  501 -0.94386855274E+01  0.32825471484E+02 -0.69768894263E+02  0.77680750313E+02  0.00000000000E+00 0.  1.
<mgrwt>
<rscale>  1 0.30000000E+03</rscale>
<asrwt>0</asrwt>
<pdfrwt beam="1">  1        3 0.15537496E-01 0.30000000E+03</pdfrwt>
<pdfrwt beam="2">0</pdfrwt>
<totfact> 0.15656659E+02</totfact>
</mgrwt>
</event>
<event>
 6    1  0.3125838E-002  0.3000000E+03  0.7818608E-02  0.1093470E+00
          1   -1    0    0  502    0  0.00000000000E+00  0.00000000000E+00  0.12939240264E+01  0.12939240264E+01  0.00000000000E+00 0.  1.
         13   -1    0    0    0    0 -0.00000000000E+00 -0.00000000000E+00 -0.10000000000E+04  0.10000000000E+04  0.00000000000E+00 0.  1.
    9000005    2    1    2  501    0 -0.31399180950E+02  0.17394190921E+02 -0.51488403709E+03  0.51614216246E+03  0.29485209780E+01 0.  0.
         13    1    3    3    0    0 -0.21503321307E+00 -0.55587560488E-01 -0.15474062779E+01  0.15632643566E+01  0.00000000000E+00 0.  1.
          3    1    3    3  501    0 -0.31184147737E+02  0.17449778482E+02 -0.51333663081E+03  0.51457889810E+03  0.00000000000E+00 0.  1.
         21    1    1    2  502  501  0.31399180950E+02 -0.17394190921E+02 -0.48382203889E+03  0.48515176157E+03  0.00000000000E+00 0.  1.
<mgrwt>
<rscale>  1 0.30000000E+03</rscale>
<asrwt>0</asrwt>
<pdfrwt beam="1">  1        1 0.47051882E-02 0.30000000E+03</pdfrwt>
<pdfrwt beam="2">0</pdfrwt>
<totfact> 0.21666067E+03</totfact>
</mgrwt>
</event>
<event>
 6    1  0.3125838E-002  0.3000000E+03  0.7818608E-02  0.1093470E+00
          1   -1    0    0  502    0  0.00000000000E+00  0.00000000000E+00  0.48541819227E+02  0.48541819227E+02  0.00000000000E+00 0.  1.
         13   -1    0    0    0    0 -0.00000000000E+00 -0.00000000000E+00 -0.10000000000E+04  0.10000000000E+04  0.00000000000E+00 0.  1.
    9000005    2    1    2  501    0  0.10419694628E+03  0.37572687220E+02 -0.92891996332E+03  0.93550783458E+03  0.37282511978E+01 0.  0.
         13    1    3    3    0    0  0.93827543411E+02  0.32637515413E+02 -0.83393077148E+03  0.83982697440E+03  0.00000000000E+00 0.  1.
          1    1    3    3  501    0  0.10369402873E+02  0.49351718067E+01 -0.94989191843E+02  0.95680860174E+02  0.00000000000E+00 0.  1.
         21    1    1    2  502  501 -0.10419694628E+03 -0.37572687220E+02 -0.22538217450E+02  0.11303398465E+03  0.00000000000E+00 0.  1.
<mgrwt>
<rscale>  1 0.30000000E+03</rscale>
<asrwt>0</asrwt>
<pdfrwt beam="1">  1        1 0.17651608E+00 0.30000000E+03</pdfrwt>
<pdfrwt beam="2">0</pdfrwt>
<totfact> 0.13280760E+01</totfact>
</mgrwt>
</event>
<event>
 6    1  0.3125838E-002  0.3000000E+03  0.7818608E-02  0.1093470E+00
          3   -1    0    0  502    0  0.00000000000E+00  0.00000000000E+00  0.98225499271E+00  0.98225499271E+00  0.00000000000E+00 0.  1.
         13   -1    0    0    0    0 -0.00000000000E+00 -0.00000000000E+00 -0.10000000000E+04  0.10000000000E+04  0.00000000000E+00 0.  1.
    9000005    2    1    2  501    0  0.64860108568E+01 -0.29873309175E+02 -0.60753273008E+03  0.60830554337E+03  0.22656210574E+01 0.  0.
         13    1    3    3    0    0  0.96942741231E+00 -0.25037806096E+01 -0.63775299891E+02  0.63831791319E+02  0.00000000000E+00 0.  1.
          1    1    3    3  501    0  0.55165834445E+01 -0.27369528565E+02 -0.54375743019E+03  0.54447375205E+03  0.00000000000E+00 0.  1.
         21    1    1    2  502  501 -0.64860108568E+01  0.29873309175E+02 -0.39148501493E+03  0.39267671162E+03  0.00000000000E+00 0.  1.
<mgrwt>
<rscale>  1 0.30000000E+03</rscale>
<asrwt>0</asrwt>
<pdfrwt beam="1">  1        3 0.35718439E-02 0.30000000E+03</pdfrwt>
<pdfrwt beam="2">0</pdfrwt>
<totfact> 0.16608158E+03</totfact>
</mgrwt>
</event>
<event>
 6    1  0.3125838E-002  0.3000000E+03  0.7818608E-02  0.1093470E+00
          1   -1    0    0  502    0  0.00000000000E+00  0.00000000000E+00  0.96577885559E+00  0.96577885559E+00  0.00000000000E+00 0.  1.
         13   -1    0    0    0    0 -0.00000000000E+00 -0.00000000000E+00 -0.10000000000E+04  0.10000000000E+04  0.00000000000E+00 0.  1.
    9000005    2    1    2  501    0  0.24548184448E+02  0.18740108558E+02 -0.46058341613E+03  0.46163000733E+03  0.33727471455E+01 0.  0.
         13    1    3    3    0    0  0.22086841807E+02  0.17359651744E+02 -0.40338833637E+03  0.40436534966E+03  0.00000000000E+00 0.  1.
          1    1    3    3  501    0  0.24613426415E+01  0.13804568134E+01 -0.57195079770E+02  0.57264657673E+02  0.00000000000E+00 0.  1.
         21    1    1    2  502  501 -0.24548184448E+02 -0.18740108558E+02 -0.53845080501E+03  0.53933577152E+03  0.00000000000E+00 0.  1.
<mgrwt>
<rscale>  1 0.30000000E+03</rscale>
<asrwt>0</asrwt>
<pdfrwt beam="1">  1        1 0.35119305E-02 0.30000000E+03</pdfrwt>
<pdfrwt beam="2">0</pdfrwt>
<totfact> 0.32701963E+03</totfact>
</mgrwt>
</event>
<event>
 6    1  0.3125838E-002  0.3000000E+03  0.7818608E-02  0.1093470E+00
          3   -1    0    0  502    0  0.00000000000E+00  0.00000000000E+00  0.31789568090E+01  0.31789568090E+01  0.00000000000E+00 0.  1.
         13   -1    0    0    0    0 -0.00000000000E+00 -0.00000000000E+00 -0.10000000000E+04  0.10000000000E+04  0.00000000000E+00 0.  1.
    9000005    2    1    2  501    0  0.18338519711E+02  0.29529159636E+02 -0.89312385769E+03  0.89381086797E+03  0.44011321685E+01 0.  0.
         13    1    3    3    0    0  0.12895919478E+02  0.19673125933E+02 -0.55124637929E+03  0.55174804694E+03  0.00000000000E+00 0.  1.
          3    1    3    3  501    0  0.54426002338E+01  0.98560337031E+01 -0.34187747839E+03  0.34206282103E+03  0.00000000000E+00 0.  1.
         21    1    1    2  502  501 -0.18338519711E+02 -0.29529159636E+02 -0.10369718550E+03  0.10936808884E+03  0.00000000000E+00 0.  1.
<mgrwt>
<rscale>  1 0.30000000E+03</rscale>
<asrwt>0</asrwt>
<pdfrwt beam="1">  1        3 0.11559867E-01 0.30000000E+03</pdfrwt>
<pdfrwt beam="2">0</pdfrwt>
<totfact> 0.25942963E+02</totfact>
</mgrwt>
</event>
<event>
 6    1  0.3125838E-002  0.3000000E+03  0.7818608E-02  0.1093470E+00
          3   -1    0    0  502    0  0.00000000000E+00  0.00000000000E+00  0.38083049562E+01  0.38083049562E+01  0.00000000000E+00 0.  1.
         13   -1    0    0    0    0 -0.00000000000E+00 -0.00000000000E+00 -0.10000000000E+04  0.10000000000E+04  0.00000000000E+00 0.  1.
    9000005    2    1    2  501    0 -0.33913118768E+02 -0.50318500802E+02 -0.58797231553E+03  0.59110367334E+03  0.31713810325E+01 0.  0.
         13    1    3    3    0    0 -0.27773324027E+02 -0.39934565902E+02 -0.46062153190E+03  0.46318281783E+03  0.00000000000E+00 0.  1.
          1    1    3    3  501    0 -0.61397947408E+01 -0.10383934900E+02 -0.12735078363E+03  0.12792085551E+03  0.00000000000E+00 0.  1.
         21    1    1    2  502  501  0.33913118768E+02  0.50318500802E+02 -0.40821937951E+03  0.41270463161E+03  0.00000000000E+00 0.  1.
<mgrwt>
<rscale>  1 0.30000000E+03</rscale>
<asrwt>0</asrwt>
<pdfrwt beam="1">  1        3 0.13848411E-01 0.30000000E+03</pdfrwt>
<pdfrwt beam="2">0</pdfrwt>
<totfact> 0.19099507E+02</totfact>
</mgrwt>
</event>
<event>
 6    1  0.3125838E-002  0.3000000E+03  0.7818608E-02  0.1093470E+00
          1   -1    0    0  502    0  0.00000000000E+00  0.00000000000E+00  0.12708570216E+01  0.12708570216E+01  0.00000000000E+00 0.  1.
         13   -1    0    0    0    0 -0.00000000000E+00 -0.00000000000E+00 -0.10000000000E+04  0.10000000000E+04  0.00000000000E+00 0.  1.
    9000005    2    1    2  501    0  0.13572842141E+02  0.27669062963E+02 -0.74991060983E+03  0.75055097044E+03  0.33222589996E+01 0.  0.
         13    1    3    3    0    0  0.10025720785E+02  0.23064828345E+02 -0.62265880873E+03  0.62316650542E+03  0.00000000000E+00 0.  1.
          3    1    3    3  501    0  0.35471213565E+01  0.46042346182E+01 -0.12725180110E+03  0.12738446502E+03  0.00000000000E+00 0.  1.
         21    1    1    2  502  501 -0.13572842141E+02 -0.27669062963E+02 -0.24881853315E+03  0.25071988658E+03  0.00000000000E+00 0.  1.
<mgrwt>
<rscale>  1 0.30000000E+03</rscale>
<asrwt>0</asrwt>
<pdfrwt beam="1">  1        1 0.46213080E-02 0.30000000E+03</pdfrwt>
<pdfrwt beam="2">0</pdfrwt>
<totfact> 0.22221314E+03</totfact>
</mgrwt>
</event>
<event>
 6    1  0.3125838E-002  0.3000000E+03  0.7818608E-02  0.1093470E+00
          1   -1    0    0  502    0  0.00000000000E+00  0.00000000000E+00  0.84964616167E+01  0.84964616167E+01  0.00000000000E+00 0.  1.
         13   -1    0    0    0    0 -0.00000000000E+00 -0.00000000000E+00 -0.10000000000E+04  0.10000000000E+04  0.00000000000E+00 0.  1.
    9000005    2    1    2  501    0  0.80855182696E+01  0.59759903228E+02 -0.87705015720E+03  0.87912800293E+03  0.35278387491E+01 0.  0.
         13    1    3    3    0    0  0.12886625920E+01  0.14517731155E+02 -0.23223022343E+03  0.23268713296E+03  0.00000000000E+00 0.  1.
          1    1    3    3  501    0  0.67968556776E+01  0.45242172073E+02 -0.64481993377E+03  0.64644086997E+03  0.00000000000E+00 0.  1.
         21    1    1    2  502  501 -0.80855182696E+01 -0.59759903228E+02 -0.11445338118E+03  0.12936845869E+03  0.00000000000E+00 0.  1.
<mgrwt>
<rscale>  1 0.30000000E+03</rscale>
<asrwt>0</asrwt>
<pdfrwt beam="1">  1        1 0.30896289E-01 0.30000000E+03</pdfrwt>
<pdfrwt beam="2">0</pdfrwt>
<totfact> 0.16569393E+02</totfact>
</mgrwt>
</event>
<event>
 6    1  0.3125838E-002  0.3000000E+03  0.7818608E-02  0.1093470E+00
          3   -1    0    0  502    0  0.00000000000E+00  0.00000000000E+00  0.87114117530E+01  0.87114117530E+01  0.00000000000E+00 0.  1.
         13   -1    0    0    0    0 -0.00000000000E+00 -0.00000000000E+00 -0.10000000000E+04  0.10000000000E+04  0.00000000000E+00 0.  1.
    9000005    2    1    2  501    0  0.45345132458E+02  0.37847870223E+02 -0.88611505754E+03  0.88808755889E+03  0.33128140953E+01 0.  0.
         13    1    3    3    0    0  0.27463367076E+02  0.23723936589E+02 -0.56644156942E+03  0.56760295389E+03  0.00000000000E+00 0.  1.
          1    1    3    3  501    0  0.17881765382E+02  0.14123933634E+02 -0.31967348813E+03  0.32048460500E+03  0.00000000000E+00 0.  1.
         21    1    1    2  502  501 -0.45345132458E+02 -0.37847870223E+02 -0.10517353070E+03  0.12062385286E+03  0.00000000000E+00 0.  1.
<mgrwt>
<rscale>  1 0.30000000E+03</rscale>
<asrwt>0</asrwt>
<pdfrwt beam="1">  1        3 0.31677928E-01 0.30000000E+03</pdfrwt>
<pdfrwt beam="2">0</pdfrwt>
<totfact> 0.42157349E+01</totfact>
</mgrwt>
</event>
<event>
 6    1  0.3125838E-002  0.3000000E+03  0.7818608E-02  0.1093470E+00
          1   -1    0    0  502    0  0.00000000000E+00  0.00000000000E+00  0.67402355563E+01  0.67402355563E+01  0.00000000000E+00 0.  1.
         13   -1    0    0    0    0 -0.00000000000E+00 -0.00000000000E+00 -0.10000000000E+04  0.10000000000E+04  0.00000000000E+00 0.  1.
    9000005    2    1    2  501    0 -0.45803698691E+02  0.50558700445E+01 -0.91317429224E+03  0.91434313878E+03  0.35421432735E+01 0.  0.
         13    1    3    3    0    0 -0.26070564987E+02  0.21658805907E+01 -0.48607884565E+03  0.48678230204E+03  0.00000000000E+00 0.  1.
          1    1    3    3  501    0 -0.19733133705E+02  0.28899894538E+01 -0.42709544660E+03  0.42756083673E+03  0.00000000000E+00 0.  1.
         21    1    1    2  502  501  0.45803698691E+02 -0.50558700445E+01 -0.80085472201E+02  0.92397096780E+02  0.00000000000E+00 0.  1.
<mgrwt>
<rscale>  1 0.30000000E+03</rscale>
<asrwt>0</asrwt>
<pdfrwt beam="1">  1        1 0.24509999E-01 0.30000000E+03</pdfrwt>
<pdfrwt beam="2">0</pdfrwt>
<totfact> 0.22473847E+02</totfact>
</mgrwt>
</event>
<event>
 6    1  0.3125838E-002  0.3000000E+03  0.7818608E-02  0.1093470E+00
          1   -1    0    0  502    0  0.00000000000E+00  0.00000000000E+00  0.47902357269E+01  0.47902357269E+01  0.00000000000E+00 0.  1.
         13   -1    0    0    0    0 -0.00000000000E+00 -0.00000000000E+00 -0.10000000000E+04  0.10000000000E+04  0.00000000000E+00 0.  1.
    9000005    2    1    2  501    0  0.48073959887E+02 -0.13741684403E+02 -0.84490168689E+03  0.84638424583E+03  0.27370724071E+01 0.  0.
         13    1    3    3    0    0  0.18659624592E+02 -0.66445569735E+01 -0.32668612601E+03  0.32728604714E+03  0.00000000000E+00 0.  1.
          1    1    3    3  501    0  0.29414335295E+02 -0.70971274295E+01 -0.51821556089E+03  0.51909819869E+03  0.00000000000E+00 0.  1.
         21    1    1    2  502  501 -0.48073959887E+02  0.13741684403E+02 -0.15030807738E+03  0.15840598990E+03  0.00000000000E+00 0.  1.
<mgrwt>
<rscale>  1 0.30000000E+03</rscale>
<asrwt>0</asrwt>
<pdfrwt beam="1">  1        1 0.17419076E-01 0.30000000E+03</pdfrwt>
<pdfrwt beam="2">0</pdfrwt>
<totfact> 0.35438719E+02</totfact>
</mgrwt>
</event>
<event>
 6    1  0.3125838E-002  0.3000000E+03  0.7818608E-02  0.1093470E+00
          1   -1    0    0  502    0  0.00000000000E+00  0.00000000000E+00  0.33283676991E+01  0.33283676991E+01  0.00000000000E+00 0.  1.
         13   -1    0    0    0    0 -0.00000000000E+00 -0.00000000000E+00 -0.10000000000E+04  0.10000000000E+04  0.00000000000E+00 0.  1.
    9000005    2    1    2  501    0  0.56317106545E+02 -0.65447951138E+01 -0.40807454387E+03  0.41200698017E+03  0.32353557123E+01 0.  0.
         13    1    3    3    0    0  0.24454328035E+02 -0.31898990553E+01 -0.16620814601E+03  0.16802778763E+03  0.00000000000E+00 0.  1.
          1    1    3    3  501    0  0.31862778509E+02 -0.33548960585E+01 -0.24186639786E+03  0.24397919254E+03  0.00000000000E+00 0.  1.
         21    1    1    2  502  501 -0.56317106545E+02  0.65447951138E+01 -0.58859708843E+03  0.59132138753E+03  0.00000000000E+00 0.  1.
<mgrwt>
<rscale>  1 0.30000000E+03</rscale>
<asrwt>0</asrwt>
<pdfrwt beam="1">  1        1 0.12103181E-01 0.30000000E+03</pdfrwt>
<pdfrwt beam="2">0</pdfrwt>
<totfact> 0.58131057E+02</totfact>
</mgrwt>
</event>
<event>
 6    1  0.3125838E-002  0.3000000E+03  0.7818608E-02  0.1093470E+00
          1   -1    0    0  502    0  0.00000000000E+00  0.00000000000E+00  0.32658557956E+01  0.32658557956E+01  0.00000000000E+00 0.  1.
         13   -1    0    0    0    0 -0.00000000000E+00 -0.00000000000E+00 -0.10000000000E+04  0.10000000000E+04  0.00000000000E+00 0.  1.
    9000005    2    1    2  501    0 -0.57979646860E+01  0.30279918670E+02 -0.92048133554E+03  0.92101635307E+03  0.58943768539E+01 0.  0.
         13    1    3    3    0    0 -0.11847547290E+01  0.11400371580E+02 -0.42368830199E+03  0.42384330755E+03  0.00000000000E+00 0.  1.
          1    1    3    3  501    0 -0.46132099569E+01  0.18879547090E+02 -0.49679303355E+03  0.49717304552E+03  0.00000000000E+00 0.  1.
         21    1    1    2  502  501  0.57979646860E+01 -0.30279918670E+02 -0.76252808668E+02  0.82249502727E+02  0.00000000000E+00 0.  1.
<mgrwt>
<rscale>  1 0.30000000E+03</rscale>
<asrwt>0</asrwt>
<pdfrwt beam="1">  1        1 0.11875864E-01 0.30000000E+03</pdfrwt>
<pdfrwt beam="2">0</pdfrwt>
<totfact> 0.59661741E+02</totfact>
</mgrwt>
</event>
<event>
 6    1  0.3125838E-002  0.3000000E+03  0.7818608E-02  0.1093470E+00
          1   -1    0    0  502    0  0.00000000000E+00  0.00000000000E+00  0.59756192263E+01  0.59756192263E+01  0.00000000000E+00 0.  1.
         13   -1    0    0    0    0 -0.00000000000E+00 -0.00000000000E+00 -0.10000000000E+04  0.10000000000E+04  0.00000000000E+00 0.  1.
    9000005    2    1    2  501    0 -0.19530618904E+02  0.72006902816E+02 -0.62801559872E+03  0.63243998817E+03  0.32104942657E+01 0.  0.
         13    1    3    3    0    0 -0.17785723273E+02  0.67184617231E+02 -0.57860555252E+03  0.58276452376E+03  0.00000000000E+00 0.  1.
          3    1    3    3  501    0 -0.17448956319E+01  0.48222855850E+01 -0.49410046195E+02  0.49675464406E+02  0.00000000000E+00 0.  1.
         21    1    1    2  502  501  0.19530618904E+02 -0.72006902816E+02 -0.36600878205E+03  0.37353563106E+03  0.00000000000E+00 0.  1.
<mgrwt>
<rscale>  1 0.30000000E+03</rscale>
<asrwt>0</asrwt>
<pdfrwt beam="1">  1        1 0.21729570E-01 0.30000000E+03</pdfrwt>
<pdfrwt beam="2">0</pdfrwt>
<totfact> 0.26360094E+02</totfact>
</mgrwt>
</event>
<event>
 6    1  0.3125838E-002  0.3000000E+03  0.7818608E-02  0.1093470E+00
          1   -1    0    0  502    0  0.00000000000E+00  0.00000000000E+00  0.68494487316E+01  0.68494487316E+01  0.00000000000E+00 0.  1.
         13   -1    0    0    0    0 -0.00000000000E+00 -0.00000000000E+00 -0.10000000000E+04  0.10000000000E+04  0.00000000000E+00 0.  1.
    9000005    2    1    2  501    0 -0.46545818984E+02  0.43461446637E+02 -0.81800815882E+03  0.82048886213E+03  0.30355168344E+01 0.  0.
         13    1    3    3    0    0 -0.44979597227E+02  0.42452682627E+02 -0.79860874417E+03  0.80100020019E+03  0.00000000000E+00 0.  1.
          3    1    3    3  501    0 -0.15662217573E+01  0.10087640101E+01 -0.19399414650E+02  0.19488661939E+02  0.00000000000E+00 0.  1.
         21    1    1    2  502  501  0.46545818984E+02 -0.43461446637E+02 -0.17514239245E+03  0.18636058661E+03  0.00000000000E+00 0.  1.
<mgrwt>
<rscale>  1 0.30000000E+03</rscale>
<asrwt>0</asrwt>
<pdfrwt beam="1">  1        1 0.24907139E-01 0.30000000E+03</pdfrwt>
<pdfrwt beam="2">0</pdfrwt>
<totfact> 0.22001477E+02</totfact>
</mgrwt>
</event>
<event>
 6    1  0.3125838E-002  0.3000000E+03  0.7818608E-02  0.1093470E+00
          1   -1    0    0  502    0  0.00000000000E+00  0.00000000000E+00  0.46443604171E+01  0.46443604171E+01  0.00000000000E+00 0.  1.
         13   -1    0    0    0    0 -0.00000000000E+00 -0.00000000000E+00 -0.10000000000E+04  0.10000000000E+04  0.00000000000E+00 0.  1.
    9000005    2    1    2  501    0 -0.14621003691E+02  0.28603118025E+02 -0.94062360701E+03  0.94118171393E+03  0.42821094577E+01 0.  0.
         13    1    3    3    0    0 -0.33497800282E+01  0.32991775564E+01 -0.13067697277E+03  0.13076152650E+03  0.00000000000E+00 0.  1.
          3    1    3    3  501    0 -0.11271223663E+02  0.25303940468E+02 -0.80994663423E+03  0.81042018743E+03  0.00000000000E+00 0.  1.
         21    1    1    2  502  501  0.14621003691E+02 -0.28603118025E+02 -0.54732032577E+02  0.63462646492E+02  0.00000000000E+00 0.  1.
<mgrwt>
<rscale>  1 0.30000000E+03</rscale>
<asrwt>0</asrwt>
<pdfrwt beam="1">  1        1 0.16888619E-01 0.30000000E+03</pdfrwt>
<pdfrwt beam="2">0</pdfrwt>
<totfact> 0.36947064E+02</totfact>
</mgrwt>
</event>
<event>
 6    1  0.3125838E-002  0.3000000E+03  0.7818608E-02  0.1093470E+00
          1   -1    0    0  502    0  0.00000000000E+00  0.00000000000E+00  0.27110163444E+01  0.27110163444E+01  0.00000000000E+00 0.  1.
         13   -1    0    0    0    0 -0.00000000000E+00 -0.00000000000E+00 -0.10000000000E+04  0.10000000000E+04  0.00000000000E+00 0.  1.
    9000005    2    1    2  501    0  0.29554612451E+02  0.11008238772E+02 -0.89742940400E+03  0.89798951862E+03  0.33142024364E+01 0.  0.
         13    1    3    3    0    0  0.72024228136E+01  0.22341965479E+01 -0.25509225656E+03  0.25520369489E+03  0.00000000000E+00 0.  1.
          3    1    3    3  501    0  0.22352189638E+02  0.87740422245E+01 -0.64233714745E+03  0.64278582373E+03  0.00000000000E+00 0.  1.
         21    1    1    2  502  501 -0.29554612451E+02 -0.11008238772E+02 -0.99859579653E+02  0.10472149773E+03  0.00000000000E+00 0.  1.
<mgrwt>
<rscale>  1 0.30000000E+03</rscale>
<asrwt>0</asrwt>
<pdfrwt beam="1">  1        1 0.98582620E-02 0.30000000E+03</pdfrwt>
<pdfrwt beam="2">0</pdfrwt>
<totfact> 0.77078244E+02</totfact>
</mgrwt>
</event>
<event>
 6    1  0.3125838E-002  0.3000000E+03  0.7818608E-02  0.1093470E+00
          1   -1    0    0  502    0  0.00000000000E+00  0.00000000000E+00  0.26331777279E+01  0.26331777279E+01  0.00000000000E+00 0.  1.
         13   -1    0    0    0    0 -0.00000000000E+00 -0.00000000000E+00 -0.10000000000E+04  0.10000000000E+04  0.00000000000E+00 0.  1.
    9000005    2    1    2  501    0  0.34520910084E+02 -0.56394633878E+01 -0.86518837423E+03  0.86590483792E+03  0.40949538422E+01 0.  0.
         13    1    3    3    0    0  0.26167802377E+02 -0.60143532841E+01 -0.66635758508E+03  0.66689831123E+03  0.00000000000E+00 0.  1.
          3    1    3    3  501    0  0.83531077066E+01  0.37488989631E+00 -0.19883078915E+03  0.19900652669E+03  0.00000000000E+00 0.  1.
         21    1    1    2  502  501 -0.34520910084E+02  0.56394633878E+01 -0.13217844804E+03  0.13672833981E+03  0.00000000000E+00 0.  1.
<mgrwt>
<rscale>  1 0.30000000E+03</rscale>
<asrwt>0</asrwt>
<pdfrwt beam="1">  1        1 0.95752119E-02 0.30000000E+03</pdfrwt>
<pdfrwt beam="2">0</pdfrwt>
<totfact> 0.80246349E+02</totfact>
</mgrwt>
</event>
<event>
 6    1  0.3125838E-002  0.3000000E+03  0.7818608E-02  0.1093470E+00
          1   -1    0    0  502    0  0.00000000000E+00  0.00000000000E+00  0.21548448018E+01  0.21548448018E+01  0.00000000000E+00 0.  1.
         13   -1    0    0    0    0 -0.00000000000E+00 -0.00000000000E+00 -0.10000000000E+04  0.10000000000E+04  0.00000000000E+00 0.  1.
    9000005    2    1    2  501    0 -0.24077810789E+02 -0.30429944080E+02 -0.77329531223E+03  0.77427690720E+03  0.36560409917E+01 0.  0.
         13    1    3    3    0    0 -0.23511278426E+02 -0.30308868330E+02 -0.76523251876E+03  0.76619332775E+03  0.00000000000E+00 0.  1.
          1    1    3    3  501    0 -0.56653236287E+00 -0.12107575008E+00 -0.80627934673E+01  0.80835794517E+01  0.00000000000E+00 0.  1.
         21    1    1    2  502  501  0.24077810789E+02  0.30429944080E+02 -0.22454984297E+03  0.22787793760E+03  0.00000000000E+00 0.  1.
<mgrwt>
<rscale>  1 0.30000000E+03</rscale>
<asrwt>0</asrwt>
<pdfrwt beam="1">  1        1 0.78358158E-02 0.30000000E+03</pdfrwt>
<pdfrwt beam="2">0</pdfrwt>
<totfact> 0.10600210E+03</totfact>
</mgrwt>
</event>
<event>
 6    1  0.3125838E-002  0.3000000E+03  0.7818608E-02  0.1093470E+00
          1   -1    0    0  502    0  0.00000000000E+00  0.00000000000E+00  0.53888957467E+01  0.53888957467E+01  0.00000000000E+00 0.  1.
         13   -1    0    0    0    0 -0.00000000000E+00 -0.00000000000E+00 -0.10000000000E+04  0.10000000000E+04  0.00000000000E+00 0.  1.
    9000005    2    1    2  501    0 -0.17447688781E+02  0.36471284108E+02 -0.91679823904E+03  0.91769956686E+03  0.43482750638E+01 0.  0.
         13    1    3    3    0    0 -0.13135789245E+02  0.23087019683E+02 -0.61830379512E+03  0.61887409261E+03  0.00000000000E+00 0.  1.
          3    1    3    3  501    0 -0.43118995358E+01  0.13384264425E+02 -0.29849444392E+03  0.29882547425E+03  0.00000000000E+00 0.  1.
         21    1    1    2  502  501  0.17447688781E+02 -0.36471284108E+02 -0.77812865215E+02  0.87689328890E+02  0.00000000000E+00 0.  1.
<mgrwt>
<rscale>  1 0.30000000E+03</rscale>
<asrwt>0</asrwt>
<pdfrwt beam="1">  1        1 0.19596026E-01 0.30000000E+03</pdfrwt>
<pdfrwt beam="2">0</pdfrwt>
<totfact> 0.30256576E+02</totfact>
</mgrwt>
</event>
<event>
 6    1  0.3125838E-002  0.3000000E+03  0.7818608E-02  0.1093470E+00
          1   -1    0    0  502    0  0.00000000000E+00  0.00000000000E+00  0.10948697974E+01  0.10948697974E+01  0.00000000000E+00 0.  1.
         13   -1    0    0    0    0 -0.00000000000E+00 -0.00000000000E+00 -0.10000000000E+04  0.10000000000E+04  0.00000000000E+00 0.  1.
    9000005    2    1    2  501    0 -0.16735797403E+02 -0.26864480146E+02 -0.64065141317E+03  0.64144571718E+03  0.40727985675E+01 0.  0.
         13    1    3    3    0    0 -0.98038853886E+01 -0.18712042597E+02 -0.44692565435E+03  0.44742462742E+03  0.00000000000E+00 0.  1.
          3    1    3    3  501    0 -0.69319120148E+01 -0.81524375494E+01 -0.19372575882E+03  0.19402108976E+03  0.00000000000E+00 0.  1.
         21    1    1    2  502  501  0.16735797403E+02  0.26864480146E+02 -0.35825371703E+03  0.35964915262E+03  0.00000000000E+00 0.  1.
<mgrwt>
<rscale>  1 0.30000000E+03</rscale>
<asrwt>0</asrwt>
<pdfrwt beam="1">  1        1 0.39813531E-02 0.30000000E+03</pdfrwt>
<pdfrwt beam="2">0</pdfrwt>
<totfact> 0.27409253E+03</totfact>
</mgrwt>
</event>
<event>
 6    1  0.3125838E-002  0.3000000E+03  0.7818608E-02  0.1093470E+00
          3   -1    0    0  502    0  0.00000000000E+00  0.00000000000E+00  0.23856955554E+01  0.23856955554E+01  0.00000000000E+00 0.  1.
         13   -1    0    0    0    0 -0.00000000000E+00 -0.00000000000E+00 -0.10000000000E+04  0.10000000000E+04  0.00000000000E+00 0.  1.
    9000005    2    1    2  501    0 -0.65645436726E+01  0.32833179211E+02 -0.86350581500E+03  0.86416052479E+03  0.31637293995E+01 0.  0.
         13    1    3    3    0    0  0.14178843988E+00  0.15148501839E+01 -0.28359088903E+02  0.28399873212E+02  0.00000000000E+00 0.  1.
          1    1    3    3  501    0 -0.67063321125E+01  0.31318329027E+02 -0.83514672609E+03  0.83576065158E+03  0.00000000000E+00 0.  1.
         21    1    1    2  502  501  0.65645436726E+01 -0.32833179211E+02 -0.13410848945E+03  0.13822517077E+03  0.00000000000E+00 0.  1.
<mgrwt>
<rscale>  1 0.30000000E+03</rscale>
<asrwt>0</asrwt>
<pdfrwt beam="1">  1        3 0.86752749E-02 0.30000000E+03</pdfrwt>
<pdfrwt beam="2">0</pdfrwt>
<totfact> 0.41618584E+02</totfact>
</mgrwt>
</event>
<event>
 6    1  0.3731974E-002  0.3000000E+03  0.7818608E-02  0.1093470E+00
          1   -1    0    0  502    0  0.00000000000E+00  0.00000000000E+00  0.27996404249E+01  0.27996404249E+01  0.00000000000E+00 0.  1.
         13   -1    0    0    0    0 -0.00000000000E+00 -0.00000000000E+00 -0.10000000000E+04  0.10000000000E+04  0.00000000000E+00 0.  1.
    9000005    2    1    2  501    0 -0.39214957121E+02 -0.25960867740E+02 -0.72433192969E+03  0.72590803791E+03  0.85997451575E+01 0.  0.
         13    1    3    3    0    0 -0.24909648343E+02 -0.18225705056E+02 -0.41306572277E+03  0.41421728384E+03  0.00000000000E+00 0.  1.
          3    1    3    3  501    0 -0.14305308778E+02 -0.77351626836E+01 -0.31126620692E+03  0.31169075407E+03  0.00000000000E+00 0.  1.
         21    1    1    2  502  501  0.39214957121E+02  0.25960867740E+02 -0.27286842988E+03  0.27689160252E+03  0.00000000000E+00 0.  1.
<mgrwt>
<rscale>  1 0.30000000E+03</rscale>
<asrwt>0</asrwt>
<pdfrwt beam="1">  1        1 0.10180532E-01 0.30000000E+03</pdfrwt>
<pdfrwt beam="2">0</pdfrwt>
<totfact> 0.73730812E+02</totfact>
</mgrwt>
</event>
<event>
 6    1  0.3125838E-002  0.3000000E+03  0.7818608E-02  0.1093470E+00
          3   -1    0    0  502    0  0.00000000000E+00  0.00000000000E+00  0.11308743601E+01  0.11308743601E+01  0.00000000000E+00 0.  1.
         13   -1    0    0    0    0 -0.00000000000E+00 -0.00000000000E+00 -0.10000000000E+04  0.10000000000E+04  0.00000000000E+00 0.  1.
    9000005    2    1    2  501    0  0.28517557811E+01  0.31927080726E+02 -0.64707739525E+03  0.64788182260E+03  0.37722174819E+01 0.  0.
         13    1    3    3    0    0  0.55387983614E-01  0.14326063710E+01 -0.49017351369E+02  0.49038313227E+02  0.00000000000E+00 0.  1.
          1    1    3    3  501    0  0.27963677975E+01  0.30494474355E+02 -0.59806004388E+03  0.59884350938E+03  0.00000000000E+00 0.  1.
         21    1    1    2  502  501 -0.28517557811E+01 -0.31927080726E+02 -0.35179173039E+03  0.35324905176E+03  0.00000000000E+00 0.  1.
<mgrwt>
<rscale>  1 0.30000000E+03</rscale>
<asrwt>0</asrwt>
<pdfrwt beam="1">  1        3 0.41122791E-02 0.30000000E+03</pdfrwt>
<pdfrwt beam="2">0</pdfrwt>
<totfact> 0.13371797E+03</totfact>
</mgrwt>
</event>
<event>
 6    1  0.3125838E-002  0.3000000E+03  0.7818608E-02  0.1093470E+00
          1   -1    0    0  502    0  0.00000000000E+00  0.00000000000E+00  0.47013572698E+02  0.47013572698E+02  0.00000000000E+00 0.  1.
         13   -1    0    0    0    0 -0.00000000000E+00 -0.00000000000E+00 -0.10000000000E+04  0.10000000000E+04  0.00000000000E+00 0.  1.
    9000005    2    1    2  501    0 -0.76259880680E+02  0.11762314199E+03 -0.87586517672E+03  0.88701838457E+03  0.33217218196E+01 0.  0.
         13    1    3    3    0    0 -0.64591934747E+02  0.97374388327E+02 -0.73099394327E+03  0.74027429689E+03  0.00000000000E+00 0.  1.
          1    1    3    3  501    0 -0.11667945933E+02  0.20248753665E+02 -0.14487123345E+03  0.14674408768E+03  0.00000000000E+00 0.  1.
         21    1    1    2  502  501  0.76259880680E+02 -0.11762314199E+03 -0.77121250578E+02  0.15999518813E+03  0.00000000000E+00 0.  1.
<mgrwt>
<rscale>  1 0.30000000E+03</rscale>
<asrwt>0</asrwt>
<pdfrwt beam="1">  1        1 0.17095881E+00 0.30000000E+03</pdfrwt>
<pdfrwt beam="2">0</pdfrwt>
<totfact> 0.14133962E+01</totfact>
</mgrwt>
</event>
<event>
 6    1  0.3125838E-002  0.3000000E+03  0.7818608E-02  0.1093470E+00
          1   -1    0    0  502    0  0.00000000000E+00  0.00000000000E+00  0.12786057888E+01  0.12786057888E+01  0.00000000000E+00 0.  1.
         13   -1    0    0    0    0 -0.00000000000E+00 -0.00000000000E+00 -0.10000000000E+04  0.10000000000E+04  0.00000000000E+00 0.  1.
    9000005    2    1    2  501    0 -0.12718864173E+02  0.32233893784E+02 -0.61953302470E+03  0.62051015517E+03  0.33000849268E+01 0.  0.
         13    1    3    3    0    0 -0.45917066733E+01  0.77330495365E+01 -0.15710674945E+03  0.15736395568E+03  0.00000000000E+00 0.  1.
          1    1    3    3  501    0 -0.81271574992E+01  0.24500844247E+02 -0.46242627525E+03  0.46314619948E+03  0.00000000000E+00 0.  1.
         21    1    1    2  502  501  0.12718864173E+02 -0.32233893784E+02 -0.37918836951E+03  0.38076845062E+03  0.00000000000E+00 0.  1.
<mgrwt>
<rscale>  1 0.30000000E+03</rscale>
<asrwt>0</asrwt>
<pdfrwt beam="1">  1        1 0.46494854E-02 0.30000000E+03</pdfrwt>
<pdfrwt beam="2">0</pdfrwt>
<totfact> 0.22032088E+03</totfact>
</mgrwt>
</event>
<event>
 6    1  0.3125838E-002  0.3000000E+03  0.7818608E-02  0.1093470E+00
          1   -1    0    0  502    0  0.00000000000E+00  0.00000000000E+00  0.32271700124E+01  0.32271700124E+01  0.00000000000E+00 0.  1.
         13   -1    0    0    0    0 -0.00000000000E+00 -0.00000000000E+00 -0.10000000000E+04  0.10000000000E+04  0.00000000000E+00 0.  1.
    9000005    2    1    2  501    0 -0.12716563990E+02 -0.30113426894E+02 -0.90807838958E+03  0.90870080735E+03  0.78908920473E+01 0.  0.
         13    1    3    3    0    0 -0.22564721960E+00 -0.20032721539E+00 -0.63271455340E+02  0.63272174837E+02  0.00000000000E+00 0.  1.
          3    1    3    3  501    0 -0.12490916771E+02 -0.29913099678E+02 -0.84480693424E+03  0.84542863251E+03  0.00000000000E+00 0.  1.
         21    1    1    2  502  501  0.12716563990E+02  0.30113426894E+02 -0.88694440411E+02  0.94526362666E+02  0.00000000000E+00 0.  1.
<mgrwt>
<rscale>  1 0.30000000E+03</rscale>
<asrwt>0</asrwt>
<pdfrwt beam="1">  1        1 0.11735188E-01 0.30000000E+03</pdfrwt>
<pdfrwt beam="2">0</pdfrwt>
<totfact> 0.60644659E+02</totfact>
</mgrwt>
</event>
<event>
 6    1  0.3125838E-002  0.3000000E+03  0.7818608E-02  0.1093470E+00
          1   -1    0    0  502    0  0.00000000000E+00  0.00000000000E+00  0.27559715001E+01  0.27559715001E+01  0.00000000000E+00 0.  1.
         13   -1    0    0    0    0 -0.00000000000E+00 -0.00000000000E+00 -0.10000000000E+04  0.10000000000E+04  0.00000000000E+00 0.  1.
    9000005    2    1    2  501    0  0.49716136514E+02 -0.72391900660E+01 -0.64237836882E+03  0.64435153999E+03  0.38520465908E+01 0.  0.
         13    1    3    3    0    0  0.42107585658E+02 -0.66783257307E+01 -0.52746867234E+03  0.52918885958E+03  0.00000000000E+00 0.  1.
          3    1    3    3  501    0  0.76085508556E+01 -0.56086433523E+00 -0.11490969648E+03  0.11516268041E+03  0.00000000000E+00 0.  1.
         21    1    1    2  502  501 -0.49716136514E+02  0.72391900660E+01 -0.35486565968E+03  0.35840443151E+03  0.00000000000E+00 0.  1.
<mgrwt>
<rscale>  1 0.30000000E+03</rscale>
<asrwt>0</asrwt>
<pdfrwt beam="1">  1        1 0.10021736E-01 0.30000000E+03</pdfrwt>
<pdfrwt beam="2">0</pdfrwt>
<totfact> 0.75347492E+02</totfact>
</mgrwt>
</event>
<event>
 6    1  0.3125838E-002  0.3000000E+03  0.7818608E-02  0.1093470E+00
          1   -1    0    0  502    0  0.00000000000E+00  0.00000000000E+00  0.13048689060E+01  0.13048689060E+01  0.00000000000E+00 0.  1.
         13   -1    0    0    0    0 -0.00000000000E+00 -0.00000000000E+00 -0.10000000000E+04  0.10000000000E+04  0.00000000000E+00 0.  1.
    9000005    2    1    2  501    0  0.31995524566E+02 -0.12090773542E+02 -0.65785893053E+03  0.65875674672E+03  0.34897673504E+01 0.  0.
         13    1    3    3    0    0  0.31870971612E+02 -0.11690991481E+02 -0.64740489621E+03  0.64829432957E+03  0.00000000000E+00 0.  1.
          3    1    3    3  501    0  0.12455295382E+00 -0.39978206033E+00 -0.10454034323E+02  0.10462417157E+02  0.00000000000E+00 0.  1.
         21    1    1    2  502  501 -0.31995524566E+02  0.12090773542E+02 -0.34083620056E+03  0.34254812218E+03  0.00000000000E+00 0.  1.
<mgrwt>
<rscale>  1 0.30000000E+03</rscale>
<asrwt>0</asrwt>
<pdfrwt beam="1">  1        1 0.47449878E-02 0.30000000E+03</pdfrwt>
<pdfrwt beam="2">0</pdfrwt>
<totfact> 0.21410899E+03</totfact>
</mgrwt>
</event>
<event>
 6    1  0.3125838E-002  0.3000000E+03  0.7818608E-02  0.1093470E+00
          1   -1    0    0  502    0  0.00000000000E+00  0.00000000000E+00  0.94154974103E+00  0.94154974103E+00  0.00000000000E+00 0.  1.
         13   -1    0    0    0    0 -0.00000000000E+00 -0.00000000000E+00 -0.10000000000E+04  0.10000000000E+04  0.00000000000E+00 0.  1.
    9000005    2    1    2  501    0 -0.22292000507E+02 -0.20915064778E+02 -0.47611894513E+03  0.47710942086E+03  0.31267143158E+01 0.  0.
         13    1    3    3    0    0 -0.10585890297E+02 -0.11977264940E+02 -0.24058750422E+03  0.24111794445E+03  0.00000000000E+00 0.  1.
          1    1    3    3  501    0 -0.11706110210E+02 -0.89377998384E+01 -0.23553144091E+03  0.23599147641E+03  0.00000000000E+00 0.  1.
         21    1    1    2  502  501  0.22292000507E+02  0.20915064778E+02 -0.52293950513E+03  0.52383212888E+03  0.00000000000E+00 0.  1.
<mgrwt>
<rscale>  1 0.30000000E+03</rscale>
<asrwt>0</asrwt>
<pdfrwt beam="1">  1        1 0.34238245E-02 0.30000000E+03</pdfrwt>
<pdfrwt beam="2">0</pdfrwt>
<totfact> 0.33891537E+03</totfact>
</mgrwt>
</event>
<event>
 6    1  0.3125838E-002  0.3000000E+03  0.7818608E-02  0.1093470E+00
          3   -1    0    0  502    0  0.00000000000E+00  0.00000000000E+00  0.20170828274E+01  0.20170828274E+01  0.00000000000E+00 0.  1.
         13   -1    0    0    0    0 -0.00000000000E+00 -0.00000000000E+00 -0.10000000000E+04  0.10000000000E+04  0.00000000000E+00 0.  1.
    9000005    2    1    2  501    0 -0.85548442622E+01  0.33067950584E+02 -0.82369592594E+03  0.82441463344E+03  0.42231149995E+01 0.  0.
         13    1    3    3    0    0 -0.59313229054E+01  0.28078066122E+02 -0.70818540099E+03  0.70876661925E+03  0.00000000000E+00 0.  1.
          1    1    3    3  501    0 -0.26235213567E+01  0.49898844617E+01 -0.11551052496E+03  0.11564801419E+03  0.00000000000E+00 0.  1.
         21    1    1    2  502  501  0.85548442622E+01 -0.33067950584E+02 -0.17428699123E+03  0.17760244939E+03  0.00000000000E+00 0.  1.
<mgrwt>
<rscale>  1 0.30000000E+03</rscale>
<asrwt>0</asrwt>
<pdfrwt beam="1">  1        3 0.73348621E-02 0.30000000E+03</pdfrwt>
<pdfrwt beam="2">0</pdfrwt>
<totfact> 0.54406762E+02</totfact>
</mgrwt>
</event>
<event>
 6    1  0.3125838E-002  0.3000000E+03  0.7818608E-02  0.1093470E+00
          1   -1    0    0  502    0  0.00000000000E+00  0.00000000000E+00  0.31753621570E+01  0.31753621570E+01  0.00000000000E+00 0.  1.
         13   -1    0    0    0    0 -0.00000000000E+00 -0.00000000000E+00 -0.10000000000E+04  0.10000000000E+04  0.00000000000E+00 0.  1.
    9000005    2    1    2  501    0 -0.54077942461E+02  0.97446210177E+01 -0.59490095595E+03  0.59751290695E+03  0.97542339467E+01 0.  0.
         13    1    3    3    0    0 -0.33707195901E+02  0.10399223274E+02 -0.39783630348E+03  0.39939709972E+03  0.00000000000E+00 0.  1.
          1    1    3    3  501    0 -0.20370746561E+02 -0.65460225609E+00 -0.19706465247E+03  0.19811580723E+03  0.00000000000E+00 0.  1.
         21    1    1    2  502  501  0.54077942461E+02 -0.97446210177E+01 -0.40192368189E+03  0.40566245521E+03  0.00000000000E+00 0.  1.
<mgrwt>
<rscale>  1 0.30000000E+03</rscale>
<asrwt>0</asrwt>
<pdfrwt beam="1">  1        1 0.11546796E-01 0.30000000E+03</pdfrwt>
<pdfrwt beam="2">0</pdfrwt>
<totfact> 0.62006075E+02</totfact>
</mgrwt>
</event>
<event>
 6    1  0.3125838E-002  0.3000000E+03  0.7818608E-02  0.1093470E+00
          3   -1    0    0  502    0  0.00000000000E+00  0.00000000000E+00  0.47343923240E+01  0.47343923240E+01  0.00000000000E+00 0.  1.
         13   -1    0    0    0    0 -0.00000000000E+00 -0.00000000000E+00 -0.10000000000E+04  0.10000000000E+04  0.00000000000E+00 0.  1.
    9000005    2    1    2  501    0 -0.19041371808E+02 -0.24134147721E+02 -0.94702929232E+03  0.94753497759E+03  0.36086456406E+01 0.  0.
         13    1    3    3    0    0  0.31643031672E-01 -0.55822514527E+00 -0.27786625864E+02  0.27792250601E+02  0.00000000000E+00 0.  1.
          1    1    3    3  501    0 -0.19073014839E+02 -0.23575922575E+02 -0.91924266645E+03  0.91974272699E+03  0.00000000000E+00 0.  1.
         21    1    1    2  502  501  0.19041371808E+02  0.24134147721E+02 -0.48236315360E+02  0.57199414735E+02  0.00000000000E+00 0.  1.
<mgrwt>
<rscale>  1 0.30000000E+03</rscale>
<asrwt>0</asrwt>
<pdfrwt beam="1">  1        3 0.17216008E-01 0.30000000E+03</pdfrwt>
<pdfrwt beam="2">0</pdfrwt>
<totfact> 0.13075831E+02</totfact>
</mgrwt>
</event>
<event>
 6    1  0.3125838E-002  0.3000000E+03  0.7818608E-02  0.1093470E+00
          1   -1    0    0  502    0  0.00000000000E+00  0.00000000000E+00  0.21425334279E+01  0.21425334279E+01  0.00000000000E+00 0.  1.
         13   -1    0    0    0    0 -0.00000000000E+00 -0.00000000000E+00 -0.10000000000E+04  0.10000000000E+04  0.00000000000E+00 0.  1.
    9000005    2    1    2  501    0  0.34994751145E+02  0.12369174958E+02 -0.79757434367E+03  0.79844923846E+03  0.43270792340E+01 0.  0.
         13    1    3    3    0    0  0.16547125032E+02  0.65075472168E+01 -0.42631456854E+03  0.42668520816E+03  0.00000000000E+00 0.  1.
          3    1    3    3  501    0  0.18447626113E+02  0.58616277412E+01 -0.37125977513E+03  0.37176403030E+03  0.00000000000E+00 0.  1.
         21    1    1    2  502  501 -0.34994751145E+02 -0.12369174958E+02 -0.20028312290E+03  0.20369329497E+03  0.00000000000E+00 0.  1.
<mgrwt>
<rscale>  1 0.30000000E+03</rscale>
<asrwt>0</asrwt>
<pdfrwt beam="1">  1        1 0.77910471E-02 0.30000000E+03</pdfrwt>
<pdfrwt beam="2">0</pdfrwt>
<totfact> 0.10685189E+03</totfact>
</mgrwt>
</event>
<event>
 6    1  0.3125838E-002  0.3000000E+03  0.7818608E-02  0.1093470E+00
          1   -1    0    0  502    0  0.00000000000E+00  0.00000000000E+00  0.53201797725E+01  0.53201797725E+01  0.00000000000E+00 0.  1.
         13   -1    0    0    0    0 -0.00000000000E+00 -0.00000000000E+00 -0.10000000000E+04  0.10000000000E+04  0.00000000000E+00 0.  1.
    9000005    2    1    2  501    0  0.35638233448E+02  0.76851174451E+01 -0.93264310551E+03  0.93336395220E+03  0.39950342465E+01 0.  0.
         13    1    3    3    0    0  0.94778891274E+01  0.36295533756E+01 -0.28168927052E+03  0.28187204396E+03  0.00000000000E+00 0.  1.
          3    1    3    3  501    0  0.26160344321E+02  0.40555640695E+01 -0.65095383499E+03  0.65149190824E+03  0.00000000000E+00 0.  1.
         21    1    1    2  502  501 -0.35638233448E+02 -0.76851174451E+01 -0.62036714718E+02  0.71956227572E+02  0.00000000000E+00 0.  1.
<mgrwt>
<rscale>  1 0.30000000E+03</rscale>
<asrwt>0</asrwt>
<pdfrwt beam="1">  1        1 0.19346149E-01 0.30000000E+03</pdfrwt>
<pdfrwt beam="2">0</pdfrwt>
<totfact> 0.30781017E+02</totfact>
</mgrwt>
</event>
<event>
 6    1  0.3125838E-002  0.3000000E+03  0.7818608E-02  0.1093470E+00
          1   -1    0    0  502    0  0.00000000000E+00  0.00000000000E+00  0.42919695975E+01  0.42919695975E+01  0.00000000000E+00 0.  1.
         13   -1    0    0    0    0 -0.00000000000E+00 -0.00000000000E+00 -0.10000000000E+04  0.10000000000E+04  0.00000000000E+00 0.  1.
    9000005    2    1    2  501    0  0.41376798288E+02 -0.40894627218E+02 -0.72842318741E+03  0.73074929054E+03  0.31266112492E+01 0.  0.
         13    1    3    3    0    0  0.37504767273E+02 -0.37758720707E+02 -0.65637699761E+03  0.65853101032E+03  0.00000000000E+00 0.  1.
          1    1    3    3  501    0  0.38720310142E+01 -0.31359065112E+01 -0.72046189793E+02  0.72218280217E+02  0.00000000000E+00 0.  1.
         21    1    1    2  502  501 -0.41376798288E+02  0.40894627218E+02 -0.26728484300E+03  0.27354267906E+03  0.00000000000E+00 0.  1.
<mgrwt>
<rscale>  1 0.30000000E+03</rscale>
<asrwt>0</asrwt>
<pdfrwt beam="1">  1        1 0.15607195E-01 0.30000000E+03</pdfrwt>
<pdfrwt beam="2">0</pdfrwt>
<totfact> 0.41107216E+02</totfact>
</mgrwt>
</event>
<event>
 6    1  0.3125838E-002  0.3000000E+03  0.7818608E-02  0.1093470E+00
          1   -1    0    0  502    0  0.00000000000E+00  0.00000000000E+00  0.29389089824E+02  0.29389089824E+02  0.00000000000E+00 0.  1.
         13   -1    0    0    0    0 -0.00000000000E+00 -0.00000000000E+00 -0.10000000000E+04  0.10000000000E+04  0.00000000000E+00 0.  1.
    9000005    2    1    2  501    0  0.20356685694E+02 -0.33686638361E+02 -0.98624740363E+03  0.98703718096E+03  0.30448618100E+01 0.  0.
         13    1    3    3    0    0  0.41887186212E+01 -0.47906367241E+01 -0.15536436508E+03  0.15549463496E+03  0.00000000000E+00 0.  1.
          1    1    3    3  501    0  0.16167967073E+02 -0.28896001636E+02 -0.83088303855E+03  0.83154254601E+03  0.00000000000E+00 0.  1.
         21    1    1    2  502  501 -0.20356685694E+02  0.33686638361E+02  0.15636493455E+02  0.42351908859E+02  0.00000000000E+00 0.  1.
<mgrwt>
<rscale>  1 0.30000000E+03</rscale>
<asrwt>0</asrwt>
<pdfrwt beam="1">  1        1 0.10686964E+00 0.30000000E+03</pdfrwt>
<pdfrwt beam="2">0</pdfrwt>
<totfact> 0.31026168E+01</totfact>
</mgrwt>
</event>
<event>
 6    1  0.3125838E-002  0.3000000E+03  0.7818608E-02  0.1093470E+00
          1   -1    0    0  502    0  0.00000000000E+00  0.00000000000E+00  0.25868098574E+01  0.25868098574E+01  0.00000000000E+00 0.  1.
         13   -1    0    0    0    0 -0.00000000000E+00 -0.00000000000E+00 -0.10000000000E+04  0.10000000000E+04  0.00000000000E+00 0.  1.
    9000005    2    1    2  501    0 -0.23223712846E+02  0.19522231512E+02 -0.90072943036E+03  0.90125464435E+03  0.50959666344E+01 0.  0.
         13    1    3    3    0    0 -0.14462805580E+02  0.14156868165E+02 -0.64955261364E+03  0.64986782314E+03  0.00000000000E+00 0.  1.
          3    1    3    3  501    0 -0.87609072668E+01  0.53653633470E+01 -0.25117681672E+03  0.25138682121E+03  0.00000000000E+00 0.  1.
         21    1    1    2  502  501  0.23223712846E+02 -0.19522231512E+02 -0.96683759779E+02  0.10133216551E+03  0.00000000000E+00 0.  1.
<mgrwt>
<rscale>  1 0.30000000E+03</rscale>
<asrwt>0</asrwt>
<pdfrwt beam="1">  1        1 0.94066011E-02 0.30000000E+03</pdfrwt>
<pdfrwt beam="2">0</pdfrwt>
<totfact> 0.82244413E+02</totfact>
</mgrwt>
</event>
<event>
 6    1  0.3125838E-002  0.3000000E+03  0.7818608E-02  0.1093470E+00
          3   -1    0    0  502    0  0.00000000000E+00  0.00000000000E+00  0.10473170326E+01  0.10473170326E+01  0.00000000000E+00 0.  1.
         13   -1    0    0    0    0 -0.00000000000E+00 -0.00000000000E+00 -0.10000000000E+04  0.10000000000E+04  0.00000000000E+00 0.  1.
    9000005    2    1    2  501    0 -0.29836509287E+02 -0.81555755943E+01 -0.35856620174E+03  0.35991427621E+03  0.34401289870E+01 0.  0.
         13    1    3    3    0    0 -0.27287598642E+02 -0.78153518102E+01 -0.33754881134E+03  0.33874015528E+03  0.00000000000E+00 0.  1.
          3    1    3    3  501    0 -0.25489106452E+01 -0.34022378418E+00 -0.21017390399E+02  0.21174120924E+02  0.00000000000E+00 0.  1.
         21    1    1    2  502  501  0.29836509287E+02  0.81555755943E+01 -0.64038648123E+03  0.64113304083E+03  0.00000000000E+00 0.  1.
<mgrwt>
<rscale>  1 0.30000000E+03</rscale>
<asrwt>0</asrwt>
<pdfrwt beam="1">  1        3 0.38084336E-02 0.30000000E+03</pdfrwt>
<pdfrwt beam="2">0</pdfrwt>
<totfact> 0.15045679E+03</totfact>
</mgrwt>
</event>
<event>
 6    1  0.3125838E-002  0.3000000E+03  0.7818608E-02  0.1093470E+00
          1   -1    0    0  502    0  0.00000000000E+00  0.00000000000E+00  0.26516215866E+01  0.26516215866E+01  0.00000000000E+00 0.  1.
         13   -1    0    0    0    0 -0.00000000000E+00 -0.00000000000E+00 -0.10000000000E+04  0.10000000000E+04  0.00000000000E+00 0.  1.
    9000005    2    1    2  501    0 -0.16600543179E+02 -0.25698226110E+02 -0.90178710994E+03  0.90231253204E+03  0.34549907050E+01 0.  0.
         13    1    3    3    0    0 -0.16022200808E+02 -0.23577767337E+02 -0.85241083731E+03  0.85288736513E+03  0.00000000000E+00 0.  1.
          3    1    3    3  501    0 -0.57834237157E+00 -0.21204587737E+01 -0.49376272634E+02  0.49425166914E+02  0.00000000000E+00 0.  1.
         21    1    1    2  502  501  0.16600543179E+02  0.25698226110E+02 -0.95561268473E+02  0.10033908955E+03  0.00000000000E+00 0.  1.
<mgrwt>
<rscale>  1 0.30000000E+03</rscale>
<asrwt>0</asrwt>
<pdfrwt beam="1">  1        1 0.96422806E-02 0.30000000E+03</pdfrwt>
<pdfrwt beam="2">0</pdfrwt>
<totfact> 0.79475115E+02</totfact>
</mgrwt>
</event>
<event>
 6    1  0.3125838E-002  0.3000000E+03  0.7818608E-02  0.1093470E+00
          1   -1    0    0  502    0  0.00000000000E+00  0.00000000000E+00  0.14740443873E+01  0.14740443873E+01  0.00000000000E+00 0.  1.
         13   -1    0    0    0    0 -0.00000000000E+00 -0.00000000000E+00 -0.10000000000E+04  0.10000000000E+04  0.00000000000E+00 0.  1.
    9000005    2    1    2  501    0  0.74403988603E+01  0.37257297437E+02 -0.56585850019E+03  0.56714169155E+03  0.32233986050E+01 0.  0.
         13    1    3    3    0    0  0.72248456274E+00  0.10515983022E+02 -0.14915368137E+03  0.14952567856E+03  0.00000000000E+00 0.  1.
          3    1    3    3  501    0  0.67179142975E+01  0.26741314415E+02 -0.41670481882E+03  0.41761601298E+03  0.00000000000E+00 0.  1.
         21    1    1    2  502  501 -0.74403988603E+01 -0.37257297437E+02 -0.43266745542E+03  0.43433235284E+03  0.00000000000E+00 0.  1.
<mgrwt>
<rscale>  1 0.30000000E+03</rscale>
<asrwt>0</asrwt>
<pdfrwt beam="1">  1        1 0.53601727E-02 0.30000000E+03</pdfrwt>
<pdfrwt beam="2">0</pdfrwt>
<totfact> 0.18039537E+03</totfact>
</mgrwt>
</event>
<event>
 6    1  0.3125838E-002  0.3000000E+03  0.7818608E-02  0.1093470E+00
          3   -1    0    0  502    0  0.00000000000E+00  0.00000000000E+00  0.28607725730E+01  0.28607725730E+01  0.00000000000E+00 0.  1.
         13   -1    0    0    0    0 -0.00000000000E+00 -0.00000000000E+00 -0.10000000000E+04  0.10000000000E+04  0.00000000000E+00 0.  1.
    9000005    2    1    2  501    0 -0.50991108466E+02 -0.82605431764E+01 -0.62721183607E+03  0.62934423400E+03  0.33388379145E+01 0.  0.
         13    1    3    3    0    0 -0.34289654687E+02 -0.70708624840E+01 -0.41883172155E+03  0.42029250350E+03  0.00000000000E+00 0.  1.
          3    1    3    3  501    0 -0.16701453778E+02 -0.11896806924E+01 -0.20838011452E+03  0.20905173050E+03  0.00000000000E+00 0.  1.
         21    1    1    2  502  501  0.50991108466E+02  0.82605431764E+01 -0.36992739136E+03  0.37351653858E+03  0.00000000000E+00 0.  1.
<mgrwt>
<rscale>  1 0.30000000E+03</rscale>
<asrwt>0</asrwt>
<pdfrwt beam="1">  1        3 0.10402831E-01 0.30000000E+03</pdfrwt>
<pdfrwt beam="2">0</pdfrwt>
<totfact> 0.30937705E+02</totfact>
</mgrwt>
</event>
<event>
 6    1  0.3125838E-002  0.3000000E+03  0.7818608E-02  0.1093470E+00
          1   -1    0    0  502    0  0.00000000000E+00  0.00000000000E+00  0.19199928398E+01  0.19199928398E+01  0.00000000000E+00 0.  1.
         13   -1    0    0    0    0 -0.00000000000E+00 -0.00000000000E+00 -0.10000000000E+04  0.10000000000E+04  0.00000000000E+00 0.  1.
    9000005    2    1    2  501    0 -0.70368537219E+01 -0.37677546424E+02 -0.25908325586E+03  0.26192991639E+03  0.37460402088E+01 0.  0.
         13    1    3    3    0    0 -0.67832441650E+01 -0.28475998679E+02 -0.20166945080E+03  0.20378288027E+03  0.00000000000E+00 0.  1.
          3    1    3    3  501    0 -0.25360955694E+00 -0.92015477450E+01 -0.57413805056E+02  0.58147036122E+02  0.00000000000E+00 0.  1.
         21    1    1    2  502  501  0.70368537219E+01  0.37677546424E+02 -0.73899675130E+03  0.73999007645E+03  0.00000000000E+00 0.  1.
<mgrwt>
<rscale>  1 0.30000000E+03</rscale>
<asrwt>0</asrwt>
<pdfrwt beam="1">  1        1 0.69818069E-02 0.30000000E+03</pdfrwt>
<pdfrwt beam="2">0</pdfrwt>
<totfact> 0.12453350E+03</totfact>
</mgrwt>
</event>
<event>
 6    1  0.3125838E-002  0.3000000E+03  0.7818608E-02  0.1093470E+00
          3   -1    0    0  502    0  0.00000000000E+00  0.00000000000E+00  0.40884851013E+01  0.40884851013E+01  0.00000000000E+00 0.  1.
         13   -1    0    0    0    0 -0.00000000000E+00 -0.00000000000E+00 -0.10000000000E+04  0.10000000000E+04  0.00000000000E+00 0.  1.
    9000005    2    1    2  501    0 -0.41657624361E+02 -0.51010644707E+01 -0.87655796571E+03  0.87757110199E+03  0.39740742844E+01 0.  0.
         13    1    3    3    0    0 -0.98293985045E+01  0.26603973727E+00 -0.18785292255E+03  0.18811009638E+03  0.00000000000E+00 0.  1.
          3    1    3    3  501    0 -0.31828225857E+02 -0.53671042080E+01 -0.68870504317E+03  0.68946100561E+03  0.00000000000E+00 0.  1.
         21    1    1    2  502  501  0.41657624361E+02  0.51010644707E+01 -0.11935354918E+03  0.12651738311E+03  0.00000000000E+00 0.  1.
<mgrwt>
<rscale>  1 0.30000000E+03</rscale>
<asrwt>0</asrwt>
<pdfrwt beam="1">  1        3 0.14867250E-01 0.30000000E+03</pdfrwt>
<pdfrwt beam="2">0</pdfrwt>
<totfact> 0.16902472E+02</totfact>
</mgrwt>
</event>
<event>
 6    1  0.3125838E-002  0.3000000E+03  0.7818608E-02  0.1093470E+00
          3   -1    0    0  502    0  0.00000000000E+00  0.00000000000E+00  0.11524718067E+01  0.11524718067E+01  0.00000000000E+00 0.  1.
         13   -1    0    0    0    0 -0.00000000000E+00 -0.00000000000E+00 -0.10000000000E+04  0.10000000000E+04  0.00000000000E+00 0.  1.
    9000005    2    1    2  501    0 -0.16801542383E+02 -0.27496172272E+02 -0.65549929446E+03  0.65629548562E+03  0.24714545409E+01 0.  0.
         13    1    3    3    0    0 -0.10960425691E+02 -0.18717746722E+02 -0.46255655214E+03  0.46306484309E+03  0.00000000000E+00 0.  1.
          1    1    3    3  501    0 -0.58411166926E+01 -0.87784255499E+01 -0.19294274232E+03  0.19323064253E+03  0.00000000000E+00 0.  1.
         21    1    1    2  502  501  0.16801542383E+02  0.27496172272E+02 -0.34334823373E+03  0.34485698619E+03  0.00000000000E+00 0.  1.
<mgrwt>
<rscale>  1 0.30000000E+03</rscale>
<asrwt>0</asrwt>
<pdfrwt beam="1">  1        3 0.41908154E-02 0.30000000E+03</pdfrwt>
<pdfrwt beam="2">0</pdfrwt>
<totfact> 0.12988740E+03</totfact>
</mgrwt>
</event>
<event>
 6    1  0.3125838E-002  0.3000000E+03  0.7818608E-02  0.1093470E+00
          1   -1    0    0  502    0  0.00000000000E+00  0.00000000000E+00  0.28221581664E+01  0.28221581664E+01  0.00000000000E+00 0.  1.
         13   -1    0    0    0    0 -0.00000000000E+00 -0.00000000000E+00 -0.10000000000E+04  0.10000000000E+04  0.00000000000E+00 0.  1.
    9000005    2    1    2  501    0  0.42489438146E+02 -0.25570488045E+02 -0.67405037821E+03  0.67591152824E+03  0.72992757250E+01 0.  0.
         13    1    3    3    0    0  0.12734672511E+02 -0.39139290363E+01 -0.17774119973E+03  0.17823979580E+03  0.00000000000E+00 0.  1.
          1    1    3    3  501    0  0.29754765635E+02 -0.21656559009E+02 -0.49630917848E+03  0.49767173244E+03  0.00000000000E+00 0.  1.
         21    1    1    2  502  501 -0.42489438146E+02  0.25570488045E+02 -0.32312746362E+03  0.32691062992E+03  0.00000000000E+00 0.  1.
<mgrwt>
<rscale>  1 0.30000000E+03</rscale>
<asrwt>0</asrwt>
<pdfrwt beam="1">  1        1 0.10262415E-01 0.30000000E+03</pdfrwt>
<pdfrwt beam="2">0</pdfrwt>
<totfact> 0.72920887E+02</totfact>
</mgrwt>
</event>
<event>
 6    1  0.3125838E-002  0.3000000E+03  0.7818608E-02  0.1093470E+00
          1   -1    0    0  502    0  0.00000000000E+00  0.00000000000E+00  0.64867534056E+01  0.64867534056E+01  0.00000000000E+00 0.  1.
         13   -1    0    0    0    0 -0.00000000000E+00 -0.00000000000E+00 -0.10000000000E+04  0.10000000000E+04  0.00000000000E+00 0.  1.
    9000005    2    1    2  501    0 -0.69052397837E+02 -0.12532274054E+02 -0.74341062615E+03  0.74672414583E+03  0.35070438603E+01 0.  0.
         13    1    3    3    0    0 -0.51247660738E+02 -0.10578346360E+02 -0.56292939035E+03  0.56535627941E+03  0.00000000000E+00 0.  1.
          1    1    3    3  501    0 -0.17804737099E+02 -0.19539276944E+01 -0.18048123580E+03  0.18136786643E+03  0.00000000000E+00 0.  1.
         21    1    1    2  502  501  0.69052397837E+02  0.12532274054E+02 -0.25010262044E+03  0.25976260757E+03  0.00000000000E+00 0.  1.
<mgrwt>
<rscale>  1 0.30000000E+03</rscale>
<asrwt>0</asrwt>
<pdfrwt beam="1">  1        1 0.23588244E-01 0.30000000E+03</pdfrwt>
<pdfrwt beam="2">0</pdfrwt>
<totfact> 0.23642469E+02</totfact>
</mgrwt>
</event>
<event>
 6    1  0.3125838E-002  0.3000000E+03  0.7818608E-02  0.1093470E+00
          1   -1    0    0  502    0  0.00000000000E+00  0.00000000000E+00  0.19623914591E+01  0.19623914591E+01  0.00000000000E+00 0.  1.
         13   -1    0    0    0    0 -0.00000000000E+00 -0.00000000000E+00 -0.10000000000E+04  0.10000000000E+04  0.00000000000E+00 0.  1.
    9000005    2    1    2  501    0 -0.65986778441E+01  0.39816931482E+02 -0.70438975596E+03  0.70555390321E+03  0.35286610379E+01 0.  0.
         13    1    3    3    0    0 -0.14064642927E+01  0.59439934939E+01 -0.12908153841E+03  0.12922597556E+03  0.00000000000E+00 0.  1.
          1    1    3    3  501    0 -0.51922135514E+01  0.33872937988E+02 -0.57530821755E+03  0.57632792765E+03  0.00000000000E+00 0.  1.
         21    1    1    2  502  501  0.65986778441E+01 -0.39816931482E+02 -0.29364785258E+03  0.29640848825E+03  0.00000000000E+00 0.  1.
<mgrwt>
<rscale>  1 0.30000000E+03</rscale>
<asrwt>0</asrwt>
<pdfrwt beam="1">  1        1 0.71359840E-02 0.30000000E+03</pdfrwt>
<pdfrwt beam="2">0</pdfrwt>
<totfact> 0.12078817E+03</totfact>
</mgrwt>
</event>
<event>
 6    1  0.3125838E-002  0.3000000E+03  0.7818608E-02  0.1093470E+00
          1   -1    0    0  502    0  0.00000000000E+00  0.00000000000E+00  0.19081902907E+01  0.19081902907E+01  0.00000000000E+00 0.  1.
         13   -1    0    0    0    0 -0.00000000000E+00 -0.00000000000E+00 -0.10000000000E+04  0.10000000000E+04  0.00000000000E+00 0.  1.
    9000005    2    1    2  501    0 -0.25822987426E+02  0.34256863134E+02 -0.59000178559E+03  0.59156951658E+03  0.34679394417E+01 0.  0.
         13    1    3    3    0    0 -0.11136679499E+02  0.15904842668E+02 -0.24525020083E+03  0.24601758201E+03  0.00000000000E+00 0.  1.
          1    1    3    3  501    0 -0.14686307927E+02  0.18352020466E+02 -0.34475158476E+03  0.34555193458E+03  0.00000000000E+00 0.  1.
         21    1    1    2  502  501  0.25822987426E+02 -0.34256863134E+02 -0.40809002412E+03  0.41033867371E+03  0.00000000000E+00 0.  1.
<mgrwt>
<rscale>  1 0.30000000E+03</rscale>
<asrwt>0</asrwt>
<pdfrwt beam="1">  1        1 0.69388884E-02 0.30000000E+03</pdfrwt>
<pdfrwt beam="2">0</pdfrwt>
<totfact> 0.12561205E+03</totfact>
</mgrwt>
</event>
<event>
 6    1  0.3125838E-002  0.3000000E+03  0.7818608E-02  0.1093470E+00
          1   -1    0    0  502    0  0.00000000000E+00  0.00000000000E+00  0.13863303576E+01  0.13863303576E+01  0.00000000000E+00 0.  1.
         13   -1    0    0    0    0 -0.00000000000E+00 -0.00000000000E+00 -0.10000000000E+04  0.10000000000E+04  0.00000000000E+00 0.  1.
    9000005    2    1    2  501    0 -0.26593880211E+02 -0.17187364293E+02 -0.26001381769E+03  0.26210804631E+03  0.95290396288E+01 0.  0.
         13    1    3    3    0    0 -0.23641329930E+02 -0.10723806480E+02 -0.20312966263E+03  0.20478176761E+03  0.00000000000E+00 0.  1.
          1    1    3    3  501    0 -0.29525502807E+01 -0.64635578126E+01 -0.56884155058E+02  0.57326278699E+02  0.00000000000E+00 0.  1.
         21    1    1    2  502  501  0.26593880211E+02  0.17187364293E+02 -0.73859985195E+03  0.73927828405E+03  0.00000000000E+00 0.  1.
<mgrwt>
<rscale>  1 0.30000000E+03</rscale>
<asrwt>0</asrwt>
<pdfrwt beam="1">  1        1 0.50412119E-02 0.30000000E+03</pdfrwt>
<pdfrwt beam="2">0</pdfrwt>
<totfact> 0.19663429E+03</totfact>
</mgrwt>
</event>
<event>
 6    1  0.3125838E-002  0.3000000E+03  0.7818608E-02  0.1093470E+00
          1   -1    0    0  502    0  0.00000000000E+00  0.00000000000E+00  0.41569192090E+01  0.41569192090E+01  0.00000000000E+00 0.  1.
         13   -1    0    0    0    0 -0.00000000000E+00 -0.00000000000E+00 -0.10000000000E+04  0.10000000000E+04  0.00000000000E+00 0.  1.
    9000005    2    1    2  501    0 -0.53114411559E+02  0.31713499137E+02 -0.63530934629E+03  0.63835443089E+03  0.71782462029E+01 0.  0.
         13    1    3    3    0    0 -0.29779796989E+02  0.21141511236E+02 -0.39404730547E+03  0.39573612263E+03  0.00000000000E+00 0.  1.
          1    1    3    3  501    0 -0.23334614569E+02  0.10571987901E+02 -0.24126204082E+03  0.24261830827E+03  0.00000000000E+00 0.  1.
         21    1    1    2  502  501  0.53114411559E+02 -0.31713499137E+02 -0.36053373450E+03  0.36580248832E+03  0.00000000000E+00 0.  1.
<mgrwt>
<rscale>  1 0.30000000E+03</rscale>
<asrwt>0</asrwt>
<pdfrwt beam="1">  1        1 0.15116102E-01 0.30000000E+03</pdfrwt>
<pdfrwt beam="2">0</pdfrwt>
<totfact> 0.42928868E+02</totfact>
</mgrwt>
</event>
<event>
 6    1  0.3125838E-002  0.3000000E+03  0.7818608E-02  0.1093470E+00
          3   -1    0    0  502    0  0.00000000000E+00  0.00000000000E+00  0.10617054659E+01  0.10617054659E+01  0.00000000000E+00 0.  1.
         13   -1    0    0    0    0 -0.00000000000E+00 -0.00000000000E+00 -0.10000000000E+04  0.10000000000E+04  0.00000000000E+00 0.  1.
    9000005    2    1    2  501    0  0.18812608842E+02 -0.24004050864E+02 -0.67320687762E+03  0.67390568049E+03  0.33552079536E+01 0.  0.
         13    1    3    3    0    0  0.63671298939E+01 -0.10495074183E+02 -0.28633366566E+03  0.28659667656E+03  0.00000000000E+00 0.  1.
          3    1    3    3  501    0  0.12445478948E+02 -0.13508976682E+02 -0.38687321196E+03  0.38730900393E+03  0.00000000000E+00 0.  1.
         21    1    1    2  502  501 -0.18812608842E+02  0.24004050864E+02 -0.32573141692E+03  0.32715602497E+03  0.00000000000E+00 0.  1.
<mgrwt>
<rscale>  1 0.30000000E+03</rscale>
<asrwt>0</asrwt>
<pdfrwt beam="1">  1        3 0.38607553E-02 0.30000000E+03</pdfrwt>
<pdfrwt beam="2">0</pdfrwt>
<totfact> 0.14733316E+03</totfact>
</mgrwt>
</event>
<event>
 6    1  0.3125838E-002  0.3000000E+03  0.7818608E-02  0.1093470E+00
          1   -1    0    0  502    0  0.00000000000E+00  0.00000000000E+00  0.60147838350E+01  0.60147838350E+01  0.00000000000E+00 0.  1.
         13   -1    0    0    0    0 -0.00000000000E+00 -0.00000000000E+00 -0.10000000000E+04  0.10000000000E+04  0.00000000000E+00 0.  1.
    9000005    2    1    2  501    0 -0.34747312254E+02  0.29537653071E+02 -0.90371995515E+03  0.90488286007E+03  0.48357479068E+01 0.  0.
         13    1    3    3    0    0 -0.91873680134E+01  0.56600535316E+01 -0.23839841817E+03  0.23864251450E+03  0.00000000000E+00 0.  1.
          3    1    3    3  501    0 -0.25559944241E+02  0.23877599539E+02 -0.66532153698E+03  0.66624034558E+03  0.00000000000E+00 0.  1.
         21    1    1    2  502  501  0.34747312254E+02 -0.29537653071E+02 -0.90265261012E+02  0.10113192376E+03  0.00000000000E+00 0.  1.
<mgrwt>
<rscale>  1 0.30000000E+03</rscale>
<asrwt>0</asrwt>
<pdfrwt beam="1">  1        1 0.21871987E-01 0.30000000E+03</pdfrwt>
<pdfrwt beam="2">0</pdfrwt>
<totfact> 0.26132315E+02</totfact>
</mgrwt>
</event>
<event>
 6    1  0.3125838E-002  0.3000000E+03  0.7818608E-02  0.1093470E+00
          1   -1    0    0  502    0  0.00000000000E+00  0.00000000000E+00  0.36743679372E+01  0.36743679372E+01  0.00000000000E+00 0.  1.
         13   -1    0    0    0    0 -0.00000000000E+00 -0.00000000000E+00 -0.10000000000E+04  0.10000000000E+04  0.00000000000E+00 0.  1.
    9000005    2    1    2  501    0 -0.35995140283E+02 -0.39154493441E+02 -0.26342397868E+03  0.26884543682E+03  0.75466464656E+01 0.  0.
         13    1    3    3    0    0 -0.60749635966E+01 -0.42007300817E+01 -0.27363242810E+02  0.28342518819E+02  0.00000000000E+00 0.  1.
          3    1    3    3  501    0 -0.29920176687E+02 -0.34953763359E+02 -0.23606073587E+03  0.24050291800E+03  0.00000000000E+00 0.  1.
         21    1    1    2  502  501  0.35995140283E+02  0.39154493441E+02 -0.73290165338E+03  0.73482893112E+03  0.00000000000E+00 0.  1.
<mgrwt>
<rscale>  1 0.30000000E+03</rscale>
<asrwt>0</asrwt>
<pdfrwt beam="1">  1        1 0.13361366E-01 0.30000000E+03</pdfrwt>
<pdfrwt beam="2">0</pdfrwt>
<totfact> 0.50776880E+02</totfact>
</mgrwt>
</event>
<event>
 6    1  0.3125838E-002  0.3000000E+03  0.7818608E-02  0.1093470E+00
          1   -1    0    0  502    0  0.00000000000E+00  0.00000000000E+00  0.17872806464E+01  0.17872806464E+01  0.00000000000E+00 0.  1.
         13   -1    0    0    0    0 -0.00000000000E+00 -0.00000000000E+00 -0.10000000000E+04  0.10000000000E+04  0.00000000000E+00 0.  1.
    9000005    2    1    2  501    0 -0.53830515241E+01  0.41390967292E+02 -0.47194446514E+03  0.47386639187E+03  0.86942364431E+01 0.  0.
         13    1    3    3    0    0 -0.55192891435E+01  0.19247792551E+02 -0.25934568939E+03  0.26011752474E+03  0.00000000000E+00 0.  1.
          1    1    3    3  501    0  0.13623761947E+00  0.22143174741E+02 -0.21259877575E+03  0.21374886713E+03  0.00000000000E+00 0.  1.
         21    1    1    2  502  501  0.53830515241E+01 -0.41390967292E+02 -0.52626825421E+03  0.52792088878E+03  0.00000000000E+00 0.  1.
<mgrwt>
<rscale>  1 0.30000000E+03</rscale>
<asrwt>0</asrwt>
<pdfrwt beam="1">  1        1 0.64992161E-02 0.30000000E+03</pdfrwt>
<pdfrwt beam="2">0</pdfrwt>
<totfact> 0.13766447E+03</totfact>
</mgrwt>
</event>
<event>
 6    1  0.3125838E-002  0.3000000E+03  0.7818608E-02  0.1093470E+00
          3   -1    0    0  502    0  0.00000000000E+00  0.00000000000E+00  0.19608062749E+01  0.19608062749E+01  0.00000000000E+00 0.  1.
         13   -1    0    0    0    0 -0.00000000000E+00 -0.00000000000E+00 -0.10000000000E+04  0.10000000000E+04  0.00000000000E+00 0.  1.
    9000005    2    1    2  501    0 -0.41975735251E+02  0.13915843020E+02 -0.49470503412E+03  0.49668772243E+03  0.31638249184E+01 0.  0.
         13    1    3    3    0    0 -0.26636491902E+01  0.17303492077E+01 -0.34348298431E+02  0.34494850928E+02  0.00000000000E+00 0.  1.
          1    1    3    3  501    0 -0.39312086061E+02  0.12185493812E+02 -0.46035673569E+03  0.46219287150E+03  0.00000000000E+00 0.  1.
         21    1    1    2  502  501  0.41975735251E+02 -0.13915843020E+02 -0.50333415961E+03  0.50527308385E+03  0.00000000000E+00 0.  1.
<mgrwt>
<rscale>  1 0.30000000E+03</rscale>
<asrwt>0</asrwt>
<pdfrwt beam="1">  1        3 0.71302197E-02 0.30000000E+03</pdfrwt>
<pdfrwt beam="2">0</pdfrwt>
<totfact> 0.56896458E+02</totfact>
</mgrwt>
</event>
<event>
 6    1  0.3125838E-002  0.3000000E+03  0.7818608E-02  0.1093470E+00
          1   -1    0    0  502    0  0.00000000000E+00  0.00000000000E+00  0.28765403733E+01  0.28765403733E+01  0.00000000000E+00 0.  1.
         13   -1    0    0    0    0 -0.00000000000E+00 -0.00000000000E+00 -0.10000000000E+04  0.10000000000E+04  0.00000000000E+00 0.  1.
    9000005    2    1    2  501    0 -0.36849632927E+02 -0.92834223764E+01 -0.85218370572E+03  0.85303792840E+03  0.35442351410E+01 0.  0.
         13    1    3    3    0    0 -0.26108241210E+02 -0.53507563546E+01 -0.57085293982E+03  0.57147471489E+03  0.00000000000E+00 0.  1.
          3    1    3    3  501    0 -0.10741391717E+02 -0.39326660218E+01 -0.28133076590E+03  0.28156321351E+03  0.00000000000E+00 0.  1.
         21    1    1    2  502  501  0.36849632927E+02  0.92834223764E+01 -0.14493975390E+03  0.14983861198E+03  0.00000000000E+00 0.  1.
<mgrwt>
<rscale>  1 0.30000000E+03</rscale>
<asrwt>0</asrwt>
<pdfrwt beam="1">  1        1 0.10460169E-01 0.30000000E+03</pdfrwt>
<pdfrwt beam="2">0</pdfrwt>
<totfact> 0.71028124E+02</totfact>
</mgrwt>
</event>
<event>
 6    1  0.3125838E-002  0.3000000E+03  0.7818608E-02  0.1093470E+00
          3   -1    0    0  502    0  0.00000000000E+00  0.00000000000E+00  0.70480779303E+01  0.70480779303E+01  0.00000000000E+00 0.  1.
         13   -1    0    0    0    0 -0.00000000000E+00 -0.00000000000E+00 -0.10000000000E+04  0.10000000000E+04  0.00000000000E+00 0.  1.
    9000005    2    1    2  501    0 -0.31301448466E+02 -0.24155829648E+02 -0.94063853481E+03  0.94147388126E+03  0.29885026526E+01 0.  0.
         13    1    3    3    0    0 -0.27751996268E+02 -0.21603877880E+02 -0.81254890575E+03  0.81330967354E+03  0.00000000000E+00 0.  1.
          1    1    3    3  501    0 -0.35494521978E+01 -0.25519517676E+01 -0.12808962906E+03  0.12816420773E+03  0.00000000000E+00 0.  1.
         21    1    1    2  502  501  0.31301448466E+02  0.24155829648E+02 -0.52313387260E+02  0.65574196668E+02  0.00000000000E+00 0.  1.
<mgrwt>
<rscale>  1 0.30000000E+03</rscale>
<asrwt>0</asrwt>
<pdfrwt beam="1">  1        3 0.25629428E-01 0.30000000E+03</pdfrwt>
<pdfrwt beam="2">0</pdfrwt>
<totfact> 0.62986979E+01</totfact>
</mgrwt>
</event>
<event>
 6    1  0.3125838E-002  0.3000000E+03  0.7818608E-02  0.1093470E+00
          3   -1    0    0  502    0  0.00000000000E+00  0.00000000000E+00  0.37104641334E+01  0.37104641334E+01  0.00000000000E+00 0.  1.
         13   -1    0    0    0    0 -0.00000000000E+00 -0.00000000000E+00 -0.10000000000E+04  0.10000000000E+04  0.00000000000E+00 0.  1.
    9000005    2    1    2  501    0 -0.22008644608E+02  0.21024779732E+02 -0.93279758371E+03  0.93329988404E+03  0.33044782513E+01 0.  0.
         13    1    3    3    0    0 -0.65545434412E+01  0.84176480896E+01 -0.31858966093E+03  0.31876824009E+03  0.00000000000E+00 0.  1.
          3    1    3    3  501    0 -0.15454101166E+02  0.12607131643E+02 -0.61420792278E+03  0.61453164395E+03  0.00000000000E+00 0.  1.
         21    1    1    2  502  501  0.22008644608E+02 -0.21024779732E+02 -0.63491952159E+02  0.70410580095E+02  0.00000000000E+00 0.  1.
<mgrwt>
<rscale>  1 0.30000000E+03</rscale>
<asrwt>0</asrwt>
<pdfrwt beam="1">  1        3 0.13492625E-01 0.30000000E+03</pdfrwt>
<pdfrwt beam="2">0</pdfrwt>
<totfact> 0.19968815E+02</totfact>
</mgrwt>
</event>
<event>
 6    1  0.3125838E-002  0.3000000E+03  0.7818608E-02  0.1093470E+00
          1   -1    0    0  502    0  0.00000000000E+00  0.00000000000E+00  0.20680467367E+01  0.20680467367E+01  0.00000000000E+00 0.  1.
         13   -1    0    0    0    0 -0.00000000000E+00 -0.00000000000E+00 -0.10000000000E+04  0.10000000000E+04  0.00000000000E+00 0.  1.
    9000005    2    1    2  501    0  0.41236383281E+02 -0.80967297988E+01 -0.68913016484E+03  0.69041994250E+03  0.36491879873E+01 0.  0.
         13    1    3    3    0    0  0.32536809545E+02 -0.77286018647E+01 -0.55741916340E+03  0.55842143493E+03  0.00000000000E+00 0.  1.
          1    1    3    3  501    0  0.86995737356E+01 -0.36812793407E+00 -0.13171100144E+03  0.13199850757E+03  0.00000000000E+00 0.  1.
         21    1    1    2  502  501 -0.41236383281E+02  0.80967297988E+01 -0.30880178843E+03  0.31164810424E+03  0.00000000000E+00 0.  1.
<mgrwt>
<rscale>  1 0.30000000E+03</rscale>
<asrwt>0</asrwt>
<pdfrwt beam="1">  1        1 0.75201858E-02 0.30000000E+03</pdfrwt>
<pdfrwt beam="2">0</pdfrwt>
<totfact> 0.11225729E+03</totfact>
</mgrwt>
</event>
<event>
 6    1  0.3125838E-002  0.3000000E+03  0.7818608E-02  0.1093470E+00
          3   -1    0    0  502    0  0.00000000000E+00  0.00000000000E+00  0.15937146980E+01  0.15937146980E+01  0.00000000000E+00 0.  1.
         13   -1    0    0    0    0 -0.00000000000E+00 -0.00000000000E+00 -0.10000000000E+04  0.10000000000E+04  0.00000000000E+00 0.  1.
    9000005    2    1    2  501    0 -0.81590195325E+01 -0.31781699844E+02 -0.78095882170E+03  0.78168453919E+03  0.75757228246E+01 0.  0.
         13    1    3    3    0    0 -0.63097983751E+01 -0.16099945394E+02 -0.48052764977E+03  0.48083868812E+03  0.00000000000E+00 0.  1.
          1    1    3    3  501    0 -0.18492211574E+01 -0.15681754450E+02 -0.30043117193E+03  0.30084585107E+03  0.00000000000E+00 0.  1.
         21    1    1    2  502  501  0.81590195325E+01  0.31781699844E+02 -0.21744746361E+03  0.21990917551E+03  0.00000000000E+00 0.  1.
<mgrwt>
<rscale>  1 0.30000000E+03</rscale>
<asrwt>0</asrwt>
<pdfrwt beam="1">  1        3 0.57953384E-02 0.30000000E+03</pdfrwt>
<pdfrwt beam="2">0</pdfrwt>
<totfact> 0.78716009E+02</totfact>
</mgrwt>
</event>
<event>
 6    1  0.3125838E-002  0.3000000E+03  0.7818608E-02  0.1093470E+00
          1   -1    0    0  502    0  0.00000000000E+00  0.00000000000E+00  0.56170692752E+01  0.56170692752E+01  0.00000000000E+00 0.  1.
         13   -1    0    0    0    0 -0.00000000000E+00 -0.00000000000E+00 -0.10000000000E+04  0.10000000000E+04  0.00000000000E+00 0.  1.
    9000005    2    1    2  501    0  0.44802286939E+02 -0.22542697416E+02 -0.87072951946E+03  0.87217950245E+03  0.34307899174E+01 0.  0.
         13    1    3    3    0    0  0.41665617025E+02 -0.21210015231E+02 -0.82451131990E+03  0.82583582208E+03  0.00000000000E+00 0.  1.
          3    1    3    3  501    0  0.31366699145E+01 -0.13326821856E+01 -0.46218199563E+02  0.46343680376E+02  0.00000000000E+00 0.  1.
         21    1    1    2  502  501 -0.44802286939E+02  0.22542697416E+02 -0.12365341126E+03  0.13343756682E+03  0.00000000000E+00 0.  1.
<mgrwt>
<rscale>  1 0.30000000E+03</rscale>
<asrwt>0</asrwt>
<pdfrwt beam="1">  1        1 0.20425750E-01 0.30000000E+03</pdfrwt>
<pdfrwt beam="2">0</pdfrwt>
<totfact> 0.28624420E+02</totfact>
</mgrwt>
</event>
<event>
 6    1  0.3125838E-002  0.3000000E+03  0.7818608E-02  0.1093470E+00
          1   -1    0    0  502    0  0.00000000000E+00  0.00000000000E+00  0.12406773057E+01  0.12406773057E+01  0.00000000000E+00 0.  1.
         13   -1    0    0    0    0 -0.00000000000E+00 -0.00000000000E+00 -0.10000000000E+04  0.10000000000E+04  0.00000000000E+00 0.  1.
    9000005    2    1    2  501    0 -0.83045404133E+01 -0.34012599577E+02 -0.49026728350E+03  0.49154471279E+03  0.53266385412E+01 0.  0.
         13    1    3    3    0    0 -0.24069946770E+01 -0.40983631558E+01 -0.84451950169E+02  0.84585590329E+02  0.00000000000E+00 0.  1.
          1    1    3    3  501    0 -0.58975457363E+01 -0.29914236421E+02 -0.40581533334E+03  0.40695912246E+03  0.00000000000E+00 0.  1.
         21    1    1    2  502  501  0.83045404133E+01  0.34012599577E+02 -0.50849203919E+03  0.50969596451E+03  0.00000000000E+00 0.  1.
<mgrwt>
<rscale>  1 0.30000000E+03</rscale>
<asrwt>0</asrwt>
<pdfrwt beam="1">  1        1 0.45115634E-02 0.30000000E+03</pdfrwt>
<pdfrwt beam="2">0</pdfrwt>
<totfact> 0.22985669E+03</totfact>
</mgrwt>
</event>
<event>
 6    1  0.3125838E-002  0.3000000E+03  0.7818608E-02  0.1093470E+00
          1   -1    0    0  502    0  0.00000000000E+00  0.00000000000E+00  0.10412600788E+01  0.10412600788E+01  0.00000000000E+00 0.  1.
         13   -1    0    0    0    0 -0.00000000000E+00 -0.00000000000E+00 -0.10000000000E+04  0.10000000000E+04  0.00000000000E+00 0.  1.
    9000005    2    1    2  501    0 -0.24214032555E+01  0.31994802000E+02 -0.48915557286E+03  0.49022935762E+03  0.47029844939E+01 0.  0.
         13    1    3    3    0    0 -0.23957822865E+01  0.99182669047E+01 -0.13359907198E+03  0.13398814807E+03  0.00000000000E+00 0.  1.
          3    1    3    3  501    0 -0.25620968952E-01  0.22076535095E+02 -0.35555650089E+03  0.35624120955E+03  0.00000000000E+00 0.  1.
         21    1    1    2  502  501  0.24214032555E+01 -0.31994802000E+02 -0.50980316706E+03  0.51081190246E+03  0.00000000000E+00 0.  1.
<mgrwt>
<rscale>  1 0.30000000E+03</rscale>
<asrwt>0</asrwt>
<pdfrwt beam="1">  1        1 0.37864083E-02 0.30000000E+03</pdfrwt>
<pdfrwt beam="2">0</pdfrwt>
<totfact> 0.29416497E+03</totfact>
</mgrwt>
</event>
<event>
 6    1  0.3125838E-002  0.3000000E+03  0.7818608E-02  0.1093470E+00
          3   -1    0    0  502    0  0.00000000000E+00  0.00000000000E+00  0.61415250942E+01  0.61415250942E+01  0.00000000000E+00 0.  1.
         13   -1    0    0    0    0 -0.00000000000E+00 -0.00000000000E+00 -0.10000000000E+04  0.10000000000E+04  0.00000000000E+00 0.  1.
    9000005    2    1    2  501    0 -0.28532242466E+02 -0.54875038640E+02 -0.80572595391E+03  0.80810313441E+03  0.33172766024E+01 0.  0.
         13    1    3    3    0    0 -0.14913153653E+02 -0.30343339652E+02 -0.42114437698E+03  0.42249935701E+03  0.00000000000E+00 0.  1.
          3    1    3    3  501    0 -0.13619088814E+02 -0.24531698988E+02 -0.38458157693E+03  0.38560377740E+03  0.00000000000E+00 0.  1.
         21    1    1    2  502  501  0.28532242466E+02  0.54875038640E+02 -0.18813252100E+03  0.19803839068E+03  0.00000000000E+00 0.  1.
<mgrwt>
<rscale>  1 0.30000000E+03</rscale>
<asrwt>0</asrwt>
<pdfrwt beam="1">  1        3 0.22332866E-01 0.30000000E+03</pdfrwt>
<pdfrwt beam="2">0</pdfrwt>
<totfact> 0.81570691E+01</totfact>
</mgrwt>
</event>
<event>
 6    1  0.3125838E-002  0.3000000E+03  0.7818608E-02  0.1093470E+00
          3   -1    0    0  502    0  0.00000000000E+00  0.00000000000E+00  0.14046610787E+01  0.14046610787E+01  0.00000000000E+00 0.  1.
         13   -1    0    0    0    0 -0.00000000000E+00 -0.00000000000E+00 -0.10000000000E+04  0.10000000000E+04  0.00000000000E+00 0.  1.
    9000005    2    1    2  501    0  0.23629675858E+02 -0.25176851898E+02 -0.69174132318E+03  0.69261408087E+03  0.39964188688E+01 0.  0.
         13    1    3    3    0    0  0.59708987198E+01 -0.89299633728E+01 -0.22528441383E+03  0.22554037996E+03  0.00000000000E+00 0.  1.
          3    1    3    3  501    0  0.17658777138E+02 -0.16246888525E+02 -0.46645690935E+03  0.46707370091E+03  0.00000000000E+00 0.  1.
         21    1    1    2  502  501 -0.23629675858E+02  0.25176851898E+02 -0.30685401574E+03  0.30879058021E+03  0.00000000000E+00 0.  1.
<mgrwt>
<rscale>  1 0.30000000E+03</rscale>
<asrwt>0</asrwt>
<pdfrwt beam="1">  1        3 0.51078692E-02 0.30000000E+03</pdfrwt>
<pdfrwt beam="2">0</pdfrwt>
<totfact> 0.95731727E+02</totfact>
</mgrwt>
</event>
<event>
 6    1  0.3125838E-002  0.3000000E+03  0.7818608E-02  0.1093470E+00
          1   -1    0    0  502    0  0.00000000000E+00  0.00000000000E+00  0.10866619893E+01  0.10866619893E+01  0.00000000000E+00 0.  1.
         13   -1    0    0    0    0 -0.00000000000E+00 -0.00000000000E+00 -0.10000000000E+04  0.10000000000E+04  0.00000000000E+00 0.  1.
    9000005    2    1    2  501    0  0.13071621854E+02 -0.29794714870E+02 -0.57271181928E+03  0.57364505557E+03  0.33510449085E+01 0.  0.
         13    1    3    3    0    0  0.64077478391E+01 -0.10626982874E+02 -0.21215103693E+03  0.21251365713E+03  0.00000000000E+00 0.  1.
          3    1    3    3  501    0  0.66638740145E+01 -0.19167731996E+02 -0.36056078236E+03  0.36113139844E+03  0.00000000000E+00 0.  1.
         21    1    1    2  502  501 -0.13071621854E+02  0.29794714870E+02 -0.42620151873E+03  0.42744160642E+03  0.00000000000E+00 0.  1.
<mgrwt>
<rscale>  1 0.30000000E+03</rscale>
<asrwt>0</asrwt>
<pdfrwt beam="1">  1        1 0.39515065E-02 0.30000000E+03</pdfrwt>
<pdfrwt beam="2">0</pdfrwt>
<totfact> 0.27701179E+03</totfact>
</mgrwt>
</event>
<event>
 6    1  0.3125838E-002  0.3000000E+03  0.7818608E-02  0.1093470E+00
          3   -1    0    0  502    0  0.00000000000E+00  0.00000000000E+00  0.12585742512E+01  0.12585742512E+01  0.00000000000E+00 0.  1.
         13   -1    0    0    0    0 -0.00000000000E+00 -0.00000000000E+00 -0.10000000000E+04  0.10000000000E+04  0.00000000000E+00 0.  1.
    9000005    2    1    2  501    0  0.13488584996E+02  0.29844379397E+02 -0.68934484063E+03  0.69013339721E+03  0.38945772904E+01 0.  0.
         13    1    3    3    0    0  0.12334282316E+02  0.27010915627E+02 -0.59717579346E+03  0.59791358270E+03  0.00000000000E+00 0.  1.
          3    1    3    3  501    0  0.11543026796E+01  0.28334637708E+01 -0.92169047170E+02  0.92219814508E+02  0.00000000000E+00 0.  1.
         21    1    1    2  502  501 -0.13488584996E+02 -0.29844379397E+02 -0.30939658512E+03  0.31112517704E+03  0.00000000000E+00 0.  1.
<mgrwt>
<rscale>  1 0.30000000E+03</rscale>
<asrwt>0</asrwt>
<pdfrwt beam="1">  1        3 0.45766433E-02 0.30000000E+03</pdfrwt>
<pdfrwt beam="2">0</pdfrwt>
<totfact> 0.11341419E+03</totfact>
</mgrwt>
</event>
<event>
 6    1  0.3125838E-002  0.3000000E+03  0.7818608E-02  0.1093470E+00
          3   -1    0    0  502    0  0.00000000000E+00  0.00000000000E+00  0.36593732127E+01  0.36593732127E+01  0.00000000000E+00 0.  1.
         13   -1    0    0    0    0 -0.00000000000E+00 -0.00000000000E+00 -0.10000000000E+04  0.10000000000E+04  0.00000000000E+00 0.  1.
    9000005    2    1    2  501    0 -0.37956880325E+01  0.58822523043E+02 -0.60928521038E+03  0.61214131254E+03  0.37446578304E+01 0.  0.
         13    1    3    3    0    0  0.54508660854E+00  0.18469856465E+02 -0.19155194381E+03  0.19244110760E+03  0.00000000000E+00 0.  1.
          1    1    3    3  501    0 -0.43407746410E+01  0.40352666578E+02 -0.41773326658E+03  0.41970020494E+03  0.00000000000E+00 0.  1.
         21    1    1    2  502  501  0.37956880325E+01 -0.58822523043E+02 -0.38705541640E+03  0.39151806067E+03  0.00000000000E+00 0.  1.
<mgrwt>
<rscale>  1 0.30000000E+03</rscale>
<asrwt>0</asrwt>
<pdfrwt beam="1">  1        3 0.13306840E-01 0.30000000E+03</pdfrwt>
<pdfrwt beam="2">0</pdfrwt>
<totfact> 0.20446739E+02</totfact>
</mgrwt>
</event>
<event>
 6    1  0.3125838E-002  0.3000000E+03  0.7818608E-02  0.1093470E+00
          3   -1    0    0  502    0  0.00000000000E+00  0.00000000000E+00  0.10731625626E+01  0.10731625626E+01  0.00000000000E+00 0.  1.
         13   -1    0    0    0    0 -0.00000000000E+00 -0.00000000000E+00 -0.10000000000E+04  0.10000000000E+04  0.00000000000E+00 0.  1.
    9000005    2    1    2  501    0 -0.20930926094E+02  0.22430851775E+02 -0.67272095042E+03  0.67342773302E+03  0.31918147655E+01 0.  0.
         13    1    3    3    0    0 -0.50414281678E+01  0.48098202302E+01 -0.12661574693E+03  0.12680732525E+03  0.00000000000E+00 0.  1.
          1    1    3    3  501    0 -0.15889497926E+02  0.17621031545E+02 -0.54610520350E+03  0.54662040776E+03  0.00000000000E+00 0.  1.
         21    1    1    2  502  501  0.20930926094E+02 -0.22430851775E+02 -0.32620588701E+03  0.32764542954E+03  0.00000000000E+00 0.  1.
<mgrwt>
<rscale>  1 0.30000000E+03</rscale>
<asrwt>0</asrwt>
<pdfrwt beam="1">  1        3 0.39024175E-02 0.30000000E+03</pdfrwt>
<pdfrwt beam="2">0</pdfrwt>
<totfact> 0.14492261E+03</totfact>
</mgrwt>
</event>
<event>
 6    1  0.3125838E-002  0.3000000E+03  0.7818608E-02  0.1093470E+00
          1   -1    0    0  502    0  0.00000000000E+00  0.00000000000E+00  0.14206708761E+01  0.14206708761E+01  0.00000000000E+00 0.  1.
         13   -1    0    0    0    0 -0.00000000000E+00 -0.00000000000E+00 -0.10000000000E+04  0.10000000000E+04  0.00000000000E+00 0.  1.
    9000005    2    1    2  501    0  0.30117318096E+02 -0.14469989822E+01 -0.79907190801E+03  0.79964763567E+03  0.33586324755E+01 0.  0.
         13    1    3    3    0    0  0.15133578805E+01  0.64411672486E+00 -0.38241660535E+02  0.38277013192E+02  0.00000000000E+00 0.  1.
          3    1    3    3  501    0  0.28603960216E+02 -0.20911157071E+01 -0.76083024748E+03  0.76137062248E+03  0.00000000000E+00 0.  1.
         21    1    1    2  502  501 -0.30117318096E+02  0.14469989822E+01 -0.19950742111E+03  0.20177303520E+03  0.00000000000E+00 0.  1.
<mgrwt>
<rscale>  1 0.30000000E+03</rscale>
<asrwt>0</asrwt>
<pdfrwt beam="1">  1        1 0.51660868E-02 0.30000000E+03</pdfrwt>
<pdfrwt beam="2">0</pdfrwt>
<totfact> 0.18998797E+03</totfact>
</mgrwt>
</event>
<event>
 6    1  0.3125838E-002  0.3000000E+03  0.7818608E-02  0.1093470E+00
          3   -1    0    0  502    0  0.00000000000E+00  0.00000000000E+00  0.15379479663E+01  0.15379479663E+01  0.00000000000E+00 0.  1.
         13   -1    0    0    0    0 -0.00000000000E+00 -0.00000000000E+00 -0.10000000000E+04  0.10000000000E+04  0.00000000000E+00 0.  1.
    9000005    2    1    2  501    0  0.36164099162E+02 -0.68081586143E+00 -0.69129841996E+03  0.69225199218E+03  0.33180805453E+01 0.  0.
         13    1    3    3    0    0  0.31045499377E+02 -0.14208766283E+01 -0.60701107668E+03  0.60780612792E+03  0.00000000000E+00 0.  1.
          1    1    3    3  501    0  0.51185997851E+01  0.74006076691E+00 -0.84287343285E+02  0.84445864266E+02  0.00000000000E+00 0.  1.
         21    1    1    2  502  501 -0.36164099162E+02  0.68081586143E+00 -0.30716363207E+03  0.30928595578E+03  0.00000000000E+00 0.  1.
<mgrwt>
<rscale>  1 0.30000000E+03</rscale>
<asrwt>0</asrwt>
<pdfrwt beam="1">  1        3 0.55925499E-02 0.30000000E+03</pdfrwt>
<pdfrwt beam="2">0</pdfrwt>
<totfact> 0.83198486E+02</totfact>
</mgrwt>
</event>
<event>
 6    1  0.3125838E-002  0.3000000E+03  0.7818608E-02  0.1093470E+00
          1   -1    0    0  502    0  0.00000000000E+00  0.00000000000E+00  0.17249760096E+01  0.17249760096E+01  0.00000000000E+00 0.  1.
         13   -1    0    0    0    0 -0.00000000000E+00 -0.00000000000E+00 -0.10000000000E+04  0.10000000000E+04  0.00000000000E+00 0.  1.
    9000005    2    1    2  501    0  0.12632182639E+02  0.34235874816E+02 -0.73738096176E+03  0.73829115345E+03  0.33878208060E+01 0.  0.
         13    1    3    3    0    0  0.61740653496E+01  0.21329618170E+02 -0.45603957190E+03  0.45657985373E+03  0.00000000000E+00 0.  1.
          1    1    3    3  501    0  0.64581172896E+01  0.12906256646E+02 -0.28134138986E+03  0.28171129971E+03  0.00000000000E+00 0.  1.
         21    1    1    2  502  501 -0.12632182639E+02 -0.34235874816E+02 -0.26089406223E+03  0.26343382256E+03  0.00000000000E+00 0.  1.
<mgrwt>
<rscale>  1 0.30000000E+03</rscale>
<asrwt>0</asrwt>
<pdfrwt beam="1">  1        1 0.62726533E-02 0.30000000E+03</pdfrwt>
<pdfrwt beam="2">0</pdfrwt>
<totfact> 0.14468162E+03</totfact>
</mgrwt>
</event>
<event>
 6    1  0.3125838E-002  0.3000000E+03  0.7818608E-02  0.1093470E+00
          1   -1    0    0  502    0  0.00000000000E+00  0.00000000000E+00  0.50281967893E+01  0.50281967893E+01  0.00000000000E+00 0.  1.
         13   -1    0    0    0    0 -0.00000000000E+00 -0.00000000000E+00 -0.10000000000E+04  0.10000000000E+04  0.00000000000E+00 0.  1.
    9000005    2    1    2  501    0 -0.29030016926E+02 -0.34721808769E+02 -0.88426267595E+03  0.88542528401E+03  0.30178793565E+01 0.  0.
         13    1    3    3    0    0 -0.15499186061E+02 -0.16260191939E+02 -0.43062976287E+03  0.43121527254E+03  0.00000000000E+00 0.  1.
          1    1    3    3  501    0 -0.13530830865E+02 -0.18461616829E+02 -0.45363291309E+03  0.45421001146E+03  0.00000000000E+00 0.  1.
         21    1    1    2  502  501  0.29030016926E+02  0.34721808769E+02 -0.11070912726E+03  0.11960291278E+03  0.00000000000E+00 0.  1.
<mgrwt>
<rscale>  1 0.30000000E+03</rscale>
<asrwt>0</asrwt>
<pdfrwt beam="1">  1        1 0.18284391E-01 0.30000000E+03</pdfrwt>
<pdfrwt beam="2">0</pdfrwt>
<totfact> 0.33201840E+02</totfact>
</mgrwt>
</event>
<event>
 6    1  0.3125838E-002  0.3000000E+03  0.7818608E-02  0.1093470E+00
          1   -1    0    0  502    0  0.00000000000E+00  0.00000000000E+00  0.17380706166E+02  0.17380706166E+02  0.00000000000E+00 0.  1.
         13   -1    0    0    0    0 -0.00000000000E+00 -0.00000000000E+00 -0.10000000000E+04  0.10000000000E+04  0.00000000000E+00 0.  1.
    9000005    2    1    2  501    0  0.51577215347E+01 -0.48951794754E+02 -0.96319343457E+03  0.96446337149E+03  0.50122096169E+01 0.  0.
         13    1    3    3    0    0  0.38626951159E+00 -0.23431797484E+02 -0.48442840346E+03  0.48499492412E+03  0.00000000000E+00 0.  1.
          3    1    3    3  501    0  0.47714520231E+01 -0.25519997270E+02 -0.47876503111E+03  0.47946844738E+03  0.00000000000E+00 0.  1.
         21    1    1    2  502  501 -0.51577215347E+01  0.48951794754E+02 -0.19425859262E+02  0.52917334675E+02  0.00000000000E+00 0.  1.
<mgrwt>
<rscale>  1 0.30000000E+03</rscale>
<asrwt>0</asrwt>
<pdfrwt beam="1">  1        1 0.63202701E-01 0.30000000E+03</pdfrwt>
<pdfrwt beam="2">0</pdfrwt>
<totfact> 0.64699456E+01</totfact>
</mgrwt>
</event>
<event>
 6    1  0.3125838E-002  0.3000000E+03  0.7818608E-02  0.1093470E+00
          1   -1    0    0  502    0  0.00000000000E+00  0.00000000000E+00  0.32045095129E+01  0.32045095129E+01  0.00000000000E+00 0.  1.
         13   -1    0    0    0    0 -0.00000000000E+00 -0.00000000000E+00 -0.10000000000E+04  0.10000000000E+04  0.00000000000E+00 0.  1.
    9000005    2    1    2  501    0 -0.28590882253E+02 -0.15775355471E+02 -0.90801634156E+03  0.90861044166E+03  0.35996902574E+01 0.  0.
         13    1    3    3    0    0 -0.25432123130E+02 -0.13758395263E+02 -0.76852629228E+03  0.76907005419E+03  0.00000000000E+00 0.  1.
          3    1    3    3  501    0 -0.31587591229E+01 -0.20169602081E+01 -0.13949004928E+03  0.13954038747E+03  0.00000000000E+00 0.  1.
         21    1    1    2  502  501  0.28590882253E+02  0.15775355471E+02 -0.88779148930E+02  0.94594067853E+02  0.00000000000E+00 0.  1.
<mgrwt>
<rscale>  1 0.30000000E+03</rscale>
<asrwt>0</asrwt>
<pdfrwt beam="1">  1        1 0.11652786E-01 0.30000000E+03</pdfrwt>
<pdfrwt beam="2">0</pdfrwt>
<totfact> 0.61233640E+02</totfact>
</mgrwt>
</event>
<event>
 6    1  0.3125838E-002  0.3000000E+03  0.7818608E-02  0.1093470E+00
          3   -1    0    0  502    0  0.00000000000E+00  0.00000000000E+00  0.53250337917E+01  0.53250337917E+01  0.00000000000E+00 0.  1.
         13   -1    0    0    0    0 -0.00000000000E+00 -0.00000000000E+00 -0.10000000000E+04  0.10000000000E+04  0.00000000000E+00 0.  1.
    9000005    2    1    2  501    0  0.51432146164E+02 -0.85403299051E+01 -0.84890035951E+03  0.85050759662E+03  0.36261054141E+01 0.  0.
         13    1    3    3    0    0  0.42539441860E+02 -0.84389392355E+01 -0.70600951307E+03  0.70734026632E+03  0.00000000000E+00 0.  1.
          1    1    3    3  501    0  0.88927043039E+01 -0.10139066961E+00 -0.14289084644E+03  0.14316733030E+03  0.00000000000E+00 0.  1.
         21    1    1    2  502  501 -0.51432146164E+02  0.85403299051E+01 -0.14577460670E+03  0.15481743717E+03  0.00000000000E+00 0.  1.
<mgrwt>
<rscale>  1 0.30000000E+03</rscale>
<asrwt>0</asrwt>
<pdfrwt beam="1">  1        3 0.19363800E-01 0.30000000E+03</pdfrwt>
<pdfrwt beam="2">0</pdfrwt>
<totfact> 0.10597876E+02</totfact>
</mgrwt>
</event>
<event>
 6    1  0.3125838E-002  0.3000000E+03  0.7818608E-02  0.1093470E+00
          1   -1    0    0  502    0  0.00000000000E+00  0.00000000000E+00  0.41872807021E+01  0.41872807021E+01  0.00000000000E+00 0.  1.
         13   -1    0    0    0    0 -0.00000000000E+00 -0.00000000000E+00 -0.10000000000E+04  0.10000000000E+04  0.00000000000E+00 0.  1.
    9000005    2    1    2  501    0  0.16338651394E+02  0.34995366971E+02 -0.90068104759E+03  0.90151468358E+03  0.32784103716E+01 0.  0.
         13    1    3    3    0    0  0.11847269921E+02  0.21959006815E+02 -0.59418721575E+03  0.59471085676E+03  0.00000000000E+00 0.  1.
          1    1    3    3  501    0  0.44913814728E+01  0.13036360156E+02 -0.30649383184E+03  0.30680382682E+03  0.00000000000E+00 0.  1.
         21    1    1    2  502  501 -0.16338651394E+02 -0.34995366971E+02 -0.95131671704E+02  0.10267259712E+03  0.00000000000E+00 0.  1.
<mgrwt>
<rscale>  1 0.30000000E+03</rscale>
<asrwt>0</asrwt>
<pdfrwt beam="1">  1        1 0.15226507E-01 0.30000000E+03</pdfrwt>
<pdfrwt beam="2">0</pdfrwt>
<totfact> 0.42507052E+02</totfact>
</mgrwt>
</event>
<event>
 6    1  0.3125838E-002  0.3000000E+03  0.7818608E-02  0.1093470E+00
          1   -1    0    0  502    0  0.00000000000E+00  0.00000000000E+00  0.94049901488E+01  0.94049901488E+01  0.00000000000E+00 0.  1.
         13   -1    0    0    0    0 -0.00000000000E+00 -0.00000000000E+00 -0.10000000000E+04  0.10000000000E+04  0.00000000000E+00 0.  1.
    9000005    2    1    2  501    0 -0.52865483068E+02 -0.14925112353E+02 -0.91117680031E+03  0.91284014000E+03  0.40548095405E+01 0.  0.
         13    1    3    3    0    0 -0.23635042284E+02 -0.60686196351E+01 -0.37295199643E+03  0.37374942811E+03  0.00000000000E+00 0.  1.
          1    1    3    3  501    0 -0.29230440785E+02 -0.88564927176E+01 -0.53822480388E+03  0.53909071189E+03  0.00000000000E+00 0.  1.
         21    1    1    2  502  501  0.52865483068E+02  0.14925112353E+02 -0.79418209538E+02  0.96564850153E+02  0.00000000000E+00 0.  1.
<mgrwt>
<rscale>  1 0.30000000E+03</rscale>
<asrwt>0</asrwt>
<pdfrwt beam="1">  1        1 0.34200036E-01 0.30000000E+03</pdfrwt>
<pdfrwt beam="2">0</pdfrwt>
<totfact> 0.14504113E+02</totfact>
</mgrwt>
</event>
<event>
 6    1  0.3125838E-002  0.3000000E+03  0.7818608E-02  0.1093470E+00
          3   -1    0    0  502    0  0.00000000000E+00  0.00000000000E+00  0.40095473650E+01  0.40095473650E+01  0.00000000000E+00 0.  1.
         13   -1    0    0    0    0 -0.00000000000E+00 -0.00000000000E+00 -0.10000000000E+04  0.10000000000E+04  0.00000000000E+00 0.  1.
    9000005    2    1    2  501    0  0.14121863333E+02 -0.37933466274E+02 -0.88388860648E+03  0.88482398281E+03  0.40046221095E+01 0.  0.
         13    1    3    3    0    0  0.82799194973E+01 -0.19889117056E+02 -0.50947059335E+03  0.50992589612E+03  0.00000000000E+00 0.  1.
          1    1    3    3  501    0  0.58419438356E+01 -0.18044349218E+02 -0.37441801313E+03  0.37489808669E+03  0.00000000000E+00 0.  1.
         21    1    1    2  502  501 -0.14121863333E+02  0.37933466274E+02 -0.11210184615E+03  0.11918556455E+03  0.00000000000E+00 0.  1.
<mgrwt>
<rscale>  1 0.30000000E+03</rscale>
<asrwt>0</asrwt>
<pdfrwt beam="1">  1        3 0.14580203E-01 0.30000000E+03</pdfrwt>
<pdfrwt beam="2">0</pdfrwt>
<totfact> 0.17481522E+02</totfact>
</mgrwt>
</event>
<event>
 6    1  0.3125838E-002  0.3000000E+03  0.7818608E-02  0.1093470E+00
          3   -1    0    0  502    0  0.00000000000E+00  0.00000000000E+00  0.13778066961E+01  0.13778066961E+01  0.00000000000E+00 0.  1.
         13   -1    0    0    0    0 -0.00000000000E+00 -0.00000000000E+00 -0.10000000000E+04  0.10000000000E+04  0.00000000000E+00 0.  1.
    9000005    2    1    2  501    0 -0.14116350489E+02 -0.31867099474E+02 -0.66905575680E+03  0.66997349253E+03  0.37538781875E+01 0.  0.
         13    1    3    3    0    0 -0.48247118262E+01 -0.70601120388E+01 -0.17156899039E+03  0.17178195915E+03  0.00000000000E+00 0.  1.
          3    1    3    3  501    0 -0.92916386629E+01 -0.24806987436E+02 -0.49748676641E+03  0.49819153338E+03  0.00000000000E+00 0.  1.
         21    1    1    2  502  501  0.14116350489E+02  0.31867099474E+02 -0.32956643650E+03  0.33140431417E+03  0.00000000000E+00 0.  1.
<mgrwt>
<rscale>  1 0.30000000E+03</rscale>
<asrwt>0</asrwt>
<pdfrwt beam="1">  1        3 0.50102167E-02 0.30000000E+03</pdfrwt>
<pdfrwt beam="2">0</pdfrwt>
<totfact> 0.98628176E+02</totfact>
</mgrwt>
</event>
<event>
 6    1  0.3125838E-002  0.3000000E+03  0.7818608E-02  0.1093470E+00
          1   -1    0    0  502    0  0.00000000000E+00  0.00000000000E+00  0.98823068025E+00  0.98823068025E+00  0.00000000000E+00 0.  1.
         13   -1    0    0    0    0 -0.00000000000E+00 -0.00000000000E+00 -0.10000000000E+04  0.10000000000E+04  0.00000000000E+00 0.  1.
    9000005    2    1    2  501    0 -0.45176132494E+01  0.30813332327E+02 -0.44391240036E+03  0.44501594747E+03  0.33322710924E+01 0.  0.
         13    1    3    3    0    0 -0.19249553833E+01  0.47517120124E+01 -0.75141715519E+02  0.75316410107E+02  0.00000000000E+00 0.  1.
          1    1    3    3  501    0 -0.25926578661E+01  0.26061620315E+02 -0.36877068484E+03  0.36969953736E+03  0.00000000000E+00 0.  1.
         21    1    1    2  502  501  0.45176132494E+01 -0.30813332327E+02 -0.55509936896E+03  0.55597228321E+03  0.00000000000E+00 0.  1.
<mgrwt>
<rscale>  1 0.30000000E+03</rscale>
<asrwt>0</asrwt>
<pdfrwt beam="1">  1        1 0.35935737E-02 0.30000000E+03</pdfrwt>
<pdfrwt beam="2">0</pdfrwt>
<totfact> 0.31661773E+03</totfact>
</mgrwt>
</event>
<event>
 6    1  0.3335407E-002  0.3000000E+03  0.7818608E-02  0.1093470E+00
          1   -1    0    0  502    0  0.00000000000E+00  0.00000000000E+00  0.29096267449E+01  0.29096267449E+01  0.00000000000E+00 0.  1.
         13   -1    0    0    0    0 -0.00000000000E+00 -0.00000000000E+00 -0.10000000000E+04  0.10000000000E+04  0.00000000000E+00 0.  1.
    9000005    2    1    2  501    0  0.17863893518E+01  0.30274432711E+02 -0.91223729454E+03  0.91279981912E+03  0.10339041133E+02 0.  0.
         13    1    3    3    0    0  0.57145704747E+01  0.17968751001E+02 -0.48205398124E+03  0.48242260847E+03  0.00000000000E+00 0.  1.
          3    1    3    3  501    0 -0.39281811230E+01  0.12305681710E+02 -0.43018331330E+03  0.43037721065E+03  0.00000000000E+00 0.  1.
         21    1    1    2  502  501 -0.17863893518E+01 -0.30274432711E+02 -0.84853078714E+02  0.90109807625E+02  0.00000000000E+00 0.  1.
<mgrwt>
<rscale>  1 0.30000000E+03</rscale>
<asrwt>0</asrwt>
<pdfrwt beam="1">  1        1 0.10580483E-01 0.30000000E+03</pdfrwt>
<pdfrwt beam="2">0</pdfrwt>
<totfact> 0.69918406E+02</totfact>
</mgrwt>
</event>
<event>
 6    1  0.3125838E-002  0.3000000E+03  0.7818608E-02  0.1093470E+00
          3   -1    0    0  502    0  0.00000000000E+00  0.00000000000E+00  0.93934143217E+00  0.93934143217E+00  0.00000000000E+00 0.  1.
         13   -1    0    0    0    0 -0.00000000000E+00 -0.00000000000E+00 -0.10000000000E+04  0.10000000000E+04  0.00000000000E+00 0.  1.
    9000005    2    1    2  501    0  0.22757188141E+02  0.20065241652E+02 -0.44031918744E+03  0.44137474722E+03  0.31901604206E+01 0.  0.
         13    1    3    3    0    0  0.88984414782E+01  0.70832022493E+01 -0.18621356334E+03  0.18656056707E+03  0.00000000000E+00 0.  1.
          1    1    3    3  501    0  0.13858746663E+02  0.12982039402E+02 -0.25410562410E+03  0.25481418015E+03  0.00000000000E+00 0.  1.
         21    1    1    2  502  501 -0.22757188141E+02 -0.20065241652E+02 -0.55874147113E+03  0.55956459421E+03  0.00000000000E+00 0.  1.
<mgrwt>
<rscale>  1 0.30000000E+03</rscale>
<asrwt>0</asrwt>
<pdfrwt beam="1">  1        3 0.34157942E-02 0.30000000E+03</pdfrwt>
<pdfrwt beam="2">0</pdfrwt>
<totfact> 0.17794047E+03</totfact>
</mgrwt>
</event>
<event>
 6    1  0.3125838E-002  0.3000000E+03  0.7818608E-02  0.1093470E+00
          1   -1    0    0  502    0  0.00000000000E+00  0.00000000000E+00  0.12307010241E+01  0.12307010241E+01  0.00000000000E+00 0.  1.
         13   -1    0    0    0    0 -0.00000000000E+00 -0.00000000000E+00 -0.10000000000E+04  0.10000000000E+04  0.00000000000E+00 0.  1.
    9000005    2    1    2  501    0  0.21930419953E+01 -0.34883086807E+02 -0.52773047180E+03  0.52889690393E+03  0.32931645824E+01 0.  0.
         13    1    3    3    0    0 -0.15687314149E+00 -0.41922534648E+01 -0.49891091399E+02  0.50067160887E+02  0.00000000000E+00 0.  1.
          3    1    3    3  501    0  0.23499151368E+01 -0.30690833342E+02 -0.47783938040E+03  0.47882974304E+03  0.00000000000E+00 0.  1.
         21    1    1    2  502  501 -0.21930419953E+01  0.34883086807E+02 -0.47103882717E+03  0.47233379710E+03  0.00000000000E+00 0.  1.
<mgrwt>
<rscale>  1 0.30000000E+03</rscale>
<asrwt>0</asrwt>
<pdfrwt beam="1">  1        1 0.44752859E-02 0.30000000E+03</pdfrwt>
<pdfrwt beam="2">0</pdfrwt>
<totfact> 0.23248335E+03</totfact>
</mgrwt>
</event>
<event>
 6    1  0.3125838E-002  0.3000000E+03  0.7818608E-02  0.1093470E+00
          1   -1    0    0  502    0  0.00000000000E+00  0.00000000000E+00  0.37265792756E+01  0.37265792756E+01  0.00000000000E+00 0.  1.
         13   -1    0    0    0    0 -0.00000000000E+00 -0.00000000000E+00 -0.10000000000E+04  0.10000000000E+04  0.00000000000E+00 0.  1.
    9000005    2    1    2  501    0  0.23660591737E+02  0.55837788465E+02 -0.54770825723E+03  0.55108059385E+03  0.52729173193E+01 0.  0.
         13    1    3    3    0    0  0.45993539347E+01  0.68792131323E+01 -0.66570913121E+02  0.67083262471E+02  0.00000000000E+00 0.  1.
          3    1    3    3  501    0  0.19061237802E+02  0.48958575332E+02 -0.48113734411E+03  0.48399733138E+03  0.00000000000E+00 0.  1.
         21    1    1    2  502  501 -0.23660591737E+02 -0.55837788465E+02 -0.44856516349E+03  0.45264598542E+03  0.00000000000E+00 0.  1.
<mgrwt>
<rscale>  1 0.30000000E+03</rscale>
<asrwt>0</asrwt>
<pdfrwt beam="1">  1        1 0.13551226E-01 0.30000000E+03</pdfrwt>
<pdfrwt beam="2">0</pdfrwt>
<totfact> 0.49809015E+02</totfact>
</mgrwt>
</event>
<event>
 6    1  0.3125838E-002  0.3000000E+03  0.7818608E-02  0.1093470E+00
          3   -1    0    0  502    0  0.00000000000E+00  0.00000000000E+00  0.11548027836E+01  0.11548027836E+01  0.00000000000E+00 0.  1.
         13   -1    0    0    0    0 -0.00000000000E+00 -0.00000000000E+00 -0.10000000000E+04  0.10000000000E+04  0.00000000000E+00 0.  1.
    9000005    2    1    2  501    0 -0.30225471756E+02 -0.65217073644E+01 -0.70381259600E+03  0.70450627744E+03  0.45621102467E+01 0.  0.
         13    1    3    3    0    0 -0.21724995086E+01 -0.13929447497E+00 -0.81421025827E+02  0.81450123412E+02  0.00000000000E+00 0.  1.
          1    1    3    3  501    0 -0.28052972248E+02 -0.63824128894E+01 -0.62239157017E+03  0.62305615402E+03  0.00000000000E+00 0.  1.
         21    1    1    2  502  501  0.30225471756E+02  0.65217073644E+01 -0.29503260122E+03  0.29664852535E+03  0.00000000000E+00 0.  1.
<mgrwt>
<rscale>  1 0.30000000E+03</rscale>
<asrwt>0</asrwt>
<pdfrwt beam="1">  1        3 0.41992917E-02 0.30000000E+03</pdfrwt>
<pdfrwt beam="2">0</pdfrwt>
<totfact> 0.12948473E+03</totfact>
</mgrwt>
</event>
<event>
 6    1  0.3125838E-002  0.3000000E+03  0.7818608E-02  0.1093470E+00
          1   -1    0    0  502    0  0.00000000000E+00  0.00000000000E+00  0.15913812974E+01  0.15913812974E+01  0.00000000000E+00 0.  1.
         13   -1    0    0    0    0 -0.00000000000E+00 -0.00000000000E+00 -0.10000000000E+04  0.10000000000E+04  0.00000000000E+00 0.  1.
    9000005    2    1    2  501    0  0.26046131331E+02 -0.15736539881E+02 -0.82256616806E+03  0.82313520435E+03  0.32286451161E+01 0.  0.
         13    1    3    3    0    0  0.31533582002E+01 -0.10153069966E+01 -0.73214408006E+02  0.73289317475E+02  0.00000000000E+00 0.  1.
          3    1    3    3  501    0  0.22892773131E+02 -0.14721232884E+02 -0.74935176006E+03  0.74984588687E+03  0.00000000000E+00 0.  1.
         21    1    1    2  502  501 -0.26046131331E+02  0.15736539881E+02 -0.17584245064E+03  0.17845617695E+03  0.00000000000E+00 0.  1.
<mgrwt>
<rscale>  1 0.30000000E+03</rscale>
<asrwt>0</asrwt>
<pdfrwt beam="1">  1        1 0.57868533E-02 0.30000000E+03</pdfrwt>
<pdfrwt beam="2">0</pdfrwt>
<totfact> 0.16200220E+03</totfact>
</mgrwt>
</event>
<event>
 6    1  0.3125838E-002  0.3000000E+03  0.7818608E-02  0.1093470E+00
          3   -1    0    0  502    0  0.00000000000E+00  0.00000000000E+00  0.14756856992E+01  0.14756856992E+01  0.00000000000E+00 0.  1.
         13   -1    0    0    0    0 -0.00000000000E+00 -0.00000000000E+00 -0.10000000000E+04  0.10000000000E+04  0.00000000000E+00 0.  1.
    9000005    2    1    2  501    0 -0.21704984646E+02  0.29462201048E+02 -0.64955095663E+03  0.65058890622E+03  0.32174506772E+01 0.  0.
         13    1    3    3    0    0 -0.57243800059E+01  0.61863677684E+01 -0.16729144874E+03  0.16750363725E+03  0.00000000000E+00 0.  1.
          3    1    3    3  501    0 -0.15980604640E+02  0.23275833280E+02 -0.48225950789E+03  0.48308526897E+03  0.00000000000E+00 0.  1.
         21    1    1    2  502  501  0.21704984646E+02 -0.29462201048E+02 -0.34897335767E+03  0.35088677948E+03  0.00000000000E+00 0.  1.
<mgrwt>
<rscale>  1 0.30000000E+03</rscale>
<asrwt>0</asrwt>
<pdfrwt beam="1">  1        3 0.53661411E-02 0.30000000E+03</pdfrwt>
<pdfrwt beam="2">0</pdfrwt>
<totfact> 0.88702356E+02</totfact>
</mgrwt>
</event>
<event>
 6    1  0.3125838E-002  0.3000000E+03  0.7818608E-02  0.1093470E+00
          1   -1    0    0  502    0  0.00000000000E+00  0.00000000000E+00  0.53729886159E+01  0.53729886159E+01  0.00000000000E+00 0.  1.
         13   -1    0    0    0    0 -0.00000000000E+00 -0.00000000000E+00 -0.10000000000E+04  0.10000000000E+04  0.00000000000E+00 0.  1.
    9000005    2    1    2  501    0 -0.66911551776E+02  0.14849062764E+02 -0.67507487410E+03  0.67855313171E+03  0.32582947295E+01 0.  0.
         13    1    3    3    0    0 -0.27659048079E+02  0.73286374173E+01 -0.29269043420E+03  0.29408573943E+03  0.00000000000E+00 0.  1.
          3    1    3    3  501    0 -0.39252503697E+02  0.75204253465E+01 -0.38238443990E+03  0.38446739227E+03  0.00000000000E+00 0.  1.
         21    1    1    2  502  501  0.66911551776E+02 -0.14849062764E+02 -0.31955213728E+03  0.32681985691E+03  0.00000000000E+00 0.  1.
<mgrwt>
<rscale>  1 0.30000000E+03</rscale>
<asrwt>0</asrwt>
<pdfrwt beam="1">  1        1 0.19538182E-01 0.30000000E+03</pdfrwt>
<pdfrwt beam="2">0</pdfrwt>
<totfact> 0.30376558E+02</totfact>
</mgrwt>
</event>
<event>
 6    1  0.3125838E-002  0.3000000E+03  0.7818608E-02  0.1093470E+00
          1   -1    0    0  502    0  0.00000000000E+00  0.00000000000E+00  0.13013482726E+01  0.13013482726E+01  0.00000000000E+00 0.  1.
         13   -1    0    0    0    0 -0.00000000000E+00 -0.00000000000E+00 -0.10000000000E+04  0.10000000000E+04  0.00000000000E+00 0.  1.
    9000005    2    1    2  501    0  0.19394756378E+02  0.30340066684E+02 -0.51805518342E+03  0.51931087135E+03  0.24355304354E+01 0.  0.
         13    1    3    3    0    0  0.18754422762E+02  0.28708529821E+02 -0.49800837566E+03  0.49918759027E+03  0.00000000000E+00 0.  1.
          1    1    3    3  501    0  0.64033361653E+00  0.16315368630E+01 -0.20046807765E+02  0.20123281075E+02  0.00000000000E+00 0.  1.
         21    1    1    2  502  501 -0.19394756378E+02 -0.30340066684E+02 -0.48064346831E+03  0.48199047692E+03  0.00000000000E+00 0.  1.
<mgrwt>
<rscale>  1 0.30000000E+03</rscale>
<asrwt>0</asrwt>
<pdfrwt beam="1">  1        1 0.47321855E-02 0.30000000E+03</pdfrwt>
<pdfrwt beam="2">0</pdfrwt>
<totfact> 0.21492413E+03</totfact>
</mgrwt>
</event>
<event>
 6    1  0.3125838E-002  0.3000000E+03  0.7818608E-02  0.1093470E+00
          1   -1    0    0  502    0  0.00000000000E+00  0.00000000000E+00  0.11592184710E+01  0.11592184710E+01  0.00000000000E+00 0.  1.
         13   -1    0    0    0    0 -0.00000000000E+00 -0.00000000000E+00 -0.10000000000E+04  0.10000000000E+04  0.00000000000E+00 0.  1.
    9000005    2    1    2  501    0 -0.22893370025E+02  0.24166379928E+02 -0.60044065189E+03  0.60137079492E+03  0.31202931774E+01 0.  0.
         13    1    3    3    0    0 -0.34058346528E+01  0.48941002496E+01 -0.93750288279E+02  0.93939706618E+02  0.00000000000E+00 0.  1.
          3    1    3    3  501    0 -0.19487535372E+02  0.19272279678E+02 -0.50669036361E+03  0.50743108831E+03  0.00000000000E+00 0.  1.
         21    1    1    2  502  501  0.22893370025E+02 -0.24166379928E+02 -0.39840012963E+03  0.39978842355E+03  0.00000000000E+00 0.  1.
<mgrwt>
<rscale>  1 0.30000000E+03</rscale>
<asrwt>0</asrwt>
<pdfrwt beam="1">  1        1 0.42153488E-02 0.30000000E+03</pdfrwt>
<pdfrwt beam="2">0</pdfrwt>
<totfact> 0.25291542E+03</totfact>
</mgrwt>
</event>
<event>
 6    1  0.3125838E-002  0.3000000E+03  0.7818608E-02  0.1093470E+00
          1   -1    0    0  502    0  0.00000000000E+00  0.00000000000E+00  0.24208156819E+01  0.24208156819E+01  0.00000000000E+00 0.  1.
         13   -1    0    0    0    0 -0.00000000000E+00 -0.00000000000E+00 -0.10000000000E+04  0.10000000000E+04  0.00000000000E+00 0.  1.
    9000005    2    1    2  501    0 -0.17576543480E+01 -0.43948321961E+02 -0.72287959572E+03  0.72422231043E+03  0.29155882630E+01 0.  0.
         13    1    3    3    0    0 -0.10358088090E+01 -0.23432701035E+02 -0.40923335734E+03  0.40990499526E+03  0.00000000000E+00 0.  1.
          3    1    3    3  501    0 -0.72184553895E+00 -0.20515620926E+02 -0.31364623838E+03  0.31431731517E+03  0.00000000000E+00 0.  1.
         21    1    1    2  502  501  0.17576543480E+01  0.43948321961E+02 -0.27469958859E+03  0.27819850526E+03  0.00000000000E+00 0.  1.
<mgrwt>
<rscale>  1 0.30000000E+03</rscale>
<asrwt>0</asrwt>
<pdfrwt beam="1">  1        1 0.88029847E-02 0.30000000E+03</pdfrwt>
<pdfrwt beam="2">0</pdfrwt>
<totfact> 0.90163689E+02</totfact>
</mgrwt>
</event>
<event>
 6    1  0.3125838E-002  0.3000000E+03  0.7818608E-02  0.1093470E+00
          1   -1    0    0  502    0  0.00000000000E+00  0.00000000000E+00  0.12180557441E+01  0.12180557441E+01  0.00000000000E+00 0.  1.
         13   -1    0    0    0    0 -0.00000000000E+00 -0.00000000000E+00 -0.10000000000E+04  0.10000000000E+04  0.00000000000E+00 0.  1.
    9000005    2    1    2  501    0  0.12703138055E+01 -0.34216205849E+02 -0.59256349899E+03  0.59355914475E+03  0.29318150532E+01 0.  0.
         13    1    3    3    0    0  0.80640129691E+00 -0.24457633387E+02 -0.44538942742E+03  0.44606117088E+03  0.00000000000E+00 0.  1.
          3    1    3    3  501    0  0.46391250858E+00 -0.97585724616E+01 -0.14717407157E+03  0.14749797386E+03  0.00000000000E+00 0.  1.
         21    1    1    2  502  501 -0.12703138055E+01  0.34216205849E+02 -0.40621844526E+03  0.40765891099E+03  0.00000000000E+00 0.  1.
<mgrwt>
<rscale>  1 0.30000000E+03</rscale>
<asrwt>0</asrwt>
<pdfrwt beam="1">  1        1 0.44293030E-02 0.30000000E+03</pdfrwt>
<pdfrwt beam="2">0</pdfrwt>
<totfact> 0.23588759E+03</totfact>
</mgrwt>
</event>
<event>
 6    1  0.3125838E-002  0.3000000E+03  0.7818608E-02  0.1093470E+00
          1   -1    0    0  502    0  0.00000000000E+00  0.00000000000E+00  0.22532152576E+02  0.22532152576E+02  0.00000000000E+00 0.  1.
         13   -1    0    0    0    0 -0.00000000000E+00 -0.00000000000E+00 -0.10000000000E+04  0.10000000000E+04  0.00000000000E+00 0.  1.
    9000005    2    1    2  501    0  0.26867239464E+02  0.10868594065E+03 -0.82927057474E+03  0.83679870410E+03  0.28111926793E+01 0.  0.
         13    1    3    3    0    0  0.11064307249E+02  0.43029066707E+02 -0.31932674401E+03  0.32240268131E+03  0.00000000000E+00 0.  1.
          3    1    3    3  501    0  0.15802932214E+02  0.65656873944E+02 -0.50994383073E+03  0.51439602279E+03  0.00000000000E+00 0.  1.
         21    1    1    2  502  501 -0.26867239464E+02 -0.10868594065E+03 -0.14819727268E+03  0.18573344848E+03  0.00000000000E+00 0.  1.
<mgrwt>
<rscale>  1 0.30000000E+03</rscale>
<asrwt>0</asrwt>
<pdfrwt beam="1">  1        1 0.81935273E-01 0.30000000E+03</pdfrwt>
<pdfrwt beam="2">0</pdfrwt>
<totfact> 0.45435827E+01</totfact>
</mgrwt>
</event>
<event>
 6    1  0.3125838E-002  0.3000000E+03  0.7818608E-02  0.1093470E+00
          1   -1    0    0  502    0  0.00000000000E+00  0.00000000000E+00  0.12943603810E+01  0.12943603810E+01  0.00000000000E+00 0.  1.
         13   -1    0    0    0    0 -0.00000000000E+00 -0.00000000000E+00 -0.10000000000E+04  0.10000000000E+04  0.00000000000E+00 0.  1.
    9000005    2    1    2  501    0 -0.36808484845E+01  0.35361944264E+02 -0.56143809219E+03  0.56258383648E+03  0.48811840685E+01 0.  0.
         13    1    3    3    0    0 -0.31388611553E+01  0.34330928526E+02 -0.52720595012E+03  0.52833188333E+03  0.00000000000E+00 0.  1.
          1    1    3    3  501    0 -0.54198732920E+00  0.10310157383E+01 -0.34232142076E+02  0.34251953153E+02  0.00000000000E+00 0.  1.
         21    1    1    2  502  501  0.36808484845E+01 -0.35361944264E+02 -0.43726754743E+03  0.43871052390E+03  0.00000000000E+00 0.  1.
<mgrwt>
<rscale>  1 0.30000000E+03</rscale>
<asrwt>0</asrwt>
<pdfrwt beam="1">  1        1 0.47067749E-02 0.30000000E+03</pdfrwt>
<pdfrwt beam="2">0</pdfrwt>
<totfact> 0.21655794E+03</totfact>
</mgrwt>
</event>
<event>
 6    1  0.3125838E-002  0.3000000E+03  0.7818608E-02  0.1093470E+00
          1   -1    0    0  502    0  0.00000000000E+00  0.00000000000E+00  0.72886532481E+01  0.72886532481E+01  0.00000000000E+00 0.  1.
         13   -1    0    0    0    0 -0.00000000000E+00 -0.00000000000E+00 -0.10000000000E+04  0.10000000000E+04  0.00000000000E+00 0.  1.
    9000005    2    1    2  501    0  0.42404225293E+02 -0.49920592327E+01 -0.93244600482E+03  0.93343101710E+03  0.38565290846E+01 0.  0.
         13    1    3    3    0    0  0.24527950127E+02 -0.47155106644E+01 -0.53108139928E+03  0.53166842021E+03  0.00000000000E+00 0.  1.
          3    1    3    3  501    0  0.17876275166E+02 -0.27654856831E+00 -0.40136460553E+03  0.40176259690E+03  0.00000000000E+00 0.  1.
         21    1    1    2  502  501 -0.42404225293E+02  0.49920592327E+01 -0.60265341936E+02  0.73857636144E+02  0.00000000000E+00 0.  1.
<mgrwt>
<rscale>  1 0.30000000E+03</rscale>
<asrwt>0</asrwt>
<pdfrwt beam="1">  1        1 0.26504250E-01 0.30000000E+03</pdfrwt>
<pdfrwt beam="2">0</pdfrwt>
<totfact> 0.20267888E+02</totfact>
</mgrwt>
</event>
<event>
 6    1  0.3125838E-002  0.3000000E+03  0.7818608E-02  0.1093470E+00
          1   -1    0    0  502    0  0.00000000000E+00  0.00000000000E+00  0.38295569536E+01  0.38295569536E+01  0.00000000000E+00 0.  1.
         13   -1    0    0    0    0 -0.00000000000E+00 -0.00000000000E+00 -0.10000000000E+04  0.10000000000E+04  0.00000000000E+00 0.  1.
    9000005    2    1    2  501    0  0.29931273153E+02  0.54447138386E+01 -0.93510448170E+03  0.93560509172E+03  0.33120891639E+01 0.  0.
         13    1    3    3    0    0  0.89554995850E+01  0.51052736706E+00 -0.24434986582E+03  0.24451445466E+03  0.00000000000E+00 0.  1.
          1    1    3    3  501    0  0.20975773568E+02  0.49341864715E+01 -0.69075461588E+03  0.69109063706E+03  0.00000000000E+00 0.  1.
         21    1    1    2  502  501 -0.29931273153E+02 -0.54447138386E+01 -0.61065961347E+02  0.68224465235E+02  0.00000000000E+00 0.  1.
<mgrwt>
<rscale>  1 0.30000000E+03</rscale>
<asrwt>0</asrwt>
<pdfrwt beam="1">  1        1 0.13925691E-01 0.30000000E+03</pdfrwt>
<pdfrwt beam="2">0</pdfrwt>
<totfact> 0.47992822E+02</totfact>
</mgrwt>
</event>
<event>
 6    1  0.3125838E-002  0.3000000E+03  0.7818608E-02  0.1093470E+00
          1   -1    0    0  502    0  0.00000000000E+00  0.00000000000E+00  0.44471062076E+01  0.44471062076E+01  0.00000000000E+00 0.  1.
         13   -1    0    0    0    0 -0.00000000000E+00 -0.00000000000E+00 -0.10000000000E+04  0.10000000000E+04  0.00000000000E+00 0.  1.
    9000005    2    1    2  501    0 -0.35843113624E+02 -0.15411559718E+02 -0.90499133013E+03  0.90583857828E+03  0.34608267267E+01 0.  0.
         13    1    3    3    0    0 -0.24188699436E+02 -0.92574279573E+01 -0.57008457434E+03  0.57067259883E+03  0.00000000000E+00 0.  1.
          1    1    3    3  501    0 -0.11654414188E+02 -0.61541317606E+01 -0.33490675579E+03  0.33516597945E+03  0.00000000000E+00 0.  1.
         21    1    1    2  502  501  0.35843113624E+02  0.15411559718E+02 -0.90561563664E+02  0.98608527930E+02  0.00000000000E+00 0.  1.
<mgrwt>
<rscale>  1 0.30000000E+03</rscale>
<asrwt>0</asrwt>
<pdfrwt beam="1">  1        1 0.16171329E-01 0.30000000E+03</pdfrwt>
<pdfrwt beam="2">0</pdfrwt>
<totfact> 0.39177673E+02</totfact>
</mgrwt>
</event>
<event>
 6    1  0.3125838E-002  0.3000000E+03  0.7818608E-02  0.1093470E+00
          1   -1    0    0  502    0  0.00000000000E+00  0.00000000000E+00  0.30348084944E+01  0.30348084944E+01  0.00000000000E+00 0.  1.
         13   -1    0    0    0    0 -0.00000000000E+00 -0.00000000000E+00 -0.10000000000E+04  0.10000000000E+04  0.00000000000E+00 0.  1.
    9000005    2    1    2  501    0 -0.52163118538E+02 -0.15863416480E+02 -0.43077811516E+03  0.43422865141E+03  0.34782589416E+01 0.  0.
         13    1    3    3    0    0 -0.59150619346E+01 -0.14657661388E+01 -0.40403837596E+02  0.40860818893E+02  0.00000000000E+00 0.  1.
          1    1    3    3  501    0 -0.46248056603E+02 -0.14397650341E+02 -0.39037427757E+03  0.39336783252E+03  0.00000000000E+00 0.  1.
         21    1    1    2  502  501  0.52163118538E+02  0.15863416480E+02 -0.56618707634E+03  0.56880615708E+03  0.00000000000E+00 0.  1.
<mgrwt>
<rscale>  1 0.30000000E+03</rscale>
<asrwt>0</asrwt>
<pdfrwt beam="1">  1        1 0.11035691E-01 0.30000000E+03</pdfrwt>
<pdfrwt beam="2">0</pdfrwt>
<totfact> 0.65982926E+02</totfact>
</mgrwt>
</event>
<event>
 6    1  0.3125838E-002  0.3000000E+03  0.7818608E-02  0.1093470E+00
          3   -1    0    0  502    0  0.00000000000E+00  0.00000000000E+00  0.41121528025E+02  0.41121528025E+02  0.00000000000E+00 0.  1.
         13   -1    0    0    0    0 -0.00000000000E+00 -0.00000000000E+00 -0.10000000000E+04  0.10000000000E+04  0.00000000000E+00 0.  1.
    9000005    2    1    2  501    0 -0.32980573669E+02  0.30931907436E+02 -0.98688730114E+03  0.98793322435E+03  0.45836103849E+01 0.  0.
         13    1    3    3    0    0 -0.84475652428E+01  0.10402612711E+02 -0.31462618156E+03  0.31491143172E+03  0.00000000000E+00 0.  1.
          1    1    3    3  501    0 -0.24533008426E+02  0.20529294726E+02 -0.67226111958E+03  0.67302179262E+03  0.00000000000E+00 0.  1.
         21    1    1    2  502  501  0.32980573669E+02 -0.30931907436E+02  0.28008829162E+02  0.53188303679E+02  0.00000000000E+00 0.  1.
<mgrwt>
<rscale>  1 0.30000000E+03</rscale>
<asrwt>0</asrwt>
<pdfrwt beam="1">  1        3 0.14953314E+00 0.30000000E+03</pdfrwt>
<pdfrwt beam="2">0</pdfrwt>
<totfact> 0.10046949E+00</totfact>
</mgrwt>
</event>
<event>
 6    1  0.3125838E-002  0.3000000E+03  0.7818608E-02  0.1093470E+00
          1   -1    0    0  502    0  0.00000000000E+00  0.00000000000E+00  0.55889807432E+01  0.55889807432E+01  0.00000000000E+00 0.  1.
         13   -1    0    0    0    0 -0.00000000000E+00 -0.00000000000E+00 -0.10000000000E+04  0.10000000000E+04  0.00000000000E+00 0.  1.
    9000005    2    1    2  501    0  0.25455526170E+02  0.60287516675E+02 -0.25499029850E+03  0.26327801440E+03  0.35625909218E+01 0.  0.
         13    1    3    3    0    0  0.17873701373E+02  0.38421336948E+02 -0.16182137933E+03  0.16727769470E+03  0.00000000000E+00 0.  1.
          3    1    3    3  501    0  0.75818247975E+01  0.21866179728E+02 -0.93168919170E+02  0.96000319700E+02  0.00000000000E+00 0.  1.
         21    1    1    2  502  501 -0.25455526170E+02 -0.60287516675E+02 -0.73942072075E+03  0.74231096635E+03  0.00000000000E+00 0.  1.
<mgrwt>
<rscale>  1 0.30000000E+03</rscale>
<asrwt>0</asrwt>
<pdfrwt beam="1">  1        1 0.20323609E-01 0.30000000E+03</pdfrwt>
<pdfrwt beam="2">0</pdfrwt>
<totfact> 0.28816690E+02</totfact>
</mgrwt>
</event>
<event>
 6    1  0.3125838E-002  0.3000000E+03  0.7818608E-02  0.1093470E+00
          1   -1    0    0  502    0  0.00000000000E+00  0.00000000000E+00  0.40018714938E+01  0.40018714938E+01  0.00000000000E+00 0.  1.
         13   -1    0    0    0    0 -0.00000000000E+00 -0.00000000000E+00 -0.10000000000E+04  0.10000000000E+04  0.00000000000E+00 0.  1.
    9000005    2    1    2  501    0 -0.36153200946E+02 -0.36732238141E+02 -0.78882915011E+03  0.79051815580E+03  0.33489290317E+01 0.  0.
         13    1    3    3    0    0 -0.26715324871E+02 -0.27599026210E+02 -0.56525561410E+03  0.56655919735E+03  0.00000000000E+00 0.  1.
          3    1    3    3  501    0 -0.94378760749E+01 -0.91332119314E+01 -0.22357353601E+03  0.22395895845E+03  0.00000000000E+00 0.  1.
         21    1    1    2  502  501  0.36153200946E+02  0.36732238141E+02 -0.20716897840E+03  0.21348371569E+03  0.00000000000E+00 0.  1.
<mgrwt>
<rscale>  1 0.30000000E+03</rscale>
<asrwt>0</asrwt>
<pdfrwt beam="1">  1        1 0.14552291E-01 0.30000000E+03</pdfrwt>
<pdfrwt beam="2">0</pdfrwt>
<totfact> 0.45203327E+02</totfact>
</mgrwt>
</event>
<event>
 6    1  0.3125838E-002  0.3000000E+03  0.7818608E-02  0.1093470E+00
          3   -1    0    0  502    0  0.00000000000E+00  0.00000000000E+00  0.10252162797E+01  0.10252162797E+01  0.00000000000E+00 0.  1.
         13   -1    0    0    0    0 -0.00000000000E+00 -0.00000000000E+00 -0.10000000000E+04  0.10000000000E+04  0.00000000000E+00 0.  1.
    9000005    2    1    2  501    0 -0.91626373955E+01 -0.29953768196E+02 -0.59810833002E+03  0.59893679832E+03  0.32452722706E+01 0.  0.
         13    1    3    3    0    0 -0.72812455667E+01 -0.19231189079E+02 -0.40548375632E+03  0.40600484210E+03  0.00000000000E+00 0.  1.
          1    1    3    3  501    0 -0.18813918289E+01 -0.10722579117E+02 -0.19262457370E+03  0.19293195622E+03  0.00000000000E+00 0.  1.
         21    1    1    2  502  501  0.91626373955E+01  0.29953768196E+02 -0.40086645370E+03  0.40208841796E+03  0.00000000000E+00 0.  1.
<mgrwt>
<rscale>  1 0.30000000E+03</rscale>
<asrwt>0</asrwt>
<pdfrwt beam="1">  1        3 0.37280671E-02 0.30000000E+03</pdfrwt>
<pdfrwt beam="2">0</pdfrwt>
<totfact> 0.15547618E+03</totfact>
</mgrwt>
</event>
<event>
 6    1  0.3125838E-002  0.3000000E+03  0.7818608E-02  0.1093470E+00
          1   -1    0    0  502    0  0.00000000000E+00  0.00000000000E+00  0.31767707104E+02  0.31767707104E+02  0.00000000000E+00 0.  1.
         13   -1    0    0    0    0 -0.00000000000E+00 -0.00000000000E+00 -0.10000000000E+04  0.10000000000E+04  0.00000000000E+00 0.  1.
    9000005    2    1    2  501    0 -0.11984534990E+03 -0.74494502672E+02 -0.79923580880E+03  0.81160378986E+03  0.32395704710E+01 0.  0.
         13    1    3    3    0    0 -0.87888456266E+02 -0.55322258801E+02 -0.59557304913E+03  0.60455950073E+03  0.00000000000E+00 0.  1.
          3    1    3    3  501    0 -0.31956893636E+02 -0.19172243870E+02 -0.20366275967E+03  0.20704428913E+03  0.00000000000E+00 0.  1.
         21    1    1    2  502  501  0.11984534990E+03  0.74494502672E+02 -0.16899648410E+03  0.22016391725E+03  0.00000000000E+00 0.  1.
<mgrwt>
<rscale>  1 0.30000000E+03</rscale>
<asrwt>0</asrwt>
<pdfrwt beam="1">  1        1 0.11551918E+00 0.30000000E+03</pdfrwt>
<pdfrwt beam="2">0</pdfrwt>
<totfact> 0.27574728E+01</totfact>
</mgrwt>
</event>
<event>
 6    1  0.3125838E-002  0.3000000E+03  0.7818608E-02  0.1093470E+00
          3   -1    0    0  502    0  0.00000000000E+00  0.00000000000E+00  0.25398866817E+01  0.25398866817E+01  0.00000000000E+00 0.  1.
         13   -1    0    0    0    0 -0.00000000000E+00 -0.00000000000E+00 -0.10000000000E+04  0.10000000000E+04  0.00000000000E+00 0.  1.
    9000005    2    1    2  501    0  0.46866997154E+02 -0.18217026442E+02 -0.51221667190E+03  0.51469813682E+03  0.44584294105E+01 0.  0.
         13    1    3    3    0    0  0.27063420586E+02 -0.82818492608E+01 -0.27974653936E+03  0.28117457930E+03  0.00000000000E+00 0.  1.
          3    1    3    3  501    0  0.19803576568E+02 -0.99351771808E+01 -0.23247013254E+03  0.23352355752E+03  0.00000000000E+00 0.  1.
         21    1    1    2  502  501 -0.46866997154E+02  0.18217026442E+02 -0.48524344142E+03  0.48784174986E+03  0.00000000000E+00 0.  1.
<mgrwt>
<rscale>  1 0.30000000E+03</rscale>
<asrwt>0</asrwt>
<pdfrwt beam="1">  1        3 0.92359710E-02 0.30000000E+03</pdfrwt>
<pdfrwt beam="2">0</pdfrwt>
<totfact> 0.37609449E+02</totfact>
</mgrwt>
</event>
<event>
 6    1  0.3125838E-002  0.3000000E+03  0.7818608E-02  0.1093470E+00
          1   -1    0    0  502    0  0.00000000000E+00  0.00000000000E+00  0.12327631707E+01  0.12327631707E+01  0.00000000000E+00 0.  1.
         13   -1    0    0    0    0 -0.00000000000E+00 -0.00000000000E+00 -0.10000000000E+04  0.10000000000E+04  0.00000000000E+00 0.  1.
    9000005    2    1    2  501    0  0.28107930239E+02  0.20908521990E+02 -0.49214360827E+03  0.49339940168E+03  0.32274413261E+01 0.  0.
         13    1    3    3    0    0  0.13600376818E+01  0.18033420150E+01 -0.25717502187E+02  0.25816499834E+02  0.00000000000E+00 0.  1.
          3    1    3    3  501    0  0.26747892557E+02  0.19105179975E+02 -0.46642610609E+03  0.46758290184E+03  0.00000000000E+00 0.  1.
         21    1    1    2  502  501 -0.28107930239E+02 -0.20908521990E+02 -0.50662362856E+03  0.50783336149E+03  0.00000000000E+00 0.  1.
<mgrwt>
<rscale>  1 0.30000000E+03</rscale>
<asrwt>0</asrwt>
<pdfrwt beam="1">  1        1 0.44827846E-02 0.30000000E+03</pdfrwt>
<pdfrwt beam="2">0</pdfrwt>
<totfact> 0.23193619E+03</totfact>
</mgrwt>
</event>
<event>
 6    1  0.3125838E-002  0.3000000E+03  0.7818608E-02  0.1093470E+00
          1   -1    0    0  502    0  0.00000000000E+00  0.00000000000E+00  0.75023312333E+01  0.75023312333E+01  0.00000000000E+00 0.  1.
         13   -1    0    0    0    0 -0.00000000000E+00 -0.00000000000E+00 -0.10000000000E+04  0.10000000000E+04  0.00000000000E+00 0.  1.
    9000005    2    1    2  501    0  0.57867639816E+02  0.29667181104E+02 -0.82887862159E+03  0.83143416838E+03  0.37685068274E+01 0.  0.
         13    1    3    3    0    0  0.51210804320E+02  0.25190190234E+02 -0.71610869379E+03  0.71837925463E+03  0.00000000000E+00 0.  1.
          3    1    3    3  501    0  0.66568354963E+01  0.44769908693E+01 -0.11276992780E+03  0.11305491374E+03  0.00000000000E+00 0.  1.
         21    1    1    2  502  501 -0.57867639816E+02 -0.29667181104E+02 -0.16361904718E+03  0.17606816286E+03  0.00000000000E+00 0.  1.
<mgrwt>
<rscale>  1 0.30000000E+03</rscale>
<asrwt>0</asrwt>
<pdfrwt beam="1">  1        1 0.27281262E-01 0.30000000E+03</pdfrwt>
<pdfrwt beam="2">0</pdfrwt>
<totfact> 0.19510849E+02</totfact>
</mgrwt>
</event>
<event>
 6    1  0.3125838E-002  0.3000000E+03  0.7818608E-02  0.1093470E+00
          1   -1    0    0  502    0  0.00000000000E+00  0.00000000000E+00  0.64905380334E+01  0.64905380334E+01  0.00000000000E+00 0.  1.
         13   -1    0    0    0    0 -0.00000000000E+00 -0.00000000000E+00 -0.10000000000E+04  0.10000000000E+04  0.00000000000E+00 0.  1.
    9000005    2    1    2  501    0 -0.60438516402E-01  0.30941552489E+02 -0.96138710060E+03  0.96188975976E+03  0.30609469808E+01 0.  0.
         13    1    3    3    0    0  0.54718213385E+00  0.10791952522E+01 -0.32210966385E+02  0.32233684650E+02  0.00000000000E+00 0.  1.
          1    1    3    3  501    0 -0.60762065025E+00  0.29862357237E+02 -0.92917613422E+03  0.92965607511E+03  0.00000000000E+00 0.  1.
         21    1    1    2  502  501  0.60438516402E-01 -0.30941552489E+02 -0.32122361363E+02  0.44600778276E+02  0.00000000000E+00 0.  1.
<mgrwt>
<rscale>  1 0.30000000E+03</rscale>
<asrwt>0</asrwt>
<pdfrwt beam="1">  1        1 0.23602006E-01 0.30000000E+03</pdfrwt>
<pdfrwt beam="2">0</pdfrwt>
<totfact> 0.23624229E+02</totfact>
</mgrwt>
</event>
<event>
 6    1  0.3125838E-002  0.3000000E+03  0.7818608E-02  0.1093470E+00
          1   -1    0    0  502    0  0.00000000000E+00  0.00000000000E+00  0.20771643875E+01  0.20771643875E+01  0.00000000000E+00 0.  1.
         13   -1    0    0    0    0 -0.00000000000E+00 -0.00000000000E+00 -0.10000000000E+04  0.10000000000E+04  0.00000000000E+00 0.  1.
    9000005    2    1    2  501    0 -0.29025130360E+02 -0.26619463656E+02 -0.75048369374E+03  0.75152341174E+03  0.32572654233E+01 0.  0.
         13    1    3    3    0    0 -0.15281463630E+02 -0.12299076156E+02 -0.35352074915E+03  0.35406455694E+03  0.00000000000E+00 0.  1.
          1    1    3    3  501    0 -0.13743666730E+02 -0.14320387500E+02 -0.39696294459E+03  0.39745885479E+03  0.00000000000E+00 0.  1.
         21    1    1    2  502  501  0.29025130360E+02  0.26619463656E+02 -0.24743914187E+03  0.25055375265E+03  0.00000000000E+00 0.  1.
<mgrwt>
<rscale>  1 0.30000000E+03</rscale>
<asrwt>0</asrwt>
<pdfrwt beam="1">  1        1 0.75533410E-02 0.30000000E+03</pdfrwt>
<pdfrwt beam="2">0</pdfrwt>
<totfact> 0.11157025E+03</totfact>
</mgrwt>
</event>
<event>
 6    1  0.3125838E-002  0.3000000E+03  0.7818608E-02  0.1093470E+00
          1   -1    0    0  502    0  0.00000000000E+00  0.00000000000E+00  0.21252375825E+01  0.21252375825E+01  0.00000000000E+00 0.  1.
         13   -1    0    0    0    0 -0.00000000000E+00 -0.00000000000E+00 -0.10000000000E+04  0.10000000000E+04  0.00000000000E+00 0.  1.
    9000005    2    1    2  501    0  0.24432916771E+02 -0.33260458579E+02 -0.72162167270E+03  0.72280643208E+03  0.28415179804E+01 0.  0.
         13    1    3    3    0    0  0.88046936621E+00 -0.12470725220E+01 -0.37752921455E+02  0.37783772900E+02  0.00000000000E+00 0.  1.
          3    1    3    3  501    0  0.23552447405E+02 -0.32013386057E+02 -0.68386875125E+03  0.68502265918E+03  0.00000000000E+00 0.  1.
         21    1    1    2  502  501 -0.24432916771E+02  0.33260458579E+02 -0.27625308972E+03  0.27931880550E+03  0.00000000000E+00 0.  1.
<mgrwt>
<rscale>  1 0.30000000E+03</rscale>
<asrwt>0</asrwt>
<pdfrwt beam="1">  1        1 0.77281530E-02 0.30000000E+03</pdfrwt>
<pdfrwt beam="2">0</pdfrwt>
<totfact> 0.10806600E+03</totfact>
</mgrwt>
</event>
<event>
 6    1  0.3125838E-002  0.3000000E+03  0.7818608E-02  0.1093470E+00
          1   -1    0    0  502    0  0.00000000000E+00  0.00000000000E+00  0.11014624058E+01  0.11014624058E+01  0.00000000000E+00 0.  1.
         13   -1    0    0    0    0 -0.00000000000E+00 -0.00000000000E+00 -0.10000000000E+04  0.10000000000E+04  0.00000000000E+00 0.  1.
    9000005    2    1    2  501    0 -0.29347111256E+02 -0.76164502702E+01 -0.70107674520E+03  0.70174033721E+03  0.34110047017E+01 0.  0.
         13    1    3    3    0    0 -0.46510946454E+01 -0.14375749659E+01 -0.14391032014E+03  0.14399263712E+03  0.00000000000E+00 0.  1.
          3    1    3    3  501    0 -0.24696016610E+02 -0.61788753043E+01 -0.55716642506E+03  0.55774770009E+03  0.00000000000E+00 0.  1.
         21    1    1    2  502  501  0.29347111256E+02  0.76164502702E+01 -0.29782179239E+03  0.29936112519E+03  0.00000000000E+00 0.  1.
<mgrwt>
<rscale>  1 0.30000000E+03</rscale>
<asrwt>0</asrwt>
<pdfrwt beam="1">  1        1 0.40053263E-02 0.30000000E+03</pdfrwt>
<pdfrwt beam="2">0</pdfrwt>
<totfact> 0.27178558E+03</totfact>
</mgrwt>
</event>
<event>
 6    1  0.3125838E-002  0.3000000E+03  0.7818608E-02  0.1093470E+00
          1   -1    0    0  502    0  0.00000000000E+00  0.00000000000E+00  0.14479191388E+01  0.14479191388E+01  0.00000000000E+00 0.  1.
         13   -1    0    0    0    0 -0.00000000000E+00 -0.00000000000E+00 -0.10000000000E+04  0.10000000000E+04  0.00000000000E+00 0.  1.
    9000005    2    1    2  501    0 -0.26913208154E+02 -0.20968929225E+02 -0.28043602379E+03  0.28252185327E+03  0.31964618644E+01 0.  0.
         13    1    3    3    0    0 -0.53674647393E+01 -0.34006029690E+01 -0.43824885614E+02  0.44283116166E+02  0.00000000000E+00 0.  1.
          1    1    3    3  501    0 -0.21545743415E+02 -0.17568326256E+02 -0.23661113818E+03  0.23823873710E+03  0.00000000000E+00 0.  1.
         21    1    1    2  502  501  0.26913208154E+02  0.20968929225E+02 -0.71811605707E+03  0.71892606587E+03  0.00000000000E+00 0.  1.
<mgrwt>
<rscale>  1 0.30000000E+03</rscale>
<asrwt>0</asrwt>
<pdfrwt beam="1">  1        1 0.52651716E-02 0.30000000E+03</pdfrwt>
<pdfrwt beam="2">0</pdfrwt>
<totfact> 0.18498407E+03</totfact>
</mgrwt>
</event>
<event>
 6    1  0.3125838E-002  0.3000000E+03  0.7818608E-02  0.1093470E+00
          1   -1    0    0  502    0  0.00000000000E+00  0.00000000000E+00  0.33835748853E+01  0.33835748853E+01  0.00000000000E+00 0.  1.
         13   -1    0    0    0    0 -0.00000000000E+00 -0.00000000000E+00 -0.10000000000E+04  0.10000000000E+04  0.00000000000E+00 0.  1.
    9000005    2    1    2  501    0  0.38179857846E+02 -0.27854969458E+02 -0.79053917821E+03  0.79195644191E+03  0.30352463537E+01 0.  0.
         13    1    3    3    0    0  0.40457054020E+01 -0.33554723161E+01 -0.73978011016E+02  0.74164499867E+02  0.00000000000E+00 0.  1.
          1    1    3    3  501    0  0.34134152444E+02 -0.24499497142E+02 -0.71656116720E+03  0.71779194204E+03  0.00000000000E+00 0.  1.
         21    1    1    2  502  501 -0.38179857846E+02  0.27854969458E+02 -0.20607724690E+03  0.21142713298E+03  0.00000000000E+00 0.  1.
<mgrwt>
<rscale>  1 0.30000000E+03</rscale>
<asrwt>0</asrwt>
<pdfrwt beam="1">  1        1 0.12303935E-01 0.30000000E+03</pdfrwt>
<pdfrwt beam="2">0</pdfrwt>
<totfact> 0.56835297E+02</totfact>
</mgrwt>
</event>
<event>
 6    1  0.3125838E-002  0.3000000E+03  0.7818608E-02  0.1093470E+00
          1   -1    0    0  502    0  0.00000000000E+00  0.00000000000E+00  0.17969565085E+01  0.17969565085E+01  0.00000000000E+00 0.  1.
         13   -1    0    0    0    0 -0.00000000000E+00 -0.00000000000E+00 -0.10000000000E+04  0.10000000000E+04  0.00000000000E+00 0.  1.
    9000005    2    1    2  501    0 -0.35320236591E+02 -0.85249713194E+01 -0.75303362281E+03  0.75394974735E+03  0.77711133400E+01 0.  0.
         13    1    3    3    0    0 -0.22989088976E+02 -0.76524905276E+01 -0.43288667468E+03  0.43356421893E+03  0.00000000000E+00 0.  1.
          3    1    3    3  501    0 -0.12331147615E+02 -0.87248079184E+00 -0.32014694813E+03  0.32038552842E+03  0.00000000000E+00 0.  1.
         21    1    1    2  502  501  0.35320236591E+02  0.85249713194E+01 -0.24516942068E+03  0.24784720915E+03  0.00000000000E+00 0.  1.
<mgrwt>
<rscale>  1 0.30000000E+03</rscale>
<asrwt>0</asrwt>
<pdfrwt beam="1">  1        1 0.65344011E-02 0.30000000E+03</pdfrwt>
<pdfrwt beam="2">0</pdfrwt>
<totfact> 0.13662739E+03</totfact>
</mgrwt>
</event>
<event>
 6    1  0.3125838E-002  0.3000000E+03  0.7818608E-02  0.1093470E+00
          1   -1    0    0  502    0  0.00000000000E+00  0.00000000000E+00  0.17500690226E+01  0.17500690226E+01  0.00000000000E+00 0.  1.
         13   -1    0    0    0    0 -0.00000000000E+00 -0.00000000000E+00 -0.10000000000E+04  0.10000000000E+04  0.00000000000E+00 0.  1.
    9000005    2    1    2  501    0  0.26749763403E+02  0.15220014320E+02 -0.83747306001E+03  0.83805400641E+03  0.51178836568E+01 0.  0.
         13    1    3    3    0    0  0.60001762215E+01  0.20343209394E+01 -0.13065942086E+03  0.13081293833E+03  0.00000000000E+00 0.  1.
          1    1    3    3  501    0  0.20749587182E+02  0.13185693380E+02 -0.70681363915E+03  0.70724106807E+03  0.00000000000E+00 0.  1.
         21    1    1    2  502  501 -0.26749763403E+02 -0.15220014320E+02 -0.16077687097E+03  0.16369606262E+03  0.00000000000E+00 0.  1.
<mgrwt>
<rscale>  1 0.30000000E+03</rscale>
<asrwt>0</asrwt>
<pdfrwt beam="1">  1        1 0.63639008E-02 0.30000000E+03</pdfrwt>
<pdfrwt beam="2">0</pdfrwt>
<totfact> 0.14178269E+03</totfact>
</mgrwt>
</event>
<event>
 6    1  0.3125838E-002  0.3000000E+03  0.7818608E-02  0.1093470E+00
          3   -1    0    0  502    0  0.00000000000E+00  0.00000000000E+00  0.24336235756E+01  0.24336235756E+01  0.00000000000E+00 0.  1.
         13   -1    0    0    0    0 -0.00000000000E+00 -0.00000000000E+00 -0.10000000000E+04  0.10000000000E+04  0.00000000000E+00 0.  1.
    9000005    2    1    2  501    0 -0.26172199424E+02 -0.41668323259E+02 -0.52544405386E+03  0.52775402569E+03  0.34095026715E+01 0.  0.
         13    1    3    3    0    0 -0.11761817085E+02 -0.18415279818E+02 -0.25150782963E+03  0.25245524601E+03  0.00000000000E+00 0.  1.
          3    1    3    3  501    0 -0.14410382339E+02 -0.23253043442E+02 -0.27393622422E+03  0.27529877967E+03  0.00000000000E+00 0.  1.
         21    1    1    2  502  501  0.26172199424E+02  0.41668323259E+02 -0.47212232257E+03  0.47467959789E+03  0.00000000000E+00 0.  1.
<mgrwt>
<rscale>  1 0.30000000E+03</rscale>
<asrwt>0</asrwt>
<pdfrwt beam="1">  1        3 0.88495589E-02 0.30000000E+03</pdfrwt>
<pdfrwt beam="2">0</pdfrwt>
<totfact> 0.40304932E+02</totfact>
</mgrwt>
</event>
<event>
 6    1  0.3125838E-002  0.3000000E+03  0.7818608E-02  0.1093470E+00
          1   -1    0    0  502    0  0.00000000000E+00  0.00000000000E+00  0.13448706278E+01  0.13448706278E+01  0.00000000000E+00 0.  1.
         13   -1    0    0    0    0 -0.00000000000E+00 -0.00000000000E+00 -0.10000000000E+04  0.10000000000E+04  0.00000000000E+00 0.  1.
    9000005    2    1    2  501    0  0.61279423731E+01  0.30187330963E+02 -0.77007050261E+03  0.77069414286E+03  0.34722065471E+01 0.  0.
         13    1    3    3    0    0  0.65848020519E+01  0.28265250228E+02 -0.72008708787E+03  0.72067169925E+03  0.00000000000E+00 0.  1.
          3    1    3    3  501    0 -0.45685967885E+00  0.19220807351E+01 -0.49983414745E+02  0.50022443610E+02  0.00000000000E+00 0.  1.
         21    1    1    2  502  501 -0.61279423731E+01 -0.30187330963E+02 -0.22858462676E+03  0.23065072777E+03  0.00000000000E+00 0.  1.
<mgrwt>
<rscale>  1 0.30000000E+03</rscale>
<asrwt>0</asrwt>
<pdfrwt beam="1">  1        1 0.48904490E-02 0.30000000E+03</pdfrwt>
<pdfrwt beam="2">0</pdfrwt>
<totfact> 0.20520824E+03</totfact>
</mgrwt>
</event>
<event>
 6    1  0.3125838E-002  0.3000000E+03  0.7818608E-02  0.1093470E+00
          3   -1    0    0  502    0  0.00000000000E+00  0.00000000000E+00  0.25993518160E+01  0.25993518160E+01  0.00000000000E+00 0.  1.
         13   -1    0    0    0    0 -0.00000000000E+00 -0.00000000000E+00 -0.10000000000E+04  0.10000000000E+04  0.00000000000E+00 0.  1.
    9000005    2    1    2  501    0  0.41458226076E+02  0.11354958609E+02 -0.76781929277E+03  0.76902855239E+03  0.32754289494E+01 0.  0.
         13    1    3    3    0    0  0.24134286464E+02  0.49655017768E+01 -0.43295860492E+03  0.43365916751E+03  0.00000000000E+00 0.  1.
          3    1    3    3  501    0  0.17323939612E+02  0.63894568323E+01 -0.33486068786E+03  0.33536938488E+03  0.00000000000E+00 0.  1.
         21    1    1    2  502  501 -0.41458226076E+02 -0.11354958609E+02 -0.22958135541E+03  0.23357079943E+03  0.00000000000E+00 0.  1.
<mgrwt>
<rscale>  1 0.30000000E+03</rscale>
<asrwt>0</asrwt>
<pdfrwt beam="1">  1        3 0.94522084E-02 0.30000000E+03</pdfrwt>
<pdfrwt beam="2">0</pdfrwt>
<totfact> 0.36218907E+02</totfact>
</mgrwt>
</event>
<event>
 6    1  0.3125838E-002  0.3000000E+03  0.7818608E-02  0.1093470E+00
          1   -1    0    0  502    0  0.00000000000E+00  0.00000000000E+00  0.25388865607E+01  0.25388865607E+01  0.00000000000E+00 0.  1.
         13   -1    0    0    0    0 -0.00000000000E+00 -0.00000000000E+00 -0.10000000000E+04  0.10000000000E+04  0.00000000000E+00 0.  1.
    9000005    2    1    2  501    0  0.72084669670E+01  0.42393244966E+02 -0.75982584912E+03  0.76104423225E+03  0.19629641269E+01 0.  0.
         13    1    3    3    0    0  0.32217842904E+01  0.19927873264E+02 -0.37380158340E+03  0.37434626187E+03  0.00000000000E+00 0.  1.
          3    1    3    3  501    0  0.39866826766E+01  0.22465371702E+02 -0.38602426572E+03  0.38669797037E+03  0.00000000000E+00 0.  1.
         21    1    1    2  502  501 -0.72084669670E+01 -0.42393244966E+02 -0.23763526432E+03  0.24149465431E+03  0.00000000000E+00 0.  1.
<mgrwt>
<rscale>  1 0.30000000E+03</rscale>
<asrwt>0</asrwt>
<pdfrwt beam="1">  1        1 0.92323342E-02 0.30000000E+03</pdfrwt>
<pdfrwt beam="2">0</pdfrwt>
<totfact> 0.84402483E+02</totfact>
</mgrwt>
</event>
<event>
 6    1  0.3125838E-002  0.3000000E+03  0.7818608E-02  0.1093470E+00
          1   -1    0    0  502    0  0.00000000000E+00  0.00000000000E+00  0.36221455516E+01  0.36221455516E+01  0.00000000000E+00 0.  1.
         13   -1    0    0    0    0 -0.00000000000E+00 -0.00000000000E+00 -0.10000000000E+04  0.10000000000E+04  0.00000000000E+00 0.  1.
    9000005    2    1    2  501    0 -0.54831642575E+02  0.82936439314E+01 -0.69165816761E+03  0.69389745957E+03  0.52316368684E+01 0.  0.
         13    1    3    3    0    0 -0.50339265533E+02  0.62628981737E+01 -0.63780219744E+03  0.63981630849E+03  0.00000000000E+00 0.  1.
          1    1    3    3  501    0 -0.44923770417E+01  0.20307457577E+01 -0.53855970169E+02  0.54081151085E+02  0.00000000000E+00 0.  1.
         21    1    1    2  502  501  0.54831642575E+02 -0.82936439314E+01 -0.30471968684E+03  0.30972468598E+03  0.00000000000E+00 0.  1.
<mgrwt>
<rscale>  1 0.30000000E+03</rscale>
<asrwt>0</asrwt>
<pdfrwt beam="1">  1        1 0.13171466E-01 0.30000000E+03</pdfrwt>
<pdfrwt beam="2">0</pdfrwt>
<totfact> 0.51778699E+02</totfact>
</mgrwt>
</event>
<event>
 6    1  0.3125838E-002  0.3000000E+03  0.7818608E-02  0.1093470E+00
          3   -1    0    0  502    0  0.00000000000E+00  0.00000000000E+00  0.33705639435E+01  0.33705639435E+01  0.00000000000E+00 0.  1.
         13   -1    0    0    0    0 -0.00000000000E+00 -0.00000000000E+00 -0.10000000000E+04  0.10000000000E+04  0.00000000000E+00 0.  1.
    9000005    2    1    2  501    0 -0.28202972909E+02 -0.17362326918E+02 -0.91004409852E+03  0.91066738842E+03  0.61622229963E+01 0.  0.
         13    1    3    3    0    0 -0.68742067069E+01 -0.70403462106E+01 -0.30814682223E+03  0.30830388458E+03  0.00000000000E+00 0.  1.
          1    1    3    3  501    0 -0.21328766203E+02 -0.10321980708E+02 -0.60189727629E+03  0.60236350384E+03  0.00000000000E+00 0.  1.
         21    1    1    2  502  501  0.28202972909E+02  0.17362326918E+02 -0.86585337534E+02  0.92703175527E+02  0.00000000000E+00 0.  1.
<mgrwt>
<rscale>  1 0.30000000E+03</rscale>
<asrwt>0</asrwt>
<pdfrwt beam="1">  1        3 0.12256622E-01 0.30000000E+03</pdfrwt>
<pdfrwt beam="2">0</pdfrwt>
<totfact> 0.23506875E+02</totfact>
</mgrwt>
</event>
<event>
 6    1  0.3125838E-002  0.3000000E+03  0.7818608E-02  0.1093470E+00
          1   -1    0    0  502    0  0.00000000000E+00  0.00000000000E+00  0.17023424739E+01  0.17023424739E+01  0.00000000000E+00 0.  1.
         13   -1    0    0    0    0 -0.00000000000E+00 -0.00000000000E+00 -0.10000000000E+04  0.10000000000E+04  0.00000000000E+00 0.  1.
    9000005    2    1    2  501    0  0.32026096036E+02 -0.19010304038E+02 -0.71337330129E+03  0.71435420647E+03  0.36609868240E+01 0.  0.
         13    1    3    3    0    0  0.81332480305E+00  0.41826075434E-01 -0.21174589509E+02  0.21190245104E+02  0.00000000000E+00 0.  1.
          1    1    3    3  501    0  0.31212771233E+02 -0.19052130113E+02 -0.69219871178E+03  0.69316396136E+03  0.00000000000E+00 0.  1.
         21    1    1    2  502  501 -0.32026096036E+02  0.19010304038E+02 -0.28492435624E+03  0.28734813601E+03  0.00000000000E+00 0.  1.
<mgrwt>
<rscale>  1 0.30000000E+03</rscale>
<asrwt>0</asrwt>
<pdfrwt beam="1">  1        1 0.61903493E-02 0.30000000E+03</pdfrwt>
<pdfrwt beam="2">0</pdfrwt>
<totfact> 0.14738543E+03</totfact>
</mgrwt>
</event>
<event>
 6    1  0.3125838E-002  0.3000000E+03  0.7818608E-02  0.1093470E+00
          1   -1    0    0  502    0  0.00000000000E+00  0.00000000000E+00  0.14231948970E+02  0.14231948970E+02  0.00000000000E+00 0.  1.
         13   -1    0    0    0    0 -0.00000000000E+00 -0.00000000000E+00 -0.10000000000E+04  0.10000000000E+04  0.00000000000E+00 0.  1.
    9000005    2    1    2  501    0  0.82168549300E+02 -0.81079284967E+02 -0.62057542707E+03  0.63122911146E+03  0.32877848783E+01 0.  0.
         13    1    3    3    0    0  0.19704567075E+02 -0.17740750912E+02 -0.13888726322E+03  0.14139545994E+03  0.00000000000E+00 0.  1.
          1    1    3    3  501    0  0.62463982224E+02 -0.63338534055E+02 -0.48168816385E+03  0.48983365153E+03  0.00000000000E+00 0.  1.
         21    1    1    2  502  501 -0.82168549300E+02  0.81079284967E+02 -0.36519262396E+03  0.38300283751E+03  0.00000000000E+00 0.  1.
<mgrwt>
<rscale>  1 0.30000000E+03</rscale>
<asrwt>0</asrwt>
<pdfrwt beam="1">  1        1 0.51752651E-01 0.30000000E+03</pdfrwt>
<pdfrwt beam="2">0</pdfrwt>
<totfact> 0.84338991E+01</totfact>
</mgrwt>
</event>
<event>
 6    1  0.3125838E-002  0.3000000E+03  0.7818608E-02  0.1093470E+00
          1   -1    0    0  502    0  0.00000000000E+00  0.00000000000E+00  0.16585792176E+01  0.16585792176E+01  0.00000000000E+00 0.  1.
         13   -1    0    0    0    0 -0.00000000000E+00 -0.00000000000E+00 -0.10000000000E+04  0.10000000000E+04  0.00000000000E+00 0.  1.
    9000005    2    1    2  501    0  0.10145725579E+02  0.37427518892E+02 -0.36398439516E+03  0.36611739969E+03  0.73181635958E+01 0.  0.
         13    1    3    3    0    0  0.70649067166E+01  0.34476992821E+02 -0.32308117123E+03  0.32499233706E+03  0.00000000000E+00 0.  1.
          1    1    3    3  501    0  0.30808188621E+01  0.29505260706E+01 -0.40903223925E+02  0.41125062631E+02  0.00000000000E+00 0.  1.
         21    1    1    2  502  501 -0.10145725579E+02 -0.37427518892E+02 -0.63435702563E+03  0.63554117953E+03  0.00000000000E+00 0.  1.
<mgrwt>
<rscale>  1 0.30000000E+03</rscale>
<asrwt>0</asrwt>
<pdfrwt beam="1">  1        1 0.60312099E-02 0.30000000E+03</pdfrwt>
<pdfrwt beam="2">0</pdfrwt>
<totfact> 0.15286792E+03</totfact>
</mgrwt>
</event>
<event>
 6    1  0.3125838E-002  0.3000000E+03  0.7818608E-02  0.1093470E+00
          1   -1    0    0  502    0  0.00000000000E+00  0.00000000000E+00  0.23405894052E+01  0.23405894052E+01  0.00000000000E+00 0.  1.
         13   -1    0    0    0    0 -0.00000000000E+00 -0.00000000000E+00 -0.10000000000E+04  0.10000000000E+04  0.00000000000E+00 0.  1.
    9000005    2    1    2  501    0 -0.46427570428E+02  0.60663628488E+01 -0.37578688426E+03  0.37870787774E+03  0.33991503715E+01 0.  0.
         13    1    3    3    0    0 -0.12840989846E+02  0.68687031211E+00 -0.11267189726E+03  0.11340334758E+03  0.00000000000E+00 0.  1.
          1    1    3    3  501    0 -0.33586580582E+02  0.53794925367E+01 -0.26311498700E+03  0.26530453015E+03  0.00000000000E+00 0.  1.
         21    1    1    2  502  501  0.46427570428E+02 -0.60663628488E+01 -0.62187252633E+03  0.62363271167E+03  0.00000000000E+00 0.  1.
<mgrwt>
<rscale>  1 0.30000000E+03</rscale>
<asrwt>0</asrwt>
<pdfrwt beam="1">  1        1 0.85112521E-02 0.30000000E+03</pdfrwt>
<pdfrwt beam="2">0</pdfrwt>
<totfact> 0.94482985E+02</totfact>
</mgrwt>
</event>
<event>
 6    1  0.3125838E-002  0.3000000E+03  0.7818608E-02  0.1093470E+00
          1   -1    0    0  502    0  0.00000000000E+00  0.00000000000E+00  0.68239320168E+01  0.68239320168E+01  0.00000000000E+00 0.  1.
         13   -1    0    0    0    0 -0.00000000000E+00 -0.00000000000E+00 -0.10000000000E+04  0.10000000000E+04  0.00000000000E+00 0.  1.
    9000005    2    1    2  501    0  0.62286891872E+02 -0.39231664793E+02 -0.72476436957E+03  0.72850106148E+03  0.34095088611E+01 0.  0.
         13    1    3    3    0    0  0.37276261420E+02 -0.21497296183E+02 -0.42436514701E+03  0.42654124233E+03  0.00000000000E+00 0.  1.
          3    1    3    3  501    0  0.25010630452E+02 -0.17734368610E+02 -0.30039922256E+03  0.30195981915E+03  0.00000000000E+00 0.  1.
         21    1    1    2  502  501 -0.62286891872E+02  0.39231664793E+02 -0.26841169841E+03  0.27832287054E+03  0.00000000000E+00 0.  1.
<mgrwt>
<rscale>  1 0.30000000E+03</rscale>
<asrwt>0</asrwt>
<pdfrwt beam="1">  1        1 0.24814351E-01 0.30000000E+03</pdfrwt>
<pdfrwt beam="2">0</pdfrwt>
<totfact> 0.22110261E+02</totfact>
</mgrwt>
</event>
<event>
 6    1  0.3125838E-002  0.3000000E+03  0.7818608E-02  0.1093470E+00
          3   -1    0    0  502    0  0.00000000000E+00  0.00000000000E+00  0.56687149094E+01  0.56687149094E+01  0.00000000000E+00 0.  1.
         13   -1    0    0    0    0 -0.00000000000E+00 -0.00000000000E+00 -0.10000000000E+04  0.10000000000E+04  0.00000000000E+00 0.  1.
    9000005    2    1    2  501    0 -0.11328595330E+02 -0.32883278155E+02 -0.94308894828E+03  0.94373791372E+03  0.38520601697E+01 0.  0.
         13    1    3    3    0    0 -0.40724379758E+00 -0.88214008624E+00 -0.49325037181E+02  0.49334605619E+02  0.00000000000E+00 0.  1.
          3    1    3    3  501    0 -0.10921351532E+02 -0.32001138069E+02 -0.89376391110E+03  0.89440330810E+03  0.00000000000E+00 0.  1.
         21    1    1    2  502  501  0.11328595330E+02  0.32883278155E+02 -0.51242336813E+02  0.61930801193E+02  0.00000000000E+00 0.  1.
<mgrwt>
<rscale>  1 0.30000000E+03</rscale>
<asrwt>0</asrwt>
<pdfrwt beam="1">  1        3 0.20613552E-01 0.30000000E+03</pdfrwt>
<pdfrwt beam="2">0</pdfrwt>
<totfact> 0.94590702E+01</totfact>
</mgrwt>
</event>
<event>
 6    1  0.3502118E-002  0.3000000E+03  0.7818608E-02  0.1093470E+00
          3   -1    0    0  502    0  0.00000000000E+00  0.00000000000E+00  0.12473190680E+01  0.12473190680E+01  0.00000000000E+00 0.  1.
         13   -1    0    0    0    0 -0.00000000000E+00 -0.00000000000E+00 -0.10000000000E+04  0.10000000000E+04  0.00000000000E+00 0.  1.
    9000005    2    1    2  501    0  0.33044889773E+02 -0.96952911997E+01 -0.51143910064E+03  0.51271841619E+03  0.11147072438E+02 0.  0.
         13    1    3    3    0    0  0.15647912397E+02 -0.10057589426E+02 -0.29070312739E+03  0.29129764939E+03  0.00000000000E+00 0.  1.
          3    1    3    3  501    0  0.17396977376E+02  0.36229822589E+00 -0.22073597325E+03  0.22142076680E+03  0.00000000000E+00 0.  1.
         21    1    1    2  502  501 -0.33044889773E+02  0.96952911997E+01 -0.48731358029E+03  0.48852890288E+03  0.00000000000E+00 0.  1.
<mgrwt>
<rscale>  1 0.30000000E+03</rscale>
<asrwt>0</asrwt>
<pdfrwt beam="1">  1        3 0.45357153E-02 0.30000000E+03</pdfrwt>
<pdfrwt beam="2">0</pdfrwt>
<totfact> 0.11499800E+03</totfact>
</mgrwt>
</event>
<event>
 6    1  0.3125838E-002  0.3000000E+03  0.7818608E-02  0.1093470E+00
          1   -1    0    0  502    0  0.00000000000E+00  0.00000000000E+00  0.44324226880E+01  0.44324226880E+01  0.00000000000E+00 0.  1.
         13   -1    0    0    0    0 -0.00000000000E+00 -0.00000000000E+00 -0.10000000000E+04  0.10000000000E+04  0.00000000000E+00 0.  1.
    9000005    2    1    2  501    0  0.25942082760E+02  0.16706205727E+02 -0.94275136870E+03  0.94326346929E+03  0.37067967683E+01 0.  0.
         13    1    3    3    0    0  0.94344219913E+01  0.55178882615E+01 -0.38750554716E+03  0.38765965032E+03  0.00000000000E+00 0.  1.
          3    1    3    3  501    0  0.16507660769E+02  0.11188317465E+02 -0.55524582155E+03  0.55560381897E+03  0.00000000000E+00 0.  1.
         21    1    1    2  502  501 -0.25942082760E+02 -0.16706205727E+02 -0.52816208610E+02  0.61168953396E+02  0.00000000000E+00 0.  1.
<mgrwt>
<rscale>  1 0.30000000E+03</rscale>
<asrwt>0</asrwt>
<pdfrwt beam="1">  1        1 0.16117935E-01 0.30000000E+03</pdfrwt>
<pdfrwt beam="2">0</pdfrwt>
<totfact> 0.39353326E+02</totfact>
</mgrwt>
</event>
<event>
 6    1  0.3125838E-002  0.3000000E+03  0.7818608E-02  0.1093470E+00
          1   -1    0    0  502    0  0.00000000000E+00  0.00000000000E+00  0.31851476773E+01  0.31851476773E+01  0.00000000000E+00 0.  1.
         13   -1    0    0    0    0 -0.00000000000E+00 -0.00000000000E+00 -0.10000000000E+04  0.10000000000E+04  0.00000000000E+00 0.  1.
    9000005    2    1    2  501    0  0.43508994811E+02 -0.79340841337E+01 -0.80959318522E+03  0.81081068224E+03  0.41054299509E+01 0.  0.
         13    1    3    3    0    0  0.36368324528E+02 -0.68158716674E+01 -0.64739089171E+03  0.64844743642E+03  0.00000000000E+00 0.  1.
          3    1    3    3  501    0  0.71406702832E+01 -0.11182124662E+01 -0.16220229351E+03  0.16236324581E+03  0.00000000000E+00 0.  1.
         21    1    1    2  502  501 -0.43508994811E+02  0.79340841337E+01 -0.18722166710E+03  0.19237446544E+03  0.00000000000E+00 0.  1.
<mgrwt>
<rscale>  1 0.30000000E+03</rscale>
<asrwt>0</asrwt>
<pdfrwt beam="1">  1        1 0.11582380E-01 0.30000000E+03</pdfrwt>
<pdfrwt beam="2">0</pdfrwt>
<totfact> 0.61744857E+02</totfact>
</mgrwt>
</event>
<event>
 6    1  0.3125838E-002  0.3000000E+03  0.7818608E-02  0.1093470E+00
          1   -1    0    0  502    0  0.00000000000E+00  0.00000000000E+00  0.29687822910E+01  0.29687822910E+01  0.00000000000E+00 0.  1.
         13   -1    0    0    0    0 -0.00000000000E+00 -0.00000000000E+00 -0.10000000000E+04  0.10000000000E+04  0.00000000000E+00 0.  1.
    9000005    2    1    2  501    0 -0.92813434653E+01 -0.30955168979E+02 -0.90210518527E+03  0.90269257645E+03  0.39694415593E+01 0.  0.
         13    1    3    3    0    0 -0.72143180431E+01 -0.17279343073E+02 -0.51233408531E+03  0.51267615222E+03  0.00000000000E+00 0.  1.
          3    1    3    3  501    0 -0.20670254222E+01 -0.13675825906E+02 -0.38977109995E+03  0.39001642423E+03  0.00000000000E+00 0.  1.
         21    1    1    2  502  501  0.92813434653E+01  0.30955168979E+02 -0.94926032441E+02  0.10027620584E+03  0.00000000000E+00 0.  1.
<mgrwt>
<rscale>  1 0.30000000E+03</rscale>
<asrwt>0</asrwt>
<pdfrwt beam="1">  1        1 0.10795595E-01 0.30000000E+03</pdfrwt>
<pdfrwt beam="2">0</pdfrwt>
<totfact> 0.68008682E+02</totfact>
</mgrwt>
</event>
<event>
 6    1  0.3125838E-002  0.3000000E+03  0.7818608E-02  0.1093470E+00
          1   -1    0    0  502    0  0.00000000000E+00  0.00000000000E+00  0.11295821925E+01  0.11295821925E+01  0.00000000000E+00 0.  1.
         13   -1    0    0    0    0 -0.00000000000E+00 -0.00000000000E+00 -0.10000000000E+04  0.10000000000E+04  0.00000000000E+00 0.  1.
    9000005    2    1    2  501    0 -0.19324516878E+02 -0.26575423551E+02 -0.40077665659E+03  0.40213389165E+03  0.31698976300E+01 0.  0.
         13    1    3    3    0    0 -0.59365402194E+01 -0.65353504278E+01 -0.95403607277E+02  0.95811281155E+02  0.00000000000E+00 0.  1.
          1    1    3    3  501    0 -0.13387976659E+02 -0.20040073124E+02 -0.30537304932E+03  0.30632261049E+03  0.00000000000E+00 0.  1.
         21    1    1    2  502  501  0.19324516878E+02  0.26575423551E+02 -0.59809376121E+03  0.59899569055E+03  0.00000000000E+00 0.  1.
<mgrwt>
<rscale>  1 0.30000000E+03</rscale>
<asrwt>0</asrwt>
<pdfrwt beam="1">  1        1 0.41075803E-02 0.30000000E+03</pdfrwt>
<pdfrwt beam="2">0</pdfrwt>
<totfact> 0.26230802E+03</totfact>
</mgrwt>
</event>
<event>
 6    1  0.3125838E-002  0.3000000E+03  0.7818608E-02  0.1093470E+00
          1   -1    0    0  502    0  0.00000000000E+00  0.00000000000E+00  0.36988998523E+01  0.36988998523E+01  0.00000000000E+00 0.  1.
         13   -1    0    0    0    0 -0.00000000000E+00 -0.00000000000E+00 -0.10000000000E+04  0.10000000000E+04  0.00000000000E+00 0.  1.
    9000005    2    1    2  501    0 -0.37352299956E+02  0.31881554184E+02 -0.79400885888E+03  0.79553123021E+03  0.28709654553E+01 0.  0.
         13    1    3    3    0    0 -0.57691372407E+01  0.37090373387E+01 -0.10497820032E+03  0.10520200780E+03  0.00000000000E+00 0.  1.
          1    1    3    3  501    0 -0.31583162715E+02  0.28172516845E+02 -0.68903065856E+03  0.69032922241E+03  0.00000000000E+00 0.  1.
         21    1    1    2  502  501  0.37352299956E+02 -0.31881554184E+02 -0.20229224126E+03  0.20816766964E+03  0.00000000000E+00 0.  1.
<mgrwt>
<rscale>  1 0.30000000E+03</rscale>
<asrwt>0</asrwt>
<pdfrwt beam="1">  1        1 0.13450573E-01 0.30000000E+03</pdfrwt>
<pdfrwt beam="2">0</pdfrwt>
<totfact> 0.50318020E+02</totfact>
</mgrwt>
</event>
<event>
 6    1  0.3125838E-002  0.3000000E+03  0.7818608E-02  0.1093470E+00
          1   -1    0    0  502    0  0.00000000000E+00  0.00000000000E+00  0.15018063497E+01  0.15018063497E+01  0.00000000000E+00 0.  1.
         13   -1    0    0    0    0 -0.00000000000E+00 -0.00000000000E+00 -0.10000000000E+04  0.10000000000E+04  0.00000000000E+00 0.  1.
    9000005    2    1    2  501    0  0.23878337755E+02  0.27709570874E+02 -0.66006169746E+03  0.66109431923E+03  0.51243668618E+01 0.  0.
         13    1    3    3    0    0  0.64318861115E+01  0.49162543327E+01 -0.17011560718E+03  0.17030812818E+03  0.00000000000E+00 0.  1.
          1    1    3    3  501    0  0.17446451644E+02  0.22793316541E+02 -0.48994609028E+03  0.49078619106E+03  0.00000000000E+00 0.  1.
         21    1    1    2  502  501 -0.23878337755E+02 -0.27709570874E+02 -0.33843649619E+03  0.34040748712E+03  0.00000000000E+00 0.  1.
<mgrwt>
<rscale>  1 0.30000000E+03</rscale>
<asrwt>0</asrwt>
<pdfrwt beam="1">  1        1 0.54611255E-02 0.30000000E+03</pdfrwt>
<pdfrwt beam="2">0</pdfrwt>
<totfact> 0.17572958E+03</totfact>
</mgrwt>
</event>
<event>
 6    1  0.3125838E-002  0.3000000E+03  0.7818608E-02  0.1093470E+00
          1   -1    0    0  502    0  0.00000000000E+00  0.00000000000E+00  0.17944727618E+02  0.17944727618E+02  0.00000000000E+00 0.  1.
         13   -1    0    0    0    0 -0.00000000000E+00 -0.00000000000E+00 -0.10000000000E+04  0.10000000000E+04  0.00000000000E+00 0.  1.
    9000005    2    1    2  501    0  0.76787917626E+02  0.27383131294E+02 -0.89487420496E+03  0.89858494088E+03  0.29720539946E+01 0.  0.
         13    1    3    3    0    0  0.76746459190E+02  0.27288116082E+02 -0.89273196557E+03  0.89644019467E+03  0.00000000000E+00 0.  1.
          1    1    3    3  501    0  0.41458436692E-01  0.95015211643E-01 -0.21422393895E+01  0.21447462074E+01  0.00000000000E+00 0.  1.
         21    1    1    2  502  501 -0.76787917626E+02 -0.27383131294E+02 -0.87181067427E+02  0.11935978674E+03  0.00000000000E+00 0.  1.
<mgrwt>
<rscale>  1 0.30000000E+03</rscale>
<asrwt>0</asrwt>
<pdfrwt beam="1">  1        1 0.65253693E-01 0.30000000E+03</pdfrwt>
<pdfrwt beam="2">0</pdfrwt>
<totfact> 0.61990035E+01</totfact>
</mgrwt>
</event>
<event>
 6    1  0.3405334E-002  0.3000000E+03  0.7818608E-02  0.1093470E+00
          1   -1    0    0  502    0  0.00000000000E+00  0.00000000000E+00  0.73688463338E+01  0.73688463338E+01  0.00000000000E+00 0.  1.
         13   -1    0    0    0    0 -0.00000000000E+00 -0.00000000000E+00 -0.10000000000E+04  0.10000000000E+04  0.00000000000E+00 0.  1.
    9000005    2    1    2  501    0  0.27646455633E+01  0.50060308231E+02 -0.90479414179E+03  0.90623023659E+03  0.93340757185E+01 0.  0.
         13    1    3    3    0    0  0.29989186588E+01  0.42608606452E+02 -0.81886584236E+03  0.81997911842E+03  0.00000000000E+00 0.  1.
          1    1    3    3  501    0 -0.23427309555E+00  0.74517017784E+01 -0.85928299428E+02  0.86251118171E+02  0.00000000000E+00 0.  1.
         21    1    1    2  502  501 -0.27646455633E+01 -0.50060308231E+02 -0.87837011874E+02  0.10113860974E+03  0.00000000000E+00 0.  1.
<mgrwt>
<rscale>  1 0.30000000E+03</rscale>
<asrwt>0</asrwt>
<pdfrwt beam="1">  1        1 0.26795861E-01 0.30000000E+03</pdfrwt>
<pdfrwt beam="2">0</pdfrwt>
<totfact> 0.19977663E+02</totfact>
</mgrwt>
</event>
<event>
 6    1  0.3125838E-002  0.3000000E+03  0.7818608E-02  0.1093470E+00
          1   -1    0    0  502    0  0.00000000000E+00  0.00000000000E+00  0.54394211312E+01  0.54394211312E+01  0.00000000000E+00 0.  1.
         13   -1    0    0    0    0 -0.00000000000E+00 -0.00000000000E+00 -0.10000000000E+04  0.10000000000E+04  0.00000000000E+00 0.  1.
    9000005    2    1    2  501    0  0.53342848880E+02 -0.27618600198E+02 -0.78877144922E+03  0.79106262089E+03  0.33800071414E+01 0.  0.
         13    1    3    3    0    0  0.42965008504E+01 -0.31813598569E+01 -0.64457089731E+02  0.64678415153E+02  0.00000000000E+00 0.  1.
          1    1    3    3  501    0  0.49046348030E+02 -0.24437240341E+02 -0.72431435949E+03  0.72638420573E+03  0.00000000000E+00 0.  1.
         21    1    1    2  502  501 -0.53342848880E+02  0.27618600198E+02 -0.20578912964E+03  0.21437680024E+03  0.00000000000E+00 0.  1.
<mgrwt>
<rscale>  1 0.30000000E+03</rscale>
<asrwt>0</asrwt>
<pdfrwt beam="1">  1        1 0.19779755E-01 0.30000000E+03</pdfrwt>
<pdfrwt beam="2">0</pdfrwt>
<totfact> 0.29881017E+02</totfact>
</mgrwt>
</event>
<event>
 6    1  0.3125838E-002  0.3000000E+03  0.7818608E-02  0.1093470E+00
          1   -1    0    0  502    0  0.00000000000E+00  0.00000000000E+00  0.21826846158E+01  0.21826846158E+01  0.00000000000E+00 0.  1.
         13   -1    0    0    0    0 -0.00000000000E+00 -0.00000000000E+00 -0.10000000000E+04  0.10000000000E+04  0.00000000000E+00 0.  1.
    9000005    2    1    2  501    0 -0.26948943345E+02  0.36016379057E+02 -0.62730226861E+03  0.62894706869E+03  0.65462894312E+01 0.  0.
         13    1    3    3    0    0 -0.66291430987E+01  0.97801697834E+01 -0.20691148909E+03  0.20724855024E+03  0.00000000000E+00 0.  1.
          1    1    3    3  501    0 -0.20319800247E+02  0.26236209274E+02 -0.42039077953E+03  0.42169851846E+03  0.00000000000E+00 0.  1.
         21    1    1    2  502  501  0.26948943345E+02 -0.36016379057E+02 -0.37051504677E+03  0.37323561592E+03  0.00000000000E+00 0.  1.
<mgrwt>
<rscale>  1 0.30000000E+03</rscale>
<asrwt>0</asrwt>
<pdfrwt beam="1">  1        1 0.79370517E-02 0.30000000E+03</pdfrwt>
<pdfrwt beam="2">0</pdfrwt>
<totfact> 0.10412331E+03</totfact>
</mgrwt>
</event>
<event>
 6    1  0.3125838E-002  0.3000000E+03  0.7818608E-02  0.1093470E+00
          1   -1    0    0  502    0  0.00000000000E+00  0.00000000000E+00  0.20408118758E+01  0.20408118758E+01  0.00000000000E+00 0.  1.
         13   -1    0    0    0    0 -0.00000000000E+00 -0.00000000000E+00 -0.10000000000E+04  0.10000000000E+04  0.00000000000E+00 0.  1.
    9000005    2    1    2  501    0 -0.15258164311E+02 -0.40724669363E+02 -0.63284291161E+03  0.63434364620E+03  0.32249685442E+01 0.  0.
         13    1    3    3    0    0 -0.20833352060E+01 -0.92411899133E+01 -0.13301661213E+03  0.13335351131E+03  0.00000000000E+00 0.  1.
          1    1    3    3  501    0 -0.13174829105E+02 -0.31483479449E+02 -0.49982629948E+03  0.50099013489E+03  0.00000000000E+00 0.  1.
         21    1    1    2  502  501  0.15258164311E+02  0.40724669363E+02 -0.36511627651E+03  0.36769716568E+03  0.00000000000E+00 0.  1.
<mgrwt>
<rscale>  1 0.30000000E+03</rscale>
<asrwt>0</asrwt>
<pdfrwt beam="1">  1        1 0.74211497E-02 0.30000000E+03</pdfrwt>
<pdfrwt beam="2">0</pdfrwt>
<totfact> 0.11435408E+03</totfact>
</mgrwt>
</event>
<event>
 6    1  0.3125838E-002  0.3000000E+03  0.7818608E-02  0.1093470E+00
          1   -1    0    0  502    0  0.00000000000E+00  0.00000000000E+00  0.19975084840E+01  0.19975084840E+01  0.00000000000E+00 0.  1.
         13   -1    0    0    0    0 -0.00000000000E+00 -0.00000000000E+00 -0.10000000000E+04  0.10000000000E+04  0.00000000000E+00 0.  1.
    9000005    2    1    2  501    0  0.37315894826E+02 -0.11584867592E+01 -0.77387647190E+03  0.77478331270E+03  0.32511190093E+01 0.  0.
         13    1    3    3    0    0  0.65035976972E+01  0.40308652018E+00 -0.11411455247E+03  0.11430043896E+03  0.00000000000E+00 0.  1.
          3    1    3    3  501    0  0.30812297129E+02 -0.15615732794E+01 -0.65976191943E+03  0.66048287374E+03  0.00000000000E+00 0.  1.
         21    1    1    2  502  501 -0.37315894826E+02  0.11584867592E+01 -0.22412601961E+03  0.22721419578E+03  0.00000000000E+00 0.  1.
<mgrwt>
<rscale>  1 0.30000000E+03</rscale>
<asrwt>0</asrwt>
<pdfrwt beam="1">  1        1 0.72636825E-02 0.30000000E+03</pdfrwt>
<pdfrwt beam="2">0</pdfrwt>
<totfact> 0.11783128E+03</totfact>
</mgrwt>
</event>
<event>
 6    1  0.3125838E-002  0.3000000E+03  0.7818608E-02  0.1093470E+00
          1   -1    0    0  502    0  0.00000000000E+00  0.00000000000E+00  0.15003700034E+01  0.15003700034E+01  0.00000000000E+00 0.  1.
         13   -1    0    0    0    0 -0.00000000000E+00 -0.00000000000E+00 -0.10000000000E+04  0.10000000000E+04  0.00000000000E+00 0.  1.
    9000005    2    1    2  501    0  0.42132654894E+01 -0.33364313073E+02 -0.25389485986E+03  0.25613657111E+03  0.35233794868E+01 0.  0.
         13    1    3    3    0    0  0.13885435979E+01 -0.46931309339E+01 -0.30181025234E+02  0.30575281119E+02  0.00000000000E+00 0.  1.
          3    1    3    3  501    0  0.28247218916E+01 -0.28671182139E+02 -0.22371383462E+03  0.22556128999E+03  0.00000000000E+00 0.  1.
         21    1    1    2  502  501 -0.42132654894E+01  0.33364313073E+02 -0.74460477014E+03  0.74536379890E+03  0.00000000000E+00 0.  1.
<mgrwt>
<rscale>  1 0.30000000E+03</rscale>
<asrwt>0</asrwt>
<pdfrwt beam="1">  1        1 0.54559024E-02 0.30000000E+03</pdfrwt>
<pdfrwt beam="2">0</pdfrwt>
<totfact> 0.17596588E+03</totfact>
</mgrwt>
</event>
<event>
 6    1  0.3125838E-002  0.3000000E+03  0.7818608E-02  0.1093470E+00
          1   -1    0    0  502    0  0.00000000000E+00  0.00000000000E+00  0.17067480868E+01  0.17067480868E+01  0.00000000000E+00 0.  1.
         13   -1    0    0    0    0 -0.00000000000E+00 -0.00000000000E+00 -0.10000000000E+04  0.10000000000E+04  0.00000000000E+00 0.  1.
    9000005    2    1    2  501    0 -0.14407191781E+01 -0.35759805591E+02 -0.74606205699E+03  0.74694918675E+03  0.66072182986E+01 0.  0.
         13    1    3    3    0    0  0.81262279964E-01 -0.32321406382E+02 -0.69351212401E+03  0.69426489618E+03  0.00000000000E+00 0.  1.
          1    1    3    3  501    0 -0.15219814580E+01 -0.34383992082E+01 -0.52549932976E+02  0.52684290566E+02  0.00000000000E+00 0.  1.
         21    1    1    2  502  501  0.14407191781E+01  0.35759805591E+02 -0.25223119492E+03  0.25475756134E+03  0.00000000000E+00 0.  1.
<mgrwt>
<rscale>  1 0.30000000E+03</rscale>
<asrwt>0</asrwt>
<pdfrwt beam="1">  1        1 0.62063698E-02 0.30000000E+03</pdfrwt>
<pdfrwt beam="2">0</pdfrwt>
<totfact> 0.14685232E+03</totfact>
</mgrwt>
</event>
<event>
 6    1  0.3125838E-002  0.3000000E+03  0.7818608E-02  0.1093470E+00
          1   -1    0    0  502    0  0.00000000000E+00  0.00000000000E+00  0.53012479613E+01  0.53012479613E+01  0.00000000000E+00 0.  1.
         13   -1    0    0    0    0 -0.00000000000E+00 -0.00000000000E+00 -0.10000000000E+04  0.10000000000E+04  0.00000000000E+00 0.  1.
    9000005    2    1    2  501    0  0.52957391346E+02 -0.35154811814E+02 -0.74041653128E+03  0.74319479271E+03  0.90285116747E+01 0.  0.
         13    1    3    3    0    0  0.47915565451E+02 -0.32519970770E+02 -0.69807556021E+03  0.70047336686E+03  0.00000000000E+00 0.  1.
          1    1    3    3  501    0  0.50418258950E+01 -0.26348410433E+01 -0.42340971070E+02  0.42721425852E+02  0.00000000000E+00 0.  1.
         21    1    1    2  502  501 -0.52957391346E+02  0.35154811814E+02 -0.25428222076E+03  0.26210645525E+03  0.00000000000E+00 0.  1.
<mgrwt>
<rscale>  1 0.30000000E+03</rscale>
<asrwt>0</asrwt>
<pdfrwt beam="1">  1        1 0.19277306E-01 0.30000000E+03</pdfrwt>
<pdfrwt beam="2">0</pdfrwt>
<totfact> 0.30928357E+02</totfact>
</mgrwt>
</event>
<event>
 6    1  0.3125838E-002  0.3000000E+03  0.7818608E-02  0.1093470E+00
          1   -1    0    0  502    0  0.00000000000E+00  0.00000000000E+00  0.17605590690E+01  0.17605590690E+01  0.00000000000E+00 0.  1.
         13   -1    0    0    0    0 -0.00000000000E+00 -0.00000000000E+00 -0.10000000000E+04  0.10000000000E+04  0.00000000000E+00 0.  1.
    9000005    2    1    2  501    0 -0.18038649593E+02  0.37406824667E+02 -0.56496589315E+03  0.56650129079E+03  0.35480473466E+01 0.  0.
         13    1    3    3    0    0 -0.97209760140E+01  0.16094057515E+02 -0.25467892467E+03  0.25537202418E+03  0.00000000000E+00 0.  1.
          1    1    3    3  501    0 -0.83176735789E+01  0.21312767152E+02 -0.31028696847E+03  0.31112926661E+03  0.00000000000E+00 0.  1.
         21    1    1    2  502  501  0.18038649593E+02 -0.37406824667E+02 -0.43327354779E+03  0.43525926828E+03  0.00000000000E+00 0.  1.
<mgrwt>
<rscale>  1 0.30000000E+03</rscale>
<asrwt>0</asrwt>
<pdfrwt beam="1">  1        1 0.64020465E-02 0.30000000E+03</pdfrwt>
<pdfrwt beam="2">0</pdfrwt>
<totfact> 0.14060041E+03</totfact>
</mgrwt>
</event>
<event>
 6    1  0.3125838E-002  0.3000000E+03  0.7818608E-02  0.1093470E+00
          3   -1    0    0  502    0  0.00000000000E+00  0.00000000000E+00  0.57913970385E+01  0.57913970385E+01  0.00000000000E+00 0.  1.
         13   -1    0    0    0    0 -0.00000000000E+00 -0.00000000000E+00 -0.10000000000E+04  0.10000000000E+04  0.00000000000E+00 0.  1.
    9000005    2    1    2  501    0  0.52490539758E+02 -0.24042292848E+00 -0.86112933027E+03  0.86273404006E+03  0.33144907273E+01 0.  0.
         13    1    3    3    0    0  0.36863203142E+02  0.21534960267E+00 -0.57997694491E+03  0.58114731243E+03  0.00000000000E+00 0.  1.
          1    1    3    3  501    0  0.15627336616E+02 -0.45577253115E+00 -0.28115238536E+03  0.28158672762E+03  0.00000000000E+00 0.  1.
         21    1    1    2  502  501 -0.52490539758E+02  0.24042292848E+00 -0.13307927269E+03  0.14305735698E+03  0.00000000000E+00 0.  1.
<mgrwt>
<rscale>  1 0.30000000E+03</rscale>
<asrwt>0</asrwt>
<pdfrwt beam="1">  1        3 0.21059670E-01 0.30000000E+03</pdfrwt>
<pdfrwt beam="2">0</pdfrwt>
<totfact> 0.90943453E+01</totfact>
</mgrwt>
</event>
<event>
 6    1  0.3125838E-002  0.3000000E+03  0.7818608E-02  0.1093470E+00
          3   -1    0    0  502    0  0.00000000000E+00  0.00000000000E+00  0.23595026805E+01  0.23595026805E+01  0.00000000000E+00 0.  1.
         13   -1    0    0    0    0 -0.00000000000E+00 -0.00000000000E+00 -0.10000000000E+04  0.10000000000E+04  0.00000000000E+00 0.  1.
    9000005    2    1    2  501    0 -0.47246866414E+02  0.82034090239E+01 -0.42294722009E+03  0.42566900926E+03  0.31925161611E+01 0.  0.
         13    1    3    3    0    0 -0.34703639823E+02  0.55667205834E+01 -0.29767407258E+03  0.29974186308E+03  0.00000000000E+00 0.  1.
          3    1    3    3  501    0 -0.12543226590E+02  0.26366884405E+01 -0.12527314751E+03  0.12592714618E+03  0.00000000000E+00 0.  1.
         21    1    1    2  502  501  0.47246866414E+02 -0.82034090239E+01 -0.57469327723E+03  0.57669049342E+03  0.00000000000E+00 0.  1.
<mgrwt>
<rscale>  1 0.30000000E+03</rscale>
<asrwt>0</asrwt>
<pdfrwt beam="1">  1        3 0.85800278E-02 0.30000000E+03</pdfrwt>
<pdfrwt beam="2">0</pdfrwt>
<totfact> 0.42364585E+02</totfact>
</mgrwt>
</event>
<event>
 6    1  0.3125838E-002  0.3000000E+03  0.7818608E-02  0.1093470E+00
          1   -1    0    0  502    0  0.00000000000E+00  0.00000000000E+00  0.39309003468E+01  0.39309003468E+01  0.00000000000E+00 0.  1.
         13   -1    0    0    0    0 -0.00000000000E+00 -0.00000000000E+00 -0.10000000000E+04  0.10000000000E+04  0.00000000000E+00 0.  1.
    9000005    2    1    2  501    0  0.86842004480E+01  0.35458322912E+02 -0.90604694141E+03  0.90678823734E+03  0.33375649517E+01 0.  0.
         13    1    3    3    0    0  0.71078955941E+01  0.30578141075E+02 -0.74910474677E+03  0.74976227334E+03  0.00000000000E+00 0.  1.
          1    1    3    3  501    0  0.15763048539E+01  0.48801818364E+01 -0.15694219464E+03  0.15702596400E+03  0.00000000000E+00 0.  1.
         21    1    1    2  502  501 -0.86842004480E+01 -0.35458322912E+02 -0.90022158242E+02  0.97142663005E+02  0.00000000000E+00 0.  1.
<mgrwt>
<rscale>  1 0.30000000E+03</rscale>
<asrwt>0</asrwt>
<pdfrwt beam="1">  1        1 0.14294213E-01 0.30000000E+03</pdfrwt>
<pdfrwt beam="2">0</pdfrwt>
<totfact> 0.46316652E+02</totfact>
</mgrwt>
</event>
<event>
 6    1  0.3125838E-002  0.3000000E+03  0.7818608E-02  0.1093470E+00
          1   -1    0    0  502    0  0.00000000000E+00  0.00000000000E+00  0.12876614576E+01  0.12876614576E+01  0.00000000000E+00 0.  1.
         13   -1    0    0    0    0 -0.00000000000E+00 -0.00000000000E+00 -0.10000000000E+04  0.10000000000E+04  0.00000000000E+00 0.  1.
    9000005    2    1    2  501    0  0.18825662777E+02 -0.30043341099E+02 -0.43048062044E+03  0.43195094792E+03  0.33239903356E+01 0.  0.
         13    1    3    3    0    0  0.24931748105E+01 -0.63409115453E+01 -0.78124347119E+02  0.78420894490E+02  0.00000000000E+00 0.  1.
          3    1    3    3  501    0  0.16332487966E+02 -0.23702429554E+02 -0.35235627332E+03  0.35353005343E+03  0.00000000000E+00 0.  1.
         21    1    1    2  502  501 -0.18825662777E+02  0.30043341099E+02 -0.56823171810E+03  0.56933671354E+03  0.00000000000E+00 0.  1.
<mgrwt>
<rscale>  1 0.30000000E+03</rscale>
<asrwt>0</asrwt>
<pdfrwt beam="1">  1        1 0.46824152E-02 0.30000000E+03</pdfrwt>
<pdfrwt beam="2">0</pdfrwt>
<totfact> 0.21814435E+03</totfact>
</mgrwt>
</event>
<event>
 6    1  0.3125838E-002  0.3000000E+03  0.7818608E-02  0.1093470E+00
          1   -1    0    0  502    0  0.00000000000E+00  0.00000000000E+00  0.12141736629E+01  0.12141736629E+01  0.00000000000E+00 0.  1.
         13   -1    0    0    0    0 -0.00000000000E+00 -0.00000000000E+00 -0.10000000000E+04  0.10000000000E+04  0.00000000000E+00 0.  1.
    9000005    2    1    2  501    0  0.18169897990E+02 -0.29434723839E+02 -0.54842478746E+03  0.54952665613E+03  0.36400730247E+01 0.  0.
         13    1    3    3    0    0  0.93924185889E+00 -0.34433864478E+01 -0.49875248146E+02  0.50002794553E+02  0.00000000000E+00 0.  1.
          3    1    3    3  501    0  0.17230656131E+02 -0.25991337391E+02 -0.49854953932E+03  0.49952386157E+03  0.00000000000E+00 0.  1.
         21    1    1    2  502  501 -0.18169897990E+02  0.29434723839E+02 -0.45036103887E+03  0.45168751753E+03  0.00000000000E+00 0.  1.
<mgrwt>
<rscale>  1 0.30000000E+03</rscale>
<asrwt>0</asrwt>
<pdfrwt beam="1">  1        1 0.44151863E-02 0.30000000E+03</pdfrwt>
<pdfrwt beam="2">0</pdfrwt>
<totfact> 0.23694989E+03</totfact>
</mgrwt>
</event>
<event>
 6    1  0.3125838E-002  0.3000000E+03  0.7818608E-02  0.1093470E+00
          1   -1    0    0  502    0  0.00000000000E+00  0.00000000000E+00  0.11499694426E+01  0.11499694426E+01  0.00000000000E+00 0.  1.
         13   -1    0    0    0    0 -0.00000000000E+00 -0.00000000000E+00 -0.10000000000E+04  0.10000000000E+04  0.00000000000E+00 0.  1.
    9000005    2    1    2  501    0 -0.31975124729E+02 -0.10582429463E+02 -0.45697358097E+03  0.45822779912E+03  0.36695726258E+01 0.  0.
         13    1    3    3    0    0 -0.14709024108E+02 -0.60174462297E+01 -0.23516894155E+03  0.23570531627E+03  0.00000000000E+00 0.  1.
          3    1    3    3  501    0 -0.17266100622E+02 -0.45649832338E+01 -0.22180463942E+03  0.22252248285E+03  0.00000000000E+00 0.  1.
         21    1    1    2  502  501  0.31975124729E+02  0.10582429463E+02 -0.54187644959E+03  0.54292217033E+03  0.00000000000E+00 0.  1.
<mgrwt>
<rscale>  1 0.30000000E+03</rscale>
<asrwt>0</asrwt>
<pdfrwt beam="1">  1        1 0.41817159E-02 0.30000000E+03</pdfrwt>
<pdfrwt beam="2">0</pdfrwt>
<totfact> 0.25578414E+03</totfact>
</mgrwt>
</event>
<event>
 6    1  0.3125838E-002  0.3000000E+03  0.7818608E-02  0.1093470E+00
          1   -1    0    0  502    0  0.00000000000E+00  0.00000000000E+00  0.21176582489E+01  0.21176582489E+01  0.00000000000E+00 0.  1.
         13   -1    0    0    0    0 -0.00000000000E+00 -0.00000000000E+00 -0.10000000000E+04  0.10000000000E+04  0.00000000000E+00 0.  1.
    9000005    2    1    2  501    0  0.12205012265E+02 -0.32066217067E+02 -0.83263262488E+03  0.83334362729E+03  0.27034280075E+01 0.  0.
         13    1    3    3    0    0  0.97730779197E+01 -0.28039321922E+02 -0.72789272237E+03  0.72849813446E+03  0.00000000000E+00 0.  1.
          1    1    3    3  501    0  0.24319343451E+01 -0.40268951442E+01 -0.10473990251E+03  0.10484549283E+03  0.00000000000E+00 0.  1.
         21    1    1    2  502  501 -0.12205012265E+02  0.32066217067E+02 -0.16524971687E+03  0.16877403096E+03  0.00000000000E+00 0.  1.
<mgrwt>
<rscale>  1 0.30000000E+03</rscale>
<asrwt>0</asrwt>
<pdfrwt beam="1">  1        1 0.77005917E-02 0.30000000E+03</pdfrwt>
<pdfrwt beam="2">0</pdfrwt>
<totfact> 0.10860565E+03</totfact>
</mgrwt>
</event>
<event>
 6    1  0.3125838E-002  0.3000000E+03  0.7818608E-02  0.1093470E+00
          1   -1    0    0  502    0  0.00000000000E+00  0.00000000000E+00  0.10954106045E+01  0.10954106045E+01  0.00000000000E+00 0.  1.
         13   -1    0    0    0    0 -0.00000000000E+00 -0.00000000000E+00 -0.10000000000E+04  0.10000000000E+04  0.00000000000E+00 0.  1.
    9000005    2    1    2  501    0  0.21928866535E+01  0.32722946554E+02 -0.55813111317E+03  0.55910349062E+03  0.32823402997E+01 0.  0.
         13    1    3    3    0    0 -0.14117565457E+00  0.20631138769E+02 -0.35720539989E+03  0.35780072880E+03  0.00000000000E+00 0.  1.
          3    1    3    3  501    0  0.23340623081E+01  0.12091807785E+02 -0.20092571328E+03  0.20130276183E+03  0.00000000000E+00 0.  1.
         21    1    1    2  502  501 -0.21928866535E+01 -0.32722946554E+02 -0.44077347623E+03  0.44199191998E+03  0.00000000000E+00 0.  1.
<mgrwt>
<rscale>  1 0.30000000E+03</rscale>
<asrwt>0</asrwt>
<pdfrwt beam="1">  1        1 0.39833197E-02 0.30000000E+03</pdfrwt>
<pdfrwt beam="2">0</pdfrwt>
<totfact> 0.27390203E+03</totfact>
</mgrwt>
</event>
<event>
 6    1  0.3125838E-002  0.3000000E+03  0.7818608E-02  0.1093470E+00
          1   -1    0    0  502    0  0.00000000000E+00  0.00000000000E+00  0.37800107857E+01  0.37800107857E+01  0.00000000000E+00 0.  1.
         13   -1    0    0    0    0 -0.00000000000E+00 -0.00000000000E+00 -0.10000000000E+04  0.10000000000E+04  0.00000000000E+00 0.  1.
    9000005    2    1    2  501    0  0.37446148024E+02  0.15784184985E+01 -0.89588762399E+03  0.89667590761E+03  0.28884342415E+01 0.  0.
         13    1    3    3    0    0  0.80380226878E+01  0.32928980691E+00 -0.22213513518E+03  0.22228076057E+03  0.00000000000E+00 0.  1.
          1    1    3    3  501    0  0.29408125336E+02  0.12491286916E+01 -0.67375248881E+03  0.67439514703E+03  0.00000000000E+00 0.  1.
         21    1    1    2  502  501 -0.37446148024E+02 -0.15784184985E+01 -0.10033236522E+03  0.10710410318E+03  0.00000000000E+00 0.  1.
<mgrwt>
<rscale>  1 0.30000000E+03</rscale>
<asrwt>0</asrwt>
<pdfrwt beam="1">  1        1 0.13745523E-01 0.30000000E+03</pdfrwt>
<pdfrwt beam="2">0</pdfrwt>
<totfact> 0.48851785E+02</totfact>
</mgrwt>
</event>
<event>
 6    1  0.3125838E-002  0.3000000E+03  0.7818608E-02  0.1093470E+00
          3   -1    0    0  502    0  0.00000000000E+00  0.00000000000E+00  0.17399228560E+01  0.17399228560E+01  0.00000000000E+00 0.  1.
         13   -1    0    0    0    0 -0.00000000000E+00 -0.00000000000E+00 -0.10000000000E+04  0.10000000000E+04  0.00000000000E+00 0.  1.
    9000005    2    1    2  501    0 -0.19842074353E+02  0.36172728409E+02 -0.56856025312E+03  0.57006398773E+03  0.31645680324E+01 0.  0.
         13    1    3    3    0    0 -0.76414610874E+01  0.14106063200E+02 -0.24267458427E+03  0.24320429025E+03  0.00000000000E+00 0.  1.
          1    1    3    3  501    0 -0.12200613266E+02  0.22066665209E+02 -0.32588566884E+03  0.32685969748E+03  0.00000000000E+00 0.  1.
         21    1    1    2  502  501  0.19842074353E+02 -0.36172728409E+02 -0.42969982403E+03  0.43167593512E+03  0.00000000000E+00 0.  1.
<mgrwt>
<rscale>  1 0.30000000E+03</rscale>
<asrwt>0</asrwt>
<pdfrwt beam="1">  1        3 0.63270055E-02 0.30000000E+03</pdfrwt>
<pdfrwt beam="2">0</pdfrwt>
<totfact> 0.68640854E+02</totfact>
</mgrwt>
</event>
<event>
 6    1  0.3125838E-002  0.3000000E+03  0.7818608E-02  0.1093470E+00
          3   -1    0    0  502    0  0.00000000000E+00  0.00000000000E+00  0.52061497214E+01  0.52061497214E+01  0.00000000000E+00 0.  1.
         13   -1    0    0    0    0 -0.00000000000E+00 -0.00000000000E+00 -0.10000000000E+04  0.10000000000E+04  0.00000000000E+00 0.  1.
    9000005    2    1    2  501    0  0.40227421703E+02 -0.14830638939E+02 -0.90158545955E+03  0.90260986612E+03  0.31679996330E+01 0.  0.
         13    1    3    3    0    0  0.26308402905E+02 -0.89664677038E+01 -0.55526942277E+03  0.55596462250E+03  0.00000000000E+00 0.  1.
          1    1    3    3  501    0  0.13919018798E+02 -0.58641712351E+01 -0.34631603679E+03  0.34664524362E+03  0.00000000000E+00 0.  1.
         21    1    1    2  502  501 -0.40227421703E+02  0.14830638939E+02 -0.93208390724E+02  0.10259628360E+03  0.00000000000E+00 0.  1.
<mgrwt>
<rscale>  1 0.30000000E+03</rscale>
<asrwt>0</asrwt>
<pdfrwt beam="1">  1        3 0.18931493E-01 0.30000000E+03</pdfrwt>
<pdfrwt beam="2">0</pdfrwt>
<totfact> 0.11037977E+02</totfact>
</mgrwt>
</event>
<event>
 6    1  0.3125838E-002  0.3000000E+03  0.7818608E-02  0.1093470E+00
          1   -1    0    0  502    0  0.00000000000E+00  0.00000000000E+00  0.62989037596E+01  0.62989037596E+01  0.00000000000E+00 0.  1.
         13   -1    0    0    0    0 -0.00000000000E+00 -0.00000000000E+00 -0.10000000000E+04  0.10000000000E+04  0.00000000000E+00 0.  1.
    9000005    2    1    2  501    0  0.37685042053E+02 -0.37210438447E+02 -0.87150661065E+03  0.87312131018E+03  0.35029633742E+01 0.  0.
         13    1    3    3    0    0  0.32493022980E+02 -0.31007160319E+02 -0.72120221769E+03  0.72259939063E+03  0.00000000000E+00 0.  1.
          3    1    3    3  501    0  0.51920190735E+01 -0.62032781277E+01 -0.15030439297E+03  0.15052191955E+03  0.00000000000E+00 0.  1.
         21    1    1    2  502  501 -0.37685042053E+02  0.37210438447E+02 -0.12219448559E+03  0.13317759358E+03  0.00000000000E+00 0.  1.
<mgrwt>
<rscale>  1 0.30000000E+03</rscale>
<asrwt>0</asrwt>
<pdfrwt beam="1">  1        1 0.22905153E-01 0.30000000E+03</pdfrwt>
<pdfrwt beam="2">0</pdfrwt>
<totfact> 0.24580449E+02</totfact>
</mgrwt>
</event>
<event>
 6    1  0.3125838E-002  0.3000000E+03  0.7818608E-02  0.1093470E+00
          1   -1    0    0  502    0  0.00000000000E+00  0.00000000000E+00  0.25981781187E+01  0.25981781187E+01  0.00000000000E+00 0.  1.
         13   -1    0    0    0    0 -0.00000000000E+00 -0.00000000000E+00 -0.10000000000E+04  0.10000000000E+04  0.00000000000E+00 0.  1.
    9000005    2    1    2  501    0  0.12349099378E+02 -0.42517509717E+02 -0.74663750563E+03  0.74795532785E+03  0.30608426716E+01 0.  0.
         13    1    3    3    0    0 -0.43889548073E-01 -0.17983798076E+01 -0.26338462049E+02  0.26399823472E+02  0.00000000000E+00 0.  1.
          1    1    3    3  501    0  0.12392988926E+02 -0.40719129910E+02 -0.72029904358E+03  0.72155550437E+03  0.00000000000E+00 0.  1.
         21    1    1    2  502  501 -0.12349099378E+02  0.42517509717E+02 -0.25076431625E+03  0.25464285027E+03  0.00000000000E+00 0.  1.
<mgrwt>
<rscale>  1 0.30000000E+03</rscale>
<asrwt>0</asrwt>
<pdfrwt beam="1">  1        1 0.94479404E-02 0.30000000E+03</pdfrwt>
<pdfrwt beam="2">0</pdfrwt>
<totfact> 0.81746562E+02</totfact>
</mgrwt>
</event>
<event>
 6    1  0.3125838E-002  0.3000000E+03  0.7818608E-02  0.1093470E+00
          1   -1    0    0  502    0  0.00000000000E+00  0.00000000000E+00  0.63243038172E+01  0.63243038172E+01  0.00000000000E+00 0.  1.
         13   -1    0    0    0    0 -0.00000000000E+00 -0.00000000000E+00 -0.10000000000E+04  0.10000000000E+04  0.00000000000E+00 0.  1.
    9000005    2    1    2  501    0 -0.28429661864E+02  0.22672300903E+02 -0.94427805312E+03  0.94498584898E+03  0.38644871465E+01 0.  0.
         13    1    3    3    0    0 -0.26129745022E+02  0.20670105850E+02 -0.83296864675E+03  0.83363468217E+03  0.00000000000E+00 0.  1.
          3    1    3    3  501    0 -0.22999168427E+01  0.20021950535E+01 -0.11130940637E+03  0.11135116681E+03  0.00000000000E+00 0.  1.
         21    1    1    2  502  501  0.28429661864E+02 -0.22672300903E+02 -0.49397643061E+02  0.61338454839E+02  0.00000000000E+00 0.  1.
<mgrwt>
<rscale>  1 0.30000000E+03</rscale>
<asrwt>0</asrwt>
<pdfrwt beam="1">  1        1 0.22997517E-01 0.30000000E+03</pdfrwt>
<pdfrwt beam="2">0</pdfrwt>
<totfact> 0.24449760E+02</totfact>
</mgrwt>
</event>
<event>
 6    1  0.3125838E-002  0.3000000E+03  0.7818608E-02  0.1093470E+00
          1   -1    0    0  502    0  0.00000000000E+00  0.00000000000E+00  0.17780553238E+02  0.17780553238E+02  0.00000000000E+00 0.  1.
         13   -1    0    0    0    0 -0.00000000000E+00 -0.00000000000E+00 -0.10000000000E+04  0.10000000000E+04  0.00000000000E+00 0.  1.
    9000005    2    1    2  501    0 -0.61508379928E+02 -0.53392805570E+02 -0.89402040867E+03  0.89772580402E+03  0.22484683009E+01 0.  0.
         13    1    3    3    0    0 -0.50553080982E+02 -0.43578548226E+02 -0.72318915796E+03  0.72626252970E+03  0.00000000000E+00 0.  1.
          1    1    3    3  501    0 -0.10955298946E+02 -0.98142573442E+01 -0.17083125071E+03  0.17146327432E+03  0.00000000000E+00 0.  1.
         21    1    1    2  502  501  0.61508379928E+02  0.53392805570E+02 -0.88199038096E+02  0.12005474922E+03  0.00000000000E+00 0.  1.
<mgrwt>
<rscale>  1 0.30000000E+03</rscale>
<asrwt>0</asrwt>
<pdfrwt beam="1">  1        1 0.64656694E-01 0.30000000E+03</pdfrwt>
<pdfrwt beam="2">0</pdfrwt>
<totfact> 0.62759138E+01</totfact>
</mgrwt>
</event>
<event>
 6    1  0.3125838E-002  0.3000000E+03  0.7818608E-02  0.1093470E+00
          3   -1    0    0  502    0  0.00000000000E+00  0.00000000000E+00  0.33518393843E+01  0.33518393843E+01  0.00000000000E+00 0.  1.
         13   -1    0    0    0    0 -0.00000000000E+00 -0.00000000000E+00 -0.10000000000E+04  0.10000000000E+04  0.00000000000E+00 0.  1.
    9000005    2    1    2  501    0  0.18215579272E+02  0.25592628811E+02 -0.91963390775E+03  0.92017741349E+03  0.36274017965E+01 0.  0.
         13    1    3    3    0    0  0.76424503719E+01  0.78667661618E+01 -0.33247547950E+03  0.33265633546E+03  0.00000000000E+00 0.  1.
          1    1    3    3  501    0  0.10573128900E+02  0.17725862649E+02 -0.58715842825E+03  0.58752107803E+03  0.00000000000E+00 0.  1.
         21    1    1    2  502  501 -0.18215579272E+02 -0.25592628811E+02 -0.77014252866E+02  0.83174425890E+02  0.00000000000E+00 0.  1.
<mgrwt>
<rscale>  1 0.30000000E+03</rscale>
<asrwt>0</asrwt>
<pdfrwt beam="1">  1        3 0.12188533E-01 0.30000000E+03</pdfrwt>
<pdfrwt beam="2">0</pdfrwt>
<totfact> 0.23729040E+02</totfact>
</mgrwt>
</event>
<event>
 6    1  0.3125838E-002  0.3000000E+03  0.7818608E-02  0.1093470E+00
          3   -1    0    0  502    0  0.00000000000E+00  0.00000000000E+00  0.13271423749E+01  0.13271423749E+01  0.00000000000E+00 0.  1.
         13   -1    0    0    0    0 -0.00000000000E+00 -0.00000000000E+00 -0.10000000000E+04  0.10000000000E+04  0.00000000000E+00 0.  1.
    9000005    2    1    2  501    0 -0.23455872822E+02  0.25591356805E+02 -0.35147135263E+03  0.35319530117E+03  0.31166548641E+01 0.  0.
         13    1    3    3    0    0 -0.61590501474E+01  0.62820360951E+01 -0.10313767528E+03  0.10351221154E+03  0.00000000000E+00 0.  1.
          1    1    3    3  501    0 -0.17296822675E+02  0.19309320710E+02 -0.24833367735E+03  0.24968308963E+03  0.00000000000E+00 0.  1.
         21    1    1    2  502  501  0.23455872822E+02 -0.25591356805E+02 -0.64720150500E+03  0.64813184121E+03  0.00000000000E+00 0.  1.
<mgrwt>
<rscale>  1 0.30000000E+03</rscale>
<asrwt>0</asrwt>
<pdfrwt beam="1">  1        3 0.48259824E-02 0.30000000E+03</pdfrwt>
<pdfrwt beam="2">0</pdfrwt>
<totfact> 0.10449912E+03</totfact>
</mgrwt>
</event>
<event>
 6    1  0.3125838E-002  0.3000000E+03  0.7818608E-02  0.1093470E+00
          1   -1    0    0  502    0  0.00000000000E+00  0.00000000000E+00  0.36511986826E+01  0.36511986826E+01  0.00000000000E+00 0.  1.
         13   -1    0    0    0    0 -0.00000000000E+00 -0.00000000000E+00 -0.10000000000E+04  0.10000000000E+04  0.00000000000E+00 0.  1.
    9000005    2    1    2  501    0 -0.31913147476E+02 -0.12768792541E+02 -0.91082536128E+03  0.91147880672E+03  0.30471789405E+01 0.  0.
         13    1    3    3    0    0 -0.25520154638E+01 -0.49184194836E+00 -0.53739523706E+02  0.53802333589E+02  0.00000000000E+00 0.  1.
          3    1    3    3  501    0 -0.29361132012E+02 -0.12276950592E+02 -0.85708583757E+03  0.85767647313E+03  0.00000000000E+00 0.  1.
         21    1    1    2  502  501  0.31913147476E+02  0.12768792541E+02 -0.85523440039E+02  0.92172391967E+02  0.00000000000E+00 0.  1.
<mgrwt>
<rscale>  1 0.30000000E+03</rscale>
<asrwt>0</asrwt>
<pdfrwt beam="1">  1        1 0.13277114E-01 0.30000000E+03</pdfrwt>
<pdfrwt beam="2">0</pdfrwt>
<totfact> 0.51217088E+02</totfact>
</mgrwt>
</event>
<event>
 6    1  0.3125838E-002  0.3000000E+03  0.7818608E-02  0.1093470E+00
          3   -1    0    0  502    0  0.00000000000E+00  0.00000000000E+00  0.41027604573E+01  0.41027604573E+01  0.00000000000E+00 0.  1.
         13   -1    0    0    0    0 -0.00000000000E+00 -0.00000000000E+00 -0.10000000000E+04  0.10000000000E+04  0.00000000000E+00 0.  1.
    9000005    2    1    2  501    0  0.11925619053E+02 -0.28150411145E+02 -0.93884842359E+03  0.93937847260E+03  0.78029650869E+01 0.  0.
         13    1    3    3    0    0  0.80584393283E+01 -0.11850703086E+02 -0.35347816731E+03  0.35376855763E+03  0.00000000000E+00 0.  1.
          3    1    3    3  501    0  0.38671797251E+01 -0.16299708058E+02 -0.58537025628E+03  0.58560991496E+03  0.00000000000E+00 0.  1.
         21    1    1    2  502  501 -0.11925619053E+02  0.28150411145E+02 -0.57048815954E+02  0.64724287861E+02  0.00000000000E+00 0.  1.
<mgrwt>
<rscale>  1 0.30000000E+03</rscale>
<asrwt>0</asrwt>
<pdfrwt beam="1">  1        3 0.14919160E-01 0.30000000E+03</pdfrwt>
<pdfrwt beam="2">0</pdfrwt>
<totfact> 0.16800814E+02</totfact>
</mgrwt>
</event>
<event>
 6    1  0.3125838E-002  0.3000000E+03  0.7818608E-02  0.1093470E+00
          3   -1    0    0  502    0  0.00000000000E+00  0.00000000000E+00  0.33183273888E+02  0.33183273888E+02  0.00000000000E+00 0.  1.
         13   -1    0    0    0    0 -0.00000000000E+00 -0.00000000000E+00 -0.10000000000E+04  0.10000000000E+04  0.00000000000E+00 0.  1.
    9000005    2    1    2  501    0  0.46231566474E+02 -0.56538954798E+02 -0.95665221409E+03  0.95944503108E+03  0.41590611492E+01 0.  0.
         13    1    3    3    0    0  0.43654240722E+02 -0.52766650060E+02 -0.88346154224E+03  0.88611190530E+03  0.00000000000E+00 0.  1.
          1    1    3    3  501    0  0.25773257516E+01 -0.37723047386E+01 -0.73190671843E+02  0.73333125775E+02  0.00000000000E+00 0.  1.
         21    1    1    2  502  501 -0.46231566474E+02  0.56538954798E+02 -0.10164512024E+02  0.73738242812E+02  0.00000000000E+00 0.  1.
<mgrwt>
<rscale>  1 0.30000000E+03</rscale>
<asrwt>0</asrwt>
<pdfrwt beam="1">  1        3 0.12066670E+00 0.30000000E+03</pdfrwt>
<pdfrwt beam="2">0</pdfrwt>
<totfact> 0.22721719E+00</totfact>
</mgrwt>
</event>
<event>
 6    1  0.3125838E-002  0.3000000E+03  0.7818608E-02  0.1093470E+00
          3   -1    0    0  502    0  0.00000000000E+00  0.00000000000E+00  0.99841077160E+01  0.99841077160E+01  0.00000000000E+00 0.  1.
         13   -1    0    0    0    0 -0.00000000000E+00 -0.00000000000E+00 -0.10000000000E+04  0.10000000000E+04  0.00000000000E+00 0.  1.
    9000005    2    1    2  501    0 -0.56566075274E+02 -0.52139152006E+02 -0.81715740838E+03  0.82077980676E+03  0.38793125285E+01 0.  0.
         13    1    3    3    0    0 -0.52397753634E+02 -0.48602227543E+02 -0.74786738483E+03  0.75127446809E+03  0.00000000000E+00 0.  1.
          1    1    3    3  501    0 -0.41683216402E+01 -0.35369244630E+01 -0.69290023548E+02  0.69505338667E+02  0.00000000000E+00 0.  1.
         21    1    1    2  502  501  0.56566075274E+02  0.52139152006E+02 -0.17285848390E+03  0.18920430096E+03  0.00000000000E+00 0.  1.
<mgrwt>
<rscale>  1 0.30000000E+03</rscale>
<asrwt>0</asrwt>
<pdfrwt beam="1">  1        3 0.36305923E-01 0.30000000E+03</pdfrwt>
<pdfrwt beam="2">0</pdfrwt>
<totfact> 0.32454313E+01</totfact>
</mgrwt>
</event>
<event>
 6    1  0.3125838E-002  0.3000000E+03  0.7818608E-02  0.1093470E+00
          1   -1    0    0  502    0  0.00000000000E+00  0.00000000000E+00  0.10217490272E+01  0.10217490272E+01  0.00000000000E+00 0.  1.
         13   -1    0    0    0    0 -0.00000000000E+00 -0.00000000000E+00 -0.10000000000E+04  0.10000000000E+04  0.00000000000E+00 0.  1.
    9000005    2    1    2  501    0 -0.77982317445E+01  0.30427251044E+02 -0.58050135045E+03  0.58136766970E+03  0.44631238126E+01 0.  0.
         13    1    3    3    0    0 -0.71882813894E+01  0.23504823172E+02 -0.42361527366E+03  0.42432776032E+03  0.00000000000E+00 0.  1.
          1    1    3    3  501    0 -0.60995035516E+00  0.69224278716E+01 -0.15688607680E+03  0.15703990938E+03  0.00000000000E+00 0.  1.
         21    1    1    2  502  501  0.77982317445E+01 -0.30427251044E+02 -0.41847690052E+03  0.41965407932E+03  0.00000000000E+00 0.  1.
<mgrwt>
<rscale>  1 0.30000000E+03</rscale>
<asrwt>0</asrwt>
<pdfrwt beam="1">  1        1 0.37154588E-02 0.30000000E+03</pdfrwt>
<pdfrwt beam="2">0</pdfrwt>
<totfact> 0.30210150E+03</totfact>
</mgrwt>
</event>
<event>
 6    1  0.3125838E-002  0.3000000E+03  0.7818608E-02  0.1093470E+00
          1   -1    0    0  502    0  0.00000000000E+00  0.00000000000E+00  0.12933975882E+01  0.12933975882E+01  0.00000000000E+00 0.  1.
         13   -1    0    0    0    0 -0.00000000000E+00 -0.00000000000E+00 -0.10000000000E+04  0.10000000000E+04  0.00000000000E+00 0.  1.
    9000005    2    1    2  501    0  0.49654651746E+00 -0.35768427921E+02 -0.53959781560E+03  0.54079312058E+03  0.34306959852E+01 0.  0.
         13    1    3    3    0    0 -0.41621759005E+00 -0.91531882518E+01 -0.16019258174E+03  0.16045440890E+03  0.00000000000E+00 0.  1.
          1    1    3    3  501    0  0.91276410750E+00 -0.26615239669E+02 -0.37940523386E+03  0.38033871168E+03  0.00000000000E+00 0.  1.
         21    1    1    2  502  501 -0.49654651746E+00  0.35768427921E+02 -0.45910878681E+03  0.46050027700E+03  0.00000000000E+00 0.  1.
<mgrwt>
<rscale>  1 0.30000000E+03</rscale>
<asrwt>0</asrwt>
<pdfrwt beam="1">  1        1 0.47032739E-02 0.30000000E+03</pdfrwt>
<pdfrwt beam="2">0</pdfrwt>
<totfact> 0.21678472E+03</totfact>
</mgrwt>
</event>
<event>
 6    1  0.3125838E-002  0.3000000E+03  0.7818608E-02  0.1093470E+00
          1   -1    0    0  502    0  0.00000000000E+00  0.00000000000E+00  0.19574291796E+01  0.19574291796E+01  0.00000000000E+00 0.  1.
         13   -1    0    0    0    0 -0.00000000000E+00 -0.00000000000E+00 -0.10000000000E+04  0.10000000000E+04  0.00000000000E+00 0.  1.
    9000005    2    1    2  501    0 -0.37936790846E+01  0.43896290982E+02 -0.46798927294E+03  0.47007607497E+03  0.40348864220E+01 0.  0.
         13    1    3    3    0    0 -0.56777708624E+00  0.26683057090E+02 -0.27242879179E+03  0.27373299856E+03  0.00000000000E+00 0.  1.
          1    1    3    3  501    0 -0.32259019983E+01  0.17213233893E+02 -0.19556048115E+03  0.19634307641E+03  0.00000000000E+00 0.  1.
         21    1    1    2  502  501  0.37936790846E+01 -0.43896290982E+02 -0.53005329788E+03  0.53188135421E+03  0.00000000000E+00 0.  1.
<mgrwt>
<rscale>  1 0.30000000E+03</rscale>
<asrwt>0</asrwt>
<pdfrwt beam="1">  1        1 0.71179393E-02 0.30000000E+03</pdfrwt>
<pdfrwt beam="2">0</pdfrwt>
<totfact> 0.12121638E+03</totfact>
</mgrwt>
</event>
<event>
 6    1  0.3125838E-002  0.3000000E+03  0.7818608E-02  0.1093470E+00
          1   -1    0    0  502    0  0.00000000000E+00  0.00000000000E+00  0.34222975650E+01  0.34222975650E+01  0.00000000000E+00 0.  1.
         13   -1    0    0    0    0 -0.00000000000E+00 -0.00000000000E+00 -0.10000000000E+04  0.10000000000E+04  0.00000000000E+00 0.  1.
    9000005    2    1    2  501    0  0.13112928948E+02 -0.35735516432E+02 -0.87892875409E+03  0.87976854272E+03  0.52875282941E+01 0.  0.
         13    1    3    3    0    0  0.89723296584E+01 -0.26121787091E+02 -0.58132438902E+03  0.58198015063E+03  0.00000000000E+00 0.  1.
          1    1    3    3  501    0  0.41405992901E+01 -0.96137293411E+01 -0.29760436507E+03  0.29778839209E+03  0.00000000000E+00 0.  1.
         21    1    1    2  502  501 -0.13112928948E+02  0.35735516432E+02 -0.11764894834E+03  0.12365375484E+03  0.00000000000E+00 0.  1.
<mgrwt>
<rscale>  1 0.30000000E+03</rscale>
<asrwt>0</asrwt>
<pdfrwt beam="1">  1        1 0.12444745E-01 0.30000000E+03</pdfrwt>
<pdfrwt beam="2">0</pdfrwt>
<totfact> 0.55956453E+02</totfact>
</mgrwt>
</event>
<event>
 6    1  0.3125838E-002  0.3000000E+03  0.7818608E-02  0.1093470E+00
          1   -1    0    0  502    0  0.00000000000E+00  0.00000000000E+00  0.44519031113E+02  0.44519031113E+02  0.00000000000E+00 0.  1.
         13   -1    0    0    0    0 -0.00000000000E+00 -0.00000000000E+00 -0.10000000000E+04  0.10000000000E+04  0.00000000000E+00 0.  1.
    9000005    2    1    2  501    0  0.86049849648E+01 -0.13122162609E+03 -0.88614281778E+03  0.89585518171E+03  0.37752049713E+01 0.  0.
         13    1    3    3    0    0  0.10417839282E+01 -0.36460647891E+02 -0.25274385045E+03  0.25536232709E+03  0.00000000000E+00 0.  1.
          3    1    3    3  501    0  0.75632010365E+01 -0.94760978203E+02 -0.63339896733E+03  0.64049285461E+03  0.00000000000E+00 0.  1.
         21    1    1    2  502  501 -0.86049849648E+01  0.13122162609E+03 -0.69338151111E+02  0.14866384941E+03  0.00000000000E+00 0.  1.
<mgrwt>
<rscale>  1 0.30000000E+03</rscale>
<asrwt>0</asrwt>
<pdfrwt beam="1">  1        1 0.16188773E+00 0.30000000E+03</pdfrwt>
<pdfrwt beam="2">0</pdfrwt>
<totfact> 0.15661781E+01</totfact>
</mgrwt>
</event>
<event>
 6    1  0.3125838E-002  0.3000000E+03  0.7818608E-02  0.1093470E+00
          1   -1    0    0  502    0  0.00000000000E+00  0.00000000000E+00  0.22649001429E+01  0.22649001429E+01  0.00000000000E+00 0.  1.
         13   -1    0    0    0    0 -0.00000000000E+00 -0.00000000000E+00 -0.10000000000E+04  0.10000000000E+04  0.00000000000E+00 0.  1.
    9000005    2    1    2  501    0  0.23807483843E+02  0.33474863820E+02 -0.24595664805E+03  0.24936503735E+03  0.94145474672E+00 0.  0.
         13    1    3    3    0    0  0.12173671953E+02  0.16738863652E+02 -0.12139325221E+03  0.12314507513E+03  0.00000000000E+00 0.  1.
          1    1    3    3  501    0  0.11633811890E+02  0.16736000168E+02 -0.12456339584E+03  0.12621996222E+03  0.00000000000E+00 0.  1.
         21    1    1    2  502  501 -0.23807483843E+02 -0.33474863820E+02 -0.75177845180E+03  0.75289986279E+03  0.00000000000E+00 0.  1.
<mgrwt>
<rscale>  1 0.30000000E+03</rscale>
<asrwt>0</asrwt>
<pdfrwt beam="1">  1        1 0.82360179E-02 0.30000000E+03</pdfrwt>
<pdfrwt beam="2">0</pdfrwt>
<totfact> 0.98900444E+02</totfact>
</mgrwt>
</event>
<event>
 6    1  0.3125838E-002  0.3000000E+03  0.7818608E-02  0.1093470E+00
          1   -1    0    0  502    0  0.00000000000E+00  0.00000000000E+00  0.11737976466E+02  0.11737976466E+02  0.00000000000E+00 0.  1.
         13   -1    0    0    0    0 -0.00000000000E+00 -0.00000000000E+00 -0.10000000000E+04  0.10000000000E+04  0.00000000000E+00 0.  1.
    9000005    2    1    2  501    0 -0.13165195670E+02  0.47114550379E+02 -0.94547427365E+03  0.94674647875E+03  0.37669178300E+01 0.  0.
         13    1    3    3    0    0 -0.86029039719E+01  0.29128456477E+02 -0.62048013200E+03  0.62122304460E+03  0.00000000000E+00 0.  1.
          3    1    3    3  501    0 -0.45622916982E+01  0.17986093902E+02 -0.32499414165E+03  0.32552343415E+03  0.00000000000E+00 0.  1.
         21    1    1    2  502  501  0.13165195670E+02 -0.47114550379E+02 -0.42787749889E+02  0.64991497714E+02  0.00000000000E+00 0.  1.
<mgrwt>
<rscale>  1 0.30000000E+03</rscale>
<asrwt>0</asrwt>
<pdfrwt beam="1">  1        1 0.42683641E-01 0.30000000E+03</pdfrwt>
<pdfrwt beam="2">0</pdfrwt>
<totfact> 0.10857762E+02</totfact>
</mgrwt>
</event>
<event>
 6    1  0.3125838E-002  0.3000000E+03  0.7818608E-02  0.1093470E+00
          1   -1    0    0  502    0  0.00000000000E+00  0.00000000000E+00  0.22288182613E+01  0.22288182613E+01  0.00000000000E+00 0.  1.
         13   -1    0    0    0    0 -0.00000000000E+00 -0.00000000000E+00 -0.10000000000E+04  0.10000000000E+04  0.00000000000E+00 0.  1.
    9000005    2    1    2  501    0 -0.33753421991E+02 -0.29189500842E+02 -0.33770481724E+03  0.34065574898E+03  0.32365522816E+01 0.  0.
         13    1    3    3    0    0 -0.20536013201E+02 -0.19382883399E+02 -0.20593105928E+03  0.20785818527E+03  0.00000000000E+00 0.  1.
          1    1    3    3  501    0 -0.13217408789E+02 -0.98066174433E+01 -0.13177375796E+03  0.13279756371E+03  0.00000000000E+00 0.  1.
         21    1    1    2  502  501  0.33753421991E+02  0.29189500842E+02 -0.66006636450E+03  0.66157306928E+03  0.00000000000E+00 0.  1.
<mgrwt>
<rscale>  1 0.30000000E+03</rscale>
<asrwt>0</asrwt>
<pdfrwt beam="1">  1        1 0.81048108E-02 0.30000000E+03</pdfrwt>
<pdfrwt beam="2">0</pdfrwt>
<totfact> 0.10113501E+03</totfact>
</mgrwt>
</event>
<event>
 6    1  0.3125838E-002  0.3000000E+03  0.7818608E-02  0.1093470E+00
          1   -1    0    0  502    0  0.00000000000E+00  0.00000000000E+00  0.53816379922E+01  0.53816379922E+01  0.00000000000E+00 0.  1.
         13   -1    0    0    0    0 -0.00000000000E+00 -0.00000000000E+00 -0.10000000000E+04  0.10000000000E+04  0.00000000000E+00 0.  1.
    9000005    2    1    2  501    0  0.30041886596E+02  0.49088891702E+02 -0.80799429360E+03  0.81008499913E+03  0.84079188418E+01 0.  0.
         13    1    3    3    0    0  0.22449922195E+02  0.36647355278E+02 -0.65030039847E+03  0.65171898538E+03  0.00000000000E+00 0.  1.
          1    1    3    3  501    0  0.75919644014E+01  0.12441536424E+02 -0.15769389513E+03  0.15836601375E+03  0.00000000000E+00 0.  1.
         21    1    1    2  502  501 -0.30041886596E+02 -0.49088891702E+02 -0.18662406841E+03  0.19529663886E+03  0.00000000000E+00 0.  1.
<mgrwt>
<rscale>  1 0.30000000E+03</rscale>
<asrwt>0</asrwt>
<pdfrwt beam="1">  1        1 0.19569634E-01 0.30000000E+03</pdfrwt>
<pdfrwt beam="2">0</pdfrwt>
<totfact> 0.30311214E+02</totfact>
</mgrwt>
</event>
<event>
 6    1  0.3125838E-002  0.3000000E+03  0.7818608E-02  0.1093470E+00
          1   -1    0    0  502    0  0.00000000000E+00  0.00000000000E+00  0.39363858722E+01  0.39363858722E+01  0.00000000000E+00 0.  1.
         13   -1    0    0    0    0 -0.00000000000E+00 -0.00000000000E+00 -0.10000000000E+04  0.10000000000E+04  0.00000000000E+00 0.  1.
    9000005    2    1    2  501    0 -0.52573468139E+02  0.11013925802E+02 -0.75706566396E+03  0.75897660081E+03  0.34329163453E+01 0.  0.
         13    1    3    3    0    0 -0.40254763268E+02  0.91543741838E+01 -0.56308287317E+03  0.56459416450E+03  0.00000000000E+00 0.  1.
          1    1    3    3  501    0 -0.12318704872E+02  0.18595516184E+01 -0.19398279079E+03  0.19438243631E+03  0.00000000000E+00 0.  1.
         21    1    1    2  502  501  0.52573468139E+02 -0.11013925802E+02 -0.23899795016E+03  0.24495978506E+03  0.00000000000E+00 0.  1.
<mgrwt>
<rscale>  1 0.30000000E+03</rscale>
<asrwt>0</asrwt>
<pdfrwt beam="1">  1        1 0.14314161E-01 0.30000000E+03</pdfrwt>
<pdfrwt beam="2">0</pdfrwt>
<totfact> 0.46228879E+02</totfact>
</mgrwt>
</event>
<event>
 6    1  0.3125838E-002  0.3000000E+03  0.7818608E-02  0.1093470E+00
          1   -1    0    0  502    0  0.00000000000E+00  0.00000000000E+00  0.95349260323E+00  0.95349260323E+00  0.00000000000E+00 0.  1.
         13   -1    0    0    0    0 -0.00000000000E+00 -0.00000000000E+00 -0.10000000000E+04  0.10000000000E+04  0.00000000000E+00 0.  1.
    9000005    2    1    2  501    0  0.30430500957E+02  0.33252434333E+01 -0.52783170706E+03  0.52874542333E+03  0.53234462438E+01 0.  0.
         13    1    3    3    0    0  0.15455920565E+02  0.41666102384E+01 -0.25536526765E+03  0.25586650043E+03  0.00000000000E+00 0.  1.
          3    1    3    3  501    0  0.14974580392E+02 -0.84136680511E+00 -0.27246643942E+03  0.27287892290E+03  0.00000000000E+00 0.  1.
         21    1    1    2  502  501 -0.30430500957E+02 -0.33252434333E+01 -0.47121480033E+03  0.47220806927E+03  0.00000000000E+00 0.  1.
<mgrwt>
<rscale>  1 0.30000000E+03</rscale>
<asrwt>0</asrwt>
<pdfrwt beam="1">  1        1 0.34672531E-02 0.30000000E+03</pdfrwt>
<pdfrwt beam="2">0</pdfrwt>
<totfact> 0.33296123E+03</totfact>
</mgrwt>
</event>
<event>
 6    1  0.3125838E-002  0.3000000E+03  0.7818608E-02  0.1093470E+00
          1   -1    0    0  502    0  0.00000000000E+00  0.00000000000E+00  0.17066625701E+01  0.17066625701E+01  0.00000000000E+00 0.  1.
         13   -1    0    0    0    0 -0.00000000000E+00 -0.00000000000E+00 -0.10000000000E+04  0.10000000000E+04  0.00000000000E+00 0.  1.
    9000005    2    1    2  501    0 -0.22683106525E+02  0.33857099340E+02 -0.42263285976E+03  0.42460544783E+03  0.32288829229E+01 0.  0.
         13    1    3    3    0    0 -0.99341234991E+01  0.16151084929E+02 -0.21146192786E+03  0.21231036548E+03  0.00000000000E+00 0.  1.
          3    1    3    3  501    0 -0.12748983026E+02  0.17706014411E+02 -0.21117093189E+03  0.21229508235E+03  0.00000000000E+00 0.  1.
         21    1    1    2  502  501  0.22683106525E+02 -0.33857099340E+02 -0.57566047767E+03  0.57710121474E+03  0.00000000000E+00 0.  1.
<mgrwt>
<rscale>  1 0.30000000E+03</rscale>
<asrwt>0</asrwt>
<pdfrwt beam="1">  1        1 0.62060588E-02 0.30000000E+03</pdfrwt>
<pdfrwt beam="2">0</pdfrwt>
<totfact> 0.14686264E+03</totfact>
</mgrwt>
</event>
<event>
 6    1  0.3125838E-002  0.3000000E+03  0.7818608E-02  0.1093470E+00
          1   -1    0    0  502    0  0.00000000000E+00  0.00000000000E+00  0.14117602141E+01  0.14117602141E+01  0.00000000000E+00 0.  1.
         13   -1    0    0    0    0 -0.00000000000E+00 -0.00000000000E+00 -0.10000000000E+04  0.10000000000E+04  0.00000000000E+00 0.  1.
    9000005    2    1    2  501    0 -0.26088055837E+02 -0.15174574889E+02 -0.79454691758E+03  0.79515048041E+03  0.69733689170E+01 0.  0.
         13    1    3    3    0    0 -0.60774295357E+01 -0.39427582644E+00 -0.14921792955E+03  0.14934216117E+03  0.00000000000E+00 0.  1.
          3    1    3    3  501    0 -0.20010626301E+02 -0.14780299062E+02 -0.64532898803E+03  0.64580831924E+03  0.00000000000E+00 0.  1.
         21    1    1    2  502  501  0.26088055837E+02  0.15174574889E+02 -0.20404132220E+03  0.20626127981E+03  0.00000000000E+00 0.  1.
<mgrwt>
<rscale>  1 0.30000000E+03</rscale>
<asrwt>0</asrwt>
<pdfrwt beam="1">  1        1 0.51336843E-02 0.30000000E+03</pdfrwt>
<pdfrwt beam="2">0</pdfrwt>
<totfact> 0.19167506E+03</totfact>
</mgrwt>
</event>
<event>
 6    1  0.3125838E-002  0.3000000E+03  0.7818608E-02  0.1093470E+00
          1   -1    0    0  502    0  0.00000000000E+00  0.00000000000E+00  0.43446258721E+01  0.43446258721E+01  0.00000000000E+00 0.  1.
         13   -1    0    0    0    0 -0.00000000000E+00 -0.00000000000E+00 -0.10000000000E+04  0.10000000000E+04  0.00000000000E+00 0.  1.
    9000005    2    1    2  501    0 -0.47285772684E+02 -0.20614794372E+02 -0.81023791696E+03  0.81188541599E+03  0.33959644396E+01 0.  0.
         13    1    3    3    0    0 -0.14633716089E+02 -0.69600031202E+01 -0.23173101406E+03  0.23229690090E+03  0.00000000000E+00 0.  1.
          1    1    3    3  501    0 -0.32652056594E+02 -0.13654791251E+02 -0.57850690290E+03  0.57958851510E+03  0.00000000000E+00 0.  1.
         21    1    1    2  502  501  0.47285772684E+02  0.20614794372E+02 -0.18541745717E+03  0.19245920988E+03  0.00000000000E+00 0.  1.
<mgrwt>
<rscale>  1 0.30000000E+03</rscale>
<asrwt>0</asrwt>
<pdfrwt beam="1">  1        1 0.15798673E-01 0.30000000E+03</pdfrwt>
<pdfrwt beam="2">0</pdfrwt>
<totfact> 0.40433614E+02</totfact>
</mgrwt>
</event>
<event>
 6    1  0.3125838E-002  0.3000000E+03  0.7818608E-02  0.1093470E+00
          1   -1    0    0  502    0  0.00000000000E+00  0.00000000000E+00  0.67612636942E+01  0.67612636942E+01  0.00000000000E+00 0.  1.
         13   -1    0    0    0    0 -0.00000000000E+00 -0.00000000000E+00 -0.10000000000E+04  0.10000000000E+04  0.00000000000E+00 0.  1.
    9000005    2    1    2  501    0  0.54287226167E+02 -0.25546953054E+02 -0.84074608033E+03  0.84289009520E+03  0.31608971330E+01 0.  0.
         13    1    3    3    0    0  0.10896955515E+01 -0.64532156483E-01 -0.14081894159E+02  0.14124140466E+02  0.00000000000E+00 0.  1.
          3    1    3    3  501    0  0.53197530616E+02 -0.25482420897E+02 -0.82666418617E+03  0.82876595474E+03  0.00000000000E+00 0.  1.
         21    1    1    2  502  501 -0.54287226167E+02  0.25546953054E+02 -0.15249265598E+03  0.16387116849E+03  0.00000000000E+00 0.  1.
<mgrwt>
<rscale>  1 0.30000000E+03</rscale>
<asrwt>0</asrwt>
<pdfrwt beam="1">  1        1 0.24586465E-01 0.30000000E+03</pdfrwt>
<pdfrwt beam="2">0</pdfrwt>
<totfact> 0.22381508E+02</totfact>
</mgrwt>
</event>
<event>
 6    1  0.3125838E-002  0.3000000E+03  0.7818608E-02  0.1093470E+00
          1   -1    0    0  502    0  0.00000000000E+00  0.00000000000E+00  0.30568112944E+01  0.30568112944E+01  0.00000000000E+00 0.  1.
         13   -1    0    0    0    0 -0.00000000000E+00 -0.00000000000E+00 -0.10000000000E+04  0.10000000000E+04  0.00000000000E+00 0.  1.
    9000005    2    1    2  501    0  0.81502781200E+01 -0.46454782865E+02 -0.75988182631E+03  0.76134921228E+03  0.27855315161E+01 0.  0.
         13    1    3    3    0    0  0.38359409365E+01 -0.29034482680E+02 -0.46239666014E+03  0.46332319922E+03  0.00000000000E+00 0.  1.
          3    1    3    3  501    0  0.43143371835E+01 -0.17420300185E+02 -0.29748516617E+03  0.29802601305E+03  0.00000000000E+00 0.  1.
         21    1    1    2  502  501 -0.81502781200E+01  0.46454782865E+02 -0.23706136239E+03  0.24170759902E+03  0.00000000000E+00 0.  1.
<mgrwt>
<rscale>  1 0.30000000E+03</rscale>
<asrwt>0</asrwt>
<pdfrwt beam="1">  1        1 0.11115701E-01 0.30000000E+03</pdfrwt>
<pdfrwt beam="2">0</pdfrwt>
<totfact> 0.65331251E+02</totfact>
</mgrwt>
</event>
<event>
 6    1  0.3125838E-002  0.3000000E+03  0.7818608E-02  0.1093470E+00
          1   -1    0    0  502    0  0.00000000000E+00  0.00000000000E+00  0.21336471937E+01  0.21336471937E+01  0.00000000000E+00 0.  1.
         13   -1    0    0    0    0 -0.00000000000E+00 -0.00000000000E+00 -0.10000000000E+04  0.10000000000E+04  0.00000000000E+00 0.  1.
    9000005    2    1    2  501    0  0.26799087745E+02  0.22270551638E+02 -0.82735409206E+03  0.82809744510E+03  0.40517106899E+01 0.  0.
         13    1    3    3    0    0  0.20175395708E+02  0.14409011703E+02 -0.59246706654E+03  0.59298557415E+03  0.00000000000E+00 0.  1.
          1    1    3    3  501    0  0.66236920365E+01  0.78615399349E+01 -0.23488702552E+03  0.23511187095E+03  0.00000000000E+00 0.  1.
         21    1    1    2  502  501 -0.26799087745E+02 -0.22270551638E+02 -0.17051226075E+03  0.17403620210E+03  0.00000000000E+00 0.  1.
<mgrwt>
<rscale>  1 0.30000000E+03</rscale>
<asrwt>0</asrwt>
<pdfrwt beam="1">  1        1 0.77587334E-02 0.30000000E+03</pdfrwt>
<pdfrwt beam="2">0</pdfrwt>
<totfact> 0.10747269E+03</totfact>
</mgrwt>
</event>
<event>
 6    1  0.3125838E-002  0.3000000E+03  0.7818608E-02  0.1093470E+00
          3   -1    0    0  502    0  0.00000000000E+00  0.00000000000E+00  0.24069198156E+01  0.24069198156E+01  0.00000000000E+00 0.  1.
         13   -1    0    0    0    0 -0.00000000000E+00 -0.00000000000E+00 -0.10000000000E+04  0.10000000000E+04  0.00000000000E+00 0.  1.
    9000005    2    1    2  501    0  0.48193356853E+02 -0.11988365617E+01 -0.56502239824E+03  0.56715821881E+03  0.97004015876E+01 0.  0.
         13    1    3    3    0    0  0.27649596029E+02 -0.53069902151E+01 -0.30890338353E+03  0.31018375950E+03  0.00000000000E+00 0.  1.
          3    1    3    3  501    0  0.20543760823E+02  0.41081536534E+01 -0.25611901472E+03  0.25697445930E+03  0.00000000000E+00 0.  1.
         21    1    1    2  502  501 -0.48193356853E+02  0.11988365617E+01 -0.43257068194E+03  0.43524870101E+03  0.00000000000E+00 0.  1.
<mgrwt>
<rscale>  1 0.30000000E+03</rscale>
<asrwt>0</asrwt>
<pdfrwt beam="1">  1        3 0.87524541E-02 0.30000000E+03</pdfrwt>
<pdfrwt beam="2">0</pdfrwt>
<totfact> 0.41028846E+02</totfact>
</mgrwt>
</event>
<event>
 6    1  0.3125838E-002  0.3000000E+03  0.7818608E-02  0.1093470E+00
          1   -1    0    0  502    0  0.00000000000E+00  0.00000000000E+00  0.18877195906E+02  0.18877195906E+02  0.00000000000E+00 0.  1.
         13   -1    0    0    0    0 -0.00000000000E+00 -0.00000000000E+00 -0.10000000000E+04  0.10000000000E+04  0.00000000000E+00 0.  1.
    9000005    2    1    2  501    0 -0.56301392134E+02  0.83751206584E+02 -0.83614277296E+03  0.84223257870E+03  0.60719425970E+01 0.  0.
         13    1    3    3    0    0 -0.36005297763E+02  0.58433671969E+02 -0.57435007458E+03  0.57843658569E+03  0.00000000000E+00 0.  1.
          1    1    3    3  501    0 -0.20296094371E+02  0.25317534615E+02 -0.26179269838E+03  0.26379599301E+03  0.00000000000E+00 0.  1.
         21    1    1    2  502  501  0.56301392134E+02 -0.83751206584E+02 -0.14498003113E+03  0.17664461721E+03  0.00000000000E+00 0.  1.
<mgrwt>
<rscale>  1 0.30000000E+03</rscale>
<asrwt>0</asrwt>
<pdfrwt beam="1">  1        1 0.68644493E-01 0.30000000E+03</pdfrwt>
<pdfrwt beam="2">0</pdfrwt>
<totfact> 0.57898697E+01</totfact>
</mgrwt>
</event>
<event>
 6    1  0.3125838E-002  0.3000000E+03  0.7818608E-02  0.1093470E+00
          1   -1    0    0  502    0  0.00000000000E+00  0.00000000000E+00  0.94457486286E+00  0.94457486286E+00  0.00000000000E+00 0.  1.
         13   -1    0    0    0    0 -0.00000000000E+00 -0.00000000000E+00 -0.10000000000E+04  0.10000000000E+04  0.00000000000E+00 0.  1.
    9000005    2    1    2  501    0 -0.54780002607E-01  0.30233352706E+02 -0.58150526377E+03  0.58230129488E+03  0.35167613689E+01 0.  0.
         13    1    3    3    0    0 -0.27594412621E+00  0.27471606533E+02 -0.50606320690E+03  0.50680838064E+03  0.00000000000E+00 0.  1.
          1    1    3    3  501    0  0.22116412361E+00  0.27617461729E+01 -0.75442056871E+02  0.75492914240E+02  0.00000000000E+00 0.  1.
         21    1    1    2  502  501  0.54780002607E-01 -0.30233352706E+02 -0.41755016137E+03  0.41864327999E+03  0.00000000000E+00 0.  1.
<mgrwt>
<rscale>  1 0.30000000E+03</rscale>
<asrwt>0</asrwt>
<pdfrwt beam="1">  1        1 0.34348249E-02 0.30000000E+03</pdfrwt>
<pdfrwt beam="2">0</pdfrwt>
<totfact> 0.33739012E+03</totfact>
</mgrwt>
</event>
<event>
 6    1  0.3125838E-002  0.3000000E+03  0.7818608E-02  0.1093470E+00
          3   -1    0    0  502    0  0.00000000000E+00  0.00000000000E+00  0.73101314758E+01  0.73101314758E+01  0.00000000000E+00 0.  1.
         13   -1    0    0    0    0 -0.00000000000E+00 -0.00000000000E+00 -0.10000000000E+04  0.10000000000E+04  0.00000000000E+00 0.  1.
    9000005    2    1    2  501    0  0.73940871282E+01 -0.68009291752E+02 -0.79832277595E+03  0.80125551987E+03  0.33492132217E+01 0.  0.
         13    1    3    3    0    0  0.55385644983E+01 -0.59398481245E+02 -0.68778558167E+03  0.69036791758E+03  0.00000000000E+00 0.  1.
          1    1    3    3  501    0  0.18555226299E+01 -0.86108105076E+01 -0.11053719428E+03  0.11088760229E+03  0.00000000000E+00 0.  1.
         21    1    1    2  502  501 -0.73940871282E+01  0.68009291752E+02 -0.19436709258E+03  0.20605461161E+03  0.00000000000E+00 0.  1.
<mgrwt>
<rscale>  1 0.30000000E+03</rscale>
<asrwt>0</asrwt>
<pdfrwt beam="1">  1        3 0.26582352E-01 0.30000000E+03</pdfrwt>
<pdfrwt beam="2">0</pdfrwt>
<totfact> 0.58798839E+01</totfact>
</mgrwt>
</event>
<event>
 6    1  0.3125838E-002  0.3000000E+03  0.7818608E-02  0.1093470E+00
          1   -1    0    0  502    0  0.00000000000E+00  0.00000000000E+00  0.19312389913E+01  0.19312389913E+01  0.00000000000E+00 0.  1.
         13   -1    0    0    0    0 -0.00000000000E+00 -0.00000000000E+00 -0.10000000000E+04  0.10000000000E+04  0.00000000000E+00 0.  1.
    9000005    2    1    2  501    0 -0.17688595152E+02  0.29454207211E+02 -0.81080072018E+03  0.81153755255E+03  0.38671221357E+01 0.  0.
         13    1    3    3    0    0 -0.96973663084E+01  0.16140210747E+02 -0.48904367951E+03  0.48940603366E+03  0.00000000000E+00 0.  1.
          3    1    3    3  501    0 -0.79912288440E+01  0.13313996464E+02 -0.32175704067E+03  0.32213151889E+03  0.00000000000E+00 0.  1.
         21    1    1    2  502  501  0.17688595152E+02 -0.29454207211E+02 -0.18726804083E+03  0.19039368644E+03  0.00000000000E+00 0.  1.
<mgrwt>
<rscale>  1 0.30000000E+03</rscale>
<asrwt>0</asrwt>
<pdfrwt beam="1">  1        1 0.70227021E-02 0.30000000E+03</pdfrwt>
<pdfrwt beam="2">0</pdfrwt>
<totfact> 0.12352064E+03</totfact>
</mgrwt>
</event>
<event>
 6    1  0.3125838E-002  0.3000000E+03  0.7818608E-02  0.1093470E+00
          3   -1    0    0  502    0  0.00000000000E+00  0.00000000000E+00  0.24293047260E+01  0.24293047260E+01  0.00000000000E+00 0.  1.
         13   -1    0    0    0    0 -0.00000000000E+00 -0.00000000000E+00 -0.10000000000E+04  0.10000000000E+04  0.00000000000E+00 0.  1.
    9000005    2    1    2  501    0 -0.32019219058E+02 -0.11063325775E+02 -0.86261976721E+03  0.86329131369E+03  0.33766746383E+01 0.  0.
         13    1    3    3    0    0 -0.12087409313E+02 -0.53552088259E+01 -0.30564605687E+03  0.30593184831E+03  0.00000000000E+00 0.  1.
          1    1    3    3  501    0 -0.19931809746E+02 -0.57081169492E+01 -0.55697371034E+03  0.55735946538E+03  0.00000000000E+00 0.  1.
         21    1    1    2  502  501  0.32019219058E+02  0.11063325775E+02 -0.13495092806E+03  0.13913799104E+03  0.00000000000E+00 0.  1.
<mgrwt>
<rscale>  1 0.30000000E+03</rscale>
<asrwt>0</asrwt>
<pdfrwt beam="1">  1        3 0.88338540E-02 0.30000000E+03</pdfrwt>
<pdfrwt beam="2">0</pdfrwt>
<totfact> 0.40420676E+02</totfact>
</mgrwt>
</event>
<event>
 6    1  0.3125838E-002  0.3000000E+03  0.7818608E-02  0.1093470E+00
          3   -1    0    0  502    0  0.00000000000E+00  0.00000000000E+00  0.47695205404E+01  0.47695205404E+01  0.00000000000E+00 0.  1.
         13   -1    0    0    0    0 -0.00000000000E+00 -0.00000000000E+00 -0.10000000000E+04  0.10000000000E+04  0.00000000000E+00 0.  1.
    9000005    2    1    2  501    0  0.25132636293E+02  0.45818554940E+02 -0.82577299657E+03  0.82743698576E+03  0.44647685770E+01 0.  0.
         13    1    3    3    0    0  0.21396806537E+02  0.41820303443E+02 -0.73796519080E+03  0.73945884534E+03  0.00000000000E+00 0.  1.
          1    1    3    3  501    0  0.37358297565E+01  0.39982514969E+01 -0.87807805763E+02  0.87978140421E+02  0.00000000000E+00 0.  1.
         21    1    1    2  502  501 -0.25132636293E+02 -0.45818554940E+02 -0.16945748289E+03  0.17733253478E+03  0.00000000000E+00 0.  1.
<mgrwt>
<rscale>  1 0.30000000E+03</rscale>
<asrwt>0</asrwt>
<pdfrwt beam="1">  1        3 0.17343748E-01 0.30000000E+03</pdfrwt>
<pdfrwt beam="2">0</pdfrwt>
<totfact> 0.12905789E+02</totfact>
</mgrwt>
</event>
<event>
 6    1  0.3125838E-002  0.3000000E+03  0.7818608E-02  0.1093470E+00
          3   -1    0    0  502    0  0.00000000000E+00  0.00000000000E+00  0.97876283230E+00  0.97876283230E+00  0.00000000000E+00 0.  1.
         13   -1    0    0    0    0 -0.00000000000E+00 -0.00000000000E+00 -0.10000000000E+04  0.10000000000E+04  0.00000000000E+00 0.  1.
    9000005    2    1    2  501    0  0.27559531474E+02 -0.13489971458E+02 -0.41048398603E+03  0.41164218406E+03  0.32676908901E+01 0.  0.
         13    1    3    3    0    0  0.15249310100E+02 -0.76386564551E+01 -0.24945850452E+03  0.25004086868E+03  0.00000000000E+00 0.  1.
          3    1    3    3  501    0  0.12310221373E+02 -0.58513150028E+01 -0.16102548151E+03  0.16160131538E+03  0.00000000000E+00 0.  1.
         21    1    1    2  502  501 -0.27559531474E+02  0.13489971458E+02 -0.58853725114E+03  0.58933657878E+03  0.00000000000E+00 0.  1.
<mgrwt>
<rscale>  1 0.30000000E+03</rscale>
<asrwt>0</asrwt>
<pdfrwt beam="1">  1        3 0.35591451E-02 0.30000000E+03</pdfrwt>
<pdfrwt beam="2">0</pdfrwt>
<totfact> 0.16699735E+03</totfact>
</mgrwt>
</event>
<event>
 6    1  0.3125838E-002  0.3000000E+03  0.7818608E-02  0.1093470E+00
          1   -1    0    0  502    0  0.00000000000E+00  0.00000000000E+00  0.80971360198E+01  0.80971360198E+01  0.00000000000E+00 0.  1.
         13   -1    0    0    0    0 -0.00000000000E+00 -0.00000000000E+00 -0.10000000000E+04  0.10000000000E+04  0.00000000000E+00 0.  1.
    9000005    2    1    2  501    0  0.73803828709E+02  0.49218082080E+02 -0.41240945974E+03  0.42185313367E+03  0.30131655660E+01 0.  0.
         13    1    3    3    0    0  0.56133444534E+02  0.38550399741E+02 -0.31228299650E+03  0.31962128655E+03  0.00000000000E+00 0.  1.
          3    1    3    3  501    0  0.17670384175E+02  0.10667682339E+02 -0.10012646324E+03  0.10223184711E+03  0.00000000000E+00 0.  1.
         21    1    1    2  502  501 -0.73803828709E+02 -0.49218082080E+02 -0.57949340424E+03  0.58624400235E+03  0.00000000000E+00 0.  1.
<mgrwt>
<rscale>  1 0.30000000E+03</rscale>
<asrwt>0</asrwt>
<pdfrwt beam="1">  1        1 0.29444193E-01 0.30000000E+03</pdfrwt>
<pdfrwt beam="2">0</pdfrwt>
<totfact> 0.17649389E+02</totfact>
</mgrwt>
</event>
<event>
 6    1  0.3125838E-002  0.3000000E+03  0.7818608E-02  0.1093470E+00
          1   -1    0    0  502    0  0.00000000000E+00  0.00000000000E+00  0.31597024566E+01  0.31597024566E+01  0.00000000000E+00 0.  1.
         13   -1    0    0    0    0 -0.00000000000E+00 -0.00000000000E+00 -0.10000000000E+04  0.10000000000E+04  0.00000000000E+00 0.  1.
    9000005    2    1    2  501    0 -0.34016571792E+02  0.33346409683E+01 -0.89651716052E+03  0.89717395431E+03  0.31365918170E+01 0.  0.
         13    1    3    3    0    0 -0.77861279061E+01  0.84875630611E+00 -0.17300708647E+03  0.17318428377E+03  0.00000000000E+00 0.  1.
          1    1    3    3  501    0 -0.26230443886E+02  0.24858846622E+01 -0.72351007405E+03  0.72398967055E+03  0.00000000000E+00 0.  1.
         21    1    1    2  502  501  0.34016571792E+02 -0.33346409683E+01 -0.10032313703E+03  0.10598574814E+03  0.00000000000E+00 0.  1.
<mgrwt>
<rscale>  1 0.30000000E+03</rscale>
<asrwt>0</asrwt>
<pdfrwt beam="1">  1        1 0.11489851E-01 0.30000000E+03</pdfrwt>
<pdfrwt beam="2">0</pdfrwt>
<totfact> 0.62428145E+02</totfact>
</mgrwt>
</event>
<event>
 6    1  0.3125838E-002  0.3000000E+03  0.7818608E-02  0.1093470E+00
          1   -1    0    0  502    0  0.00000000000E+00  0.00000000000E+00  0.23028214073E+01  0.23028214073E+01  0.00000000000E+00 0.  1.
         13   -1    0    0    0    0 -0.00000000000E+00 -0.00000000000E+00 -0.10000000000E+04  0.10000000000E+04  0.00000000000E+00 0.  1.
    9000005    2    1    2  501    0  0.12705847031E+02 -0.45505465981E+02 -0.41485856869E+03  0.41755242066E+03  0.31946829536E+01 0.  0.
         13    1    3    3    0    0  0.37467090731E+01 -0.15066961933E+02 -0.12395377357E+03  0.12492233248E+03  0.00000000000E+00 0.  1.
          3    1    3    3  501    0  0.89591379582E+01 -0.30438504048E+02 -0.29090479512E+03  0.29263008818E+03  0.00000000000E+00 0.  1.
         21    1    1    2  502  501 -0.12705847031E+02  0.45505465981E+02 -0.58283860990E+03  0.58475040075E+03  0.00000000000E+00 0.  1.
<mgrwt>
<rscale>  1 0.30000000E+03</rscale>
<asrwt>0</asrwt>
<pdfrwt beam="1">  1        1 0.83739137E-02 0.30000000E+03</pdfrwt>
<pdfrwt beam="2">0</pdfrwt>
<totfact> 0.96643222E+02</totfact>
</mgrwt>
</event>
<event>
 6    1  0.3125838E-002  0.3000000E+03  0.7818608E-02  0.1093470E+00
          3   -1    0    0  502    0  0.00000000000E+00  0.00000000000E+00  0.23262432650E+01  0.23262432650E+01  0.00000000000E+00 0.  1.
         13   -1    0    0    0    0 -0.00000000000E+00 -0.00000000000E+00 -0.10000000000E+04  0.10000000000E+04  0.00000000000E+00 0.  1.
    9000005    2    1    2  501    0  0.69712090606E+01 -0.41040817995E+02 -0.75155137796E+03  0.75270819137E+03  0.26834951546E+01 0.  0.
         13    1    3    3    0    0  0.11738281611E+01 -0.51038433894E+01 -0.11068944213E+03  0.11081326495E+03  0.00000000000E+00 0.  1.
          3    1    3    3  501    0  0.57973808995E+01 -0.35936974605E+02 -0.64086193583E+03  0.64189492642E+03  0.00000000000E+00 0.  1.
         21    1    1    2  502  501 -0.69712090606E+01  0.41040817995E+02 -0.24612237878E+03  0.24961805189E+03  0.00000000000E+00 0.  1.
<mgrwt>
<rscale>  1 0.30000000E+03</rscale>
<asrwt>0</asrwt>
<pdfrwt beam="1">  1        3 0.84590843E-02 0.30000000E+03</pdfrwt>
<pdfrwt beam="2">0</pdfrwt>
<totfact> 0.43342039E+02</totfact>
</mgrwt>
</event>
<event>
 6    1  0.3125838E-002  0.3000000E+03  0.7818608E-02  0.1093470E+00
          1   -1    0    0  502    0  0.00000000000E+00  0.00000000000E+00  0.11753506290E+01  0.11753506290E+01  0.00000000000E+00 0.  1.
         13   -1    0    0    0    0 -0.00000000000E+00 -0.00000000000E+00 -0.10000000000E+04  0.10000000000E+04  0.00000000000E+00 0.  1.
    9000005    2    1    2  501    0 -0.31418121431E+02  0.11302936261E+02 -0.61044236030E+03  0.61136044945E+03  0.26209106152E+01 0.  0.
         13    1    3    3    0    0 -0.17474053713E+01  0.54314407014E-01 -0.28361806437E+02  0.28415637244E+02  0.00000000000E+00 0.  1.
          1    1    3    3  501    0 -0.29670716060E+02  0.11248621854E+02 -0.58208055387E+03  0.58294481220E+03  0.00000000000E+00 0.  1.
         21    1    1    2  502  501  0.31418121431E+02 -0.11302936261E+02 -0.38838228907E+03  0.38981490118E+03  0.00000000000E+00 0.  1.
<mgrwt>
<rscale>  1 0.30000000E+03</rscale>
<asrwt>0</asrwt>
<pdfrwt beam="1">  1        1 0.42740113E-02 0.30000000E+03</pdfrwt>
<pdfrwt beam="2">0</pdfrwt>
<totfact> 0.24804174E+03</totfact>
</mgrwt>
</event>
<event>
 6    1  0.3125838E-002  0.3000000E+03  0.7818608E-02  0.1093470E+00
          1   -1    0    0  502    0  0.00000000000E+00  0.00000000000E+00  0.10264478844E+02  0.10264478844E+02  0.00000000000E+00 0.  1.
         13   -1    0    0    0    0 -0.00000000000E+00 -0.00000000000E+00 -0.10000000000E+04  0.10000000000E+04  0.00000000000E+00 0.  1.
    9000005    2    1    2  501    0 -0.66429408806E+02  0.19217201167E+02 -0.86395899154E+03  0.86673085011E+03  0.38807600542E+01 0.  0.
         13    1    3    3    0    0 -0.13016583922E+02  0.52112433567E+01 -0.16626008946E+03  0.16685024980E+03  0.00000000000E+00 0.  1.
          1    1    3    3  501    0 -0.53412824884E+02  0.14005957810E+02 -0.69769890208E+03  0.69988060030E+03  0.00000000000E+00 0.  1.
         21    1    1    2  502  501  0.66429408806E+02 -0.19217201167E+02 -0.12577652962E+03  0.14353362874E+03  0.00000000000E+00 0.  1.
<mgrwt>
<rscale>  1 0.30000000E+03</rscale>
<asrwt>0</asrwt>
<pdfrwt beam="1">  1        1 0.37325456E-01 0.30000000E+03</pdfrwt>
<pdfrwt beam="2">0</pdfrwt>
<totfact> 0.12938392E+02</totfact>
</mgrwt>
</event>
<event>
 6    1  0.3125838E-002  0.3000000E+03  0.7818608E-02  0.1093470E+00
          1   -1    0    0  502    0  0.00000000000E+00  0.00000000000E+00  0.21867170140E+01  0.21867170140E+01  0.00000000000E+00 0.  1.
         13   -1    0    0    0    0 -0.00000000000E+00 -0.00000000000E+00 -0.10000000000E+04  0.10000000000E+04  0.00000000000E+00 0.  1.
    9000005    2    1    2  501    0  0.44226639611E+02 -0.68181616880E+01 -0.35738631627E+03  0.36019825709E+03  0.39143802462E+01 0.  0.
         13    1    3    3    0    0  0.17261354725E+02 -0.33448302673E+01 -0.12626776415E+03  0.12748604049E+03  0.00000000000E+00 0.  1.
          3    1    3    3  501    0  0.26965284886E+02 -0.34733314207E+01 -0.23111855213E+03  0.23271221661E+03  0.00000000000E+00 0.  1.
         21    1    1    2  502  501 -0.44226639611E+02  0.68181616880E+01 -0.64042696671E+03  0.64198845992E+03  0.00000000000E+00 0.  1.
<mgrwt>
<rscale>  1 0.30000000E+03</rscale>
<asrwt>0</asrwt>
<pdfrwt beam="1">  1        1 0.79517150E-02 0.30000000E+03</pdfrwt>
<pdfrwt beam="2">0</pdfrwt>
<totfact> 0.10385600E+03</totfact>
</mgrwt>
</event>
<event>
 6    1  0.3125838E-002  0.3000000E+03  0.7818608E-02  0.1093470E+00
          3   -1    0    0  502    0  0.00000000000E+00  0.00000000000E+00  0.11188195858E+01  0.11188195858E+01  0.00000000000E+00 0.  1.
         13   -1    0    0    0    0 -0.00000000000E+00 -0.00000000000E+00 -0.10000000000E+04  0.10000000000E+04  0.00000000000E+00 0.  1.
    9000005    2    1    2  501    0  0.31008954598E+02 -0.68292927047E+01 -0.65380215441E+03  0.65458205574E+03  0.34951523969E+01 0.  0.
         13    1    3    3    0    0  0.23746012628E+02 -0.47248769354E+01 -0.52521401588E+03  0.52577177563E+03  0.00000000000E+00 0.  1.
          3    1    3    3  501    0  0.72629419696E+01 -0.21044157693E+01 -0.12858813853E+03  0.12881028011E+03  0.00000000000E+00 0.  1.
         21    1    1    2  502  501 -0.31008954598E+02  0.68292927047E+01 -0.34507902601E+03  0.34653676384E+03  0.00000000000E+00 0.  1.
<mgrwt>
<rscale>  1 0.30000000E+03</rscale>
<asrwt>0</asrwt>
<pdfrwt beam="1">  1        3 0.40684434E-02 0.30000000E+03</pdfrwt>
<pdfrwt beam="2">0</pdfrwt>
<totfact> 0.13593744E+03</totfact>
</mgrwt>
</event>
<event>
 6    1  0.3125838E-002  0.3000000E+03  0.7818608E-02  0.1093470E+00
          3   -1    0    0  502    0  0.00000000000E+00  0.00000000000E+00  0.20821370927E+01  0.20821370927E+01  0.00000000000E+00 0.  1.
         13   -1    0    0    0    0 -0.00000000000E+00 -0.00000000000E+00 -0.10000000000E+04  0.10000000000E+04  0.00000000000E+00 0.  1.
    9000005    2    1    2  501    0 -0.30736516169E+02 -0.26652439762E+02 -0.72470443722E+03  0.72585639255E+03  0.39868923207E+01 0.  0.
         13    1    3    3    0    0 -0.53356210347E+01 -0.29803816537E+01 -0.12114350414E+03  0.12129756849E+03  0.00000000000E+00 0.  1.
          1    1    3    3  501    0 -0.25400895134E+02 -0.23672058108E+02 -0.60356093308E+03  0.60455882406E+03  0.00000000000E+00 0.  1.
         21    1    1    2  502  501  0.30736516169E+02  0.26652439762E+02 -0.27321342569E+03  0.27622574454E+03  0.00000000000E+00 0.  1.
<mgrwt>
<rscale>  1 0.30000000E+03</rscale>
<asrwt>0</asrwt>
<pdfrwt beam="1">  1        3 0.75714236E-02 0.30000000E+03</pdfrwt>
<pdfrwt beam="2">0</pdfrwt>
<totfact> 0.51734100E+02</totfact>
</mgrwt>
</event>
<event>
 6    1  0.3125838E-002  0.3000000E+03  0.7818608E-02  0.1093470E+00
          1   -1    0    0  502    0  0.00000000000E+00  0.00000000000E+00  0.19785632133E+01  0.19785632133E+01  0.00000000000E+00 0.  1.
         13   -1    0    0    0    0 -0.00000000000E+00 -0.00000000000E+00 -0.10000000000E+04  0.10000000000E+04  0.00000000000E+00 0.  1.
    9000005    2    1    2  501    0 -0.32887107834E+02 -0.27105111289E+02 -0.64082382236E+03  0.64224757390E+03  0.32443731978E+01 0.  0.
         13    1    3    3    0    0 -0.29432680145E+02 -0.23002058021E+02 -0.56701237687E+03  0.56824150927E+03  0.00000000000E+00 0.  1.
          3    1    3    3  501    0 -0.34544276893E+01 -0.41030532688E+01 -0.73811445497E+02  0.74006064637E+02  0.00000000000E+00 0.  1.
         21    1    1    2  502  501  0.32887107834E+02  0.27105111289E+02 -0.35719761442E+03  0.35973098931E+03  0.00000000000E+00 0.  1.
<mgrwt>
<rscale>  1 0.30000000E+03</rscale>
<asrwt>0</asrwt>
<pdfrwt beam="1">  1        1 0.71947905E-02 0.30000000E+03</pdfrwt>
<pdfrwt beam="2">0</pdfrwt>
<totfact> 0.11941070E+03</totfact>
</mgrwt>
</event>
<event>
 6    1  0.3125838E-002  0.3000000E+03  0.7818608E-02  0.1093470E+00
          1   -1    0    0  502    0  0.00000000000E+00  0.00000000000E+00  0.11190777580E+01  0.11190777580E+01  0.00000000000E+00 0.  1.
         13   -1    0    0    0    0 -0.00000000000E+00 -0.00000000000E+00 -0.10000000000E+04  0.10000000000E+04  0.00000000000E+00 0.  1.
    9000005    2    1    2  501    0 -0.10332298158E+02  0.31425393871E+02 -0.43288715643E+03  0.43415941896E+03  0.29663285935E+01 0.  0.
         13    1    3    3    0    0 -0.43295737459E+01  0.16861135021E+02 -0.21506434404E+03  0.21576773429E+03  0.00000000000E+00 0.  1.
          3    1    3    3  501    0 -0.60027244119E+01  0.14564258850E+02 -0.21782281239E+03  0.21839168467E+03  0.00000000000E+00 0.  1.
         21    1    1    2  502  501  0.10332298158E+02 -0.31425393871E+02 -0.56599376581E+03  0.56695965880E+03  0.00000000000E+00 0.  1.
<mgrwt>
<rscale>  1 0.30000000E+03</rscale>
<asrwt>0</asrwt>
<pdfrwt beam="1">  1        1 0.40693822E-02 0.30000000E+03</pdfrwt>
<pdfrwt beam="2">0</pdfrwt>
<totfact> 0.26578142E+03</totfact>
</mgrwt>
</event>
<event>
 6    1  0.3125838E-002  0.3000000E+03  0.7818608E-02  0.1093470E+00
          1   -1    0    0  502    0  0.00000000000E+00  0.00000000000E+00  0.18767266293E+02  0.18767266293E+02  0.00000000000E+00 0.  1.
         13   -1    0    0    0    0 -0.00000000000E+00 -0.00000000000E+00 -0.10000000000E+04  0.10000000000E+04  0.00000000000E+00 0.  1.
    9000005    2    1    2  501    0  0.84606991703E+02  0.10769111946E+03 -0.49876154735E+03  0.51723544685E+03  0.37021754420E+01 0.  0.
         13    1    3    3    0    0  0.39913360014E+02  0.53254349176E+02 -0.24633012454E+03  0.25516197262E+03  0.00000000000E+00 0.  1.
          3    1    3    3  501    0  0.44693631689E+02  0.54436770280E+02 -0.25243142281E+03  0.26207347423E+03  0.00000000000E+00 0.  1.
         21    1    1    2  502  501 -0.84606991703E+02 -0.10769111946E+03 -0.48247118636E+03  0.50153181945E+03  0.00000000000E+00 0.  1.
<mgrwt>
<rscale>  1 0.30000000E+03</rscale>
<asrwt>0</asrwt>
<pdfrwt beam="1">  1        1 0.68244749E-01 0.30000000E+03</pdfrwt>
<pdfrwt beam="2">0</pdfrwt>
<totfact> 0.58358008E+01</totfact>
</mgrwt>
</event>
<event>
 6    1  0.3125838E-002  0.3000000E+03  0.7818608E-02  0.1093470E+00
          3   -1    0    0  502    0  0.00000000000E+00  0.00000000000E+00  0.31733837406E+01  0.31733837406E+01  0.00000000000E+00 0.  1.
         13   -1    0    0    0    0 -0.00000000000E+00 -0.00000000000E+00 -0.10000000000E+04  0.10000000000E+04  0.00000000000E+00 0.  1.
    9000005    2    1    2  501    0 -0.24954581759E+02  0.46421797368E+02 -0.67467352633E+03  0.67673758948E+03  0.34181087011E+01 0.  0.
         13    1    3    3    0    0 -0.51172656710E+01  0.68702810073E+01 -0.11064468647E+03  0.11097582536E+03  0.00000000000E+00 0.  1.
          1    1    3    3  501    0 -0.19837316088E+02  0.39551516360E+02 -0.56402883985E+03  0.56576176412E+03  0.00000000000E+00 0.  1.
         21    1    1    2  502  501  0.24954581759E+02 -0.46421797368E+02 -0.32215308993E+03  0.32643579426E+03  0.00000000000E+00 0.  1.
<mgrwt>
<rscale>  1 0.30000000E+03</rscale>
<asrwt>0</asrwt>
<pdfrwt beam="1">  1        3 0.11539602E-01 0.30000000E+03</pdfrwt>
<pdfrwt beam="2">0</pdfrwt>
<totfact> 0.26019555E+02</totfact>
</mgrwt>
</event>
<event>
 6    1  0.3125838E-002  0.3000000E+03  0.7818608E-02  0.1093470E+00
          1   -1    0    0  502    0  0.00000000000E+00  0.00000000000E+00  0.39553526761E+01  0.39553526761E+01  0.00000000000E+00 0.  1.
         13   -1    0    0    0    0 -0.00000000000E+00 -0.00000000000E+00 -0.10000000000E+04  0.10000000000E+04  0.00000000000E+00 0.  1.
    9000005    2    1    2  501    0  0.94231192941E+01  0.34424725082E+02 -0.91120889478E+03  0.91191752467E+03  0.42502943292E+01 0.  0.
         13    1    3    3    0    0  0.32418755484E+01  0.16380925157E+02 -0.47003887965E+03  0.47033540463E+03  0.00000000000E+00 0.  1.
          1    1    3    3  501    0  0.61812437457E+01  0.18043799925E+02 -0.44117001513E+03  0.44158212004E+03  0.00000000000E+00 0.  1.
         21    1    1    2  502  501 -0.94231192941E+01 -0.34424725082E+02 -0.84835752547E+02  0.92037828008E+02  0.00000000000E+00 0.  1.
<mgrwt>
<rscale>  1 0.30000000E+03</rscale>
<asrwt>0</asrwt>
<pdfrwt beam="1">  1        1 0.14383131E-01 0.30000000E+03</pdfrwt>
<pdfrwt beam="2">0</pdfrwt>
<totfact> 0.45927647E+02</totfact>
</mgrwt>
</event>
<event>
 6    1  0.3125838E-002  0.3000000E+03  0.7818608E-02  0.1093470E+00
          1   -1    0    0  502    0  0.00000000000E+00  0.00000000000E+00  0.22603255449E+01  0.22603255449E+01  0.00000000000E+00 0.  1.
         13   -1    0    0    0    0 -0.00000000000E+00 -0.00000000000E+00 -0.10000000000E+04  0.10000000000E+04  0.00000000000E+00 0.  1.
    9000005    2    1    2  501    0  0.29491443003E+02  0.19165145340E+02 -0.83563792326E+03  0.83638680220E+03  0.38853697449E+01 0.  0.
         13    1    3    3    0    0  0.98494083255E+01  0.46024946789E+01 -0.28067201898E+03  0.28088249508E+03  0.00000000000E+00 0.  1.
          3    1    3    3  501    0  0.19642034678E+02  0.14562650661E+02 -0.55496590427E+03  0.55550430712E+03  0.00000000000E+00 0.  1.
         21    1    1    2  502  501 -0.29491443003E+02 -0.19165145340E+02 -0.16210175120E+03  0.16587352335E+03  0.00000000000E+00 0.  1.
<mgrwt>
<rscale>  1 0.30000000E+03</rscale>
<asrwt>0</asrwt>
<pdfrwt beam="1">  1        1 0.82193830E-02 0.30000000E+03</pdfrwt>
<pdfrwt beam="2">0</pdfrwt>
<totfact> 0.99178962E+02</totfact>
</mgrwt>
</event>
<event>
 6    1  0.3125838E-002  0.3000000E+03  0.7818608E-02  0.1093470E+00
          1   -1    0    0  502    0  0.00000000000E+00  0.00000000000E+00  0.17720405174E+01  0.17720405174E+01  0.00000000000E+00 0.  1.
         13   -1    0    0    0    0 -0.00000000000E+00 -0.00000000000E+00 -0.10000000000E+04  0.10000000000E+04  0.00000000000E+00 0.  1.
    9000005    2    1    2  501    0 -0.33135384304E+02 -0.20605223208E+02 -0.68544548635E+03  0.68656511734E+03  0.36900788713E+01 0.  0.
         13    1    3    3    0    0 -0.19680675331E+02 -0.10093344256E+02 -0.38383759389E+03  0.38447432042E+03  0.00000000000E+00 0.  1.
          1    1    3    3  501    0 -0.13454708973E+02 -0.10511878952E+02 -0.30160789246E+03  0.30209079692E+03  0.00000000000E+00 0.  1.
         21    1    1    2  502  501  0.33135384304E+02  0.20605223208E+02 -0.31278247314E+03  0.31520692318E+03  0.00000000000E+00 0.  1.
<mgrwt>
<rscale>  1 0.30000000E+03</rscale>
<asrwt>0</asrwt>
<pdfrwt beam="1">  1        1 0.64437973E-02 0.30000000E+03</pdfrwt>
<pdfrwt beam="2">0</pdfrwt>
<totfact> 0.13932578E+03</totfact>
</mgrwt>
</event>
<event>
 6    1  0.3125838E-002  0.3000000E+03  0.7818608E-02  0.1093470E+00
          3   -1    0    0  502    0  0.00000000000E+00  0.00000000000E+00  0.23399499313E+01  0.23399499313E+01  0.00000000000E+00 0.  1.
         13   -1    0    0    0    0 -0.00000000000E+00 -0.00000000000E+00 -0.10000000000E+04  0.10000000000E+04  0.00000000000E+00 0.  1.
    9000005    2    1    2  501    0 -0.17053465891E+02  0.45055250198E+02 -0.46254018366E+03  0.46505597689E+03  0.35838338459E+01 0.  0.
         13    1    3    3    0    0 -0.13071518167E+02  0.31717995625E+02 -0.34104542481E+03  0.34276650598E+03  0.00000000000E+00 0.  1.
          3    1    3    3  501    0 -0.39819477241E+01  0.13337254573E+02 -0.12149475885E+03  0.12228947091E+03  0.00000000000E+00 0.  1.
         21    1    1    2  502  501  0.17053465891E+02 -0.45055250198E+02 -0.53511986641E+03  0.53728397305E+03  0.00000000000E+00 0.  1.
<mgrwt>
<rscale>  1 0.30000000E+03</rscale>
<asrwt>0</asrwt>
<pdfrwt beam="1">  1        3 0.85089268E-02 0.30000000E+03</pdfrwt>
<pdfrwt beam="2">0</pdfrwt>
<totfact> 0.42935029E+02</totfact>
</mgrwt>
</event>
<event>
 6    1  0.3125838E-002  0.3000000E+03  0.7818608E-02  0.1093470E+00
          1   -1    0    0  502    0  0.00000000000E+00  0.00000000000E+00  0.16793951267E+01  0.16793951267E+01  0.00000000000E+00 0.  1.
         13   -1    0    0    0    0 -0.00000000000E+00 -0.00000000000E+00 -0.10000000000E+04  0.10000000000E+04  0.00000000000E+00 0.  1.
    9000005    2    1    2  501    0 -0.30949395599E+02  0.18431398260E+02 -0.73694810029E+03  0.73783632116E+03  0.35146503699E+01 0.  0.
         13    1    3    3    0    0 -0.15711114893E+02  0.10858723411E+02 -0.41385205778E+03  0.41429250142E+03  0.00000000000E+00 0.  1.
          3    1    3    3  501    0 -0.15238280706E+02  0.75726748494E+01 -0.32309604251E+03  0.32354381973E+03  0.00000000000E+00 0.  1.
         21    1    1    2  502  501  0.30949395599E+02 -0.18431398260E+02 -0.26137250458E+03  0.26384307397E+03  0.00000000000E+00 0.  1.
<mgrwt>
<rscale>  1 0.30000000E+03</rscale>
<asrwt>0</asrwt>
<pdfrwt beam="1">  1        1 0.61069042E-02 0.30000000E+03</pdfrwt>
<pdfrwt beam="2">0</pdfrwt>
<totfact> 0.15021704E+03</totfact>
</mgrwt>
</event>
<event>
 6    1  0.3125838E-002  0.3000000E+03  0.7818608E-02  0.1093470E+00
          1   -1    0    0  502    0  0.00000000000E+00  0.00000000000E+00  0.87506560733E+01  0.87506560733E+01  0.00000000000E+00 0.  1.
         13   -1    0    0    0    0 -0.00000000000E+00 -0.00000000000E+00 -0.10000000000E+04  0.10000000000E+04  0.00000000000E+00 0.  1.
    9000005    2    1    2  501    0 -0.22497058171E+02 -0.29918822249E+02 -0.95783132920E+03  0.95857080693E+03  0.39853688700E+01 0.  0.
         13    1    3    3    0    0 -0.62129219941E+01 -0.58231384231E+01 -0.19745041697E+03  0.19763394572E+03  0.00000000000E+00 0.  1.
          1    1    3    3  501    0 -0.16284136177E+02 -0.24095683826E+02 -0.76038091223E+03  0.76093686121E+03  0.00000000000E+00 0.  1.
         21    1    1    2  502  501  0.22497058171E+02  0.29918822249E+02 -0.33418014730E+02  0.50179849139E+02  0.00000000000E+00 0.  1.
<mgrwt>
<rscale>  1 0.30000000E+03</rscale>
<asrwt>0</asrwt>
<pdfrwt beam="1">  1        1 0.31820635E-01 0.30000000E+03</pdfrwt>
<pdfrwt beam="2">0</pdfrwt>
<totfact> 0.15941263E+02</totfact>
</mgrwt>
</event>
<event>
 6    1  0.3125838E-002  0.3000000E+03  0.7818608E-02  0.1093470E+00
          3   -1    0    0  502    0  0.00000000000E+00  0.00000000000E+00  0.37609139158E+01  0.37609139158E+01  0.00000000000E+00 0.  1.
         13   -1    0    0    0    0 -0.00000000000E+00 -0.00000000000E+00 -0.10000000000E+04  0.10000000000E+04  0.00000000000E+00 0.  1.
    9000005    2    1    2  501    0  0.47565034010E+02  0.35779466707E+00 -0.81460898473E+03  0.81600560987E+03  0.38466697000E+01 0.  0.
         13    1    3    3    0    0  0.37560588502E+02  0.17934309804E+01 -0.63465591050E+03  0.63576893517E+03  0.00000000000E+00 0.  1.
          3    1    3    3  501    0  0.10004445508E+02 -0.14356363133E+01 -0.17995307423E+03  0.18023667470E+03  0.00000000000E+00 0.  1.
         21    1    1    2  502  501 -0.47565034010E+02 -0.35779466707E+00 -0.18163010136E+03  0.18775530404E+03  0.00000000000E+00 0.  1.
<mgrwt>
<rscale>  1 0.30000000E+03</rscale>
<asrwt>0</asrwt>
<pdfrwt beam="1">  1        3 0.13676079E-01 0.30000000E+03</pdfrwt>
<pdfrwt beam="2">0</pdfrwt>
<totfact> 0.19513280E+02</totfact>
</mgrwt>
</event>
<event>
 6    1  0.3125838E-002  0.3000000E+03  0.7818608E-02  0.1093470E+00
          1   -1    0    0  502    0  0.00000000000E+00  0.00000000000E+00  0.26982379543E+01  0.26982379543E+01  0.00000000000E+00 0.  1.
         13   -1    0    0    0    0 -0.00000000000E+00 -0.00000000000E+00 -0.10000000000E+04  0.10000000000E+04  0.00000000000E+00 0.  1.
    9000005    2    1    2  501    0  0.42512571745E+02  0.29075752858E+02 -0.56027756804E+03  0.56264953121E+03  0.32899182025E+01 0.  0.
         13    1    3    3    0    0  0.15276969723E+02  0.11068247461E+02 -0.22180461592E+03  0.22260543468E+03  0.00000000000E+00 0.  1.
          1    1    3    3  501    0  0.27235602023E+02  0.18007505397E+02 -0.33847295212E+03  0.34004409653E+03  0.00000000000E+00 0.  1.
         21    1    1    2  502  501 -0.42512571745E+02 -0.29075752858E+02 -0.43702419401E+03  0.44004870674E+03  0.00000000000E+00 0.  1.
<mgrwt>
<rscale>  1 0.30000000E+03</rscale>
<asrwt>0</asrwt>
<pdfrwt beam="1">  1        1 0.98117951E-02 0.30000000E+03</pdfrwt>
<pdfrwt beam="2">0</pdfrwt>
<totfact> 0.77583057E+02</totfact>
</mgrwt>
</event>
<event>
 6    1  0.3125838E-002  0.3000000E+03  0.7818608E-02  0.1093470E+00
          1   -1    0    0  502    0  0.00000000000E+00  0.00000000000E+00  0.28626031187E+01  0.28626031187E+01  0.00000000000E+00 0.  1.
         13   -1    0    0    0    0 -0.00000000000E+00 -0.00000000000E+00 -0.10000000000E+04  0.10000000000E+04  0.00000000000E+00 0.  1.
    9000005    2    1    2  501    0  0.39174782928E+01 -0.47705097575E+02 -0.72197758051E+03  0.72357055613E+03  0.34058706670E+01 0.  0.
         13    1    3    3    0    0  0.80493897867E+00 -0.29742591465E+02 -0.45161726071E+03  0.45259631002E+03  0.00000000000E+00 0.  1.
          3    1    3    3  501    0  0.31125393141E+01 -0.17962506110E+02 -0.27036031980E+03  0.27097424610E+03  0.00000000000E+00 0.  1.
         21    1    1    2  502  501 -0.39174782928E+01  0.47705097575E+02 -0.27515981637E+03  0.27929204699E+03  0.00000000000E+00 0.  1.
<mgrwt>
<rscale>  1 0.30000000E+03</rscale>
<asrwt>0</asrwt>
<pdfrwt beam="1">  1        1 0.10409488E-01 0.30000000E+03</pdfrwt>
<pdfrwt beam="2">0</pdfrwt>
<totfact> 0.71504899E+02</totfact>
</mgrwt>
</event>
<event>
 6    1  0.3125838E-002  0.3000000E+03  0.7818608E-02  0.1093470E+00
          3   -1    0    0  502    0  0.00000000000E+00  0.00000000000E+00  0.21314238031E+01  0.21314238031E+01  0.00000000000E+00 0.  1.
         13   -1    0    0    0    0 -0.00000000000E+00 -0.00000000000E+00 -0.10000000000E+04  0.10000000000E+04  0.00000000000E+00 0.  1.
    9000005    2    1    2  501    0  0.15586847903E+02 -0.39032627097E+02 -0.29359463397E+03  0.29660447074E+03  0.31475638873E+01 0.  0.
         13    1    3    3    0    0  0.14505537064E+02 -0.36079512608E+02 -0.26510537795E+03  0.26794216401E+03  0.00000000000E+00 0.  1.
          3    1    3    3  501    0  0.10813108385E+01 -0.29531144890E+01 -0.28489256021E+02  0.28662306728E+02  0.00000000000E+00 0.  1.
         21    1    1    2  502  501 -0.15586847903E+02  0.39032627097E+02 -0.70427394223E+03  0.70552695307E+03  0.00000000000E+00 0.  1.
<mgrwt>
<rscale>  1 0.30000000E+03</rscale>
<asrwt>0</asrwt>
<pdfrwt beam="1">  1        3 0.77506484E-02 0.30000000E+03</pdfrwt>
<pdfrwt beam="2">0</pdfrwt>
<totfact> 0.49844547E+02</totfact>
</mgrwt>
</event>
<event>
 6    1  0.3125838E-002  0.3000000E+03  0.7818608E-02  0.1093470E+00
          3   -1    0    0  502    0  0.00000000000E+00  0.00000000000E+00  0.16241953644E+01  0.16241953644E+01  0.00000000000E+00 0.  1.
         13   -1    0    0    0    0 -0.00000000000E+00 -0.00000000000E+00 -0.10000000000E+04  0.10000000000E+04  0.00000000000E+00 0.  1.
    9000005    2    1    2  501    0 -0.22333953892E+02 -0.32628702887E+02 -0.59043841283E+03  0.59177501166E+03  0.40874605245E+01 0.  0.
         13    1    3    3    0    0 -0.14094386000E+02 -0.17410830996E+02 -0.34698861707E+03  0.34771092754E+03  0.00000000000E+00 0.  1.
          1    1    3    3  501    0 -0.82395678929E+01 -0.15217871891E+02 -0.24344979576E+03  0.24406408412E+03  0.00000000000E+00 0.  1.
         21    1    1    2  502  501  0.22333953892E+02  0.32628702887E+02 -0.40793739181E+03  0.40984918371E+03  0.00000000000E+00 0.  1.
<mgrwt>
<rscale>  1 0.30000000E+03</rscale>
<asrwt>0</asrwt>
<pdfrwt beam="1">  1        3 0.59061774E-02 0.30000000E+03</pdfrwt>
<pdfrwt beam="2">0</pdfrwt>
<totfact> 0.76425901E+02</totfact>
</mgrwt>
</event>
<event>
 6    1  0.3125838E-002  0.3000000E+03  0.7818608E-02  0.1093470E+00
          3   -1    0    0  502    0  0.00000000000E+00  0.00000000000E+00  0.15576650380E+01  0.15576650380E+01  0.00000000000E+00 0.  1.
         13   -1    0    0    0    0 -0.00000000000E+00 -0.00000000000E+00 -0.10000000000E+04  0.10000000000E+04  0.00000000000E+00 0.  1.
    9000005    2    1    2  501    0 -0.39389603593E+02 -0.32123104812E+00 -0.52178472257E+03  0.52327519252E+03  0.24467009101E+01 0.  0.
         13    1    3    3    0    0 -0.15605319935E+02 -0.59238998068E+00 -0.22159940326E+03  0.22214898708E+03  0.00000000000E+00 0.  1.
          3    1    3    3  501    0 -0.23784283659E+02  0.27115893256E+00 -0.30018531931E+03  0.30112620544E+03  0.00000000000E+00 0.  1.
         21    1    1    2  502  501  0.39389603593E+02  0.32123104812E+00 -0.47665761239E+03  0.47828247251E+03  0.00000000000E+00 0.  1.
<mgrwt>
<rscale>  1 0.30000000E+03</rscale>
<asrwt>0</asrwt>
<pdfrwt beam="1">  1        3 0.56642484E-02 0.30000000E+03</pdfrwt>
<pdfrwt beam="2">0</pdfrwt>
<totfact> 0.81568453E+02</totfact>
</mgrwt>
</event>
<event>
 6    1  0.3125838E-002  0.3000000E+03  0.7818608E-02  0.1093470E+00
          3   -1    0    0  502    0  0.00000000000E+00  0.00000000000E+00  0.63918261713E+01  0.63918261713E+01  0.00000000000E+00 0.  1.
         13   -1    0    0    0    0 -0.00000000000E+00 -0.00000000000E+00 -0.10000000000E+04  0.10000000000E+04  0.00000000000E+00 0.  1.
    9000005    2    1    2  501    0  0.37730024291E+02 -0.11163623299E+02 -0.93481377022E+03  0.93564606224E+03  0.29304570427E+01 0.  0.
         13    1    3    3    0    0  0.11161565334E+02 -0.27057333505E+01 -0.24505778235E+03  0.24532675807E+03  0.00000000000E+00 0.  1.
          3    1    3    3  501    0  0.26568458957E+02 -0.84578899488E+01 -0.68975598787E+03  0.69031930417E+03  0.00000000000E+00 0.  1.
         21    1    1    2  502  501 -0.37730024291E+02  0.11163623299E+02 -0.58794403608E+02  0.70745763929E+02  0.00000000000E+00 0.  1.
<mgrwt>
<rscale>  1 0.30000000E+03</rscale>
<asrwt>0</asrwt>
<pdfrwt beam="1">  1        3 0.23243053E-01 0.30000000E+03</pdfrwt>
<pdfrwt beam="2">0</pdfrwt>
<totfact> 0.75701317E+01</totfact>
</mgrwt>
</event>
<event>
 6    1  0.3125838E-002  0.3000000E+03  0.7818608E-02  0.1093470E+00
          1   -1    0    0  502    0  0.00000000000E+00  0.00000000000E+00  0.12379761205E+01  0.12379761205E+01  0.00000000000E+00 0.  1.
         13   -1    0    0    0    0 -0.00000000000E+00 -0.00000000000E+00 -0.10000000000E+04  0.10000000000E+04  0.00000000000E+00 0.  1.
    9000005    2    1    2  501    0  0.25139566870E+02 -0.22183326688E+02 -0.64829150009E+03  0.64916740670E+03  0.35149722511E+01 0.  0.
         13    1    3    3    0    0  0.11337114265E+02 -0.11804213578E+02 -0.29383208590E+03  0.29428755380E+03  0.00000000000E+00 0.  1.
          3    1    3    3  501    0  0.13802452605E+02 -0.10379113110E+02 -0.35445941419E+03  0.35487985290E+03  0.00000000000E+00 0.  1.
         21    1    1    2  502  501 -0.25139566870E+02  0.22183326688E+02 -0.35047052379E+03  0.35207056942E+03  0.00000000000E+00 0.  1.
<mgrwt>
<rscale>  1 0.30000000E+03</rscale>
<asrwt>0</asrwt>
<pdfrwt beam="1">  1        1 0.45017408E-02 0.30000000E+03</pdfrwt>
<pdfrwt beam="2">0</pdfrwt>
<totfact> 0.23056284E+03</totfact>
</mgrwt>
</event>
<event>
 6    1  0.3125838E-002  0.3000000E+03  0.7818608E-02  0.1093470E+00
          1   -1    0    0  502    0  0.00000000000E+00  0.00000000000E+00  0.49184646411E+01  0.49184646411E+01  0.00000000000E+00 0.  1.
         13   -1    0    0    0    0 -0.00000000000E+00 -0.00000000000E+00 -0.10000000000E+04  0.10000000000E+04  0.00000000000E+00 0.  1.
    9000005    2    1    2  501    0 -0.23985104993E+02  0.20365126172E+02 -0.94655984649E+03  0.94708786793E+03  0.31405354289E+01 0.  0.
         13    1    3    3    0    0 -0.54079087607E+01  0.46316156302E+01 -0.25618401418E+03  0.25628294220E+03  0.00000000000E+00 0.  1.
          1    1    3    3  501    0 -0.18577196233E+02  0.15733510542E+02 -0.69037583231E+03  0.69080492573E+03  0.00000000000E+00 0.  1.
         21    1    1    2  502  501  0.23985104993E+02 -0.20365126172E+02 -0.48521688868E+02  0.57830596713E+02  0.00000000000E+00 0.  1.
<mgrwt>
<rscale>  1 0.30000000E+03</rscale>
<asrwt>0</asrwt>
<pdfrwt beam="1">  1        1 0.17885364E-01 0.30000000E+03</pdfrwt>
<pdfrwt beam="2">0</pdfrwt>
<totfact> 0.34201106E+02</totfact>
</mgrwt>
</event>
<event>
 6    1  0.3125838E-002  0.3000000E+03  0.7818608E-02  0.1093470E+00
          1   -1    0    0  502    0  0.00000000000E+00  0.00000000000E+00  0.44116223338E+01  0.44116223338E+01  0.00000000000E+00 0.  1.
         13   -1    0    0    0    0 -0.00000000000E+00 -0.00000000000E+00 -0.10000000000E+04  0.10000000000E+04  0.00000000000E+00 0.  1.
    9000005    2    1    2  501    0  0.74422715023E+01 -0.40537862468E+02 -0.89156373284E+03  0.89251956529E+03  0.25649577501E+01 0.  0.
         13    1    3    3    0    0  0.39874860181E+01 -0.23891155562E+02 -0.49764597338E+03  0.49823508726E+03  0.00000000000E+00 0.  1.
          1    1    3    3  501    0  0.34547854842E+01 -0.16646706906E+02 -0.39391775947E+03  0.39428447803E+03  0.00000000000E+00 0.  1.
         21    1    1    2  502  501 -0.74422715023E+01  0.40537862468E+02 -0.10402464482E+03  0.11189205704E+03  0.00000000000E+00 0.  1.
<mgrwt>
<rscale>  1 0.30000000E+03</rscale>
<asrwt>0</asrwt>
<pdfrwt beam="1">  1        1 0.16042297E-01 0.30000000E+03</pdfrwt>
<pdfrwt beam="2">0</pdfrwt>
<totfact> 0.39604571E+02</totfact>
</mgrwt>
</event>
<event>
 6    1  0.3125838E-002  0.3000000E+03  0.7818608E-02  0.1093470E+00
          1   -1    0    0  502    0  0.00000000000E+00  0.00000000000E+00  0.81398531355E+01  0.81398531355E+01  0.00000000000E+00 0.  1.
         13   -1    0    0    0    0 -0.00000000000E+00 -0.00000000000E+00 -0.10000000000E+04  0.10000000000E+04  0.00000000000E+00 0.  1.
    9000005    2    1    2  501    0 -0.89544601064E+02  0.10247832875E+02 -0.51497220987E+03  0.52280969941E+03  0.32173291588E+01 0.  0.
         13    1    3    3    0    0 -0.23435653263E+02  0.31216596381E+01 -0.12741501805E+03  0.12958997426E+03  0.00000000000E+00 0.  1.
          1    1    3    3  501    0 -0.66108947801E+02  0.71261732371E+01 -0.38755719182E+03  0.39321972516E+03  0.00000000000E+00 0.  1.
         21    1    1    2  502  501  0.89544601064E+02 -0.10247832875E+02 -0.47688793700E+03  0.48533015372E+03  0.00000000000E+00 0.  1.
<mgrwt>
<rscale>  1 0.30000000E+03</rscale>
<asrwt>0</asrwt>
<pdfrwt beam="1">  1        1 0.29599528E-01 0.30000000E+03</pdfrwt>
<pdfrwt beam="2">0</pdfrwt>
<totfact> 0.17527940E+02</totfact>
</mgrwt>
</event>
<event>
 6    1  0.3125838E-002  0.3000000E+03  0.7818608E-02  0.1093470E+00
          3   -1    0    0  502    0  0.00000000000E+00  0.00000000000E+00  0.13523405293E+01  0.13523405293E+01  0.00000000000E+00 0.  1.
         13   -1    0    0    0    0 -0.00000000000E+00 -0.00000000000E+00 -0.10000000000E+04  0.10000000000E+04  0.00000000000E+00 0.  1.
    9000005    2    1    2  501    0  0.28131916922E+02  0.11953419103E+02 -0.77666224103E+03  0.77727241064E+03  0.37248792779E+01 0.  0.
         13    1    3    3    0    0  0.16925462104E+01 -0.12657646105E+00 -0.50855904734E+02  0.50884219367E+02  0.00000000000E+00 0.  1.
          3    1    3    3  501    0  0.26439370711E+02  0.12079995564E+02 -0.72580633630E+03  0.72638819128E+03  0.00000000000E+00 0.  1.
         21    1    1    2  502  501 -0.28131916922E+02 -0.11953419103E+02 -0.22198541844E+03  0.22407992989E+03  0.00000000000E+00 0.  1.
<mgrwt>
<rscale>  1 0.30000000E+03</rscale>
<asrwt>0</asrwt>
<pdfrwt beam="1">  1        3 0.49176123E-02 0.30000000E+03</pdfrwt>
<pdfrwt beam="2">0</pdfrwt>
<totfact> 0.10150959E+03</totfact>
</mgrwt>
</event>
<event>
 6    1  0.3125838E-002  0.3000000E+03  0.7818608E-02  0.1093470E+00
          1   -1    0    0  502    0  0.00000000000E+00  0.00000000000E+00  0.26936672696E+01  0.26936672696E+01  0.00000000000E+00 0.  1.
         13   -1    0    0    0    0 -0.00000000000E+00 -0.00000000000E+00 -0.10000000000E+04  0.10000000000E+04  0.00000000000E+00 0.  1.
    9000005    2    1    2  501    0 -0.75365885418E+01 -0.37386106653E+02 -0.83850105286E+03  0.83937300706E+03  0.29168803533E+01 0.  0.
         13    1    3    3    0    0 -0.66917771457E+01 -0.26597728816E+02 -0.60465439113E+03  0.60527609549E+03  0.00000000000E+00 0.  1.
          1    1    3    3  501    0 -0.84481139608E+00 -0.10788377838E+02 -0.23384666174E+03  0.23409691157E+03  0.00000000000E+00 0.  1.
         21    1    1    2  502  501  0.75365885418E+01  0.37386106653E+02 -0.15880527987E+03  0.16332066021E+03  0.00000000000E+00 0.  1.
<mgrwt>
<rscale>  1 0.30000000E+03</rscale>
<asrwt>0</asrwt>
<pdfrwt beam="1">  1        1 0.97951744E-02 0.30000000E+03</pdfrwt>
<pdfrwt beam="2">0</pdfrwt>
<totfact> 0.77765041E+02</totfact>
</mgrwt>
</event>
<event>
 6    1  0.3125838E-002  0.3000000E+03  0.7818608E-02  0.1093470E+00
          1   -1    0    0  502    0  0.00000000000E+00  0.00000000000E+00  0.15144129997E+01  0.15144129997E+01  0.00000000000E+00 0.  1.
         13   -1    0    0    0    0 -0.00000000000E+00 -0.00000000000E+00 -0.10000000000E+04  0.10000000000E+04  0.00000000000E+00 0.  1.
    9000005    2    1    2  501    0  0.31043659488E+02  0.23244331351E+02 -0.47283415919E+03  0.47443431350E+03  0.34304505204E+01 0.  0.
         13    1    3    3    0    0  0.25433260437E+02  0.18359418398E+02 -0.36617835058E+03  0.36751939189E+03  0.00000000000E+00 0.  1.
          3    1    3    3  501    0  0.56103990512E+01  0.48849129528E+01 -0.10665580861E+03  0.10691492161E+03  0.00000000000E+00 0.  1.
         21    1    1    2  502  501 -0.31043659488E+02 -0.23244331351E+02 -0.52565142781E+03  0.52708009950E+03  0.00000000000E+00 0.  1.
<mgrwt>
<rscale>  1 0.30000000E+03</rscale>
<asrwt>0</asrwt>
<pdfrwt beam="1">  1        1 0.55069680E-02 0.30000000E+03</pdfrwt>
<pdfrwt beam="2">0</pdfrwt>
<totfact> 0.17367884E+03</totfact>
</mgrwt>
</event>
<event>
 6    1  0.3125838E-002  0.3000000E+03  0.7818608E-02  0.1093470E+00
          3   -1    0    0  502    0  0.00000000000E+00  0.00000000000E+00  0.74315621737E+01  0.74315621737E+01  0.00000000000E+00 0.  1.
         13   -1    0    0    0    0 -0.00000000000E+00 -0.00000000000E+00 -0.10000000000E+04  0.10000000000E+04  0.00000000000E+00 0.  1.
    9000005    2    1    2  501    0 -0.31031451641E+02 -0.45981835597E+01 -0.96544959364E+03  0.96596439452E+03  0.31936409665E+01 0.  0.
         13    1    3    3    0    0 -0.24909435577E+02 -0.48255115023E+01 -0.79471917585E+03  0.79512409976E+03  0.00000000000E+00 0.  1.
          1    1    3    3  501    0 -0.61220160638E+01  0.22732794264E+00 -0.17073041779E+03  0.17084029477E+03  0.00000000000E+00 0.  1.
         21    1    1    2  502  501  0.31031451641E+02  0.45981835597E+01 -0.27118844186E+02  0.41467167651E+02  0.00000000000E+00 0.  1.
<mgrwt>
<rscale>  1 0.30000000E+03</rscale>
<asrwt>0</asrwt>
<pdfrwt beam="1">  1        3 0.27023919E-01 0.30000000E+03</pdfrwt>
<pdfrwt beam="2">0</pdfrwt>
<totfact> 0.56998684E+01</totfact>
</mgrwt>
</event>
<event>
 6    1  0.3125838E-002  0.3000000E+03  0.7818608E-02  0.1093470E+00
          1   -1    0    0  502    0  0.00000000000E+00  0.00000000000E+00  0.13532304200E+01  0.13532304200E+01  0.00000000000E+00 0.  1.
         13   -1    0    0    0    0 -0.00000000000E+00 -0.00000000000E+00 -0.10000000000E+04  0.10000000000E+04  0.00000000000E+00 0.  1.
    9000005    2    1    2  501    0  0.50319261572E+01 -0.36294344002E+02 -0.53373398718E+03  0.53499875695E+03  0.30168159955E+01 0.  0.
         13    1    3    3    0    0  0.33266874953E+01 -0.31451614828E+02 -0.46196309995E+03  0.46304446508E+03  0.00000000000E+00 0.  1.
          1    1    3    3  501    0  0.17052386619E+01 -0.48427291734E+01 -0.71770887232E+02  0.71954291872E+02  0.00000000000E+00 0.  1.
         21    1    1    2  502  501 -0.50319261572E+01  0.36294344002E+02 -0.46491278240E+03  0.46635447347E+03  0.00000000000E+00 0.  1.
<mgrwt>
<rscale>  1 0.30000000E+03</rscale>
<asrwt>0</asrwt>
<pdfrwt beam="1">  1        1 0.49208483E-02 0.30000000E+03</pdfrwt>
<pdfrwt beam="2">0</pdfrwt>
<totfact> 0.20342825E+03</totfact>
</mgrwt>
</event>
<event>
 6    1  0.3125838E-002  0.3000000E+03  0.7818608E-02  0.1093470E+00
          1   -1    0    0  502    0  0.00000000000E+00  0.00000000000E+00  0.43400587191E+01  0.43400587191E+01  0.00000000000E+00 0.  1.
         13   -1    0    0    0    0 -0.00000000000E+00 -0.00000000000E+00 -0.10000000000E+04  0.10000000000E+04  0.00000000000E+00 0.  1.
    9000005    2    1    2  501    0  0.18927156369E+01 -0.30884948278E+02 -0.94111996264E+03  0.94163382559E+03  0.31646517495E+01 0.  0.
         13    1    3    3    0    0 -0.60576891706E+00 -0.15972052721E+02 -0.48308237196E+03  0.48334671978E+03  0.00000000000E+00 0.  1.
          1    1    3    3  501    0  0.24984845540E+01 -0.14912895558E+02 -0.45803759068E+03  0.45828710581E+03  0.00000000000E+00 0.  1.
         21    1    1    2  502  501 -0.18927156369E+01  0.30884948278E+02 -0.54539978645E+02  0.62706233129E+02  0.00000000000E+00 0.  1.
<mgrwt>
<rscale>  1 0.30000000E+03</rscale>
<asrwt>0</asrwt>
<pdfrwt beam="1">  1        1 0.15782065E-01 0.30000000E+03</pdfrwt>
<pdfrwt beam="2">0</pdfrwt>
<totfact> 0.40491257E+02</totfact>
</mgrwt>
</event>
<event>
 6    1  0.3125838E-002  0.3000000E+03  0.7818608E-02  0.1093470E+00
          3   -1    0    0  502    0  0.00000000000E+00  0.00000000000E+00  0.33733481654E+01  0.33733481654E+01  0.00000000000E+00 0.  1.
         13   -1    0    0    0    0 -0.00000000000E+00 -0.00000000000E+00 -0.10000000000E+04  0.10000000000E+04  0.00000000000E+00 0.  1.
    9000005    2    1    2  501    0  0.43395869031E+02  0.14506635832E+02 -0.80712997374E+03  0.80843070291E+03  0.27862085537E+01 0.  0.
         13    1    3    3    0    0  0.27963621290E+02  0.88405303379E+01 -0.49484800086E+03  0.49571631307E+03  0.00000000000E+00 0.  1.
          3    1    3    3  501    0  0.15432247742E+02  0.56661054944E+01 -0.31228197288E+03  0.31271438983E+03  0.00000000000E+00 0.  1.
         21    1    1    2  502  501 -0.43395869031E+02 -0.14506635832E+02 -0.18949667809E+03  0.19494264526E+03  0.00000000000E+00 0.  1.
<mgrwt>
<rscale>  1 0.30000000E+03</rscale>
<asrwt>0</asrwt>
<pdfrwt beam="1">  1        3 0.12266746E-01 0.30000000E+03</pdfrwt>
<pdfrwt beam="2">0</pdfrwt>
<totfact> 0.23474113E+02</totfact>
</mgrwt>
</event>
<event>
 6    1  0.3125838E-002  0.3000000E+03  0.7818608E-02  0.1093470E+00
          3   -1    0    0  502    0  0.00000000000E+00  0.00000000000E+00  0.20489668111E+01  0.20489668111E+01  0.00000000000E+00 0.  1.
         13   -1    0    0    0    0 -0.00000000000E+00 -0.00000000000E+00 -0.10000000000E+04  0.10000000000E+04  0.00000000000E+00 0.  1.
    9000005    2    1    2  501    0  0.36971101855E+02 -0.11435469538E+01 -0.78723952292E+03  0.78811554111E+03  0.34452316274E+01 0.  0.
         13    1    3    3    0    0  0.91402370765E+01 -0.15347499359E+01 -0.21433300028E+03  0.21453329438E+03  0.00000000000E+00 0.  1.
          1    1    3    3  501    0  0.27830864779E+02  0.39120298205E+00 -0.57290652265E+03  0.57358224673E+03  0.00000000000E+00 0.  1.
         21    1    1    2  502  501 -0.36971101855E+02  0.11435469538E+01 -0.21071151027E+03  0.21393342570E+03  0.00000000000E+00 0.  1.
<mgrwt>
<rscale>  1 0.30000000E+03</rscale>
<asrwt>0</asrwt>
<pdfrwt beam="1">  1        3 0.74508041E-02 0.30000000E+03</pdfrwt>
<pdfrwt beam="2">0</pdfrwt>
<totfact> 0.53070505E+02</totfact>
</mgrwt>
</event>
<event>
 6    1  0.3125838E-002  0.3000000E+03  0.7818608E-02  0.1093470E+00
          1   -1    0    0  502    0  0.00000000000E+00  0.00000000000E+00  0.14559249456E+01  0.14559249456E+01  0.00000000000E+00 0.  1.
         13   -1    0    0    0    0 -0.00000000000E+00 -0.00000000000E+00 -0.10000000000E+04  0.10000000000E+04  0.00000000000E+00 0.  1.
    9000005    2    1    2  501    0  0.66064042015E+00 -0.33685369507E+02 -0.72731096652E+03  0.72813827142E+03  0.83041988649E+01 0.  0.
         13    1    3    3    0    0 -0.25234323921E+01 -0.25460740986E+02 -0.49637803546E+03  0.49703699171E+03  0.00000000000E+00 0.  1.
          1    1    3    3  501    0  0.31840728123E+01 -0.82246285211E+01 -0.23093293106E+03  0.23110127971E+03  0.00000000000E+00 0.  1.
         21    1    1    2  502  501 -0.66064042015E+00  0.33685369507E+02 -0.27123310853E+03  0.27331765353E+03  0.00000000000E+00 0.  1.
<mgrwt>
<rscale>  1 0.30000000E+03</rscale>
<asrwt>0</asrwt>
<pdfrwt beam="1">  1        1 0.52942837E-02 0.30000000E+03</pdfrwt>
<pdfrwt beam="2">0</pdfrwt>
<totfact> 0.18355678E+03</totfact>
</mgrwt>
</event>
<event>
 6    1  0.3125838E-002  0.3000000E+03  0.7818608E-02  0.1093470E+00
          1   -1    0    0  502    0  0.00000000000E+00  0.00000000000E+00  0.28318390020E+01  0.28318390020E+01  0.00000000000E+00 0.  1.
         13   -1    0    0    0    0 -0.00000000000E+00 -0.00000000000E+00 -0.10000000000E+04  0.10000000000E+04  0.00000000000E+00 0.  1.
    9000005    2    1    2  501    0 -0.16936665187E+02  0.39614335750E+02 -0.79256049292E+03  0.79373749652E+03  0.33063890119E+01 0.  0.
         13    1    3    3    0    0 -0.14863547305E+02  0.32928757336E+02 -0.64484525707E+03  0.64585651167E+03  0.00000000000E+00 0.  1.
          1    1    3    3  501    0 -0.20731178823E+01  0.66855784146E+01 -0.14771523585E+03  0.14788098484E+03  0.00000000000E+00 0.  1.
         21    1    1    2  502  501  0.16936665187E+02 -0.39614335750E+02 -0.20460766808E+03  0.20909434249E+03  0.00000000000E+00 0.  1.
<mgrwt>
<rscale>  1 0.30000000E+03</rscale>
<asrwt>0</asrwt>
<pdfrwt beam="1">  1        1 0.10297618E-01 0.30000000E+03</pdfrwt>
<pdfrwt beam="2">0</pdfrwt>
<totfact> 0.72577488E+02</totfact>
</mgrwt>
</event>
<event>
 6    1  0.3125838E-002  0.3000000E+03  0.7818608E-02  0.1093470E+00
          1   -1    0    0  502    0  0.00000000000E+00  0.00000000000E+00  0.87744711294E+01  0.87744711294E+01  0.00000000000E+00 0.  1.
         13   -1    0    0    0    0 -0.00000000000E+00 -0.00000000000E+00 -0.10000000000E+04  0.10000000000E+04  0.00000000000E+00 0.  1.
    9000005    2    1    2  501    0 -0.48394533220E+02 -0.10328323240E+02 -0.92384661149E+03  0.92517648303E+03  0.32028248786E+01 0.  0.
         13    1    3    3    0    0 -0.43383130693E+02 -0.84372310648E+01 -0.81256273754E+03  0.81376377736E+03  0.00000000000E+00 0.  1.
          1    1    3    3  501    0 -0.50114025264E+01 -0.18910921754E+01 -0.11128387395E+03  0.11141270568E+03  0.00000000000E+00 0.  1.
         21    1    1    2  502  501  0.48394533220E+02  0.10328323240E+02 -0.67378917379E+02  0.83597988096E+02  0.00000000000E+00 0.  1.
<mgrwt>
<rscale>  1 0.30000000E+03</rscale>
<asrwt>0</asrwt>
<pdfrwt beam="1">  1        1 0.31907235E-01 0.30000000E+03</pdfrwt>
<pdfrwt beam="2">0</pdfrwt>
<totfact> 0.15884569E+02</totfact>
</mgrwt>
</event>
<event>
 6    1  0.3125838E-002  0.3000000E+03  0.7818608E-02  0.1093470E+00
          1   -1    0    0  502    0  0.00000000000E+00  0.00000000000E+00  0.10706590658E+02  0.10706590658E+02  0.00000000000E+00 0.  1.
         13   -1    0    0    0    0 -0.00000000000E+00 -0.00000000000E+00 -0.10000000000E+04  0.10000000000E+04  0.00000000000E+00 0.  1.
    9000005    2    1    2  501    0 -0.92005970627E+02 -0.37455661928E+02 -0.63571140445E+03  0.64343522039E+03  0.34449728223E+01 0.  0.
         13    1    3    3    0    0 -0.22445159220E+02 -0.10200489470E+02 -0.16506352354E+03  0.16689458338E+03  0.00000000000E+00 0.  1.
          1    1    3    3  501    0 -0.69560811407E+02 -0.27255172458E+02 -0.47064788091E+03  0.47654063701E+03  0.00000000000E+00 0.  1.
         21    1    1    2  502  501  0.92005970627E+02  0.37455661928E+02 -0.35358200489E+03  0.36727137027E+03  0.00000000000E+00 0.  1.
<mgrwt>
<rscale>  1 0.30000000E+03</rscale>
<asrwt>0</asrwt>
<pdfrwt beam="1">  1        1 0.38933139E-01 0.30000000E+03</pdfrwt>
<pdfrwt beam="2">0</pdfrwt>
<totfact> 0.12245424E+02</totfact>
</mgrwt>
</event>
<event>
 6    1  0.3125838E-002  0.3000000E+03  0.7818608E-02  0.1093470E+00
          3   -1    0    0  502    0  0.00000000000E+00  0.00000000000E+00  0.17745250591E+01  0.17745250591E+01  0.00000000000E+00 0.  1.
         13   -1    0    0    0    0 -0.00000000000E+00 -0.00000000000E+00 -0.10000000000E+04  0.10000000000E+04  0.00000000000E+00 0.  1.
    9000005    2    1    2  501    0  0.32274700758E+02  0.22669542773E+02 -0.67359563335E+03  0.67475755527E+03  0.33341637338E+01 0.  0.
         13    1    3    3    0    0  0.30159236415E+02  0.20576624876E+02 -0.63389713371E+03  0.63494767750E+03  0.00000000000E+00 0.  1.
          1    1    3    3  501    0  0.21154643423E+01  0.20929178970E+01 -0.39698499631E+02  0.39809877765E+02  0.00000000000E+00 0.  1.
         21    1    1    2  502  501 -0.32274700758E+02 -0.22669542773E+02 -0.32462984160E+03  0.32701696979E+03  0.00000000000E+00 0.  1.
<mgrwt>
<rscale>  1 0.30000000E+03</rscale>
<asrwt>0</asrwt>
<pdfrwt beam="1">  1        3 0.64528320E-02 0.30000000E+03</pdfrwt>
<pdfrwt beam="2">0</pdfrwt>
<totfact> 0.66558737E+02</totfact>
</mgrwt>
</event>
<event>
 6    1  0.3125838E-002  0.3000000E+03  0.7818608E-02  0.1093470E+00
          3   -1    0    0  502    0  0.00000000000E+00  0.00000000000E+00  0.98819530227E+00  0.98819530227E+00  0.00000000000E+00 0.  1.
         13   -1    0    0    0    0 -0.00000000000E+00 -0.00000000000E+00 -0.10000000000E+04  0.10000000000E+04  0.00000000000E+00 0.  1.
    9000005    2    1    2  501    0  0.30001018938E+02  0.65719656100E+01 -0.40317660394E+03  0.40436198206E+03  0.37398795788E+01 0.  0.
         13    1    3    3    0    0  0.47129593406E+00 -0.18440203426E+00 -0.13592707315E+02  0.13602125426E+02  0.00000000000E+00 0.  1.
          3    1    3    3  501    0  0.29529723004E+02  0.67563676443E+01 -0.38958389662E+03  0.39075985663E+03  0.00000000000E+00 0.  1.
         21    1    1    2  502  501 -0.30001018938E+02 -0.65719656100E+01 -0.59583520076E+03  0.59662621325E+03  0.00000000000E+00 0.  1.
<mgrwt>
<rscale>  1 0.30000000E+03</rscale>
<asrwt>0</asrwt>
<pdfrwt beam="1">  1        3 0.35934450E-02 0.30000000E+03</pdfrwt>
<pdfrwt beam="2">0</pdfrwt>
<totfact> 0.16454326E+03</totfact>
</mgrwt>
</event>
<event>
 6    1  0.3125838E-002  0.3000000E+03  0.7818608E-02  0.1093470E+00
          1   -1    0    0  502    0  0.00000000000E+00  0.00000000000E+00  0.20682179180E+01  0.20682179180E+01  0.00000000000E+00 0.  1.
         13   -1    0    0    0    0 -0.00000000000E+00 -0.00000000000E+00 -0.10000000000E+04  0.10000000000E+04  0.00000000000E+00 0.  1.
    9000005    2    1    2  501    0 -0.22169692604E+02  0.21411345877E+02 -0.86715474552E+03  0.86770834930E+03  0.32381737529E+01 0.  0.
         13    1    3    3    0    0 -0.19964571696E+02  0.19251215270E+02 -0.74904878760E+03  0.74956205854E+03  0.00000000000E+00 0.  1.
          1    1    3    3  501    0 -0.22051209080E+01  0.21601306076E+01 -0.11810595792E+03  0.11814629075E+03  0.00000000000E+00 0.  1.
         21    1    1    2  502  501  0.22169692604E+02 -0.21411345877E+02 -0.13077703657E+03  0.13435986862E+03  0.00000000000E+00 0.  1.
<mgrwt>
<rscale>  1 0.30000000E+03</rscale>
<asrwt>0</asrwt>
<pdfrwt beam="1">  1        1 0.75208083E-02 0.30000000E+03</pdfrwt>
<pdfrwt beam="2">0</pdfrwt>
<totfact> 0.11224432E+03</totfact>
</mgrwt>
</event>
<event>
 6    1  0.3125838E-002  0.3000000E+03  0.7818608E-02  0.1093470E+00
          1   -1    0    0  502    0  0.00000000000E+00  0.00000000000E+00  0.54746637795E+01  0.54746637795E+01  0.00000000000E+00 0.  1.
         13   -1    0    0    0    0 -0.00000000000E+00 -0.00000000000E+00 -0.10000000000E+04  0.10000000000E+04  0.00000000000E+00 0.  1.
    9000005    2    1    2  501    0  0.18182938740E+02  0.45702352855E+02 -0.87259604925E+03  0.87399814368E+03  0.54374316429E+01 0.  0.
         13    1    3    3    0    0  0.16498348470E+02  0.35773331694E+02 -0.70493813194E+03  0.70603802775E+03  0.00000000000E+00 0.  1.
          3    1    3    3  501    0  0.16845902699E+01  0.99290211606E+01 -0.16765791731E+03  0.16796011593E+03  0.00000000000E+00 0.  1.
         21    1    1    2  502  501 -0.18182938740E+02 -0.45702352855E+02 -0.12192928697E+03  0.13147652010E+03  0.00000000000E+00 0.  1.
<mgrwt>
<rscale>  1 0.30000000E+03</rscale>
<asrwt>0</asrwt>
<pdfrwt beam="1">  1        1 0.19907910E-01 0.30000000E+03</pdfrwt>
<pdfrwt beam="2">0</pdfrwt>
<totfact> 0.29623936E+02</totfact>
</mgrwt>
</event>
<event>
 6    1  0.3125838E-002  0.3000000E+03  0.7818608E-02  0.1093470E+00
          1   -1    0    0  502    0  0.00000000000E+00  0.00000000000E+00  0.14365433745E+01  0.14365433745E+01  0.00000000000E+00 0.  1.
         13   -1    0    0    0    0 -0.00000000000E+00 -0.00000000000E+00 -0.10000000000E+04  0.10000000000E+04  0.00000000000E+00 0.  1.
    9000005    2    1    2  501    0 -0.13760487627E+02 -0.33949570390E+02 -0.37577110810E+03  0.37756778015E+03  0.34027302153E+01 0.  0.
         13    1    3    3    0    0 -0.10427500319E+02 -0.28864219646E+02 -0.31809393822E+03  0.31957100849E+03  0.00000000000E+00 0.  1.
          1    1    3    3  501    0 -0.33329873080E+01 -0.50853507440E+01 -0.57677169884E+02  0.57996771655E+02  0.00000000000E+00 0.  1.
         21    1    1    2  502  501  0.13760487627E+02  0.33949570390E+02 -0.62279234853E+03  0.62386876323E+03  0.00000000000E+00 0.  1.
<mgrwt>
<rscale>  1 0.30000000E+03</rscale>
<asrwt>0</asrwt>
<pdfrwt beam="1">  1        1 0.52238051E-02 0.30000000E+03</pdfrwt>
<pdfrwt beam="2">0</pdfrwt>
<totfact> 0.18704526E+03</totfact>
</mgrwt>
</event>
<event>
 6    1  0.3125838E-002  0.3000000E+03  0.7818608E-02  0.1093470E+00
          1   -1    0    0  502    0  0.00000000000E+00  0.00000000000E+00  0.76804771135E+01  0.76804771135E+01  0.00000000000E+00 0.  1.
         13   -1    0    0    0    0 -0.00000000000E+00 -0.00000000000E+00 -0.10000000000E+04  0.10000000000E+04  0.00000000000E+00 0.  1.
    9000005    2    1    2  501    0 -0.46339999429E+02 -0.23174574894E+02 -0.90248659617E+03  0.90397699988E+03  0.28113290086E+01 0.  0.
         13    1    3    3    0    0 -0.13036776188E+02 -0.51747674740E+01 -0.23822055372E+03  0.23863312420E+03  0.00000000000E+00 0.  1.
          3    1    3    3  501    0 -0.33303223241E+02 -0.17999807420E+02 -0.66426604245E+03  0.66534387567E+03  0.00000000000E+00 0.  1.
         21    1    1    2  502  501  0.46339999429E+02  0.23174574894E+02 -0.89832926718E+02  0.10370347724E+03  0.00000000000E+00 0.  1.
<mgrwt>
<rscale>  1 0.30000000E+03</rscale>
<asrwt>0</asrwt>
<pdfrwt beam="1">  1        1 0.27929067E-01 0.30000000E+03</pdfrwt>
<pdfrwt beam="2">0</pdfrwt>
<totfact> 0.18917650E+02</totfact>
</mgrwt>
</event>
<event>
 6    1  0.3125838E-002  0.3000000E+03  0.7818608E-02  0.1093470E+00
          1   -1    0    0  502    0  0.00000000000E+00  0.00000000000E+00  0.77222098623E+01  0.77222098623E+01  0.00000000000E+00 0.  1.
         13   -1    0    0    0    0 -0.00000000000E+00 -0.00000000000E+00 -0.10000000000E+04  0.10000000000E+04  0.00000000000E+00 0.  1.
    9000005    2    1    2  501    0  0.83992080882E+01 -0.53451659086E+02 -0.89307150676E+03  0.89471993901E+03  0.44075530915E+01 0.  0.
         13    1    3    3    0    0  0.60145026687E+01 -0.43671050016E+02 -0.75032879260E+03  0.75162266588E+03  0.00000000000E+00 0.  1.
          1    1    3    3  501    0  0.23847054195E+01 -0.97806090703E+01 -0.14274271416E+03  0.14309727314E+03  0.00000000000E+00 0.  1.
         21    1    1    2  502  501 -0.83992080882E+01  0.53451659086E+02 -0.99206283376E+02  0.11300227085E+03  0.00000000000E+00 0.  1.
<mgrwt>
<rscale>  1 0.30000000E+03</rscale>
<asrwt>0</asrwt>
<pdfrwt beam="1">  1        1 0.28080822E-01 0.30000000E+03</pdfrwt>
<pdfrwt beam="2">0</pdfrwt>
<totfact> 0.18783348E+02</totfact>
</mgrwt>
</event>
<event>
 6    1  0.3125838E-002  0.3000000E+03  0.7818608E-02  0.1093470E+00
          1   -1    0    0  502    0  0.00000000000E+00  0.00000000000E+00  0.17276927827E+01  0.17276927827E+01  0.00000000000E+00 0.  1.
         13   -1    0    0    0    0 -0.00000000000E+00 -0.00000000000E+00 -0.10000000000E+04  0.10000000000E+04  0.00000000000E+00 0.  1.
    9000005    2    1    2  501    0  0.28650333653E+02  0.28485255248E+02 -0.61337936228E+03  0.61472015997E+03  0.37923116358E+01 0.  0.
         13    1    3    3    0    0  0.49534874609E+01  0.32840946355E+01 -0.80373587996E+02  0.80593026763E+02  0.00000000000E+00 0.  1.
          1    1    3    3  501    0  0.23696846193E+02  0.25201160612E+02 -0.53300577428E+03  0.53412713321E+03  0.00000000000E+00 0.  1.
         21    1    1    2  502  501 -0.28650333653E+02 -0.28485255248E+02 -0.38489294494E+03  0.38700753281E+03  0.00000000000E+00 0.  1.
<mgrwt>
<rscale>  1 0.30000000E+03</rscale>
<asrwt>0</asrwt>
<pdfrwt beam="1">  1        1 0.62825325E-02 0.30000000E+03</pdfrwt>
<pdfrwt beam="2">0</pdfrwt>
<totfact> 0.14436284E+03</totfact>
</mgrwt>
</event>
<event>
 6    1  0.3125838E-002  0.3000000E+03  0.7818608E-02  0.1093470E+00
          1   -1    0    0  502    0  0.00000000000E+00  0.00000000000E+00  0.71266183068E+01  0.71266183068E+01  0.00000000000E+00 0.  1.
         13   -1    0    0    0    0 -0.00000000000E+00 -0.00000000000E+00 -0.10000000000E+04  0.10000000000E+04  0.00000000000E+00 0.  1.
    9000005    2    1    2  501    0  0.83136831391E+02 -0.10953720764E+02 -0.55262146952E+03  0.55895983807E+03  0.37276363508E+01 0.  0.
         13    1    3    3    0    0  0.54539224207E+02 -0.62904328927E+01 -0.35137262140E+03  0.35563579065E+03  0.00000000000E+00 0.  1.
          1    1    3    3  501    0  0.28597607184E+02 -0.46632878713E+01 -0.20124884811E+03  0.20332404742E+03  0.00000000000E+00 0.  1.
         21    1    1    2  502  501 -0.83136831391E+02  0.10953720764E+02 -0.44025191218E+03  0.44816678024E+03  0.00000000000E+00 0.  1.
<mgrwt>
<rscale>  1 0.30000000E+03</rscale>
<asrwt>0</asrwt>
<pdfrwt beam="1">  1        1 0.25915030E-01 0.30000000E+03</pdfrwt>
<pdfrwt beam="2">0</pdfrwt>
<totfact> 0.20878103E+02</totfact>
</mgrwt>
</event>
<event>
 6    1  0.3125838E-002  0.3000000E+03  0.7818608E-02  0.1093470E+00
          1   -1    0    0  502    0  0.00000000000E+00  0.00000000000E+00  0.97497108170E+01  0.97497108170E+01  0.00000000000E+00 0.  1.
         13   -1    0    0    0    0 -0.00000000000E+00 -0.00000000000E+00 -0.10000000000E+04  0.10000000000E+04  0.00000000000E+00 0.  1.
    9000005    2    1    2  501    0 -0.65911605502E+01 -0.49526950479E+02 -0.93055571705E+03  0.93190496685E+03  0.40697032828E+01 0.  0.
         13    1    3    3    0    0 -0.65741241438E+01 -0.36663107998E+02 -0.70223917671E+03  0.70322632481E+03  0.00000000000E+00 0.  1.
          3    1    3    3  501    0 -0.17036406419E-01 -0.12863842480E+02 -0.22831654034E+03  0.22867864204E+03  0.00000000000E+00 0.  1.
         21    1    1    2  502  501  0.65911605502E+01  0.49526950479E+02 -0.59694572133E+02  0.77844743967E+02  0.00000000000E+00 0.  1.
<mgrwt>
<rscale>  1 0.30000000E+03</rscale>
<asrwt>0</asrwt>
<pdfrwt beam="1">  1        1 0.35453569E-01 0.30000000E+03</pdfrwt>
<pdfrwt beam="2">0</pdfrwt>
<totfact> 0.13837425E+02</totfact>
</mgrwt>
</event>
<event>
 6    1  0.3125838E-002  0.3000000E+03  0.7818608E-02  0.1093470E+00
          3   -1    0    0  502    0  0.00000000000E+00  0.00000000000E+00  0.37313433014E+01  0.37313433014E+01  0.00000000000E+00 0.  1.
         13   -1    0    0    0    0 -0.00000000000E+00 -0.00000000000E+00 -0.10000000000E+04  0.10000000000E+04  0.00000000000E+00 0.  1.
    9000005    2    1    2  501    0 -0.10907397087E+02  0.29259882358E+02 -0.92940465152E+03  0.92993495304E+03  0.33013020253E+01 0.  0.
         13    1    3    3    0    0 -0.58728094945E+01  0.11156160313E+02 -0.37900069987E+03  0.37921033781E+03  0.00000000000E+00 0.  1.
          1    1    3    3  501    0 -0.50345875922E+01  0.18103722045E+02 -0.55040395166E+03  0.55072461523E+03  0.00000000000E+00 0.  1.
         21    1    1    2  502  501  0.10907397087E+02 -0.29259882358E+02 -0.66864005176E+02  0.73796390257E+02  0.00000000000E+00 0.  1.
<mgrwt>
<rscale>  1 0.30000000E+03</rscale>
<asrwt>0</asrwt>
<pdfrwt beam="1">  1        3 0.13568550E-01 0.30000000E+03</pdfrwt>
<pdfrwt beam="2">0</pdfrwt>
<totfact> 0.19778357E+02</totfact>
</mgrwt>
</event>
<event>
 6    1  0.3125838E-002  0.3000000E+03  0.7818608E-02  0.1093470E+00
          1   -1    0    0  502    0  0.00000000000E+00  0.00000000000E+00  0.17466907290E+01  0.17466907290E+01  0.00000000000E+00 0.  1.
         13   -1    0    0    0    0 -0.00000000000E+00 -0.00000000000E+00 -0.10000000000E+04  0.10000000000E+04  0.00000000000E+00 0.  1.
    9000005    2    1    2  501    0 -0.40173241070E+02 -0.59899017035E+01 -0.61340099240E+03  0.61475693115E+03  0.39419151591E+01 0.  0.
         13    1    3    3    0    0 -0.23761539042E+02 -0.26459618024E+01 -0.38630618875E+03  0.38704532463E+03  0.00000000000E+00 0.  1.
          3    1    3    3  501    0 -0.16411702028E+02 -0.33439399011E+01 -0.22709480365E+03  0.22771160652E+03  0.00000000000E+00 0.  1.
         21    1    1    2  502  501  0.40173241070E+02  0.59899017035E+01 -0.38485231687E+03  0.38698975958E+03  0.00000000000E+00 0.  1.
<mgrwt>
<rscale>  1 0.30000000E+03</rscale>
<asrwt>0</asrwt>
<pdfrwt beam="1">  1        1 0.63516160E-02 0.30000000E+03</pdfrwt>
<pdfrwt beam="2">0</pdfrwt>
<totfact> 0.14216711E+03</totfact>
</mgrwt>
</event>
<event>
 6    1  0.3125838E-002  0.3000000E+03  0.7818608E-02  0.1093470E+00
          3   -1    0    0  502    0  0.00000000000E+00  0.00000000000E+00  0.10655691743E+01  0.10655691743E+01  0.00000000000E+00 0.  1.
         13   -1    0    0    0    0 -0.00000000000E+00 -0.00000000000E+00 -0.10000000000E+04  0.10000000000E+04  0.00000000000E+00 0.  1.
    9000005    2    1    2  501    0 -0.27438549536E+02  0.16294671710E+02 -0.40229434920E+03  0.40357265932E+03  0.34289391169E+01 0.  0.
         13    1    3    3    0    0 -0.89211288359E+01  0.68404766561E+01 -0.15346541311E+03  0.15387661187E+03  0.00000000000E+00 0.  1.
          1    1    3    3  501    0 -0.18517420701E+02  0.94541950544E+01 -0.24882893610E+03  0.24969604745E+03  0.00000000000E+00 0.  1.
         21    1    1    2  502  501  0.27438549536E+02 -0.16294671710E+02 -0.59664008162E+03  0.59749290985E+03  0.00000000000E+00 0.  1.
<mgrwt>
<rscale>  1 0.30000000E+03</rscale>
<asrwt>0</asrwt>
<pdfrwt beam="1">  1        3 0.38748052E-02 0.30000000E+03</pdfrwt>
<pdfrwt beam="2">0</pdfrwt>
<totfact> 0.14651281E+03</totfact>
</mgrwt>
</event>
<event>
 6    1  0.3125838E-002  0.3000000E+03  0.7818608E-02  0.1093470E+00
          1   -1    0    0  502    0  0.00000000000E+00  0.00000000000E+00  0.23386402862E+01  0.23386402862E+01  0.00000000000E+00 0.  1.
         13   -1    0    0    0    0 -0.00000000000E+00 -0.00000000000E+00 -0.10000000000E+04  0.10000000000E+04  0.00000000000E+00 0.  1.
    9000005    2    1    2  501    0 -0.26284502181E+02  0.36125171268E+02 -0.30965659786E+03  0.31288490335E+03  0.37217047900E+01 0.  0.
         13    1    3    3    0    0 -0.57180147456E+01  0.62991077980E+01 -0.67221316521E+02  0.67757507676E+02  0.00000000000E+00 0.  1.
          1    1    3    3  501    0 -0.20566487435E+02  0.29826063470E+02 -0.24243528134E+03  0.24512739567E+03  0.00000000000E+00 0.  1.
         21    1    1    2  502  501  0.26284502181E+02 -0.36125171268E+02 -0.68800476185E+03  0.68945373694E+03  0.00000000000E+00 0.  1.
<mgrwt>
<rscale>  1 0.30000000E+03</rscale>
<asrwt>0</asrwt>
<pdfrwt beam="1">  1        1 0.85041644E-02 0.30000000E+03</pdfrwt>
<pdfrwt beam="2">0</pdfrwt>
<totfact> 0.94592402E+02</totfact>
</mgrwt>
</event>
<event>
 6    1  0.3125838E-002  0.3000000E+03  0.7818608E-02  0.1093470E+00
          1   -1    0    0  502    0  0.00000000000E+00  0.00000000000E+00  0.21974815705E+01  0.21974815705E+01  0.00000000000E+00 0.  1.
         13   -1    0    0    0    0 -0.00000000000E+00 -0.00000000000E+00 -0.10000000000E+04  0.10000000000E+04  0.00000000000E+00 0.  1.
    9000005    2    1    2  501    0  0.39795308696E+02 -0.63920868485E+01 -0.75422326615E+03  0.75530605298E+03  0.31580221356E+01 0.  0.
         13    1    3    3    0    0  0.15605756024E+02 -0.26098035786E+01 -0.32532150566E+03  0.32570605266E+03  0.00000000000E+00 0.  1.
          3    1    3    3  501    0  0.24189552672E+02 -0.37822832698E+01 -0.42890176049E+03  0.42960000032E+03  0.00000000000E+00 0.  1.
         21    1    1    2  502  501 -0.39795308696E+02  0.63920868485E+01 -0.24357925228E+03  0.24689142859E+03  0.00000000000E+00 0.  1.
<mgrwt>
<rscale>  1 0.30000000E+03</rscale>
<asrwt>0</asrwt>
<pdfrwt beam="1">  1        1 0.79908589E-02 0.30000000E+03</pdfrwt>
<pdfrwt beam="2">0</pdfrwt>
<totfact> 0.10314823E+03</totfact>
</mgrwt>
</event>
<event>
 6    1  0.3125838E-002  0.3000000E+03  0.7818608E-02  0.1093470E+00
          1   -1    0    0  502    0  0.00000000000E+00  0.00000000000E+00  0.51578682868E+01  0.51578682868E+01  0.00000000000E+00 0.  1.
         13   -1    0    0    0    0 -0.00000000000E+00 -0.00000000000E+00 -0.10000000000E+04  0.10000000000E+04  0.00000000000E+00 0.  1.
    9000005    2    1    2  501    0  0.54954203060E+02  0.34775927629E+02 -0.71011272835E+03  0.71309595240E+03  0.40522557706E+01 0.  0.
         13    1    3    3    0    0  0.34203011107E+02  0.22597279660E+02 -0.46668832697E+03  0.46848530131E+03  0.00000000000E+00 0.  1.
          3    1    3    3  501    0  0.20751191953E+02  0.12178647969E+02 -0.24342440138E+03  0.24461065108E+03  0.00000000000E+00 0.  1.
         21    1    1    2  502  501 -0.54954203060E+02 -0.34775927629E+02 -0.28472940336E+03  0.29206191589E+03  0.00000000000E+00 0.  1.
<mgrwt>
<rscale>  1 0.30000000E+03</rscale>
<asrwt>0</asrwt>
<pdfrwt beam="1">  1        1 0.18755924E-01 0.30000000E+03</pdfrwt>
<pdfrwt beam="2">0</pdfrwt>
<totfact> 0.32086297E+02</totfact>
</mgrwt>
</event>
<event>
 6    1  0.3125838E-002  0.3000000E+03  0.7818608E-02  0.1093470E+00
          3   -1    0    0  502    0  0.00000000000E+00  0.00000000000E+00  0.11294006623E+01  0.11294006623E+01  0.00000000000E+00 0.  1.
         13   -1    0    0    0    0 -0.00000000000E+00 -0.00000000000E+00 -0.10000000000E+04  0.10000000000E+04  0.00000000000E+00 0.  1.
    9000005    2    1    2  501    0 -0.81219480531E+01 -0.31328836869E+02 -0.37030340665E+03  0.37172954542E+03  0.32832757043E+01 0.  0.
         13    1    3    3    0    0 -0.39284264281E+01 -0.91666594511E+01 -0.11554527576E+03  0.11597487197E+03  0.00000000000E+00 0.  1.
          3    1    3    3  501    0 -0.41935216251E+01 -0.22162177418E+02 -0.25475813089E+03  0.25575467344E+03  0.00000000000E+00 0.  1.
         21    1    1    2  502  501  0.81219480531E+01  0.31328836869E+02 -0.62856719269E+03  0.62939985524E+03  0.00000000000E+00 0.  1.
<mgrwt>
<rscale>  1 0.30000000E+03</rscale>
<asrwt>0</asrwt>
<pdfrwt beam="1">  1        3 0.41069202E-02 0.30000000E+03</pdfrwt>
<pdfrwt beam="2">0</pdfrwt>
<totfact> 0.13398609E+03</totfact>
</mgrwt>
</event>
<event>
 6    1  0.3125838E-002  0.3000000E+03  0.7818608E-02  0.1093470E+00
          3   -1    0    0  502    0  0.00000000000E+00  0.00000000000E+00  0.13608727278E+01  0.13608727278E+01  0.00000000000E+00 0.  1.
         13   -1    0    0    0    0 -0.00000000000E+00 -0.00000000000E+00 -0.10000000000E+04  0.10000000000E+04  0.00000000000E+00 0.  1.
    9000005    2    1    2  501    0  0.16598014173E+02  0.27837842397E+02 -0.26304432819E+03  0.26505241292E+03  0.31659847466E+01 0.  0.
         13    1    3    3    0    0  0.13347819741E+02  0.20435409559E+02 -0.18969438159E+03  0.19125827737E+03  0.00000000000E+00 0.  1.
          3    1    3    3  501    0  0.32501944318E+01  0.74024328378E+01 -0.73349946596E+02  0.73794135549E+02  0.00000000000E+00 0.  1.
         21    1    1    2  502  501 -0.16598014173E+02 -0.27837842397E+02 -0.73559479908E+03  0.73630845980E+03  0.00000000000E+00 0.  1.
<mgrwt>
<rscale>  1 0.30000000E+03</rscale>
<asrwt>0</asrwt>
<pdfrwt beam="1">  1        3 0.49486385E-02 0.30000000E+03</pdfrwt>
<pdfrwt beam="2">0</pdfrwt>
<totfact> 0.10052901E+03</totfact>
</mgrwt>
</event>
<event>
 6    1  0.3125838E-002  0.3000000E+03  0.7818608E-02  0.1093470E+00
          3   -1    0    0  502    0  0.00000000000E+00  0.00000000000E+00  0.93942940126E+00  0.93942940126E+00  0.00000000000E+00 0.  1.
         13   -1    0    0    0    0 -0.00000000000E+00 -0.00000000000E+00 -0.10000000000E+04  0.10000000000E+04  0.00000000000E+00 0.  1.
    9000005    2    1    2  501    0 -0.19752373384E+02  0.23294885668E+02 -0.50151306899E+03  0.50245540327E+03  0.36422456254E+01 0.  0.
         13    1    3    3    0    0 -0.91091523784E-02  0.22390102904E-01 -0.12759977735E-01  0.27333320269E-01  0.00000000000E+00 0.  1.
          3    1    3    3  501    0 -0.19743264231E+02  0.23272495565E+02 -0.50150030901E+03  0.50242806995E+03  0.00000000000E+00 0.  1.
         21    1    1    2  502  501  0.19752373384E+02 -0.23294885668E+02 -0.49754750161E+03  0.49848402613E+03  0.00000000000E+00 0.  1.
<mgrwt>
<rscale>  1 0.30000000E+03</rscale>
<asrwt>0</asrwt>
<pdfrwt beam="1">  1        3 0.34161141E-02 0.30000000E+03</pdfrwt>
<pdfrwt beam="2">0</pdfrwt>
<totfact> 0.17791475E+03</totfact>
</mgrwt>
</event>
<event>
 6    1  0.3125838E-002  0.3000000E+03  0.7818608E-02  0.1093470E+00
          1   -1    0    0  502    0  0.00000000000E+00  0.00000000000E+00  0.55331535801E+01  0.55331535801E+01  0.00000000000E+00 0.  1.
         13   -1    0    0    0    0 -0.00000000000E+00 -0.00000000000E+00 -0.10000000000E+04  0.10000000000E+04  0.00000000000E+00 0.  1.
    9000005    2    1    2  501    0 -0.60313047872E+02 -0.41583332287E+02 -0.58359157550E+03  0.58817799844E+03  0.27191152465E+01 0.  0.
         13    1    3    3    0    0 -0.20190232915E+02 -0.15449100061E+02 -0.19998350100E+03  0.20159295839E+03  0.00000000000E+00 0.  1.
          3    1    3    3  501    0 -0.40122814957E+02 -0.26134232226E+02 -0.38360807449E+03  0.38658504005E+03  0.00000000000E+00 0.  1.
         21    1    1    2  502  501  0.60313047872E+02  0.41583332287E+02 -0.41087527092E+03  0.41735515514E+03  0.00000000000E+00 0.  1.
<mgrwt>
<rscale>  1 0.30000000E+03</rscale>
<asrwt>0</asrwt>
<pdfrwt beam="1">  1        1 0.20120601E-01 0.30000000E+03</pdfrwt>
<pdfrwt beam="2">0</pdfrwt>
<totfact> 0.29205875E+02</totfact>
</mgrwt>
</event>
<event>
 6    1  0.3125838E-002  0.3000000E+03  0.7818608E-02  0.1093470E+00
          1   -1    0    0  502    0  0.00000000000E+00  0.00000000000E+00  0.23079583707E+01  0.23079583707E+01  0.00000000000E+00 0.  1.
         13   -1    0    0    0    0 -0.00000000000E+00 -0.00000000000E+00 -0.10000000000E+04  0.10000000000E+04  0.00000000000E+00 0.  1.
    9000005    2    1    2  501    0 -0.68225228247E+01 -0.36267038542E+02 -0.81930787091E+03  0.82014660884E+03  0.36369963401E+01 0.  0.
         13    1    3    3    0    0 -0.45852617105E+01 -0.29084415443E+02 -0.67713062306E+03  0.67777046892E+03  0.00000000000E+00 0.  1.
          1    1    3    3  501    0 -0.22372611142E+01 -0.71826230986E+01 -0.14217724785E+03  0.14237613992E+03  0.00000000000E+00 0.  1.
         21    1    1    2  502  501  0.68225228247E+01  0.36267038542E+02 -0.17838417072E+03  0.18216134954E+03  0.00000000000E+00 0.  1.
<mgrwt>
<rscale>  1 0.30000000E+03</rscale>
<asrwt>0</asrwt>
<pdfrwt beam="1">  1        1 0.83925936E-02 0.30000000E+03</pdfrwt>
<pdfrwt beam="2">0</pdfrwt>
<totfact> 0.96344359E+02</totfact>
</mgrwt>
</event>
<event>
 6    1  0.3125838E-002  0.3000000E+03  0.7818608E-02  0.1093470E+00
          1   -1    0    0  502    0  0.00000000000E+00  0.00000000000E+00  0.12160742851E+02  0.12160742851E+02  0.00000000000E+00 0.  1.
         13   -1    0    0    0    0 -0.00000000000E+00 -0.00000000000E+00 -0.10000000000E+04  0.10000000000E+04  0.00000000000E+00 0.  1.
    9000005    2    1    2  501    0 -0.44286413963E+02  0.84160816657E+01 -0.95576000881E+03  0.95683267523E+03  0.44110155780E+01 0.  0.
         13    1    3    3    0    0 -0.10114536479E+02  0.16041488820E+00 -0.20099764572E+03  0.20125203891E+03  0.00000000000E+00 0.  1.
          1    1    3    3  501    0 -0.34171877485E+02  0.82556667775E+01 -0.75476236309E+03  0.75558063632E+03  0.00000000000E+00 0.  1.
         21    1    1    2  502  501  0.44286413963E+02 -0.84160816657E+01 -0.32079248337E+02  0.55328067616E+02  0.00000000000E+00 0.  1.
<mgrwt>
<rscale>  1 0.30000000E+03</rscale>
<asrwt>0</asrwt>
<pdfrwt beam="1">  1        1 0.44220976E-01 0.30000000E+03</pdfrwt>
<pdfrwt beam="2">0</pdfrwt>
<totfact> 0.10366280E+02</totfact>
</mgrwt>
</event>
<event>
 6    1  0.3125838E-002  0.3000000E+03  0.7818608E-02  0.1093470E+00
          1   -1    0    0  502    0  0.00000000000E+00  0.00000000000E+00  0.17116519743E+01  0.17116519743E+01  0.00000000000E+00 0.  1.
         13   -1    0    0    0    0 -0.00000000000E+00 -0.00000000000E+00 -0.10000000000E+04  0.10000000000E+04  0.00000000000E+00 0.  1.
    9000005    2    1    2  501    0 -0.28116330684E+02  0.26045560216E+02 -0.68649136369E+03  0.68756796081E+03  0.32263062265E+01 0.  0.
         13    1    3    3    0    0 -0.27302890673E+02  0.25338024089E+02 -0.67469569063E+03  0.67572312248E+03  0.00000000000E+00 0.  1.
          3    1    3    3  501    0 -0.81344001157E+00  0.70753612686E+00 -0.11795673068E+02  0.11844838334E+02  0.00000000000E+00 0.  1.
         21    1    1    2  502  501  0.28116330684E+02 -0.26045560216E+02 -0.31179698433E+03  0.31414369116E+03  0.00000000000E+00 0.  1.
<mgrwt>
<rscale>  1 0.30000000E+03</rscale>
<asrwt>0</asrwt>
<pdfrwt beam="1">  1        1 0.62242021E-02 0.30000000E+03</pdfrwt>
<pdfrwt beam="2">0</pdfrwt>
<totfact> 0.14626283E+03</totfact>
</mgrwt>
</event>
<event>
 6    1  0.3125838E-002  0.3000000E+03  0.7818608E-02  0.1093470E+00
          3   -1    0    0  502    0  0.00000000000E+00  0.00000000000E+00  0.58662407797E+01  0.58662407797E+01  0.00000000000E+00 0.  1.
         13   -1    0    0    0    0 -0.00000000000E+00 -0.00000000000E+00 -0.10000000000E+04  0.10000000000E+04  0.00000000000E+00 0.  1.
    9000005    2    1    2  501    0  0.45324067903E+02 -0.45242562258E+02 -0.22224622961E+03  0.23132668793E+03  0.41820328780E+01 0.  0.
         13    1    3    3    0    0  0.86895706130E+01 -0.73349174481E+01 -0.34991592533E+02  0.36792950403E+02  0.00000000000E+00 0.  1.
          3    1    3    3  501    0  0.36634497290E+02 -0.37907644809E+02 -0.18725463708E+03  0.19453373752E+03  0.00000000000E+00 0.  1.
         21    1    1    2  502  501 -0.45324067903E+02  0.45242562258E+02 -0.77188752961E+03  0.77453955285E+03  0.00000000000E+00 0.  1.
<mgrwt>
<rscale>  1 0.30000000E+03</rscale>
<asrwt>0</asrwt>
<pdfrwt beam="1">  1        3 0.21331830E-01 0.30000000E+03</pdfrwt>
<pdfrwt beam="2">0</pdfrwt>
<totfact> 0.88815395E+01</totfact>
</mgrwt>
</event>
<event>
 6    1  0.3125838E-002  0.3000000E+03  0.7818608E-02  0.1093470E+00
          3   -1    0    0  502    0  0.00000000000E+00  0.00000000000E+00  0.11188535306E+02  0.11188535306E+02  0.00000000000E+00 0.  1.
         13   -1    0    0    0    0 -0.00000000000E+00 -0.00000000000E+00 -0.10000000000E+04  0.10000000000E+04  0.00000000000E+00 0.  1.
    9000005    2    1    2  501    0 -0.22030424224E+02 -0.41518110611E+02 -0.94733530062E+03  0.94850388578E+03  0.25211967273E+01 0.  0.
         13    1    3    3    0    0 -0.14395718900E+02 -0.29162397363E+02 -0.64120144445E+03  0.64202568057E+03  0.00000000000E+00 0.  1.
          3    1    3    3  501    0 -0.76347053239E+01 -0.12355713248E+02 -0.30613385617E+03  0.30647820521E+03  0.00000000000E+00 0.  1.
         21    1    1    2  502  501  0.22030424224E+02  0.41518110611E+02 -0.41476164071E+02  0.62684649526E+02  0.00000000000E+00 0.  1.
<mgrwt>
<rscale>  1 0.30000000E+03</rscale>
<asrwt>0</asrwt>
<pdfrwt beam="1">  1        3 0.40685669E-01 0.30000000E+03</pdfrwt>
<pdfrwt beam="2">0</pdfrwt>
<totfact> 0.26050276E+01</totfact>
</mgrwt>
</event>
<event>
 6    1  0.3125838E-002  0.3000000E+03  0.7818608E-02  0.1093470E+00
          3   -1    0    0  502    0  0.00000000000E+00  0.00000000000E+00  0.12399979139E+01  0.12399979139E+01  0.00000000000E+00 0.  1.
         13   -1    0    0    0    0 -0.00000000000E+00 -0.00000000000E+00 -0.10000000000E+04  0.10000000000E+04  0.00000000000E+00 0.  1.
    9000005    2    1    2  501    0  0.24243925799E+02 -0.19377501086E+02 -0.73468881409E+03  0.73535120947E+03  0.32391734636E+01 0.  0.
         13    1    3    3    0    0  0.82037766950E+01 -0.75472929003E+01 -0.29612373124E+03  0.29633347395E+03  0.00000000000E+00 0.  1.
          1    1    3    3  501    0  0.16040149104E+02 -0.11830208185E+02 -0.43856508285E+03  0.43901773552E+03  0.00000000000E+00 0.  1.
         21    1    1    2  502  501 -0.24243925799E+02  0.19377501086E+02 -0.26407118800E+03  0.26588878844E+03  0.00000000000E+00 0.  1.
<mgrwt>
<rscale>  1 0.30000000E+03</rscale>
<asrwt>0</asrwt>
<pdfrwt beam="1">  1        3 0.45090928E-02 0.30000000E+03</pdfrwt>
<pdfrwt beam="2">0</pdfrwt>
<totfact> 0.11604747E+03</totfact>
</mgrwt>
</event>
<event>
 6    1  0.3125838E-002  0.3000000E+03  0.7818608E-02  0.1093470E+00
          1   -1    0    0  502    0  0.00000000000E+00  0.00000000000E+00  0.21105599008E+01  0.21105599008E+01  0.00000000000E+00 0.  1.
         13   -1    0    0    0    0 -0.00000000000E+00 -0.00000000000E+00 -0.10000000000E+04  0.10000000000E+04  0.00000000000E+00 0.  1.
    9000005    2    1    2  501    0 -0.40108589085E+02 -0.20804152899E+02 -0.58667095939E+03  0.58841725494E+03  0.32464778296E+01 0.  0.
         13    1    3    3    0    0 -0.20263430308E+00  0.59972892426E-02 -0.10467683668E+01  0.10662179149E+01  0.00000000000E+00 0.  1.
          3    1    3    3  501    0 -0.39905954781E+02 -0.20810150188E+02 -0.58562419103E+03  0.58735103703E+03  0.00000000000E+00 0.  1.
         21    1    1    2  502  501  0.40108589085E+02  0.20804152899E+02 -0.41121848070E+03  0.41369330496E+03  0.00000000000E+00 0.  1.
<mgrwt>
<rscale>  1 0.30000000E+03</rscale>
<asrwt>0</asrwt>
<pdfrwt beam="1">  1        1 0.76747795E-02 0.30000000E+03</pdfrwt>
<pdfrwt beam="2">0</pdfrwt>
<totfact> 0.10911533E+03</totfact>
</mgrwt>
</event>
<event>
 6    1  0.3125838E-002  0.3000000E+03  0.7818608E-02  0.1093470E+00
          3   -1    0    0  502    0  0.00000000000E+00  0.00000000000E+00  0.29390472850E+01  0.29390472850E+01  0.00000000000E+00 0.  1.
         13   -1    0    0    0    0 -0.00000000000E+00 -0.00000000000E+00 -0.10000000000E+04  0.10000000000E+04  0.00000000000E+00 0.  1.
    9000005    2    1    2  501    0 -0.31364882948E+02 -0.34469150715E+02 -0.75418220548E+03  0.75562959722E+03  0.36620892906E+01 0.  0.
         13    1    3    3    0    0 -0.61089806829E+01 -0.47114537678E+01 -0.12695412427E+03  0.12718831358E+03  0.00000000000E+00 0.  1.
          1    1    3    3  501    0 -0.25255902265E+02 -0.29757696947E+02 -0.62722808121E+03  0.62844128364E+03  0.00000000000E+00 0.  1.
         21    1    1    2  502  501  0.31364882948E+02  0.34469150715E+02 -0.24287874724E+03  0.24730945007E+03  0.00000000000E+00 0.  1.
<mgrwt>
<rscale>  1 0.30000000E+03</rscale>
<asrwt>0</asrwt>
<pdfrwt beam="1">  1        3 0.10687467E-01 0.30000000E+03</pdfrwt>
<pdfrwt beam="2">0</pdfrwt>
<totfact> 0.29581296E+02</totfact>
</mgrwt>
</event>
<event>
 6    1  0.3125838E-002  0.3000000E+03  0.7818608E-02  0.1093470E+00
          3   -1    0    0  502    0  0.00000000000E+00  0.00000000000E+00  0.45267153121E+01  0.45267153121E+01  0.00000000000E+00 0.  1.
         13   -1    0    0    0    0 -0.00000000000E+00 -0.00000000000E+00 -0.10000000000E+04  0.10000000000E+04  0.00000000000E+00 0.  1.
    9000005    2    1    2  501    0 -0.25355787993E+02 -0.47074442016E+02 -0.80241384412E+03  0.80419981580E+03  0.32322471027E+01 0.  0.
         13    1    3    3    0    0 -0.17258130001E+02 -0.28833241799E+02 -0.50877926318E+03  0.50988776953E+03  0.00000000000E+00 0.  1.
          3    1    3    3  501    0 -0.80976579917E+01 -0.18241200216E+02 -0.29363458094E+03  0.29431204627E+03  0.00000000000E+00 0.  1.
         21    1    1    2  502  501  0.25355787993E+02  0.47074442016E+02 -0.19305944057E+03  0.20032689951E+03  0.00000000000E+00 0.  1.
<mgrwt>
<rscale>  1 0.30000000E+03</rscale>
<asrwt>0</asrwt>
<pdfrwt beam="1">  1        3 0.16460818E-01 0.30000000E+03</pdfrwt>
<pdfrwt beam="2">0</pdfrwt>
<totfact> 0.14152201E+02</totfact>
</mgrwt>
</event>
<event>
 6    1  0.3125838E-002  0.3000000E+03  0.7818608E-02  0.1093470E+00
          1   -1    0    0  502    0  0.00000000000E+00  0.00000000000E+00  0.25483791786E+02  0.25483791786E+02  0.00000000000E+00 0.  1.
         13   -1    0    0    0    0 -0.00000000000E+00 -0.00000000000E+00 -0.10000000000E+04  0.10000000000E+04  0.00000000000E+00 0.  1.
    9000005    2    1    2  501    0 -0.10471930906E+03  0.63551826518E+02 -0.81601075253E+03  0.82516168160E+03  0.36447507007E+01 0.  0.
         13    1    3    3    0    0 -0.84102851271E+02  0.49656087235E+02 -0.65618600395E+03  0.66341471824E+03  0.00000000000E+00 0.  1.
          1    1    3    3  501    0 -0.20616457790E+02  0.13895739283E+02 -0.15982474858E+03  0.16174696337E+03  0.00000000000E+00 0.  1.
         21    1    1    2  502  501  0.10471930906E+03 -0.63551826518E+02 -0.15850545569E+03  0.20032211018E+03  0.00000000000E+00 0.  1.
<mgrwt>
<rscale>  1 0.30000000E+03</rscale>
<asrwt>0</asrwt>
<pdfrwt beam="1">  1        1 0.92668529E-01 0.30000000E+03</pdfrwt>
<pdfrwt beam="2">0</pdfrwt>
<totfact> 0.38209056E+01</totfact>
</mgrwt>
</event>
<event>
 6    1  0.3125838E-002  0.3000000E+03  0.7818608E-02  0.1093470E+00
          3   -1    0    0  502    0  0.00000000000E+00  0.00000000000E+00  0.12901959084E+01  0.12901959084E+01  0.00000000000E+00 0.  1.
         13   -1    0    0    0    0 -0.00000000000E+00 -0.00000000000E+00 -0.10000000000E+04  0.10000000000E+04  0.00000000000E+00 0.  1.
    9000005    2    1    2  501    0 -0.33605875898E+02  0.86284723550E+01 -0.62593767116E+03  0.62690687828E+03  0.32342578992E+01 0.  0.
         13    1    3    3    0    0 -0.43355032619E+01  0.72233552977E+00 -0.62819319689E+02  0.62972893242E+02  0.00000000000E+00 0.  1.
          3    1    3    3  501    0 -0.29270372636E+02  0.79061368252E+01 -0.56311835147E+03  0.56393398504E+03  0.00000000000E+00 0.  1.
         21    1    1    2  502  501  0.33605875898E+02 -0.86284723550E+01 -0.37277213293E+03  0.37438331763E+03  0.00000000000E+00 0.  1.
<mgrwt>
<rscale>  1 0.30000000E+03</rscale>
<asrwt>0</asrwt>
<pdfrwt beam="1">  1        3 0.46916314E-02 0.30000000E+03</pdfrwt>
<pdfrwt beam="2">0</pdfrwt>
<totfact> 0.10915256E+03</totfact>
</mgrwt>
</event>
<event>
 6    1  0.3125838E-002  0.3000000E+03  0.7818608E-02  0.1093470E+00
          3   -1    0    0  502    0  0.00000000000E+00  0.00000000000E+00  0.12150513656E+01  0.12150513656E+01  0.00000000000E+00 0.  1.
         13   -1    0    0    0    0 -0.00000000000E+00 -0.00000000000E+00 -0.10000000000E+04  0.10000000000E+04  0.00000000000E+00 0.  1.
    9000005    2    1    2  501    0  0.56476735247E+01 -0.33627089973E+02 -0.59839885410E+03  0.59937963469E+03  0.34757013245E+01 0.  0.
         13    1    3    3    0    0  0.26638275540E+01 -0.24844774114E+02 -0.44341278275E+03  0.44411626257E+03  0.00000000000E+00 0.  1.
          3    1    3    3  501    0  0.29838459707E+01 -0.87823158596E+01 -0.15498607135E+03  0.15526337212E+03  0.00000000000E+00 0.  1.
         21    1    1    2  502  501 -0.56476735247E+01  0.33627089973E+02 -0.40038609454E+03  0.40183541667E+03  0.00000000000E+00 0.  1.
<mgrwt>
<rscale>  1 0.30000000E+03</rscale>
<asrwt>0</asrwt>
<pdfrwt beam="1">  1        3 0.44183779E-02 0.30000000E+03</pdfrwt>
<pdfrwt beam="2">0</pdfrwt>
<totfact> 0.11974076E+03</totfact>
</mgrwt>
</event>
<event>
 6    1  0.3125838E-002  0.3000000E+03  0.7818608E-02  0.1093470E+00
          1   -1    0    0  502    0  0.00000000000E+00  0.00000000000E+00  0.18977824781E+01  0.18977824781E+01  0.00000000000E+00 0.  1.
         13   -1    0    0    0    0 -0.00000000000E+00 -0.00000000000E+00 -0.10000000000E+04  0.10000000000E+04  0.00000000000E+00 0.  1.
    9000005    2    1    2  501    0 -0.17076271103E+02  0.32222817397E+02 -0.77257423071E+03  0.77344038638E+03  0.30299064659E+01 0.  0.
         13    1    3    3    0    0 -0.16121902818E+02  0.28823545744E+02 -0.70760956809E+03  0.70837985106E+03  0.00000000000E+00 0.  1.
          1    1    3    3  501    0 -0.95436828471E+00  0.33992716524E+01 -0.64964662620E+02  0.65060535319E+02  0.00000000000E+00 0.  1.
         21    1    1    2  502  501  0.17076271103E+02 -0.32222817397E+02 -0.22552798681E+03  0.22845739610E+03  0.00000000000E+00 0.  1.
<mgrwt>
<rscale>  1 0.30000000E+03</rscale>
<asrwt>0</asrwt>
<pdfrwt beam="1">  1        1 0.69010417E-02 0.30000000E+03</pdfrwt>
<pdfrwt beam="2">0</pdfrwt>
<totfact> 0.12657664E+03</totfact>
</mgrwt>
</event>
<event>
 6    1  0.3125838E-002  0.3000000E+03  0.7818608E-02  0.1093470E+00
          1   -1    0    0  502    0  0.00000000000E+00  0.00000000000E+00  0.24977331250E+01  0.24977331250E+01  0.00000000000E+00 0.  1.
         13   -1    0    0    0    0 -0.00000000000E+00 -0.00000000000E+00 -0.10000000000E+04  0.10000000000E+04  0.00000000000E+00 0.  1.
    9000005    2    1    2  501    0 -0.28817918318E+02  0.37766432945E+02 -0.65306242598E+03  0.65479731629E+03  0.34953277626E+01 0.  0.
         13    1    3    3    0    0 -0.10726472753E+02  0.13320270881E+02 -0.21328522809E+03  0.21396980011E+03  0.00000000000E+00 0.  1.
          1    1    3    3  501    0 -0.18091445564E+02  0.24446162064E+02 -0.43977719789E+03  0.44082751618E+03  0.00000000000E+00 0.  1.
         21    1    1    2  502  501  0.28817918318E+02 -0.37766432945E+02 -0.34443984089E+03  0.34770041683E+03  0.00000000000E+00 0.  1.
<mgrwt>
<rscale>  1 0.30000000E+03</rscale>
<asrwt>0</asrwt>
<pdfrwt beam="1">  1        1 0.90826851E-02 0.30000000E+03</pdfrwt>
<pdfrwt beam="2">0</pdfrwt>
<totfact> 0.86335840E+02</totfact>
</mgrwt>
</event>
<event>
 6    1  0.3125838E-002  0.3000000E+03  0.7818608E-02  0.1093470E+00
          1   -1    0    0  502    0  0.00000000000E+00  0.00000000000E+00  0.13585119940E+01  0.13585119940E+01  0.00000000000E+00 0.  1.
         13   -1    0    0    0    0 -0.00000000000E+00 -0.00000000000E+00 -0.10000000000E+04  0.10000000000E+04  0.00000000000E+00 0.  1.
    9000005    2    1    2  501    0  0.10402892812E+02 -0.29890928623E+02 -0.75071516659E+03  0.75142022232E+03  0.75763695125E+01 0.  0.
         13    1    3    3    0    0  0.43576703404E+01 -0.38731408845E+01 -0.13085998611E+03  0.13098979531E+03  0.00000000000E+00 0.  1.
          3    1    3    3  501    0  0.60452224711E+01 -0.26017787739E+02 -0.61985518048E+03  0.62043042701E+03  0.00000000000E+00 0.  1.
         21    1    1    2  502  501 -0.10402892812E+02  0.29890928623E+02 -0.24792632142E+03  0.24993828967E+03  0.00000000000E+00 0.  1.
<mgrwt>
<rscale>  1 0.30000000E+03</rscale>
<asrwt>0</asrwt>
<pdfrwt beam="1">  1        1 0.49400540E-02 0.30000000E+03</pdfrwt>
<pdfrwt beam="2">0</pdfrwt>
<totfact> 0.20231732E+03</totfact>
</mgrwt>
</event>
<event>
 6    1  0.3125838E-002  0.3000000E+03  0.7818608E-02  0.1093470E+00
          1   -1    0    0  502    0  0.00000000000E+00  0.00000000000E+00  0.20820908641E+01  0.20820908641E+01  0.00000000000E+00 0.  1.
         13   -1    0    0    0    0 -0.00000000000E+00 -0.00000000000E+00 -0.10000000000E+04  0.10000000000E+04  0.00000000000E+00 0.  1.
    9000005    2    1    2  501    0 -0.30001835157E+02  0.34047216878E+02 -0.54497355334E+03  0.54687014843E+03  0.33856034461E+01 0.  0.
         13    1    3    3    0    0 -0.17819462888E+02  0.22058234349E+02 -0.32660058831E+03  0.32782928979E+03  0.00000000000E+00 0.  1.
          3    1    3    3  501    0 -0.12182372269E+02  0.11988982529E+02 -0.21837296503E+03  0.21904085864E+03  0.00000000000E+00 0.  1.
         21    1    1    2  502  501  0.30001835157E+02 -0.34047216878E+02 -0.45294435579E+03  0.45521194243E+03  0.00000000000E+00 0.  1.
<mgrwt>
<rscale>  1 0.30000000E+03</rscale>
<asrwt>0</asrwt>
<pdfrwt beam="1">  1        1 0.75712555E-02 0.30000000E+03</pdfrwt>
<pdfrwt beam="2">0</pdfrwt>
<totfact> 0.11120207E+03</totfact>
</mgrwt>
</event>
<event>
 6    1  0.3125838E-002  0.3000000E+03  0.7818608E-02  0.1093470E+00
          1   -1    0    0  502    0  0.00000000000E+00  0.00000000000E+00  0.17318246101E+01  0.17318246101E+01  0.00000000000E+00 0.  1.
         13   -1    0    0    0    0 -0.00000000000E+00 -0.00000000000E+00 -0.10000000000E+04  0.10000000000E+04  0.00000000000E+00 0.  1.
    9000005    2    1    2  501    0 -0.13209590491E+02 -0.29565708645E+02 -0.81105608589E+03  0.81173974356E+03  0.77982305274E+01 0.  0.
         13    1    3    3    0    0 -0.60881022859E+01 -0.14588339552E+02 -0.30181891207E+03  0.30223259309E+03  0.00000000000E+00 0.  1.
          1    1    3    3  501    0 -0.71214882055E+01 -0.14977369093E+02 -0.50923717382E+03  0.50950715047E+03  0.00000000000E+00 0.  1.
         21    1    1    2  502  501  0.13209590491E+02  0.29565708645E+02 -0.18721208950E+03  0.18999208105E+03  0.00000000000E+00 0.  1.
<mgrwt>
<rscale>  1 0.30000000E+03</rscale>
<asrwt>0</asrwt>
<pdfrwt beam="1">  1        1 0.62975573E-02 0.30000000E+03</pdfrwt>
<pdfrwt beam="2">0</pdfrwt>
<totfact> 0.14388033E+03</totfact>
</mgrwt>
</event>
<event>
 6    1  0.3125838E-002  0.3000000E+03  0.7818608E-02  0.1093470E+00
          1   -1    0    0  502    0  0.00000000000E+00  0.00000000000E+00  0.69781195907E+01  0.69781195907E+01  0.00000000000E+00 0.  1.
         13   -1    0    0    0    0 -0.00000000000E+00 -0.00000000000E+00 -0.10000000000E+04  0.10000000000E+04  0.00000000000E+00 0.  1.
    9000005    2    1    2  501    0  0.56440625491E+02 -0.11729775214E+02 -0.86080567396E+03  0.86274131056E+03  0.36095411619E+01 0.  0.
         13    1    3    3    0    0  0.46216333471E+02 -0.99106028432E+01 -0.72498020897E+03  0.72651942364E+03  0.00000000000E+00 0.  1.
          1    1    3    3  501    0  0.10224292020E+02 -0.18191723703E+01 -0.13582546499E+03  0.13622188692E+03  0.00000000000E+00 0.  1.
         21    1    1    2  502  501 -0.56440625491E+02  0.11729775214E+02 -0.13221620645E+03  0.14423680903E+03  0.00000000000E+00 0.  1.
<mgrwt>
<rscale>  1 0.30000000E+03</rscale>
<asrwt>0</asrwt>
<pdfrwt beam="1">  1        1 0.25375034E-01 0.30000000E+03</pdfrwt>
<pdfrwt beam="2">0</pdfrwt>
<totfact> 0.21467024E+02</totfact>
</mgrwt>
</event>
<event>
 6    1  0.3125838E-002  0.3000000E+03  0.7818608E-02  0.1093470E+00
          1   -1    0    0  502    0  0.00000000000E+00  0.00000000000E+00  0.81891674277E+01  0.81891674277E+01  0.00000000000E+00 0.  1.
         13   -1    0    0    0    0 -0.00000000000E+00 -0.00000000000E+00 -0.10000000000E+04  0.10000000000E+04  0.00000000000E+00 0.  1.
    9000005    2    1    2  501    0  0.52994948045E+02  0.60373975948E+02 -0.72699931748E+03  0.73146074458E+03  0.73028587061E+01 0.  0.
         13    1    3    3    0    0  0.14583376600E+02  0.11963355789E+02 -0.17306726745E+03  0.17409214749E+03  0.00000000000E+00 0.  1.
          1    1    3    3  501    0  0.38411571445E+02  0.48410620159E+02 -0.55393205004E+03  0.55736859709E+03  0.00000000000E+00 0.  1.
         21    1    1    2  502  501 -0.52994948045E+02 -0.60373975948E+02 -0.26481151509E+03  0.27672842285E+03  0.00000000000E+00 0.  1.
<mgrwt>
<rscale>  1 0.30000000E+03</rscale>
<asrwt>0</asrwt>
<pdfrwt beam="1">  1        1 0.29778853E-01 0.30000000E+03</pdfrwt>
<pdfrwt beam="2">0</pdfrwt>
<totfact> 0.17389574E+02</totfact>
</mgrwt>
</event>
<event>
 6    1  0.3125838E-002  0.3000000E+03  0.7818608E-02  0.1093470E+00
          1   -1    0    0  502    0  0.00000000000E+00  0.00000000000E+00  0.11154054328E+01  0.11154054328E+01  0.00000000000E+00 0.  1.
         13   -1    0    0    0    0 -0.00000000000E+00 -0.00000000000E+00 -0.10000000000E+04  0.10000000000E+04  0.00000000000E+00 0.  1.
    9000005    2    1    2  501    0  0.42687531596E+01 -0.29696938836E+02 -0.71749692768E+03  0.71813280967E+03  0.35722067738E+01 0.  0.
         13    1    3    3    0    0 -0.29317710850E-01 -0.27095735171E+01 -0.90652029978E+02  0.90692520018E+02  0.00000000000E+00 0.  1.
          1    1    3    3  501    0  0.42980708705E+01 -0.26987365319E+02 -0.62684489770E+03  0.62744028965E+03  0.00000000000E+00 0.  1.
         21    1    1    2  502  501 -0.42687531596E+01  0.29696938836E+02 -0.28138766689E+03  0.28298259577E+03  0.00000000000E+00 0.  1.
<mgrwt>
<rscale>  1 0.30000000E+03</rscale>
<asrwt>0</asrwt>
<pdfrwt beam="1">  1        1 0.40560283E-02 0.30000000E+03</pdfrwt>
<pdfrwt beam="2">0</pdfrwt>
<totfact> 0.26701431E+03</totfact>
</mgrwt>
</event>
<event>
 6    1  0.3125838E-002  0.3000000E+03  0.7818608E-02  0.1093470E+00
          1   -1    0    0  502    0  0.00000000000E+00  0.00000000000E+00  0.14966818912E+01  0.14966818912E+01  0.00000000000E+00 0.  1.
         13   -1    0    0    0    0 -0.00000000000E+00 -0.00000000000E+00 -0.10000000000E+04  0.10000000000E+04  0.00000000000E+00 0.  1.
    9000005    2    1    2  501    0 -0.19333073188E+02 -0.24140790604E+02 -0.79934632374E+03  0.79995250833E+03  0.35951104754E+01 0.  0.
         13    1    3    3    0    0 -0.12759517498E+02 -0.14416922349E+02 -0.53330813559E+03  0.53365552600E+03  0.00000000000E+00 0.  1.
          1    1    3    3  501    0 -0.65735556894E+01 -0.97238682550E+01 -0.26603818814E+03  0.26629698233E+03  0.00000000000E+00 0.  1.
         21    1    1    2  502  501  0.19333073188E+02  0.24140790604E+02 -0.19915699437E+03  0.20154417356E+03  0.00000000000E+00 0.  1.
<mgrwt>
<rscale>  1 0.30000000E+03</rscale>
<asrwt>0</asrwt>
<pdfrwt beam="1">  1        1 0.54424911E-02 0.30000000E+03</pdfrwt>
<pdfrwt beam="2">0</pdfrwt>
<totfact> 0.17657511E+03</totfact>
</mgrwt>
</event>
<event>
 6    1  0.3125838E-002  0.3000000E+03  0.7818608E-02  0.1093470E+00
          1   -1    0    0  502    0  0.00000000000E+00  0.00000000000E+00  0.17968438450E+01  0.17968438450E+01  0.00000000000E+00 0.  1.
         13   -1    0    0    0    0 -0.00000000000E+00 -0.00000000000E+00 -0.10000000000E+04  0.10000000000E+04  0.00000000000E+00 0.  1.
    9000005    2    1    2  501    0  0.25971606565E+02 -0.28920718209E+02 -0.69801120954E+03  0.69909874821E+03  0.29118403743E+01 0.  0.
         13    1    3    3    0    0  0.15616015213E+01 -0.28264283246E+01 -0.52153961250E+02  0.52253832112E+02  0.00000000000E+00 0.  1.
          3    1    3    3  501    0  0.24410005044E+02 -0.26094289884E+02 -0.64585724829E+03  0.64684491609E+03  0.00000000000E+00 0.  1.
         21    1    1    2  502  501 -0.25971606565E+02  0.28920718209E+02 -0.30019194662E+03  0.30269809564E+03  0.00000000000E+00 0.  1.
<mgrwt>
<rscale>  1 0.30000000E+03</rscale>
<asrwt>0</asrwt>
<pdfrwt beam="1">  1        1 0.65339914E-02 0.30000000E+03</pdfrwt>
<pdfrwt beam="2">0</pdfrwt>
<totfact> 0.13663939E+03</totfact>
</mgrwt>
</event>
<event>
 6    1  0.3125838E-002  0.3000000E+03  0.7818608E-02  0.1093470E+00
          1   -1    0    0  502    0  0.00000000000E+00  0.00000000000E+00  0.48452931449E+01  0.48452931449E+01  0.00000000000E+00 0.  1.
         13   -1    0    0    0    0 -0.00000000000E+00 -0.00000000000E+00 -0.10000000000E+04  0.10000000000E+04  0.00000000000E+00 0.  1.
    9000005    2    1    2  501    0 -0.25186635790E+02 -0.27319288845E+02 -0.92236482763E+03  0.92311967486E+03  0.35140733080E+01 0.  0.
         13    1    3    3    0    0 -0.14899941330E+02 -0.13771210107E+02 -0.51803424734E+03  0.51843141871E+03  0.00000000000E+00 0.  1.
          3    1    3    3  501    0 -0.10286694460E+02 -0.13548078738E+02 -0.40433058028E+03  0.40468825616E+03  0.00000000000E+00 0.  1.
         21    1    1    2  502  501  0.25186635790E+02  0.27319288845E+02 -0.72789879228E+02  0.81725618281E+02  0.00000000000E+00 0.  1.
<mgrwt>
<rscale>  1 0.30000000E+03</rscale>
<asrwt>0</asrwt>
<pdfrwt beam="1">  1        1 0.17619285E-01 0.30000000E+03</pdfrwt>
<pdfrwt beam="2">0</pdfrwt>
<totfact> 0.34897695E+02</totfact>
</mgrwt>
</event>
<event>
 6    1  0.3125838E-002  0.3000000E+03  0.7818608E-02  0.1093470E+00
          3   -1    0    0  502    0  0.00000000000E+00  0.00000000000E+00  0.28169201370E+01  0.28169201370E+01  0.00000000000E+00 0.  1.
         13   -1    0    0    0    0 -0.00000000000E+00 -0.00000000000E+00 -0.10000000000E+04  0.10000000000E+04  0.00000000000E+00 0.  1.
    9000005    2    1    2  501    0  0.38773151265E+02  0.27444463152E+01 -0.83980786707E+03  0.84071248822E+03  0.30569619971E+01 0.  0.
         13    1    3    3    0    0  0.35090460454E+02  0.31918736495E+01 -0.77091613361E+03  0.77172094278E+03  0.00000000000E+00 0.  1.
          3    1    3    3  501    0  0.36826908112E+01 -0.44742733431E+00 -0.68891733457E+02  0.68991545435E+02  0.00000000000E+00 0.  1.
         21    1    1    2  502  501 -0.38773151265E+02 -0.27444463152E+01 -0.15737521280E+03  0.16210443192E+03  0.00000000000E+00 0.  1.
<mgrwt>
<rscale>  1 0.30000000E+03</rscale>
<asrwt>0</asrwt>
<pdfrwt beam="1">  1        3 0.10243368E-01 0.30000000E+03</pdfrwt>
<pdfrwt beam="2">0</pdfrwt>
<totfact> 0.31739141E+02</totfact>
</mgrwt>
</event>
<event>
 6    1  0.3125838E-002  0.3000000E+03  0.7818608E-02  0.1093470E+00
          1   -1    0    0  502    0  0.00000000000E+00  0.00000000000E+00  0.18920105598E+01  0.18920105598E+01  0.00000000000E+00 0.  1.
         13   -1    0    0    0    0 -0.00000000000E+00 -0.00000000000E+00 -0.10000000000E+04  0.10000000000E+04  0.00000000000E+00 0.  1.
    9000005    2    1    2  501    0  0.17199581595E+02  0.39657110419E+02 -0.46279929918E+03  0.46484089020E+03  0.50348649185E+01 0.  0.
         13    1    3    3    0    0  0.52619948295E+01  0.16609151249E+02 -0.16792124814E+03  0.16882268234E+03  0.00000000000E+00 0.  1.
          3    1    3    3  501    0  0.11937586766E+02  0.23047959170E+02 -0.29487805103E+03  0.29601820785E+03  0.00000000000E+00 0.  1.
         21    1    1    2  502  501 -0.17199581595E+02 -0.39657110419E+02 -0.53530869026E+03  0.53705112036E+03  0.00000000000E+00 0.  1.
<mgrwt>
<rscale>  1 0.30000000E+03</rscale>
<asrwt>0</asrwt>
<pdfrwt beam="1">  1        1 0.68800529E-02 0.30000000E+03</pdfrwt>
<pdfrwt beam="2">0</pdfrwt>
<totfact> 0.12711712E+03</totfact>
</mgrwt>
</event>
<event>
 6    1  0.3125838E-002  0.3000000E+03  0.7818608E-02  0.1093470E+00
          3   -1    0    0  502    0  0.00000000000E+00  0.00000000000E+00  0.15721415905E+01  0.15721415905E+01  0.00000000000E+00 0.  1.
         13   -1    0    0    0    0 -0.00000000000E+00 -0.00000000000E+00 -0.10000000000E+04  0.10000000000E+04  0.00000000000E+00 0.  1.
    9000005    2    1    2  501    0 -0.35057952390E+02 -0.15100471262E+02 -0.63224047403E+03  0.63340059905E+03  0.33492710937E+01 0.  0.
         13    1    3    3    0    0 -0.33422246533E+01 -0.83286163861E+00 -0.71235255762E+02  0.71318481389E+02  0.00000000000E+00 0.  1.
          1    1    3    3  501    0 -0.31715727737E+02 -0.14267609624E+02 -0.56100521826E+03  0.56208211766E+03  0.00000000000E+00 0.  1.
         21    1    1    2  502  501  0.35057952390E+02  0.15100471262E+02 -0.36618738438E+03  0.36817154254E+03  0.00000000000E+00 0.  1.
<mgrwt>
<rscale>  1 0.30000000E+03</rscale>
<asrwt>0</asrwt>
<pdfrwt beam="1">  1        3 0.57168906E-02 0.30000000E+03</pdfrwt>
<pdfrwt beam="2">0</pdfrwt>
<totfact> 0.80403659E+02</totfact>
</mgrwt>
</event>
<event>
 6    1  0.3125838E-002  0.3000000E+03  0.7818608E-02  0.1093470E+00
          1   -1    0    0  502    0  0.00000000000E+00  0.00000000000E+00  0.38150368819E+01  0.38150368819E+01  0.00000000000E+00 0.  1.
         13   -1    0    0    0    0 -0.00000000000E+00 -0.00000000000E+00 -0.10000000000E+04  0.10000000000E+04  0.00000000000E+00 0.  1.
    9000005    2    1    2  501    0 -0.31619429110E+02  0.12262936922E+02 -0.91741240407E+03  0.91805208464E+03  0.48931627150E+01 0.  0.
         13    1    3    3    0    0 -0.10343250019E+02  0.23423146110E+01 -0.24322556772E+03  0.24345666154E+03  0.00000000000E+00 0.  1.
          3    1    3    3  501    0 -0.21276179090E+02  0.99206223115E+01 -0.67418683635E+03  0.67459542309E+03  0.00000000000E+00 0.  1.
         21    1    1    2  502  501  0.31619429110E+02 -0.12262936922E+02 -0.78772559047E+02  0.85762952246E+02  0.00000000000E+00 0.  1.
<mgrwt>
<rscale>  1 0.30000000E+03</rscale>
<asrwt>0</asrwt>
<pdfrwt beam="1">  1        1 0.13872891E-01 0.30000000E+03</pdfrwt>
<pdfrwt beam="2">0</pdfrwt>
<totfact> 0.48241770E+02</totfact>
</mgrwt>
</event>
<event>
 6    1  0.3125838E-002  0.3000000E+03  0.7818608E-02  0.1093470E+00
          1   -1    0    0  502    0  0.00000000000E+00  0.00000000000E+00  0.50973992615E+01  0.50973992615E+01  0.00000000000E+00 0.  1.
         13   -1    0    0    0    0 -0.00000000000E+00 -0.00000000000E+00 -0.10000000000E+04  0.10000000000E+04  0.00000000000E+00 0.  1.
    9000005    2    1    2  501    0 -0.31986752146E+02  0.86134901660E+01 -0.94259585540E+03  0.94318342560E+03  0.32685164403E+01 0.  0.
         13    1    3    3    0    0 -0.12894063746E+02  0.42781197519E+01 -0.34689861193E+03  0.34716452316E+03  0.00000000000E+00 0.  1.
          3    1    3    3  501    0 -0.19092688400E+02  0.43353704141E+01 -0.59569724347E+03  0.59601890244E+03  0.00000000000E+00 0.  1.
         21    1    1    2  502  501  0.31986752146E+02 -0.86134901660E+01 -0.52306745342E+02  0.61913973657E+02  0.00000000000E+00 0.  1.
<mgrwt>
<rscale>  1 0.30000000E+03</rscale>
<asrwt>0</asrwt>
<pdfrwt beam="1">  1        1 0.18536036E-01 0.30000000E+03</pdfrwt>
<pdfrwt beam="2">0</pdfrwt>
<totfact> 0.32598056E+02</totfact>
</mgrwt>
</event>
<event>
 6    1  0.3125838E-002  0.3000000E+03  0.7818608E-02  0.1093470E+00
          3   -1    0    0  502    0  0.00000000000E+00  0.00000000000E+00  0.16868396014E+01  0.16868396014E+01  0.00000000000E+00 0.  1.
         13   -1    0    0    0    0 -0.00000000000E+00 -0.00000000000E+00 -0.10000000000E+04  0.10000000000E+04  0.00000000000E+00 0.  1.
    9000005    2    1    2  501    0  0.38527298478E+02  0.12578404874E+02 -0.57638538485E+03  0.57781702848E+03  0.31364853573E+01 0.  0.
         13    1    3    3    0    0  0.22159058408E+02  0.88488264695E+01 -0.33589493940E+03  0.33674134868E+03  0.00000000000E+00 0.  1.
          1    1    3    3  501    0  0.16368240070E+02  0.37295784043E+01 -0.24049044545E+03  0.24107567980E+03  0.00000000000E+00 0.  1.
         21    1    1    2  502  501 -0.38527298478E+02 -0.12578404874E+02 -0.42192777555E+03  0.42386981112E+03  0.00000000000E+00 0.  1.
<mgrwt>
<rscale>  1 0.30000000E+03</rscale>
<asrwt>0</asrwt>
<pdfrwt beam="1">  1        3 0.61339751E-02 0.30000000E+03</pdfrwt>
<pdfrwt beam="2">0</pdfrwt>
<totfact> 0.72044855E+02</totfact>
</mgrwt>
</event>
<event>
 6    1  0.3125838E-002  0.3000000E+03  0.7818608E-02  0.1093470E+00
          1   -1    0    0  502    0  0.00000000000E+00  0.00000000000E+00  0.28351293547E+01  0.28351293547E+01  0.00000000000E+00 0.  1.
         13   -1    0    0    0    0 -0.00000000000E+00 -0.00000000000E+00 -0.10000000000E+04  0.10000000000E+04  0.00000000000E+00 0.  1.
    9000005    2    1    2  501    0  0.14685436040E+02 -0.44184315717E+02 -0.74128565089E+03  0.74275419793E+03  0.33862284927E+01 0.  0.
         13    1    3    3    0    0  0.17789853366E+00 -0.16360721989E+01 -0.19083244444E+02  0.19154075248E+02  0.00000000000E+00 0.  1.
          1    1    3    3  501    0  0.14507537506E+02 -0.42548243518E+02 -0.72220240645E+03  0.72360012268E+03  0.00000000000E+00 0.  1.
         21    1    1    2  502  501 -0.14685436040E+02  0.44184315717E+02 -0.25587921975E+03  0.26008093142E+03  0.00000000000E+00 0.  1.
<mgrwt>
<rscale>  1 0.30000000E+03</rscale>
<asrwt>0</asrwt>
<pdfrwt beam="1">  1        1 0.10309583E-01 0.30000000E+03</pdfrwt>
<pdfrwt beam="2">0</pdfrwt>
<totfact> 0.72461420E+02</totfact>
</mgrwt>
</event>
<event>
 6    1  0.3125838E-002  0.3000000E+03  0.7818608E-02  0.1093470E+00
          1   -1    0    0  502    0  0.00000000000E+00  0.00000000000E+00  0.45781727635E+02  0.45781727635E+02  0.00000000000E+00 0.  1.
         13   -1    0    0    0    0 -0.00000000000E+00 -0.00000000000E+00 -0.10000000000E+04  0.10000000000E+04  0.00000000000E+00 0.  1.
    9000005    2    1    2  501    0 -0.42075865794E+02  0.52415672300E+02 -0.97352636395E+03  0.97584902008E+03  0.31539649263E+01 0.  0.
         13    1    3    3    0    0 -0.38266055490E+02  0.47593402797E+02 -0.89683660253E+03  0.89891340775E+03  0.00000000000E+00 0.  1.
          1    1    3    3  501    0 -0.38098103044E+01  0.48222695030E+01 -0.76689761421E+02  0.76935612329E+02  0.00000000000E+00 0.  1.
         21    1    1    2  502  501  0.42075865794E+02 -0.52415672300E+02  0.19308091589E+02  0.69932707554E+02  0.00000000000E+00 0.  1.
<mgrwt>
<rscale>  1 0.30000000E+03</rscale>
<asrwt>0</asrwt>
<pdfrwt beam="1">  1        1 0.16647936E+00 0.30000000E+03</pdfrwt>
<pdfrwt beam="2">0</pdfrwt>
<totfact> 0.14866130E+01</totfact>
</mgrwt>
</event>
<event>
 6    1  0.3125838E-002  0.3000000E+03  0.7818608E-02  0.1093470E+00
          3   -1    0    0  502    0  0.00000000000E+00  0.00000000000E+00  0.16208034710E+01  0.16208034710E+01  0.00000000000E+00 0.  1.
         13   -1    0    0    0    0 -0.00000000000E+00 -0.00000000000E+00 -0.10000000000E+04  0.10000000000E+04  0.00000000000E+00 0.  1.
    9000005    2    1    2  501    0  0.25217804007E+02  0.17628723603E+02 -0.82162292852E+03  0.82220651247E+03  0.35500625675E+01 0.  0.
         13    1    3    3    0    0  0.48176356669E+01  0.47950486416E+01 -0.20545220100E+03  0.20556461028E+03  0.00000000000E+00 0.  1.
          1    1    3    3  501    0  0.20400168340E+02  0.12833674961E+02 -0.61617072752E+03  0.61664190218E+03  0.00000000000E+00 0.  1.
         21    1    1    2  502  501 -0.25217804007E+02 -0.17628723603E+02 -0.17675626801E+03  0.17941429101E+03  0.00000000000E+00 0.  1.
<mgrwt>
<rscale>  1 0.30000000E+03</rscale>
<asrwt>0</asrwt>
<pdfrwt beam="1">  1        3 0.58938432E-02 0.30000000E+03</pdfrwt>
<pdfrwt beam="2">0</pdfrwt>
<totfact> 0.76675370E+02</totfact>
</mgrwt>
</event>
<event>
 6    1  0.3125838E-002  0.3000000E+03  0.7818608E-02  0.1093470E+00
          1   -1    0    0  502    0  0.00000000000E+00  0.00000000000E+00  0.19765062902E+02  0.19765062902E+02  0.00000000000E+00 0.  1.
         13   -1    0    0    0    0 -0.00000000000E+00 -0.00000000000E+00 -0.10000000000E+04  0.10000000000E+04  0.00000000000E+00 0.  1.
    9000005    2    1    2  501    0  0.25459838167E+01 -0.61845634461E+02 -0.94790189076E+03  0.94993104239E+03  0.44301524593E+01 0.  0.
         13    1    3    3    0    0  0.27108087381E+01 -0.17357033886E+02 -0.26842472770E+03  0.26899897686E+03  0.00000000000E+00 0.  1.
          1    1    3    3  501    0 -0.16482492139E+00 -0.44488600575E+02 -0.67947716306E+03  0.68093206554E+03  0.00000000000E+00 0.  1.
         21    1    1    2  502  501 -0.25459838167E+01  0.61845634461E+02 -0.32333046335E+02  0.69834020511E+02  0.00000000000E+00 0.  1.
<mgrwt>
<rscale>  1 0.30000000E+03</rscale>
<asrwt>0</asrwt>
<pdfrwt beam="1">  1        1 0.71873108E-01 0.30000000E+03</pdfrwt>
<pdfrwt beam="2">0</pdfrwt>
<totfact> 0.54396599E+01</totfact>
</mgrwt>
</event>
<event>
 6    1  0.3125838E-002  0.3000000E+03  0.7818608E-02  0.1093470E+00
          3   -1    0    0  502    0  0.00000000000E+00  0.00000000000E+00  0.18952059977E+01  0.18952059977E+01  0.00000000000E+00 0.  1.
         13   -1    0    0    0    0 -0.00000000000E+00 -0.00000000000E+00 -0.10000000000E+04  0.10000000000E+04  0.00000000000E+00 0.  1.
    9000005    2    1    2  501    0 -0.19606023406E+02 -0.34281280730E+02 -0.70865019077E+03  0.70975898829E+03  0.36230128998E+01 0.  0.
         13    1    3    3    0    0 -0.13991042958E+02 -0.21717605938E+02 -0.44310221003E+03  0.44385467467E+03  0.00000000000E+00 0.  1.
          1    1    3    3  501    0 -0.56149804486E+01 -0.12563674793E+02 -0.26554798073E+03  0.26590431362E+03  0.00000000000E+00 0.  1.
         21    1    1    2  502  501  0.19606023406E+02  0.34281280730E+02 -0.28945460323E+03  0.29213621771E+03  0.00000000000E+00 0.  1.
<mgrwt>
<rscale>  1 0.30000000E+03</rscale>
<asrwt>0</asrwt>
<pdfrwt beam="1">  1        3 0.68916727E-02 0.30000000E+03</pdfrwt>
<pdfrwt beam="2">0</pdfrwt>
<totfact> 0.60030776E+02</totfact>
</mgrwt>
</event>
<event>
 6    1  0.3125838E-002  0.3000000E+03  0.7818608E-02  0.1093470E+00
          1   -1    0    0  502    0  0.00000000000E+00  0.00000000000E+00  0.32882763937E+01  0.32882763937E+01  0.00000000000E+00 0.  1.
         13   -1    0    0    0    0 -0.00000000000E+00 -0.00000000000E+00 -0.10000000000E+04  0.10000000000E+04  0.00000000000E+00 0.  1.
    9000005    2    1    2  501    0  0.34061568567E+02  0.21798856332E+02 -0.85383261537E+03  0.85479645789E+03  0.33865572821E+01 0.  0.
         13    1    3    3    0    0  0.29457530957E+02  0.17737813460E+02 -0.73984907397E+03  0.74064770871E+03  0.00000000000E+00 0.  1.
          1    1    3    3  501    0  0.46040376097E+01  0.40610428720E+01 -0.11398354139E+03  0.11414874918E+03  0.00000000000E+00 0.  1.
         21    1    1    2  502  501 -0.34061568567E+02 -0.21798856332E+02 -0.14287910824E+03  0.14849181850E+03  0.00000000000E+00 0.  1.
<mgrwt>
<rscale>  1 0.30000000E+03</rscale>
<asrwt>0</asrwt>
<pdfrwt beam="1">  1        1 0.11957394E-01 0.30000000E+03</pdfrwt>
<pdfrwt beam="2">0</pdfrwt>
<totfact> 0.59104737E+02</totfact>
</mgrwt>
</event>
<event>
 6    1  0.3125838E-002  0.3000000E+03  0.7818608E-02  0.1093470E+00
          1   -1    0    0  502    0  0.00000000000E+00  0.00000000000E+00  0.11847046126E+01  0.11847046126E+01  0.00000000000E+00 0.  1.
         13   -1    0    0    0    0 -0.00000000000E+00 -0.00000000000E+00 -0.10000000000E+04  0.10000000000E+04  0.00000000000E+00 0.  1.
    9000005    2    1    2  501    0  0.31944604708E+02 -0.10691084726E+02 -0.40250883625E+03  0.40392751523E+03  0.30524148455E+01 0.  0.
         13    1    3    3    0    0  0.18993638692E+01  0.41586252387E-01 -0.26010327094E+02  0.26079617099E+02  0.00000000000E+00 0.  1.
          1    1    3    3  501    0  0.30045240839E+02 -0.10732670978E+02 -0.37649850916E+03  0.37784789813E+03  0.00000000000E+00 0.  1.
         21    1    1    2  502  501 -0.31944604708E+02  0.10691084726E+02 -0.59630645913E+03  0.59725718938E+03  0.00000000000E+00 0.  1.
<mgrwt>
<rscale>  1 0.30000000E+03</rscale>
<asrwt>0</asrwt>
<pdfrwt beam="1">  1        1 0.43080259E-02 0.30000000E+03</pdfrwt>
<pdfrwt beam="2">0</pdfrwt>
<totfact> 0.24528897E+03</totfact>
</mgrwt>
</event>
<event>
 6    1  0.3125838E-002  0.3000000E+03  0.7818608E-02  0.1093470E+00
          3   -1    0    0  502    0  0.00000000000E+00  0.00000000000E+00  0.14227193990E+01  0.14227193990E+01  0.00000000000E+00 0.  1.
         13   -1    0    0    0    0 -0.00000000000E+00 -0.00000000000E+00 -0.10000000000E+04  0.10000000000E+04  0.00000000000E+00 0.  1.
    9000005    2    1    2  501    0 -0.11522606055E+02  0.34758953741E+02 -0.38604945468E+03  0.38780126211E+03  0.38317256507E+01 0.  0.
         13    1    3    3    0    0 -0.11578979370E+02  0.34563238558E+02 -0.38541594782E+03  0.38713581991E+03  0.00000000000E+00 0.  1.
          1    1    3    3  501    0  0.56373315139E-01  0.19571518228E+00 -0.63350685804E+00  0.66544220066E+00  0.00000000000E+00 0.  1.
         21    1    1    2  502  501  0.11522606055E+02 -0.34758953741E+02 -0.61252782593E+03  0.61362145729E+03  0.00000000000E+00 0.  1.
<mgrwt>
<rscale>  1 0.30000000E+03</rscale>
<asrwt>0</asrwt>
<pdfrwt beam="1">  1        3 0.51735360E-02 0.30000000E+03</pdfrwt>
<pdfrwt beam="2">0</pdfrwt>
<totfact> 0.93861013E+02</totfact>
</mgrwt>
</event>
<event>
 6    1  0.3125838E-002  0.3000000E+03  0.7818608E-02  0.1093470E+00
          1   -1    0    0  502    0  0.00000000000E+00  0.00000000000E+00  0.16675226913E+01  0.16675226913E+01  0.00000000000E+00 0.  1.
         13   -1    0    0    0    0 -0.00000000000E+00 -0.00000000000E+00 -0.10000000000E+04  0.10000000000E+04  0.00000000000E+00 0.  1.
    9000005    2    1    2  501    0  0.20495444464E+02  0.24223799562E+02 -0.81394905709E+03  0.81457369232E+03  0.32213326202E+01 0.  0.
         13    1    3    3    0    0  0.84860456441E+01  0.11568130771E+02 -0.33541736531E+03  0.33572405867E+03  0.00000000000E+00 0.  1.
          1    1    3    3  501    0  0.12009398820E+02  0.12655668791E+02 -0.47853169178E+03  0.47884963365E+03  0.00000000000E+00 0.  1.
         21    1    1    2  502  501 -0.20495444464E+02 -0.24223799562E+02 -0.18438342022E+03  0.18709383037E+03  0.00000000000E+00 0.  1.
<mgrwt>
<rscale>  1 0.30000000E+03</rscale>
<asrwt>0</asrwt>
<pdfrwt beam="1">  1        1 0.60637317E-02 0.30000000E+03</pdfrwt>
<pdfrwt beam="2">0</pdfrwt>
<totfact> 0.15171916E+03</totfact>
</mgrwt>
</event>
<event>
 6    1  0.3125838E-002  0.3000000E+03  0.7818608E-02  0.1093470E+00
          1   -1    0    0  502    0  0.00000000000E+00  0.00000000000E+00  0.77116976405E+01  0.77116976405E+01  0.00000000000E+00 0.  1.
         13   -1    0    0    0    0 -0.00000000000E+00 -0.00000000000E+00 -0.10000000000E+04  0.10000000000E+04  0.00000000000E+00 0.  1.
    9000005    2    1    2  501    0  0.37877736240E+02  0.70819672602E+02 -0.69979826958E+03  0.70439574322E+03  0.23655930634E+01 0.  0.
         13    1    3    3    0    0  0.17151096807E+01  0.43675110925E+01 -0.41612923274E+02  0.41876629971E+02  0.00000000000E+00 0.  1.
          1    1    3    3  501    0  0.36162626559E+02  0.66452161510E+02 -0.65818534631E+03  0.66251911325E+03  0.00000000000E+00 0.  1.
         21    1    1    2  502  501 -0.37877736240E+02 -0.70819672602E+02 -0.29249003278E+03  0.30331595442E+03  0.00000000000E+00 0.  1.
<mgrwt>
<rscale>  1 0.30000000E+03</rscale>
<asrwt>0</asrwt>
<pdfrwt beam="1">  1        1 0.28042596E-01 0.30000000E+03</pdfrwt>
<pdfrwt beam="2">0</pdfrwt>
<totfact> 0.18817017E+02</totfact>
</mgrwt>
</event>
<event>
 6    1  0.3125838E-002  0.3000000E+03  0.7818608E-02  0.1093470E+00
          1   -1    0    0  502    0  0.00000000000E+00  0.00000000000E+00  0.44958562223E+01  0.44958562223E+01  0.00000000000E+00 0.  1.
         13   -1    0    0    0    0 -0.00000000000E+00 -0.00000000000E+00 -0.10000000000E+04  0.10000000000E+04  0.00000000000E+00 0.  1.
    9000005    2    1    2  501    0 -0.35184174634E+02 -0.34801670574E+02 -0.15962810856E+03  0.16715612310E+03  0.33096868331E+01 0.  0.
         13    1    3    3    0    0 -0.35243091438E+02 -0.34617509226E+02 -0.15913267885E+03  0.16662429870E+03  0.00000000000E+00 0.  1.
          1    1    3    3  501    0  0.58916804833E-01 -0.18416134754E+00 -0.49542970817E+00  0.53182439541E+00  0.00000000000E+00 0.  1.
         21    1    1    2  502  501  0.35184174634E+02  0.34801670574E+02 -0.83587603522E+03  0.83733973313E+03  0.00000000000E+00 0.  1.
<mgrwt>
<rscale>  1 0.30000000E+03</rscale>
<asrwt>0</asrwt>
<pdfrwt beam="1">  1        1 0.16348603E-01 0.30000000E+03</pdfrwt>
<pdfrwt beam="2">0</pdfrwt>
<totfact> 0.38604408E+02</totfact>
</mgrwt>
</event>
<event>
 6    1  0.3125838E-002  0.3000000E+03  0.7818608E-02  0.1093470E+00
          1   -1    0    0  502    0  0.00000000000E+00  0.00000000000E+00  0.32064428603E+01  0.32064428603E+01  0.00000000000E+00 0.  1.
         13   -1    0    0    0    0 -0.00000000000E+00 -0.00000000000E+00 -0.10000000000E+04  0.10000000000E+04  0.00000000000E+00 0.  1.
    9000005    2    1    2  501    0 -0.40798983323E+02 -0.14330135081E+02 -0.82193874181E+03  0.82308393939E+03  0.37371359819E+01 0.  0.
         13    1    3    3    0    0 -0.84195477845E+01 -0.19189337544E+01 -0.14353958505E+03  0.14379910837E+03  0.00000000000E+00 0.  1.
          1    1    3    3  501    0 -0.32379435539E+02 -0.12411201327E+02 -0.67839915677E+03  0.67928483103E+03  0.00000000000E+00 0.  1.
         21    1    1    2  502  501  0.40798983323E+02  0.14330135081E+02 -0.17485481533E+03  0.18012250347E+03  0.00000000000E+00 0.  1.
<mgrwt>
<rscale>  1 0.30000000E+03</rscale>
<asrwt>0</asrwt>
<pdfrwt beam="1">  1        1 0.11659817E-01 0.30000000E+03</pdfrwt>
<pdfrwt beam="2">0</pdfrwt>
<totfact> 0.61183000E+02</totfact>
</mgrwt>
</event>
<event>
 6    1  0.3125838E-002  0.3000000E+03  0.7818608E-02  0.1093470E+00
          1   -1    0    0  502    0  0.00000000000E+00  0.00000000000E+00  0.73403027664E+01  0.73403027664E+01  0.00000000000E+00 0.  1.
         13   -1    0    0    0    0 -0.00000000000E+00 -0.00000000000E+00 -0.10000000000E+04  0.10000000000E+04  0.00000000000E+00 0.  1.
    9000005    2    1    2  501    0 -0.73756124706E+02 -0.14516549983E+02 -0.73774820961E+03  0.74157619180E+03  0.34830026282E+01 0.  0.
         13    1    3    3    0    0 -0.10341543950E+02 -0.18452896962E+01 -0.91879630318E+02  0.92478208745E+02  0.00000000000E+00 0.  1.
          3    1    3    3  501    0 -0.63414580756E+02 -0.12671260287E+02 -0.64586857929E+03  0.64909798306E+03  0.00000000000E+00 0.  1.
         21    1    1    2  502  501  0.73756124706E+02  0.14516549983E+02 -0.25491148762E+03  0.26576411096E+03  0.00000000000E+00 0.  1.
<mgrwt>
<rscale>  1 0.30000000E+03</rscale>
<asrwt>0</asrwt>
<pdfrwt beam="1">  1        1 0.26692066E-01 0.30000000E+03</pdfrwt>
<pdfrwt beam="2">0</pdfrwt>
<totfact> 0.20080101E+02</totfact>
</mgrwt>
</event>
<event>
 6    1  0.3125838E-002  0.3000000E+03  0.7818608E-02  0.1093470E+00
          1   -1    0    0  502    0  0.00000000000E+00  0.00000000000E+00  0.10600141303E+01  0.10600141303E+01  0.00000000000E+00 0.  1.
         13   -1    0    0    0    0 -0.00000000000E+00 -0.00000000000E+00 -0.10000000000E+04  0.10000000000E+04  0.00000000000E+00 0.  1.
    9000005    2    1    2  501    0 -0.29483906051E+02  0.11668290190E+02 -0.39132945420E+03  0.39262266493E+03  0.28923306226E+01 0.  0.
         13    1    3    3    0    0 -0.28037118467E+02  0.11714877202E+02 -0.37514827992E+03  0.37637687268E+03  0.00000000000E+00 0.  1.
          1    1    3    3  501    0 -0.14467875838E+01 -0.46587011640E-01 -0.16181174285E+02  0.16245792252E+02  0.00000000000E+00 0.  1.
         21    1    1    2  502  501  0.29483906051E+02 -0.11668290190E+02 -0.60761053167E+03  0.60843734920E+03  0.00000000000E+00 0.  1.
<mgrwt>
<rscale>  1 0.30000000E+03</rscale>
<asrwt>0</asrwt>
<pdfrwt beam="1">  1        1 0.38546050E-02 0.30000000E+03</pdfrwt>
<pdfrwt beam="2">0</pdfrwt>
<totfact> 0.28686556E+03</totfact>
</mgrwt>
</event>
<event>
 6    1  0.3125838E-002  0.3000000E+03  0.7818608E-02  0.1093470E+00
          3   -1    0    0  502    0  0.00000000000E+00  0.00000000000E+00  0.23725821038E+01  0.23725821038E+01  0.00000000000E+00 0.  1.
         13   -1    0    0    0    0 -0.00000000000E+00 -0.00000000000E+00 -0.10000000000E+04  0.10000000000E+04  0.00000000000E+00 0.  1.
    9000005    2    1    2  501    0 -0.29610254116E+02  0.27213771781E+02 -0.78112272402E+03  0.78216441016E+03  0.33313670561E+01 0.  0.
         13    1    3    3    0    0 -0.12517874027E+02  0.13649386888E+02 -0.34870000476E+03  0.34919148937E+03  0.00000000000E+00 0.  1.
          3    1    3    3  501    0 -0.17092380089E+02  0.13564384893E+02 -0.43242271926E+03  0.43297292078E+03  0.00000000000E+00 0.  1.
         21    1    1    2  502  501  0.29610254116E+02 -0.27213771781E+02 -0.21650469387E+03  0.22020817195E+03  0.00000000000E+00 0.  1.
<mgrwt>
<rscale>  1 0.30000000E+03</rscale>
<asrwt>0</asrwt>
<pdfrwt beam="1">  1        3 0.86275895E-02 0.30000000E+03</pdfrwt>
<pdfrwt beam="2">0</pdfrwt>
<totfact> 0.41989512E+02</totfact>
</mgrwt>
</event>
<event>
 6    1  0.1959901E-001  0.3000000E+03  0.7818608E-02  0.1093470E+00
          1   -1    0    0  502    0  0.00000000000E+00  0.00000000000E+00  0.11020462297E+01  0.11020462297E+01  0.00000000000E+00 0.  1.
         13   -1    0    0    0    0 -0.00000000000E+00 -0.00000000000E+00 -0.10000000000E+04  0.10000000000E+04  0.00000000000E+00 0.  1.
    9000005    2    1    2  501    0 -0.30215814436E+02  0.51553394715E+00 -0.70496043380E+03  0.70561511443E+03  0.31961341275E+01 0.  0.
         13    1    3    3    0    0 -0.83071834220E+01  0.23288574637E+00 -0.16248922609E+03  0.16270160456E+03  0.00000000000E+00 0.  1.
          3    1    3    3  501    0 -0.21908631014E+02  0.28264820078E+00 -0.54247120771E+03  0.54291350987E+03  0.00000000000E+00 0.  1.
         21    1    1    2  502  501  0.30215814436E+02 -0.51553394715E+00 -0.29393751997E+03  0.29548693180E+03  0.00000000000E+00 0.  1.
<mgrwt>
<rscale>  1 0.30000000E+03</rscale>
<asrwt>0</asrwt>
<pdfrwt beam="1">  1        1 0.40074493E-02 0.30000000E+03</pdfrwt>
<pdfrwt beam="2">0</pdfrwt>
<totfact> 0.27158288E+03</totfact>
</mgrwt>
</event>
<event>
 6    1  0.3125838E-002  0.3000000E+03  0.7818608E-02  0.1093470E+00
          1   -1    0    0  502    0  0.00000000000E+00  0.00000000000E+00  0.76454838082E+01  0.76454838082E+01  0.00000000000E+00 0.  1.
         13   -1    0    0    0    0 -0.00000000000E+00 -0.00000000000E+00 -0.10000000000E+04  0.10000000000E+04  0.00000000000E+00 0.  1.
    9000005    2    1    2  501    0  0.32908628516E+02 -0.36558361114E+02 -0.91268176161E+03  0.91401194590E+03  0.32167807994E+01 0.  0.
         13    1    3    3    0    0  0.92886887797E+00 -0.19095488387E+01 -0.34536197724E+02  0.34601417997E+02  0.00000000000E+00 0.  1.
          3    1    3    3  501    0  0.31979759638E+02 -0.34648812275E+02 -0.87814556388E+03  0.87941052790E+03  0.00000000000E+00 0.  1.
         21    1    1    2  502  501 -0.32908628516E+02  0.36558361114E+02 -0.79672754583E+02  0.93633537907E+02  0.00000000000E+00 0.  1.
<mgrwt>
<rscale>  1 0.30000000E+03</rscale>
<asrwt>0</asrwt>
<pdfrwt beam="1">  1        1 0.27801818E-01 0.30000000E+03</pdfrwt>
<pdfrwt beam="2">0</pdfrwt>
<totfact> 0.19031597E+02</totfact>
</mgrwt>
</event>
<event>
 6    1  0.3125838E-002  0.3000000E+03  0.7818608E-02  0.1093470E+00
          1   -1    0    0  502    0  0.00000000000E+00  0.00000000000E+00  0.31456839496E+01  0.31456839496E+01  0.00000000000E+00 0.  1.
         13   -1    0    0    0    0 -0.00000000000E+00 -0.00000000000E+00 -0.10000000000E+04  0.10000000000E+04  0.00000000000E+00 0.  1.
    9000005    2    1    2  501    0  0.24916784110E+02 -0.33467245994E+02 -0.83340797206E+03  0.83445777671E+03  0.31671019935E+01 0.  0.
         13    1    3    3    0    0  0.15747539362E+02 -0.19893181766E+02 -0.47908831207E+03  0.47975966320E+03  0.00000000000E+00 0.  1.
          1    1    3    3  501    0  0.91692447482E+01 -0.13574064228E+02 -0.35431965999E+03  0.35469811351E+03  0.00000000000E+00 0.  1.
         21    1    1    2  502  501 -0.24916784110E+02  0.33467245994E+02 -0.16344634400E+03  0.16868790724E+03  0.00000000000E+00 0.  1.
<mgrwt>
<rscale>  1 0.30000000E+03</rscale>
<asrwt>0</asrwt>
<pdfrwt beam="1">  1        1 0.11438875E-01 0.30000000E+03</pdfrwt>
<pdfrwt beam="2">0</pdfrwt>
<totfact> 0.62810266E+02</totfact>
</mgrwt>
</event>
<event>
 6    1  0.3125838E-002  0.3000000E+03  0.7818608E-02  0.1093470E+00
          1   -1    0    0  502    0  0.00000000000E+00  0.00000000000E+00  0.14231849825E+01  0.14231849825E+01  0.00000000000E+00 0.  1.
         13   -1    0    0    0    0 -0.00000000000E+00 -0.00000000000E+00 -0.10000000000E+04  0.10000000000E+04  0.00000000000E+00 0.  1.
    9000005    2    1    2  501    0 -0.30977945912E+02 -0.20696683517E+02 -0.42872334685E+03  0.43035317086E+03  0.34867890494E+01 0.  0.
         13    1    3    3    0    0 -0.88719375734E+01 -0.41532178748E+01 -0.11705685186E+03  0.11746602514E+03  0.00000000000E+00 0.  1.
          3    1    3    3  501    0 -0.22106008339E+02 -0.16543465642E+02 -0.31166649499E+03  0.31288714572E+03  0.00000000000E+00 0.  1.
         21    1    1    2  502  501  0.30977945912E+02  0.20696683517E+02 -0.56985346817E+03  0.57107001412E+03  0.00000000000E+00 0.  1.
<mgrwt>
<rscale>  1 0.30000000E+03</rscale>
<asrwt>0</asrwt>
<pdfrwt beam="1">  1        1 0.51752290E-02 0.30000000E+03</pdfrwt>
<pdfrwt beam="2">0</pdfrwt>
<totfact> 0.18951657E+03</totfact>
</mgrwt>
</event>
<event>
 6    1  0.3125838E-002  0.3000000E+03  0.7818608E-02  0.1093470E+00
          1   -1    0    0  502    0  0.00000000000E+00  0.00000000000E+00  0.16953536424E+01  0.16953536424E+01  0.00000000000E+00 0.  1.
         13   -1    0    0    0    0 -0.00000000000E+00 -0.00000000000E+00 -0.10000000000E+04  0.10000000000E+04  0.00000000000E+00 0.  1.
    9000005    2    1    2  501    0  0.17743972930E+02  0.26501663756E+02 -0.81546509389E+03  0.81609500692E+03  0.32487240835E+01 0.  0.
         13    1    3    3    0    0  0.43766941520E+01  0.75505377121E+01 -0.25856586737E+03  0.25871311107E+03  0.00000000000E+00 0.  1.
          1    1    3    3  501    0  0.13367278778E+02  0.18951126044E+02 -0.55689922652E+03  0.55738189585E+03  0.00000000000E+00 0.  1.
         21    1    1    2  502  501 -0.17743972930E+02 -0.26501663756E+02 -0.18283955247E+03  0.18560034672E+03  0.00000000000E+00 0.  1.
<mgrwt>
<rscale>  1 0.30000000E+03</rscale>
<asrwt>0</asrwt>
<pdfrwt beam="1">  1        1 0.61649353E-02 0.30000000E+03</pdfrwt>
<pdfrwt beam="2">0</pdfrwt>
<totfact> 0.14823800E+03</totfact>
</mgrwt>
</event>
<event>
 6    1  0.3125838E-002  0.3000000E+03  0.7818608E-02  0.1093470E+00
          1   -1    0    0  502    0  0.00000000000E+00  0.00000000000E+00  0.38392913746E+01  0.38392913746E+01  0.00000000000E+00 0.  1.
         13   -1    0    0    0    0 -0.00000000000E+00 -0.00000000000E+00 -0.10000000000E+04  0.10000000000E+04  0.00000000000E+00 0.  1.
    9000005    2    1    2  501    0  0.45938670244E+02  0.11535290005E+02 -0.82149061999E+03  0.82286121480E+03  0.32118124424E+01 0.  0.
         13    1    3    3    0    0  0.37246529735E+02  0.10629576872E+02 -0.67207222089E+03  0.67318746421E+03  0.00000000000E+00 0.  1.
          1    1    3    3  501    0  0.86921405094E+01  0.90571313292E+00 -0.14941839910E+03  0.14967375058E+03  0.00000000000E+00 0.  1.
         21    1    1    2  502  501 -0.45938670244E+02 -0.11535290005E+02 -0.17467008863E+03  0.18097807658E+03  0.00000000000E+00 0.  1.
<mgrwt>
<rscale>  1 0.30000000E+03</rscale>
<asrwt>0</asrwt>
<pdfrwt beam="1">  1        1 0.13961089E-01 0.30000000E+03</pdfrwt>
<pdfrwt beam="2">0</pdfrwt>
<totfact> 0.47827192E+02</totfact>
</mgrwt>
</event>
<event>
 6    1  0.3125838E-002  0.3000000E+03  0.7818608E-02  0.1093470E+00
          1   -1    0    0  502    0  0.00000000000E+00  0.00000000000E+00  0.31119166238E+02  0.31119166238E+02  0.00000000000E+00 0.  1.
         13   -1    0    0    0    0 -0.00000000000E+00 -0.00000000000E+00 -0.10000000000E+04  0.10000000000E+04  0.00000000000E+00 0.  1.
    9000005    2    1    2  501    0 -0.76117326830E+02 -0.30506542612E+02 -0.94090081770E+03  0.94447404009E+03  0.35166853179E+01 0.  0.
         13    1    3    3    0    0 -0.32806920868E+02 -0.13144716374E+02 -0.42567569643E+03  0.42714034714E+03  0.00000000000E+00 0.  1.
          1    1    3    3  501    0 -0.43310405962E+02 -0.17361826238E+02 -0.51522512127E+03  0.51733369295E+03  0.00000000000E+00 0.  1.
         21    1    1    2  502  501  0.76117326830E+02  0.30506542612E+02 -0.27980016062E+02  0.86645126145E+02  0.00000000000E+00 0.  1.
<mgrwt>
<rscale>  1 0.30000000E+03</rscale>
<asrwt>0</asrwt>
<pdfrwt beam="1">  1        1 0.11316084E+00 0.30000000E+03</pdfrwt>
<pdfrwt beam="2">0</pdfrwt>
<totfact> 0.28459414E+01</totfact>
</mgrwt>
</event>
<event>
 6    1  0.3125838E-002  0.3000000E+03  0.7818608E-02  0.1093470E+00
          1   -1    0    0  502    0  0.00000000000E+00  0.00000000000E+00  0.10981017053E+02  0.10981017053E+02  0.00000000000E+00 0.  1.
         13   -1    0    0    0    0 -0.00000000000E+00 -0.00000000000E+00 -0.10000000000E+04  0.10000000000E+04  0.00000000000E+00 0.  1.
    9000005    2    1    2  501    0  0.33251488901E+02  0.41192923794E+02 -0.93072284405E+03  0.93223485337E+03  0.37803320202E+01 0.  0.
         13    1    3    3    0    0  0.10039949614E+02  0.10005639120E+02 -0.26078920597E+03  0.26117412458E+03  0.00000000000E+00 0.  1.
          3    1    3    3  501    0  0.23211539287E+02  0.31187284674E+02 -0.66993363809E+03  0.67106072879E+03  0.00000000000E+00 0.  1.
         21    1    1    2  502  501 -0.33251488901E+02 -0.41192923794E+02 -0.58296138894E+02  0.78746163683E+02  0.00000000000E+00 0.  1.
<mgrwt>
<rscale>  1 0.30000000E+03</rscale>
<asrwt>0</asrwt>
<pdfrwt beam="1">  1        1 0.39931055E-01 0.30000000E+03</pdfrwt>
<pdfrwt beam="2">0</pdfrwt>
<totfact> 0.11847276E+02</totfact>
</mgrwt>
</event>
<event>
 6    1  0.3125838E-002  0.3000000E+03  0.7818608E-02  0.1093470E+00
          3   -1    0    0  502    0  0.00000000000E+00  0.00000000000E+00  0.31214497047E+01  0.31214497047E+01  0.00000000000E+00 0.  1.
         13   -1    0    0    0    0 -0.00000000000E+00 -0.00000000000E+00 -0.10000000000E+04  0.10000000000E+04  0.00000000000E+00 0.  1.
    9000005    2    1    2  501    0 -0.32363602263E+02  0.76727766078E+01 -0.90132169740E+03  0.90194147941E+03  0.33698421041E+01 0.  0.
         13    1    3    3    0    0 -0.89790041516E+01  0.22740592536E+01 -0.29362483746E+03  0.29377089548E+03  0.00000000000E+00 0.  1.
          3    1    3    3  501    0 -0.23384598111E+02  0.53987173542E+01 -0.60769685994E+03  0.60817058393E+03  0.00000000000E+00 0.  1.
         21    1    1    2  502  501  0.32363602263E+02 -0.76727766078E+01 -0.95556852897E+02  0.10117997029E+03  0.00000000000E+00 0.  1.
<mgrwt>
<rscale>  1 0.30000000E+03</rscale>
<asrwt>0</asrwt>
<pdfrwt beam="1">  1        3 0.11350750E-01 0.30000000E+03</pdfrwt>
<pdfrwt beam="2">0</pdfrwt>
<totfact> 0.26750254E+02</totfact>
</mgrwt>
</event>
<event>
 6    1  0.3125838E-002  0.3000000E+03  0.7818608E-02  0.1093470E+00
          3   -1    0    0  502    0  0.00000000000E+00  0.00000000000E+00  0.14229708063E+01  0.14229708063E+01  0.00000000000E+00 0.  1.
         13   -1    0    0    0    0 -0.00000000000E+00 -0.00000000000E+00 -0.10000000000E+04  0.10000000000E+04  0.00000000000E+00 0.  1.
    9000005    2    1    2  501    0  0.35545924056E+02  0.11712886216E+02 -0.44488159763E+03  0.44646411165E+03  0.31404875428E+01 0.  0.
         13    1    3    3    0    0  0.17338449488E+02  0.73467562229E+01 -0.22595500695E+03  0.22673831132E+03  0.00000000000E+00 0.  1.
          3    1    3    3  501    0  0.18207474567E+02  0.43661299930E+01 -0.21892659069E+03  0.21972580033E+03  0.00000000000E+00 0.  1.
         21    1    1    2  502  501 -0.35545924056E+02 -0.11712886216E+02 -0.55369543156E+03  0.55495885915E+03  0.00000000000E+00 0.  1.
<mgrwt>
<rscale>  1 0.30000000E+03</rscale>
<asrwt>0</asrwt>
<pdfrwt beam="1">  1        3 0.51744502E-02 0.30000000E+03</pdfrwt>
<pdfrwt beam="2">0</pdfrwt>
<totfact> 0.93835389E+02</totfact>
</mgrwt>
</event>
<event>
 6    1  0.3125838E-002  0.3000000E+03  0.7818608E-02  0.1093470E+00
          1   -1    0    0  502    0  0.00000000000E+00  0.00000000000E+00  0.51345394417E+01  0.51345394417E+01  0.00000000000E+00 0.  1.
         13   -1    0    0    0    0 -0.00000000000E+00 -0.00000000000E+00 -0.10000000000E+04  0.10000000000E+04  0.00000000000E+00 0.  1.
    9000005    2    1    2  501    0  0.44893311523E+02 -0.52936770558E+02 -0.37406741005E+03  0.38046828406E+03  0.34607539691E+01 0.  0.
         13    1    3    3    0    0  0.33872741776E+02 -0.39621924978E+02 -0.27257503737E+03  0.27751470334E+03  0.00000000000E+00 0.  1.
          3    1    3    3  501    0  0.11020569747E+02 -0.13314845580E+02 -0.10149237267E+03  0.10295358071E+03  0.00000000000E+00 0.  1.
         21    1    1    2  502  501 -0.44893311523E+02  0.52936770558E+02 -0.62079805051E+03  0.62466625539E+03  0.00000000000E+00 0.  1.
<mgrwt>
<rscale>  1 0.30000000E+03</rscale>
<asrwt>0</asrwt>
<pdfrwt beam="1">  1        1 0.18671092E-01 0.30000000E+03</pdfrwt>
<pdfrwt beam="2">0</pdfrwt>
<totfact> 0.32282026E+02</totfact>
</mgrwt>
</event>
<event>
 6    1  0.3125838E-002  0.3000000E+03  0.7818608E-02  0.1093470E+00
          1   -1    0    0  502    0  0.00000000000E+00  0.00000000000E+00  0.73546931409E+02  0.73546931409E+02  0.00000000000E+00 0.  1.
         13   -1    0    0    0    0 -0.00000000000E+00 -0.00000000000E+00 -0.10000000000E+04  0.10000000000E+04  0.00000000000E+00 0.  1.
    9000005    2    1    2  501    0  0.15428158012E+03  0.11003269868E+03 -0.84720151935E+03  0.86814291782E+03  0.34220780583E+01 0.  0.
         13    1    3    3    0    0  0.73283986378E+02  0.52061473926E+02 -0.40968891103E+03  0.41943526741E+03  0.00000000000E+00 0.  1.
          3    1    3    3  501    0  0.80997593746E+02  0.57971224750E+02 -0.43751260832E+03  0.44870765040E+03  0.00000000000E+00 0.  1.
         21    1    1    2  502  501 -0.15428158012E+03 -0.11003269868E+03 -0.79251549238E+02  0.20540401359E+03  0.00000000000E+00 0.  1.
<mgrwt>
<rscale>  1 0.30000000E+03</rscale>
<asrwt>0</asrwt>
<pdfrwt beam="1">  1        1 0.26744395E+00 0.30000000E+03</pdfrwt>
<pdfrwt beam="2">0</pdfrwt>
<totfact> 0.49429130E+00</totfact>
</mgrwt>
</event>
<event>
 6    1  0.3125838E-002  0.3000000E+03  0.7818608E-02  0.1093470E+00
          1   -1    0    0  502    0  0.00000000000E+00  0.00000000000E+00  0.73843778085E+01  0.73843778085E+01  0.00000000000E+00 0.  1.
         13   -1    0    0    0    0 -0.00000000000E+00 -0.00000000000E+00 -0.10000000000E+04  0.10000000000E+04  0.00000000000E+00 0.  1.
    9000005    2    1    2  501    0 -0.27514165446E+02 -0.14082801535E+02 -0.96626888235E+03  0.96677027558E+03  0.37226541505E+01 0.  0.
         13    1    3    3    0    0 -0.44702499113E+01 -0.21861876852E+01 -0.20287279308E+03  0.20293381365E+03  0.00000000000E+00 0.  1.
          1    1    3    3  501    0 -0.23043915535E+02 -0.11896613850E+02 -0.76339608927E+03  0.76383646193E+03  0.00000000000E+00 0.  1.
         21    1    1    2  502  501  0.27514165446E+02  0.14082801535E+02 -0.26346739840E+02  0.40614102224E+02  0.00000000000E+00 0.  1.
<mgrwt>
<rscale>  1 0.30000000E+03</rscale>
<asrwt>0</asrwt>
<pdfrwt beam="1">  1        1 0.26852340E-01 0.30000000E+03</pdfrwt>
<pdfrwt beam="2">0</pdfrwt>
<totfact> 0.19922317E+02</totfact>
</mgrwt>
</event>
<event>
 6    1  0.3125838E-002  0.3000000E+03  0.7818608E-02  0.1093470E+00
          1   -1    0    0  502    0  0.00000000000E+00  0.00000000000E+00  0.67901212402E+01  0.67901212402E+01  0.00000000000E+00 0.  1.
         13   -1    0    0    0    0 -0.00000000000E+00 -0.00000000000E+00 -0.10000000000E+04  0.10000000000E+04  0.00000000000E+00 0.  1.
    9000005    2    1    2  501    0  0.49042444586E+02 -0.18066119980E+02 -0.88574521453E+03  0.88729032994E+03  0.28281593727E+01 0.  0.
         13    1    3    3    0    0  0.25428586180E+02 -0.79322347334E+01 -0.45813334478E+03  0.45890706569E+03  0.00000000000E+00 0.  1.
          1    1    3    3  501    0  0.23613858406E+02 -0.10133885246E+02 -0.42761186975E+03  0.42838326425E+03  0.00000000000E+00 0.  1.
         21    1    1    2  502  501 -0.49042444586E+02  0.18066119980E+02 -0.10746466423E+03  0.11949979130E+03  0.00000000000E+00 0.  1.
<mgrwt>
<rscale>  1 0.30000000E+03</rscale>
<asrwt>0</asrwt>
<pdfrwt beam="1">  1        1 0.24691402E-01 0.30000000E+03</pdfrwt>
<pdfrwt beam="2">0</pdfrwt>
<totfact> 0.22255877E+02</totfact>
</mgrwt>
</event>
<event>
 6    1  0.3125838E-002  0.3000000E+03  0.7818608E-02  0.1093470E+00
          1   -1    0    0  502    0  0.00000000000E+00  0.00000000000E+00  0.21344131324E+01  0.21344131324E+01  0.00000000000E+00 0.  1.
         13   -1    0    0    0    0 -0.00000000000E+00 -0.00000000000E+00 -0.10000000000E+04  0.10000000000E+04  0.00000000000E+00 0.  1.
    9000005    2    1    2  501    0 -0.20832165983E+02 -0.21854363411E+02 -0.87793618404E+03  0.87846285617E+03  0.36679802655E+01 0.  0.
         13    1    3    3    0    0 -0.25726040812E+01 -0.44569649808E+01 -0.16818018316E+03  0.16825889824E+03  0.00000000000E+00 0.  1.
          3    1    3    3  501    0 -0.18259561902E+02 -0.17397398430E+02 -0.70975600088E+03  0.71020395793E+03  0.00000000000E+00 0.  1.
         21    1    1    2  502  501  0.20832165983E+02  0.21854363411E+02 -0.11992940283E+03  0.12367155697E+03  0.00000000000E+00 0.  1.
<mgrwt>
<rscale>  1 0.30000000E+03</rscale>
<asrwt>0</asrwt>
<pdfrwt beam="1">  1        1 0.77615187E-02 0.30000000E+03</pdfrwt>
<pdfrwt beam="2">0</pdfrwt>
<totfact> 0.10741893E+03</totfact>
</mgrwt>
</event>
<event>
 6    1  0.3125838E-002  0.3000000E+03  0.7818608E-02  0.1093470E+00
          1   -1    0    0  502    0  0.00000000000E+00  0.00000000000E+00  0.16096146438E+02  0.16096146438E+02  0.00000000000E+00 0.  1.
         13   -1    0    0    0    0 -0.00000000000E+00 -0.00000000000E+00 -0.10000000000E+04  0.10000000000E+04  0.00000000000E+00 0.  1.
    9000005    2    1    2  501    0  0.21893777592E+02 -0.83494546626E+02 -0.86425521018E+03  0.86856149059E+03  0.33641934724E+01 0.  0.
         13    1    3    3    0    0  0.11724915003E+02 -0.49853105594E+02 -0.50226994728E+03  0.50487414838E+03  0.00000000000E+00 0.  1.
          1    1    3    3  501    0  0.10168862588E+02 -0.33641441032E+02 -0.36198526290E+03  0.36368734220E+03  0.00000000000E+00 0.  1.
         21    1    1    2  502  501 -0.21893777592E+02  0.83494546626E+02 -0.11964864338E+03  0.14753465585E+03  0.00000000000E+00 0.  1.
<mgrwt>
<rscale>  1 0.30000000E+03</rscale>
<asrwt>0</asrwt>
<pdfrwt beam="1">  1        1 0.58531565E-01 0.30000000E+03</pdfrwt>
<pdfrwt beam="2">0</pdfrwt>
<totfact> 0.71664080E+01</totfact>
</mgrwt>
</event>
<event>
 6    1  0.3125838E-002  0.3000000E+03  0.7818608E-02  0.1093470E+00
          1   -1    0    0  502    0  0.00000000000E+00  0.00000000000E+00  0.18503732192E+01  0.18503732192E+01  0.00000000000E+00 0.  1.
         13   -1    0    0    0    0 -0.00000000000E+00 -0.00000000000E+00 -0.10000000000E+04  0.10000000000E+04  0.00000000000E+00 0.  1.
    9000005    2    1    2  501    0  0.12333754817E+02 -0.27947712978E+02 -0.85138032262E+03  0.85193564809E+03  0.35635042991E+01 0.  0.
         13    1    3    3    0    0  0.54146771660E+01 -0.83611162270E+01 -0.29100547987E+03  0.29117591986E+03  0.00000000000E+00 0.  1.
          1    1    3    3  501    0  0.69190776505E+01 -0.19586596751E+02 -0.56037484275E+03  0.56075972822E+03  0.00000000000E+00 0.  1.
         21    1    1    2  502  501 -0.12333754817E+02  0.27947712978E+02 -0.14676930416E+03  0.14991472513E+03  0.00000000000E+00 0.  1.
<mgrwt>
<rscale>  1 0.30000000E+03</rscale>
<asrwt>0</asrwt>
<pdfrwt beam="1">  1        1 0.67286441E-02 0.30000000E+03</pdfrwt>
<pdfrwt beam="2">0</pdfrwt>
<totfact> 0.13113743E+03</totfact>
</mgrwt>
</event>
<event>
 6    1  0.3125838E-002  0.3000000E+03  0.7818608E-02  0.1093470E+00
          1   -1    0    0  502    0  0.00000000000E+00  0.00000000000E+00  0.19419213256E+01  0.19419213256E+01  0.00000000000E+00 0.  1.
         13   -1    0    0    0    0 -0.00000000000E+00 -0.00000000000E+00 -0.10000000000E+04  0.10000000000E+04  0.00000000000E+00 0.  1.
    9000005    2    1    2  501    0  0.12961187168E+02  0.29590576738E+02 -0.83945543602E+03  0.84008274530E+03  0.31615335734E+01 0.  0.
         13    1    3    3    0    0  0.31452908920E+01  0.43530116361E+01 -0.14658733720E+03  0.14668568093E+03  0.00000000000E+00 0.  1.
          1    1    3    3  501    0  0.98158962755E+01  0.25237565102E+02 -0.69286809882E+03  0.69339706437E+03  0.00000000000E+00 0.  1.
         21    1    1    2  502  501 -0.12961187168E+02 -0.29590576738E+02 -0.15860264266E+03  0.16185917602E+03  0.00000000000E+00 0.  1.
<mgrwt>
<rscale>  1 0.30000000E+03</rscale>
<asrwt>0</asrwt>
<pdfrwt beam="1">  1        1 0.70615470E-02 0.30000000E+03</pdfrwt>
<pdfrwt beam="2">0</pdfrwt>
<totfact> 0.12257169E+03</totfact>
</mgrwt>
</event>
<event>
 6    1  0.3125838E-002  0.3000000E+03  0.7818608E-02  0.1093470E+00
          1   -1    0    0  502    0  0.00000000000E+00  0.00000000000E+00  0.12195418836E+01  0.12195418836E+01  0.00000000000E+00 0.  1.
         13   -1    0    0    0    0 -0.00000000000E+00 -0.00000000000E+00 -0.10000000000E+04  0.10000000000E+04  0.00000000000E+00 0.  1.
    9000005    2    1    2  501    0 -0.32287028680E+02  0.14646470879E+01 -0.68581927531E+03  0.68659389233E+03  0.43008358763E+01 0.  0.
         13    1    3    3    0    0 -0.26099456190E+02 -0.40838955253E+00 -0.56236496613E+03  0.56297042864E+03  0.00000000000E+00 0.  1.
          1    1    3    3  501    0 -0.61875724898E+01  0.18730366404E+01 -0.12345430918E+03  0.12362346369E+03  0.00000000000E+00 0.  1.
         21    1    1    2  502  501  0.32287028680E+02 -0.14646470879E+01 -0.31296118281E+03  0.31462564956E+03  0.00000000000E+00 0.  1.
<mgrwt>
<rscale>  1 0.30000000E+03</rscale>
<asrwt>0</asrwt>
<pdfrwt beam="1">  1        1 0.44347071E-02 0.30000000E+03</pdfrwt>
<pdfrwt beam="2">0</pdfrwt>
<totfact> 0.23548308E+03</totfact>
</mgrwt>
</event>
<event>
 6    1  0.3125838E-002  0.3000000E+03  0.7818608E-02  0.1093470E+00
          1   -1    0    0  502    0  0.00000000000E+00  0.00000000000E+00  0.58452368062E+01  0.58452368062E+01  0.00000000000E+00 0.  1.
         13   -1    0    0    0    0 -0.00000000000E+00 -0.00000000000E+00 -0.10000000000E+04  0.10000000000E+04  0.00000000000E+00 0.  1.
    9000005    2    1    2  501    0  0.23233814071E+02  0.35764942700E+02 -0.91416806623E+03  0.91519859906E+03  0.81413250425E+01 0.  0.
         13    1    3    3    0    0  0.42273274520E+01  0.26196135790E+01 -0.78348934316E+02  0.78506612340E+02  0.00000000000E+00 0.  1.
          1    1    3    3  501    0  0.19006486619E+02  0.33145329121E+02 -0.83581913191E+03  0.83669198672E+03  0.00000000000E+00 0.  1.
         21    1    1    2  502  501 -0.23233814071E+02 -0.35764942700E+02 -0.79986696965E+02  0.90646637742E+02  0.00000000000E+00 0.  1.
<mgrwt>
<rscale>  1 0.30000000E+03</rscale>
<asrwt>0</asrwt>
<pdfrwt beam="1">  1        1 0.21255451E-01 0.30000000E+03</pdfrwt>
<pdfrwt beam="2">0</pdfrwt>
<totfact> 0.27144849E+02</totfact>
</mgrwt>
</event>
<event>
 6    1  0.3125838E-002  0.3000000E+03  0.7818608E-02  0.1093470E+00
          1   -1    0    0  502    0  0.00000000000E+00  0.00000000000E+00  0.16452009520E+01  0.16452009520E+01  0.00000000000E+00 0.  1.
         13   -1    0    0    0    0 -0.00000000000E+00 -0.00000000000E+00 -0.10000000000E+04  0.10000000000E+04  0.00000000000E+00 0.  1.
    9000005    2    1    2  501    0 -0.19666477085E+02  0.30497882014E+02 -0.72190408805E+03  0.72282287986E+03  0.32422486221E+01 0.  0.
         13    1    3    3    0    0 -0.10805018169E+02  0.16068842550E+02 -0.35371611724E+03  0.35424574481E+03  0.00000000000E+00 0.  1.
          1    1    3    3  501    0 -0.88614589161E+01  0.14429039464E+02 -0.36818797081E+03  0.36857713505E+03  0.00000000000E+00 0.  1.
         21    1    1    2  502  501  0.19666477085E+02 -0.30497882014E+02 -0.27645071100E+03  0.27882232109E+03  0.00000000000E+00 0.  1.
<mgrwt>
<rscale>  1 0.30000000E+03</rscale>
<asrwt>0</asrwt>
<pdfrwt beam="1">  1        1 0.59825615E-02 0.30000000E+03</pdfrwt>
<pdfrwt beam="2">0</pdfrwt>
<totfact> 0.15461457E+03</totfact>
</mgrwt>
</event>
<event>
 6    1  0.3125838E-002  0.3000000E+03  0.7818608E-02  0.1093470E+00
          3   -1    0    0  502    0  0.00000000000E+00  0.00000000000E+00  0.22168092520E+01  0.22168092520E+01  0.00000000000E+00 0.  1.
         13   -1    0    0    0    0 -0.00000000000E+00 -0.00000000000E+00 -0.10000000000E+04  0.10000000000E+04  0.00000000000E+00 0.  1.
    9000005    2    1    2  501    0  0.43091870003E+02  0.14553639747E+02 -0.62659199281E+03  0.62824940009E+03  0.33264947031E+01 0.  0.
         13    1    3    3    0    0  0.68456883543E+01  0.34100635669E+01 -0.96144339873E+02  0.96448048566E+02  0.00000000000E+00 0.  1.
          1    1    3    3  501    0  0.36246181649E+02  0.11143576180E+02 -0.53044765294E+03  0.53180135152E+03  0.00000000000E+00 0.  1.
         21    1    1    2  502  501 -0.43091870003E+02 -0.14553639747E+02 -0.37119119794E+03  0.37396740917E+03  0.00000000000E+00 0.  1.
<mgrwt>
<rscale>  1 0.30000000E+03</rscale>
<asrwt>0</asrwt>
<pdfrwt beam="1">  1        3 0.80611416E-02 0.30000000E+03</pdfrwt>
<pdfrwt beam="2">0</pdfrwt>
<totfact> 0.46818563E+02</totfact>
</mgrwt>
</event>
<event>
 6    1  0.3125838E-002  0.3000000E+03  0.7818608E-02  0.1093470E+00
          1   -1    0    0  502    0  0.00000000000E+00  0.00000000000E+00  0.53619382499E+01  0.53619382499E+01  0.00000000000E+00 0.  1.
         13   -1    0    0    0    0 -0.00000000000E+00 -0.00000000000E+00 -0.10000000000E+04  0.10000000000E+04  0.00000000000E+00 0.  1.
    9000005    2    1    2  501    0  0.37293685639E+02 -0.27584034123E+02 -0.88619817636E+03  0.88741743151E+03  0.32851231283E+01 0.  0.
         13    1    3    3    0    0  0.15307240251E+02 -0.11348260188E+02 -0.39527738353E+03  0.39573640791E+03  0.00000000000E+00 0.  1.
          3    1    3    3  501    0  0.21986445388E+02 -0.16235773935E+02 -0.49092079283E+03  0.49168102361E+03  0.00000000000E+00 0.  1.
         21    1    1    2  502  501 -0.37293685639E+02  0.27584034123E+02 -0.10843988539E+03  0.11794450674E+03  0.00000000000E+00 0.  1.
<mgrwt>
<rscale>  1 0.30000000E+03</rscale>
<asrwt>0</asrwt>
<pdfrwt beam="1">  1        1 0.19497998E-01 0.30000000E+03</pdfrwt>
<pdfrwt beam="2">0</pdfrwt>
<totfact> 0.30460407E+02</totfact>
</mgrwt>
</event>
<event>
 6    1  0.3125838E-002  0.3000000E+03  0.7818608E-02  0.1093470E+00
          3   -1    0    0  502    0  0.00000000000E+00  0.00000000000E+00  0.29712290838E+01  0.29712290838E+01  0.00000000000E+00 0.  1.
         13   -1    0    0    0    0 -0.00000000000E+00 -0.00000000000E+00 -0.10000000000E+04  0.10000000000E+04  0.00000000000E+00 0.  1.
    9000005    2    1    2  501    0  0.44364371237E+01  0.40293268813E+02 -0.83354915184E+03  0.83454078249E+03  0.33014575583E+01 0.  0.
         13    1    3    3    0    0  0.37492611935E+01  0.24199846567E+02 -0.47781976739E+03  0.47844688278E+03  0.00000000000E+00 0.  1.
          3    1    3    3  501    0  0.68717593014E+00  0.16093422246E+02 -0.35572938446E+03  0.35609389972E+03  0.00000000000E+00 0.  1.
         21    1    1    2  502  501 -0.44364371237E+01 -0.40293268813E+02 -0.16347961908E+03  0.16843044659E+03  0.00000000000E+00 0.  1.
<mgrwt>
<rscale>  1 0.30000000E+03</rscale>
<asrwt>0</asrwt>
<pdfrwt beam="1">  1        3 0.10804492E-01 0.30000000E+03</pdfrwt>
<pdfrwt beam="2">0</pdfrwt>
<totfact> 0.29049635E+02</totfact>
</mgrwt>
</event>
<event>
 6    1  0.3125838E-002  0.3000000E+03  0.7818608E-02  0.1093470E+00
          1   -1    0    0  502    0  0.00000000000E+00  0.00000000000E+00  0.10307393542E+01  0.10307393542E+01  0.00000000000E+00 0.  1.
         13   -1    0    0    0    0 -0.00000000000E+00 -0.00000000000E+00 -0.10000000000E+04  0.10000000000E+04  0.00000000000E+00 0.  1.
    9000005    2    1    2  501    0  0.73706493751E+01 -0.29362769354E+02 -0.65774771222E+03  0.65846885617E+03  0.57168983666E+01 0.  0.
         13    1    3    3    0    0 -0.37049782034E+00 -0.75972617912E+01 -0.18707962716E+03  0.18723419173E+03  0.00000000000E+00 0.  1.
          3    1    3    3  501    0  0.77411471954E+01 -0.21765507563E+02 -0.47066808506E+03  0.47123466444E+03  0.00000000000E+00 0.  1.
         21    1    1    2  502  501 -0.73706493751E+01  0.29362769354E+02 -0.34122154843E+03  0.34256188318E+03  0.00000000000E+00 0.  1.
<mgrwt>
<rscale>  1 0.30000000E+03</rscale>
<asrwt>0</asrwt>
<pdfrwt beam="1">  1        1 0.37481510E-02 0.30000000E+03</pdfrwt>
<pdfrwt beam="2">0</pdfrwt>
<totfact> 0.29839973E+03</totfact>
</mgrwt>
</event>
<event>
 6    1  0.3125838E-002  0.3000000E+03  0.7818608E-02  0.1093470E+00
          1   -1    0    0  502    0  0.00000000000E+00  0.00000000000E+00  0.13119423822E+01  0.13119423822E+01  0.00000000000E+00 0.  1.
         13   -1    0    0    0    0 -0.00000000000E+00 -0.00000000000E+00 -0.10000000000E+04  0.10000000000E+04  0.00000000000E+00 0.  1.
    9000005    2    1    2  501    0  0.15831642148E+02 -0.32260114989E+02 -0.55683476527E+03  0.55799976358E+03  0.27247815055E+01 0.  0.
         13    1    3    3    0    0  0.14705819527E+01 -0.30958058479E+01 -0.41951266091E+02  0.42091036478E+02  0.00000000000E+00 0.  1.
          1    1    3    3  501    0  0.14361060196E+02 -0.29164309141E+02 -0.51488349918E+03  0.51590872710E+03  0.00000000000E+00 0.  1.
         21    1    1    2  502  501 -0.15831642148E+02  0.32260114989E+02 -0.44185329235E+03  0.44331217880E+03  0.00000000000E+00 0.  1.
<mgrwt>
<rscale>  1 0.30000000E+03</rscale>
<asrwt>0</asrwt>
<pdfrwt beam="1">  1        1 0.47707096E-02 0.30000000E+03</pdfrwt>
<pdfrwt beam="2">0</pdfrwt>
<totfact> 0.21248725E+03</totfact>
</mgrwt>
</event>
<event>
 6    1  0.3125838E-002  0.3000000E+03  0.7818608E-02  0.1093470E+00
          3   -1    0    0  502    0  0.00000000000E+00  0.00000000000E+00  0.16937048332E+01  0.16937048332E+01  0.00000000000E+00 0.  1.
         13   -1    0    0    0    0 -0.00000000000E+00 -0.00000000000E+00 -0.10000000000E+04  0.10000000000E+04  0.00000000000E+00 0.  1.
    9000005    2    1    2  501    0  0.34116178214E+02 -0.15536876952E+02 -0.70515995623E+03  0.70616014634E+03  0.25060431988E+01 0.  0.
         13    1    3    3    0    0  0.11462632655E+01 -0.95237159449E+00 -0.33950316166E+02  0.33983008973E+02  0.00000000000E+00 0.  1.
          1    1    3    3  501    0  0.32969914949E+02 -0.14584505357E+02 -0.67120964006E+03  0.67217713737E+03  0.00000000000E+00 0.  1.
         21    1    1    2  502  501 -0.34116178214E+02  0.15536876952E+02 -0.29314633894E+03  0.29553355849E+03  0.00000000000E+00 0.  1.
<mgrwt>
<rscale>  1 0.30000000E+03</rscale>
<asrwt>0</asrwt>
<pdfrwt beam="1">  1        3 0.61589397E-02 0.30000000E+03</pdfrwt>
<pdfrwt beam="2">0</pdfrwt>
<totfact> 0.71589482E+02</totfact>
</mgrwt>
</event>
<event>
 6    1  0.5457193E-002  0.3000000E+03  0.7818608E-02  0.1093470E+00
          1   -1    0    0  502    0  0.00000000000E+00  0.00000000000E+00  0.78937188101E+01  0.78937188101E+01  0.00000000000E+00 0.  1.
         13   -1    0    0    0    0 -0.00000000000E+00 -0.00000000000E+00 -0.10000000000E+04  0.10000000000E+04  0.00000000000E+00 0.  1.
    9000005    2    1    2  501    0 -0.64813280790E+02  0.55222563001E+00 -0.83975359559E+03  0.84232679237E+03  0.11280847740E+02 0.  0.
         13    1    3    3    0    0 -0.15437632775E+02  0.10117415015E+01 -0.26741602710E+03  0.26786316596E+03  0.00000000000E+00 0.  1.
          3    1    3    3  501    0 -0.49375648015E+02 -0.45951587153E+00 -0.57233756849E+03  0.57446362642E+03  0.00000000000E+00 0.  1.
         21    1    1    2  502  501  0.64813280790E+02 -0.55222563001E+00 -0.15235268560E+03  0.16556692644E+03  0.00000000000E+00 0.  1.
<mgrwt>
<rscale>  1 0.30000000E+03</rscale>
<asrwt>0</asrwt>
<pdfrwt beam="1">  1        1 0.28704493E-01 0.30000000E+03</pdfrwt>
<pdfrwt beam="2">0</pdfrwt>
<totfact> 0.18248918E+02</totfact>
</mgrwt>
</event>
<event>
 6    1  0.3125838E-002  0.3000000E+03  0.7818608E-02  0.1093470E+00
          1   -1    0    0  502    0  0.00000000000E+00  0.00000000000E+00  0.88508288101E+01  0.88508288101E+01  0.00000000000E+00 0.  1.
         13   -1    0    0    0    0 -0.00000000000E+00 -0.00000000000E+00 -0.10000000000E+04  0.10000000000E+04  0.00000000000E+00 0.  1.
    9000005    2    1    2  501    0 -0.67539669109E+02 -0.73768612375E+01 -0.84444594972E+03  0.84717875276E+03  0.26176598057E+01 0.  0.
         13    1    3    3    0    0 -0.47909360824E+02 -0.48740573395E+01 -0.61240240317E+03  0.61429289977E+03  0.00000000000E+00 0.  1.
          3    1    3    3  501    0 -0.19630308285E+02 -0.25028038980E+01 -0.23204354654E+03  0.23288585299E+03  0.00000000000E+00 0.  1.
         21    1    1    2  502  501  0.67539669109E+02  0.73768612375E+01 -0.14670322147E+03  0.16167207606E+03  0.00000000000E+00 0.  1.
<mgrwt>
<rscale>  1 0.30000000E+03</rscale>
<asrwt>0</asrwt>
<pdfrwt beam="1">  1        1 0.32184900E-01 0.30000000E+03</pdfrwt>
<pdfrwt beam="2">0</pdfrwt>
<totfact> 0.15705168E+02</totfact>
</mgrwt>
</event>
<event>
 6    1  0.3125838E-002  0.3000000E+03  0.7818608E-02  0.1093470E+00
          1   -1    0    0  502    0  0.00000000000E+00  0.00000000000E+00  0.17358965220E+01  0.17358965220E+01  0.00000000000E+00 0.  1.
         13   -1    0    0    0    0 -0.00000000000E+00 -0.00000000000E+00 -0.10000000000E+04  0.10000000000E+04  0.00000000000E+00 0.  1.
    9000005    2    1    2  501    0  0.19684998619E+02 -0.29112070310E+02 -0.76785611937E+03  0.76866326632E+03  0.22770876107E+01 0.  0.
         13    1    3    3    0    0  0.29208324471E+01 -0.33908315587E+01 -0.11038080241E+03  0.11047149198E+03  0.00000000000E+00 0.  1.
          1    1    3    3  501    0  0.16764166172E+02 -0.25721238751E+02 -0.65747531697E+03  0.65819177434E+03  0.00000000000E+00 0.  1.
         21    1    1    2  502  501 -0.19684998619E+02  0.29112070310E+02 -0.23040798410E+03  0.23307263020E+03  0.00000000000E+00 0.  1.
<mgrwt>
<rscale>  1 0.30000000E+03</rscale>
<asrwt>0</asrwt>
<pdfrwt beam="1">  1        1 0.63123643E-02 0.30000000E+03</pdfrwt>
<pdfrwt beam="2">0</pdfrwt>
<totfact> 0.14340753E+03</totfact>
</mgrwt>
</event>
<event>
 6    1  0.3125838E-002  0.3000000E+03  0.7818608E-02  0.1093470E+00
          3   -1    0    0  502    0  0.00000000000E+00  0.00000000000E+00  0.16352502799E+01  0.16352502799E+01  0.00000000000E+00 0.  1.
         13   -1    0    0    0    0 -0.00000000000E+00 -0.00000000000E+00 -0.10000000000E+04  0.10000000000E+04  0.00000000000E+00 0.  1.
    9000005    2    1    2  501    0  0.36503987021E+02 -0.13749545698E+02 -0.37156597195E+03  0.37362386592E+03  0.34540695340E+01 0.  0.
         13    1    3    3    0    0  0.21991232215E+00 -0.46614774304E+00 -0.56688308952E+01  0.56922138809E+01  0.00000000000E+00 0.  1.
          1    1    3    3  501    0  0.36284074699E+02 -0.13283397955E+02 -0.36589714106E+03  0.36793165204E+03  0.00000000000E+00 0.  1.
         21    1    1    2  502  501 -0.36503987021E+02  0.13749545698E+02 -0.62679877777E+03  0.62801138436E+03  0.00000000000E+00 0.  1.
<mgrwt>
<rscale>  1 0.30000000E+03</rscale>
<asrwt>0</asrwt>
<pdfrwt beam="1">  1        3 0.59463772E-02 0.30000000E+03</pdfrwt>
<pdfrwt beam="2">0</pdfrwt>
<totfact> 0.75621902E+02</totfact>
</mgrwt>
</event>
<event>
 6    1  0.3125838E-002  0.3000000E+03  0.7818608E-02  0.1093470E+00
          1   -1    0    0  502    0  0.00000000000E+00  0.00000000000E+00  0.24934503701E+01  0.24934503701E+01  0.00000000000E+00 0.  1.
         13   -1    0    0    0    0 -0.00000000000E+00 -0.00000000000E+00 -0.10000000000E+04  0.10000000000E+04  0.00000000000E+00 0.  1.
    9000005    2    1    2  501    0 -0.39257475748E+02  0.68613505551E+01 -0.80000385852E+03  0.80101009987E+03  0.47727257748E+01 0.  0.
         13    1    3    3    0    0 -0.23074820808E+02  0.23903321294E+01 -0.49779946390E+03  0.49833971074E+03  0.00000000000E+00 0.  1.
          1    1    3    3  501    0 -0.16182654941E+02  0.44710184257E+01 -0.30220439462E+03  0.30267038913E+03  0.00000000000E+00 0.  1.
         21    1    1    2  502  501  0.39257475748E+02 -0.68613505551E+01 -0.19750269111E+03  0.20148335050E+03  0.00000000000E+00 0.  1.
<mgrwt>
<rscale>  1 0.30000000E+03</rscale>
<asrwt>0</asrwt>
<pdfrwt beam="1">  1        1 0.90671114E-02 0.30000000E+03</pdfrwt>
<pdfrwt beam="2">0</pdfrwt>
<totfact> 0.86541479E+02</totfact>
</mgrwt>
</event>
<event>
 6    1  0.3125838E-002  0.3000000E+03  0.7818608E-02  0.1093470E+00
          1   -1    0    0  502    0  0.00000000000E+00  0.00000000000E+00  0.29864852932E+01  0.29864852932E+01  0.00000000000E+00 0.  1.
         13   -1    0    0    0    0 -0.00000000000E+00 -0.00000000000E+00 -0.10000000000E+04  0.10000000000E+04  0.00000000000E+00 0.  1.
    9000005    2    1    2  501    0  0.42510864948E+02 -0.96776900432E+01 -0.80065930812E+03  0.80185019874E+03  0.27535831787E+01 0.  0.
         13    1    3    3    0    0  0.11809669326E+02 -0.36315581854E+01 -0.21168078707E+03  0.21204106234E+03  0.00000000000E+00 0.  1.
          3    1    3    3  501    0  0.30701195623E+02 -0.60461318578E+01 -0.58897852105E+03  0.58980913640E+03  0.00000000000E+00 0.  1.
         21    1    1    2  502  501 -0.42510864948E+02  0.96776900432E+01 -0.19635420659E+03  0.20113628655E+03  0.00000000000E+00 0.  1.
<mgrwt>
<rscale>  1 0.30000000E+03</rscale>
<asrwt>0</asrwt>
<pdfrwt beam="1">  1        1 0.10859969E-01 0.30000000E+03</pdfrwt>
<pdfrwt beam="2">0</pdfrwt>
<totfact> 0.67454917E+02</totfact>
</mgrwt>
</event>
<event>
 6    1  0.3125838E-002  0.3000000E+03  0.7818608E-02  0.1093470E+00
          1   -1    0    0  502    0  0.00000000000E+00  0.00000000000E+00  0.19464970079E+01  0.19464970079E+01  0.00000000000E+00 0.  1.
         13   -1    0    0    0    0 -0.00000000000E+00 -0.00000000000E+00 -0.10000000000E+04  0.10000000000E+04  0.00000000000E+00 0.  1.
    9000005    2    1    2  501    0  0.82160130936E+01 -0.32973468952E+02 -0.19569918329E+03  0.19887289710E+03  0.98745295752E+01 0.  0.
         13    1    3    3    0    0 -0.18640123714E+00 -0.24601609499E+01 -0.34996035966E+02  0.35082897124E+02  0.00000000000E+00 0.  1.
          3    1    3    3  501    0  0.84024143308E+01 -0.30513308002E+02 -0.16070314733E+03  0.16378999998E+03  0.00000000000E+00 0.  1.
         21    1    1    2  502  501 -0.82160130936E+01  0.32973468952E+02 -0.80235431970E+03  0.80307359990E+03  0.00000000000E+00 0.  1.
<mgrwt>
<rscale>  1 0.30000000E+03</rscale>
<asrwt>0</asrwt>
<pdfrwt beam="1">  1        1 0.70781859E-02 0.30000000E+03</pdfrwt>
<pdfrwt beam="2">0</pdfrwt>
<totfact> 0.12216908E+03</totfact>
</mgrwt>
</event>
<event>
 6    1  0.3125838E-002  0.3000000E+03  0.7818608E-02  0.1093470E+00
          1   -1    0    0  502    0  0.00000000000E+00  0.00000000000E+00  0.30789009913E+01  0.30789009913E+01  0.00000000000E+00 0.  1.
         13   -1    0    0    0    0 -0.00000000000E+00 -0.00000000000E+00 -0.10000000000E+04  0.10000000000E+04  0.00000000000E+00 0.  1.
    9000005    2    1    2  501    0 -0.41304722558E+02 -0.35276418991E+01 -0.83158588207E+03  0.83262580386E+03  0.34821868690E+01 0.  0.
         13    1    3    3    0    0 -0.40901670793E+02 -0.33608866815E+01 -0.82742155149E+03  0.82843869182E+03  0.00000000000E+00 0.  1.
          3    1    3    3  501    0 -0.40305176436E+00 -0.16675521758E+00 -0.41643305799E+01  0.41871120365E+01  0.00000000000E+00 0.  1.
         21    1    1    2  502  501  0.41304722558E+02  0.35276418991E+01 -0.16533521694E+03  0.17045309714E+03  0.00000000000E+00 0.  1.
<mgrwt>
<rscale>  1 0.30000000E+03</rscale>
<asrwt>0</asrwt>
<pdfrwt beam="1">  1        1 0.11196027E-01 0.30000000E+03</pdfrwt>
<pdfrwt beam="2">0</pdfrwt>
<totfact> 0.64688276E+02</totfact>
</mgrwt>
</event>
<event>
 6    1  0.3125838E-002  0.3000000E+03  0.7818608E-02  0.1093470E+00
          1   -1    0    0  502    0  0.00000000000E+00  0.00000000000E+00  0.11812510433E+01  0.11812510433E+01  0.00000000000E+00 0.  1.
         13   -1    0    0    0    0 -0.00000000000E+00 -0.00000000000E+00 -0.10000000000E+04  0.10000000000E+04  0.00000000000E+00 0.  1.
    9000005    2    1    2  501    0  0.19539491611E+02  0.22979285189E+02 -0.73596602530E+03  0.73660348627E+03  0.53727371745E+01 0.  0.
         13    1    3    3    0    0  0.12220622311E+02  0.10261829745E+02 -0.39154797063E+03  0.39187301778E+03  0.00000000000E+00 0.  1.
          1    1    3    3  501    0  0.73188693007E+01  0.12717455444E+02 -0.34441805467E+03  0.34473046849E+03  0.00000000000E+00 0.  1.
         21    1    1    2  502  501 -0.19539491611E+02 -0.22979285189E+02 -0.26285272366E+03  0.26457776478E+03  0.00000000000E+00 0.  1.
<mgrwt>
<rscale>  1 0.30000000E+03</rscale>
<asrwt>0</asrwt>
<pdfrwt beam="1">  1        1 0.42954674E-02 0.30000000E+03</pdfrwt>
<pdfrwt beam="2">0</pdfrwt>
<totfact> 0.24629919E+03</totfact>
</mgrwt>
</event>
<event>
 6    1  0.3125838E-002  0.3000000E+03  0.7818608E-02  0.1093470E+00
          3   -1    0    0  502    0  0.00000000000E+00  0.00000000000E+00  0.27377418394E+01  0.27377418394E+01  0.00000000000E+00 0.  1.
         13   -1    0    0    0    0 -0.00000000000E+00 -0.00000000000E+00 -0.10000000000E+04  0.10000000000E+04  0.00000000000E+00 0.  1.
    9000005    2    1    2  501    0  0.10111459373E+02  0.34110012393E+02 -0.86606002299E+03  0.86679745690E+03  0.34832898783E+01 0.  0.
         13    1    3    3    0    0  0.23672088964E+00  0.20119657827E+01 -0.70169237528E+02  0.70198475328E+02  0.00000000000E+00 0.  1.
          1    1    3    3  501    0  0.98747384832E+01  0.32098046610E+02 -0.79589078546E+03  0.79659898157E+03  0.00000000000E+00 0.  1.
         21    1    1    2  502  501 -0.10111459373E+02 -0.34110012393E+02 -0.13120223517E+03  0.13594028494E+03  0.00000000000E+00 0.  1.
<mgrwt>
<rscale>  1 0.30000000E+03</rscale>
<asrwt>0</asrwt>
<pdfrwt beam="1">  1        3 0.99554459E-02 0.30000000E+03</pdfrwt>
<pdfrwt beam="2">0</pdfrwt>
<totfact> 0.33267734E+02</totfact>
</mgrwt>
</event>
<event>
 6    1  0.3125838E-002  0.3000000E+03  0.7818608E-02  0.1093470E+00
          1   -1    0    0  502    0  0.00000000000E+00  0.00000000000E+00  0.10257471522E+01  0.10257471522E+01  0.00000000000E+00 0.  1.
         13   -1    0    0    0    0 -0.00000000000E+00 -0.00000000000E+00 -0.10000000000E+04  0.10000000000E+04  0.00000000000E+00 0.  1.
    9000005    2    1    2  501    0  0.16238939965E+02  0.27069828182E+02 -0.57772511979E+03  0.57859550336E+03  0.31565332417E+01 0.  0.
         13    1    3    3    0    0  0.98533991963E+01  0.14237518137E+02 -0.29594646156E+03  0.29645253331E+03  0.00000000000E+00 0.  1.
          1    1    3    3  501    0  0.63855407691E+01  0.12832310045E+02 -0.28177865823E+03  0.28214297005E+03  0.00000000000E+00 0.  1.
         21    1    1    2  502  501 -0.16238939965E+02 -0.27069828182E+02 -0.42124913305E+03  0.42243024379E+03  0.00000000000E+00 0.  1.
<mgrwt>
<rscale>  1 0.30000000E+03</rscale>
<asrwt>0</asrwt>
<pdfrwt beam="1">  1        1 0.37299975E-02 0.30000000E+03</pdfrwt>
<pdfrwt beam="2">0</pdfrwt>
<totfact> 0.30044566E+03</totfact>
</mgrwt>
</event>
<event>
 6    1  0.3125838E-002  0.3000000E+03  0.7818608E-02  0.1093470E+00
          1   -1    0    0  502    0  0.00000000000E+00  0.00000000000E+00  0.12245143612E+01  0.12245143612E+01  0.00000000000E+00 0.  1.
         13   -1    0    0    0    0 -0.00000000000E+00 -0.00000000000E+00 -0.10000000000E+04  0.10000000000E+04  0.00000000000E+00 0.  1.
    9000005    2    1    2  501    0  0.34235722348E+02  0.20018933049E+01 -0.44894985830E+03  0.45033041135E+03  0.80877593617E+01 0.  0.
         13    1    3    3    0    0  0.15703732978E+02  0.16623738024E+01 -0.15680203921E+03  0.15759521001E+03  0.00000000000E+00 0.  1.
          3    1    3    3  501    0  0.18531989369E+02  0.33951950256E+00 -0.29214781909E+03  0.29273520134E+03  0.00000000000E+00 0.  1.
         21    1    1    2  502  501 -0.34235722348E+02 -0.20018933049E+01 -0.54982562733E+03  0.55089410301E+03  0.00000000000E+00 0.  1.
<mgrwt>
<rscale>  1 0.30000000E+03</rscale>
<asrwt>0</asrwt>
<pdfrwt beam="1">  1        1 0.44527889E-02 0.30000000E+03</pdfrwt>
<pdfrwt beam="2">0</pdfrwt>
<totfact> 0.23413825E+03</totfact>
</mgrwt>
</event>
<event>
 6    1  0.3125838E-002  0.3000000E+03  0.7818608E-02  0.1093470E+00
          1   -1    0    0  502    0  0.00000000000E+00  0.00000000000E+00  0.18010997646E+01  0.18010997646E+01  0.00000000000E+00 0.  1.
         13   -1    0    0    0    0 -0.00000000000E+00 -0.00000000000E+00 -0.10000000000E+04  0.10000000000E+04  0.00000000000E+00 0.  1.
    9000005    2    1    2  501    0  0.27029380257E+02 -0.18810877219E+02 -0.81456682764E+03  0.81523964987E+03  0.34833230782E+01 0.  0.
         13    1    3    3    0    0  0.66625548808E+01 -0.59753048348E+01 -0.24862930545E+03  0.24879032424E+03  0.00000000000E+00 0.  1.
          3    1    3    3  501    0  0.20366825377E+02 -0.12835572384E+02 -0.56593752219E+03  0.56644932564E+03  0.00000000000E+00 0.  1.
         21    1    1    2  502  501 -0.27029380257E+02  0.18810877219E+02 -0.18363207260E+03  0.18656144989E+03  0.00000000000E+00 0.  1.
<mgrwt>
<rscale>  1 0.30000000E+03</rscale>
<asrwt>0</asrwt>
<pdfrwt beam="1">  1        1 0.65494675E-02 0.30000000E+03</pdfrwt>
<pdfrwt beam="2">0</pdfrwt>
<totfact> 0.13618743E+03</totfact>
</mgrwt>
</event>
<event>
 6    1  0.3125838E-002  0.3000000E+03  0.7818608E-02  0.1093470E+00
          1   -1    0    0  502    0  0.00000000000E+00  0.00000000000E+00  0.16195930707E+01  0.16195930707E+01  0.00000000000E+00 0.  1.
         13   -1    0    0    0    0 -0.00000000000E+00 -0.00000000000E+00 -0.10000000000E+04  0.10000000000E+04  0.00000000000E+00 0.  1.
    9000005    2    1    2  501    0  0.81468651569E+01  0.31505213431E+02 -0.79343514561E+03  0.79410691871E+03  0.27419264337E+01 0.  0.
         13    1    3    3    0    0  0.72850283733E+01  0.25354553025E+02 -0.62145129133E+03  0.62201095850E+03  0.00000000000E+00 0.  1.
          3    1    3    3  501    0  0.86183678360E+00  0.61506604055E+01 -0.17198385429E+03  0.17209596021E+03  0.00000000000E+00 0.  1.
         21    1    1    2  502  501 -0.81468651569E+01 -0.31505213431E+02 -0.20494526132E+03  0.20751267436E+03  0.00000000000E+00 0.  1.
<mgrwt>
<rscale>  1 0.30000000E+03</rscale>
<asrwt>0</asrwt>
<pdfrwt beam="1">  1        1 0.58894418E-02 0.30000000E+03</pdfrwt>
<pdfrwt beam="2">0</pdfrwt>
<totfact> 0.15805560E+03</totfact>
</mgrwt>
</event>
<event>
 6    1  0.3125838E-002  0.3000000E+03  0.7818608E-02  0.1093470E+00
          3   -1    0    0  502    0  0.00000000000E+00  0.00000000000E+00  0.94070683534E+00  0.94070683534E+00  0.00000000000E+00 0.  1.
         13   -1    0    0    0    0 -0.00000000000E+00 -0.00000000000E+00 -0.10000000000E+04  0.10000000000E+04  0.00000000000E+00 0.  1.
    9000005    2    1    2  501    0 -0.28449751892E+02 -0.10193729320E+02 -0.42625150151E+03  0.42733625543E+03  0.35541748696E+01 0.  0.
         13    1    3    3    0    0 -0.21367792363E+02 -0.60143954434E+01 -0.30667056628E+03  0.30747291218E+03  0.00000000000E+00 0.  1.
          1    1    3    3  501    0 -0.70819595287E+01 -0.41793338763E+01 -0.11958093523E+03  0.11986334324E+03  0.00000000000E+00 0.  1.
         21    1    1    2  502  501  0.28449751892E+02  0.10193729320E+02 -0.57280779165E+03  0.57360445141E+03  0.00000000000E+00 0.  1.
<mgrwt>
<rscale>  1 0.30000000E+03</rscale>
<asrwt>0</asrwt>
<pdfrwt beam="1">  1        3 0.34207593E-02 0.30000000E+03</pdfrwt>
<pdfrwt beam="2">0</pdfrwt>
<totfact> 0.17754197E+03</totfact>
</mgrwt>
</event>
<event>
 6    1  0.3125838E-002  0.3000000E+03  0.7818608E-02  0.1093470E+00
          3   -1    0    0  502    0  0.00000000000E+00  0.00000000000E+00  0.46456213645E+01  0.46456213645E+01  0.00000000000E+00 0.  1.
         13   -1    0    0    0    0 -0.00000000000E+00 -0.00000000000E+00 -0.10000000000E+04  0.10000000000E+04  0.00000000000E+00 0.  1.
    9000005    2    1    2  501    0  0.18407149725E+02 -0.63883483888E+02 -0.60323320773E+03  0.60692846641E+03  0.72067852050E+01 0.  0.
         13    1    3    3    0    0  0.54989887156E+01 -0.24233377429E+02 -0.25487205503E+03  0.25608057305E+03  0.00000000000E+00 0.  1.
          3    1    3    3  501    0  0.12908161010E+02 -0.39650106459E+02 -0.34836115271E+03  0.35084789337E+03  0.00000000000E+00 0.  1.
         21    1    1    2  502  501 -0.18407149725E+02  0.63883483888E+02 -0.39212117090E+03  0.39771715495E+03  0.00000000000E+00 0.  1.
<mgrwt>
<rscale>  1 0.30000000E+03</rscale>
<asrwt>0</asrwt>
<pdfrwt beam="1">  1        3 0.16893204E-01 0.30000000E+03</pdfrwt>
<pdfrwt beam="2">0</pdfrwt>
<totfact> 0.13520568E+02</totfact>
</mgrwt>
</event>
<event>
 6    1  0.3125838E-002  0.3000000E+03  0.7818608E-02  0.1093470E+00
          1   -1    0    0  502    0  0.00000000000E+00  0.00000000000E+00  0.15395768495E+01  0.15395768495E+01  0.00000000000E+00 0.  1.
         13   -1    0    0    0    0 -0.00000000000E+00 -0.00000000000E+00 -0.10000000000E+04  0.10000000000E+04  0.00000000000E+00 0.  1.
    9000005    2    1    2  501    0  0.31356358858E+02  0.22801563325E+02 -0.57124728196E+03  0.57257081279E+03  0.32781067604E+01 0.  0.
         13    1    3    3    0    0  0.24456539418E+02  0.16133761166E+02 -0.43697762037E+03  0.43795874380E+03  0.00000000000E+00 0.  1.
          1    1    3    3  501    0  0.68998194399E+01  0.66678021597E+01 -0.13426966159E+03  0.13461206899E+03  0.00000000000E+00 0.  1.
         21    1    1    2  502  501 -0.31356358858E+02 -0.22801563325E+02 -0.42721314119E+03  0.42896876406E+03  0.00000000000E+00 0.  1.
<mgrwt>
<rscale>  1 0.30000000E+03</rscale>
<asrwt>0</asrwt>
<pdfrwt beam="1">  1        1 0.55984731E-02 0.30000000E+03</pdfrwt>
<pdfrwt beam="2">0</pdfrwt>
<totfact> 0.16970622E+03</totfact>
</mgrwt>
</event>
<event>
 6    1  0.3125838E-002  0.3000000E+03  0.7818608E-02  0.1093470E+00
          3   -1    0    0  502    0  0.00000000000E+00  0.00000000000E+00  0.14651104318E+01  0.14651104318E+01  0.00000000000E+00 0.  1.
         13   -1    0    0    0    0 -0.00000000000E+00 -0.00000000000E+00 -0.10000000000E+04  0.10000000000E+04  0.00000000000E+00 0.  1.
    9000005    2    1    2  501    0 -0.34956151667E+01  0.37325749552E+02 -0.59680988867E+03  0.59799465643E+03  0.31835516007E+01 0.  0.
         13    1    3    3    0    0 -0.14681106344E+01  0.22903364599E+02 -0.34250904967E+03  0.34327710172E+03  0.00000000000E+00 0.  1.
          1    1    3    3  501    0 -0.20275045323E+01  0.14422384953E+02 -0.25430083900E+03  0.25471755471E+03  0.00000000000E+00 0.  1.
         21    1    1    2  502  501  0.34956151667E+01 -0.37325749552E+02 -0.40172500090E+03  0.40347045400E+03  0.00000000000E+00 0.  1.
<mgrwt>
<rscale>  1 0.30000000E+03</rscale>
<asrwt>0</asrwt>
<pdfrwt beam="1">  1        3 0.53276855E-02 0.30000000E+03</pdfrwt>
<pdfrwt beam="2">0</pdfrwt>
<totfact> 0.89695194E+02</totfact>
</mgrwt>
</event>
<event>
 6    1  0.3125838E-002  0.3000000E+03  0.7818608E-02  0.1093470E+00
          1   -1    0    0  502    0  0.00000000000E+00  0.00000000000E+00  0.17023215464E+01  0.17023215464E+01  0.00000000000E+00 0.  1.
         13   -1    0    0    0    0 -0.00000000000E+00 -0.00000000000E+00 -0.10000000000E+04  0.10000000000E+04  0.00000000000E+00 0.  1.
    9000005    2    1    2  501    0 -0.55008933531E+01 -0.31127189700E+02 -0.82020213576E+03  0.82082340046E+03  0.45110386708E+01 0.  0.
         13    1    3    3    0    0 -0.41202848720E+01 -0.29400867449E+02 -0.77190305856E+03  0.77247376627E+03  0.00000000000E+00 0.  1.
          1    1    3    3  501    0 -0.13806084811E+01 -0.17263222506E+01 -0.48299077199E+02  0.48349634193E+02  0.00000000000E+00 0.  1.
         21    1    1    2  502  501  0.55008933531E+01  0.31127189700E+02 -0.17809554269E+03  0.18087892109E+03  0.00000000000E+00 0.  1.
<mgrwt>
<rscale>  1 0.30000000E+03</rscale>
<asrwt>0</asrwt>
<pdfrwt beam="1">  1        1 0.61902732E-02 0.30000000E+03</pdfrwt>
<pdfrwt beam="2">0</pdfrwt>
<totfact> 0.14738797E+03</totfact>
</mgrwt>
</event>
<event>
 6    1  0.3125838E-002  0.3000000E+03  0.7818608E-02  0.1093470E+00
          1   -1    0    0  502    0  0.00000000000E+00  0.00000000000E+00  0.13424333039E+01  0.13424333039E+01  0.00000000000E+00 0.  1.
         13   -1    0    0    0    0 -0.00000000000E+00 -0.00000000000E+00 -0.10000000000E+04  0.10000000000E+04  0.00000000000E+00 0.  1.
    9000005    2    1    2  501    0  0.30872270078E+02 -0.57697790637E+00 -0.23478712785E+03  0.23684817087E+03  0.43163263888E+01 0.  0.
         13    1    3    3    0    0  0.27191049136E+02 -0.16132670808E+01 -0.19852976937E+03  0.20038968314E+03  0.00000000000E+00 0.  1.
          1    1    3    3  501    0  0.36812209416E+01  0.10362891744E+01 -0.36257358483E+02  0.36458487722E+02  0.00000000000E+00 0.  1.
         21    1    1    2  502  501 -0.30872270078E+02  0.57697790637E+00 -0.76387043884E+03  0.76449426244E+03  0.00000000000E+00 0.  1.
<mgrwt>
<rscale>  1 0.30000000E+03</rscale>
<asrwt>0</asrwt>
<pdfrwt beam="1">  1        1 0.48815859E-02 0.30000000E+03</pdfrwt>
<pdfrwt beam="2">0</pdfrwt>
<totfact> 0.20573226E+03</totfact>
</mgrwt>
</event>
<event>
 6    1  0.3125838E-002  0.3000000E+03  0.7818608E-02  0.1093470E+00
          3   -1    0    0  502    0  0.00000000000E+00  0.00000000000E+00  0.32827536661E+01  0.32827536661E+01  0.00000000000E+00 0.  1.
         13   -1    0    0    0    0 -0.00000000000E+00 -0.00000000000E+00 -0.10000000000E+04  0.10000000000E+04  0.00000000000E+00 0.  1.
    9000005    2    1    2  501    0 -0.29638780308E+02  0.21292886645E+02 -0.88492208122E+03  0.88568171939E+03  0.36295884300E+01 0.  0.
         13    1    3    3    0    0 -0.28056354529E+02  0.20752411900E+02 -0.82798089004E+03  0.82871598024E+03  0.00000000000E+00 0.  1.
          3    1    3    3  501    0 -0.15824257790E+01  0.54047474556E+00 -0.56941191179E+02  0.56965739152E+02  0.00000000000E+00 0.  1.
         21    1    1    2  502  501  0.29638780308E+02 -0.21292886645E+02 -0.11179516511E+03  0.11760103428E+03  0.00000000000E+00 0.  1.
<mgrwt>
<rscale>  1 0.30000000E+03</rscale>
<asrwt>0</asrwt>
<pdfrwt beam="1">  1        3 0.11937311E-01 0.30000000E+03</pdfrwt>
<pdfrwt beam="2">0</pdfrwt>
<totfact> 0.24577477E+02</totfact>
</mgrwt>
</event>
<event>
 6    1  0.3125838E-002  0.3000000E+03  0.7818608E-02  0.1093470E+00
          1   -1    0    0  502    0  0.00000000000E+00  0.00000000000E+00  0.96680624827E+01  0.96680624827E+01  0.00000000000E+00 0.  1.
         13   -1    0    0    0    0 -0.00000000000E+00 -0.00000000000E+00 -0.10000000000E+04  0.10000000000E+04  0.00000000000E+00 0.  1.
    9000005    2    1    2  501    0 -0.68839638926E+02  0.26306312997E+01 -0.85532243406E+03  0.85809833552E+03  0.32359085471E+01 0.  0.
         13    1    3    3    0    0 -0.50674256266E+02  0.29682007004E+01 -0.64191488171E+03  0.64391878823E+03  0.00000000000E+00 0.  1.
          1    1    3    3  501    0 -0.18165382660E+02 -0.33756940070E+00 -0.21340755234E+03  0.21417954729E+03  0.00000000000E+00 0.  1.
         21    1    1    2  502  501  0.68839638926E+02 -0.26306312997E+01 -0.13500950346E+03  0.15156972697E+03  0.00000000000E+00 0.  1.
<mgrwt>
<rscale>  1 0.30000000E+03</rscale>
<asrwt>0</asrwt>
<pdfrwt beam="1">  1        1 0.35156665E-01 0.30000000E+03</pdfrwt>
<pdfrwt beam="2">0</pdfrwt>
<totfact> 0.13990302E+02</totfact>
</mgrwt>
</event>
<event>
 6    1  0.3125838E-002  0.3000000E+03  0.7818608E-02  0.1093470E+00
          1   -1    0    0  502    0  0.00000000000E+00  0.00000000000E+00  0.56302489521E+01  0.56302489521E+01  0.00000000000E+00 0.  1.
         13   -1    0    0    0    0 -0.00000000000E+00 -0.00000000000E+00 -0.10000000000E+04  0.10000000000E+04  0.00000000000E+00 0.  1.
    9000005    2    1    2  501    0  0.20426235513E+02  0.67362161971E+02 -0.67083806444E+03  0.67452959325E+03  0.34016928776E+01 0.  0.
         13    1    3    3    0    0  0.10988036811E+02  0.32764057605E+02 -0.34232457852E+03  0.34406443798E+03  0.00000000000E+00 0.  1.
          1    1    3    3  501    0  0.94381987023E+01  0.34598104366E+02 -0.32851348592E+03  0.33046515527E+03  0.00000000000E+00 0.  1.
         21    1    1    2  502  501 -0.20426235513E+02 -0.67362161971E+02 -0.32353168661E+03  0.33110065570E+03  0.00000000000E+00 0.  1.
<mgrwt>
<rscale>  1 0.30000000E+03</rscale>
<asrwt>0</asrwt>
<pdfrwt beam="1">  1        1 0.20473676E-01 0.30000000E+03</pdfrwt>
<pdfrwt beam="2">0</pdfrwt>
<totfact> 0.28535003E+02</totfact>
</mgrwt>
</event>
<event>
 6    1  0.3125838E-002  0.3000000E+03  0.7818608E-02  0.1093470E+00
          3   -1    0    0  502    0  0.00000000000E+00  0.00000000000E+00  0.21160759091E+01  0.21160759091E+01  0.00000000000E+00 0.  1.
         13   -1    0    0    0    0 -0.00000000000E+00 -0.00000000000E+00 -0.10000000000E+04  0.10000000000E+04  0.00000000000E+00 0.  1.
    9000005    2    1    2  501    0 -0.35006676424E+02  0.60248493857E+00 -0.82342452752E+03  0.82417813326E+03  0.39764859040E+01 0.  0.
         13    1    3    3    0    0 -0.33064389715E+02  0.11049732038E+00 -0.75387234820E+03  0.75459710008E+03  0.00000000000E+00 0.  1.
          1    1    3    3  501    0 -0.19422867091E+01  0.49198761819E+00 -0.69552179317E+02  0.69581033172E+02  0.00000000000E+00 0.  1.
         21    1    1    2  502  501  0.35006676424E+02 -0.60248493857E+00 -0.17445939657E+03  0.17793794265E+03  0.00000000000E+00 0.  1.
<mgrwt>
<rscale>  1 0.30000000E+03</rscale>
<asrwt>0</asrwt>
<pdfrwt beam="1">  1        3 0.76948377E-02 0.30000000E+03</pdfrwt>
<pdfrwt beam="2">0</pdfrwt>
<totfact> 0.50421098E+02</totfact>
</mgrwt>
</event>
<event>
 6    1  0.3125838E-002  0.3000000E+03  0.7818608E-02  0.1093470E+00
          3   -1    0    0  502    0  0.00000000000E+00  0.00000000000E+00  0.97308316978E+00  0.97308316978E+00  0.00000000000E+00 0.  1.
         13   -1    0    0    0    0 -0.00000000000E+00 -0.00000000000E+00 -0.10000000000E+04  0.10000000000E+04  0.00000000000E+00 0.  1.
    9000005    2    1    2  501    0 -0.11822193859E+02  0.27719309624E+02 -0.37728168773E+03  0.37849797981E+03  0.33353306175E+01 0.  0.
         13    1    3    3    0    0 -0.96226922234E-01 -0.46862032034E-01 -0.43902726253E+00  0.45188561369E+00  0.00000000000E+00 0.  1.
          3    1    3    3  501    0 -0.11725966937E+02  0.27766171656E+02 -0.37684266047E+03  0.37804609420E+03  0.00000000000E+00 0.  1.
         21    1    1    2  502  501  0.11822193859E+02 -0.27719309624E+02 -0.62174522910E+03  0.62247510336E+03  0.00000000000E+00 0.  1.
<mgrwt>
<rscale>  1 0.30000000E+03</rscale>
<asrwt>0</asrwt>
<pdfrwt beam="1">  1        3 0.35384917E-02 0.30000000E+03</pdfrwt>
<pdfrwt beam="2">0</pdfrwt>
<totfact> 0.16850504E+03</totfact>
</mgrwt>
</event>
<event>
 6    1  0.3125838E-002  0.3000000E+03  0.7818608E-02  0.1093470E+00
          1   -1    0    0  502    0  0.00000000000E+00  0.00000000000E+00  0.19731872321E+02  0.19731872321E+02  0.00000000000E+00 0.  1.
         13   -1    0    0    0    0 -0.00000000000E+00 -0.00000000000E+00 -0.10000000000E+04  0.10000000000E+04  0.00000000000E+00 0.  1.
    9000005    2    1    2  501    0 -0.84923326539E+02 -0.21543315673E+02 -0.88864821115E+03  0.89296320527E+03  0.33995511433E+01 0.  0.
         13    1    3    3    0    0 -0.42357626030E+02 -0.11222713647E+02 -0.42776878949E+03  0.43000727325E+03  0.00000000000E+00 0.  1.
          3    1    3    3  501    0 -0.42565700508E+02 -0.10320602026E+02 -0.46087942166E+03  0.46295593202E+03  0.00000000000E+00 0.  1.
         21    1    1    2  502  501  0.84923326539E+02  0.21543315673E+02 -0.91619916530E+02  0.12676866705E+03  0.00000000000E+00 0.  1.
<mgrwt>
<rscale>  1 0.30000000E+03</rscale>
<asrwt>0</asrwt>
<pdfrwt beam="1">  1        1 0.71752414E-01 0.30000000E+03</pdfrwt>
<pdfrwt beam="2">0</pdfrwt>
<totfact> 0.54521161E+01</totfact>
</mgrwt>
</event>
<event>
 6    1  0.3125838E-002  0.3000000E+03  0.7818608E-02  0.1093470E+00
          1   -1    0    0  502    0  0.00000000000E+00  0.00000000000E+00  0.14776707151E+01  0.14776707151E+01  0.00000000000E+00 0.  1.
         13   -1    0    0    0    0 -0.00000000000E+00 -0.00000000000E+00 -0.10000000000E+04  0.10000000000E+04  0.00000000000E+00 0.  1.
    9000005    2    1    2  501    0 -0.23461223721E+02 -0.29208963089E+02 -0.39294482381E+03  0.39474238438E+03  0.35104025581E+01 0.  0.
         13    1    3    3    0    0 -0.10678448291E+02 -0.16073449701E+02 -0.19917609319E+03  0.20010872330E+03  0.00000000000E+00 0.  1.
          1    1    3    3  501    0 -0.12782775429E+02 -0.13135513388E+02 -0.19376873061E+03  0.19463366108E+03  0.00000000000E+00 0.  1.
         21    1    1    2  502  501  0.23461223721E+02  0.29208963089E+02 -0.60557750548E+03  0.60673528634E+03  0.00000000000E+00 0.  1.
<mgrwt>
<rscale>  1 0.30000000E+03</rscale>
<asrwt>0</asrwt>
<pdfrwt beam="1">  1        1 0.53733594E-02 0.30000000E+03</pdfrwt>
<pdfrwt beam="2">0</pdfrwt>
<totfact> 0.17977389E+03</totfact>
</mgrwt>
</event>
<event>
 6    1  0.3125838E-002  0.3000000E+03  0.7818608E-02  0.1093470E+00
          1   -1    0    0  502    0  0.00000000000E+00  0.00000000000E+00  0.60676326895E+01  0.60676326895E+01  0.00000000000E+00 0.  1.
         13   -1    0    0    0    0 -0.00000000000E+00 -0.00000000000E+00 -0.10000000000E+04  0.10000000000E+04  0.00000000000E+00 0.  1.
    9000005    2    1    2  501    0  0.48422455751E+02  0.41419434152E+02 -0.78593784361E+03  0.78853136988E+03  0.48086926387E+01 0.  0.
         13    1    3    3    0    0  0.23418165944E+02  0.16940182758E+02 -0.34987052615E+03  0.35106233827E+03  0.00000000000E+00 0.  1.
          3    1    3    3  501    0  0.25004289807E+02  0.24479251394E+02 -0.43606731746E+03  0.43746903161E+03  0.00000000000E+00 0.  1.
         21    1    1    2  502  501 -0.48422455751E+02 -0.41419434152E+02 -0.20799452370E+03  0.21753626281E+03  0.00000000000E+00 0.  1.
<mgrwt>
<rscale>  1 0.30000000E+03</rscale>
<asrwt>0</asrwt>
<pdfrwt beam="1">  1        1 0.22064165E-01 0.30000000E+03</pdfrwt>
<pdfrwt beam="2">0</pdfrwt>
<totfact> 0.25830514E+02</totfact>
</mgrwt>
</event>
<event>
 6    1  0.3125838E-002  0.3000000E+03  0.7818608E-02  0.1093470E+00
          1   -1    0    0  502    0  0.00000000000E+00  0.00000000000E+00  0.18181770369E+01  0.18181770369E+01  0.00000000000E+00 0.  1.
         13   -1    0    0    0    0 -0.00000000000E+00 -0.00000000000E+00 -0.10000000000E+04  0.10000000000E+04  0.00000000000E+00 0.  1.
    9000005    2    1    2  501    0 -0.39314086960E+02  0.16100530919E+01 -0.69096531011E+03  0.69209220868E+03  0.32211545881E+01 0.  0.
         13    1    3    3    0    0 -0.47313246386E+01 -0.12138299032E+00 -0.67087835174E+02  0.67254574529E+02  0.00000000000E+00 0.  1.
          3    1    3    3  501    0 -0.34582762322E+02  0.17314360822E+01 -0.62387747493E+03  0.62483763415E+03  0.00000000000E+00 0.  1.
         21    1    1    2  502  501  0.39314086960E+02 -0.16100530919E+01 -0.30721651285E+03  0.30972596836E+03  0.00000000000E+00 0.  1.
<mgrwt>
<rscale>  1 0.30000000E+03</rscale>
<asrwt>0</asrwt>
<pdfrwt beam="1">  1        1 0.66115668E-02 0.30000000E+03</pdfrwt>
<pdfrwt beam="2">0</pdfrwt>
<totfact> 0.13439964E+03</totfact>
</mgrwt>
</event>
<event>
 6    1  0.3125838E-002  0.3000000E+03  0.7818608E-02  0.1093470E+00
          1   -1    0    0  502    0  0.00000000000E+00  0.00000000000E+00  0.64111078852E+01  0.64111078852E+01  0.00000000000E+00 0.  1.
         13   -1    0    0    0    0 -0.00000000000E+00 -0.00000000000E+00 -0.10000000000E+04  0.10000000000E+04  0.00000000000E+00 0.  1.
    9000005    2    1    2  501    0 -0.52165200180E+02 -0.49829351577E+02 -0.71489162363E+03  0.71852859739E+03  0.30231343576E+01 0.  0.
         13    1    3    3    0    0 -0.13676211453E+02 -0.14919316989E+02 -0.20245878538E+03  0.20346789564E+03  0.00000000000E+00 0.  1.
          1    1    3    3  501    0 -0.38488988727E+02 -0.34910034589E+02 -0.51243283825E+03  0.51506070175E+03  0.00000000000E+00 0.  1.
         21    1    1    2  502  501  0.52165200180E+02  0.49829351577E+02 -0.27869726849E+03  0.28788251050E+03  0.00000000000E+00 0.  1.
<mgrwt>
<rscale>  1 0.30000000E+03</rscale>
<asrwt>0</asrwt>
<pdfrwt beam="1">  1        1 0.23313169E-01 0.30000000E+03</pdfrwt>
<pdfrwt beam="2">0</pdfrwt>
<totfact> 0.24012372E+02</totfact>
</mgrwt>
</event>
<event>
 6    1  0.3125838E-002  0.3000000E+03  0.7818608E-02  0.1093470E+00
          1   -1    0    0  502    0  0.00000000000E+00  0.00000000000E+00  0.37394245114E+01  0.37394245114E+01  0.00000000000E+00 0.  1.
         13   -1    0    0    0    0 -0.00000000000E+00 -0.00000000000E+00 -0.10000000000E+04  0.10000000000E+04  0.00000000000E+00 0.  1.
    9000005    2    1    2  501    0  0.32819020551E+02 -0.11597906701E+02 -0.91065499212E+03  0.91132776154E+03  0.37649337085E+01 0.  0.
         13    1    3    3    0    0  0.16264748536E+02 -0.71528519190E+01 -0.49826489582E+03  0.49858159988E+03  0.00000000000E+00 0.  1.
          3    1    3    3  501    0  0.16554272015E+02 -0.44450547824E+01 -0.41239009630E+03  0.41274616165E+03  0.00000000000E+00 0.  1.
         21    1    1    2  502  501 -0.32819020551E+02  0.11597906701E+02 -0.85605583370E+02  0.92411662975E+02  0.00000000000E+00 0.  1.
<mgrwt>
<rscale>  1 0.30000000E+03</rscale>
<asrwt>0</asrwt>
<pdfrwt beam="1">  1        1 0.13597936E-01 0.30000000E+03</pdfrwt>
<pdfrwt beam="2">0</pdfrwt>
<totfact> 0.49575882E+02</totfact>
</mgrwt>
</event>
<event>
 6    1  0.3125838E-002  0.3000000E+03  0.7818608E-02  0.1093470E+00
          1   -1    0    0  502    0  0.00000000000E+00  0.00000000000E+00  0.16818660610E+01  0.16818660610E+01  0.00000000000E+00 0.  1.
         13   -1    0    0    0    0 -0.00000000000E+00 -0.00000000000E+00 -0.10000000000E+04  0.10000000000E+04  0.00000000000E+00 0.  1.
    9000005    2    1    2  501    0  0.12186956493E+02 -0.32636061677E+02 -0.76257184860E+03  0.76337545515E+03  0.35534233350E+01 0.  0.
         13    1    3    3    0    0  0.11521260135E+02 -0.29104425521E+02 -0.70141576859E+03  0.70211387072E+03  0.00000000000E+00 0.  1.
          1    1    3    3  501    0  0.66569635790E+00 -0.35316361555E+01 -0.61156080005E+02  0.61261584432E+02  0.00000000000E+00 0.  1.
         21    1    1    2  502  501 -0.12186956493E+02  0.32636061677E+02 -0.23574628534E+03  0.23830641091E+03  0.00000000000E+00 0.  1.
<mgrwt>
<rscale>  1 0.30000000E+03</rscale>
<asrwt>0</asrwt>
<pdfrwt beam="1">  1        1 0.61158895E-02 0.30000000E+03</pdfrwt>
<pdfrwt beam="2">0</pdfrwt>
<totfact> 0.14990764E+03</totfact>
</mgrwt>
</event>
<event>
 6    1  0.3125838E-002  0.3000000E+03  0.7818608E-02  0.1093470E+00
          1   -1    0    0  502    0  0.00000000000E+00  0.00000000000E+00  0.12605539706E+01  0.12605539706E+01  0.00000000000E+00 0.  1.
         13   -1    0    0    0    0 -0.00000000000E+00 -0.00000000000E+00 -0.10000000000E+04  0.10000000000E+04  0.00000000000E+00 0.  1.
    9000005    2    1    2  501    0  0.32825504141E+02 -0.13229734141E+02 -0.52483937321E+03  0.52604079574E+03  0.31641004134E+01 0.  0.
         13    1    3    3    0    0  0.24340291420E+02 -0.11241547400E+02 -0.40037148454E+03  0.40126817442E+03  0.00000000000E+00 0.  1.
          1    1    3    3  501    0  0.84852127204E+01 -0.19881867413E+01 -0.12446788867E+03  0.12477262132E+03  0.00000000000E+00 0.  1.
         21    1    1    2  502  501 -0.32825504141E+02  0.13229734141E+02 -0.47390007282E+03  0.47521975823E+03  0.00000000000E+00 0.  1.
<mgrwt>
<rscale>  1 0.30000000E+03</rscale>
<asrwt>0</asrwt>
<pdfrwt beam="1">  1        1 0.45838423E-02 0.30000000E+03</pdfrwt>
<pdfrwt beam="2">0</pdfrwt>
<totfact> 0.22477281E+03</totfact>
</mgrwt>
</event>
<event>
 6    1  0.3125838E-002  0.3000000E+03  0.7818608E-02  0.1093470E+00
          1   -1    0    0  502    0  0.00000000000E+00  0.00000000000E+00  0.16633776929E+01  0.16633776929E+01  0.00000000000E+00 0.  1.
         13   -1    0    0    0    0 -0.00000000000E+00 -0.00000000000E+00 -0.10000000000E+04  0.10000000000E+04  0.00000000000E+00 0.  1.
    9000005    2    1    2  501    0 -0.14831107697E+02  0.27416356740E+02 -0.82128020872E+03  0.82188409088E+03  0.45452441294E+01 0.  0.
         13    1    3    3    0    0 -0.50776117745E+01  0.74199606917E+01 -0.28715208893E+03  0.28729281254E+03  0.00000000000E+00 0.  1.
          3    1    3    3  501    0 -0.97534959224E+01  0.19996396048E+02 -0.53412811978E+03  0.53459127834E+03  0.00000000000E+00 0.  1.
         21    1    1    2  502  501  0.14831107697E+02 -0.27416356740E+02 -0.17705641359E+03  0.17977928681E+03  0.00000000000E+00 0.  1.
<mgrwt>
<rscale>  1 0.30000000E+03</rscale>
<asrwt>0</asrwt>
<pdfrwt beam="1">  1        1 0.60486589E-02 0.30000000E+03</pdfrwt>
<pdfrwt beam="2">0</pdfrwt>
<totfact> 0.15224971E+03</totfact>
</mgrwt>
</event>
<event>
 6    1  0.3125838E-002  0.3000000E+03  0.7818608E-02  0.1093470E+00
          1   -1    0    0  502    0  0.00000000000E+00  0.00000000000E+00  0.37168928851E+01  0.37168928851E+01  0.00000000000E+00 0.  1.
         13   -1    0    0    0    0 -0.00000000000E+00 -0.00000000000E+00 -0.10000000000E+04  0.10000000000E+04  0.00000000000E+00 0.  1.
    9000005    2    1    2  501    0 -0.48461640545E+02  0.34606848482E+02 -0.60383459276E+03  0.60677609001E+03  0.38527172834E+01 0.  0.
         13    1    3    3    0    0 -0.17152217446E+01  0.46521547202E+00 -0.16172450324E+02  0.16269805179E+02  0.00000000000E+00 0.  1.
          1    1    3    3  501    0 -0.46746418800E+02  0.34141633010E+02 -0.58766214243E+03  0.59050628483E+03  0.00000000000E+00 0.  1.
         21    1    1    2  502  501  0.48461640545E+02 -0.34606848482E+02 -0.39244851436E+03  0.39694080288E+03  0.00000000000E+00 0.  1.
<mgrwt>
<rscale>  1 0.30000000E+03</rscale>
<asrwt>0</asrwt>
<pdfrwt beam="1">  1        1 0.13516003E-01 0.30000000E+03</pdfrwt>
<pdfrwt beam="2">0</pdfrwt>
<totfact> 0.49986102E+02</totfact>
</mgrwt>
</event>
<event>
 6    1  0.3125838E-002  0.3000000E+03  0.7818608E-02  0.1093470E+00
          3   -1    0    0  502    0  0.00000000000E+00  0.00000000000E+00  0.11581299067E+01  0.11581299067E+01  0.00000000000E+00 0.  1.
         13   -1    0    0    0    0 -0.00000000000E+00 -0.00000000000E+00 -0.10000000000E+04  0.10000000000E+04  0.00000000000E+00 0.  1.
    9000005    2    1    2  501    0 -0.29931887616E+02 -0.27263337460E+01 -0.73286854669E+03  0.73349199541E+03  0.32939060672E+01 0.  0.
         13    1    3    3    0    0 -0.26303617516E+02 -0.22488482081E+01 -0.61432881142E+03  0.61489578479E+03  0.00000000000E+00 0.  1.
          1    1    3    3  501    0 -0.36282701004E+01 -0.47748553791E+00 -0.11853973527E+03  0.11859621062E+03  0.00000000000E+00 0.  1.
         21    1    1    2  502  501  0.29931887616E+02  0.27263337460E+01 -0.26597332341E+03  0.26766613450E+03  0.00000000000E+00 0.  1.
<mgrwt>
<rscale>  1 0.30000000E+03</rscale>
<asrwt>0</asrwt>
<pdfrwt beam="1">  1        3 0.42113904E-02 0.30000000E+03</pdfrwt>
<pdfrwt beam="2">0</pdfrwt>
<totfact> 0.12891349E+03</totfact>
</mgrwt>
</event>
<event>
 6    1  0.3125838E-002  0.3000000E+03  0.7818608E-02  0.1093470E+00
          1   -1    0    0  502    0  0.00000000000E+00  0.00000000000E+00  0.92760941490E+00  0.92760941490E+00  0.00000000000E+00 0.  1.
         13   -1    0    0    0    0 -0.00000000000E+00 -0.00000000000E+00 -0.10000000000E+04  0.10000000000E+04  0.00000000000E+00 0.  1.
    9000005    2    1    2  501    0 -0.15016084542E+02 -0.26325605406E+02 -0.53287421547E+03  0.53374535506E+03  0.32640848761E+01 0.  0.
         13    1    3    3    0    0 -0.12952431057E+02 -0.24352809082E+02 -0.49068176711E+03  0.49145642875E+03  0.00000000000E+00 0.  1.
          3    1    3    3  501    0 -0.20636534851E+01 -0.19727963245E+01 -0.42192448352E+02  0.42288926317E+02  0.00000000000E+00 0.  1.
         21    1    1    2  502  501  0.15016084542E+02  0.26325605406E+02 -0.46619817512E+03  0.46718225435E+03  0.00000000000E+00 0.  1.
<mgrwt>
<rscale>  1 0.30000000E+03</rscale>
<asrwt>0</asrwt>
<pdfrwt beam="1">  1        1 0.33731323E-02 0.30000000E+03</pdfrwt>
<pdfrwt beam="2">0</pdfrwt>
<totfact> 0.34609837E+03</totfact>
</mgrwt>
</event>
<event>
 6    1  0.3125838E-002  0.3000000E+03  0.7818608E-02  0.1093470E+00
          1   -1    0    0  502    0  0.00000000000E+00  0.00000000000E+00  0.45892361091E+01  0.45892361091E+01  0.00000000000E+00 0.  1.
         13   -1    0    0    0    0 -0.00000000000E+00 -0.00000000000E+00 -0.10000000000E+04  0.10000000000E+04  0.00000000000E+00 0.  1.
    9000005    2    1    2  501    0  0.24446536428E+01 -0.63037981684E+02 -0.68031066569E+03  0.68323610426E+03  0.30346070182E+01 0.  0.
         13    1    3    3    0    0  0.90814625645E+00 -0.26633812798E+02 -0.27134432593E+03  0.27264982657E+03  0.00000000000E+00 0.  1.
          3    1    3    3  501    0  0.15365073863E+01 -0.36404168885E+02 -0.40896633976E+03  0.41058627769E+03  0.00000000000E+00 0.  1.
         21    1    1    2  502  501 -0.24446536428E+01  0.63037981684E+02 -0.31510009820E+03  0.32135313185E+03  0.00000000000E+00 0.  1.
<mgrwt>
<rscale>  1 0.30000000E+03</rscale>
<asrwt>0</asrwt>
<pdfrwt beam="1">  1        1 0.16688166E-01 0.30000000E+03</pdfrwt>
<pdfrwt beam="2">0</pdfrwt>
<totfact> 0.37547193E+02</totfact>
</mgrwt>
</event>
<event>
 6    1  0.3125838E-002  0.3000000E+03  0.7818608E-02  0.1093470E+00
          1   -1    0    0  502    0  0.00000000000E+00  0.00000000000E+00  0.40137921024E+01  0.40137921024E+01  0.00000000000E+00 0.  1.
         13   -1    0    0    0    0 -0.00000000000E+00 -0.00000000000E+00 -0.10000000000E+04  0.10000000000E+04  0.00000000000E+00 0.  1.
    9000005    2    1    2  501    0  0.53397970374E+02 -0.31662177707E+02 -0.59718174455E+03  0.60040651178E+03  0.28472154659E+01 0.  0.
         13    1    3    3    0    0  0.20190646134E+02 -0.13409380714E+02 -0.22688405596E+03  0.22817503924E+03  0.00000000000E+00 0.  1.
          1    1    3    3  501    0  0.33207324239E+02 -0.18252796992E+02 -0.37029768859E+03  0.37223147255E+03  0.00000000000E+00 0.  1.
         21    1    1    2  502  501 -0.53397970374E+02  0.31662177707E+02 -0.39880446335E+03  0.40360728032E+03  0.00000000000E+00 0.  1.
<mgrwt>
<rscale>  1 0.30000000E+03</rscale>
<asrwt>0</asrwt>
<pdfrwt beam="1">  1        1 0.14595638E-01 0.30000000E+03</pdfrwt>
<pdfrwt beam="2">0</pdfrwt>
<totfact> 0.45020960E+02</totfact>
</mgrwt>
</event>
<event>
 6    1  0.3125838E-002  0.3000000E+03  0.7818608E-02  0.1093470E+00
          3   -1    0    0  502    0  0.00000000000E+00  0.00000000000E+00  0.17532962854E+01  0.17532962854E+01  0.00000000000E+00 0.  1.
         13   -1    0    0    0    0 -0.00000000000E+00 -0.00000000000E+00 -0.10000000000E+04  0.10000000000E+04  0.00000000000E+00 0.  1.
    9000005    2    1    2  501    0  0.35363455720E+02 -0.10695096224E+02 -0.73394988060E+03  0.73488671953E+03  0.33322990238E+01 0.  0.
         13    1    3    3    0    0  0.33694913631E+02 -0.10745967666E+02 -0.69114368364E+03  0.69204798566E+03  0.00000000000E+00 0.  1.
          3    1    3    3  501    0  0.16685420886E+01  0.50871441528E-01 -0.42806196966E+02  0.42838733866E+02  0.00000000000E+00 0.  1.
         21    1    1    2  502  501 -0.35363455720E+02  0.10695096224E+02 -0.26429682311E+03  0.26686657676E+03  0.00000000000E+00 0.  1.
<mgrwt>
<rscale>  1 0.30000000E+03</rscale>
<asrwt>0</asrwt>
<pdfrwt beam="1">  1        3 0.63756363E-02 0.30000000E+03</pdfrwt>
<pdfrwt beam="2">0</pdfrwt>
<totfact> 0.67823925E+02</totfact>
</mgrwt>
</event>
<event>
 6    1  0.3125838E-002  0.3000000E+03  0.7818608E-02  0.1093470E+00
          1   -1    0    0  502    0  0.00000000000E+00  0.00000000000E+00  0.21503298280E+02  0.21503298280E+02  0.00000000000E+00 0.  1.
         13   -1    0    0    0    0 -0.00000000000E+00 -0.00000000000E+00 -0.10000000000E+04  0.10000000000E+04  0.00000000000E+00 0.  1.
    9000005    2    1    2  501    0  0.68415520085E+02  0.33176669204E+02 -0.92596301035E+03  0.92908488293E+03  0.31382112165E+01 0.  0.
         13    1    3    3    0    0  0.30339918152E+02  0.15120323452E+02 -0.39437367662E+03  0.39582790658E+03  0.00000000000E+00 0.  1.
          1    1    3    3  501    0  0.38075601933E+02  0.18056345752E+02 -0.53158933373E+03  0.53325697635E+03  0.00000000000E+00 0.  1.
         21    1    1    2  502  501 -0.68415520085E+02 -0.33176669204E+02 -0.52533691367E+02  0.92418415354E+02  0.00000000000E+00 0.  1.
<mgrwt>
<rscale>  1 0.30000000E+03</rscale>
<asrwt>0</asrwt>
<pdfrwt beam="1">  1        1 0.78193977E-01 0.30000000E+03</pdfrwt>
<pdfrwt beam="2">0</pdfrwt>
<totfact> 0.48469207E+01</totfact>
</mgrwt>
</event>
<event>
 6    1  0.3125838E-002  0.3000000E+03  0.7818608E-02  0.1093470E+00
          3   -1    0    0  502    0  0.00000000000E+00  0.00000000000E+00  0.14748007280E+01  0.14748007280E+01  0.00000000000E+00 0.  1.
         13   -1    0    0    0    0 -0.00000000000E+00 -0.00000000000E+00 -0.10000000000E+04  0.10000000000E+04  0.00000000000E+00 0.  1.
    9000005    2    1    2  501    0  0.37703332107E+02 -0.21491316172E+00 -0.41155178691E+03  0.41329168787E+03  0.36821879572E+01 0.  0.
         13    1    3    3    0    0  0.35878435948E+02 -0.54888612254E+00 -0.39785014404E+03  0.39946501793E+03  0.00000000000E+00 0.  1.
          1    1    3    3  501    0  0.18248961589E+01  0.33397296082E+00 -0.13701642877E+02  0.13826669933E+02  0.00000000000E+00 0.  1.
         21    1    1    2  502  501 -0.37703332107E+02  0.21491316172E+00 -0.58697341236E+03  0.58818311286E+03  0.00000000000E+00 0.  1.
<mgrwt>
<rscale>  1 0.30000000E+03</rscale>
<asrwt>0</asrwt>
<pdfrwt beam="1">  1        3 0.53629230E-02 0.30000000E+03</pdfrwt>
<pdfrwt beam="2">0</pdfrwt>
<totfact> 0.88784760E+02</totfact>
</mgrwt>
</event>
<event>
 6    1  0.3125838E-002  0.3000000E+03  0.7818608E-02  0.1093470E+00
          1   -1    0    0  502    0  0.00000000000E+00  0.00000000000E+00  0.33227815361E+01  0.33227815361E+01  0.00000000000E+00 0.  1.
         13   -1    0    0    0    0 -0.00000000000E+00 -0.00000000000E+00 -0.10000000000E+04  0.10000000000E+04  0.00000000000E+00 0.  1.
    9000005    2    1    2  501    0 -0.35152322655E+02 -0.24407391911E+01 -0.89523947667E+03  0.89593908419E+03  0.33880661342E+01 0.  0.
         13    1    3    3    0    0 -0.55196396896E+01 -0.94141967867E+00 -0.17242958647E+03  0.17252047700E+03  0.00000000000E+00 0.  1.
          3    1    3    3  501    0 -0.29632682965E+02 -0.14993195125E+01 -0.72280989020E+03  0.72341860719E+03  0.00000000000E+00 0.  1.
         21    1    1    2  502  501  0.35152322655E+02  0.24407391911E+01 -0.10143774180E+03  0.10738369735E+03  0.00000000000E+00 0.  1.
<mgrwt>
<rscale>  1 0.30000000E+03</rscale>
<asrwt>0</asrwt>
<pdfrwt beam="1">  1        1 0.12082867E-01 0.30000000E+03</pdfrwt>
<pdfrwt beam="2">0</pdfrwt>
<totfact> 0.58265043E+02</totfact>
</mgrwt>
</event>
<event>
 6    1  0.3125838E-002  0.3000000E+03  0.7818608E-02  0.1093470E+00
          1   -1    0    0  502    0  0.00000000000E+00  0.00000000000E+00  0.47191009654E+01  0.47191009654E+01  0.00000000000E+00 0.  1.
         13   -1    0    0    0    0 -0.00000000000E+00 -0.00000000000E+00 -0.10000000000E+04  0.10000000000E+04  0.00000000000E+00 0.  1.
    9000005    2    1    2  501    0  0.30497216682E+02 -0.86269425327E+01 -0.94327402547E+03  0.94381574095E+03  0.42144254328E+01 0.  0.
         13    1    3    3    0    0  0.26581247752E+02 -0.61695495856E+01 -0.78461874798E+03  0.78509311916E+03  0.00000000000E+00 0.  1.
          3    1    3    3  501    0  0.39159689301E+01 -0.24573929471E+01 -0.15865527749E+03  0.15872262179E+03  0.00000000000E+00 0.  1.
         21    1    1    2  502  501 -0.30497216682E+02  0.86269425327E+01 -0.52006873565E+02  0.60903360013E+02  0.00000000000E+00 0.  1.
<mgrwt>
<rscale>  1 0.30000000E+03</rscale>
<asrwt>0</asrwt>
<pdfrwt beam="1">  1        1 0.17160403E-01 0.30000000E+03</pdfrwt>
<pdfrwt beam="2">0</pdfrwt>
<totfact> 0.36160244E+02</totfact>
</mgrwt>
</event>
<event>
 6    1  0.3125838E-002  0.3000000E+03  0.7818608E-02  0.1093470E+00
          1   -1    0    0  502    0  0.00000000000E+00  0.00000000000E+00  0.53661220366E+01  0.53661220366E+01  0.00000000000E+00 0.  1.
         13   -1    0    0    0    0 -0.00000000000E+00 -0.00000000000E+00 -0.10000000000E+04  0.10000000000E+04  0.00000000000E+00 0.  1.
    9000005    2    1    2  501    0  0.36458568783E+02 -0.59530500731E+02 -0.64921105364E+03  0.65296005609E+03  0.29554899508E+01 0.  0.
         13    1    3    3    0    0  0.30826687063E+02 -0.50661830539E+02 -0.54136047790E+03  0.54459900178E+03  0.00000000000E+00 0.  1.
          3    1    3    3  501    0  0.56318817197E+01 -0.88686701924E+01 -0.10785057574E+03  0.10836105431E+03  0.00000000000E+00 0.  1.
         21    1    1    2  502  501 -0.36458568783E+02  0.59530500731E+02 -0.34542282432E+03  0.35240606595E+03  0.00000000000E+00 0.  1.
<mgrwt>
<rscale>  1 0.30000000E+03</rscale>
<asrwt>0</asrwt>
<pdfrwt beam="1">  1        1 0.19513212E-01 0.30000000E+03</pdfrwt>
<pdfrwt beam="2">0</pdfrwt>
<totfact> 0.30428612E+02</totfact>
</mgrwt>
</event>
<event>
 6    1  0.3125838E-002  0.3000000E+03  0.7818608E-02  0.1093470E+00
          3   -1    0    0  502    0  0.00000000000E+00  0.00000000000E+00  0.20805708525E+01  0.20805708525E+01  0.00000000000E+00 0.  1.
         13   -1    0    0    0    0 -0.00000000000E+00 -0.00000000000E+00 -0.10000000000E+04  0.10000000000E+04  0.00000000000E+00 0.  1.
    9000005    2    1    2  501    0 -0.61621587099E+01  0.36028639730E+02 -0.79707369277E+03  0.79793590426E+03  0.62610307786E+01 0.  0.
         13    1    3    3    0    0 -0.41416577931E+01  0.32189611251E+02 -0.66580888940E+03  0.66659943114E+03  0.00000000000E+00 0.  1.
          1    1    3    3  501    0 -0.20205009168E+01  0.38390284784E+01 -0.13126480338E+03  0.13133647311E+03  0.00000000000E+00 0.  1.
         21    1    1    2  502  501  0.61621587099E+01 -0.36028639730E+02 -0.20084573637E+03  0.20414466660E+03  0.00000000000E+00 0.  1.
<mgrwt>
<rscale>  1 0.30000000E+03</rscale>
<asrwt>0</asrwt>
<pdfrwt beam="1">  1        3 0.75657281E-02 0.30000000E+03</pdfrwt>
<pdfrwt beam="2">0</pdfrwt>
<totfact> 0.51795997E+02</totfact>
</mgrwt>
</event>
<event>
 6    1  0.3125838E-002  0.3000000E+03  0.7818608E-02  0.1093470E+00
          3   -1    0    0  502    0  0.00000000000E+00  0.00000000000E+00  0.15271661902E+01  0.15271661902E+01  0.00000000000E+00 0.  1.
         13   -1    0    0    0    0 -0.00000000000E+00 -0.00000000000E+00 -0.10000000000E+04  0.10000000000E+04  0.00000000000E+00 0.  1.
    9000005    2    1    2  501    0 -0.18787207167E+02  0.25673158333E+02 -0.78915787333E+03  0.78980843085E+03  0.38907835084E+01 0.  0.
         13    1    3    3    0    0 -0.92832340540E+01  0.15730510466E+02 -0.43307153285E+03  0.43345654910E+03  0.00000000000E+00 0.  1.
          1    1    3    3  501    0 -0.95039731135E+01  0.99426478668E+01 -0.35608634048E+03  0.35635188175E+03  0.00000000000E+00 0.  1.
         21    1    1    2  502  501  0.18787207167E+02 -0.25673158333E+02 -0.20931496048E+03  0.21171873534E+03  0.00000000000E+00 0.  1.
<mgrwt>
<rscale>  1 0.30000000E+03</rscale>
<asrwt>0</asrwt>
<pdfrwt beam="1">  1        3 0.55533433E-02 0.30000000E+03</pdfrwt>
<pdfrwt beam="2">0</pdfrwt>
<totfact> 0.84111852E+02</totfact>
</mgrwt>
</event>
<event>
 6    1  0.3125838E-002  0.3000000E+03  0.7818608E-02  0.1093470E+00
          1   -1    0    0  502    0  0.00000000000E+00  0.00000000000E+00  0.36170610331E+01  0.36170610331E+01  0.00000000000E+00 0.  1.
         13   -1    0    0    0    0 -0.00000000000E+00 -0.00000000000E+00 -0.10000000000E+04  0.10000000000E+04  0.00000000000E+00 0.  1.
    9000005    2    1    2  501    0  0.15286497168E+02  0.33244591881E+02 -0.89631534182E+03  0.89706940088E+03  0.36658056991E+01 0.  0.
         13    1    3    3    0    0  0.10217919766E+02  0.17895378758E+02 -0.49721181199E+03  0.49763866052E+03  0.00000000000E+00 0.  1.
          3    1    3    3  501    0  0.50685774025E+01  0.15349213123E+02 -0.39910352983E+03  0.39943074036E+03  0.00000000000E+00 0.  1.
         21    1    1    2  502  501 -0.15286497168E+02 -0.33244591881E+02 -0.10006759715E+03  0.10654766015E+03  0.00000000000E+00 0.  1.
<mgrwt>
<rscale>  1 0.30000000E+03</rscale>
<asrwt>0</asrwt>
<pdfrwt beam="1">  1        1 0.13152977E-01 0.30000000E+03</pdfrwt>
<pdfrwt beam="2">0</pdfrwt>
<totfact> 0.51878105E+02</totfact>
</mgrwt>
</event>
<event>
 6    1  0.3125838E-002  0.3000000E+03  0.7818608E-02  0.1093470E+00
          1   -1    0    0  502    0  0.00000000000E+00  0.00000000000E+00  0.11212262452E+01  0.11212262452E+01  0.00000000000E+00 0.  1.
         13   -1    0    0    0    0 -0.00000000000E+00 -0.00000000000E+00 -0.10000000000E+04  0.10000000000E+04  0.00000000000E+00 0.  1.
    9000005    2    1    2  501    0 -0.28227470815E+02  0.15252467950E+02 -0.63956535172E+03  0.64037815543E+03  0.33037771542E+01 0.  0.
         13    1    3    3    0    0 -0.49072459360E+01  0.13522449139E+01 -0.93938773983E+02  0.94076579904E+02  0.00000000000E+00 0.  1.
          1    1    3    3  501    0 -0.23320224879E+02  0.13900223036E+02 -0.54562657774E+03  0.54630157553E+03  0.00000000000E+00 0.  1.
         21    1    1    2  502  501  0.28227470815E+02 -0.15252467950E+02 -0.35931342203E+03  0.36074307082E+03  0.00000000000E+00 0.  1.
<mgrwt>
<rscale>  1 0.30000000E+03</rscale>
<asrwt>0</asrwt>
<pdfrwt beam="1">  1        1 0.40771949E-02 0.30000000E+03</pdfrwt>
<pdfrwt beam="2">0</pdfrwt>
<totfact> 0.26506463E+03</totfact>
</mgrwt>
</event>
<event>
 6    1  0.3125838E-002  0.3000000E+03  0.7818608E-02  0.1093470E+00
          3   -1    0    0  502    0  0.00000000000E+00  0.00000000000E+00  0.25309250982E+01  0.25309250982E+01  0.00000000000E+00 0.  1.
         13   -1    0    0    0    0 -0.00000000000E+00 -0.00000000000E+00 -0.10000000000E+04  0.10000000000E+04  0.00000000000E+00 0.  1.
    9000005    2    1    2  501    0 -0.11560797246E+02  0.31039961640E+02 -0.87587782587E+03  0.87650885127E+03  0.29443584900E+01 0.  0.
         13    1    3    3    0    0 -0.72140529893E+01  0.15186294512E+02 -0.43789322344E+03  0.43821586146E+03  0.00000000000E+00 0.  1.
          1    1    3    3  501    0 -0.43467442565E+01  0.15853667129E+02 -0.43798460244E+03  0.43829298981E+03  0.00000000000E+00 0.  1.
         21    1    1    2  502  501  0.11560797246E+02 -0.31039961640E+02 -0.12159124903E+03  0.12602207383E+03  0.00000000000E+00 0.  1.
<mgrwt>
<rscale>  1 0.30000000E+03</rscale>
<asrwt>0</asrwt>
<pdfrwt beam="1">  1        3 0.92033834E-02 0.30000000E+03</pdfrwt>
<pdfrwt beam="2">0</pdfrwt>
<totfact> 0.37826006E+02</totfact>
</mgrwt>
</event>
<event>
 6    1  0.3125838E-002  0.3000000E+03  0.7818608E-02  0.1093470E+00
          1   -1    0    0  502    0  0.00000000000E+00  0.00000000000E+00  0.11109448076E+01  0.11109448076E+01  0.00000000000E+00 0.  1.
         13   -1    0    0    0    0 -0.00000000000E+00 -0.00000000000E+00 -0.10000000000E+04  0.10000000000E+04  0.00000000000E+00 0.  1.
    9000005    2    1    2  501    0 -0.29394341973E+02 -0.78253840431E+01 -0.70235538515E+03  0.70302122435E+03  0.32389593638E+01 0.  0.
         13    1    3    3    0    0 -0.20348181122E+01 -0.10412982363E+01 -0.38658946426E+02  0.38726462858E+02  0.00000000000E+00 0.  1.
          3    1    3    3  501    0 -0.27359523861E+02 -0.67840858068E+01 -0.66369643872E+03  0.66429476149E+03  0.00000000000E+00 0.  1.
         21    1    1    2  502  501  0.29394341973E+02  0.78253840431E+01 -0.29653367004E+03  0.29808972046E+03  0.00000000000E+00 0.  1.
<mgrwt>
<rscale>  1 0.30000000E+03</rscale>
<asrwt>0</asrwt>
<pdfrwt beam="1">  1        1 0.40398078E-02 0.30000000E+03</pdfrwt>
<pdfrwt beam="2">0</pdfrwt>
<totfact> 0.26852506E+03</totfact>
</mgrwt>
</event>
<event>
 6    1  0.3125838E-002  0.3000000E+03  0.7818608E-02  0.1093470E+00
          1   -1    0    0  502    0  0.00000000000E+00  0.00000000000E+00  0.10339835133E+02  0.10339835133E+02  0.00000000000E+00 0.  1.
         13   -1    0    0    0    0 -0.00000000000E+00 -0.00000000000E+00 -0.10000000000E+04  0.10000000000E+04  0.00000000000E+00 0.  1.
    9000005    2    1    2  501    0 -0.66087147725E+02 -0.65677156555E+02 -0.69697804658E+03  0.70318544015E+03  0.32196037621E+01 0.  0.
         13    1    3    3    0    0 -0.60827232750E+00 -0.10114834300E+01 -0.73599422665E+01  0.74539817627E+01  0.00000000000E+00 0.  1.
          3    1    3    3  501    0 -0.65478875397E+02 -0.64665673125E+02 -0.68961810431E+03  0.69573145839E+03  0.00000000000E+00 0.  1.
         21    1    1    2  502  501  0.66087147725E+02  0.65677156555E+02 -0.29268211829E+03  0.30715439498E+03  0.00000000000E+00 0.  1.
<mgrwt>
<rscale>  1 0.30000000E+03</rscale>
<asrwt>0</asrwt>
<pdfrwt beam="1">  1        1 0.37599480E-01 0.30000000E+03</pdfrwt>
<pdfrwt beam="2">0</pdfrwt>
<totfact> 0.12815453E+02</totfact>
</mgrwt>
</event>
<event>
 6    1  0.3125838E-002  0.3000000E+03  0.7818608E-02  0.1093470E+00
          1   -1    0    0  502    0  0.00000000000E+00  0.00000000000E+00  0.15343608927E+01  0.15343608927E+01  0.00000000000E+00 0.  1.
         13   -1    0    0    0    0 -0.00000000000E+00 -0.00000000000E+00 -0.10000000000E+04  0.10000000000E+04  0.00000000000E+00 0.  1.
    9000005    2    1    2  501    0  0.22000510676E+02 -0.32290430446E+02 -0.51553574642E+03  0.51702638818E+03  0.35335353646E+01 0.  0.
         13    1    3    3    0    0  0.27258536999E+00 -0.13248566839E+01 -0.13546712642E+02  0.13614072551E+02  0.00000000000E+00 0.  1.
          3    1    3    3  501    0  0.21727925306E+02 -0.30965573762E+02 -0.50198903377E+03  0.50341231563E+03  0.00000000000E+00 0.  1.
         21    1    1    2  502  501 -0.22000510676E+02  0.32290430446E+02 -0.48292989269E+03  0.48450797271E+03  0.00000000000E+00 0.  1.
<mgrwt>
<rscale>  1 0.30000000E+03</rscale>
<asrwt>0</asrwt>
<pdfrwt beam="1">  1        1 0.55795059E-02 0.30000000E+03</pdfrwt>
<pdfrwt beam="2">0</pdfrwt>
<totfact> 0.17051676E+03</totfact>
</mgrwt>
</event>
<event>
 6    1  0.3125838E-002  0.3000000E+03  0.7818608E-02  0.1093470E+00
          1   -1    0    0  502    0  0.00000000000E+00  0.00000000000E+00  0.16096008632E+02  0.16096008632E+02  0.00000000000E+00 0.  1.
         13   -1    0    0    0    0 -0.00000000000E+00 -0.00000000000E+00 -0.10000000000E+04  0.10000000000E+04  0.00000000000E+00 0.  1.
    9000005    2    1    2  501    0  0.50304717477E+02  0.55819351356E+02 -0.90128247708E+03  0.90441485888E+03  0.31255221725E+01 0.  0.
         13    1    3    3    0    0  0.66450119048E+01  0.84248079831E+01 -0.13904325213E+03  0.13945665827E+03  0.00000000000E+00 0.  1.
          3    1    3    3  501    0  0.43659705572E+02  0.47394543373E+02 -0.76223922495E+03  0.76495820061E+03  0.00000000000E+00 0.  1.
         21    1    1    2  502  501 -0.50304717477E+02 -0.55819351356E+02 -0.82621514289E+02  0.11168114975E+03  0.00000000000E+00 0.  1.
<mgrwt>
<rscale>  1 0.30000000E+03</rscale>
<asrwt>0</asrwt>
<pdfrwt beam="1">  1        1 0.58531064E-01 0.30000000E+03</pdfrwt>
<pdfrwt beam="2">0</pdfrwt>
<totfact> 0.71664894E+01</totfact>
</mgrwt>
</event>
<event>
 6    1  0.3125838E-002  0.3000000E+03  0.7818608E-02  0.1093470E+00
          1   -1    0    0  502    0  0.00000000000E+00  0.00000000000E+00  0.91881909291E+00  0.91881909291E+00  0.00000000000E+00 0.  1.
         13   -1    0    0    0    0 -0.00000000000E+00 -0.00000000000E+00 -0.10000000000E+04  0.10000000000E+04  0.00000000000E+00 0.  1.
    9000005    2    1    2  501    0 -0.20397362970E+02 -0.22314333632E+02 -0.51591325824E+03  0.51680599816E+03  0.28227291903E+01 0.  0.
         13    1    3    3    0    0 -0.11367220003E+02 -0.10751024175E+02 -0.28044526775E+03  0.28088137427E+03  0.00000000000E+00 0.  1.
          1    1    3    3  501    0 -0.90301429668E+01 -0.11563309457E+02 -0.23546799050E+03  0.23592462389E+03  0.00000000000E+00 0.  1.
         21    1    1    2  502  501  0.20397362970E+02  0.22314333632E+02 -0.48316792266E+03  0.48411282093E+03  0.00000000000E+00 0.  1.
<mgrwt>
<rscale>  1 0.30000000E+03</rscale>
<asrwt>0</asrwt>
<pdfrwt beam="1">  1        1 0.33411674E-02 0.30000000E+03</pdfrwt>
<pdfrwt beam="2">0</pdfrwt>
<totfact> 0.35076225E+03</totfact>
</mgrwt>
</event>
<event>
 6    1  0.3215258E-002  0.3000000E+03  0.7818608E-02  0.1093470E+00
          1   -1    0    0  502    0  0.00000000000E+00  0.00000000000E+00  0.11834131336E+01  0.11834131336E+01  0.00000000000E+00 0.  1.
         13   -1    0    0    0    0 -0.00000000000E+00 -0.00000000000E+00 -0.10000000000E+04  0.10000000000E+04  0.00000000000E+00 0.  1.
    9000005    2    1    2  501    0 -0.27116641953E+02  0.16180638156E+02 -0.67974783083E+03  0.68055590901E+03  0.10104773536E+02 0.  0.
         13    1    3    3    0    0 -0.16263696804E+01  0.48462532081E+01 -0.13051821782E+03  0.13061828521E+03  0.00000000000E+00 0.  1.
          1    1    3    3  501    0 -0.25490272272E+02  0.11334384948E+02 -0.54922961301E+03  0.54993762380E+03  0.00000000000E+00 0.  1.
         21    1    1    2  502  501  0.27116641953E+02 -0.16180638156E+02 -0.31906875603E+03  0.32062750412E+03  0.00000000000E+00 0.  1.
<mgrwt>
<rscale>  1 0.30000000E+03</rscale>
<asrwt>0</asrwt>
<pdfrwt beam="1">  1        1 0.43033296E-02 0.30000000E+03</pdfrwt>
<pdfrwt beam="2">0</pdfrwt>
<totfact> 0.24566591E+03</totfact>
</mgrwt>
</event>
<event>
 6    1  0.3125838E-002  0.3000000E+03  0.7818608E-02  0.1093470E+00
          3   -1    0    0  502    0  0.00000000000E+00  0.00000000000E+00  0.11686240155E+01  0.11686240155E+01  0.00000000000E+00 0.  1.
         13   -1    0    0    0    0 -0.00000000000E+00 -0.00000000000E+00 -0.10000000000E+04  0.10000000000E+04  0.00000000000E+00 0.  1.
    9000005    2    1    2  501    0  0.32047200482E+02 -0.84225228890E+01 -0.59032876831E+03  0.59132433355E+03  0.88572457921E+01 0.  0.
         13    1    3    3    0    0  0.34044868178E+01  0.18397667460E+01 -0.64005422454E+02  0.64122300143E+02  0.00000000000E+00 0.  1.
          1    1    3    3  501    0  0.28642713665E+02 -0.10262289635E+02 -0.52632334585E+03  0.52720203340E+03  0.00000000000E+00 0.  1.
         21    1    1    2  502  501 -0.32047200482E+02  0.84225228890E+01 -0.40850260768E+03  0.40984429047E+03  0.00000000000E+00 0.  1.
<mgrwt>
<rscale>  1 0.30000000E+03</rscale>
<asrwt>0</asrwt>
<pdfrwt beam="1">  1        3 0.42495508E-02 0.30000000E+03</pdfrwt>
<pdfrwt beam="2">0</pdfrwt>
<totfact> 0.12713841E+03</totfact>
</mgrwt>
</event>
<event>
 6    1  0.3125838E-002  0.3000000E+03  0.7818608E-02  0.1093470E+00
          3   -1    0    0  502    0  0.00000000000E+00  0.00000000000E+00  0.16230316289E+01  0.16230316289E+01  0.00000000000E+00 0.  1.
         13   -1    0    0    0    0 -0.00000000000E+00 -0.00000000000E+00 -0.10000000000E+04  0.10000000000E+04  0.00000000000E+00 0.  1.
    9000005    2    1    2  501    0 -0.16135557106E+02 -0.35344605727E+02 -0.37302469329E+03  0.37506492155E+03  0.40836522615E+01 0.  0.
         13    1    3    3    0    0 -0.97837333310E+01 -0.25858318432E+02 -0.26636749490E+03  0.26779846230E+03  0.00000000000E+00 0.  1.
          1    1    3    3  501    0 -0.63518237746E+01 -0.94862872942E+01 -0.10665719839E+03  0.10726645926E+03  0.00000000000E+00 0.  1.
         21    1    1    2  502  501  0.16135557106E+02  0.35344605727E+02 -0.62535227508E+03  0.62655811008E+03  0.00000000000E+00 0.  1.
<mgrwt>
<rscale>  1 0.30000000E+03</rscale>
<asrwt>0</asrwt>
<pdfrwt beam="1">  1        3 0.59019456E-02 0.30000000E+03</pdfrwt>
<pdfrwt beam="2">0</pdfrwt>
<totfact> 0.76511344E+02</totfact>
</mgrwt>
</event>
<event>
 6    1  0.3125838E-002  0.3000000E+03  0.7818608E-02  0.1093470E+00
          1   -1    0    0  502    0  0.00000000000E+00  0.00000000000E+00  0.28510559132E+01  0.28510559132E+01  0.00000000000E+00 0.  1.
         13   -1    0    0    0    0 -0.00000000000E+00 -0.00000000000E+00 -0.10000000000E+04  0.10000000000E+04  0.00000000000E+00 0.  1.
    9000005    2    1    2  501    0 -0.13430859769E+02 -0.27955137766E+02 -0.90665331468E+03  0.90718843697E+03  0.29579431242E+01 0.  0.
         13    1    3    3    0    0 -0.51938507752E+01 -0.84418367374E+01 -0.26287822389E+03  0.26306501343E+03  0.00000000000E+00 0.  1.
          3    1    3    3  501    0 -0.82370089939E+01 -0.19513301029E+02 -0.64377509079E+03  0.64412342354E+03  0.00000000000E+00 0.  1.
         21    1    1    2  502  501  0.13430859769E+02  0.27955137766E+02 -0.90495629409E+02  0.95662618946E+02  0.00000000000E+00 0.  1.
<mgrwt>
<rscale>  1 0.30000000E+03</rscale>
<asrwt>0</asrwt>
<pdfrwt beam="1">  1        1 0.10367498E-01 0.30000000E+03</pdfrwt>
<pdfrwt beam="2">0</pdfrwt>
<totfact> 0.71904200E+02</totfact>
</mgrwt>
</event>
<event>
 6    1  0.3125838E-002  0.3000000E+03  0.7818608E-02  0.1093470E+00
          1   -1    0    0  502    0  0.00000000000E+00  0.00000000000E+00  0.12411521042E+02  0.12411521042E+02  0.00000000000E+00 0.  1.
         13   -1    0    0    0    0 -0.00000000000E+00 -0.00000000000E+00 -0.10000000000E+04  0.10000000000E+04  0.00000000000E+00 0.  1.
    9000005    2    1    2  501    0 -0.60106119037E+02 -0.59694886162E+01 -0.91911883292E+03  0.92110723435E+03  0.32753322317E+01 0.  0.
         13    1    3    3    0    0 -0.56823347044E+02 -0.62708695820E+01 -0.87476211948E+03  0.87662818929E+03  0.00000000000E+00 0.  1.
          1    1    3    3  501    0 -0.32827719931E+01  0.30138096580E+00 -0.44356713437E+02  0.44479045059E+02  0.00000000000E+00 0.  1.
         21    1    1    2  502  501  0.60106119037E+02  0.59694886162E+01 -0.68469646038E+02  0.91304286693E+02  0.00000000000E+00 0.  1.
<mgrwt>
<rscale>  1 0.30000000E+03</rscale>
<asrwt>0</asrwt>
<pdfrwt beam="1">  1        1 0.45132899E-01 0.30000000E+03</pdfrwt>
<pdfrwt beam="2">0</pdfrwt>
<totfact> 0.10092968E+02</totfact>
</mgrwt>
</event>
<event>
 6    1  0.3125838E-002  0.3000000E+03  0.7818608E-02  0.1093470E+00
          3   -1    0    0  502    0  0.00000000000E+00  0.00000000000E+00  0.10295978926E+02  0.10295978926E+02  0.00000000000E+00 0.  1.
         13   -1    0    0    0    0 -0.00000000000E+00 -0.00000000000E+00 -0.10000000000E+04  0.10000000000E+04  0.00000000000E+00 0.  1.
    9000005    2    1    2  501    0 -0.74579000117E+02  0.49093456421E+02 -0.73455087138E+03  0.73997149887E+03  0.45433209796E+01 0.  0.
         13    1    3    3    0    0 -0.71090358284E+00  0.21208394211E+00 -0.97638361554E+01  0.97919793694E+01  0.00000000000E+00 0.  1.
          3    1    3    3  501    0 -0.73868096534E+02  0.48881372479E+02 -0.72478703523E+03  0.73017951950E+03  0.00000000000E+00 0.  1.
         21    1    1    2  502  501  0.74579000117E+02 -0.49093456421E+02 -0.25515314969E+03  0.27032448006E+03  0.00000000000E+00 0.  1.
<mgrwt>
<rscale>  1 0.30000000E+03</rscale>
<asrwt>0</asrwt>
<pdfrwt beam="1">  1        3 0.37440002E-01 0.30000000E+03</pdfrwt>
<pdfrwt beam="2">0</pdfrwt>
<totfact> 0.30588333E+01</totfact>
</mgrwt>
</event>
<event>
 6    1  0.3125838E-002  0.3000000E+03  0.7818608E-02  0.1093470E+00
          1   -1    0    0  502    0  0.00000000000E+00  0.00000000000E+00  0.18718435509E+01  0.18718435509E+01  0.00000000000E+00 0.  1.
         13   -1    0    0    0    0 -0.00000000000E+00 -0.00000000000E+00 -0.10000000000E+04  0.10000000000E+04  0.00000000000E+00 0.  1.
    9000005    2    1    2  501    0  0.21462379174E+02  0.27484351659E+02 -0.79489930351E+03  0.79567293479E+03  0.38069851180E+01 0.  0.
         13    1    3    3    0    0  0.88625062510E+01  0.84048359987E+01 -0.27763332401E+03  0.27790186737E+03  0.00000000000E+00 0.  1.
          1    1    3    3  501    0  0.12599872923E+02  0.19079515661E+02 -0.51726597949E+03  0.51777106742E+03  0.00000000000E+00 0.  1.
         21    1    1    2  502  501 -0.21462379174E+02 -0.27484351659E+02 -0.20322885294E+03  0.20619890876E+03  0.00000000000E+00 0.  1.
<mgrwt>
<rscale>  1 0.30000000E+03</rscale>
<asrwt>0</asrwt>
<pdfrwt beam="1">  1        1 0.68067182E-02 0.30000000E+03</pdfrwt>
<pdfrwt beam="2">0</pdfrwt>
<totfact> 0.12903731E+03</totfact>
</mgrwt>
</event>
<event>
 6    1  0.3125838E-002  0.3000000E+03  0.7818608E-02  0.1093470E+00
          1   -1    0    0  502    0  0.00000000000E+00  0.00000000000E+00  0.21368023932E+02  0.21368023932E+02  0.00000000000E+00 0.  1.
         13   -1    0    0    0    0 -0.00000000000E+00 -0.00000000000E+00 -0.10000000000E+04  0.10000000000E+04  0.00000000000E+00 0.  1.
    9000005    2    1    2  501    0  0.71341750879E+02  0.11214242446E+02 -0.93325868251E+03  0.93607945248E+03  0.75873725110E+01 0.  0.
         13    1    3    3    0    0  0.59564692173E+02  0.10725627770E+02 -0.81027706123E+03  0.81253425010E+03  0.00000000000E+00 0.  1.
          1    1    3    3  501    0  0.11777058706E+02  0.48861467606E+00 -0.12298162128E+03  0.12354520237E+03  0.00000000000E+00 0.  1.
         21    1    1    2  502  501 -0.71341750879E+02 -0.11214242446E+02 -0.45373293560E+02  0.85288571454E+02  0.00000000000E+00 0.  1.
<mgrwt>
<rscale>  1 0.30000000E+03</rscale>
<asrwt>0</asrwt>
<pdfrwt beam="1">  1        1 0.77702069E-01 0.30000000E+03</pdfrwt>
<pdfrwt beam="2">0</pdfrwt>
<totfact> 0.48892109E+01</totfact>
</mgrwt>
</event>
<event>
 6    1  0.3125838E-002  0.3000000E+03  0.7818608E-02  0.1093470E+00
          1   -1    0    0  502    0  0.00000000000E+00  0.00000000000E+00  0.12047898660E+01  0.12047898660E+01  0.00000000000E+00 0.  1.
         13   -1    0    0    0    0 -0.00000000000E+00 -0.00000000000E+00 -0.10000000000E+04  0.10000000000E+04  0.00000000000E+00 0.  1.
    9000005    2    1    2  501    0  0.10432998601E+02 -0.32939148991E+02 -0.46618957147E+03  0.46747957842E+03  0.32564853042E+01 0.  0.
         13    1    3    3    0    0  0.34357901129E+00 -0.37575663779E+01 -0.43112094124E+02  0.43276899281E+02  0.00000000000E+00 0.  1.
          3    1    3    3  501    0  0.10089419590E+02 -0.29181582613E+02 -0.42307747735E+03  0.42420267914E+03  0.00000000000E+00 0.  1.
         21    1    1    2  502  501 -0.10432998601E+02  0.32939148991E+02 -0.53260563866E+03  0.53372521144E+03  0.00000000000E+00 0.  1.
<mgrwt>
<rscale>  1 0.30000000E+03</rscale>
<asrwt>0</asrwt>
<pdfrwt beam="1">  1        1 0.43810633E-02 0.30000000E+03</pdfrwt>
<pdfrwt beam="2">0</pdfrwt>
<totfact> 0.23955189E+03</totfact>
</mgrwt>
</event>
<event>
 6    1  0.3125838E-002  0.3000000E+03  0.7818608E-02  0.1093470E+00
          1   -1    0    0  502    0  0.00000000000E+00  0.00000000000E+00  0.34961845673E+01  0.34961845673E+01  0.00000000000E+00 0.  1.
         13   -1    0    0    0    0 -0.00000000000E+00 -0.00000000000E+00 -0.10000000000E+04  0.10000000000E+04  0.00000000000E+00 0.  1.
    9000005    2    1    2  501    0  0.36564957455E+02 -0.45287031153E+02 -0.58455383554E+03  0.58745448325E+03  0.34164217516E+01 0.  0.
         13    1    3    3    0    0  0.25183097218E+02 -0.29080015384E+02 -0.39513365907E+03  0.39700181890E+03  0.00000000000E+00 0.  1.
          1    1    3    3  501    0  0.11381860237E+02 -0.16207015769E+02 -0.18942017647E+03  0.19045266435E+03  0.00000000000E+00 0.  1.
         21    1    1    2  502  501 -0.36564957455E+02  0.45287031153E+02 -0.41194997989E+03  0.41604170132E+03  0.00000000000E+00 0.  1.
<mgrwt>
<rscale>  1 0.30000000E+03</rscale>
<asrwt>0</asrwt>
<pdfrwt beam="1">  1        1 0.12713425E-01 0.30000000E+03</pdfrwt>
<pdfrwt beam="2">0</pdfrwt>
<totfact> 0.54344587E+02</totfact>
</mgrwt>
</event>
<event>
 6    1  0.3125838E-002  0.3000000E+03  0.7818608E-02  0.1093470E+00
          3   -1    0    0  502    0  0.00000000000E+00  0.00000000000E+00  0.16446291905E+01  0.16446291905E+01  0.00000000000E+00 0.  1.
         13   -1    0    0    0    0 -0.00000000000E+00 -0.00000000000E+00 -0.10000000000E+04  0.10000000000E+04  0.00000000000E+00 0.  1.
    9000005    2    1    2  501    0 -0.71028756441E+01  0.37941983759E+02 -0.64887487050E+03  0.65003879153E+03  0.46677580331E+01 0.  0.
         13    1    3    3    0    0 -0.20268777082E+01  0.23231165127E+02 -0.38695170259E+03  0.38765373131E+03  0.00000000000E+00 0.  1.
          1    1    3    3  501    0 -0.50759979358E+01  0.14710818632E+02 -0.26192316791E+03  0.26238506022E+03  0.00000000000E+00 0.  1.
         21    1    1    2  502  501  0.71028756441E+01 -0.37941983759E+02 -0.34948050031E+03  0.35160583766E+03  0.00000000000E+00 0.  1.
<mgrwt>
<rscale>  1 0.30000000E+03</rscale>
<asrwt>0</asrwt>
<pdfrwt beam="1">  1        3 0.59804824E-02 0.30000000E+03</pdfrwt>
<pdfrwt beam="2">0</pdfrwt>
<totfact> 0.74950493E+02</totfact>
</mgrwt>
</event>
<event>
 6    1  0.3125838E-002  0.3000000E+03  0.7818608E-02  0.1093470E+00
          3   -1    0    0  502    0  0.00000000000E+00  0.00000000000E+00  0.31483889809E+01  0.31483889809E+01  0.00000000000E+00 0.  1.
         13   -1    0    0    0    0 -0.00000000000E+00 -0.00000000000E+00 -0.10000000000E+04  0.10000000000E+04  0.00000000000E+00 0.  1.
    9000005    2    1    2  501    0 -0.29506209482E+02  0.37766409931E+02 -0.75879742923E+03  0.76031776574E+03  0.35564271820E+01 0.  0.
         13    1    3    3    0    0 -0.28209137341E+01  0.36758759897E+01 -0.91734254502E+02  0.91851200687E+02  0.00000000000E+00 0.  1.
          1    1    3    3  501    0 -0.26685295748E+02  0.34090533941E+02 -0.66706317473E+03  0.66846656506E+03  0.00000000000E+00 0.  1.
         21    1    1    2  502  501  0.29506209482E+02 -0.37766409931E+02 -0.23805418178E+03  0.24283062324E+03  0.00000000000E+00 0.  1.
<mgrwt>
<rscale>  1 0.30000000E+03</rscale>
<asrwt>0</asrwt>
<pdfrwt beam="1">  1        3 0.11448711E-01 0.30000000E+03</pdfrwt>
<pdfrwt beam="2">0</pdfrwt>
<totfact> 0.26367359E+02</totfact>
</mgrwt>
</event>
<event>
 6    1  0.3125838E-002  0.3000000E+03  0.7818608E-02  0.1093470E+00
          1   -1    0    0  502    0  0.00000000000E+00  0.00000000000E+00  0.19956663475E+01  0.19956663475E+01  0.00000000000E+00 0.  1.
         13   -1    0    0    0    0 -0.00000000000E+00 -0.00000000000E+00 -0.10000000000E+04  0.10000000000E+04  0.00000000000E+00 0.  1.
    9000005    2    1    2  501    0  0.49537965988E+01  0.34305812607E+02 -0.81464790587E+03  0.81539178512E+03  0.33352400544E+01 0.  0.
         13    1    3    3    0    0  0.27992687218E+01  0.96273559032E+01 -0.22142629587E+03  0.22165316689E+03  0.00000000000E+00 0.  1.
          1    1    3    3  501    0  0.21545278770E+01  0.24678456704E+02 -0.59322161000E+03  0.59373861824E+03  0.00000000000E+00 0.  1.
         21    1    1    2  502  501 -0.49537965988E+01 -0.34305812607E+02 -0.18335642778E+03  0.18660388122E+03  0.00000000000E+00 0.  1.
<mgrwt>
<rscale>  1 0.30000000E+03</rscale>
<asrwt>0</asrwt>
<pdfrwt beam="1">  1        1 0.72569838E-02 0.30000000E+03</pdfrwt>
<pdfrwt beam="2">0</pdfrwt>
<totfact> 0.11798326E+03</totfact>
</mgrwt>
</event>
<event>
 6    1  0.3125838E-002  0.3000000E+03  0.7818608E-02  0.1093470E+00
          1   -1    0    0  502    0  0.00000000000E+00  0.00000000000E+00  0.19244196569E+01  0.19244196569E+01  0.00000000000E+00 0.  1.
         13   -1    0    0    0    0 -0.00000000000E+00 -0.00000000000E+00 -0.10000000000E+04  0.10000000000E+04  0.00000000000E+00 0.  1.
    9000005    2    1    2  501    0  0.26422798927E+02  0.34866321653E+02 -0.52313213040E+03  0.52497043306E+03  0.35923585016E+01 0.  0.
         13    1    3    3    0    0  0.32461234678E+01  0.64548521586E+01 -0.83599585461E+02  0.83911221676E+02  0.00000000000E+00 0.  1.
          3    1    3    3  501    0  0.23176675459E+02  0.28411469494E+02 -0.43953254494E+03  0.44105921138E+03  0.00000000000E+00 0.  1.
         21    1    1    2  502  501 -0.26422798927E+02 -0.34866321653E+02 -0.47494344994E+03  0.47695398660E+03  0.00000000000E+00 0.  1.
<mgrwt>
<rscale>  1 0.30000000E+03</rscale>
<asrwt>0</asrwt>
<pdfrwt beam="1">  1        1 0.69979044E-02 0.30000000E+03</pdfrwt>
<pdfrwt beam="2">0</pdfrwt>
<totfact> 0.12413310E+03</totfact>
</mgrwt>
</event>
<event>
 6    1  0.3125838E-002  0.3000000E+03  0.7818608E-02  0.1093470E+00
          1   -1    0    0  502    0  0.00000000000E+00  0.00000000000E+00  0.17357248924E+01  0.17357248924E+01  0.00000000000E+00 0.  1.
         13   -1    0    0    0    0 -0.00000000000E+00 -0.00000000000E+00 -0.10000000000E+04  0.10000000000E+04  0.00000000000E+00 0.  1.
    9000005    2    1    2  501    0 -0.74747509896E+01 -0.36722384274E+02 -0.71710842560E+03  0.71809331424E+03  0.30180256410E+01 0.  0.
         13    1    3    3    0    0 -0.94545197776E+00 -0.51328403310E+01 -0.81581446654E+02  0.81748225470E+02  0.00000000000E+00 0.  1.
          3    1    3    3  501    0 -0.65292990118E+01 -0.31589543943E+02 -0.63552697895E+03  0.63634508877E+03  0.00000000000E+00 0.  1.
         21    1    1    2  502  501  0.74747509896E+01  0.36722384274E+02 -0.28115584951E+03  0.28364241065E+03  0.00000000000E+00 0.  1.
<mgrwt>
<rscale>  1 0.30000000E+03</rscale>
<asrwt>0</asrwt>
<pdfrwt beam="1">  1        1 0.63117402E-02 0.30000000E+03</pdfrwt>
<pdfrwt beam="2">0</pdfrwt>
<totfact> 0.14342741E+03</totfact>
</mgrwt>
</event>
<event>
 6    1  0.3125838E-002  0.3000000E+03  0.7818608E-02  0.1093470E+00
          3   -1    0    0  502    0  0.00000000000E+00  0.00000000000E+00  0.28007258303E+01  0.28007258303E+01  0.00000000000E+00 0.  1.
         13   -1    0    0    0    0 -0.00000000000E+00 -0.00000000000E+00 -0.10000000000E+04  0.10000000000E+04  0.00000000000E+00 0.  1.
    9000005    2    1    2  501    0  0.29472438145E+02  0.35454598043E+02 -0.74423963785E+03  0.74567384909E+03  0.33462732475E+01 0.  0.
         13    1    3    3    0    0  0.14805739486E+02  0.20046693284E+02 -0.41534355463E+03  0.41609055289E+03  0.00000000000E+00 0.  1.
          3    1    3    3  501    0  0.14666698658E+02  0.15407904759E+02 -0.32889608322E+03  0.32958329620E+03  0.00000000000E+00 0.  1.
         21    1    1    2  502  501 -0.29472438145E+02 -0.35454598043E+02 -0.25295963632E+03  0.25712687674E+03  0.00000000000E+00 0.  1.
<mgrwt>
<rscale>  1 0.30000000E+03</rscale>
<asrwt>0</asrwt>
<pdfrwt beam="1">  1        3 0.10184479E-01 0.30000000E+03</pdfrwt>
<pdfrwt beam="2">0</pdfrwt>
<totfact> 0.32043047E+02</totfact>
</mgrwt>
</event>
<event>
 6    1  0.3125838E-002  0.3000000E+03  0.7818608E-02  0.1093470E+00
          1   -1    0    0  502    0  0.00000000000E+00  0.00000000000E+00  0.18500495319E+01  0.18500495319E+01  0.00000000000E+00 0.  1.
         13   -1    0    0    0    0 -0.00000000000E+00 -0.00000000000E+00 -0.10000000000E+04  0.10000000000E+04  0.00000000000E+00 0.  1.
    9000005    2    1    2  501    0 -0.30709260332E+02  0.28353987334E+02 -0.61549038108E+03  0.61691453115E+03  0.28499603191E+01 0.  0.
         13    1    3    3    0    0 -0.29436656004E+02  0.27493445705E+02 -0.59900548177E+03  0.60035820429E+03  0.00000000000E+00 0.  1.
          1    1    3    3  501    0 -0.12726043273E+01  0.86054162892E+00 -0.16484899308E+02  0.16556326853E+02  0.00000000000E+00 0.  1.
         21    1    1    2  502  501  0.30709260332E+02 -0.28353987334E+02 -0.38265956939E+03  0.38493551838E+03  0.00000000000E+00 0.  1.
<mgrwt>
<rscale>  1 0.30000000E+03</rscale>
<asrwt>0</asrwt>
<pdfrwt beam="1">  1        1 0.67274670E-02 0.30000000E+03</pdfrwt>
<pdfrwt beam="2">0</pdfrwt>
<totfact> 0.13116954E+03</totfact>
</mgrwt>
</event>
<event>
 6    1  0.3125838E-002  0.3000000E+03  0.7818608E-02  0.1093470E+00
          1   -1    0    0  502    0  0.00000000000E+00  0.00000000000E+00  0.41169848361E+01  0.41169848361E+01  0.00000000000E+00 0.  1.
         13   -1    0    0    0    0 -0.00000000000E+00 -0.00000000000E+00 -0.10000000000E+04  0.10000000000E+04  0.00000000000E+00 0.  1.
    9000005    2    1    2  501    0 -0.32416459633E+02  0.55304468797E+02 -0.48915665053E+03  0.49335185316E+03  0.35229436122E+01 0.  0.
         13    1    3    3    0    0 -0.71728241373E+01  0.11356339521E+02 -0.11334370238E+03  0.11413680705E+03  0.00000000000E+00 0.  1.
          1    1    3    3  501    0 -0.25243635496E+02  0.43948129276E+02 -0.37581294815E+03  0.37921504611E+03  0.00000000000E+00 0.  1.
         21    1    1    2  502  501  0.32416459633E+02 -0.55304468797E+02 -0.50672636464E+03  0.51076513168E+03  0.00000000000E+00 0.  1.
<mgrwt>
<rscale>  1 0.30000000E+03</rscale>
<asrwt>0</asrwt>
<pdfrwt beam="1">  1        1 0.14970886E-01 0.30000000E+03</pdfrwt>
<pdfrwt beam="2">0</pdfrwt>
<totfact> 0.43495058E+02</totfact>
</mgrwt>
</event>
<event>
 6    1  0.3125838E-002  0.3000000E+03  0.7818608E-02  0.1093470E+00
          1   -1    0    0  502    0  0.00000000000E+00  0.00000000000E+00  0.16943257637E+01  0.16943257637E+01  0.00000000000E+00 0.  1.
         13   -1    0    0    0    0 -0.00000000000E+00 -0.00000000000E+00 -0.10000000000E+04  0.10000000000E+04  0.00000000000E+00 0.  1.
    9000005    2    1    2  501    0  0.22039173168E+02 -0.34235368054E+02 -0.43085477990E+03  0.43278457627E+03  0.29769984246E+01 0.  0.
         13    1    3    3    0    0  0.11892289937E+02 -0.19680816931E+02 -0.22905350255E+03  0.23020483954E+03  0.00000000000E+00 0.  1.
          1    1    3    3  501    0  0.10146883230E+02 -0.14554551123E+02 -0.20180127734E+03  0.20257973673E+03  0.00000000000E+00 0.  1.
         21    1    1    2  502  501 -0.22039173168E+02  0.34235368054E+02 -0.56745089434E+03  0.56890974949E+03  0.00000000000E+00 0.  1.
<mgrwt>
<rscale>  1 0.30000000E+03</rscale>
<asrwt>0</asrwt>
<pdfrwt beam="1">  1        1 0.61611976E-02 0.30000000E+03</pdfrwt>
<pdfrwt beam="2">0</pdfrwt>
<totfact> 0.14836411E+03</totfact>
</mgrwt>
</event>
<event>
 6    1  0.3125838E-002  0.3000000E+03  0.7818608E-02  0.1093470E+00
          1   -1    0    0  502    0  0.00000000000E+00  0.00000000000E+00  0.50669455667E+01  0.50669455667E+01  0.00000000000E+00 0.  1.
         13   -1    0    0    0    0 -0.00000000000E+00 -0.00000000000E+00 -0.10000000000E+04  0.10000000000E+04  0.00000000000E+00 0.  1.
    9000005    2    1    2  501    0 -0.37242249024E+02 -0.25838333768E+02 -0.88486833856E+03  0.88603398255E+03  0.31043587650E+01 0.  0.
         13    1    3    3    0    0 -0.12779475836E+02 -0.71355498640E+01 -0.29067033185E+03  0.29103861065E+03  0.00000000000E+00 0.  1.
          3    1    3    3  501    0 -0.24462773187E+02 -0.18702783904E+02 -0.59419800671E+03  0.59499537190E+03  0.00000000000E+00 0.  1.
         21    1    1    2  502  501  0.37242249024E+02  0.25838333768E+02 -0.11006471587E+03  0.11903296302E+03  0.00000000000E+00 0.  1.
<mgrwt>
<rscale>  1 0.30000000E+03</rscale>
<asrwt>0</asrwt>
<pdfrwt beam="1">  1        1 0.18425295E-01 0.30000000E+03</pdfrwt>
<pdfrwt beam="2">0</pdfrwt>
<totfact> 0.32861330E+02</totfact>
</mgrwt>
</event>
<event>
 6    1  0.3125838E-002  0.3000000E+03  0.7818608E-02  0.1093470E+00
          1   -1    0    0  502    0  0.00000000000E+00  0.00000000000E+00  0.99466271065E+00  0.99466271065E+00  0.00000000000E+00 0.  1.
         13   -1    0    0    0    0 -0.00000000000E+00 -0.00000000000E+00 -0.10000000000E+04  0.10000000000E+04  0.00000000000E+00 0.  1.
    9000005    2    1    2  501    0 -0.24184150044E+02 -0.20086049374E+02 -0.47898134199E+03  0.48002126782E+03  0.29948448724E+01 0.  0.
         13    1    3    3    0    0 -0.24198098398E+02 -0.19915137879E+02 -0.47789370709E+03  0.47892019790E+03  0.00000000000E+00 0.  1.
          3    1    3    3  501    0  0.13948353386E-01 -0.17091149554E+00 -0.10876349023E+01  0.11010699236E+01  0.00000000000E+00 0.  1.
         21    1    1    2  502  501  0.24184150044E+02  0.20086049374E+02 -0.52002399530E+03  0.52097339489E+03  0.00000000000E+00 0.  1.
<mgrwt>
<rscale>  1 0.30000000E+03</rscale>
<asrwt>0</asrwt>
<pdfrwt beam="1">  1        1 0.36169629E-02 0.30000000E+03</pdfrwt>
<pdfrwt beam="2">0</pdfrwt>
<totfact> 0.31374115E+03</totfact>
</mgrwt>
</event>
<event>
 6    1  0.3125838E-002  0.3000000E+03  0.7818608E-02  0.1093470E+00
          3   -1    0    0  502    0  0.00000000000E+00  0.00000000000E+00  0.11567272897E+01  0.11567272897E+01  0.00000000000E+00 0.  1.
         13   -1    0    0    0    0 -0.00000000000E+00 -0.00000000000E+00 -0.10000000000E+04  0.10000000000E+04  0.00000000000E+00 0.  1.
    9000005    2    1    2  501    0 -0.79592000576E+01 -0.31782861812E+02 -0.36989048688E+03  0.37135111762E+03  0.30300331971E+01 0.  0.
         13    1    3    3    0    0 -0.14273843684E+01 -0.54457154862E+01 -0.77503562146E+02  0.77707756296E+02  0.00000000000E+00 0.  1.
          1    1    3    3  501    0 -0.65318156892E+01 -0.26337146326E+02 -0.29238692473E+03  0.29364336132E+03  0.00000000000E+00 0.  1.
         21    1    1    2  502  501  0.79592000576E+01  0.31782861812E+02 -0.62895278583E+03  0.62980560967E+03  0.00000000000E+00 0.  1.
<mgrwt>
<rscale>  1 0.30000000E+03</rscale>
<asrwt>0</asrwt>
<pdfrwt beam="1">  1        3 0.42062899E-02 0.30000000E+03</pdfrwt>
<pdfrwt beam="2">0</pdfrwt>
<totfact> 0.12915381E+03</totfact>
</mgrwt>
</event>
<event>
 6    1  0.3125838E-002  0.3000000E+03  0.7818608E-02  0.1093470E+00
          1   -1    0    0  502    0  0.00000000000E+00  0.00000000000E+00  0.23123115023E+01  0.23123115023E+01  0.00000000000E+00 0.  1.
         13   -1    0    0    0    0 -0.00000000000E+00 -0.00000000000E+00 -0.10000000000E+04  0.10000000000E+04  0.00000000000E+00 0.  1.
    9000005    2    1    2  501    0 -0.32837533784E+02 -0.29569277808E+02 -0.30437074425E+03  0.30758860312E+03  0.40685372797E+01 0.  0.
         13    1    3    3    0    0 -0.28393442687E+02 -0.25532352831E+02 -0.25237780248E+03  0.25525015928E+03  0.00000000000E+00 0.  1.
          3    1    3    3  501    0 -0.44440910962E+01 -0.40369249769E+01 -0.51992941770E+02  0.52338443833E+02  0.00000000000E+00 0.  1.
         21    1    1    2  502  501  0.32837533784E+02  0.29569277808E+02 -0.69331694424E+03  0.69472370838E+03  0.00000000000E+00 0.  1.
<mgrwt>
<rscale>  1 0.30000000E+03</rscale>
<asrwt>0</asrwt>
<pdfrwt beam="1">  1        1 0.84084232E-02 0.30000000E+03</pdfrwt>
<pdfrwt beam="2">0</pdfrwt>
<totfact> 0.96092359E+02</totfact>
</mgrwt>
</event>
<event>
 6    1  0.3125838E-002  0.3000000E+03  0.7818608E-02  0.1093470E+00
          3   -1    0    0  502    0  0.00000000000E+00  0.00000000000E+00  0.71709016147E+01  0.71709016147E+01  0.00000000000E+00 0.  1.
         13   -1    0    0    0    0 -0.00000000000E+00 -0.00000000000E+00 -0.10000000000E+04  0.10000000000E+04  0.00000000000E+00 0.  1.
    9000005    2    1    2  501    0  0.26277850265E+02  0.43813624414E+02 -0.89795833516E+03  0.89941831087E+03  0.37372626870E+01 0.  0.
         13    1    3    3    0    0  0.21970030234E+01  0.59475919839E+01 -0.10509420788E+03  0.10528529433E+03  0.00000000000E+00 0.  1.
          1    1    3    3  501    0  0.24080847241E+02  0.37866032430E+02 -0.79286412728E+03  0.79413301653E+03  0.00000000000E+00 0.  1.
         21    1    1    2  502  501 -0.26277850265E+02 -0.43813624414E+02 -0.94870763222E+02  0.10775259075E+03  0.00000000000E+00 0.  1.
<mgrwt>
<rscale>  1 0.30000000E+03</rscale>
<asrwt>0</asrwt>
<pdfrwt beam="1">  1        3 0.26076061E-01 0.30000000E+03</pdfrwt>
<pdfrwt beam="2">0</pdfrwt>
<totfact> 0.60969975E+01</totfact>
</mgrwt>
</event>
<event>
 6    1  0.3125838E-002  0.3000000E+03  0.7818608E-02  0.1093470E+00
          1   -1    0    0  502    0  0.00000000000E+00  0.00000000000E+00  0.22754408955E+02  0.22754408955E+02  0.00000000000E+00 0.  1.
         13   -1    0    0    0    0 -0.00000000000E+00 -0.00000000000E+00 -0.10000000000E+04  0.10000000000E+04  0.00000000000E+00 0.  1.
    9000005    2    1    2  501    0 -0.32275532517E+02  0.24571007166E+02 -0.98115851775E+03  0.98200204230E+03  0.32449577999E+01 0.  0.
         13    1    3    3    0    0 -0.18463905227E+02  0.15680157758E+02 -0.60694057358E+03  0.60742377546E+03  0.00000000000E+00 0.  1.
          3    1    3    3  501    0 -0.13811627290E+02  0.88908494076E+01 -0.37421794417E+03  0.37457826684E+03  0.00000000000E+00 0.  1.
         21    1    1    2  502  501  0.32275532517E+02 -0.24571007166E+02  0.39129267003E+01  0.40752366652E+02  0.00000000000E+00 0.  1.
<mgrwt>
<rscale>  1 0.30000000E+03</rscale>
<asrwt>0</asrwt>
<pdfrwt beam="1">  1        1 0.82743480E-01 0.30000000E+03</pdfrwt>
<pdfrwt beam="2">0</pdfrwt>
<totfact> 0.44820176E+01</totfact>
</mgrwt>
</event>
<event>
 6    1  0.3125838E-002  0.3000000E+03  0.7818608E-02  0.1093470E+00
          1   -1    0    0  502    0  0.00000000000E+00  0.00000000000E+00  0.17286750308E+01  0.17286750308E+01  0.00000000000E+00 0.  1.
         13   -1    0    0    0    0 -0.00000000000E+00 -0.00000000000E+00 -0.10000000000E+04  0.10000000000E+04  0.00000000000E+00 0.  1.
    9000005    2    1    2  501    0  0.21616025400E+02  0.32510506686E+02 -0.66996911807E+03  0.67111330235E+03  0.32030957147E+01 0.  0.
         13    1    3    3    0    0  0.94757498201E+01  0.12220398184E+02 -0.28381049284E+03  0.28423146169E+03  0.00000000000E+00 0.  1.
          1    1    3    3  501    0  0.12140275580E+02  0.20290108502E+02 -0.38615862523E+03  0.38688184066E+03  0.00000000000E+00 0.  1.
         21    1    1    2  502  501 -0.21616025400E+02 -0.32510506686E+02 -0.32830220690E+03  0.33061537268E+03  0.00000000000E+00 0.  1.
<mgrwt>
<rscale>  1 0.30000000E+03</rscale>
<asrwt>0</asrwt>
<pdfrwt beam="1">  1        1 0.62861043E-02 0.30000000E+03</pdfrwt>
<pdfrwt beam="2">0</pdfrwt>
<totfact> 0.14424788E+03</totfact>
</mgrwt>
</event>
<event>
 6    1  0.3125838E-002  0.3000000E+03  0.7818608E-02  0.1093470E+00
          1   -1    0    0  502    0  0.00000000000E+00  0.00000000000E+00  0.19381565172E+01  0.19381565172E+01  0.00000000000E+00 0.  1.
         13   -1    0    0    0    0 -0.00000000000E+00 -0.00000000000E+00 -0.10000000000E+04  0.10000000000E+04  0.00000000000E+00 0.  1.
    9000005    2    1    2  501    0 -0.19215272695E+02 -0.33262032991E+02 -0.74286386833E+03  0.74386530621E+03  0.36438125224E+01 0.  0.
         13    1    3    3    0    0 -0.48246765565E+01 -0.10233973932E+02 -0.19303639483E+03  0.19336768462E+03  0.00000000000E+00 0.  1.
          3    1    3    3  501    0 -0.14390596138E+02 -0.23028059059E+02 -0.54982747350E+03  0.55049762159E+03  0.00000000000E+00 0.  1.
         21    1    1    2  502  501  0.19215272695E+02  0.33262032991E+02 -0.25519797515E+03  0.25807285031E+03  0.00000000000E+00 0.  1.
<mgrwt>
<rscale>  1 0.30000000E+03</rscale>
<asrwt>0</asrwt>
<pdfrwt beam="1">  1        1 0.70478567E-02 0.30000000E+03</pdfrwt>
<pdfrwt beam="2">0</pdfrwt>
<totfact> 0.12290469E+03</totfact>
</mgrwt>
</event>
<event>
 6    1  0.3125838E-002  0.3000000E+03  0.7818608E-02  0.1093470E+00
          1   -1    0    0  502    0  0.00000000000E+00  0.00000000000E+00  0.21852251154E+01  0.21852251154E+01  0.00000000000E+00 0.  1.
         13   -1    0    0    0    0 -0.00000000000E+00 -0.00000000000E+00 -0.10000000000E+04  0.10000000000E+04  0.00000000000E+00 0.  1.
    9000005    2    1    2  501    0 -0.66130184106E+01  0.37360536849E+02 -0.79121902996E+03  0.79213441329E+03  0.31358613785E+01 0.  0.
         13    1    3    3    0    0 -0.54149072939E+01  0.23098624158E+02 -0.47719501038E+03  0.47778441329E+03  0.00000000000E+00 0.  1.
          1    1    3    3  501    0 -0.11981111167E+01  0.14261912691E+02 -0.31402401959E+03  0.31435000000E+03  0.00000000000E+00 0.  1.
         21    1    1    2  502  501  0.66130184106E+01 -0.37360536849E+02 -0.20659574492E+03  0.21005081182E+03  0.00000000000E+00 0.  1.
<mgrwt>
<rscale>  1 0.30000000E+03</rscale>
<asrwt>0</asrwt>
<pdfrwt beam="1">  1        1 0.79462899E-02 0.30000000E+03</pdfrwt>
<pdfrwt beam="2">0</pdfrwt>
<totfact> 0.10395476E+03</totfact>
</mgrwt>
</event>
<event>
 6    1  0.3125838E-002  0.3000000E+03  0.7818608E-02  0.1093470E+00
          3   -1    0    0  502    0  0.00000000000E+00  0.00000000000E+00  0.64023749032E+01  0.64023749032E+01  0.00000000000E+00 0.  1.
         13   -1    0    0    0    0 -0.00000000000E+00 -0.00000000000E+00 -0.10000000000E+04  0.10000000000E+04  0.00000000000E+00 0.  1.
    9000005    2    1    2  501    0 -0.63165890072E+01  0.31297218774E+02 -0.95811921331E+03  0.95867258439E+03  0.64251027990E+01 0.  0.
         13    1    3    3    0    0  0.63253869767E+00  0.60587128409E+01 -0.23732893610E+03  0.23740710187E+03  0.00000000000E+00 0.  1.
          1    1    3    3  501    0 -0.69491277049E+01  0.25238505933E+02 -0.72079027721E+03  0.72126548252E+03  0.00000000000E+00 0.  1.
         21    1    1    2  502  501  0.63165890072E+01 -0.31297218774E+02 -0.35478411789E+02  0.47729790516E+02  0.00000000000E+00 0.  1.
<mgrwt>
<rscale>  1 0.30000000E+03</rscale>
<asrwt>0</asrwt>
<pdfrwt beam="1">  1        3 0.23281412E-01 0.30000000E+03</pdfrwt>
<pdfrwt beam="2">0</pdfrwt>
<totfact> 0.75467657E+01</totfact>
</mgrwt>
</event>
<event>
 6    1  0.3125838E-002  0.3000000E+03  0.7818608E-02  0.1093470E+00
          1   -1    0    0  502    0  0.00000000000E+00  0.00000000000E+00  0.12843275160E+01  0.12843275160E+01  0.00000000000E+00 0.  1.
         13   -1    0    0    0    0 -0.00000000000E+00 -0.00000000000E+00 -0.10000000000E+04  0.10000000000E+04  0.00000000000E+00 0.  1.
    9000005    2    1    2  501    0 -0.30894355759E+02 -0.10094944219E+01 -0.75169691708E+03  0.75233906081E+03  0.32135599758E+01 0.  0.
         13    1    3    3    0    0 -0.34480166853E+01  0.83030548178E+00 -0.77075426777E+02  0.77156980495E+02  0.00000000000E+00 0.  1.
          3    1    3    3  501    0 -0.27446339073E+02 -0.18397999037E+01 -0.67462149031E+03  0.67518208031E+03  0.00000000000E+00 0.  1.
         21    1    1    2  502  501  0.30894355759E+02  0.10094944219E+01 -0.24701875540E+03  0.24894526671E+03  0.00000000000E+00 0.  1.
<mgrwt>
<rscale>  1 0.30000000E+03</rscale>
<asrwt>0</asrwt>
<pdfrwt beam="1">  1        1 0.46702917E-02 0.30000000E+03</pdfrwt>
<pdfrwt beam="2">0</pdfrwt>
<totfact> 0.21894135E+03</totfact>
</mgrwt>
</event>
<event>
 6    1  0.3125838E-002  0.3000000E+03  0.7818608E-02  0.1093470E+00
          1   -1    0    0  502    0  0.00000000000E+00  0.00000000000E+00  0.87389975195E+01  0.87389975195E+01  0.00000000000E+00 0.  1.
         13   -1    0    0    0    0 -0.00000000000E+00 -0.00000000000E+00 -0.10000000000E+04  0.10000000000E+04  0.00000000000E+00 0.  1.
    9000005    2    1    2  501    0  0.30529115328E+02  0.26342082849E+02 -0.95062554348E+03  0.95149240164E+03  0.47889721092E+01 0.  0.
         13    1    3    3    0    0  0.23840603039E+02  0.17776729780E+02 -0.69505931556E+03  0.69569521963E+03  0.00000000000E+00 0.  1.
          1    1    3    3  501    0  0.66885122890E+01  0.85653530694E+01 -0.25556622792E+03  0.25579718201E+03  0.00000000000E+00 0.  1.
         21    1    1    2  502  501 -0.30529115328E+02 -0.26342082849E+02 -0.40635459005E+02  0.57246595882E+02  0.00000000000E+00 0.  1.
<mgrwt>
<rscale>  1 0.30000000E+03</rscale>
<asrwt>0</asrwt>
<pdfrwt beam="1">  1        1 0.31778240E-01 0.30000000E+03</pdfrwt>
<pdfrwt beam="2">0</pdfrwt>
<totfact> 0.15969147E+02</totfact>
</mgrwt>
</event>
<event>
 6    1  0.3125838E-002  0.3000000E+03  0.7818608E-02  0.1093470E+00
          3   -1    0    0  502    0  0.00000000000E+00  0.00000000000E+00  0.17601808151E+02  0.17601808151E+02  0.00000000000E+00 0.  1.
         13   -1    0    0    0    0 -0.00000000000E+00 -0.00000000000E+00 -0.10000000000E+04  0.10000000000E+04  0.00000000000E+00 0.  1.
    9000005    2    1    2  501    0  0.10161774373E+02 -0.12544200037E+03 -0.65206356190E+03  0.66410509691E+03  0.31199149651E+01 0.  0.
         13    1    3    3    0    0  0.62623656618E+01 -0.77698883588E+02 -0.41181710722E+03  0.41912965003E+03  0.00000000000E+00 0.  1.
          3    1    3    3  501    0  0.38994087113E+01 -0.47743116780E+02 -0.24024645468E+03  0.24497544688E+03  0.00000000000E+00 0.  1.
         21    1    1    2  502  501 -0.10161774373E+02  0.12544200037E+03 -0.33033462995E+03  0.35349671124E+03  0.00000000000E+00 0.  1.
<mgrwt>
<rscale>  1 0.30000000E+03</rscale>
<asrwt>0</asrwt>
<pdfrwt beam="1">  1        3 0.64006710E-01 0.30000000E+03</pdfrwt>
<pdfrwt beam="2">0</pdfrwt>
<totfact> 0.10721443E+01</totfact>
</mgrwt>
</event>
<event>
 6    1  0.3125838E-002  0.3000000E+03  0.7818608E-02  0.1093470E+00
          1   -1    0    0  502    0  0.00000000000E+00  0.00000000000E+00  0.14367787928E+01  0.14367787928E+01  0.00000000000E+00 0.  1.
         13   -1    0    0    0    0 -0.00000000000E+00 -0.00000000000E+00 -0.10000000000E+04  0.10000000000E+04  0.00000000000E+00 0.  1.
    9000005    2    1    2  501    0 -0.31720327043E+02  0.92057721338E+01 -0.74409023029E+03  0.74482924092E+03  0.30662556776E+01 0.  0.
         13    1    3    3    0    0 -0.15335919841E+01  0.18564388565E+00 -0.23602302319E+02  0.23652802007E+02  0.00000000000E+00 0.  1.
          3    1    3    3  501    0 -0.30186735059E+02  0.90201282481E+01 -0.72048792797E+03  0.72117643891E+03  0.00000000000E+00 0.  1.
         21    1    1    2  502  501  0.31720327043E+02 -0.92057721338E+01 -0.25447299091E+03  0.25660753787E+03  0.00000000000E+00 0.  1.
<mgrwt>
<rscale>  1 0.30000000E+03</rscale>
<asrwt>0</asrwt>
<pdfrwt beam="1">  1        1 0.52246612E-02 0.30000000E+03</pdfrwt>
<pdfrwt beam="2">0</pdfrwt>
<totfact> 0.18700221E+03</totfact>
</mgrwt>
</event>
<event>
 6    1  0.3125838E-002  0.3000000E+03  0.7818608E-02  0.1093470E+00
          3   -1    0    0  502    0  0.00000000000E+00  0.00000000000E+00  0.46805527168E+02  0.46805527168E+02  0.00000000000E+00 0.  1.
         13   -1    0    0    0    0 -0.00000000000E+00 -0.00000000000E+00 -0.10000000000E+04  0.10000000000E+04  0.00000000000E+00 0.  1.
    9000005    2    1    2  501    0  0.65784149331E+02  0.18329959955E+03 -0.70452677989E+03  0.73095442457E+03  0.31764314573E+01 0.  0.
         13    1    3    3    0    0  0.36386073244E+02  0.10084016737E+03 -0.39370646044E+03  0.40804100612E+03  0.00000000000E+00 0.  1.
          1    1    3    3  501    0  0.29398076087E+02  0.82459432185E+02 -0.31082031945E+03  0.32291341845E+03  0.00000000000E+00 0.  1.
         21    1    1    2  502  501 -0.65784149331E+02 -0.18329959955E+03 -0.24866769294E+03  0.31585110259E+03  0.00000000000E+00 0.  1.
<mgrwt>
<rscale>  1 0.30000000E+03</rscale>
<asrwt>0</asrwt>
<pdfrwt beam="1">  1        3 0.17020228E+00 0.30000000E+03</pdfrwt>
<pdfrwt beam="2">0</pdfrwt>
<totfact> 0.48565603E-01</totfact>
</mgrwt>
</event>
<event>
 6    1  0.3125838E-002  0.3000000E+03  0.7818608E-02  0.1093470E+00
          1   -1    0    0  502    0  0.00000000000E+00  0.00000000000E+00  0.39739360725E+01  0.39739360725E+01  0.00000000000E+00 0.  1.
         13   -1    0    0    0    0 -0.00000000000E+00 -0.00000000000E+00 -0.10000000000E+04  0.10000000000E+04  0.00000000000E+00 0.  1.
    9000005    2    1    2  501    0  0.32215935800E+02 -0.48711580157E+02 -0.68672058716E+03  0.68920328541E+03  0.23063452034E+01 0.  0.
         13    1    3    3    0    0  0.78211904898E+01 -0.13650358894E+02 -0.18700414076E+03  0.18766473291E+03  0.00000000000E+00 0.  1.
          1    1    3    3  501    0  0.24394745310E+02 -0.35061221263E+02 -0.49971644641E+03  0.50153855250E+03  0.00000000000E+00 0.  1.
         21    1    1    2  502  501 -0.32215935800E+02  0.48711580157E+02 -0.30930547676E+03  0.31477065066E+03  0.00000000000E+00 0.  1.
<mgrwt>
<rscale>  1 0.30000000E+03</rscale>
<asrwt>0</asrwt>
<pdfrwt beam="1">  1        1 0.14450707E-01 0.30000000E+03</pdfrwt>
<pdfrwt beam="2">0</pdfrwt>
<totfact> 0.45635851E+02</totfact>
</mgrwt>
</event>
<event>
 6    1  0.3125838E-002  0.3000000E+03  0.7818608E-02  0.1093470E+00
          1   -1    0    0  502    0  0.00000000000E+00  0.00000000000E+00  0.25214196706E+01  0.25214196706E+01  0.00000000000E+00 0.  1.
         13   -1    0    0    0    0 -0.00000000000E+00 -0.00000000000E+00 -0.10000000000E+04  0.10000000000E+04  0.00000000000E+00 0.  1.
    9000005    2    1    2  501    0  0.32873515945E+02  0.16942505255E+02 -0.83737591548E+03  0.83820288807E+03  0.42357066603E+01 0.  0.
         13    1    3    3    0    0  0.16140929303E+02  0.59656212824E+01 -0.38061905129E+03  0.38100784827E+03  0.00000000000E+00 0.  1.
          1    1    3    3  501    0  0.16732586642E+02  0.10976883973E+02 -0.45675686419E+03  0.45719503980E+03  0.00000000000E+00 0.  1.
         21    1    1    2  502  501 -0.32873515945E+02 -0.16942505255E+02 -0.16010266485E+03  0.16431853160E+03  0.00000000000E+00 0.  1.
<mgrwt>
<rscale>  1 0.30000000E+03</rscale>
<asrwt>0</asrwt>
<pdfrwt beam="1">  1        1 0.91688181E-02 0.30000000E+03</pdfrwt>
<pdfrwt beam="2">0</pdfrwt>
<totfact> 0.85213748E+02</totfact>
</mgrwt>
</event>
<event>
 6    1  0.3125838E-002  0.3000000E+03  0.7818608E-02  0.1093470E+00
          1   -1    0    0  502    0  0.00000000000E+00  0.00000000000E+00  0.16280725510E+01  0.16280725510E+01  0.00000000000E+00 0.  1.
         13   -1    0    0    0    0 -0.00000000000E+00 -0.00000000000E+00 -0.10000000000E+04  0.10000000000E+04  0.00000000000E+00 0.  1.
    9000005    2    1    2  501    0 -0.27595914502E+02  0.29204090255E+02 -0.50970568740E+03  0.51131275814E+03  0.51415446538E+01 0.  0.
         13    1    3    3    0    0 -0.51580497378E+01  0.64312612210E+01 -0.13156630247E+03  0.13182434731E+03  0.00000000000E+00 0.  1.
          1    1    3    3  501    0 -0.22437864764E+02  0.22772829034E+02 -0.37813938493E+03  0.37948841083E+03  0.00000000000E+00 0.  1.
         21    1    1    2  502  501  0.27595914502E+02 -0.29204090255E+02 -0.48866624005E+03  0.49031531441E+03  0.00000000000E+00 0.  1.
<mgrwt>
<rscale>  1 0.30000000E+03</rscale>
<asrwt>0</asrwt>
<pdfrwt beam="1">  1        1 0.59202763E-02 0.30000000E+03</pdfrwt>
<pdfrwt beam="2">0</pdfrwt>
<totfact> 0.15690166E+03</totfact>
</mgrwt>
</event>
<event>
 6    1  0.3125838E-002  0.3000000E+03  0.7818608E-02  0.1093470E+00
          1   -1    0    0  502    0  0.00000000000E+00  0.00000000000E+00  0.54992868746E+01  0.54992868746E+01  0.00000000000E+00 0.  1.
         13   -1    0    0    0    0 -0.00000000000E+00 -0.00000000000E+00 -0.10000000000E+04  0.10000000000E+04  0.00000000000E+00 0.  1.
    9000005    2    1    2  501    0  0.26181441832E+02  0.64886315253E+02 -0.66316546362E+03  0.66685677718E+03  0.37185127289E+01 0.  0.
         13    1    3    3    0    0  0.32375520302E+01  0.11483658955E+02 -0.10804539767E+03  0.10870218086E+03  0.00000000000E+00 0.  1.
          1    1    3    3  501    0  0.22943889802E+02  0.53402656298E+02 -0.55512006595E+03  0.55815459632E+03  0.00000000000E+00 0.  1.
         21    1    1    2  502  501 -0.26181441832E+02 -0.64886315253E+02 -0.33133524951E+03  0.33864250969E+03  0.00000000000E+00 0.  1.
<mgrwt>
<rscale>  1 0.30000000E+03</rscale>
<asrwt>0</asrwt>
<pdfrwt beam="1">  1        1 0.19997449E-01 0.30000000E+03</pdfrwt>
<pdfrwt beam="2">0</pdfrwt>
<totfact> 0.29446645E+02</totfact>
</mgrwt>
</event>
<event>
 6    1  0.3125838E-002  0.3000000E+03  0.7818608E-02  0.1093470E+00
          1   -1    0    0  502    0  0.00000000000E+00  0.00000000000E+00  0.11383623229E+01  0.11383623229E+01  0.00000000000E+00 0.  1.
         13   -1    0    0    0    0 -0.00000000000E+00 -0.00000000000E+00 -0.10000000000E+04  0.10000000000E+04  0.00000000000E+00 0.  1.
    9000005    2    1    2  501    0  0.31236857979E+02  0.99584876223E+01 -0.61315788186E+03  0.61404367104E+03  0.34826826709E+01 0.  0.
         13    1    3    3    0    0  0.64432979888E+01  0.30081595000E+01 -0.15452353008E+03  0.15468705977E+03  0.00000000000E+00 0.  1.
          3    1    3    3  501    0  0.24793559990E+02  0.69503281224E+01 -0.45863435178E+03  0.45935661127E+03  0.00000000000E+00 0.  1.
         21    1    1    2  502  501 -0.31236857979E+02 -0.99584876223E+01 -0.38570375582E+03  0.38709469129E+03  0.00000000000E+00 0.  1.
<mgrwt>
<rscale>  1 0.30000000E+03</rscale>
<asrwt>0</asrwt>
<pdfrwt beam="1">  1        1 0.41395081E-02 0.30000000E+03</pdfrwt>
<pdfrwt beam="2">0</pdfrwt>
<totfact> 0.25946389E+03</totfact>
</mgrwt>
</event>
<event>
 6    1  0.3125838E-002  0.3000000E+03  0.7818608E-02  0.1093470E+00
          3   -1    0    0  502    0  0.00000000000E+00  0.00000000000E+00  0.13425825569E+01  0.13425825569E+01  0.00000000000E+00 0.  1.
         13   -1    0    0    0    0 -0.00000000000E+00 -0.00000000000E+00 -0.10000000000E+04  0.10000000000E+04  0.00000000000E+00 0.  1.
    9000005    2    1    2  501    0  0.23554938981E+02  0.27354353863E+02 -0.58084875018E+03  0.58197737386E+03  0.30491430231E+01 0.  0.
         13    1    3    3    0    0  0.38713079450E+01  0.61181568677E+01 -0.12617804137E+03  0.12638558855E+03  0.00000000000E+00 0.  1.
          3    1    3    3  501    0  0.19683631036E+02  0.21236196995E+02 -0.45467070880E+03  0.45559178530E+03  0.00000000000E+00 0.  1.
         21    1    1    2  502  501 -0.23554938981E+02 -0.27354353863E+02 -0.41780866727E+03  0.41936520870E+03  0.00000000000E+00 0.  1.
<mgrwt>
<rscale>  1 0.30000000E+03</rscale>
<asrwt>0</asrwt>
<pdfrwt beam="1">  1        3 0.48821287E-02 0.30000000E+03</pdfrwt>
<pdfrwt beam="2">0</pdfrwt>
<totfact> 0.10265041E+03</totfact>
</mgrwt>
</event>
<event>
 6    1  0.3125838E-002  0.3000000E+03  0.7818608E-02  0.1093470E+00
          1   -1    0    0  502    0  0.00000000000E+00  0.00000000000E+00  0.11580462491E+01  0.11580462491E+01  0.00000000000E+00 0.  1.
         13   -1    0    0    0    0 -0.00000000000E+00 -0.00000000000E+00 -0.10000000000E+04  0.10000000000E+04  0.00000000000E+00 0.  1.
    9000005    2    1    2  501    0  0.12834251121E+00 -0.30563749568E+02 -0.28235989050E+03  0.28402437237E+03  0.29286642278E+01 0.  0.
         13    1    3    3    0    0  0.50623013240E+00 -0.20949081664E+02 -0.18109660588E+03  0.18230496689E+03  0.00000000000E+00 0.  1.
          3    1    3    3  501    0 -0.37788762119E+00 -0.96146679042E+01 -0.10126328462E+03  0.10171940548E+03  0.00000000000E+00 0.  1.
         21    1    1    2  502  501 -0.12834251121E+00  0.30563749568E+02 -0.71648206325E+03  0.71713367388E+03  0.00000000000E+00 0.  1.
<mgrwt>
<rscale>  1 0.30000000E+03</rscale>
<asrwt>0</asrwt>
<pdfrwt beam="1">  1        1 0.42110861E-02 0.30000000E+03</pdfrwt>
<pdfrwt beam="2">0</pdfrwt>
<totfact> 0.25327595E+03</totfact>
</mgrwt>
</event>
<event>
 6    1  0.3125838E-002  0.3000000E+03  0.7818608E-02  0.1093470E+00
          1   -1    0    0  502    0  0.00000000000E+00  0.00000000000E+00  0.49362602213E+02  0.49362602213E+02  0.00000000000E+00 0.  1.
         13   -1    0    0    0    0 -0.00000000000E+00 -0.00000000000E+00 -0.10000000000E+04  0.10000000000E+04  0.00000000000E+00 0.  1.
    9000005    2    1    2  501    0 -0.13199044600E+03  0.16792796177E+03 -0.61965266659E+03  0.65544361249E+03  0.39526899353E+01 0.  0.
         13    1    3    3    0    0 -0.14472962482E+02  0.17950647138E+02 -0.63312597027E+02  0.67380837913E+02  0.00000000000E+00 0.  1.
          1    1    3    3  501    0 -0.11751748352E+03  0.14997731463E+03 -0.55634006957E+03  0.58806277458E+03  0.00000000000E+00 0.  1.
         21    1    1    2  502  501  0.13199044600E+03 -0.16792796177E+03 -0.33098473119E+03  0.39391898972E+03  0.00000000000E+00 0.  1.
<mgrwt>
<rscale>  1 0.30000000E+03</rscale>
<asrwt>0</asrwt>
<pdfrwt beam="1">  1        1 0.17950075E+00 0.30000000E+03</pdfrwt>
<pdfrwt beam="2">0</pdfrwt>
<totfact> 0.12845696E+01</totfact>
</mgrwt>
</event>
<event>
 6    1  0.3125838E-002  0.3000000E+03  0.7818608E-02  0.1093470E+00
          1   -1    0    0  502    0  0.00000000000E+00  0.00000000000E+00  0.20808209653E+01  0.20808209653E+01  0.00000000000E+00 0.  1.
         13   -1    0    0    0    0 -0.00000000000E+00 -0.00000000000E+00 -0.10000000000E+04  0.10000000000E+04  0.00000000000E+00 0.  1.
    9000005    2    1    2  501    0  0.16412727153E+01 -0.44187425310E+02 -0.61988580308E+03  0.62147018571E+03  0.34000791224E+01 0.  0.
         13    1    3    3    0    0  0.28916676769E+00 -0.30015578134E+02 -0.43901765586E+03  0.44004263510E+03  0.00000000000E+00 0.  1.
          3    1    3    3  501    0  0.13521059476E+01 -0.14171847176E+02 -0.18086814721E+03  0.18142755061E+03  0.00000000000E+00 0.  1.
         21    1    1    2  502  501 -0.16412727153E+01  0.44187425310E+02 -0.37803337596E+03  0.38061063526E+03  0.00000000000E+00 0.  1.
<mgrwt>
<rscale>  1 0.30000000E+03</rscale>
<asrwt>0</asrwt>
<pdfrwt beam="1">  1        1 0.75666376E-02 0.30000000E+03</pdfrwt>
<pdfrwt beam="2">0</pdfrwt>
<totfact> 0.11129677E+03</totfact>
</mgrwt>
</event>
<event>
 6    1  0.3125838E-002  0.3000000E+03  0.7818608E-02  0.1093470E+00
          3   -1    0    0  502    0  0.00000000000E+00  0.00000000000E+00  0.18428909352E+01  0.18428909352E+01  0.00000000000E+00 0.  1.
         13   -1    0    0    0    0 -0.00000000000E+00 -0.00000000000E+00 -0.10000000000E+04  0.10000000000E+04  0.00000000000E+00 0.  1.
    9000005    2    1    2  501    0  0.23041986102E+02 -0.20659942236E+02 -0.84582209246E+03  0.84639603950E+03  0.36711378743E+01 0.  0.
         13    1    3    3    0    0  0.43684226969E+01 -0.35662139876E+01 -0.19568758559E+03  0.19576882324E+03  0.00000000000E+00 0.  1.
          3    1    3    3  501    0  0.18673563405E+02 -0.17093728248E+02 -0.65013450687E+03  0.65062721626E+03  0.00000000000E+00 0.  1.
         21    1    1    2  502  501 -0.23041986102E+02  0.20659942236E+02 -0.15233501660E+03  0.15544685143E+03  0.00000000000E+00 0.  1.
<mgrwt>
<rscale>  1 0.30000000E+03</rscale>
<asrwt>0</asrwt>
<pdfrwt beam="1">  1        3 0.67014357E-02 0.30000000E+03</pdfrwt>
<pdfrwt beam="2">0</pdfrwt>
<totfact> 0.62730030E+02</totfact>
</mgrwt>
</event>
<event>
 6    1  0.3125838E-002  0.3000000E+03  0.7818608E-02  0.1093470E+00
          1   -1    0    0  502    0  0.00000000000E+00  0.00000000000E+00  0.20421105104E+01  0.20421105104E+01  0.00000000000E+00 0.  1.
         13   -1    0    0    0    0 -0.00000000000E+00 -0.00000000000E+00 -0.10000000000E+04  0.10000000000E+04  0.00000000000E+00 0.  1.
    9000005    2    1    2  501    0 -0.33167775359E+02 -0.13420573428E+02 -0.80461768709E+03  0.80541900155E+03  0.31515974149E+01 0.  0.
         13    1    3    3    0    0 -0.25649520719E+02 -0.90426208715E+01 -0.59734797846E+03  0.59796678358E+03  0.00000000000E+00 0.  1.
          3    1    3    3  501    0 -0.75182546397E+01 -0.43779525561E+01 -0.20726970863E+03  0.20745221796E+03  0.00000000000E+00 0.  1.
         21    1    1    2  502  501  0.33167775359E+02  0.13420573428E+02 -0.19334020240E+03  0.19662310897E+03  0.00000000000E+00 0.  1.
<mgrwt>
<rscale>  1 0.30000000E+03</rscale>
<asrwt>0</asrwt>
<pdfrwt beam="1">  1        1 0.74258721E-02 0.30000000E+03</pdfrwt>
<pdfrwt beam="2">0</pdfrwt>
<totfact> 0.11425256E+03</totfact>
</mgrwt>
</event>
<event>
 6    1  0.3125838E-002  0.3000000E+03  0.7818608E-02  0.1093470E+00
          1   -1    0    0  502    0  0.00000000000E+00  0.00000000000E+00  0.22613435540E+01  0.22613435540E+01  0.00000000000E+00 0.  1.
         13   -1    0    0    0    0 -0.00000000000E+00 -0.00000000000E+00 -0.10000000000E+04  0.10000000000E+04  0.00000000000E+00 0.  1.
    9000005    2    1    2  501    0  0.36471216799E+02 -0.30417443292E+02 -0.49379053453E+03  0.49608046670E+03  0.33714889198E+01 0.  0.
         13    1    3    3    0    0  0.29493106585E+02 -0.22864141366E+02 -0.38303988155E+03  0.38485343075E+03  0.00000000000E+00 0.  1.
          1    1    3    3  501    0  0.69781102134E+01 -0.75533019256E+01 -0.11075065298E+03  0.11122703596E+03  0.00000000000E+00 0.  1.
         21    1    1    2  502  501 -0.36471216799E+02  0.30417443292E+02 -0.50394812191E+03  0.50618087685E+03  0.00000000000E+00 0.  1.
<mgrwt>
<rscale>  1 0.30000000E+03</rscale>
<asrwt>0</asrwt>
<pdfrwt beam="1">  1        1 0.82230848E-02 0.30000000E+03</pdfrwt>
<pdfrwt beam="2">0</pdfrwt>
<totfact> 0.99116863E+02</totfact>
</mgrwt>
</event>
<event>
 6    1  0.3125838E-002  0.3000000E+03  0.7818608E-02  0.1093470E+00
          1   -1    0    0  502    0  0.00000000000E+00  0.00000000000E+00  0.29349248859E+01  0.29349248859E+01  0.00000000000E+00 0.  1.
         13   -1    0    0    0    0 -0.00000000000E+00 -0.00000000000E+00 -0.10000000000E+04  0.10000000000E+04  0.00000000000E+00 0.  1.
    9000005    2    1    2  501    0  0.31892348181E+02  0.43512398043E+02 -0.53894160752E+03  0.54164590245E+03  0.34317157412E+01 0.  0.
         13    1    3    3    0    0  0.27856969325E+02  0.38904081744E+02 -0.48668191924E+03  0.48902845401E+03  0.00000000000E+00 0.  1.
          3    1    3    3  501    0  0.40353788558E+01  0.46083162989E+01 -0.52259688284E+02  0.52617448448E+02  0.00000000000E+00 0.  1.
         21    1    1    2  502  501 -0.31892348181E+02 -0.43512398043E+02 -0.45812346759E+03  0.46128902243E+03  0.00000000000E+00 0.  1.
<mgrwt>
<rscale>  1 0.30000000E+03</rscale>
<asrwt>0</asrwt>
<pdfrwt beam="1">  1        1 0.10672477E-01 0.30000000E+03</pdfrwt>
<pdfrwt beam="2">0</pdfrwt>
<totfact> 0.69090305E+02</totfact>
</mgrwt>
</event>
<event>
 6    1  0.3125838E-002  0.3000000E+03  0.7818608E-02  0.1093470E+00
          1   -1    0    0  502    0  0.00000000000E+00  0.00000000000E+00  0.14530966876E+01  0.14530966876E+01  0.00000000000E+00 0.  1.
         13   -1    0    0    0    0 -0.00000000000E+00 -0.00000000000E+00 -0.10000000000E+04  0.10000000000E+04  0.00000000000E+00 0.  1.
    9000005    2    1    2  501    0 -0.67615133450E+01 -0.29862665161E+02 -0.79668280289E+03  0.79728010172E+03  0.38177677653E+01 0.  0.
         13    1    3    3    0    0 -0.60996962626E+01 -0.23653649145E+02 -0.66680519434E+03  0.66725247741E+03  0.00000000000E+00 0.  1.
          3    1    3    3  501    0 -0.66181708239E+00 -0.62090160153E+01 -0.12987760855E+03  0.13002762432E+03  0.00000000000E+00 0.  1.
         21    1    1    2  502  501  0.67615133450E+01  0.29862665161E+02 -0.20186410042E+03  0.20417299497E+03  0.00000000000E+00 0.  1.
<mgrwt>
<rscale>  1 0.30000000E+03</rscale>
<asrwt>0</asrwt>
<pdfrwt beam="1">  1        1 0.52839991E-02 0.30000000E+03</pdfrwt>
<pdfrwt beam="2">0</pdfrwt>
<totfact> 0.18405884E+03</totfact>
</mgrwt>
</event>
<event>
 6    1  0.3125838E-002  0.3000000E+03  0.7818608E-02  0.1093470E+00
          1   -1    0    0  502    0  0.00000000000E+00  0.00000000000E+00  0.11088070282E+02  0.11088070282E+02  0.00000000000E+00 0.  1.
         13   -1    0    0    0    0 -0.00000000000E+00 -0.00000000000E+00 -0.10000000000E+04  0.10000000000E+04  0.00000000000E+00 0.  1.
    9000005    2    1    2  501    0 -0.85161319354E+02 -0.18220041503E+02 -0.77854252307E+03  0.78340472114E+03  0.31743722071E+01 0.  0.
         13    1    3    3    0    0 -0.51925535849E+02 -0.11816510947E+02 -0.48835264585E+03  0.49124759329E+03  0.00000000000E+00 0.  1.
          1    1    3    3  501    0 -0.33235783505E+02 -0.64035305567E+01 -0.29018987723E+03  0.29215712785E+03  0.00000000000E+00 0.  1.
         21    1    1    2  502  501  0.85161319354E+02  0.18220041503E+02 -0.21036940664E+03  0.22768334915E+03  0.00000000000E+00 0.  1.
<mgrwt>
<rscale>  1 0.30000000E+03</rscale>
<asrwt>0</asrwt>
<pdfrwt beam="1">  1        1 0.40320341E-01 0.30000000E+03</pdfrwt>
<pdfrwt beam="2">0</pdfrwt>
<totfact> 0.11698027E+02</totfact>
</mgrwt>
</event>
<event>
 6    1  0.3125838E-002  0.3000000E+03  0.7818608E-02  0.1093470E+00
          3   -1    0    0  502    0  0.00000000000E+00  0.00000000000E+00  0.20216718382E+01  0.20216718382E+01  0.00000000000E+00 0.  1.
         13   -1    0    0    0    0 -0.00000000000E+00 -0.00000000000E+00 -0.10000000000E+04  0.10000000000E+04  0.00000000000E+00 0.  1.
    9000005    2    1    2  501    0  0.24835953101E+02 -0.34960798238E+02 -0.64810835612E+03  0.64953326165E+03  0.31519419992E+01 0.  0.
         13    1    3    3    0    0  0.19211717666E+00 -0.11231688776E+01 -0.16871057260E+02  0.16909494091E+02  0.00000000000E+00 0.  1.
          1    1    3    3  501    0  0.24643835925E+02 -0.33837629360E+02 -0.63123729886E+03  0.63262376756E+03  0.00000000000E+00 0.  1.
         21    1    1    2  502  501 -0.24835953101E+02  0.34960798238E+02 -0.34986997204E+03  0.35248841019E+03  0.00000000000E+00 0.  1.
<mgrwt>
<rscale>  1 0.30000000E+03</rscale>
<asrwt>0</asrwt>
<pdfrwt beam="1">  1        3 0.73515495E-02 0.30000000E+03</pdfrwt>
<pdfrwt beam="2">0</pdfrwt>
<totfact> 0.54211245E+02</totfact>
</mgrwt>
</event>
<event>
 6    1  0.3125838E-002  0.3000000E+03  0.7818608E-02  0.1093470E+00
          1   -1    0    0  502    0  0.00000000000E+00  0.00000000000E+00  0.34613543358E+01  0.34613543358E+01  0.00000000000E+00 0.  1.
         13   -1    0    0    0    0 -0.00000000000E+00 -0.00000000000E+00 -0.10000000000E+04  0.10000000000E+04  0.00000000000E+00 0.  1.
    9000005    2    1    2  501    0  0.25176549856E+02  0.23650870630E+02 -0.90429984891E+03  0.90496659320E+03  0.36188019888E+01 0.  0.
         13    1    3    3    0    0  0.50152766375E+00  0.26593088550E-01 -0.21878949932E+02  0.21884713553E+02  0.00000000000E+00 0.  1.
          3    1    3    3  501    0  0.24675022192E+02  0.23624277542E+02 -0.88242089898E+03  0.88308187965E+03  0.00000000000E+00 0.  1.
         21    1    1    2  502  501 -0.25176549856E+02 -0.23650870630E+02 -0.92238796753E+02  0.98494761133E+02  0.00000000000E+00 0.  1.
<mgrwt>
<rscale>  1 0.30000000E+03</rscale>
<asrwt>0</asrwt>
<pdfrwt beam="1">  1        1 0.12586770E-01 0.30000000E+03</pdfrwt>
<pdfrwt beam="2">0</pdfrwt>
<totfact> 0.55094056E+02</totfact>
</mgrwt>
</event>
<event>
 6    1  0.3125838E-002  0.3000000E+03  0.7818608E-02  0.1093470E+00
          1   -1    0    0  502    0  0.00000000000E+00  0.00000000000E+00  0.97898052249E+01  0.97898052249E+01  0.00000000000E+00 0.  1.
         13   -1    0    0    0    0 -0.00000000000E+00 -0.00000000000E+00 -0.10000000000E+04  0.10000000000E+04  0.00000000000E+00 0.  1.
    9000005    2    1    2  501    0  0.52673828034E+02  0.26717302430E+02 -0.90014322653E+03  0.90208462811E+03  0.32406158428E+01 0.  0.
         13    1    3    3    0    0  0.42758622933E+02  0.21199505172E+02 -0.74481598327E+03  0.74634346503E+03  0.00000000000E+00 0.  1.
          3    1    3    3  501    0  0.99152051006E+01  0.55177972584E+01 -0.15532724326E+03  0.15574116308E+03  0.00000000000E+00 0.  1.
         21    1    1    2  502  501 -0.52673828034E+02 -0.26717302430E+02 -0.90066968242E+02  0.10770517711E+03  0.00000000000E+00 0.  1.
<mgrwt>
<rscale>  1 0.30000000E+03</rscale>
<asrwt>0</asrwt>
<pdfrwt beam="1">  1        1 0.35599367E-01 0.30000000E+03</pdfrwt>
<pdfrwt beam="2">0</pdfrwt>
<totfact> 0.13763443E+02</totfact>
</mgrwt>
</event>
<event>
 6    1  0.3125838E-002  0.3000000E+03  0.7818608E-02  0.1093470E+00
          1   -1    0    0  502    0  0.00000000000E+00  0.00000000000E+00  0.28348888853E+01  0.28348888853E+01  0.00000000000E+00 0.  1.
         13   -1    0    0    0    0 -0.00000000000E+00 -0.00000000000E+00 -0.10000000000E+04  0.10000000000E+04  0.00000000000E+00 0.  1.
    9000005    2    1    2  501    0 -0.45379583013E+02  0.20671252555E+02 -0.67351353592E+03  0.67536435683E+03  0.31502660963E+01 0.  0.
         13    1    3    3    0    0 -0.39846899653E+02  0.18156687963E+02 -0.60438480835E+03  0.60596900688E+03  0.00000000000E+00 0.  1.
          3    1    3    3  501    0 -0.55326833600E+01  0.25145645924E+01 -0.69128727564E+02  0.69395349952E+02  0.00000000000E+00 0.  1.
         21    1    1    2  502  501  0.45379583013E+02 -0.20671252555E+02 -0.32365157520E+03  0.32747053206E+03  0.00000000000E+00 0.  1.
<mgrwt>
<rscale>  1 0.30000000E+03</rscale>
<asrwt>0</asrwt>
<pdfrwt beam="1">  1        1 0.10308709E-01 0.30000000E+03</pdfrwt>
<pdfrwt beam="2">0</pdfrwt>
<totfact> 0.72469892E+02</totfact>
</mgrwt>
</event>
<event>
 6    1  0.3125838E-002  0.3000000E+03  0.7818608E-02  0.1093470E+00
          1   -1    0    0  502    0  0.00000000000E+00  0.00000000000E+00  0.16976325202E+02  0.16976325202E+02  0.00000000000E+00 0.  1.
         13   -1    0    0    0    0 -0.00000000000E+00 -0.00000000000E+00 -0.10000000000E+04  0.10000000000E+04  0.00000000000E+00 0.  1.
    9000005    2    1    2  501    0 -0.12072363294E+03  0.38969442313E+02 -0.60736685295E+03  0.62047807705E+03  0.23952156015E+01 0.  0.
         13    1    3    3    0    0 -0.50712996906E+02  0.15129466582E+02 -0.25348064143E+03  0.25894621912E+03  0.00000000000E+00 0.  1.
          3    1    3    3  501    0 -0.70010636033E+02  0.23839975732E+02 -0.35388621152E+03  0.36153185793E+03  0.00000000000E+00 0.  1.
         21    1    1    2  502  501  0.12072363294E+03 -0.38969442313E+02 -0.37565682185E+03  0.39649824815E+03  0.00000000000E+00 0.  1.
<mgrwt>
<rscale>  1 0.30000000E+03</rscale>
<asrwt>0</asrwt>
<pdfrwt beam="1">  1        1 0.61732222E-01 0.30000000E+03</pdfrwt>
<pdfrwt beam="2">0</pdfrwt>
<totfact> 0.66765043E+01</totfact>
</mgrwt>
</event>
<event>
 6    1  0.3125838E-002  0.3000000E+03  0.7818608E-02  0.1093470E+00
          3   -1    0    0  502    0  0.00000000000E+00  0.00000000000E+00  0.19590583784E+01  0.19590583784E+01  0.00000000000E+00 0.  1.
         13   -1    0    0    0    0 -0.00000000000E+00 -0.00000000000E+00 -0.10000000000E+04  0.10000000000E+04  0.00000000000E+00 0.  1.
    9000005    2    1    2  501    0  0.29516148462E+02 -0.15482788322E+02 -0.82817505918E+03  0.82885406777E+03  0.37705788202E+01 0.  0.
         13    1    3    3    0    0  0.17543640570E+02 -0.11209838041E+02 -0.52474705745E+03  0.52515989384E+03  0.00000000000E+00 0.  1.
          1    1    3    3  501    0  0.11972507892E+02 -0.42729502806E+01 -0.30342800173E+03  0.30369417393E+03  0.00000000000E+00 0.  1.
         21    1    1    2  502  501 -0.29516148462E+02  0.15482788322E+02 -0.16986588244E+03  0.17310499060E+03  0.00000000000E+00 0.  1.
<mgrwt>
<rscale>  1 0.30000000E+03</rscale>
<asrwt>0</asrwt>
<pdfrwt beam="1">  1        3 0.71238637E-02 0.30000000E+03</pdfrwt>
<pdfrwt beam="2">0</pdfrwt>
<totfact> 0.56976615E+02</totfact>
</mgrwt>
</event>
<event>
 6    1  0.3125838E-002  0.3000000E+03  0.7818608E-02  0.1093470E+00
          1   -1    0    0  502    0  0.00000000000E+00  0.00000000000E+00  0.12457584640E+01  0.12457584640E+01  0.00000000000E+00 0.  1.
         13   -1    0    0    0    0 -0.00000000000E+00 -0.00000000000E+00 -0.10000000000E+04  0.10000000000E+04  0.00000000000E+00 0.  1.
    9000005    2    1    2  501    0 -0.27542554925E+02 -0.18910097178E+02 -0.65871324123E+03  0.65956745070E+03  0.31470215249E+01 0.  0.
         13    1    3    3    0    0 -0.23028912963E+02 -0.17124849806E+02 -0.56738616484E+03  0.56811147793E+03  0.00000000000E+00 0.  1.
          1    1    3    3  501    0 -0.45136419625E+01 -0.17852473724E+01 -0.91327076399E+02  0.91455972771E+02  0.00000000000E+00 0.  1.
         21    1    1    2  502  501  0.27542554925E+02  0.18910097178E+02 -0.34004100030E+03  0.34167830776E+03  0.00000000000E+00 0.  1.
<mgrwt>
<rscale>  1 0.30000000E+03</rscale>
<asrwt>0</asrwt>
<pdfrwt beam="1">  1        1 0.45300403E-02 0.30000000E+03</pdfrwt>
<pdfrwt beam="2">0</pdfrwt>
<totfact> 0.22853840E+03</totfact>
</mgrwt>
</event>
<event>
 6    1  0.3125838E-002  0.3000000E+03  0.7818608E-02  0.1093470E+00
          1   -1    0    0  502    0  0.00000000000E+00  0.00000000000E+00  0.58811023603E+01  0.58811023603E+01  0.00000000000E+00 0.  1.
         13   -1    0    0    0    0 -0.00000000000E+00 -0.00000000000E+00 -0.10000000000E+04  0.10000000000E+04  0.00000000000E+00 0.  1.
    9000005    2    1    2  501    0 -0.42617535769E+02  0.43198733159E+02 -0.80449205087E+03  0.80678131351E+03  0.24986047831E+01 0.  0.
         13    1    3    3    0    0 -0.73327505063E+01  0.62958198831E+01 -0.12225465887E+03  0.12263608031E+03  0.00000000000E+00 0.  1.
          3    1    3    3  501    0 -0.35284785263E+02  0.36902913276E+02 -0.68223739200E+03  0.68414523321E+03  0.00000000000E+00 0.  1.
         21    1    1    2  502  501  0.42617535769E+02 -0.43198733159E+02 -0.18962684677E+03  0.19909978885E+03  0.00000000000E+00 0.  1.
<mgrwt>
<rscale>  1 0.30000000E+03</rscale>
<asrwt>0</asrwt>
<pdfrwt beam="1">  1        1 0.21385872E-01 0.30000000E+03</pdfrwt>
<pdfrwt beam="2">0</pdfrwt>
<totfact> 0.26924812E+02</totfact>
</mgrwt>
</event>
<event>
 6    1  0.3125838E-002  0.3000000E+03  0.7818608E-02  0.1093470E+00
          1   -1    0    0  502    0  0.00000000000E+00  0.00000000000E+00  0.13695688453E+01  0.13695688453E+01  0.00000000000E+00 0.  1.
         13   -1    0    0    0    0 -0.00000000000E+00 -0.00000000000E+00 -0.10000000000E+04  0.10000000000E+04  0.00000000000E+00 0.  1.
    9000005    2    1    2  501    0  0.35073176589E+01  0.35402125428E+02 -0.62457784921E+03  0.62562903893E+03  0.69708583323E+01 0.  0.
         13    1    3    3    0    0 -0.62667505703E+00  0.14524489882E+02 -0.30212706823E+03  0.30247664188E+03  0.00000000000E+00 0.  1.
          3    1    3    3  501    0  0.41339927159E+01  0.20877635546E+02 -0.32245078099E+03  0.32315239705E+03  0.00000000000E+00 0.  1.
         21    1    1    2  502  501 -0.35073176589E+01 -0.35402125428E+02 -0.37405258194E+03  0.37574052991E+03  0.00000000000E+00 0.  1.
<mgrwt>
<rscale>  1 0.30000000E+03</rscale>
<asrwt>0</asrwt>
<pdfrwt beam="1">  1        1 0.49802608E-02 0.30000000E+03</pdfrwt>
<pdfrwt beam="2">0</pdfrwt>
<totfact> 0.20002509E+03</totfact>
</mgrwt>
</event>
<event>
 6    1  0.3125838E-002  0.3000000E+03  0.7818608E-02  0.1093470E+00
          1   -1    0    0  502    0  0.00000000000E+00  0.00000000000E+00  0.16537769676E+01  0.16537769676E+01  0.00000000000E+00 0.  1.
         13   -1    0    0    0    0 -0.00000000000E+00 -0.00000000000E+00 -0.10000000000E+04  0.10000000000E+04  0.00000000000E+00 0.  1.
    9000005    2    1    2  501    0 -0.19132700451E+02  0.35514695319E+02 -0.55607130470E+03  0.55754291558E+03  0.33842282056E+01 0.  0.
         13    1    3    3    0    0 -0.29350511915E+01  0.66075390613E+01 -0.11684190221E+03  0.11706538434E+03  0.00000000000E+00 0.  1.
          1    1    3    3  501    0 -0.16197649259E+02  0.28907156258E+02 -0.43922940249E+03  0.44047753125E+03  0.00000000000E+00 0.  1.
         21    1    1    2  502  501  0.19132700451E+02 -0.35514695319E+02 -0.44227491834E+03  0.44411086138E+03  0.00000000000E+00 0.  1.
<mgrwt>
<rscale>  1 0.30000000E+03</rscale>
<asrwt>0</asrwt>
<pdfrwt beam="1">  1        1 0.60137471E-02 0.30000000E+03</pdfrwt>
<pdfrwt beam="2">0</pdfrwt>
<totfact> 0.15349096E+03</totfact>
</mgrwt>
</event>
<event>
 6    1  0.3125838E-002  0.3000000E+03  0.7818608E-02  0.1093470E+00
          1   -1    0    0  502    0  0.00000000000E+00  0.00000000000E+00  0.38071809410E+01  0.38071809410E+01  0.00000000000E+00 0.  1.
         13   -1    0    0    0    0 -0.00000000000E+00 -0.00000000000E+00 -0.10000000000E+04  0.10000000000E+04  0.00000000000E+00 0.  1.
    9000005    2    1    2  501    0 -0.19781066459E+02 -0.28800253007E+02 -0.91165217164E+03  0.91233113911E+03  0.42047789226E+01 0.  0.
         13    1    3    3    0    0 -0.17183818718E+02 -0.26462344213E+02 -0.84269353156E+03  0.84328401350E+03  0.00000000000E+00 0.  1.
          1    1    3    3  501    0 -0.25972477410E+01 -0.23379087940E+01 -0.68958640080E+02  0.69047125610E+02  0.00000000000E+00 0.  1.
         21    1    1    2  502  501  0.19781066459E+02  0.28800253007E+02 -0.84540647421E+02  0.91476041836E+02  0.00000000000E+00 0.  1.
<mgrwt>
<rscale>  1 0.30000000E+03</rscale>
<asrwt>0</asrwt>
<pdfrwt beam="1">  1        1 0.13844324E-01 0.30000000E+03</pdfrwt>
<pdfrwt beam="2">0</pdfrwt>
<totfact> 0.48377415E+02</totfact>
</mgrwt>
</event>
<event>
 6    1  0.3174398E-002  0.3000000E+03  0.7818608E-02  0.1093470E+00
          1   -1    0    0  502    0  0.00000000000E+00  0.00000000000E+00  0.19544134650E+01  0.19544134650E+01  0.00000000000E+00 0.  1.
         13   -1    0    0    0    0 -0.00000000000E+00 -0.00000000000E+00 -0.10000000000E+04  0.10000000000E+04  0.00000000000E+00 0.  1.
    9000005    2    1    2  501    0  0.28646694469E+02 -0.11533026391E+02 -0.85541961331E+03  0.85602356669E+03  0.89436063014E+01 0.  0.
         13    1    3    3    0    0  0.62394489259E+01 -0.68145419719E+01 -0.23549306554E+03  0.23567425108E+03  0.00000000000E+00 0.  1.
          3    1    3    3  501    0  0.22407245543E+02 -0.47184844194E+01 -0.61992654777E+03  0.62034931561E+03  0.00000000000E+00 0.  1.
         21    1    1    2  502  501 -0.28646694469E+02  0.11533026391E+02 -0.14262597323E+03  0.14593084677E+03  0.00000000000E+00 0.  1.
<mgrwt>
<rscale>  1 0.30000000E+03</rscale>
<asrwt>0</asrwt>
<pdfrwt beam="1">  1        1 0.71069730E-02 0.30000000E+03</pdfrwt>
<pdfrwt beam="2">0</pdfrwt>
<totfact> 0.12147790E+03</totfact>
</mgrwt>
</event>
<event>
 6    1  0.3125838E-002  0.3000000E+03  0.7818608E-02  0.1093470E+00
          1   -1    0    0  502    0  0.00000000000E+00  0.00000000000E+00  0.72813561783E+01  0.72813561783E+01  0.00000000000E+00 0.  1.
         13   -1    0    0    0    0 -0.00000000000E+00 -0.00000000000E+00 -0.10000000000E+04  0.10000000000E+04  0.00000000000E+00 0.  1.
    9000005    2    1    2  501    0 -0.13435238980E+02  0.37321665166E+02 -0.94224821370E+03  0.94308885931E+03  0.33893952106E+01 0.  0.
         13    1    3    3    0    0 -0.17146410389E+00  0.21282991011E+00 -0.16479766385E+02  0.16482032539E+02  0.00000000000E+00 0.  1.
          1    1    3    3  501    0 -0.13263774876E+02  0.37108835256E+02 -0.92576844732E+03  0.92660682677E+03  0.00000000000E+00 0.  1.
         21    1    1    2  502  501  0.13435238980E+02 -0.37321665166E+02 -0.50470430120E+02  0.64192496865E+02  0.00000000000E+00 0.  1.
<mgrwt>
<rscale>  1 0.30000000E+03</rscale>
<asrwt>0</asrwt>
<pdfrwt beam="1">  1        1 0.26477715E-01 0.30000000E+03</pdfrwt>
<pdfrwt beam="2">0</pdfrwt>
<totfact> 0.20294674E+02</totfact>
</mgrwt>
</event>
<event>
 6    1  0.3125838E-002  0.3000000E+03  0.7818608E-02  0.1093470E+00
          1   -1    0    0  502    0  0.00000000000E+00  0.00000000000E+00  0.48893790276E+01  0.48893790276E+01  0.00000000000E+00 0.  1.
         13   -1    0    0    0    0 -0.00000000000E+00 -0.00000000000E+00 -0.10000000000E+04  0.10000000000E+04  0.00000000000E+00 0.  1.
    9000005    2    1    2  501    0 -0.20742596592E+02  0.33394698686E+02 -0.91294189809E+03  0.91380062981E+03  0.48187696565E+01 0.  0.
         13    1    3    3    0    0 -0.75347945605E+00  0.11076992288E+01 -0.16295245999E+02  0.16350222355E+02  0.00000000000E+00 0.  1.
          1    1    3    3  501    0 -0.19989117136E+02  0.32286999457E+02 -0.89664665209E+03  0.89745040746E+03  0.00000000000E+00 0.  1.
         21    1    1    2  502  501  0.20742596592E+02 -0.33394698686E+02 -0.82168722882E+02  0.91088749216E+02  0.00000000000E+00 0.  1.
<mgrwt>
<rscale>  1 0.30000000E+03</rscale>
<asrwt>0</asrwt>
<pdfrwt beam="1">  1        1 0.17779598E-01 0.30000000E+03</pdfrwt>
<pdfrwt beam="2">0</pdfrwt>
<totfact> 0.34475005E+02</totfact>
</mgrwt>
</event>
<event>
 6    1  0.3125838E-002  0.3000000E+03  0.7818608E-02  0.1093470E+00
          1   -1    0    0  502    0  0.00000000000E+00  0.00000000000E+00  0.28291777278E+01  0.28291777278E+01  0.00000000000E+00 0.  1.
         13   -1    0    0    0    0 -0.00000000000E+00 -0.00000000000E+00 -0.10000000000E+04  0.10000000000E+04  0.00000000000E+00 0.  1.
    9000005    2    1    2  501    0 -0.13353584886E+02 -0.40698133640E+02 -0.79552813334E+03  0.79668740537E+03  0.33398545775E+01 0.  0.
         13    1    3    3    0    0 -0.28072703331E+01 -0.97025789723E+01 -0.21421601383E+03  0.21445400763E+03  0.00000000000E+00 0.  1.
          3    1    3    3  501    0 -0.10546314552E+02 -0.30995554667E+02 -0.58131211950E+03  0.58223339774E+03  0.00000000000E+00 0.  1.
         21    1    1    2  502  501  0.13353584886E+02  0.40698133640E+02 -0.20164268894E+03  0.20614177236E+03  0.00000000000E+00 0.  1.
<mgrwt>
<rscale>  1 0.30000000E+03</rscale>
<asrwt>0</asrwt>
<pdfrwt beam="1">  1        1 0.10287941E-01 0.30000000E+03</pdfrwt>
<pdfrwt beam="2">0</pdfrwt>
<totfact> 0.72671604E+02</totfact>
</mgrwt>
</event>
<event>
 6    1  0.3125838E-002  0.3000000E+03  0.7818608E-02  0.1093470E+00
          3   -1    0    0  502    0  0.00000000000E+00  0.00000000000E+00  0.15466786811E+01  0.15466786811E+01  0.00000000000E+00 0.  1.
         13   -1    0    0    0    0 -0.00000000000E+00 -0.00000000000E+00 -0.10000000000E+04  0.10000000000E+04  0.00000000000E+00 0.  1.
    9000005    2    1    2  501    0  0.36836444094E+02 -0.13516702428E+02 -0.49140778419E+03  0.49298517642E+03  0.36261482228E+01 0.  0.
         13    1    3    3    0    0  0.34563565952E+02 -0.13284678831E+02 -0.46977531569E+03  0.47123239491E+03  0.00000000000E+00 0.  1.
          3    1    3    3  501    0  0.22728781419E+01 -0.23202359723E+00 -0.21632468497E+02  0.21752781506E+02  0.00000000000E+00 0.  1.
         21    1    1    2  502  501 -0.36836444094E+02  0.13516702428E+02 -0.50704553713E+03  0.50856150226E+03  0.00000000000E+00 0.  1.
<mgrwt>
<rscale>  1 0.30000000E+03</rscale>
<asrwt>0</asrwt>
<pdfrwt beam="1">  1        3 0.56242980E-02 0.30000000E+03</pdfrwt>
<pdfrwt beam="2">0</pdfrwt>
<totfact> 0.82470382E+02</totfact>
</mgrwt>
</event>
<event>
 6    1  0.3125838E-002  0.3000000E+03  0.7818608E-02  0.1093470E+00
          3   -1    0    0  502    0  0.00000000000E+00  0.00000000000E+00  0.13716391211E+01  0.13716391211E+01  0.00000000000E+00 0.  1.
         13   -1    0    0    0    0 -0.00000000000E+00 -0.00000000000E+00 -0.10000000000E+04  0.10000000000E+04  0.00000000000E+00 0.  1.
    9000005    2    1    2  501    0 -0.31313987901E+02  0.88814146471E+01 -0.26340322473E+03  0.26542636521E+03  0.32328295534E+01 0.  0.
         13    1    3    3    0    0 -0.12253140750E+02  0.49982636522E+01 -0.10173795029E+03  0.10259499318E+03  0.00000000000E+00 0.  1.
          1    1    3    3  501    0 -0.19060847151E+02  0.38831509949E+01 -0.16166527444E+03  0.16283137202E+03  0.00000000000E+00 0.  1.
         21    1    1    2  502  501  0.31313987901E+02 -0.88814146471E+01 -0.73522513615E+03  0.73594527391E+03  0.00000000000E+00 0.  1.
<mgrwt>
<rscale>  1 0.30000000E+03</rscale>
<asrwt>0</asrwt>
<pdfrwt beam="1">  1        3 0.49877891E-02 0.30000000E+03</pdfrwt>
<pdfrwt beam="2">0</pdfrwt>
<totfact> 0.99313626E+02</totfact>
</mgrwt>
</event>
<event>
 6    1  0.3125838E-002  0.3000000E+03  0.7818608E-02  0.1093470E+00
          1   -1    0    0  502    0  0.00000000000E+00  0.00000000000E+00  0.44909952636E+01  0.44909952636E+01  0.00000000000E+00 0.  1.
         13   -1    0    0    0    0 -0.00000000000E+00 -0.00000000000E+00 -0.10000000000E+04  0.10000000000E+04  0.00000000000E+00 0.  1.
    9000005    2    1    2  501    0 -0.39060414062E+02  0.16709872714E+02 -0.88606865795E+03  0.88709369845E+03  0.35535120263E+01 0.  0.
         13    1    3    3    0    0 -0.33747254356E+02  0.13057083166E+02 -0.75148930961E+03  0.75235998502E+03  0.00000000000E+00 0.  1.
          1    1    3    3  501    0 -0.53131597057E+01  0.36527895486E+01 -0.13457934834E+03  0.13473371344E+03  0.00000000000E+00 0.  1.
         21    1    1    2  502  501  0.39060414062E+02 -0.16709872714E+02 -0.10944034679E+03  0.11739729681E+03  0.00000000000E+00 0.  1.
<mgrwt>
<rscale>  1 0.30000000E+03</rscale>
<asrwt>0</asrwt>
<pdfrwt beam="1">  1        1 0.16330926E-01 0.30000000E+03</pdfrwt>
<pdfrwt beam="2">0</pdfrwt>
<totfact> 0.38660896E+02</totfact>
</mgrwt>
</event>
<event>
 6    1  0.3125838E-002  0.3000000E+03  0.7818608E-02  0.1093470E+00
          3   -1    0    0  502    0  0.00000000000E+00  0.00000000000E+00  0.13819559358E+01  0.13819559358E+01  0.00000000000E+00 0.  1.
         13   -1    0    0    0    0 -0.00000000000E+00 -0.00000000000E+00 -0.10000000000E+04  0.10000000000E+04  0.00000000000E+00 0.  1.
    9000005    2    1    2  501    0  0.14349676054E+02 -0.27801162563E+02 -0.76908362572E+03  0.76972516876E+03  0.28972780692E+01 0.  0.
         13    1    3    3    0    0  0.14157725064E+01 -0.40150098882E+01 -0.12577691169E+03  0.12584894211E+03  0.00000000000E+00 0.  1.
          3    1    3    3  501    0  0.12933903547E+02 -0.23786152675E+02 -0.64330671403E+03  0.64387622664E+03  0.00000000000E+00 0.  1.
         21    1    1    2  502  501 -0.14349676054E+02  0.27801162563E+02 -0.22953441834E+03  0.23165678718E+03  0.00000000000E+00 0.  1.
<mgrwt>
<rscale>  1 0.30000000E+03</rscale>
<asrwt>0</asrwt>
<pdfrwt beam="1">  1        3 0.50253049E-02 0.30000000E+03</pdfrwt>
<pdfrwt beam="2">0</pdfrwt>
<totfact> 0.98171377E+02</totfact>
</mgrwt>
</event>
<event>
 6    1  0.3125838E-002  0.3000000E+03  0.7818608E-02  0.1093470E+00
          1   -1    0    0  502    0  0.00000000000E+00  0.00000000000E+00  0.36062687749E+01  0.36062687749E+01  0.00000000000E+00 0.  1.
         13   -1    0    0    0    0 -0.00000000000E+00 -0.00000000000E+00 -0.10000000000E+04  0.10000000000E+04  0.00000000000E+00 0.  1.
    9000005    2    1    2  501    0 -0.45756933086E+02 -0.31253368594E+02 -0.69127851318E+03  0.69350021231E+03  0.24681399862E+01 0.  0.
         13    1    3    3    0    0 -0.25725892288E+02 -0.17290739890E+02 -0.40164364727E+03  0.40283794584E+03  0.00000000000E+00 0.  1.
          1    1    3    3  501    0 -0.20031040798E+02 -0.13962628703E+02 -0.28963486591E+03  0.29066226647E+03  0.00000000000E+00 0.  1.
         21    1    1    2  502  501  0.45756933086E+02  0.31253368594E+02 -0.30511521805E+03  0.31010605647E+03  0.00000000000E+00 0.  1.
<mgrwt>
<rscale>  1 0.30000000E+03</rscale>
<asrwt>0</asrwt>
<pdfrwt beam="1">  1        1 0.13113732E-01 0.30000000E+03</pdfrwt>
<pdfrwt beam="2">0</pdfrwt>
<totfact> 0.52090222E+02</totfact>
</mgrwt>
</event>
<event>
 6    1  0.3125838E-002  0.3000000E+03  0.7818608E-02  0.1093470E+00
          1   -1    0    0  502    0  0.00000000000E+00  0.00000000000E+00  0.21814046969E+01  0.21814046969E+01  0.00000000000E+00 0.  1.
         13   -1    0    0    0    0 -0.00000000000E+00 -0.00000000000E+00 -0.10000000000E+04  0.10000000000E+04  0.00000000000E+00 0.  1.
    9000005    2    1    2  501    0  0.86579229295E+01  0.42657712487E+02 -0.31932387540E+03  0.32229191000E+03  0.31141269110E+01 0.  0.
         13    1    3    3    0    0  0.77753757145E+01  0.33788093452E+02 -0.26026123745E+03  0.26256047578E+03  0.00000000000E+00 0.  1.
          1    1    3    3  501    0  0.88254721503E+00  0.88696190348E+01 -0.59062637957E+02  0.59731434219E+02  0.00000000000E+00 0.  1.
         21    1    1    2  502  501 -0.86579229295E+01 -0.42657712487E+02 -0.67849471990E+03  0.67988949469E+03  0.00000000000E+00 0.  1.
<mgrwt>
<rscale>  1 0.30000000E+03</rscale>
<asrwt>0</asrwt>
<pdfrwt beam="1">  1        1 0.79323974E-02 0.30000000E+03</pdfrwt>
<pdfrwt beam="2">0</pdfrwt>
<totfact> 0.10420841E+03</totfact>
</mgrwt>
</event>
<event>
 6    1  0.3125838E-002  0.3000000E+03  0.7818608E-02  0.1093470E+00
          3   -1    0    0  502    0  0.00000000000E+00  0.00000000000E+00  0.94224186937E+00  0.94224186937E+00  0.00000000000E+00 0.  1.
         13   -1    0    0    0    0 -0.00000000000E+00 -0.00000000000E+00 -0.10000000000E+04  0.10000000000E+04  0.00000000000E+00 0.  1.
    9000005    2    1    2  501    0  0.22762266517E+02  0.20299900114E+02 -0.51438732609E+03  0.51531312987E+03  0.48056069667E+01 0.  0.
         13    1    3    3    0    0 -0.15962189762E+00  0.29528420163E+00 -0.24910415009E+01  0.25135551852E+01  0.00000000000E+00 0.  1.
          1    1    3    3  501    0  0.22921888414E+02  0.20004615912E+02 -0.51189628459E+03  0.51279957469E+03  0.00000000000E+00 0.  1.
         21    1    1    2  502  501 -0.22762266517E+02 -0.20299900114E+02 -0.48467043204E+03  0.48562911200E+03  0.00000000000E+00 0.  1.
<mgrwt>
<rscale>  1 0.30000000E+03</rscale>
<asrwt>0</asrwt>
<pdfrwt beam="1">  1        3 0.34263413E-02 0.30000000E+03</pdfrwt>
<pdfrwt beam="2">0</pdfrwt>
<totfact> 0.17709571E+03</totfact>
</mgrwt>
</event>
<event>
 6    1  0.3125838E-002  0.3000000E+03  0.7818608E-02  0.1093470E+00
          1   -1    0    0  502    0  0.00000000000E+00  0.00000000000E+00  0.42594361104E+01  0.42594361104E+01  0.00000000000E+00 0.  1.
         13   -1    0    0    0    0 -0.00000000000E+00 -0.00000000000E+00 -0.10000000000E+04  0.10000000000E+04  0.00000000000E+00 0.  1.
    9000005    2    1    2  501    0  0.43048266906E+01 -0.34480176854E+02 -0.92285401952E+03  0.92351377072E+03  0.32755521120E+01 0.  0.
         13    1    3    3    0    0  0.24218101933E+01 -0.27933856774E+02 -0.76155303100E+03  0.76206901561E+03  0.00000000000E+00 0.  1.
          3    1    3    3  501    0  0.18830164973E+01 -0.65463200796E+01 -0.16130098852E+03  0.16144475512E+03  0.00000000000E+00 0.  1.
         21    1    1    2  502  501 -0.43048266906E+01  0.34480176854E+02 -0.72886544368E+02  0.80745665386E+02  0.00000000000E+00 0.  1.
<mgrwt>
<rscale>  1 0.30000000E+03</rscale>
<asrwt>0</asrwt>
<pdfrwt beam="1">  1        1 0.15488891E-01 0.30000000E+03</pdfrwt>
<pdfrwt beam="2">0</pdfrwt>
<totfact> 0.41533415E+02</totfact>
</mgrwt>
</event>
<event>
 6    1  0.3125838E-002  0.3000000E+03  0.7818608E-02  0.1093470E+00
          3   -1    0    0  502    0  0.00000000000E+00  0.00000000000E+00  0.39265173866E+01  0.39265173866E+01  0.00000000000E+00 0.  1.
         13   -1    0    0    0    0 -0.00000000000E+00 -0.00000000000E+00 -0.10000000000E+04  0.10000000000E+04  0.00000000000E+00 0.  1.
    9000005    2    1    2  501    0  0.34324293368E+02  0.32218858528E+02 -0.82908042552E+03  0.83042466415E+03  0.38156105180E+01 0.  0.
         13    1    3    3    0    0  0.55954179040E+01  0.34679372484E+01 -0.11199895493E+03  0.11219225105E+03  0.00000000000E+00 0.  1.
          3    1    3    3  501    0  0.28728875464E+02  0.28750921280E+02 -0.71708147059E+03  0.71823241310E+03  0.00000000000E+00 0.  1.
         21    1    1    2  502  501 -0.34324293368E+02 -0.32218858528E+02 -0.16699305709E+03  0.17350185324E+03  0.00000000000E+00 0.  1.
<mgrwt>
<rscale>  1 0.30000000E+03</rscale>
<asrwt>0</asrwt>
<pdfrwt beam="1">  1        3 0.14278275E-01 0.30000000E+03</pdfrwt>
<pdfrwt beam="2">0</pdfrwt>
<totfact> 0.18123179E+02</totfact>
</mgrwt>
</event>
<event>
 6    1  0.3125838E-002  0.3000000E+03  0.7818608E-02  0.1093470E+00
          3   -1    0    0  502    0  0.00000000000E+00  0.00000000000E+00  0.36855207919E+01  0.36855207919E+01  0.00000000000E+00 0.  1.
         13   -1    0    0    0    0 -0.00000000000E+00 -0.00000000000E+00 -0.10000000000E+04  0.10000000000E+04  0.00000000000E+00 0.  1.
    9000005    2    1    2  501    0  0.57770652858E+02  0.79386041512E+00 -0.65120176314E+03  0.65377000908E+03  0.36619540130E+01 0.  0.
         13    1    3    3    0    0  0.25798007432E+02  0.21546591251E+01 -0.28812426355E+03  0.28928493046E+03  0.00000000000E+00 0.  1.
          1    1    3    3  501    0  0.31972645426E+02 -0.13607987100E+01 -0.36307749959E+03  0.36448507862E+03  0.00000000000E+00 0.  1.
         21    1    1    2  502  501 -0.57770652858E+02 -0.79386041512E+00 -0.34511271607E+03  0.34991551171E+03  0.00000000000E+00 0.  1.
<mgrwt>
<rscale>  1 0.30000000E+03</rscale>
<asrwt>0</asrwt>
<pdfrwt beam="1">  1        3 0.13401922E-01 0.30000000E+03</pdfrwt>
<pdfrwt beam="2">0</pdfrwt>
<totfact> 0.20200006E+02</totfact>
</mgrwt>
</event>
<event>
 6    1  0.3125838E-002  0.3000000E+03  0.7818608E-02  0.1093470E+00
          1   -1    0    0  502    0  0.00000000000E+00  0.00000000000E+00  0.55410322208E+01  0.55410322208E+01  0.00000000000E+00 0.  1.
         13   -1    0    0    0    0 -0.00000000000E+00 -0.00000000000E+00 -0.10000000000E+04  0.10000000000E+04  0.00000000000E+00 0.  1.
    9000005    2    1    2  501    0 -0.29617266342E+02  0.20459145425E+02 -0.93713939443E+03  0.93785578578E+03  0.68899366647E+01 0.  0.
         13    1    3    3    0    0 -0.17851513040E+02  0.13030787542E+02 -0.48677546930E+03  0.48727695970E+03  0.00000000000E+00 0.  1.
          3    1    3    3  501    0 -0.11765753302E+02  0.74283578824E+01 -0.45036392513E+03  0.45057882608E+03  0.00000000000E+00 0.  1.
         21    1    1    2  502  501  0.29617266342E+02 -0.20459145425E+02 -0.57319573348E+02  0.67685246442E+02  0.00000000000E+00 0.  1.
<mgrwt>
<rscale>  1 0.30000000E+03</rscale>
<asrwt>0</asrwt>
<pdfrwt beam="1">  1        1 0.20149251E-01 0.30000000E+03</pdfrwt>
<pdfrwt beam="2">0</pdfrwt>
<totfact> 0.29150374E+02</totfact>
</mgrwt>
</event>
<event>
 6    1  0.3125838E-002  0.3000000E+03  0.7818608E-02  0.1093470E+00
          3   -1    0    0  502    0  0.00000000000E+00  0.00000000000E+00  0.38678874771E+01  0.38678874771E+01  0.00000000000E+00 0.  1.
         13   -1    0    0    0    0 -0.00000000000E+00 -0.00000000000E+00 -0.10000000000E+04  0.10000000000E+04  0.00000000000E+00 0.  1.
    9000005    2    1    2  501    0  0.48780953954E+02  0.26480043394E+01 -0.80846897489E+03  0.80995025903E+03  0.32780101057E+01 0.  0.
         13    1    3    3    0    0  0.46747023656E+02  0.29760007159E+01 -0.78164591772E+03  0.78304819870E+03  0.00000000000E+00 0.  1.
          1    1    3    3  501    0  0.20339302976E+01 -0.32799637652E+00 -0.26823057177E+02  0.26902060337E+02  0.00000000000E+00 0.  1.
         21    1    1    2  502  501 -0.48780953954E+02 -0.26480043394E+01 -0.18766313763E+03  0.19391762844E+03  0.00000000000E+00 0.  1.
<mgrwt>
<rscale>  1 0.30000000E+03</rscale>
<asrwt>0</asrwt>
<pdfrwt beam="1">  1        3 0.14065075E-01 0.30000000E+03</pdfrwt>
<pdfrwt beam="2">0</pdfrwt>
<totfact> 0.18597784E+02</totfact>
</mgrwt>
</event>
<event>
 6    1  0.3125838E-002  0.3000000E+03  0.7818608E-02  0.1093470E+00
          1   -1    0    0  502    0  0.00000000000E+00  0.00000000000E+00  0.14547463581E+01  0.14547463581E+01  0.00000000000E+00 0.  1.
         13   -1    0    0    0    0 -0.00000000000E+00 -0.00000000000E+00 -0.10000000000E+04  0.10000000000E+04  0.00000000000E+00 0.  1.
    9000005    2    1    2  501    0 -0.79042737609E+01 -0.29934504003E+02 -0.79102741477E+03  0.79164005306E+03  0.33242470154E+01 0.  0.
         13    1    3    3    0    0 -0.94915849213E+00 -0.37338063849E+01 -0.73727139812E+02  0.73827727561E+02  0.00000000000E+00 0.  1.
          3    1    3    3  501    0 -0.69551152687E+01 -0.26200697618E+02 -0.71730027496E+03  0.71781232550E+03  0.00000000000E+00 0.  1.
         21    1    1    2  502  501  0.79042737609E+01  0.29934504003E+02 -0.20751783887E+03  0.20981469330E+03  0.00000000000E+00 0.  1.
<mgrwt>
<rscale>  1 0.30000000E+03</rscale>
<asrwt>0</asrwt>
<pdfrwt beam="1">  1        1 0.52899979E-02 0.30000000E+03</pdfrwt>
<pdfrwt beam="2">0</pdfrwt>
<totfact> 0.18376571E+03</totfact>
</mgrwt>
</event>
<event>
 6    1  0.3125838E-002  0.3000000E+03  0.7818608E-02  0.1093470E+00
          3   -1    0    0  502    0  0.00000000000E+00  0.00000000000E+00  0.23487970846E+01  0.23487970846E+01  0.00000000000E+00 0.  1.
         13   -1    0    0    0    0 -0.00000000000E+00 -0.00000000000E+00 -0.10000000000E+04  0.10000000000E+04  0.00000000000E+00 0.  1.
    9000005    2    1    2  501    0 -0.38629407758E+02  0.66092889865E+00 -0.80101766424E+03  0.80195564226E+03  0.32993557442E+01 0.  0.
         13    1    3    3    0    0 -0.18461647686E+01 -0.18558354048E+00 -0.26748957244E+02  0.26813233286E+02  0.00000000000E+00 0.  1.
          3    1    3    3  501    0 -0.36783242990E+02  0.84651243912E+00 -0.77426870700E+03  0.77514240897E+03  0.00000000000E+00 0.  1.
         21    1    1    2  502  501  0.38629407758E+02 -0.66092889865E+00 -0.19663353867E+03  0.20039315483E+03  0.00000000000E+00 0.  1.
<mgrwt>
<rscale>  1 0.30000000E+03</rscale>
<asrwt>0</asrwt>
<pdfrwt beam="1">  1        3 0.85410983E-02 0.30000000E+03</pdfrwt>
<pdfrwt beam="2">0</pdfrwt>
<totfact> 0.42675453E+02</totfact>
</mgrwt>
</event>
<event>
 6    1  0.3138394E-002  0.3000000E+03  0.7818608E-02  0.1093470E+00
          3   -1    0    0  502    0  0.00000000000E+00  0.00000000000E+00  0.17217990456E+01  0.17217990456E+01  0.00000000000E+00 0.  1.
         13   -1    0    0    0    0 -0.00000000000E+00 -0.00000000000E+00 -0.10000000000E+04  0.10000000000E+04  0.00000000000E+00 0.  1.
    9000005    2    1    2  501    0 -0.17930762751E+02  0.29540347819E+02 -0.77182624919E+03  0.77264838099E+03  0.86958210949E+01 0.  0.
         13    1    3    3    0    0 -0.16980237122E+02  0.30078774533E+02 -0.74739924595E+03  0.74819696202E+03  0.00000000000E+00 0.  1.
          3    1    3    3  501    0 -0.95052562971E+00 -0.53842671357E+00 -0.24427003241E+02  0.24451418970E+02  0.00000000000E+00 0.  1.
         21    1    1    2  502  501  0.17930762751E+02 -0.29540347819E+02 -0.22645195177E+03  0.22907341806E+03  0.00000000000E+00 0.  1.
<mgrwt>
<rscale>  1 0.30000000E+03</rscale>
<asrwt>0</asrwt>
<pdfrwt beam="1">  1        3 0.62611006E-02 0.30000000E+03</pdfrwt>
<pdfrwt beam="2">0</pdfrwt>
<totfact> 0.69773432E+02</totfact>
</mgrwt>
</event>
<event>
 6    1  0.3125838E-002  0.3000000E+03  0.7818608E-02  0.1093470E+00
          1   -1    0    0  502    0  0.00000000000E+00  0.00000000000E+00  0.32178545806E+01  0.32178545806E+01  0.00000000000E+00 0.  1.
         13   -1    0    0    0    0 -0.00000000000E+00 -0.00000000000E+00 -0.10000000000E+04  0.10000000000E+04  0.00000000000E+00 0.  1.
    9000005    2    1    2  501    0 -0.11741779583E+02 -0.32156631803E+02 -0.89827677757E+03  0.89893350364E+03  0.28907580543E+01 0.  0.
         13    1    3    3    0    0 -0.55365633933E+01 -0.18850247664E+02 -0.49652442002E+03  0.49691295520E+03  0.00000000000E+00 0.  1.
          1    1    3    3  501    0 -0.62052161898E+01 -0.13306384138E+02 -0.40175235755E+03  0.40202054843E+03  0.00000000000E+00 0.  1.
         21    1    1    2  502  501  0.11741779583E+02  0.32156631803E+02 -0.98505367848E+02  0.10428435094E+03  0.00000000000E+00 0.  1.
<mgrwt>
<rscale>  1 0.30000000E+03</rscale>
<asrwt>0</asrwt>
<pdfrwt beam="1">  1        1 0.11701314E-01 0.30000000E+03</pdfrwt>
<pdfrwt beam="2">0</pdfrwt>
<totfact> 0.60885578E+02</totfact>
</mgrwt>
</event>
<event>
 6    1  0.3125838E-002  0.3000000E+03  0.7818608E-02  0.1093470E+00
          3   -1    0    0  502    0  0.00000000000E+00  0.00000000000E+00  0.38292283834E+01  0.38292283834E+01  0.00000000000E+00 0.  1.
         13   -1    0    0    0    0 -0.00000000000E+00 -0.00000000000E+00 -0.10000000000E+04  0.10000000000E+04  0.00000000000E+00 0.  1.
    9000005    2    1    2  501    0 -0.43265314414E+02 -0.89777898312E+01 -0.84927140174E+03  0.85042807776E+03  0.36760702326E+01 0.  0.
         13    1    3    3    0    0 -0.11963421692E+02 -0.29154322445E+01 -0.26838740390E+03  0.26866972620E+03  0.00000000000E+00 0.  1.
          1    1    3    3  501    0 -0.31301892722E+02 -0.60623575867E+01 -0.58088399784E+03  0.58175835157E+03  0.00000000000E+00 0.  1.
         21    1    1    2  502  501  0.43265314414E+02  0.89777898312E+01 -0.14689936987E+03  0.15340115062E+03  0.00000000000E+00 0.  1.
<mgrwt>
<rscale>  1 0.30000000E+03</rscale>
<asrwt>0</asrwt>
<pdfrwt beam="1">  1        3 0.13924496E-01 0.30000000E+03</pdfrwt>
<pdfrwt beam="2">0</pdfrwt>
<totfact> 0.18921021E+02</totfact>
</mgrwt>
</event>
<event>
 6    1  0.3125838E-002  0.3000000E+03  0.7818608E-02  0.1093470E+00
          1   -1    0    0  502    0  0.00000000000E+00  0.00000000000E+00  0.11513912201E+01  0.11513912201E+01  0.00000000000E+00 0.  1.
         13   -1    0    0    0    0 -0.00000000000E+00 -0.00000000000E+00 -0.10000000000E+04  0.10000000000E+04  0.00000000000E+00 0.  1.
    9000005    2    1    2  501    0  0.90591454947E+01  0.29881664517E+02 -0.69397648887E+03  0.69468444114E+03  0.28502052459E+01 0.  0.
         13    1    3    3    0    0  0.31501742324E+01  0.88057363879E+01 -0.23584097202E+03  0.23602633047E+03  0.00000000000E+00 0.  1.
          3    1    3    3  501    0  0.59089712624E+01  0.21075928129E+02 -0.45813551685E+03  0.45865811067E+03  0.00000000000E+00 0.  1.
         21    1    1    2  502  501 -0.90591454947E+01 -0.29881664517E+02 -0.30487211991E+03  0.30646695008E+03  0.00000000000E+00 0.  1.
<mgrwt>
<rscale>  1 0.30000000E+03</rscale>
<asrwt>0</asrwt>
<pdfrwt beam="1">  1        1 0.41868860E-02 0.30000000E+03</pdfrwt>
<pdfrwt beam="2">0</pdfrwt>
<totfact> 0.25533955E+03</totfact>
</mgrwt>
</event>
<event>
 6    1  0.3125838E-002  0.3000000E+03  0.7818608E-02  0.1093470E+00
          1   -1    0    0  502    0  0.00000000000E+00  0.00000000000E+00  0.35865800467E+01  0.35865800467E+01  0.00000000000E+00 0.  1.
         13   -1    0    0    0    0 -0.00000000000E+00 -0.00000000000E+00 -0.10000000000E+04  0.10000000000E+04  0.00000000000E+00 0.  1.
    9000005    2    1    2  501    0  0.89095126945E+01  0.31355284921E+02 -0.91909471267E+03  0.91967760672E+03  0.30456745892E+01 0.  0.
         13    1    3    3    0    0  0.66957098965E+01  0.27392965761E+02 -0.79294070691E+03  0.79344197758E+03  0.00000000000E+00 0.  1.
          3    1    3    3  501    0  0.22138027980E+01  0.39623191595E+01 -0.12615400576E+03  0.12623562914E+03  0.00000000000E+00 0.  1.
         21    1    1    2  502  501 -0.89095126945E+01 -0.31355284921E+02 -0.77318707280E+02  0.83908973325E+02  0.00000000000E+00 0.  1.
<mgrwt>
<rscale>  1 0.30000000E+03</rscale>
<asrwt>0</asrwt>
<pdfrwt beam="1">  1        1 0.13042137E-01 0.30000000E+03</pdfrwt>
<pdfrwt beam="2">0</pdfrwt>
<totfact> 0.52481168E+02</totfact>
</mgrwt>
</event>
<event>
 6    1  0.3125838E-002  0.3000000E+03  0.7818608E-02  0.1093470E+00
          1   -1    0    0  502    0  0.00000000000E+00  0.00000000000E+00  0.30391655000E+01  0.30391655000E+01  0.00000000000E+00 0.  1.
         13   -1    0    0    0    0 -0.00000000000E+00 -0.00000000000E+00 -0.10000000000E+04  0.10000000000E+04  0.00000000000E+00 0.  1.
    9000005    2    1    2  501    0 -0.21196696149E+02  0.36559376669E+02 -0.82030033574E+03  0.82139440292E+03  0.31994352544E+01 0.  0.
         13    1    3    3    0    0 -0.20858361651E+02  0.35297498236E+02 -0.80214476413E+03  0.80319188695E+03  0.00000000000E+00 0.  1.
          3    1    3    3  501    0 -0.33833449872E+00  0.12618784322E+01 -0.18155571605E+02  0.18202515972E+02  0.00000000000E+00 0.  1.
         21    1    1    2  502  501  0.21196696149E+02 -0.36559376669E+02 -0.17666049876E+03  0.18164476258E+03  0.00000000000E+00 0.  1.
<mgrwt>
<rscale>  1 0.30000000E+03</rscale>
<asrwt>0</asrwt>
<pdfrwt beam="1">  1        1 0.11051534E-01 0.30000000E+03</pdfrwt>
<pdfrwt beam="2">0</pdfrwt>
<totfact> 0.65852978E+02</totfact>
</mgrwt>
</event>
<event>
 6    1  0.3125838E-002  0.3000000E+03  0.7818608E-02  0.1093470E+00
          1   -1    0    0  502    0  0.00000000000E+00  0.00000000000E+00  0.12435120933E+01  0.12435120933E+01  0.00000000000E+00 0.  1.
         13   -1    0    0    0    0 -0.00000000000E+00 -0.00000000000E+00 -0.10000000000E+04  0.10000000000E+04  0.00000000000E+00 0.  1.
    9000005    2    1    2  501    0  0.33977712021E+02  0.59418406402E+01 -0.59811454806E+03  0.59911945866E+03  0.36500358158E+01 0.  0.
         13    1    3    3    0    0  0.26400600934E+02  0.46923215250E+01 -0.43686131363E+03  0.43768346662E+03  0.00000000000E+00 0.  1.
          1    1    3    3  501    0  0.75771110872E+01  0.12495191152E+01 -0.16125323443E+03  0.16143599204E+03  0.00000000000E+00 0.  1.
         21    1    1    2  502  501 -0.33977712021E+02 -0.59418406402E+01 -0.40064193985E+03  0.40212405344E+03  0.00000000000E+00 0.  1.
<mgrwt>
<rscale>  1 0.30000000E+03</rscale>
<asrwt>0</asrwt>
<pdfrwt beam="1">  1        1 0.45218717E-02 0.30000000E+03</pdfrwt>
<pdfrwt beam="2">0</pdfrwt>
<totfact> 0.22911961E+03</totfact>
</mgrwt>
</event>
<event>
 6    1  0.3610510E-002  0.3000000E+03  0.7818608E-02  0.1093470E+00
          1   -1    0    0  502    0  0.00000000000E+00  0.00000000000E+00  0.12819064892E+01  0.12819064892E+01  0.00000000000E+00 0.  1.
         13   -1    0    0    0    0 -0.00000000000E+00 -0.00000000000E+00 -0.10000000000E+04  0.10000000000E+04  0.00000000000E+00 0.  1.
    9000005    2    1    2  501    0 -0.32094104422E+02  0.12277803200E+02 -0.60709395738E+03  0.60815312353E+03  0.10313708498E+02 0.  0.
         13    1    3    3    0    0 -0.90476783536E+01 -0.10636431680E+01 -0.13268890631E+03  0.13300126946E+03  0.00000000000E+00 0.  1.
          1    1    3    3  501    0 -0.23046426069E+02  0.13341446368E+02 -0.47440505106E+03  0.47515185406E+03  0.00000000000E+00 0.  1.
         21    1    1    2  502  501  0.32094104422E+02 -0.12277803200E+02 -0.39162413613E+03  0.39312878296E+03  0.00000000000E+00 0.  1.
<mgrwt>
<rscale>  1 0.30000000E+03</rscale>
<asrwt>0</asrwt>
<pdfrwt beam="1">  1        1 0.46614880E-02 0.30000000E+03</pdfrwt>
<pdfrwt beam="2">0</pdfrwt>
<totfact> 0.21952325E+03</totfact>
</mgrwt>
</event>
<event>
 6    1  0.3125838E-002  0.3000000E+03  0.7818608E-02  0.1093470E+00
          1   -1    0    0  502    0  0.00000000000E+00  0.00000000000E+00  0.24271275868E+01  0.24271275868E+01  0.00000000000E+00 0.  1.
         13   -1    0    0    0    0 -0.00000000000E+00 -0.00000000000E+00 -0.10000000000E+04  0.10000000000E+04  0.00000000000E+00 0.  1.
    9000005    2    1    2  501    0 -0.34479755601E+02 -0.11504001365E+02 -0.83687298840E+03  0.83766776271E+03  0.31122935685E+01 0.  0.
         13    1    3    3    0    0 -0.20181445425E+02 -0.52608325060E+01 -0.46378460462E+03  0.46425330002E+03  0.00000000000E+00 0.  1.
          1    1    3    3  501    0 -0.14298310176E+02 -0.62431688590E+01 -0.37308838379E+03  0.37341446269E+03  0.00000000000E+00 0.  1.
         21    1    1    2  502  501  0.34479755601E+02  0.11504001365E+02 -0.16069988401E+03  0.16475936487E+03  0.00000000000E+00 0.  1.
<mgrwt>
<rscale>  1 0.30000000E+03</rscale>
<asrwt>0</asrwt>
<pdfrwt beam="1">  1        1 0.88259371E-02 0.30000000E+03</pdfrwt>
<pdfrwt beam="2">0</pdfrwt>
<totfact> 0.89838496E+02</totfact>
</mgrwt>
</event>
<event>
 6    1  0.4355974E-002  0.3000000E+03  0.7818608E-02  0.1093470E+00
          1   -1    0    0  502    0  0.00000000000E+00  0.00000000000E+00  0.13926855156E+01  0.13926855156E+01  0.00000000000E+00 0.  1.
         13   -1    0    0    0    0 -0.00000000000E+00 -0.00000000000E+00 -0.10000000000E+04  0.10000000000E+04  0.00000000000E+00 0.  1.
    9000005    2    1    2  501    0 -0.30550688542E+02  0.13637797481E+02 -0.70763246795E+03  0.70850073375E+03  0.10499806827E+02 0.  0.
         13    1    3    3    0    0 -0.10940216651E+02  0.10575096504E+02 -0.30398250814E+03  0.30436308295E+03  0.00000000000E+00 0.  1.
          1    1    3    3  501    0 -0.19610471891E+02  0.30627009778E+01 -0.40364995981E+03  0.40413765080E+03  0.00000000000E+00 0.  1.
         21    1    1    2  502  501  0.30550688542E+02 -0.13637797481E+02 -0.29097484654E+03  0.29289195176E+03  0.00000000000E+00 0.  1.
<mgrwt>
<rscale>  1 0.30000000E+03</rscale>
<asrwt>0</asrwt>
<pdfrwt beam="1">  1        1 0.50643216E-02 0.30000000E+03</pdfrwt>
<pdfrwt beam="2">0</pdfrwt>
<totfact> 0.19537441E+03</totfact>
</mgrwt>
</event>
<event>
 6    1  0.3125838E-002  0.3000000E+03  0.7818608E-02  0.1093470E+00
          1   -1    0    0  502    0  0.00000000000E+00  0.00000000000E+00  0.10041479342E+02  0.10041479342E+02  0.00000000000E+00 0.  1.
         13   -1    0    0    0    0 -0.00000000000E+00 -0.00000000000E+00 -0.10000000000E+04  0.10000000000E+04  0.00000000000E+00 0.  1.
    9000005    2    1    2  501    0 -0.48714361712E+02 -0.31098996899E+02 -0.90750829500E+03  0.90935247122E+03  0.32209902872E+01 0.  0.
         13    1    3    3    0    0 -0.43430047741E+02 -0.28861340152E+02 -0.81643314631E+03  0.81809671091E+03  0.00000000000E+00 0.  1.
          3    1    3    3  501    0 -0.52843139707E+01 -0.22376567470E+01 -0.91075148686E+02  0.91255760312E+02  0.00000000000E+00 0.  1.
         21    1    1    2  502  501  0.48714361712E+02  0.31098996899E+02 -0.82450225661E+02  0.10068900812E+03  0.00000000000E+00 0.  1.
<mgrwt>
<rscale>  1 0.30000000E+03</rscale>
<asrwt>0</asrwt>
<pdfrwt beam="1">  1        1 0.36514547E-01 0.30000000E+03</pdfrwt>
<pdfrwt beam="2">0</pdfrwt>
<totfact> 0.13314725E+02</totfact>
</mgrwt>
</event>
<event>
 6    1  0.3125838E-002  0.3000000E+03  0.7818608E-02  0.1093470E+00
          3   -1    0    0  502    0  0.00000000000E+00  0.00000000000E+00  0.13549438339E+01  0.13549438339E+01  0.00000000000E+00 0.  1.
         13   -1    0    0    0    0 -0.00000000000E+00 -0.00000000000E+00 -0.10000000000E+04  0.10000000000E+04  0.00000000000E+00 0.  1.
    9000005    2    1    2  501    0 -0.25911572803E+02 -0.17576287191E+02 -0.76161107960E+03  0.76226198801E+03  0.34009297340E+01 0.  0.
         13    1    3    3    0    0 -0.15592974001E+02 -0.12293650349E+02 -0.46073567746E+03  0.46116335410E+03  0.00000000000E+00 0.  1.
          3    1    3    3  501    0 -0.10318598802E+02 -0.52826368424E+01 -0.30087540213E+03  0.30109863391E+03  0.00000000000E+00 0.  1.
         21    1    1    2  502  501  0.25911572803E+02  0.17576287191E+02 -0.23703397657E+03  0.23909295582E+03  0.00000000000E+00 0.  1.
<mgrwt>
<rscale>  1 0.30000000E+03</rscale>
<asrwt>0</asrwt>
<pdfrwt beam="1">  1        3 0.49270789E-02 0.30000000E+03</pdfrwt>
<pdfrwt beam="2">0</pdfrwt>
<totfact> 0.10120874E+03</totfact>
</mgrwt>
</event>
<event>
 6    1  0.3125838E-002  0.3000000E+03  0.7818608E-02  0.1093470E+00
          3   -1    0    0  502    0  0.00000000000E+00  0.00000000000E+00  0.60757604864E+01  0.60757604864E+01  0.00000000000E+00 0.  1.
         13   -1    0    0    0    0 -0.00000000000E+00 -0.00000000000E+00 -0.10000000000E+04  0.10000000000E+04  0.00000000000E+00 0.  1.
    9000005    2    1    2  501    0  0.53470203001E+02  0.36915431535E+02 -0.77467934577E+03  0.77740539702E+03  0.30415229564E+01 0.  0.
         13    1    3    3    0    0  0.37600065439E+02  0.27220298905E+02 -0.56369976737E+03  0.56560775925E+03  0.00000000000E+00 0.  1.
          3    1    3    3  501    0  0.15870137561E+02  0.96951326300E+01 -0.21097957840E+03  0.21179763777E+03  0.00000000000E+00 0.  1.
         21    1    1    2  502  501 -0.53470203001E+02 -0.36915431535E+02 -0.21924489374E+03  0.22867036346E+03  0.00000000000E+00 0.  1.
<mgrwt>
<rscale>  1 0.30000000E+03</rscale>
<asrwt>0</asrwt>
<pdfrwt beam="1">  1        3 0.22093721E-01 0.30000000E+03</pdfrwt>
<pdfrwt beam="2">0</pdfrwt>
<totfact> 0.83222167E+01</totfact>
</mgrwt>
</event>
<event>
 6    1  0.3125838E-002  0.3000000E+03  0.7818608E-02  0.1093470E+00
          1   -1    0    0  502    0  0.00000000000E+00  0.00000000000E+00  0.65378745031E+01  0.65378745031E+01  0.00000000000E+00 0.  1.
         13   -1    0    0    0    0 -0.00000000000E+00 -0.00000000000E+00 -0.10000000000E+04  0.10000000000E+04  0.00000000000E+00 0.  1.
    9000005    2    1    2  501    0 -0.12597373589E+02  0.33372627956E+02 -0.94835163692E+03  0.94902802928E+03  0.33086236746E+01 0.  0.
         13    1    3    3    0    0 -0.10009261904E+02  0.22319866780E+02 -0.63668772577E+03  0.63715745457E+03  0.00000000000E+00 0.  1.
          3    1    3    3  501    0 -0.25881116850E+01  0.11052761176E+02 -0.31166391115E+03  0.31187057471E+03  0.00000000000E+00 0.  1.
         21    1    1    2  502  501  0.12597373589E+02 -0.33372627956E+02 -0.45110488576E+02  0.57509845223E+02  0.00000000000E+00 0.  1.
<mgrwt>
<rscale>  1 0.30000000E+03</rscale>
<asrwt>0</asrwt>
<pdfrwt beam="1">  1        1 0.23774139E-01 0.30000000E+03</pdfrwt>
<pdfrwt beam="2">0</pdfrwt>
<totfact> 0.23398197E+02</totfact>
</mgrwt>
</event>
<event>
 6    1  0.3125838E-002  0.3000000E+03  0.7818608E-02  0.1093470E+00
          1   -1    0    0  502    0  0.00000000000E+00  0.00000000000E+00  0.10259558957E+01  0.10259558957E+01  0.00000000000E+00 0.  1.
         13   -1    0    0    0    0 -0.00000000000E+00 -0.00000000000E+00 -0.10000000000E+04  0.10000000000E+04  0.00000000000E+00 0.  1.
    9000005    2    1    2  501    0  0.81533222958E+00  0.31828117106E+02 -0.53766899389E+03  0.53862348709E+03  0.36905349497E+01 0.  0.
         13    1    3    3    0    0  0.21424356056E+01  0.16961389383E+02 -0.29859180239E+03  0.29908083057E+03  0.00000000000E+00 0.  1.
          3    1    3    3  501    0 -0.13271033761E+01  0.14866727723E+02 -0.23907719150E+03  0.23954265652E+03  0.00000000000E+00 0.  1.
         21    1    1    2  502  501 -0.81533222958E+00 -0.31828117106E+02 -0.46130505022E+03  0.46240246881E+03  0.00000000000E+00 0.  1.
<mgrwt>
<rscale>  1 0.30000000E+03</rscale>
<asrwt>0</asrwt>
<pdfrwt beam="1">  1        1 0.37307566E-02 0.30000000E+03</pdfrwt>
<pdfrwt beam="2">0</pdfrwt>
<totfact> 0.30035964E+03</totfact>
</mgrwt>
</event>
<event>
 6    1  0.3125838E-002  0.3000000E+03  0.7818608E-02  0.1093470E+00
          1   -1    0    0  502    0  0.00000000000E+00  0.00000000000E+00  0.11662930075E+01  0.11662930075E+01  0.00000000000E+00 0.  1.
         13   -1    0    0    0    0 -0.00000000000E+00 -0.00000000000E+00 -0.10000000000E+04  0.10000000000E+04  0.00000000000E+00 0.  1.
    9000005    2    1    2  501    0  0.12694792466E+02  0.31206925496E+02 -0.57550716729E+03  0.57650126128E+03  0.31897808458E+01 0.  0.
         13    1    3    3    0    0  0.88831289801E+01  0.21677033674E+02 -0.37417061198E+03  0.37490325504E+03  0.00000000000E+00 0.  1.
          1    1    3    3  501    0  0.38116634860E+01  0.95298918223E+01 -0.20133655531E+03  0.20159800624E+03  0.00000000000E+00 0.  1.
         21    1    1    2  502  501 -0.12694792466E+02 -0.31206925496E+02 -0.42332653971E+03  0.42466503173E+03  0.00000000000E+00 0.  1.
<mgrwt>
<rscale>  1 0.30000000E+03</rscale>
<asrwt>0</asrwt>
<pdfrwt beam="1">  1        1 0.42410744E-02 0.30000000E+03</pdfrwt>
<pdfrwt beam="2">0</pdfrwt>
<totfact> 0.25075812E+03</totfact>
</mgrwt>
</event>
<event>
 6    1  0.3125838E-002  0.3000000E+03  0.7818608E-02  0.1093470E+00
          1   -1    0    0  502    0  0.00000000000E+00  0.00000000000E+00  0.25301978673E+02  0.25301978673E+02  0.00000000000E+00 0.  1.
         13   -1    0    0    0    0 -0.00000000000E+00 -0.00000000000E+00 -0.10000000000E+04  0.10000000000E+04  0.00000000000E+00 0.  1.
    9000005    2    1    2  501    0 -0.93656856487E+02 -0.40606104817E+02 -0.88048734170E+03  0.88639152308E+03  0.33927556137E+01 0.  0.
         13    1    3    3    0    0 -0.39434601582E+02 -0.18505066951E+02 -0.36633722942E+03  0.36891800033E+03  0.00000000000E+00 0.  1.
          3    1    3    3  501    0 -0.54222254905E+02 -0.22101037865E+02 -0.51415011228E+03  0.51747352276E+03  0.00000000000E+00 0.  1.
         21    1    1    2  502  501  0.93656856487E+02  0.40606104817E+02 -0.94210679630E+02  0.13891045559E+03  0.00000000000E+00 0.  1.
<mgrwt>
<rscale>  1 0.30000000E+03</rscale>
<asrwt>0</asrwt>
<pdfrwt beam="1">  1        1 0.92007389E-01 0.30000000E+03</pdfrwt>
<pdfrwt beam="2">0</pdfrwt>
<totfact> 0.38601715E+01</totfact>
</mgrwt>
</event>
<event>
 6    1  0.3125838E-002  0.3000000E+03  0.7818608E-02  0.1093470E+00
          1   -1    0    0  502    0  0.00000000000E+00  0.00000000000E+00  0.12075608707E+01  0.12075608707E+01  0.00000000000E+00 0.  1.
         13   -1    0    0    0    0 -0.00000000000E+00 -0.00000000000E+00 -0.10000000000E+04  0.10000000000E+04  0.00000000000E+00 0.  1.
    9000005    2    1    2  501    0 -0.20048567052E+02  0.24406105940E+02 -0.29443620189E+03  0.29614351273E+03  0.32711004843E+01 0.  0.
         13    1    3    3    0    0 -0.15321943853E+02  0.16816526550E+02 -0.20272855336E+03  0.20400103891E+03  0.00000000000E+00 0.  1.
          1    1    3    3  501    0 -0.47266231989E+01  0.75895793895E+01 -0.91707648532E+02  0.92142473818E+02  0.00000000000E+00 0.  1.
         21    1    1    2  502  501  0.20048567052E+02 -0.24406105940E+02 -0.70435623724E+03  0.70506404814E+03  0.00000000000E+00 0.  1.
<mgrwt>
<rscale>  1 0.30000000E+03</rscale>
<asrwt>0</asrwt>
<pdfrwt beam="1">  1        1 0.43911397E-02 0.30000000E+03</pdfrwt>
<pdfrwt beam="2">0</pdfrwt>
<totfact> 0.23877845E+03</totfact>
</mgrwt>
</event>
<event>
 6    1  0.3125838E-002  0.3000000E+03  0.7818608E-02  0.1093470E+00
          1   -1    0    0  502    0  0.00000000000E+00  0.00000000000E+00  0.19557316960E+01  0.19557316960E+01  0.00000000000E+00 0.  1.
         13   -1    0    0    0    0 -0.00000000000E+00 -0.00000000000E+00 -0.10000000000E+04  0.10000000000E+04  0.00000000000E+00 0.  1.
    9000005    2    1    2  501    0  0.38692039532E+02 -0.17577633011E+02 -0.36328471649E+03  0.36577514749E+03  0.31026083400E+01 0.  0.
         13    1    3    3    0    0  0.23043131424E+02 -0.12000776414E+02 -0.22658948288E+03  0.22807410702E+03  0.00000000000E+00 0.  1.
          3    1    3    3  501    0  0.15648908108E+02 -0.55768565963E+01 -0.13669523361E+03  0.13770104047E+03  0.00000000000E+00 0.  1.
         21    1    1    2  502  501 -0.38692039532E+02  0.17577633011E+02 -0.63475955181E+03  0.63618058421E+03  0.00000000000E+00 0.  1.
<mgrwt>
<rscale>  1 0.30000000E+03</rscale>
<asrwt>0</asrwt>
<pdfrwt beam="1">  1        1 0.71117666E-02 0.30000000E+03</pdfrwt>
<pdfrwt beam="2">0</pdfrwt>
<totfact> 0.12136346E+03</totfact>
</mgrwt>
</event>
<event>
 6    1  0.3125838E-002  0.3000000E+03  0.7818608E-02  0.1093470E+00
          3   -1    0    0  502    0  0.00000000000E+00  0.00000000000E+00  0.25467586214E+01  0.25467586214E+01  0.00000000000E+00 0.  1.
         13   -1    0    0    0    0 -0.00000000000E+00 -0.00000000000E+00 -0.10000000000E+04  0.10000000000E+04  0.00000000000E+00 0.  1.
    9000005    2    1    2  501    0  0.32452385163E+02 -0.37437983527E+02 -0.59221696196E+03  0.59429291348E+03  0.28943167505E+01 0.  0.
         13    1    3    3    0    0  0.13915127218E+02 -0.14661164441E+02 -0.25462384062E+03  0.25542490231E+03  0.00000000000E+00 0.  1.
          1    1    3    3  501    0  0.18537257945E+02 -0.22776819087E+02 -0.33759312134E+03  0.33886801117E+03  0.00000000000E+00 0.  1.
         21    1    1    2  502  501 -0.32452385163E+02  0.37437983527E+02 -0.40523627942E+03  0.40825384514E+03  0.00000000000E+00 0.  1.
<mgrwt>
<rscale>  1 0.30000000E+03</rscale>
<asrwt>0</asrwt>
<pdfrwt beam="1">  1        3 0.92609600E-02 0.30000000E+03</pdfrwt>
<pdfrwt beam="2">0</pdfrwt>
<totfact> 0.37444661E+02</totfact>
</mgrwt>
</event>
<event>
 6    1  0.3125838E-002  0.3000000E+03  0.7818608E-02  0.1093470E+00
          3   -1    0    0  502    0  0.00000000000E+00  0.00000000000E+00  0.94422365731E+00  0.94422365731E+00  0.00000000000E+00 0.  1.
         13   -1    0    0    0    0 -0.00000000000E+00 -0.00000000000E+00 -0.10000000000E+04  0.10000000000E+04  0.00000000000E+00 0.  1.
    9000005    2    1    2  501    0  0.27833264630E+02  0.12500645539E+02 -0.54558151169E+03  0.54644464670E+03  0.34072337897E+01 0.  0.
         13    1    3    3    0    0  0.14157295750E+02  0.45229271480E+01 -0.25865779677E+03  0.25908442972E+03  0.00000000000E+00 0.  1.
          3    1    3    3  501    0  0.13675968880E+02  0.79777183912E+01 -0.28692371492E+03  0.28736021697E+03  0.00000000000E+00 0.  1.
         21    1    1    2  502  501 -0.27833264630E+02 -0.12500645539E+02 -0.45347426465E+03  0.45449957696E+03  0.00000000000E+00 0.  1.
<mgrwt>
<rscale>  1 0.30000000E+03</rscale>
<asrwt>0</asrwt>
<pdfrwt beam="1">  1        3 0.34335478E-02 0.30000000E+03</pdfrwt>
<pdfrwt beam="2">0</pdfrwt>
<totfact> 0.17652229E+03</totfact>
</mgrwt>
</event>
<event>
 6    1  0.3125838E-002  0.3000000E+03  0.7818608E-02  0.1093470E+00
          3   -1    0    0  502    0  0.00000000000E+00  0.00000000000E+00  0.37094968436E+01  0.37094968436E+01  0.00000000000E+00 0.  1.
         13   -1    0    0    0    0 -0.00000000000E+00 -0.00000000000E+00 -0.10000000000E+04  0.10000000000E+04  0.00000000000E+00 0.  1.
    9000005    2    1    2  501    0  0.36947133535E+02  0.10810561679E+02 -0.88691194273E+03  0.88775421062E+03  0.35756694012E+01 0.  0.
         13    1    3    3    0    0  0.73636266362E+01  0.22433450467E+01 -0.21247313169E+03  0.21261252852E+03  0.00000000000E+00 0.  1.
          3    1    3    3  501    0  0.29583506899E+02  0.85672166323E+01 -0.67443881104E+03  0.67514168210E+03  0.00000000000E+00 0.  1.
         21    1    1    2  502  501 -0.36947133535E+02 -0.10810561679E+02 -0.10937856043E+03  0.11595528622E+03  0.00000000000E+00 0.  1.
<mgrwt>
<rscale>  1 0.30000000E+03</rscale>
<asrwt>0</asrwt>
<pdfrwt beam="1">  1        3 0.13489108E-01 0.30000000E+03</pdfrwt>
<pdfrwt beam="2">0</pdfrwt>
<totfact> 0.19977705E+02</totfact>
</mgrwt>
</event>
<event>
 6    1  0.3125838E-002  0.3000000E+03  0.7818608E-02  0.1093470E+00
          1   -1    0    0  502    0  0.00000000000E+00  0.00000000000E+00  0.31016102974E+01  0.31016102974E+01  0.00000000000E+00 0.  1.
         13   -1    0    0    0    0 -0.00000000000E+00 -0.00000000000E+00 -0.10000000000E+04  0.10000000000E+04  0.00000000000E+00 0.  1.
    9000005    2    1    2  501    0 -0.22123687947E+02 -0.27021635322E+02 -0.88881534860E+03  0.88951653153E+03  0.52258607068E+01 0.  0.
         13    1    3    3    0    0 -0.21002086585E+02 -0.23955838804E+02 -0.77538936013E+03  0.77604357458E+03  0.00000000000E+00 0.  1.
          1    1    3    3  501    0 -0.11216013621E+01 -0.30657965175E+01 -0.11342598847E+03  0.11347295695E+03  0.00000000000E+00 0.  1.
         21    1    1    2  502  501  0.22123687947E+02  0.27021635322E+02 -0.10808304110E+03  0.11358507876E+03  0.00000000000E+00 0.  1.
<mgrwt>
<rscale>  1 0.30000000E+03</rscale>
<asrwt>0</asrwt>
<pdfrwt beam="1">  1        1 0.11278607E-01 0.30000000E+03</pdfrwt>
<pdfrwt beam="2">0</pdfrwt>
<totfact> 0.64038744E+02</totfact>
</mgrwt>
</event>
<event>
 6    1  0.3125838E-002  0.3000000E+03  0.7818608E-02  0.1093470E+00
          3   -1    0    0  502    0  0.00000000000E+00  0.00000000000E+00  0.44455880143E+01  0.44455880143E+01  0.00000000000E+00 0.  1.
         13   -1    0    0    0    0 -0.00000000000E+00 -0.00000000000E+00 -0.10000000000E+04  0.10000000000E+04  0.00000000000E+00 0.  1.
    9000005    2    1    2  501    0 -0.34618464216E+02  0.96739076112E+01 -0.92071553035E+03  0.92142221325E+03  0.31280480367E+01 0.  0.
         13    1    3    3    0    0 -0.14986223049E+02  0.49668453476E+01 -0.36966440445E+03  0.37000138966E+03  0.00000000000E+00 0.  1.
          3    1    3    3  501    0 -0.19632241168E+02  0.47070622636E+01 -0.55105112590E+03  0.55142082359E+03  0.00000000000E+00 0.  1.
         21    1    1    2  502  501  0.34618464216E+02 -0.96739076112E+01 -0.74838881632E+02  0.83023374763E+02  0.00000000000E+00 0.  1.
<mgrwt>
<rscale>  1 0.30000000E+03</rscale>
<asrwt>0</asrwt>
<pdfrwt beam="1">  1        3 0.16165809E-01 0.30000000E+03</pdfrwt>
<pdfrwt beam="2">0</pdfrwt>
<totfact> 0.14608601E+02</totfact>
</mgrwt>
</event>
<event>
 6    1  0.3125838E-002  0.3000000E+03  0.7818608E-02  0.1093470E+00
          1   -1    0    0  502    0  0.00000000000E+00  0.00000000000E+00  0.11801773997E+01  0.11801773997E+01  0.00000000000E+00 0.  1.
         13   -1    0    0    0    0 -0.00000000000E+00 -0.00000000000E+00 -0.10000000000E+04  0.10000000000E+04  0.00000000000E+00 0.  1.
    9000005    2    1    2  501    0  0.43487754820E+01  0.30928850862E+02 -0.70108926944E+03  0.70181587100E+03  0.66217364109E+01 0.  0.
         13    1    3    3    0    0 -0.16024028563E+01  0.11207963727E+02 -0.24213690094E+03  0.24240145409E+03  0.00000000000E+00 0.  1.
          3    1    3    3  501    0  0.59511783383E+01  0.19720887136E+02 -0.45895236850E+03  0.45941441691E+03  0.00000000000E+00 0.  1.
         21    1    1    2  502  501 -0.43487754820E+01 -0.30928850862E+02 -0.29773055316E+03  0.29936430640E+03  0.00000000000E+00 0.  1.
<mgrwt>
<rscale>  1 0.30000000E+03</rscale>
<asrwt>0</asrwt>
<pdfrwt beam="1">  1        1 0.42915632E-02 0.30000000E+03</pdfrwt>
<pdfrwt beam="2">0</pdfrwt>
<totfact> 0.24661470E+03</totfact>
</mgrwt>
</event>
<event>
 6    1  0.3125838E-002  0.3000000E+03  0.7818608E-02  0.1093470E+00
          1   -1    0    0  502    0  0.00000000000E+00  0.00000000000E+00  0.62231689348E+01  0.62231689348E+01  0.00000000000E+00 0.  1.
         13   -1    0    0    0    0 -0.00000000000E+00 -0.00000000000E+00 -0.10000000000E+04  0.10000000000E+04  0.00000000000E+00 0.  1.
    9000005    2    1    2  501    0 -0.20825959130E+02 -0.34083666658E+02 -0.93070189450E+03  0.93156485038E+03  0.34113243056E+01 0.  0.
         13    1    3    3    0    0 -0.18627631222E+02 -0.28112962916E+02 -0.78565226541E+03  0.78637574319E+03  0.00000000000E+00 0.  1.
          1    1    3    3  501    0 -0.21983279078E+01 -0.59707037423E+01 -0.14504962909E+03  0.14518910719E+03  0.00000000000E+00 0.  1.
         21    1    1    2  502  501  0.20825959130E+02  0.34083666658E+02 -0.63074936565E+02  0.74658318553E+02  0.00000000000E+00 0.  1.
<mgrwt>
<rscale>  1 0.30000000E+03</rscale>
<asrwt>0</asrwt>
<pdfrwt beam="1">  1        1 0.22629753E-01 0.30000000E+03</pdfrwt>
<pdfrwt beam="2">0</pdfrwt>
<totfact> 0.24977650E+02</totfact>
</mgrwt>
</event>
<event>
 6    1  0.3125838E-002  0.3000000E+03  0.7818608E-02  0.1093470E+00
          1   -1    0    0  502    0  0.00000000000E+00  0.00000000000E+00  0.11300542404E+02  0.11300542404E+02  0.00000000000E+00 0.  1.
         13   -1    0    0    0    0 -0.00000000000E+00 -0.00000000000E+00 -0.10000000000E+04  0.10000000000E+04  0.00000000000E+00 0.  1.
    9000005    2    1    2  501    0  0.21664194179E+02 -0.41571286760E+02 -0.94815813105E+03  0.94932386655E+03  0.38017001780E+01 0.  0.
         13    1    3    3    0    0  0.70770651557E+01 -0.15973266719E+02 -0.38308257975E+03  0.38348075964E+03  0.00000000000E+00 0.  1.
          3    1    3    3  501    0  0.14587129023E+02 -0.25598020041E+02 -0.56507555130E+03  0.56584310691E+03  0.00000000000E+00 0.  1.
         21    1    1    2  502  501 -0.21664194179E+02  0.41571286760E+02 -0.40541326542E+02  0.61976675856E+02  0.00000000000E+00 0.  1.
<mgrwt>
<rscale>  1 0.30000000E+03</rscale>
<asrwt>0</asrwt>
<pdfrwt beam="1">  1        1 0.41092968E-01 0.30000000E+03</pdfrwt>
<pdfrwt beam="2">0</pdfrwt>
<totfact> 0.11411280E+02</totfact>
</mgrwt>
</event>
<event>
 6    1  0.3125838E-002  0.3000000E+03  0.7818608E-02  0.1093470E+00
          1   -1    0    0  502    0  0.00000000000E+00  0.00000000000E+00  0.19655703115E+01  0.19655703115E+01  0.00000000000E+00 0.  1.
         13   -1    0    0    0    0 -0.00000000000E+00 -0.00000000000E+00 -0.10000000000E+04  0.10000000000E+04  0.00000000000E+00 0.  1.
    9000005    2    1    2  501    0 -0.39808399075E+02 -0.14548162202E+02 -0.64390808185E+03  0.64531191774E+03  0.36736416362E+01 0.  0.
         13    1    3    3    0    0 -0.23292351894E+02 -0.69295495811E+01 -0.35229179574E+03  0.35312895896E+03  0.00000000000E+00 0.  1.
          1    1    3    3  501    0 -0.16516047181E+02 -0.76186126210E+01 -0.29161628611E+03  0.29218295877E+03  0.00000000000E+00 0.  1.
         21    1    1    2  502  501  0.39808399075E+02  0.14548162202E+02 -0.35412634784E+03  0.35665365257E+03  0.00000000000E+00 0.  1.
<mgrwt>
<rscale>  1 0.30000000E+03</rscale>
<asrwt>0</asrwt>
<pdfrwt beam="1">  1        1 0.71475435E-02 0.30000000E+03</pdfrwt>
<pdfrwt beam="2">0</pdfrwt>
<totfact> 0.12051523E+03</totfact>
</mgrwt>
</event>
<event>
 6    1  0.3125838E-002  0.3000000E+03  0.7818608E-02  0.1093470E+00
          1   -1    0    0  502    0  0.00000000000E+00  0.00000000000E+00  0.17311453538E+01  0.17311453538E+01  0.00000000000E+00 0.  1.
         13   -1    0    0    0    0 -0.00000000000E+00 -0.00000000000E+00 -0.10000000000E+04  0.10000000000E+04  0.00000000000E+00 0.  1.
    9000005    2    1    2  501    0 -0.31315525896E+02  0.18456186957E+02 -0.74219592423E+03  0.74309116644E+03  0.28980515241E+01 0.  0.
         13    1    3    3    0    0 -0.11267961143E+02  0.59833536388E+01 -0.23522356566E+03  0.23556929620E+03  0.00000000000E+00 0.  1.
          3    1    3    3  501    0 -0.20047564753E+02  0.12472833318E+02 -0.50697235857E+03  0.50752187025E+03  0.00000000000E+00 0.  1.
         21    1    1    2  502  501  0.31315525896E+02 -0.18456186957E+02 -0.25607293042E+03  0.25863997891E+03  0.00000000000E+00 0.  1.
<mgrwt>
<rscale>  1 0.30000000E+03</rscale>
<asrwt>0</asrwt>
<pdfrwt beam="1">  1        1 0.62950873E-02 0.30000000E+03</pdfrwt>
<pdfrwt beam="2">0</pdfrwt>
<totfact> 0.14395946E+03</totfact>
</mgrwt>
</event>
<event>
 6    1  0.3125838E-002  0.3000000E+03  0.7818608E-02  0.1093470E+00
          1   -1    0    0  502    0  0.00000000000E+00  0.00000000000E+00  0.15929366516E+01  0.15929366516E+01  0.00000000000E+00 0.  1.
         13   -1    0    0    0    0 -0.00000000000E+00 -0.00000000000E+00 -0.10000000000E+04  0.10000000000E+04  0.00000000000E+00 0.  1.
    9000005    2    1    2  501    0  0.37241445286E+02  0.10383498924E+02 -0.61254342634E+03  0.61379725764E+03  0.65484375115E+01 0.  0.
         13    1    3    3    0    0  0.16725348179E+02  0.64431302850E+01 -0.23983857888E+03  0.24050737019E+03  0.00000000000E+00 0.  1.
          3    1    3    3  501    0  0.20516097107E+02  0.39403686385E+01 -0.37270484746E+03  0.37328988744E+03  0.00000000000E+00 0.  1.
         21    1    1    2  502  501 -0.37241445286E+02 -0.10383498924E+02 -0.38586363701E+03  0.38779567901E+03  0.00000000000E+00 0.  1.
<mgrwt>
<rscale>  1 0.30000000E+03</rscale>
<asrwt>0</asrwt>
<pdfrwt beam="1">  1        1 0.57925091E-02 0.30000000E+03</pdfrwt>
<pdfrwt beam="2">0</pdfrwt>
<totfact> 0.16178022E+03</totfact>
</mgrwt>
</event>
<event>
 6    1  0.3125838E-002  0.3000000E+03  0.7818608E-02  0.1093470E+00
          1   -1    0    0  502    0  0.00000000000E+00  0.00000000000E+00  0.12917918909E+01  0.12917918909E+01  0.00000000000E+00 0.  1.
         13   -1    0    0    0    0 -0.00000000000E+00 -0.00000000000E+00 -0.10000000000E+04  0.10000000000E+04  0.00000000000E+00 0.  1.
    9000005    2    1    2  501    0  0.11394975380E+02  0.33990576066E+02 -0.51144454965E+03  0.51271111525E+03  0.34576893996E+01 0.  0.
         13    1    3    3    0    0  0.45884392269E+01  0.96673863770E+01 -0.13929055423E+03  0.13970100440E+03  0.00000000000E+00 0.  1.
          1    1    3    3  501    0  0.68065361535E+01  0.24323189689E+02 -0.37215399542E+03  0.37301011085E+03  0.00000000000E+00 0.  1.
         21    1    1    2  502  501 -0.11394975380E+02 -0.33990576066E+02 -0.48726365846E+03  0.48858067664E+03  0.00000000000E+00 0.  1.
<mgrwt>
<rscale>  1 0.30000000E+03</rscale>
<asrwt>0</asrwt>
<pdfrwt beam="1">  1        1 0.46974350E-02 0.30000000E+03</pdfrwt>
<pdfrwt beam="2">0</pdfrwt>
<totfact> 0.21716385E+03</totfact>
</mgrwt>
</event>
<event>
 6    1  0.3125838E-002  0.3000000E+03  0.7818608E-02  0.1093470E+00
          1   -1    0    0  502    0  0.00000000000E+00  0.00000000000E+00  0.20888711719E+01  0.20888711719E+01  0.00000000000E+00 0.  1.
         13   -1    0    0    0    0 -0.00000000000E+00 -0.00000000000E+00 -0.10000000000E+04  0.10000000000E+04  0.00000000000E+00 0.  1.
    9000005    2    1    2  501    0  0.31051652957E+02 -0.22496601023E+02 -0.77112628366E+03  0.77208524467E+03  0.30947483295E+01 0.  0.
         13    1    3    3    0    0  0.23539514870E+02 -0.16039619054E+02 -0.54977945044E+03  0.55051686828E+03  0.00000000000E+00 0.  1.
          3    1    3    3  501    0  0.75121380869E+01 -0.64569819691E+01 -0.22134683323E+03  0.22156837639E+03  0.00000000000E+00 0.  1.
         21    1    1    2  502  501 -0.31051652957E+02  0.22496601023E+02 -0.22678484516E+03  0.23000362650E+03  0.00000000000E+00 0.  1.
<mgrwt>
<rscale>  1 0.30000000E+03</rscale>
<asrwt>0</asrwt>
<pdfrwt beam="1">  1        1 0.75959112E-02 0.30000000E+03</pdfrwt>
<pdfrwt beam="2">0</pdfrwt>
<totfact> 0.11069880E+03</totfact>
</mgrwt>
</event>
<event>
 6    1  0.3125838E-002  0.3000000E+03  0.7818608E-02  0.1093470E+00
          1   -1    0    0  502    0  0.00000000000E+00  0.00000000000E+00  0.15859601219E+01  0.15859601219E+01  0.00000000000E+00 0.  1.
         13   -1    0    0    0    0 -0.00000000000E+00 -0.00000000000E+00 -0.10000000000E+04  0.10000000000E+04  0.00000000000E+00 0.  1.
    9000005    2    1    2  501    0  0.25360578870E+02 -0.21972917444E+02 -0.76834147646E+03  0.76907928817E+03  0.28911919591E+01 0.  0.
         13    1    3    3    0    0  0.23590999499E+02 -0.19397753641E+02 -0.70306186758E+03  0.70372494467E+03  0.00000000000E+00 0.  1.
          3    1    3    3  501    0  0.17695793712E+01 -0.25751638036E+01 -0.65279608874E+02  0.65354343501E+02  0.00000000000E+00 0.  1.
         21    1    1    2  502  501 -0.25360578870E+02  0.21972917444E+02 -0.23007256342E+03  0.23250667195E+03  0.00000000000E+00 0.  1.
<mgrwt>
<rscale>  1 0.30000000E+03</rscale>
<asrwt>0</asrwt>
<pdfrwt beam="1">  1        1 0.57671399E-02 0.30000000E+03</pdfrwt>
<pdfrwt beam="2">0</pdfrwt>
<totfact> 0.16278003E+03</totfact>
</mgrwt>
</event>
<event>
 6    1  0.3125838E-002  0.3000000E+03  0.7818608E-02  0.1093470E+00
          3   -1    0    0  502    0  0.00000000000E+00  0.00000000000E+00  0.20433116065E+01  0.20433116065E+01  0.00000000000E+00 0.  1.
         13   -1    0    0    0    0 -0.00000000000E+00 -0.00000000000E+00 -0.10000000000E+04  0.10000000000E+04  0.00000000000E+00 0.  1.
    9000005    2    1    2  501    0  0.23254969884E+02 -0.25519638299E+02 -0.82195173530E+03  0.82268392636E+03  0.34845318816E+01 0.  0.
         13    1    3    3    0    0  0.86705862186E+01 -0.11933836650E+02 -0.36291201694E+03  0.36321168424E+03  0.00000000000E+00 0.  1.
          3    1    3    3  501    0  0.14584383665E+02 -0.13585801649E+02 -0.45903971836E+03  0.45947224212E+03  0.00000000000E+00 0.  1.
         21    1    1    2  502  501 -0.23254969884E+02  0.25519638299E+02 -0.17600495309E+03  0.17935938525E+03  0.00000000000E+00 0.  1.
<mgrwt>
<rscale>  1 0.30000000E+03</rscale>
<asrwt>0</asrwt>
<pdfrwt beam="1">  1        3 0.74302397E-02 0.30000000E+03</pdfrwt>
<pdfrwt beam="2">0</pdfrwt>
<totfact> 0.53303783E+02</totfact>
</mgrwt>
</event>
<event>
 6    1  0.3125838E-002  0.3000000E+03  0.7818608E-02  0.1093470E+00
          1   -1    0    0  502    0  0.00000000000E+00  0.00000000000E+00  0.97720527835E+01  0.97720527835E+01  0.00000000000E+00 0.  1.
         13   -1    0    0    0    0 -0.00000000000E+00 -0.00000000000E+00 -0.10000000000E+04  0.10000000000E+04  0.00000000000E+00 0.  1.
    9000005    2    1    2  501    0  0.43701637873E+02 -0.20443931633E+02 -0.93574468705E+03  0.93699696685E+03  0.41724168960E+01 0.  0.
         13    1    3    3    0    0  0.18816757215E+02 -0.10179748872E+02 -0.38259804269E+03  0.38319572011E+03  0.00000000000E+00 0.  1.
          3    1    3    3  501    0  0.24884880658E+02 -0.10264182761E+02 -0.55314664436E+03  0.55380124675E+03  0.00000000000E+00 0.  1.
         21    1    1    2  502  501 -0.43701637873E+02  0.20443931633E+02 -0.54483260170E+02  0.72775085930E+02  0.00000000000E+00 0.  1.
<mgrwt>
<rscale>  1 0.30000000E+03</rscale>
<asrwt>0</asrwt>
<pdfrwt beam="1">  1        1 0.35534812E-01 0.30000000E+03</pdfrwt>
<pdfrwt beam="2">0</pdfrwt>
<totfact> 0.13796112E+02</totfact>
</mgrwt>
</event>
<event>
 6    1  0.3125838E-002  0.3000000E+03  0.7818608E-02  0.1093470E+00
          3   -1    0    0  502    0  0.00000000000E+00  0.00000000000E+00  0.23513623046E+01  0.23513623046E+01  0.00000000000E+00 0.  1.
         13   -1    0    0    0    0 -0.00000000000E+00 -0.00000000000E+00 -0.10000000000E+04  0.10000000000E+04  0.00000000000E+00 0.  1.
    9000005    2    1    2  501    0 -0.22277716275E+02  0.22810266896E+02 -0.87623857061E+03  0.87682443568E+03  0.32331813718E+01 0.  0.
         13    1    3    3    0    0 -0.18158312414E+02  0.19996813393E+02 -0.75619715197E+03  0.75667940999E+03  0.00000000000E+00 0.  1.
          1    1    3    3  501    0 -0.41194038609E+01  0.28134535029E+01 -0.12004141863E+03  0.12014502568E+03  0.00000000000E+00 0.  1.
         21    1    1    2  502  501  0.22277716275E+02 -0.22810266896E+02 -0.12141006709E+03  0.12552692663E+03  0.00000000000E+00 0.  1.
<mgrwt>
<rscale>  1 0.30000000E+03</rscale>
<asrwt>0</asrwt>
<pdfrwt beam="1">  1        3 0.85504264E-02 0.30000000E+03</pdfrwt>
<pdfrwt beam="2">0</pdfrwt>
<totfact> 0.42600644E+02</totfact>
</mgrwt>
</event>
<event>
 6    1  0.3125838E-002  0.3000000E+03  0.7818608E-02  0.1093470E+00
          1   -1    0    0  502    0  0.00000000000E+00  0.00000000000E+00  0.11693196789E+02  0.11693196789E+02  0.00000000000E+00 0.  1.
         13   -1    0    0    0    0 -0.00000000000E+00 -0.00000000000E+00 -0.10000000000E+04  0.10000000000E+04  0.00000000000E+00 0.  1.
    9000005    2    1    2  501    0  0.28696652658E+02 -0.93451195947E+02 -0.71020863251E+03  0.71691325100E+03  0.34181657629E+01 0.  0.
         13    1    3    3    0    0  0.32470076270E+01 -0.13979313471E+02 -0.10930328927E+03  0.11024143191E+03  0.00000000000E+00 0.  1.
          1    1    3    3  501    0  0.25449645031E+02 -0.79471882476E+02 -0.60090534324E+03  0.60667181908E+03  0.00000000000E+00 0.  1.
         21    1    1    2  502  501 -0.28696652658E+02  0.93451195947E+02 -0.27809817070E+03  0.29477994579E+03  0.00000000000E+00 0.  1.
<mgrwt>
<rscale>  1 0.30000000E+03</rscale>
<asrwt>0</asrwt>
<pdfrwt beam="1">  1        1 0.42520805E-01 0.30000000E+03</pdfrwt>
<pdfrwt beam="2">0</pdfrwt>
<totfact> 0.10912244E+02</totfact>
</mgrwt>
</event>
<event>
 6    1  0.3125838E-002  0.3000000E+03  0.7818608E-02  0.1093470E+00
          1   -1    0    0  502    0  0.00000000000E+00  0.00000000000E+00  0.18254030196E+02  0.18254030196E+02  0.00000000000E+00 0.  1.
         13   -1    0    0    0    0 -0.00000000000E+00 -0.00000000000E+00 -0.10000000000E+04  0.10000000000E+04  0.00000000000E+00 0.  1.
    9000005    2    1    2  501    0 -0.25911378099E+02 -0.17618033069E+02 -0.98611442720E+03  0.98661737386E+03  0.32224630411E+01 0.  0.
         13    1    3    3    0    0 -0.20369573562E+02 -0.12320469662E+02 -0.72807072188E+03  0.72845980641E+03  0.00000000000E+00 0.  1.
          1    1    3    3  501    0 -0.55418045375E+01 -0.52975634071E+01 -0.25804370532E+03  0.25815756745E+03  0.00000000000E+00 0.  1.
         21    1    1    2  502  501  0.25911378099E+02  0.17618033069E+02  0.43684573928E+01  0.31636656338E+02  0.00000000000E+00 0.  1.
<mgrwt>
<rscale>  1 0.30000000E+03</rscale>
<asrwt>0</asrwt>
<pdfrwt beam="1">  1        1 0.66378432E-01 0.30000000E+03</pdfrwt>
<pdfrwt beam="2">0</pdfrwt>
<totfact> 0.60582272E+01</totfact>
</mgrwt>
</event>
<event>
 6    1  0.3125838E-002  0.3000000E+03  0.7818608E-02  0.1093470E+00
          3   -1    0    0  502    0  0.00000000000E+00  0.00000000000E+00  0.31275283076E+01  0.31275283076E+01  0.00000000000E+00 0.  1.
         13   -1    0    0    0    0 -0.00000000000E+00 -0.00000000000E+00 -0.10000000000E+04  0.10000000000E+04  0.00000000000E+00 0.  1.
    9000005    2    1    2  501    0  0.50933573165E+02 -0.11004107779E+02 -0.67983729771E+03  0.68183852942E+03  0.31160202327E+01 0.  0.
         13    1    3    3    0    0  0.12038993967E+02 -0.39458255978E+01 -0.16807282481E+03  0.16854964063E+03  0.00000000000E+00 0.  1.
          3    1    3    3  501    0  0.38894579198E+02 -0.70582821813E+01 -0.51176447290E+03  0.51328888879E+03  0.00000000000E+00 0.  1.
         21    1    1    2  502  501 -0.50933573165E+02  0.11004107779E+02 -0.31703517398E+03  0.32128899889E+03  0.00000000000E+00 0.  1.
<mgrwt>
<rscale>  1 0.30000000E+03</rscale>
<asrwt>0</asrwt>
<pdfrwt beam="1">  1        3 0.11372854E-01 0.30000000E+03</pdfrwt>
<pdfrwt beam="2">0</pdfrwt>
<totfact> 0.26663117E+02</totfact>
</mgrwt>
</event>
<event>
 6    1  0.3125838E-002  0.3000000E+03  0.7818608E-02  0.1093470E+00
          1   -1    0    0  502    0  0.00000000000E+00  0.00000000000E+00  0.18850068266E+01  0.18850068266E+01  0.00000000000E+00 0.  1.
         13   -1    0    0    0    0 -0.00000000000E+00 -0.00000000000E+00 -0.10000000000E+04  0.10000000000E+04  0.00000000000E+00 0.  1.
    9000005    2    1    2  501    0  0.17354766300E+02  0.37857006954E+02 -0.39022058772E+03  0.39256575629E+03  0.10071000189E+02 0.  0.
         13    1    3    3    0    0  0.28113490555E+01  0.13941326632E+02 -0.16517841421E+03  0.16578954368E+03  0.00000000000E+00 0.  1.
          1    1    3    3  501    0  0.14543417245E+02  0.23915680322E+02 -0.22504217351E+03  0.22677621261E+03  0.00000000000E+00 0.  1.
         21    1    1    2  502  501 -0.17354766300E+02 -0.37857006954E+02 -0.60789440545E+03  0.60931925053E+03  0.00000000000E+00 0.  1.
<mgrwt>
<rscale>  1 0.30000000E+03</rscale>
<asrwt>0</asrwt>
<pdfrwt beam="1">  1        1 0.68545847E-02 0.30000000E+03</pdfrwt>
<pdfrwt beam="2">0</pdfrwt>
<totfact> 0.12777834E+03</totfact>
</mgrwt>
</event>
<event>
 6    1  0.3125838E-002  0.3000000E+03  0.7818608E-02  0.1093470E+00
          1   -1    0    0  502    0  0.00000000000E+00  0.00000000000E+00  0.53694994565E+01  0.53694994565E+01  0.00000000000E+00 0.  1.
         13   -1    0    0    0    0 -0.00000000000E+00 -0.00000000000E+00 -0.10000000000E+04  0.10000000000E+04  0.00000000000E+00 0.  1.
    9000005    2    1    2  501    0 -0.52671272992E+01  0.47454588286E+02 -0.87854190745E+03  0.87984562911E+03  0.35731422267E+01 0.  0.
         13    1    3    3    0    0 -0.27541984871E+01  0.16512291659E+02 -0.33472578972E+03  0.33514414166E+03  0.00000000000E+00 0.  1.
          1    1    3    3  501    0 -0.25129288121E+01  0.30942296627E+02 -0.54381611773E+03  0.54470148745E+03  0.00000000000E+00 0.  1.
         21    1    1    2  502  501  0.52671272992E+01 -0.47454588286E+02 -0.11608859309E+03  0.12552387034E+03  0.00000000000E+00 0.  1.
<mgrwt>
<rscale>  1 0.30000000E+03</rscale>
<asrwt>0</asrwt>
<pdfrwt beam="1">  1        1 0.19525494E-01 0.30000000E+03</pdfrwt>
<pdfrwt beam="2">0</pdfrwt>
<totfact> 0.30402989E+02</totfact>
</mgrwt>
</event>
<event>
 6    1  0.3125838E-002  0.3000000E+03  0.7818608E-02  0.1093470E+00
          3   -1    0    0  502    0  0.00000000000E+00  0.00000000000E+00  0.21075032634E+01  0.21075032634E+01  0.00000000000E+00 0.  1.
         13   -1    0    0    0    0 -0.00000000000E+00 -0.00000000000E+00 -0.10000000000E+04  0.10000000000E+04  0.00000000000E+00 0.  1.
    9000005    2    1    2  501    0 -0.35415821030E+02 -0.28038444389E+02 -0.58560764651E+03  0.58735549005E+03  0.31178985040E+01 0.  0.
         13    1    3    3    0    0 -0.24913089303E+02 -0.18046595556E+02 -0.40601593793E+03  0.40717966978E+03  0.00000000000E+00 0.  1.
          1    1    3    3  501    0 -0.10502731727E+02 -0.99918488332E+01 -0.17959170859E+03  0.18017582027E+03  0.00000000000E+00 0.  1.
         21    1    1    2  502  501  0.35415821030E+02  0.28038444389E+02 -0.41228485022E+03  0.41475201322E+03  0.00000000000E+00 0.  1.
<mgrwt>
<rscale>  1 0.30000000E+03</rscale>
<asrwt>0</asrwt>
<pdfrwt beam="1">  1        3 0.76636644E-02 0.30000000E+03</pdfrwt>
<pdfrwt beam="2">0</pdfrwt>
<totfact> 0.50747733E+02</totfact>
</mgrwt>
</event>
<event>
 6    1  0.3125838E-002  0.3000000E+03  0.7818608E-02  0.1093470E+00
          3   -1    0    0  502    0  0.00000000000E+00  0.00000000000E+00  0.29274415556E+01  0.29274415556E+01  0.00000000000E+00 0.  1.
         13   -1    0    0    0    0 -0.00000000000E+00 -0.00000000000E+00 -0.10000000000E+04  0.10000000000E+04  0.00000000000E+00 0.  1.
    9000005    2    1    2  501    0 -0.21008049445E+02 -0.23653637984E+02 -0.90518399470E+03  0.90574544282E+03  0.39887586443E+01 0.  0.
         13    1    3    3    0    0 -0.18434481020E+02 -0.21869456724E+02 -0.78579483943E+03  0.78631522490E+03  0.00000000000E+00 0.  1.
          3    1    3    3  501    0 -0.25735684248E+01 -0.17841812601E+01 -0.11938915527E+03  0.11943021793E+03  0.00000000000E+00 0.  1.
         21    1    1    2  502  501  0.21008049445E+02  0.23653637984E+02 -0.91888563742E+02  0.97181998734E+02  0.00000000000E+00 0.  1.
<mgrwt>
<rscale>  1 0.30000000E+03</rscale>
<asrwt>0</asrwt>
<pdfrwt beam="1">  1        3 0.10645264E-01 0.30000000E+03</pdfrwt>
<pdfrwt beam="2">0</pdfrwt>
<totfact> 0.29776656E+02</totfact>
</mgrwt>
</event>
<event>
 6    1  0.3125838E-002  0.3000000E+03  0.7818608E-02  0.1093470E+00
          1   -1    0    0  502    0  0.00000000000E+00  0.00000000000E+00  0.15800663904E+01  0.15800663904E+01  0.00000000000E+00 0.  1.
         13   -1    0    0    0    0 -0.00000000000E+00 -0.00000000000E+00 -0.10000000000E+04  0.10000000000E+04  0.00000000000E+00 0.  1.
    9000005    2    1    2  501    0 -0.36404190017E+02  0.87199700039E+01 -0.66609811130E+03  0.66715653775E+03  0.31383199791E+01 0.  0.
         13    1    3    3    0    0 -0.14968292461E+02  0.22007333723E+01 -0.28183761184E+03  0.28224339223E+03  0.00000000000E+00 0.  1.
          1    1    3    3  501    0 -0.21435897556E+02  0.65192366317E+01 -0.38426049946E+03  0.38491314552E+03  0.00000000000E+00 0.  1.
         21    1    1    2  502  501  0.36404190017E+02 -0.87199700039E+01 -0.33232182231E+03  0.33442352864E+03  0.00000000000E+00 0.  1.
<mgrwt>
<rscale>  1 0.30000000E+03</rscale>
<asrwt>0</asrwt>
<pdfrwt beam="1">  1        1 0.57457081E-02 0.30000000E+03</pdfrwt>
<pdfrwt beam="2">0</pdfrwt>
<totfact> 0.16363296E+03</totfact>
</mgrwt>
</event>
<event>
 6    1  0.3125838E-002  0.3000000E+03  0.7818608E-02  0.1093470E+00
          1   -1    0    0  502    0  0.00000000000E+00  0.00000000000E+00  0.18866587570E+02  0.18866587570E+02  0.00000000000E+00 0.  1.
         13   -1    0    0    0    0 -0.00000000000E+00 -0.00000000000E+00 -0.10000000000E+04  0.10000000000E+04  0.00000000000E+00 0.  1.
    9000005    2    1    2  501    0  0.11207309907E+02 -0.32696702953E+02 -0.98360148865E+03  0.98421446527E+03  0.33980864973E+01 0.  0.
         13    1    3    3    0    0  0.56940890276E+01 -0.11778871751E+02 -0.35650685582E+03  0.35674683281E+03  0.00000000000E+00 0.  1.
          3    1    3    3  501    0  0.55132208793E+01 -0.20917831202E+02 -0.62709463283E+03  0.62746763247E+03  0.00000000000E+00 0.  1.
         21    1    1    2  502  501 -0.11207309907E+02  0.32696702953E+02  0.24680762247E+01  0.34652122296E+02  0.00000000000E+00 0.  1.
<mgrwt>
<rscale>  1 0.30000000E+03</rscale>
<asrwt>0</asrwt>
<pdfrwt beam="1">  1        1 0.68605918E-01 0.30000000E+03</pdfrwt>
<pdfrwt beam="2">0</pdfrwt>
<totfact> 0.57942768E+01</totfact>
</mgrwt>
</event>
<event>
 6    1  0.3125838E-002  0.3000000E+03  0.7818608E-02  0.1093470E+00
          1   -1    0    0  502    0  0.00000000000E+00  0.00000000000E+00  0.18561457729E+01  0.18561457729E+01  0.00000000000E+00 0.  1.
         13   -1    0    0    0    0 -0.00000000000E+00 -0.00000000000E+00 -0.10000000000E+04  0.10000000000E+04  0.00000000000E+00 0.  1.
    9000005    2    1    2  501    0  0.18389674531E+02  0.25333361935E+02 -0.84287461511E+03  0.84346266115E+03  0.34182735327E+01 0.  0.
         13    1    3    3    0    0  0.10835849671E+02  0.14373741261E+02 -0.43942323827E+03  0.43979177164E+03  0.00000000000E+00 0.  1.
          3    1    3    3  501    0  0.75538248601E+01  0.10959620674E+02 -0.40345137685E+03  0.40367088951E+03  0.00000000000E+00 0.  1.
         21    1    1    2  502  501 -0.18389674531E+02 -0.25333361935E+02 -0.15526923911E+03  0.15839348462E+03  0.00000000000E+00 0.  1.
<mgrwt>
<rscale>  1 0.30000000E+03</rscale>
<asrwt>0</asrwt>
<pdfrwt beam="1">  1        1 0.67496352E-02 0.30000000E+03</pdfrwt>
<pdfrwt beam="2">0</pdfrwt>
<totfact> 0.13056700E+03</totfact>
</mgrwt>
</event>
<event>
 6    1  0.3125838E-002  0.3000000E+03  0.7818608E-02  0.1093470E+00
          3   -1    0    0  502    0  0.00000000000E+00  0.00000000000E+00  0.13419651709E+01  0.13419651709E+01  0.00000000000E+00 0.  1.
         13   -1    0    0    0    0 -0.00000000000E+00 -0.00000000000E+00 -0.10000000000E+04  0.10000000000E+04  0.00000000000E+00 0.  1.
    9000005    2    1    2  501    0 -0.22666158525E+02  0.21196730740E+02 -0.25794402063E+03  0.25997814965E+03  0.95112764153E+01 0.  0.
         13    1    3    3    0    0 -0.14849986268E+02  0.10571934956E+02 -0.11611991981E+03  0.11754200814E+03  0.00000000000E+00 0.  1.
          1    1    3    3  501    0 -0.78161722579E+01  0.10624795784E+02 -0.14182410082E+03  0.14243614151E+03  0.00000000000E+00 0.  1.
         21    1    1    2  502  501  0.22666158525E+02 -0.21196730740E+02 -0.74071401420E+03  0.74136381553E+03  0.00000000000E+00 0.  1.
<mgrwt>
<rscale>  1 0.30000000E+03</rscale>
<asrwt>0</asrwt>
<pdfrwt beam="1">  1        3 0.48798836E-02 0.30000000E+03</pdfrwt>
<pdfrwt beam="2">0</pdfrwt>
<totfact> 0.10272330E+03</totfact>
</mgrwt>
</event>
<event>
 6    1  0.3125838E-002  0.3000000E+03  0.7818608E-02  0.1093470E+00
          3   -1    0    0  502    0  0.00000000000E+00  0.00000000000E+00  0.24069374104E+01  0.24069374104E+01  0.00000000000E+00 0.  1.
         13   -1    0    0    0    0 -0.00000000000E+00 -0.00000000000E+00 -0.10000000000E+04  0.10000000000E+04  0.00000000000E+00 0.  1.
    9000005    2    1    2  501    0 -0.17958164685E+02  0.37300663134E+02 -0.76723141674E+03  0.76835497090E+03  0.33881151153E+01 0.  0.
         13    1    3    3    0    0 -0.12186220672E+02  0.22863436623E+02 -0.50223592368E+03  0.50290373208E+03  0.00000000000E+00 0.  1.
          1    1    3    3  501    0 -0.57719440133E+01  0.14437226511E+02 -0.26499549306E+03  0.26545123882E+03  0.00000000000E+00 0.  1.
         21    1    1    2  502  501  0.17958164685E+02 -0.37300663134E+02 -0.23036164585E+03  0.23405196651E+03  0.00000000000E+00 0.  1.
<mgrwt>
<rscale>  1 0.30000000E+03</rscale>
<asrwt>0</asrwt>
<pdfrwt beam="1">  1        3 0.87525181E-02 0.30000000E+03</pdfrwt>
<pdfrwt beam="2">0</pdfrwt>
<totfact> 0.41028362E+02</totfact>
</mgrwt>
</event>
<event>
 6    1  0.3125838E-002  0.3000000E+03  0.7818608E-02  0.1093470E+00
          1   -1    0    0  502    0  0.00000000000E+00  0.00000000000E+00  0.14129561498E+02  0.14129561498E+02  0.00000000000E+00 0.  1.
         13   -1    0    0    0    0 -0.00000000000E+00 -0.00000000000E+00 -0.10000000000E+04  0.10000000000E+04  0.00000000000E+00 0.  1.
    9000005    2    1    2  501    0 -0.82159108983E+02 -0.16356486828E+02 -0.85261415309E+03  0.85672914393E+03  0.40346190842E+01 0.  0.
         13    1    3    3    0    0 -0.52002063975E+02 -0.10967047339E+02 -0.52173956737E+03  0.52443938348E+03  0.00000000000E+00 0.  1.
          3    1    3    3  501    0 -0.30157045009E+02 -0.53894394889E+01 -0.33087458572E+03  0.33228976045E+03  0.00000000000E+00 0.  1.
         21    1    1    2  502  501  0.82159108983E+02  0.16356486828E+02 -0.13325628541E+03  0.15740041757E+03  0.00000000000E+00 0.  1.
<mgrwt>
<rscale>  1 0.30000000E+03</rscale>
<asrwt>0</asrwt>
<pdfrwt beam="1">  1        1 0.51380332E-01 0.30000000E+03</pdfrwt>
<pdfrwt beam="2">0</pdfrwt>
<totfact> 0.85144846E+01</totfact>
</mgrwt>
</event>
<event>
 6    1  0.3125838E-002  0.3000000E+03  0.7818608E-02  0.1093470E+00
          1   -1    0    0  502    0  0.00000000000E+00  0.00000000000E+00  0.23195171467E+01  0.23195171467E+01  0.00000000000E+00 0.  1.
         13   -1    0    0    0    0 -0.00000000000E+00 -0.00000000000E+00 -0.10000000000E+04  0.10000000000E+04  0.00000000000E+00 0.  1.
    9000005    2    1    2  501    0  0.37869854363E+02 -0.29599383282E+02 -0.51510513779E+03  0.51735641234E+03  0.37556693301E+01 0.  0.
         13    1    3    3    0    0  0.34760080491E+02 -0.25788798295E+02 -0.46582016367E+03  0.46782662408E+03  0.00000000000E+00 0.  1.
          1    1    3    3  501    0  0.31097738723E+01 -0.38105849875E+01 -0.49284974116E+02  0.49529788260E+02  0.00000000000E+00 0.  1.
         21    1    1    2  502  501 -0.37869854363E+02  0.29599383282E+02 -0.48257534506E+03  0.48496310481E+03  0.00000000000E+00 0.  1.
<mgrwt>
<rscale>  1 0.30000000E+03</rscale>
<asrwt>0</asrwt>
<pdfrwt beam="1">  1        1 0.84346256E-02 0.30000000E+03</pdfrwt>
<pdfrwt beam="2">0</pdfrwt>
<totfact> 0.95677747E+02</totfact>
</mgrwt>
</event>
<event>
 6    1  0.3125838E-002  0.3000000E+03  0.7818608E-02  0.1093470E+00
          1   -1    0    0  502    0  0.00000000000E+00  0.00000000000E+00  0.16357653329E+01  0.16357653329E+01  0.00000000000E+00 0.  1.
         13   -1    0    0    0    0 -0.00000000000E+00 -0.00000000000E+00 -0.10000000000E+04  0.10000000000E+04  0.00000000000E+00 0.  1.
    9000005    2    1    2  501    0  0.30208003619E+02 -0.35249863594E+01 -0.82867918947E+03  0.82924677620E+03  0.40084613108E+01 0.  0.
         13    1    3    3    0    0  0.14481229413E+02 -0.23744360688E+01 -0.45060113828E+03  0.45084002681E+03  0.00000000000E+00 0.  1.
          3    1    3    3  501    0  0.15726774207E+02 -0.11505502905E+01 -0.37807805119E+03  0.37840674939E+03  0.00000000000E+00 0.  1.
         21    1    1    2  502  501 -0.30208003619E+02  0.35249863594E+01 -0.16968504520E+03  0.17238898913E+03  0.00000000000E+00 0.  1.
<mgrwt>
<rscale>  1 0.30000000E+03</rscale>
<asrwt>0</asrwt>
<pdfrwt beam="1">  1        1 0.59482501E-02 0.30000000E+03</pdfrwt>
<pdfrwt beam="2">0</pdfrwt>
<totfact> 0.15586730E+03</totfact>
</mgrwt>
</event>
<event>
 6    1  0.3125838E-002  0.3000000E+03  0.7818608E-02  0.1093470E+00
          3   -1    0    0  502    0  0.00000000000E+00  0.00000000000E+00  0.22791412651E+01  0.22791412651E+01  0.00000000000E+00 0.  1.
         13   -1    0    0    0    0 -0.00000000000E+00 -0.00000000000E+00 -0.10000000000E+04  0.10000000000E+04  0.00000000000E+00 0.  1.
    9000005    2    1    2  501    0  0.28050444856E+02 -0.11538624697E+02 -0.88555529419E+03  0.88608498829E+03  0.42965199788E+01 0.  0.
         13    1    3    3    0    0  0.22124149830E+02 -0.71894644715E+01 -0.68624638116E+03  0.68664056250E+03  0.00000000000E+00 0.  1.
          1    1    3    3  501    0  0.59262950257E+01 -0.43491602255E+01 -0.19930891303E+03  0.19944442579E+03  0.00000000000E+00 0.  1.
         21    1    1    2  502  501 -0.28050444856E+02  0.11538624697E+02 -0.11216556454E+03  0.11619415297E+03  0.00000000000E+00 0.  1.
<mgrwt>
<rscale>  1 0.30000000E+03</rscale>
<asrwt>0</asrwt>
<pdfrwt beam="1">  1        3 0.82878039E-02 0.30000000E+03</pdfrwt>
<pdfrwt beam="2">0</pdfrwt>
<totfact> 0.44787355E+02</totfact>
</mgrwt>
</event>
<event>
 6    1  0.3730691E-002  0.3000000E+03  0.7818608E-02  0.1093470E+00
          1   -1    0    0  502    0  0.00000000000E+00  0.00000000000E+00  0.65289063606E+01  0.65289063606E+01  0.00000000000E+00 0.  1.
         13   -1    0    0    0    0 -0.00000000000E+00 -0.00000000000E+00 -0.10000000000E+04  0.10000000000E+04  0.00000000000E+00 0.  1.
    9000005    2    1    2  501    0  0.28095116022E+01  0.32203173732E+02 -0.95781106353E+03  0.95839808982E+03  0.89402118609E+01 0.  0.
         13    1    3    3    0    0  0.56324378104E+01  0.27143432516E+02 -0.80533610048E+03  0.80581308317E+03  0.00000000000E+00 0.  1.
          3    1    3    3  501    0 -0.28229262082E+01  0.50597412152E+01 -0.15247496306E+03  0.15258500664E+03  0.00000000000E+00 0.  1.
         21    1    1    2  502  501 -0.28095116022E+01 -0.32203173732E+02 -0.35660030107E+02  0.48130816543E+02  0.00000000000E+00 0.  1.
<mgrwt>
<rscale>  1 0.30000000E+03</rscale>
<asrwt>0</asrwt>
<pdfrwt beam="1">  1        1 0.23741528E-01 0.30000000E+03</pdfrwt>
<pdfrwt beam="2">0</pdfrwt>
<totfact> 0.23440724E+02</totfact>
</mgrwt>
</event>
<event>
 6    1  0.3125838E-002  0.3000000E+03  0.7818608E-02  0.1093470E+00
          1   -1    0    0  502    0  0.00000000000E+00  0.00000000000E+00  0.74367579634E+01  0.74367579634E+01  0.00000000000E+00 0.  1.
         13   -1    0    0    0    0 -0.00000000000E+00 -0.00000000000E+00 -0.10000000000E+04  0.10000000000E+04  0.00000000000E+00 0.  1.
    9000005    2    1    2  501    0 -0.16307710715E+01 -0.31182472425E+02 -0.96579784203E+03  0.96631021376E+03  0.38667224499E+01 0.  0.
         13    1    3    3    0    0 -0.19049213998E+00 -0.12344095981E+02 -0.43949611834E+03  0.43966947930E+03  0.00000000000E+00 0.  1.
          3    1    3    3  501    0 -0.14402789315E+01 -0.18838376444E+02 -0.52630172369E+03  0.52664073446E+03  0.00000000000E+00 0.  1.
         21    1    1    2  502  501  0.16307710715E+01  0.31182472425E+02 -0.26765400009E+02  0.41126544207E+02  0.00000000000E+00 0.  1.
<mgrwt>
<rscale>  1 0.30000000E+03</rscale>
<asrwt>0</asrwt>
<pdfrwt beam="1">  1        1 0.27042813E-01 0.30000000E+03</pdfrwt>
<pdfrwt beam="2">0</pdfrwt>
<totfact> 0.19737685E+02</totfact>
</mgrwt>
</event>
<event>
 6    1  0.3125838E-002  0.3000000E+03  0.7818608E-02  0.1093470E+00
          1   -1    0    0  502    0  0.00000000000E+00  0.00000000000E+00  0.36618482268E+01  0.36618482268E+01  0.00000000000E+00 0.  1.
         13   -1    0    0    0    0 -0.00000000000E+00 -0.00000000000E+00 -0.10000000000E+04  0.10000000000E+04  0.00000000000E+00 0.  1.
    9000005    2    1    2  501    0  0.41155149658E+02 -0.56546226787E+01 -0.86275326358E+03  0.86376673232E+03  0.49043800511E+01 0.  0.
         13    1    3    3    0    0  0.38663458405E+02 -0.56854939939E+01 -0.82961543269E+03  0.83053534182E+03  0.00000000000E+00 0.  1.
          3    1    3    3  501    0  0.24916912531E+01  0.30871315208E-01 -0.33137830892E+02  0.33231390500E+02  0.00000000000E+00 0.  1.
         21    1    1    2  502  501 -0.41155149658E+02  0.56546226787E+01 -0.13358488819E+03  0.13989511590E+03  0.00000000000E+00 0.  1.
<mgrwt>
<rscale>  1 0.30000000E+03</rscale>
<asrwt>0</asrwt>
<pdfrwt beam="1">  1        1 0.13315840E-01 0.30000000E+03</pdfrwt>
<pdfrwt beam="2">0</pdfrwt>
<totfact> 0.51013916E+02</totfact>
</mgrwt>
</event>
<event>
 6    1  0.3125838E-002  0.3000000E+03  0.7818608E-02  0.1093470E+00
          1   -1    0    0  502    0  0.00000000000E+00  0.00000000000E+00  0.56112648255E+02  0.56112648255E+02  0.00000000000E+00 0.  1.
         13   -1    0    0    0    0 -0.00000000000E+00 -0.00000000000E+00 -0.10000000000E+04  0.10000000000E+04  0.00000000000E+00 0.  1.
    9000005    2    1    2  501    0 -0.21496640377E+01 -0.23674915876E+03 -0.45563454033E+03  0.51348423664E+03  0.29054620611E+01 0.  0.
         13    1    3    3    0    0 -0.10279697562E+01 -0.39852524850E+02 -0.74868841487E+02  0.84821128761E+02  0.00000000000E+00 0.  1.
          1    1    3    3  501    0 -0.11216942816E+01 -0.19689663391E+03 -0.38076569884E+03  0.42866310788E+03  0.00000000000E+00 0.  1.
         21    1    1    2  502  501  0.21496640377E+01  0.23674915876E+03 -0.48825281142E+03  0.54262841161E+03  0.00000000000E+00 0.  1.
<mgrwt>
<rscale>  1 0.30000000E+03</rscale>
<asrwt>0</asrwt>
<pdfrwt beam="1">  1        1 0.20404642E+00 0.30000000E+03</pdfrwt>
<pdfrwt beam="2">0</pdfrwt>
<totfact> 0.98001971E+00</totfact>
</mgrwt>
</event>
<event>
 6    1  0.3125838E-002  0.3000000E+03  0.7818608E-02  0.1093470E+00
          1   -1    0    0  502    0  0.00000000000E+00  0.00000000000E+00  0.11228241960E+01  0.11228241960E+01  0.00000000000E+00 0.  1.
         13   -1    0    0    0    0 -0.00000000000E+00 -0.00000000000E+00 -0.10000000000E+04  0.10000000000E+04  0.00000000000E+00 0.  1.
    9000005    2    1    2  501    0  0.18433372123E+02 -0.25577061989E+02 -0.66622812651E+03  0.66698308501E+03  0.35417265889E+01 0.  0.
         13    1    3    3    0    0  0.17336513705E+02 -0.22381565873E+02 -0.60449729062E+03  0.60515986612E+03  0.00000000000E+00 0.  1.
          1    1    3    3  501    0  0.10968584180E+01 -0.31954961159E+01 -0.61730835892E+02  0.61823218889E+02  0.00000000000E+00 0.  1.
         21    1    1    2  502  501 -0.18433372123E+02  0.25577061989E+02 -0.33264904929E+03  0.33413973918E+03  0.00000000000E+00 0.  1.
<mgrwt>
<rscale>  1 0.30000000E+03</rscale>
<asrwt>0</asrwt>
<pdfrwt beam="1">  1        1 0.40830057E-02 0.30000000E+03</pdfrwt>
<pdfrwt beam="2">0</pdfrwt>
<totfact> 0.26453365E+03</totfact>
</mgrwt>
</event>
<event>
 6    1  0.3125838E-002  0.3000000E+03  0.7818608E-02  0.1093470E+00
          3   -1    0    0  502    0  0.00000000000E+00  0.00000000000E+00  0.19326594819E+01  0.19326594819E+01  0.00000000000E+00 0.  1.
         13   -1    0    0    0    0 -0.00000000000E+00 -0.00000000000E+00 -0.10000000000E+04  0.10000000000E+04  0.00000000000E+00 0.  1.
    9000005    2    1    2  501    0  0.13075408628E+02  0.30427693131E+02 -0.82812547479E+03  0.82879384654E+03  0.32599455495E+01 0.  0.
         13    1    3    3    0    0  0.12091877634E+02  0.26428982598E+02 -0.70267893600E+03  0.70327973931E+03  0.00000000000E+00 0.  1.
          3    1    3    3  501    0  0.98353099397E+00  0.39987105337E+01 -0.12544653879E+03  0.12551410723E+03  0.00000000000E+00 0.  1.
         21    1    1    2  502  501 -0.13075408628E+02 -0.30427693131E+02 -0.16994186573E+03  0.17313881295E+03  0.00000000000E+00 0.  1.
<mgrwt>
<rscale>  1 0.30000000E+03</rscale>
<asrwt>0</asrwt>
<pdfrwt beam="1">  1        3 0.70278675E-02 0.30000000E+03</pdfrwt>
<pdfrwt beam="2">0</pdfrwt>
<totfact> 0.58209064E+02</totfact>
</mgrwt>
</event>
<event>
 6    1  0.3125838E-002  0.3000000E+03  0.7818608E-02  0.1093470E+00
          3   -1    0    0  502    0  0.00000000000E+00  0.00000000000E+00  0.10345918987E+01  0.10345918987E+01  0.00000000000E+00 0.  1.
         13   -1    0    0    0    0 -0.00000000000E+00 -0.00000000000E+00 -0.10000000000E+04  0.10000000000E+04  0.00000000000E+00 0.  1.
    9000005    2    1    2  501    0  0.31832844971E+02  0.12210560784E-01 -0.56211267757E+03  0.56302358937E+03  0.34014303434E+01 0.  0.
         13    1    3    3    0    0  0.84316806427E+01  0.71046992286E+00 -0.12705479412E+03  0.12733624274E+03  0.00000000000E+00 0.  1.
          1    1    3    3  501    0  0.23401164328E+02 -0.69825936208E+00 -0.43505788345E+03  0.43568734663E+03  0.00000000000E+00 0.  1.
         21    1    1    2  502  501 -0.31832844971E+02 -0.12210560784E-01 -0.43685273053E+03  0.43801100253E+03  0.00000000000E+00 0.  1.
<mgrwt>
<rscale>  1 0.30000000E+03</rscale>
<asrwt>0</asrwt>
<pdfrwt beam="1">  1        3 0.37621603E-02 0.30000000E+03</pdfrwt>
<pdfrwt beam="2">0</pdfrwt>
<totfact> 0.15331298E+03</totfact>
</mgrwt>
</event>
<event>
 6    1  0.3125838E-002  0.3000000E+03  0.7818608E-02  0.1093470E+00
          1   -1    0    0  502    0  0.00000000000E+00  0.00000000000E+00  0.18248905450E+01  0.18248905450E+01  0.00000000000E+00 0.  1.
         13   -1    0    0    0    0 -0.00000000000E+00 -0.00000000000E+00 -0.10000000000E+04  0.10000000000E+04  0.00000000000E+00 0.  1.
    9000005    2    1    2  501    0 -0.10764060544E+02  0.41263045951E+02 -0.48839470060E+03  0.49026397607E+03  0.32982878159E+01 0.  0.
         13    1    3    3    0    0 -0.87833030776E+01  0.35350590190E+02 -0.42858889788E+03  0.43013399543E+03  0.00000000000E+00 0.  1.
          3    1    3    3  501    0 -0.19807574668E+01  0.59124557611E+01 -0.59805802717E+02  0.60129980641E+02  0.00000000000E+00 0.  1.
         21    1    1    2  502  501  0.10764060544E+02 -0.41263045951E+02 -0.50978040886E+03  0.51156091447E+03  0.00000000000E+00 0.  1.
<mgrwt>
<rscale>  1 0.30000000E+03</rscale>
<asrwt>0</asrwt>
<pdfrwt beam="1">  1        1 0.66359796E-02 0.30000000E+03</pdfrwt>
<pdfrwt beam="2">0</pdfrwt>
<totfact> 0.13370790E+03</totfact>
</mgrwt>
</event>
<event>
 6    1  0.3125838E-002  0.3000000E+03  0.7818608E-02  0.1093470E+00
          3   -1    0    0  502    0  0.00000000000E+00  0.00000000000E+00  0.44310293753E+01  0.44310293753E+01  0.00000000000E+00 0.  1.
         13   -1    0    0    0    0 -0.00000000000E+00 -0.00000000000E+00 -0.10000000000E+04  0.10000000000E+04  0.00000000000E+00 0.  1.
    9000005    2    1    2  501    0  0.43782216981E+02 -0.41030386763E+02 -0.71478588569E+03  0.71730820558E+03  0.34386395061E+01 0.  0.
         13    1    3    3    0    0  0.19777209819E+02 -0.20623804651E+02 -0.34938973132E+03  0.35055622045E+03  0.00000000000E+00 0.  1.
          1    1    3    3  501    0  0.24005007162E+02 -0.20406582113E+02 -0.36539615437E+03  0.36675198513E+03  0.00000000000E+00 0.  1.
         21    1    1    2  502  501 -0.43782216981E+02  0.41030386763E+02 -0.28078308493E+03  0.28712282380E+03  0.00000000000E+00 0.  1.
<mgrwt>
<rscale>  1 0.30000000E+03</rscale>
<asrwt>0</asrwt>
<pdfrwt beam="1">  1        3 0.16112868E-01 0.30000000E+03</pdfrwt>
<pdfrwt beam="2">0</pdfrwt>
<totfact> 0.14692815E+02</totfact>
</mgrwt>
</event>
<event>
 6    1  0.3125838E-002  0.3000000E+03  0.7818608E-02  0.1093470E+00
          1   -1    0    0  502    0  0.00000000000E+00  0.00000000000E+00  0.20748824581E+01  0.20748824581E+01  0.00000000000E+00 0.  1.
         13   -1    0    0    0    0 -0.00000000000E+00 -0.00000000000E+00 -0.10000000000E+04  0.10000000000E+04  0.00000000000E+00 0.  1.
    9000005    2    1    2  501    0  0.43860936452E+02  0.11818180747E+02 -0.53190519031E+03  0.53384628047E+03  0.22953322401E+01 0.  0.
         13    1    3    3    0    0  0.90054418671E+01  0.20932153807E+01 -0.11876985352E+03  0.11912916368E+03  0.00000000000E+00 0.  1.
          1    1    3    3  501    0  0.34855494585E+02  0.97249653664E+01 -0.41313533679E+03  0.41471711679E+03  0.00000000000E+00 0.  1.
         21    1    1    2  502  501 -0.43860936452E+02 -0.11818180747E+02 -0.46601992723E+03  0.46822860199E+03  0.00000000000E+00 0.  1.
<mgrwt>
<rscale>  1 0.30000000E+03</rscale>
<asrwt>0</asrwt>
<pdfrwt beam="1">  1        1 0.75450430E-02 0.30000000E+03</pdfrwt>
<pdfrwt beam="2">0</pdfrwt>
<totfact> 0.11174151E+03</totfact>
</mgrwt>
</event>
<event>
 6    1  0.3125838E-002  0.3000000E+03  0.7818608E-02  0.1093470E+00
          1   -1    0    0  502    0  0.00000000000E+00  0.00000000000E+00  0.11939447737E+01  0.11939447737E+01  0.00000000000E+00 0.  1.
         13   -1    0    0    0    0 -0.00000000000E+00 -0.00000000000E+00 -0.10000000000E+04  0.10000000000E+04  0.00000000000E+00 0.  1.
    9000005    2    1    2  501    0  0.13933406870E+02  0.28529212152E+02 -0.31729358178E+03  0.31894229968E+03  0.63966953939E+01 0.  0.
         13    1    3    3    0    0  0.11101074458E+02  0.25534849410E+02 -0.29081115758E+03  0.29214104772E+03  0.00000000000E+00 0.  1.
          3    1    3    3  501    0  0.28323324127E+01  0.29943627423E+01 -0.26482424200E+02  0.26801251961E+02  0.00000000000E+00 0.  1.
         21    1    1    2  502  501 -0.13933406870E+02 -0.28529212152E+02 -0.68151247344E+03  0.68225164509E+03  0.00000000000E+00 0.  1.
<mgrwt>
<rscale>  1 0.30000000E+03</rscale>
<asrwt>0</asrwt>
<pdfrwt beam="1">  1        1 0.43416265E-02 0.30000000E+03</pdfrwt>
<pdfrwt beam="2">0</pdfrwt>
<totfact> 0.24262071E+03</totfact>
</mgrwt>
</event>
<event>
 6    1  0.3125838E-002  0.3000000E+03  0.7818608E-02  0.1093470E+00
          1   -1    0    0  502    0  0.00000000000E+00  0.00000000000E+00  0.62135690631E+01  0.62135690631E+01  0.00000000000E+00 0.  1.
         13   -1    0    0    0    0 -0.00000000000E+00 -0.00000000000E+00 -0.10000000000E+04  0.10000000000E+04  0.00000000000E+00 0.  1.
    9000005    2    1    2  501    0  0.29435910236E+02 -0.29516255190E+02 -0.92386002859E+03  0.92480482336E+03  0.29877669722E+01 0.  0.
         13    1    3    3    0    0  0.20597610726E+02 -0.20416803518E+02 -0.61161459900E+03  0.61230182520E+03  0.00000000000E+00 0.  1.
          1    1    3    3  501    0  0.88382995102E+01 -0.90994516718E+01 -0.31224542959E+03  0.31250299816E+03  0.00000000000E+00 0.  1.
         21    1    1    2  502  501 -0.29435910236E+02  0.29516255190E+02 -0.69926402351E+02  0.81408745707E+02  0.00000000000E+00 0.  1.
<mgrwt>
<rscale>  1 0.30000000E+03</rscale>
<asrwt>0</asrwt>
<pdfrwt beam="1">  1        1 0.22594844E-01 0.30000000E+03</pdfrwt>
<pdfrwt beam="2">0</pdfrwt>
<totfact> 0.25028820E+02</totfact>
</mgrwt>
</event>
<event>
 6    1  0.3125838E-002  0.3000000E+03  0.7818608E-02  0.1093470E+00
          1   -1    0    0  502    0  0.00000000000E+00  0.00000000000E+00  0.34829497480E+01  0.34829497480E+01  0.00000000000E+00 0.  1.
         13   -1    0    0    0    0 -0.00000000000E+00 -0.00000000000E+00 -0.10000000000E+04  0.10000000000E+04  0.00000000000E+00 0.  1.
    9000005    2    1    2  501    0  0.64970328680E+01 -0.43142672618E+02 -0.83593358335E+03  0.83707816773E+03  0.33766074795E+01 0.  0.
         13    1    3    3    0    0  0.51189959994E+01 -0.22894850879E+02 -0.44201449273E+03  0.44263663438E+03  0.00000000000E+00 0.  1.
          3    1    3    3  501    0  0.13780368686E+01 -0.20247821739E+02 -0.39391909063E+03  0.39444153335E+03  0.00000000000E+00 0.  1.
         21    1    1    2  502  501 -0.64970328680E+01  0.43142672618E+02 -0.16058346690E+03  0.16640478202E+03  0.00000000000E+00 0.  1.
<mgrwt>
<rscale>  1 0.30000000E+03</rscale>
<asrwt>0</asrwt>
<pdfrwt beam="1">  1        1 0.12665299E-01 0.30000000E+03</pdfrwt>
<pdfrwt beam="2">0</pdfrwt>
<totfact> 0.54627238E+02</totfact>
</mgrwt>
</event>
<event>
 6    1  0.3125838E-002  0.3000000E+03  0.7818608E-02  0.1093470E+00
          1   -1    0    0  502    0  0.00000000000E+00  0.00000000000E+00  0.21173667646E+02  0.21173667646E+02  0.00000000000E+00 0.  1.
         13   -1    0    0    0    0 -0.00000000000E+00 -0.00000000000E+00 -0.10000000000E+04  0.10000000000E+04  0.00000000000E+00 0.  1.
    9000005    2    1    2  501    0 -0.45519129856E+01 -0.36074557265E+02 -0.98379535124E+03  0.98447510170E+03  0.39798429558E+01 0.  0.
         13    1    3    3    0    0 -0.44857008062E+01 -0.32163824846E+02 -0.84260445950E+03  0.84323004471E+03  0.00000000000E+00 0.  1.
          1    1    3    3  501    0 -0.66212179399E-01 -0.39107324189E+01 -0.14119089175E+03  0.14124505699E+03  0.00000000000E+00 0.  1.
         21    1    1    2  502  501  0.45519129856E+01  0.36074557265E+02  0.49690188876E+01  0.36698565945E+02  0.00000000000E+00 0.  1.
<mgrwt>
<rscale>  1 0.30000000E+03</rscale>
<asrwt>0</asrwt>
<pdfrwt beam="1">  1        1 0.76995317E-01 0.30000000E+03</pdfrwt>
<pdfrwt beam="2">0</pdfrwt>
<totfact> 0.49510212E+01</totfact>
</mgrwt>
</event>
<event>
 6    1  0.3125838E-002  0.3000000E+03  0.7818608E-02  0.1093470E+00
          1   -1    0    0  502    0  0.00000000000E+00  0.00000000000E+00  0.47472689645E+01  0.47472689645E+01  0.00000000000E+00 0.  1.
         13   -1    0    0    0    0 -0.00000000000E+00 -0.00000000000E+00 -0.10000000000E+04  0.10000000000E+04  0.00000000000E+00 0.  1.
    9000005    2    1    2  501    0  0.34514782090E+02 -0.15278028803E+02 -0.91781467206E+03  0.91860006167E+03  0.41967493270E+01 0.  0.
         13    1    3    3    0    0  0.26780690667E+02 -0.13683659983E+02 -0.73393694487E+03  0.73455284833E+03  0.00000000000E+00 0.  1.
          3    1    3    3  501    0  0.77340914226E+01 -0.15943688202E+01 -0.18387772718E+03  0.18404721334E+03  0.00000000000E+00 0.  1.
         21    1    1    2  502  501 -0.34514782090E+02  0.15278028803E+02 -0.77438058980E+02  0.86147207299E+02  0.00000000000E+00 0.  1.
<mgrwt>
<rscale>  1 0.30000000E+03</rscale>
<asrwt>0</asrwt>
<pdfrwt beam="1">  1        1 0.17262833E-01 0.30000000E+03</pdfrwt>
<pdfrwt beam="2">0</pdfrwt>
<totfact> 0.35871426E+02</totfact>
</mgrwt>
</event>
<event>
 6    1  0.3125838E-002  0.3000000E+03  0.7818608E-02  0.1093470E+00
          1   -1    0    0  502    0  0.00000000000E+00  0.00000000000E+00  0.11237337196E+01  0.11237337196E+01  0.00000000000E+00 0.  1.
         13   -1    0    0    0    0 -0.00000000000E+00 -0.00000000000E+00 -0.10000000000E+04  0.10000000000E+04  0.00000000000E+00 0.  1.
    9000005    2    1    2  501    0  0.38637144408E+00  0.32878684331E+02 -0.59454092252E+03  0.59545363699E+03  0.22289208916E+01 0.  0.
         13    1    3    3    0    0  0.16236761772E+00  0.31962780067E+02 -0.58220380290E+03  0.58308053799E+03  0.00000000000E+00 0.  1.
          3    1    3    3  501    0  0.22400382636E+00  0.91590426348E+00 -0.12337119615E+02  0.12373098995E+02  0.00000000000E+00 0.  1.
         21    1    1    2  502  501 -0.38637144408E+00 -0.32878684331E+02 -0.40433534376E+03  0.40567009673E+03  0.00000000000E+00 0.  1.
<mgrwt>
<rscale>  1 0.30000000E+03</rscale>
<asrwt>0</asrwt>
<pdfrwt beam="1">  1        1 0.40863131E-02 0.30000000E+03</pdfrwt>
<pdfrwt beam="2">0</pdfrwt>
<totfact> 0.26423223E+03</totfact>
</mgrwt>
</event>
<event>
 6    1  0.3125838E-002  0.3000000E+03  0.7818608E-02  0.1093470E+00
          1   -1    0    0  502    0  0.00000000000E+00  0.00000000000E+00  0.45388718724E+01  0.45388718724E+01  0.00000000000E+00 0.  1.
         13   -1    0    0    0    0 -0.00000000000E+00 -0.00000000000E+00 -0.10000000000E+04  0.10000000000E+04  0.00000000000E+00 0.  1.
    9000005    2    1    2  501    0 -0.37850970056E+02 -0.55564423517E+02 -0.47190875102E+03  0.47668738455E+03  0.35905714719E+01 0.  0.
         13    1    3    3    0    0 -0.18318478111E+02 -0.25260940920E+02 -0.20809217851E+03  0.21041871716E+03  0.00000000000E+00 0.  1.
          1    1    3    3  501    0 -0.19532491945E+02 -0.30303482597E+02 -0.26381657251E+03  0.26626866738E+03  0.00000000000E+00 0.  1.
         21    1    1    2  502  501  0.37850970056E+02  0.55564423517E+02 -0.52355237711E+03  0.52785148733E+03  0.00000000000E+00 0.  1.
<mgrwt>
<rscale>  1 0.30000000E+03</rscale>
<asrwt>0</asrwt>
<pdfrwt beam="1">  1        1 0.16505023E-01 0.30000000E+03</pdfrwt>
<pdfrwt beam="2">0</pdfrwt>
<totfact> 0.38110885E+02</totfact>
</mgrwt>
</event>
<event>
 6    1  0.3125838E-002  0.3000000E+03  0.7818608E-02  0.1093470E+00
          3   -1    0    0  502    0  0.00000000000E+00  0.00000000000E+00  0.31837776336E+01  0.31837776336E+01  0.00000000000E+00 0.  1.
         13   -1    0    0    0    0 -0.00000000000E+00 -0.00000000000E+00 -0.10000000000E+04  0.10000000000E+04  0.00000000000E+00 0.  1.
    9000005    2    1    2  501    0 -0.47094888562E+02  0.89846683315E+01 -0.76254081546E+03  0.76405281127E+03  0.30903673923E+01 0.  0.
         13    1    3    3    0    0 -0.28422279543E+02  0.45935794745E+01 -0.43711602728E+03  0.43806317838E+03  0.00000000000E+00 0.  1.
          3    1    3    3  501    0 -0.18672609019E+02  0.43910888570E+01 -0.32542478818E+03  0.32598963289E+03  0.00000000000E+00 0.  1.
         21    1    1    2  502  501  0.47094888562E+02 -0.89846683315E+01 -0.23427540690E+03  0.23913096636E+03  0.00000000000E+00 0.  1.
<mgrwt>
<rscale>  1 0.30000000E+03</rscale>
<asrwt>0</asrwt>
<pdfrwt beam="1">  1        3 0.11577398E-01 0.30000000E+03</pdfrwt>
<pdfrwt beam="2">0</pdfrwt>
<totfact> 0.25876989E+02</totfact>
</mgrwt>
</event>
<event>
 6    1  0.3125838E-002  0.3000000E+03  0.7818608E-02  0.1093470E+00
          1   -1    0    0  502    0  0.00000000000E+00  0.00000000000E+00  0.11859173707E+01  0.11859173707E+01  0.00000000000E+00 0.  1.
         13   -1    0    0    0    0 -0.00000000000E+00 -0.00000000000E+00 -0.10000000000E+04  0.10000000000E+04  0.00000000000E+00 0.  1.
    9000005    2    1    2  501    0  0.28141330437E+01 -0.30305330765E+02 -0.73236957542E+03  0.73300872252E+03  0.32031027894E+01 0.  0.
         13    1    3    3    0    0 -0.53738710364E+00 -0.10467496748E+02 -0.24557574002E+03  0.24579931114E+03  0.00000000000E+00 0.  1.
          3    1    3    3  501    0  0.33515201474E+01 -0.19837834017E+02 -0.48679383540E+03  0.48720941137E+03  0.00000000000E+00 0.  1.
         21    1    1    2  502  501 -0.28141330437E+01  0.30305330765E+02 -0.26644450721E+03  0.26817719485E+03  0.00000000000E+00 0.  1.
<mgrwt>
<rscale>  1 0.30000000E+03</rscale>
<asrwt>0</asrwt>
<pdfrwt beam="1">  1        1 0.43124359E-02 0.30000000E+03</pdfrwt>
<pdfrwt beam="2">0</pdfrwt>
<totfact> 0.24493590E+03</totfact>
</mgrwt>
</event>
<event>
 6    1  0.3125838E-002  0.3000000E+03  0.7818608E-02  0.1093470E+00
          3   -1    0    0  502    0  0.00000000000E+00  0.00000000000E+00  0.46043557214E+01  0.46043557214E+01  0.00000000000E+00 0.  1.
         13   -1    0    0    0    0 -0.00000000000E+00 -0.00000000000E+00 -0.10000000000E+04  0.10000000000E+04  0.00000000000E+00 0.  1.
    9000005    2    1    2  501    0 -0.34881575334E+00 -0.38260626686E+02 -0.91244882712E+03  0.91325791789E+03  0.36283961660E+01 0.  0.
         13    1    3    3    0    0  0.99607914036E+00 -0.11846597466E+02 -0.31387082783E+03  0.31409589397E+03  0.00000000000E+00 0.  1.
          3    1    3    3  501    0 -0.13448948937E+01 -0.26414029219E+02 -0.59857799929E+03  0.59916202393E+03  0.00000000000E+00 0.  1.
         21    1    1    2  502  501  0.34881575334E+00  0.38260626686E+02 -0.82946817159E+02  0.91346437827E+02  0.00000000000E+00 0.  1.
<mgrwt>
<rscale>  1 0.30000000E+03</rscale>
<asrwt>0</asrwt>
<pdfrwt beam="1">  1        3 0.16743147E-01 0.30000000E+03</pdfrwt>
<pdfrwt beam="2">0</pdfrwt>
<totfact> 0.13734954E+02</totfact>
</mgrwt>
</event>
<event>
 6    1  0.3125838E-002  0.3000000E+03  0.7818608E-02  0.1093470E+00
          1   -1    0    0  502    0  0.00000000000E+00  0.00000000000E+00  0.21067520196E+01  0.21067520196E+01  0.00000000000E+00 0.  1.
         13   -1    0    0    0    0 -0.00000000000E+00 -0.00000000000E+00 -0.10000000000E+04  0.10000000000E+04  0.00000000000E+00 0.  1.
    9000005    2    1    2  501    0  0.38723466205E+02 -0.49199439498E+00 -0.76655509141E+03  0.76754952749E+03  0.50813473402E+01 0.  0.
         13    1    3    3    0    0  0.19107977470E+02  0.76629639202E-02 -0.42795740212E+03  0.42838376824E+03  0.00000000000E+00 0.  1.
          1    1    3    3  501    0  0.19615488735E+02 -0.49965735890E+00 -0.33859768929E+03  0.33916575925E+03  0.00000000000E+00 0.  1.
         21    1    1    2  502  501 -0.38723466205E+02  0.49199439498E+00 -0.23133815657E+03  0.23455722453E+03  0.00000000000E+00 0.  1.
<mgrwt>
<rscale>  1 0.30000000E+03</rscale>
<asrwt>0</asrwt>
<pdfrwt beam="1">  1        1 0.76609326E-02 0.30000000E+03</pdfrwt>
<pdfrwt beam="2">0</pdfrwt>
<totfact> 0.10939047E+03</totfact>
</mgrwt>
</event>
<event>
 6    1  0.3125838E-002  0.3000000E+03  0.7818608E-02  0.1093470E+00
          1   -1    0    0  502    0  0.00000000000E+00  0.00000000000E+00  0.17082368607E+01  0.17082368607E+01  0.00000000000E+00 0.  1.
         13   -1    0    0    0    0 -0.00000000000E+00 -0.00000000000E+00 -0.10000000000E+04  0.10000000000E+04  0.00000000000E+00 0.  1.
    9000005    2    1    2  501    0 -0.15870418100E+02  0.36597485540E+02 -0.62787960008E+03  0.62915432578E+03  0.33357658534E+01 0.  0.
         13    1    3    3    0    0 -0.14772345110E+02  0.32311781646E+02 -0.54513354194E+03  0.54629008042E+03  0.00000000000E+00 0.  1.
          1    1    3    3  501    0 -0.10980729906E+01  0.42857038936E+01 -0.82746058142E+02  0.82864245366E+02  0.00000000000E+00 0.  1.
         21    1    1    2  502  501  0.15870418100E+02 -0.36597485540E+02 -0.37041216306E+03  0.37255391108E+03  0.00000000000E+00 0.  1.
<mgrwt>
<rscale>  1 0.30000000E+03</rscale>
<asrwt>0</asrwt>
<pdfrwt beam="1">  1        1 0.62117835E-02 0.30000000E+03</pdfrwt>
<pdfrwt beam="2">0</pdfrwt>
<totfact> 0.14667292E+03</totfact>
</mgrwt>
</event>
<event>
 6    1  0.3125838E-002  0.3000000E+03  0.7818608E-02  0.1093470E+00
          3   -1    0    0  502    0  0.00000000000E+00  0.00000000000E+00  0.15323855609E+01  0.15323855609E+01  0.00000000000E+00 0.  1.
         13   -1    0    0    0    0 -0.00000000000E+00 -0.00000000000E+00 -0.10000000000E+04  0.10000000000E+04  0.00000000000E+00 0.  1.
    9000005    2    1    2  501    0 -0.21104204483E+02  0.26076015050E+02 -0.75666404463E+03  0.75741292222E+03  0.29175858930E+01 0.  0.
         13    1    3    3    0    0 -0.44322901926E+00  0.56815321359E+00 -0.28860149963E+02  0.28869144530E+02  0.00000000000E+00 0.  1.
          3    1    3    3  501    0 -0.20660975463E+02  0.25507861837E+02 -0.72780389467E+03  0.72854377769E+03  0.00000000000E+00 0.  1.
         21    1    1    2  502  501  0.21104204483E+02 -0.26076015050E+02 -0.24180356981E+03  0.24411946334E+03  0.00000000000E+00 0.  1.
<mgrwt>
<rscale>  1 0.30000000E+03</rscale>
<asrwt>0</asrwt>
<pdfrwt beam="1">  1        3 0.55723229E-02 0.30000000E+03</pdfrwt>
<pdfrwt beam="2">0</pdfrwt>
<totfact> 0.83667715E+02</totfact>
</mgrwt>
</event>
<event>
 6    1  0.3125838E-002  0.3000000E+03  0.7818608E-02  0.1093470E+00
          1   -1    0    0  502    0  0.00000000000E+00  0.00000000000E+00  0.32421809799E+01  0.32421809799E+01  0.00000000000E+00 0.  1.
         13   -1    0    0    0    0 -0.00000000000E+00 -0.00000000000E+00 -0.10000000000E+04  0.10000000000E+04  0.00000000000E+00 0.  1.
    9000005    2    1    2  501    0 -0.23277519135E+02 -0.27395984420E+02 -0.88720804185E+03  0.88794458110E+03  0.38841635631E+01 0.  0.
         13    1    3    3    0    0 -0.10990668725E+02 -0.10496171368E+02 -0.34713427437E+03  0.34746678813E+03  0.00000000000E+00 0.  1.
          1    1    3    3  501    0 -0.12286850410E+02 -0.16899813053E+02 -0.54007376748E+03  0.54047779298E+03  0.00000000000E+00 0.  1.
         21    1    1    2  502  501  0.23277519135E+02  0.27395984420E+02 -0.10954977717E+03  0.11529759988E+03  0.00000000000E+00 0.  1.
<mgrwt>
<rscale>  1 0.30000000E+03</rscale>
<asrwt>0</asrwt>
<pdfrwt beam="1">  1        1 0.11789774E-01 0.30000000E+03</pdfrwt>
<pdfrwt beam="2">0</pdfrwt>
<totfact> 0.60259928E+02</totfact>
</mgrwt>
</event>
<event>
 6    1  0.3125838E-002  0.3000000E+03  0.7818608E-02  0.1093470E+00
          1   -1    0    0  502    0  0.00000000000E+00  0.00000000000E+00  0.17556885633E+01  0.17556885633E+01  0.00000000000E+00 0.  1.
         13   -1    0    0    0    0 -0.00000000000E+00 -0.00000000000E+00 -0.10000000000E+04  0.10000000000E+04  0.00000000000E+00 0.  1.
    9000005    2    1    2  501    0  0.30787174001E+02  0.95229710127E+01 -0.81854720952E+03  0.81919176689E+03  0.41327552184E+01 0.  0.
         13    1    3    3    0    0  0.78388595298E+01  0.40046697615E+01 -0.24972334028E+03  0.24987843400E+03  0.00000000000E+00 0.  1.
          1    1    3    3  501    0  0.22948314471E+02  0.55183012512E+01 -0.56882386924E+03  0.56931333288E+03  0.00000000000E+00 0.  1.
         21    1    1    2  502  501 -0.30787174001E+02 -0.95229710127E+01 -0.17969710192E+03  0.18256392167E+03  0.00000000000E+00 0.  1.
<mgrwt>
<rscale>  1 0.30000000E+03</rscale>
<asrwt>0</asrwt>
<pdfrwt beam="1">  1        1 0.63843355E-02 0.30000000E+03</pdfrwt>
<pdfrwt beam="2">0</pdfrwt>
<totfact> 0.14114721E+03</totfact>
</mgrwt>
</event>
<event>
 6    1  0.3125838E-002  0.3000000E+03  0.7818608E-02  0.1093470E+00
          1   -1    0    0  502    0  0.00000000000E+00  0.00000000000E+00  0.26989737680E+01  0.26989737680E+01  0.00000000000E+00 0.  1.
         13   -1    0    0    0    0 -0.00000000000E+00 -0.00000000000E+00 -0.10000000000E+04  0.10000000000E+04  0.00000000000E+00 0.  1.
    9000005    2    1    2  501    0  0.35694720002E+02 -0.16871904542E+02 -0.82420418304E+03  0.82515660890E+03  0.34813325576E+01 0.  0.
         13    1    3    3    0    0  0.35482062014E+02 -0.16848011538E+02 -0.81094443737E+03  0.81189513653E+03  0.00000000000E+00 0.  1.
          3    1    3    3  501    0  0.21265798759E+00 -0.23893003649E-01 -0.13259745668E+02  0.13261472372E+02  0.00000000000E+00 0.  1.
         21    1    1    2  502  501 -0.35694720002E+02  0.16871904542E+02 -0.17309684319E+03  0.17754236486E+03  0.00000000000E+00 0.  1.
<mgrwt>
<rscale>  1 0.30000000E+03</rscale>
<asrwt>0</asrwt>
<pdfrwt beam="1">  1        1 0.98144708E-02 0.30000000E+03</pdfrwt>
<pdfrwt beam="2">0</pdfrwt>
<totfact> 0.77553830E+02</totfact>
</mgrwt>
</event>
<event>
 6    1  0.3125838E-002  0.3000000E+03  0.7818608E-02  0.1093470E+00
          3   -1    0    0  502    0  0.00000000000E+00  0.00000000000E+00  0.12707385718E+01  0.12707385718E+01  0.00000000000E+00 0.  1.
         13   -1    0    0    0    0 -0.00000000000E+00 -0.00000000000E+00 -0.10000000000E+04  0.10000000000E+04  0.00000000000E+00 0.  1.
    9000005    2    1    2  501    0 -0.55668028202E+01 -0.33096408435E+02 -0.65909300407E+03  0.65998032140E+03  0.66389056929E+01 0.  0.
         13    1    3    3    0    0 -0.58989841784E+01 -0.30195731730E+02 -0.56019513259E+03  0.56103936297E+03  0.00000000000E+00 0.  1.
          3    1    3    3  501    0  0.33218135823E+00 -0.29006767049E+01 -0.98897871489E+02  0.98940958429E+02  0.00000000000E+00 0.  1.
         21    1    1    2  502  501  0.55668028202E+01  0.33096408435E+02 -0.33963625735E+03  0.34129041717E+03  0.00000000000E+00 0.  1.
<mgrwt>
<rscale>  1 0.30000000E+03</rscale>
<asrwt>0</asrwt>
<pdfrwt beam="1">  1        3 0.46208773E-02 0.30000000E+03</pdfrwt>
<pdfrwt beam="2">0</pdfrwt>
<totfact> 0.11174269E+03</totfact>
</mgrwt>
</event>
<event>
 6    1  0.3125838E-002  0.3000000E+03  0.7818608E-02  0.1093470E+00
          1   -1    0    0  502    0  0.00000000000E+00  0.00000000000E+00  0.50977067876E+01  0.50977067876E+01  0.00000000000E+00 0.  1.
         13   -1    0    0    0    0 -0.00000000000E+00 -0.00000000000E+00 -0.10000000000E+04  0.10000000000E+04  0.00000000000E+00 0.  1.
    9000005    2    1    2  501    0 -0.19458570634E+01  0.70192762017E+02 -0.58736235940E+03  0.59155253652E+03  0.30086582772E+01 0.  0.
         13    1    3    3    0    0 -0.22740583444E+01  0.47653075973E+02 -0.40746772112E+03  0.41025105819E+03  0.00000000000E+00 0.  1.
          1    1    3    3  501    0  0.32820128101E+00  0.22539686045E+02 -0.17989463828E+03  0.18130147833E+03  0.00000000000E+00 0.  1.
         21    1    1    2  502  501  0.19458570634E+01 -0.70192762017E+02 -0.40753993381E+03  0.41354517026E+03  0.00000000000E+00 0.  1.
<mgrwt>
<rscale>  1 0.30000000E+03</rscale>
<asrwt>0</asrwt>
<pdfrwt beam="1">  1        1 0.18537155E-01 0.30000000E+03</pdfrwt>
<pdfrwt beam="2">0</pdfrwt>
<totfact> 0.32595417E+02</totfact>
</mgrwt>
</event>
<event>
 6    1  0.3125838E-002  0.3000000E+03  0.7818608E-02  0.1093470E+00
          1   -1    0    0  502    0  0.00000000000E+00  0.00000000000E+00  0.82469480826E+01  0.82469480826E+01  0.00000000000E+00 0.  1.
         13   -1    0    0    0    0 -0.00000000000E+00 -0.00000000000E+00 -0.10000000000E+04  0.10000000000E+04  0.00000000000E+00 0.  1.
    9000005    2    1    2  501    0  0.40462360437E+02 -0.10704676510E+02 -0.94325227085E+03  0.94418355389E+03  0.24380851406E+01 0.  0.
         13    1    3    3    0    0  0.15086799529E+02 -0.31409067620E+01 -0.36614908410E+03  0.36647323040E+03  0.00000000000E+00 0.  1.
          3    1    3    3  501    0  0.25375560908E+02 -0.75637697485E+01 -0.57710318675E+03  0.57771032349E+03  0.00000000000E+00 0.  1.
         21    1    1    2  502  501 -0.40462360437E+02  0.10704676510E+02 -0.48500781063E+02  0.64063394190E+02  0.00000000000E+00 0.  1.
<mgrwt>
<rscale>  1 0.30000000E+03</rscale>
<asrwt>0</asrwt>
<pdfrwt beam="1">  1        1 0.29988965E-01 0.30000000E+03</pdfrwt>
<pdfrwt beam="2">0</pdfrwt>
<totfact> 0.17229910E+02</totfact>
</mgrwt>
</event>
<event>
 6    1  0.3125838E-002  0.3000000E+03  0.7818608E-02  0.1093470E+00
          3   -1    0    0  502    0  0.00000000000E+00  0.00000000000E+00  0.10668916462E+01  0.10668916462E+01  0.00000000000E+00 0.  1.
         13   -1    0    0    0    0 -0.00000000000E+00 -0.00000000000E+00 -0.10000000000E+04  0.10000000000E+04  0.00000000000E+00 0.  1.
    9000005    2    1    2  501    0 -0.70931829537E+01  0.31647323659E+02 -0.54660095839E+03  0.54757351768E+03  0.35047416254E+01 0.  0.
         13    1    3    3    0    0 -0.31035283503E+01  0.70579913768E+01 -0.12834911760E+03  0.12858049277E+03  0.00000000000E+00 0.  1.
          3    1    3    3  501    0 -0.39896546035E+01  0.24589332282E+02 -0.41825184079E+03  0.41899302491E+03  0.00000000000E+00 0.  1.
         21    1    1    2  502  501  0.70931829537E+01 -0.31647323659E+02 -0.45233214996E+03  0.45349337396E+03  0.00000000000E+00 0.  1.
<mgrwt>
<rscale>  1 0.30000000E+03</rscale>
<asrwt>0</asrwt>
<pdfrwt beam="1">  1        3 0.38796142E-02 0.30000000E+03</pdfrwt>
<pdfrwt beam="2">0</pdfrwt>
<totfact> 0.14623377E+03</totfact>
</mgrwt>
</event>
<event>
 6    1  0.3125838E-002  0.3000000E+03  0.7818608E-02  0.1093470E+00
          1   -1    0    0  502    0  0.00000000000E+00  0.00000000000E+00  0.17330904552E+01  0.17330904552E+01  0.00000000000E+00 0.  1.
         13   -1    0    0    0    0 -0.00000000000E+00 -0.00000000000E+00 -0.10000000000E+04  0.10000000000E+04  0.00000000000E+00 0.  1.
    9000005    2    1    2  501    0 -0.65197473347E+01 -0.40799570769E+02 -0.55538434229E+03  0.55692742451E+03  0.30457229524E+01 0.  0.
         13    1    3    3    0    0 -0.54153455880E+01 -0.24975477519E+02 -0.33643588917E+03  0.33740510958E+03  0.00000000000E+00 0.  1.
          1    1    3    3  501    0 -0.11044017467E+01 -0.15824093251E+02 -0.21894845312E+03  0.21952231494E+03  0.00000000000E+00 0.  1.
         21    1    1    2  502  501  0.65197473347E+01  0.40799570769E+02 -0.44288256725E+03  0.44480566594E+03  0.00000000000E+00 0.  1.
<mgrwt>
<rscale>  1 0.30000000E+03</rscale>
<asrwt>0</asrwt>
<pdfrwt beam="1">  1        1 0.63021604E-02 0.30000000E+03</pdfrwt>
<pdfrwt beam="2">0</pdfrwt>
<totfact> 0.14373306E+03</totfact>
</mgrwt>
</event>
<event>
 6    1  0.3125838E-002  0.3000000E+03  0.7818608E-02  0.1093470E+00
          1   -1    0    0  502    0  0.00000000000E+00  0.00000000000E+00  0.11513585835E+01  0.11513585835E+01  0.00000000000E+00 0.  1.
         13   -1    0    0    0    0 -0.00000000000E+00 -0.00000000000E+00 -0.10000000000E+04  0.10000000000E+04  0.00000000000E+00 0.  1.
    9000005    2    1    2  501    0 -0.22194361102E+02  0.21495777281E+02 -0.70469155712E+03  0.70537602434E+03  0.32383530428E+01 0.  0.
         13    1    3    3    0    0 -0.12711587766E+02  0.11901857060E+02 -0.43247062432E+03  0.43282107107E+03  0.00000000000E+00 0.  1.
          1    1    3    3  501    0 -0.94827733363E+01  0.95939202207E+01 -0.27222093280E+03  0.27255495327E+03  0.00000000000E+00 0.  1.
         21    1    1    2  502  501  0.22194361102E+02 -0.21495777281E+02 -0.29415708430E+03  0.29577533424E+03  0.00000000000E+00 0.  1.
<mgrwt>
<rscale>  1 0.30000000E+03</rscale>
<asrwt>0</asrwt>
<pdfrwt beam="1">  1        1 0.41867673E-02 0.30000000E+03</pdfrwt>
<pdfrwt beam="2">0</pdfrwt>
<totfact> 0.25534974E+03</totfact>
</mgrwt>
</event>
<event>
 6    1  0.3125838E-002  0.3000000E+03  0.7818608E-02  0.1093470E+00
          1   -1    0    0  502    0  0.00000000000E+00  0.00000000000E+00  0.52546550789E+01  0.52546550789E+01  0.00000000000E+00 0.  1.
         13   -1    0    0    0    0 -0.00000000000E+00 -0.00000000000E+00 -0.10000000000E+04  0.10000000000E+04  0.00000000000E+00 0.  1.
    9000005    2    1    2  501    0 -0.49665893624E+02  0.13540113104E+02 -0.85071835284E+03  0.85230430333E+03  0.71325986505E+01 0.  0.
         13    1    3    3    0    0 -0.32399712709E+02  0.11305985476E+02 -0.60211482077E+03  0.60309188693E+03  0.00000000000E+00 0.  1.
          3    1    3    3  501    0 -0.17266180915E+02  0.22341276275E+01 -0.24860353207E+03  0.24921241640E+03  0.00000000000E+00 0.  1.
         21    1    1    2  502  501  0.49665893624E+02 -0.13540113104E+02 -0.14402699208E+03  0.15295035175E+03  0.00000000000E+00 0.  1.
<mgrwt>
<rscale>  1 0.30000000E+03</rscale>
<asrwt>0</asrwt>
<pdfrwt beam="1">  1        1 0.19107877E-01 0.30000000E+03</pdfrwt>
<pdfrwt beam="2">0</pdfrwt>
<totfact> 0.31296374E+02</totfact>
</mgrwt>
</event>
<event>
 6    1  0.3125838E-002  0.3000000E+03  0.7818608E-02  0.1093470E+00
          3   -1    0    0  502    0  0.00000000000E+00  0.00000000000E+00  0.97354110036E+00  0.97354110036E+00  0.00000000000E+00 0.  1.
         13   -1    0    0    0    0 -0.00000000000E+00 -0.00000000000E+00 -0.10000000000E+04  0.10000000000E+04  0.00000000000E+00 0.  1.
    9000005    2    1    2  501    0  0.19912163691E+01 -0.30162660643E+02 -0.61883169501E+03  0.61957898224E+03  0.34201526488E+01 0.  0.
         13    1    3    3    0    0  0.16025882137E+00  0.17113923489E-01 -0.18972158328E+01  0.19040492883E+01  0.00000000000E+00 0.  1.
          1    1    3    3  501    0  0.18309575477E+01 -0.30179774566E+02 -0.61693447918E+03  0.61767493295E+03  0.00000000000E+00 0.  1.
         21    1    1    2  502  501 -0.19912163691E+01  0.30162660643E+02 -0.38019476389E+03  0.38139455886E+03  0.00000000000E+00 0.  1.
<mgrwt>
<rscale>  1 0.30000000E+03</rscale>
<asrwt>0</asrwt>
<pdfrwt beam="1">  1        3 0.35401569E-02 0.30000000E+03</pdfrwt>
<pdfrwt beam="2">0</pdfrwt>
<totfact> 0.16838265E+03</totfact>
</mgrwt>
</event>
<event>
 6    1  0.3125838E-002  0.3000000E+03  0.7818608E-02  0.1093470E+00
          1   -1    0    0  502    0  0.00000000000E+00  0.00000000000E+00  0.89027154397E+01  0.89027154397E+01  0.00000000000E+00 0.  1.
         13   -1    0    0    0    0 -0.00000000000E+00 -0.00000000000E+00 -0.10000000000E+04  0.10000000000E+04  0.00000000000E+00 0.  1.
    9000005    2    1    2  501    0 -0.31645897202E+02  0.34767372346E+02 -0.93283342774E+03  0.93403676857E+03  0.60206425441E+01 0.  0.
         13    1    3    3    0    0 -0.13039547108E+02  0.10257351667E+02 -0.34389915328E+03  0.34429910060E+03  0.00000000000E+00 0.  1.
          1    1    3    3  501    0 -0.18606350095E+02  0.24510020679E+02 -0.58893427446E+03  0.58973766796E+03  0.00000000000E+00 0.  1.
         21    1    1    2  502  501  0.31645897202E+02 -0.34767372346E+02 -0.58263856822E+02  0.74865946874E+02  0.00000000000E+00 0.  1.
<mgrwt>
<rscale>  1 0.30000000E+03</rscale>
<asrwt>0</asrwt>
<pdfrwt beam="1">  1        1 0.32373579E-01 0.30000000E+03</pdfrwt>
<pdfrwt beam="2">0</pdfrwt>
<totfact> 0.15585286E+02</totfact>
</mgrwt>
</event>
<event>
 6    1  0.3125838E-002  0.3000000E+03  0.7818608E-02  0.1093470E+00
          1   -1    0    0  502    0  0.00000000000E+00  0.00000000000E+00  0.25833293890E+01  0.25833293890E+01  0.00000000000E+00 0.  1.
         13   -1    0    0    0    0 -0.00000000000E+00 -0.00000000000E+00 -0.10000000000E+04  0.10000000000E+04  0.00000000000E+00 0.  1.
    9000005    2    1    2  501    0  0.40042735164E+02  0.12117965357E+02 -0.78122818677E+03  0.78238404176E+03  0.75527004399E+01 0.  0.
         13    1    3    3    0    0  0.18173989964E+02  0.41523811983E+01 -0.28377365219E+03  0.28438534045E+03  0.00000000000E+00 0.  1.
          3    1    3    3  501    0  0.21868745200E+02  0.79655841587E+01 -0.49745453457E+03  0.49799870132E+03  0.00000000000E+00 0.  1.
         21    1    1    2  502  501 -0.40042735164E+02 -0.12117965357E+02 -0.21618848384E+03  0.22019928763E+03  0.00000000000E+00 0.  1.
<mgrwt>
<rscale>  1 0.30000000E+03</rscale>
<asrwt>0</asrwt>
<pdfrwt beam="1">  1        1 0.93939449E-02 0.30000000E+03</pdfrwt>
<pdfrwt beam="2">0</pdfrwt>
<totfact> 0.82397891E+02</totfact>
</mgrwt>
</event>
<event>
 6    1  0.3125838E-002  0.3000000E+03  0.7818608E-02  0.1093470E+00
          1   -1    0    0  502    0  0.00000000000E+00  0.00000000000E+00  0.11440055883E+01  0.11440055883E+01  0.00000000000E+00 0.  1.
         13   -1    0    0    0    0 -0.00000000000E+00 -0.00000000000E+00 -0.10000000000E+04  0.10000000000E+04  0.00000000000E+00 0.  1.
    9000005    2    1    2  501    0 -0.13871152642E+02 -0.29638997441E+02 -0.62243721862E+03  0.62330545037E+03  0.32732683959E+01 0.  0.
         13    1    3    3    0    0 -0.86463376834E+01 -0.21762815200E+02 -0.43384835185E+03  0.43447988639E+03  0.00000000000E+00 0.  1.
          1    1    3    3  501    0 -0.52248149582E+01 -0.78761822414E+01 -0.18858886677E+03  0.18882556397E+03  0.00000000000E+00 0.  1.
         21    1    1    2  502  501  0.13871152642E+02  0.29638997441E+02 -0.37641877579E+03  0.37783855522E+03  0.00000000000E+00 0.  1.
<mgrwt>
<rscale>  1 0.30000000E+03</rscale>
<asrwt>0</asrwt>
<pdfrwt beam="1">  1        1 0.41600291E-02 0.30000000E+03</pdfrwt>
<pdfrwt beam="2">0</pdfrwt>
<totfact> 0.25766360E+03</totfact>
</mgrwt>
</event>
<event>
 6    1  0.3125838E-002  0.3000000E+03  0.7818608E-02  0.1093470E+00
          1   -1    0    0  502    0  0.00000000000E+00  0.00000000000E+00  0.14151036517E+01  0.14151036517E+01  0.00000000000E+00 0.  1.
         13   -1    0    0    0    0 -0.00000000000E+00 -0.00000000000E+00 -0.10000000000E+04  0.10000000000E+04  0.00000000000E+00 0.  1.
    9000005    2    1    2  501    0  0.20099278887E+02 -0.27546500369E+02 -0.70832506580E+03  0.70915912010E+03  0.44122647326E+01 0.  0.
         13    1    3    3    0    0 -0.52483347120E-02 -0.65899710792E-01 -0.13583986187E+02  0.13584147049E+02  0.00000000000E+00 0.  1.
          3    1    3    3  501    0  0.20104527221E+02 -0.27480600659E+02 -0.69474107961E+03  0.69557497305E+03  0.00000000000E+00 0.  1.
         21    1    1    2  502  501 -0.20099278887E+02  0.27546500369E+02 -0.29025983055E+03  0.29225598356E+03  0.00000000000E+00 0.  1.
<mgrwt>
<rscale>  1 0.30000000E+03</rscale>
<asrwt>0</asrwt>
<pdfrwt beam="1">  1        1 0.51458423E-02 0.30000000E+03</pdfrwt>
<pdfrwt beam="2">0</pdfrwt>
<totfact> 0.19103902E+03</totfact>
</mgrwt>
</event>
<event>
 6    1  0.3125838E-002  0.3000000E+03  0.7818608E-02  0.1093470E+00
          1   -1    0    0  502    0  0.00000000000E+00  0.00000000000E+00  0.48826680733E+01  0.48826680733E+01  0.00000000000E+00 0.  1.
         13   -1    0    0    0    0 -0.00000000000E+00 -0.00000000000E+00 -0.10000000000E+04  0.10000000000E+04  0.00000000000E+00 0.  1.
    9000005    2    1    2  501    0 -0.10251341667E+02  0.50785273653E+02 -0.83457533429E+03  0.83618777476E+03  0.31260231262E+01 0.  0.
         13    1    3    3    0    0 -0.43140744485E+01  0.14696494460E+02 -0.23779511193E+03  0.23828787935E+03  0.00000000000E+00 0.  1.
          3    1    3    3  501    0 -0.59372672185E+01  0.36088779193E+02 -0.59678022236E+03  0.59789989541E+03  0.00000000000E+00 0.  1.
         21    1    1    2  502  501  0.10251341667E+02 -0.50785273653E+02 -0.16054199763E+03  0.16869489331E+03  0.00000000000E+00 0.  1.
<mgrwt>
<rscale>  1 0.30000000E+03</rscale>
<asrwt>0</asrwt>
<pdfrwt beam="1">  1        1 0.17755194E-01 0.30000000E+03</pdfrwt>
<pdfrwt beam="2">0</pdfrwt>
<totfact> 0.34538758E+02</totfact>
</mgrwt>
</event>
<event>
 6    1  0.3125838E-002  0.3000000E+03  0.7818608E-02  0.1093470E+00
          3   -1    0    0  502    0  0.00000000000E+00  0.00000000000E+00  0.10177390061E+01  0.10177390061E+01  0.00000000000E+00 0.  1.
         13   -1    0    0    0    0 -0.00000000000E+00 -0.00000000000E+00 -0.10000000000E+04  0.10000000000E+04  0.00000000000E+00 0.  1.
    9000005    2    1    2  501    0 -0.22791534139E+02 -0.20805402946E+02 -0.62258460624E+03  0.62335715949E+03  0.31996146535E+01 0.  0.
         13    1    3    3    0    0 -0.10263974029E+01 -0.21996870600E+00 -0.25190517377E+02  0.25212378776E+02  0.00000000000E+00 0.  1.
          3    1    3    3  501    0 -0.21765136736E+02 -0.20585434240E+02 -0.59739408887E+03  0.59814478071E+03  0.00000000000E+00 0.  1.
         21    1    1    2  502  501  0.22791534139E+02  0.20805402946E+02 -0.37639765475E+03  0.37766057952E+03  0.00000000000E+00 0.  1.
<mgrwt>
<rscale>  1 0.30000000E+03</rscale>
<asrwt>0</asrwt>
<pdfrwt beam="1">  1        3 0.37008769E-02 0.30000000E+03</pdfrwt>
<pdfrwt beam="2">0</pdfrwt>
<totfact> 0.15723849E+03</totfact>
</mgrwt>
</event>
<event>
 6    1  0.3125838E-002  0.3000000E+03  0.7818608E-02  0.1093470E+00
          1   -1    0    0  502    0  0.00000000000E+00  0.00000000000E+00  0.22862224810E+01  0.22862224810E+01  0.00000000000E+00 0.  1.
         13   -1    0    0    0    0 -0.00000000000E+00 -0.00000000000E+00 -0.10000000000E+04  0.10000000000E+04  0.00000000000E+00 0.  1.
    9000005    2    1    2  501    0 -0.10144780432E+02  0.35111995387E+02 -0.82174591192E+03  0.82256293931E+03  0.27706641857E+01 0.  0.
         13    1    3    3    0    0 -0.77521214414E+01  0.29976012209E+02 -0.70521354391E+03  0.70589290916E+03  0.00000000000E+00 0.  1.
          1    1    3    3  501    0 -0.23926589907E+01  0.51359831782E+01 -0.11653236802E+03  0.11667003015E+03  0.00000000000E+00 0.  1.
         21    1    1    2  502  501  0.10144780432E+02 -0.35111995387E+02 -0.17596786560E+03  0.17972328317E+03  0.00000000000E+00 0.  1.
<mgrwt>
<rscale>  1 0.30000000E+03</rscale>
<asrwt>0</asrwt>
<pdfrwt beam="1">  1        1 0.83135538E-02 0.30000000E+03</pdfrwt>
<pdfrwt beam="2">0</pdfrwt>
<totfact> 0.97620078E+02</totfact>
</mgrwt>
</event>
<event>
 6    1  0.3125838E-002  0.3000000E+03  0.7818608E-02  0.1093470E+00
          1   -1    0    0  502    0  0.00000000000E+00  0.00000000000E+00  0.30674244004E+01  0.30674244004E+01  0.00000000000E+00 0.  1.
         13   -1    0    0    0    0 -0.00000000000E+00 -0.00000000000E+00 -0.10000000000E+04  0.10000000000E+04  0.00000000000E+00 0.  1.
    9000005    2    1    2  501    0  0.46533433191E+02 -0.52024089968E+00 -0.77002211998E+03  0.77143412385E+03  0.33031991132E+01 0.  0.
         13    1    3    3    0    0  0.17562041525E+02 -0.16891623003E+01 -0.30096362942E+03  0.30148032242E+03  0.00000000000E+00 0.  1.
          3    1    3    3  501    0  0.28971391665E+02  0.11689214006E+01 -0.46905849056E+03  0.46995380143E+03  0.00000000000E+00 0.  1.
         21    1    1    2  502  501 -0.46533433191E+02  0.52024089968E+00 -0.22691045562E+03  0.23163330055E+03  0.00000000000E+00 0.  1.
<mgrwt>
<rscale>  1 0.30000000E+03</rscale>
<asrwt>0</asrwt>
<pdfrwt beam="1">  1        1 0.11154294E-01 0.30000000E+03</pdfrwt>
<pdfrwt beam="2">0</pdfrwt>
<totfact> 0.65020938E+02</totfact>
</mgrwt>
</event>
<event>
 6    1  0.3125838E-002  0.3000000E+03  0.7818608E-02  0.1093470E+00
          3   -1    0    0  502    0  0.00000000000E+00  0.00000000000E+00  0.14462130536E+01  0.14462130536E+01  0.00000000000E+00 0.  1.
         13   -1    0    0    0    0 -0.00000000000E+00 -0.00000000000E+00 -0.10000000000E+04  0.10000000000E+04  0.00000000000E+00 0.  1.
    9000005    2    1    2  501    0 -0.35995204024E+02  0.10440721528E+02 -0.42024575176E+03  0.42192499089E+03  0.30891236818E+01 0.  0.
         13    1    3    3    0    0 -0.21393629952E+02  0.47174736640E+01 -0.23897434327E+03  0.23997641280E+03  0.00000000000E+00 0.  1.
          3    1    3    3  501    0 -0.14601574072E+02  0.57232478643E+01 -0.18127140849E+03  0.18194857809E+03  0.00000000000E+00 0.  1.
         21    1    1    2  502  501  0.35995204024E+02 -0.10440721528E+02 -0.57830803519E+03  0.57952122217E+03  0.00000000000E+00 0.  1.
<mgrwt>
<rscale>  1 0.30000000E+03</rscale>
<asrwt>0</asrwt>
<pdfrwt beam="1">  1        3 0.52589676E-02 0.30000000E+03</pdfrwt>
<pdfrwt beam="2">0</pdfrwt>
<totfact> 0.91514557E+02</totfact>
</mgrwt>
</event>
<event>
 6    1  0.3125838E-002  0.3000000E+03  0.7818608E-02  0.1093470E+00
          1   -1    0    0  502    0  0.00000000000E+00  0.00000000000E+00  0.19272028147E+01  0.19272028147E+01  0.00000000000E+00 0.  1.
         13   -1    0    0    0    0 -0.00000000000E+00 -0.00000000000E+00 -0.10000000000E+04  0.10000000000E+04  0.00000000000E+00 0.  1.
    9000005    2    1    2  501    0  0.18022535475E+02  0.39495888747E+02 -0.56953493587E+03  0.57119592279E+03  0.31625970841E+01 0.  0.
         13    1    3    3    0    0  0.16607075273E+02  0.34029101735E+02 -0.49020338700E+03  0.49166364045E+03  0.00000000000E+00 0.  1.
          3    1    3    3  501    0  0.14154602016E+01  0.54667870118E+01 -0.79331548870E+02  0.79532282338E+02  0.00000000000E+00 0.  1.
         21    1    1    2  502  501 -0.18022535475E+02 -0.39495888747E+02 -0.42853786132E+03  0.43073128003E+03  0.00000000000E+00 0.  1.
<mgrwt>
<rscale>  1 0.30000000E+03</rscale>
<asrwt>0</asrwt>
<pdfrwt beam="1">  1        1 0.70080250E-02 0.30000000E+03</pdfrwt>
<pdfrwt beam="2">0</pdfrwt>
<totfact> 0.12388250E+03</totfact>
</mgrwt>
</event>
<event>
 6    1  0.3125838E-002  0.3000000E+03  0.7818608E-02  0.1093470E+00
          3   -1    0    0  502    0  0.00000000000E+00  0.00000000000E+00  0.21976856080E+01  0.21976856080E+01  0.00000000000E+00 0.  1.
         13   -1    0    0    0    0 -0.00000000000E+00 -0.00000000000E+00 -0.10000000000E+04  0.10000000000E+04  0.00000000000E+00 0.  1.
    9000005    2    1    2  501    0 -0.30102536086E+02 -0.13996644368E+02 -0.85245644146E+03  0.85310881442E+03  0.32551390241E+01 0.  0.
         13    1    3    3    0    0 -0.25031981142E+02 -0.12080995297E+02 -0.74002132432E+03  0.74054311891E+03  0.00000000000E+00 0.  1.
          1    1    3    3  501    0 -0.50705549435E+01 -0.19156490710E+01 -0.11243511714E+03  0.11256569551E+03  0.00000000000E+00 0.  1.
         21    1    1    2  502  501  0.30102536086E+02  0.13996644368E+02 -0.14534587293E+03  0.14908887118E+03  0.00000000000E+00 0.  1.
<mgrwt>
<rscale>  1 0.30000000E+03</rscale>
<asrwt>0</asrwt>
<pdfrwt beam="1">  1        3 0.79916009E-02 0.30000000E+03</pdfrwt>
<pdfrwt beam="2">0</pdfrwt>
<totfact> 0.47470731E+02</totfact>
</mgrwt>
</event>
<event>
 6    1  0.3125838E-002  0.3000000E+03  0.7818608E-02  0.1093470E+00
          3   -1    0    0  502    0  0.00000000000E+00  0.00000000000E+00  0.97529116822E+00  0.97529116822E+00  0.00000000000E+00 0.  1.
         13   -1    0    0    0    0 -0.00000000000E+00 -0.00000000000E+00 -0.10000000000E+04  0.10000000000E+04  0.00000000000E+00 0.  1.
    9000005    2    1    2  501    0  0.26584400979E+02 -0.14955871240E+02 -0.59802205746E+03  0.59881421042E+03  0.42034431663E+01 0.  0.
         13    1    3    3    0    0  0.18631491817E+02 -0.12583087084E+02 -0.43029708464E+03  0.43088403036E+03  0.00000000000E+00 0.  1.
          3    1    3    3  501    0  0.79529091616E+01 -0.23727841561E+01 -0.16772497281E+03  0.16793018005E+03  0.00000000000E+00 0.  1.
         21    1    1    2  502  501 -0.26584400979E+02  0.14955871240E+02 -0.40100265138E+03  0.40216108075E+03  0.00000000000E+00 0.  1.
<mgrwt>
<rscale>  1 0.30000000E+03</rscale>
<asrwt>0</asrwt>
<pdfrwt beam="1">  1        3 0.35465208E-02 0.30000000E+03</pdfrwt>
<pdfrwt beam="2">0</pdfrwt>
<totfact> 0.16791626E+03</totfact>
</mgrwt>
</event>
<event>
 6    1  0.3125838E-002  0.3000000E+03  0.7818608E-02  0.1093470E+00
          1   -1    0    0  502    0  0.00000000000E+00  0.00000000000E+00  0.29091849541E+01  0.29091849541E+01  0.00000000000E+00 0.  1.
         13   -1    0    0    0    0 -0.00000000000E+00 -0.00000000000E+00 -0.10000000000E+04  0.10000000000E+04  0.00000000000E+00 0.  1.
    9000005    2    1    2  501    0 -0.49202208830E+02 -0.93822242020E+00 -0.70302005095E+03  0.70474924145E+03  0.35445267785E+01 0.  0.
         13    1    3    3    0    0 -0.27369540600E+01  0.93826243187E-01 -0.52203126842E+02  0.52274909593E+02  0.00000000000E+00 0.  1.
          1    1    3    3  501    0 -0.46465254769E+02 -0.10320486634E+01 -0.65081692411E+03  0.65247433186E+03  0.00000000000E+00 0.  1.
         21    1    1    2  502  501  0.49202208830E+02  0.93822242020E+00 -0.29407076409E+03  0.29815994350E+03  0.00000000000E+00 0.  1.
<mgrwt>
<rscale>  1 0.30000000E+03</rscale>
<asrwt>0</asrwt>
<pdfrwt beam="1">  1        1 0.10578877E-01 0.30000000E+03</pdfrwt>
<pdfrwt beam="2">0</pdfrwt>
<totfact> 0.69933023E+02</totfact>
</mgrwt>
</event>
<event>
 6    1  0.3125838E-002  0.3000000E+03  0.7818608E-02  0.1093470E+00
          1   -1    0    0  502    0  0.00000000000E+00  0.00000000000E+00  0.44670449660E+01  0.44670449660E+01  0.00000000000E+00 0.  1.
         13   -1    0    0    0    0 -0.00000000000E+00 -0.00000000000E+00 -0.10000000000E+04  0.10000000000E+04  0.00000000000E+00 0.  1.
    9000005    2    1    2  501    0 -0.44087928932E+02  0.43629273350E+02 -0.68437078779E+03  0.68718301875E+03  0.31411943059E+01 0.  0.
         13    1    3    3    0    0 -0.36357864597E+02  0.37515070827E+02 -0.57959167152E+03  0.58194138928E+03  0.00000000000E+00 0.  1.
          1    1    3    3  501    0 -0.77300643343E+01  0.61142025229E+01 -0.10477911627E+03  0.10524162947E+03  0.00000000000E+00 0.  1.
         21    1    1    2  502  501  0.44087928932E+02 -0.43629273350E+02 -0.31116216724E+03  0.31728402622E+03  0.00000000000E+00 0.  1.
<mgrwt>
<rscale>  1 0.30000000E+03</rscale>
<asrwt>0</asrwt>
<pdfrwt beam="1">  1        1 0.16243834E-01 0.30000000E+03</pdfrwt>
<pdfrwt beam="2">0</pdfrwt>
<totfact> 0.38941383E+02</totfact>
</mgrwt>
</event>
<event>
 6    1  0.3125838E-002  0.3000000E+03  0.7818608E-02  0.1093470E+00
          1   -1    0    0  502    0  0.00000000000E+00  0.00000000000E+00  0.29543174675E+01  0.29543174675E+01  0.00000000000E+00 0.  1.
         13   -1    0    0    0    0 -0.00000000000E+00 -0.00000000000E+00 -0.10000000000E+04  0.10000000000E+04  0.00000000000E+00 0.  1.
    9000005    2    1    2  501    0  0.77887463553E+01 -0.46110772189E+02 -0.75367399377E+03  0.75513049542E+03  0.32723616644E+01 0.  0.
         13    1    3    3    0    0  0.22051386029E+01 -0.11600104993E+02 -0.21375312494E+03  0.21407901227E+03  0.00000000000E+00 0.  1.
          3    1    3    3  501    0  0.55836077523E+01 -0.34510667196E+02 -0.53992086883E+03  0.54105148316E+03  0.00000000000E+00 0.  1.
         21    1    1    2  502  501 -0.77887463553E+01  0.46110772189E+02 -0.24337168876E+03  0.24782382205E+03  0.00000000000E+00 0.  1.
<mgrwt>
<rscale>  1 0.30000000E+03</rscale>
<asrwt>0</asrwt>
<pdfrwt beam="1">  1        1 0.10742995E-01 0.30000000E+03</pdfrwt>
<pdfrwt beam="2">0</pdfrwt>
<totfact> 0.68467114E+02</totfact>
</mgrwt>
</event>
<event>
 6    1  0.3125838E-002  0.3000000E+03  0.7818608E-02  0.1093470E+00
          3   -1    0    0  502    0  0.00000000000E+00  0.00000000000E+00  0.14971145518E+01  0.14971145518E+01  0.00000000000E+00 0.  1.
         13   -1    0    0    0    0 -0.00000000000E+00 -0.00000000000E+00 -0.10000000000E+04  0.10000000000E+04  0.00000000000E+00 0.  1.
    9000005    2    1    2  501    0  0.25282788692E+02 -0.26206662581E+02 -0.66646106255E+03  0.66746451027E+03  0.35377974949E+01 0.  0.
         13    1    3    3    0    0  0.12834772740E+02 -0.10886958037E+02 -0.31662513763E+03  0.31707212906E+03  0.00000000000E+00 0.  1.
          1    1    3    3  501    0  0.12448015952E+02 -0.15319704544E+02 -0.34983592491E+03  0.35039238121E+03  0.00000000000E+00 0.  1.
         21    1    1    2  502  501 -0.25282788692E+02  0.26206662581E+02 -0.33204182290E+03  0.33403260428E+03  0.00000000000E+00 0.  1.
<mgrwt>
<rscale>  1 0.30000000E+03</rscale>
<asrwt>0</asrwt>
<pdfrwt beam="1">  1        3 0.54440644E-02 0.30000000E+03</pdfrwt>
<pdfrwt beam="2">0</pdfrwt>
<totfact> 0.86743921E+02</totfact>
</mgrwt>
</event>
<event>
 6    1  0.3125838E-002  0.3000000E+03  0.7818608E-02  0.1093470E+00
          1   -1    0    0  502    0  0.00000000000E+00  0.00000000000E+00  0.58344617948E+01  0.58344617948E+01  0.00000000000E+00 0.  1.
         13   -1    0    0    0    0 -0.00000000000E+00 -0.00000000000E+00 -0.10000000000E+04  0.10000000000E+04  0.00000000000E+00 0.  1.
    9000005    2    1    2  501    0  0.52534029961E+02  0.54820435605E+02 -0.44410173172E+03  0.45055498651E+03  0.28884756422E+01 0.  0.
         13    1    3    3    0    0  0.89182191991E+01  0.92408981039E+01 -0.81745682431E+02  0.82748325830E+02  0.00000000000E+00 0.  1.
          3    1    3    3  501    0  0.43615810761E+02  0.45579537501E+02 -0.36235604928E+03  0.36780666068E+03  0.00000000000E+00 0.  1.
         21    1    1    2  502  501 -0.52534029961E+02 -0.54820435605E+02 -0.55006380649E+03  0.55527947528E+03  0.00000000000E+00 0.  1.
<mgrwt>
<rscale>  1 0.30000000E+03</rscale>
<asrwt>0</asrwt>
<pdfrwt beam="1">  1        1 0.21216269E-01 0.30000000E+03</pdfrwt>
<pdfrwt beam="2">0</pdfrwt>
<totfact> 0.27211590E+02</totfact>
</mgrwt>
</event>
<event>
 6    1  0.3125838E-002  0.3000000E+03  0.7818608E-02  0.1093470E+00
          1   -1    0    0  502    0  0.00000000000E+00  0.00000000000E+00  0.15456405921E+01  0.15456405921E+01  0.00000000000E+00 0.  1.
         13   -1    0    0    0    0 -0.00000000000E+00 -0.00000000000E+00 -0.10000000000E+04  0.10000000000E+04  0.00000000000E+00 0.  1.
    9000005    2    1    2  501    0 -0.14433229185E+02 -0.28529831389E+02 -0.78988298045E+03  0.79053784571E+03  0.35627657002E+01 0.  0.
         13    1    3    3    0    0 -0.77988360467E+01 -0.13927895326E+02 -0.35347338559E+03  0.35383363666E+03  0.00000000000E+00 0.  1.
          3    1    3    3  501    0 -0.66343931379E+01 -0.14601936064E+02 -0.43640959486E+03  0.43670420904E+03  0.00000000000E+00 0.  1.
         21    1    1    2  502  501  0.14433229185E+02  0.28529831389E+02 -0.20857137895E+03  0.21100779489E+03  0.00000000000E+00 0.  1.
<mgrwt>
<rscale>  1 0.30000000E+03</rscale>
<asrwt>0</asrwt>
<pdfrwt beam="1">  1        1 0.56205231E-02 0.30000000E+03</pdfrwt>
<pdfrwt beam="2">0</pdfrwt>
<totfact> 0.16877223E+03</totfact>
</mgrwt>
</event>
<event>
 6    1  0.3125838E-002  0.3000000E+03  0.7818608E-02  0.1093470E+00
          3   -1    0    0  502    0  0.00000000000E+00  0.00000000000E+00  0.12750152694E+01  0.12750152694E+01  0.00000000000E+00 0.  1.
         13   -1    0    0    0    0 -0.00000000000E+00 -0.00000000000E+00 -0.10000000000E+04  0.10000000000E+04  0.00000000000E+00 0.  1.
    9000005    2    1    2  501    0  0.54298514301E+01 -0.31686834730E+02 -0.28477564566E+03  0.28660222472E+03  0.31824638113E+01 0.  0.
         13    1    3    3    0    0  0.12586830280E+01 -0.88686013233E+01 -0.67461614338E+02  0.68053697780E+02  0.00000000000E+00 0.  1.
          3    1    3    3  501    0  0.41711684020E+01 -0.22818233406E+02 -0.21731403132E+03  0.21854852694E+03  0.00000000000E+00 0.  1.
         21    1    1    2  502  501 -0.54298514301E+01  0.31686834730E+02 -0.71394933907E+03  0.71467279055E+03  0.00000000000E+00 0.  1.
<mgrwt>
<rscale>  1 0.30000000E+03</rscale>
<asrwt>0</asrwt>
<pdfrwt beam="1">  1        3 0.46364289E-02 0.30000000E+03</pdfrwt>
<pdfrwt beam="2">0</pdfrwt>
<totfact> 0.11116471E+03</totfact>
</mgrwt>
</event>
<event>
 6    1  0.3125838E-002  0.3000000E+03  0.7818608E-02  0.1093470E+00
          3   -1    0    0  502    0  0.00000000000E+00  0.00000000000E+00  0.11354629149E+01  0.11354629149E+01  0.00000000000E+00 0.  1.
         13   -1    0    0    0    0 -0.00000000000E+00 -0.00000000000E+00 -0.10000000000E+04  0.10000000000E+04  0.00000000000E+00 0.  1.
    9000005    2    1    2  501    0 -0.76361251973E+01  0.30554240005E+02 -0.66189734213E+03  0.66269970465E+03  0.84222945980E+01 0.  0.
         13    1    3    3    0    0 -0.85094743362E+01  0.20196733426E+02 -0.48814433906E+03  0.48863607618E+03  0.00000000000E+00 0.  1.
          3    1    3    3  501    0  0.87334913884E+00  0.10357506579E+02 -0.17375300307E+03  0.17406362847E+03  0.00000000000E+00 0.  1.
         21    1    1    2  502  501  0.76361251973E+01 -0.30554240005E+02 -0.33696719496E+03  0.33843575826E+03  0.00000000000E+00 0.  1.
<mgrwt>
<rscale>  1 0.30000000E+03</rscale>
<asrwt>0</asrwt>
<pdfrwt beam="1">  1        3 0.41289648E-02 0.30000000E+03</pdfrwt>
<pdfrwt beam="2">0</pdfrwt>
<totfact> 0.13288876E+03</totfact>
</mgrwt>
</event>
<event>
 6    1  0.3125838E-002  0.3000000E+03  0.7818608E-02  0.1093470E+00
          1   -1    0    0  502    0  0.00000000000E+00  0.00000000000E+00  0.14369482884E+02  0.14369482884E+02  0.00000000000E+00 0.  1.
         13   -1    0    0    0    0 -0.00000000000E+00 -0.00000000000E+00 -0.10000000000E+04  0.10000000000E+04  0.00000000000E+00 0.  1.
    9000005    2    1    2  501    0 -0.37077130592E+02 -0.45649769405E+02 -0.51017644543E+02  0.77908145380E+02  0.28747177471E+01 0.  0.
         13    1    3    3    0    0 -0.20074769338E+02 -0.25068043818E+02 -0.29724802156E+02  0.43760336471E+02  0.00000000000E+00 0.  1.
          1    1    3    3  501    0 -0.17002361255E+02 -0.20581725587E+02 -0.21292842386E+02  0.34147808909E+02  0.00000000000E+00 0.  1.
         21    1    1    2  502  501  0.37077130592E+02  0.45649769405E+02 -0.93461287257E+03  0.93646133750E+03  0.00000000000E+00 0.  1.
<mgrwt>
<rscale>  1 0.30000000E+03</rscale>
<asrwt>0</asrwt>
<pdfrwt beam="1">  1        1 0.52252775E-01 0.30000000E+03</pdfrwt>
<pdfrwt beam="2">0</pdfrwt>
<totfact> 0.83276645E+01</totfact>
</mgrwt>
</event>
<event>
 6    1  0.3125838E-002  0.3000000E+03  0.7818608E-02  0.1093470E+00
          1   -1    0    0  502    0  0.00000000000E+00  0.00000000000E+00  0.26668206730E+01  0.26668206730E+01  0.00000000000E+00 0.  1.
         13   -1    0    0    0    0 -0.00000000000E+00 -0.00000000000E+00 -0.10000000000E+04  0.10000000000E+04  0.00000000000E+00 0.  1.
    9000005    2    1    2  501    0 -0.22275608885E+02 -0.40663481646E+02 -0.71869133594E+03  0.72019381599E+03  0.34892317935E+01 0.  0.
         13    1    3    3    0    0 -0.35659719955E+01 -0.44862050137E+01 -0.79689119437E+02  0.79894918163E+02  0.00000000000E+00 0.  1.
          3    1    3    3  501    0 -0.18709636890E+02 -0.36177276633E+02 -0.63900221650E+03  0.64029889782E+03  0.00000000000E+00 0.  1.
         21    1    1    2  502  501  0.22275608885E+02  0.40663481646E+02 -0.27864184339E+03  0.28247300469E+03  0.00000000000E+00 0.  1.
<mgrwt>
<rscale>  1 0.30000000E+03</rscale>
<asrwt>0</asrwt>
<pdfrwt beam="1">  1        1 0.96975502E-02 0.30000000E+03</pdfrwt>
<pdfrwt beam="2">0</pdfrwt>
<totfact> 0.78849342E+02</totfact>
</mgrwt>
</event>
<event>
 6    1  0.3125838E-002  0.3000000E+03  0.7818608E-02  0.1093470E+00
          1   -1    0    0  502    0  0.00000000000E+00  0.00000000000E+00  0.40616568451E+01  0.40616568451E+01  0.00000000000E+00 0.  1.
         13   -1    0    0    0    0 -0.00000000000E+00 -0.00000000000E+00 -0.10000000000E+04  0.10000000000E+04  0.00000000000E+00 0.  1.
    9000005    2    1    2  501    0 -0.23729401801E+02  0.25374830397E+02 -0.91878000469E+03  0.91944265353E+03  0.33361029475E+01 0.  0.
         13    1    3    3    0    0 -0.21467817134E+02  0.23553996460E+02 -0.81727842702E+03  0.81789955691E+03  0.00000000000E+00 0.  1.
          3    1    3    3  501    0 -0.22615846677E+01  0.18208339372E+01 -0.10150157767E+03  0.10154309662E+03  0.00000000000E+00 0.  1.
         21    1    1    2  502  501  0.23729401801E+02 -0.25374830397E+02 -0.77158338465E+02  0.84619003316E+02  0.00000000000E+00 0.  1.
<mgrwt>
<rscale>  1 0.30000000E+03</rscale>
<asrwt>0</asrwt>
<pdfrwt beam="1">  1        1 0.14769692E-01 0.30000000E+03</pdfrwt>
<pdfrwt beam="2">0</pdfrwt>
<totfact> 0.44301617E+02</totfact>
</mgrwt>
</event>
<event>
 6    1  0.3125838E-002  0.3000000E+03  0.7818608E-02  0.1093470E+00
          1   -1    0    0  502    0  0.00000000000E+00  0.00000000000E+00  0.15151709142E+02  0.15151709142E+02  0.00000000000E+00 0.  1.
         13   -1    0    0    0    0 -0.00000000000E+00 -0.00000000000E+00 -0.10000000000E+04  0.10000000000E+04  0.00000000000E+00 0.  1.
    9000005    2    1    2  501    0  0.13431877053E+02 -0.64903893319E+02 -0.92009662052E+03  0.92249260543E+03  0.46781720366E+01 0.  0.
         13    1    3    3    0    0  0.92186007786E+01 -0.48491664617E+02 -0.65793924630E+03  0.65978820538E+03  0.00000000000E+00 0.  1.
          3    1    3    3  501    0  0.42132762746E+01 -0.16412228703E+02 -0.26215737422E+03  0.26270440005E+03  0.00000000000E+00 0.  1.
         21    1    1    2  502  501 -0.13431877053E+02  0.64903893319E+02 -0.64751670339E+02  0.92659103713E+02  0.00000000000E+00 0.  1.
<mgrwt>
<rscale>  1 0.30000000E+03</rscale>
<asrwt>0</asrwt>
<pdfrwt beam="1">  1        1 0.55097240E-01 0.30000000E+03</pdfrwt>
<pdfrwt beam="2">0</pdfrwt>
<totfact> 0.77642210E+01</totfact>
</mgrwt>
</event>
<event>
 6    1  0.3125838E-002  0.3000000E+03  0.7818608E-02  0.1093470E+00
          3   -1    0    0  502    0  0.00000000000E+00  0.00000000000E+00  0.65237947669E+01  0.65237947669E+01  0.00000000000E+00 0.  1.
         13   -1    0    0    0    0 -0.00000000000E+00 -0.00000000000E+00 -0.10000000000E+04  0.10000000000E+04  0.00000000000E+00 0.  1.
    9000005    2    1    2  501    0 -0.35194254914E+02 -0.18351862522E+02 -0.93498838704E+03  0.93583962883E+03  0.41352818390E+01 0.  0.
         13    1    3    3    0    0 -0.21661605652E+02 -0.90054791249E+01 -0.54639192167E+03  0.54689528785E+03  0.00000000000E+00 0.  1.
          1    1    3    3  501    0 -0.13532649262E+02 -0.93463833972E+01 -0.38859646537E+03  0.38894434098E+03  0.00000000000E+00 0.  1.
         21    1    1    2  502  501  0.35194254914E+02  0.18351862522E+02 -0.58487818195E+02  0.70684165937E+02  0.00000000000E+00 0.  1.
<mgrwt>
<rscale>  1 0.30000000E+03</rscale>
<asrwt>0</asrwt>
<pdfrwt beam="1">  1        3 0.23722940E-01 0.30000000E+03</pdfrwt>
<pdfrwt beam="2">0</pdfrwt>
<totfact> 0.72852981E+01</totfact>
</mgrwt>
</event>
<event>
 6    1  0.3125838E-002  0.3000000E+03  0.7818608E-02  0.1093470E+00
          3   -1    0    0  502    0  0.00000000000E+00  0.00000000000E+00  0.18091467039E+01  0.18091467039E+01  0.00000000000E+00 0.  1.
         13   -1    0    0    0    0 -0.00000000000E+00 -0.00000000000E+00 -0.10000000000E+04  0.10000000000E+04  0.00000000000E+00 0.  1.
    9000005    2    1    2  501    0 -0.15999312280E+02 -0.28847273263E+02 -0.81484833573E+03  0.81552274915E+03  0.33765311109E+01 0.  0.
         13    1    3    3    0    0 -0.12707975330E+02 -0.21331314620E+02 -0.64147548556E+03  0.64195585222E+03  0.00000000000E+00 0.  1.
          1    1    3    3  501    0 -0.32913369503E+01 -0.75159586428E+01 -0.17337285017E+03  0.17356689693E+03  0.00000000000E+00 0.  1.
         21    1    1    2  502  501  0.15999312280E+02  0.28847273263E+02 -0.18334251756E+03  0.18628639756E+03  0.00000000000E+00 0.  1.
<mgrwt>
<rscale>  1 0.30000000E+03</rscale>
<asrwt>0</asrwt>
<pdfrwt beam="1">  1        3 0.65787292E-02 0.30000000E+03</pdfrwt>
<pdfrwt beam="2">0</pdfrwt>
<totfact> 0.64574691E+02</totfact>
</mgrwt>
</event>
<event>
 6    1  0.3125838E-002  0.3000000E+03  0.7818608E-02  0.1093470E+00
          1   -1    0    0  502    0  0.00000000000E+00  0.00000000000E+00  0.10503294057E+01  0.10503294057E+01  0.00000000000E+00 0.  1.
         13   -1    0    0    0    0 -0.00000000000E+00 -0.00000000000E+00 -0.10000000000E+04  0.10000000000E+04  0.00000000000E+00 0.  1.
    9000005    2    1    2  501    0 -0.18211822235E+02 -0.26068295443E+02 -0.40687175373E+03  0.40811906346E+03  0.23063999090E+01 0.  0.
         13    1    3    3    0    0 -0.61920875249E+01 -0.10644545217E+02 -0.15125455081E+03  0.15175502440E+03  0.00000000000E+00 0.  1.
          1    1    3    3  501    0 -0.12019734710E+02 -0.15423750226E+02 -0.25561720292E+03  0.25636403906E+03  0.00000000000E+00 0.  1.
         21    1    1    2  502  501  0.18211822235E+02  0.26068295443E+02 -0.59207791686E+03  0.59293126595E+03  0.00000000000E+00 0.  1.
<mgrwt>
<rscale>  1 0.30000000E+03</rscale>
<asrwt>0</asrwt>
<pdfrwt beam="1">  1        1 0.38193877E-02 0.30000000E+03</pdfrwt>
<pdfrwt beam="2">0</pdfrwt>
<totfact> 0.29059596E+03</totfact>
</mgrwt>
</event>
<event>
 6    1  0.3125838E-002  0.3000000E+03  0.7818608E-02  0.1093470E+00
          1   -1    0    0  502    0  0.00000000000E+00  0.00000000000E+00  0.10589599135E+01  0.10589599135E+01  0.00000000000E+00 0.  1.
         13   -1    0    0    0    0 -0.00000000000E+00 -0.00000000000E+00 -0.10000000000E+04  0.10000000000E+04  0.00000000000E+00 0.  1.
    9000005    2    1    2  501    0 -0.95829428072E+01 -0.28696762929E+02 -0.68118958496E+03  0.68187041965E+03  0.35611165517E+01 0.  0.
         13    1    3    3    0    0 -0.65465972567E+01 -0.18503601907E+02 -0.40319696684E+03  0.40367441743E+03  0.00000000000E+00 0.  1.
          1    1    3    3  501    0 -0.30363455505E+01 -0.10193161021E+02 -0.27799261811E+03  0.27819600222E+03  0.00000000000E+00 0.  1.
         21    1    1    2  502  501  0.95829428072E+01  0.28696762929E+02 -0.31775145513E+03  0.31918854026E+03  0.00000000000E+00 0.  1.
<mgrwt>
<rscale>  1 0.30000000E+03</rscale>
<asrwt>0</asrwt>
<pdfrwt beam="1">  1        1 0.38507714E-02 0.30000000E+03</pdfrwt>
<pdfrwt beam="2">0</pdfrwt>
<totfact> 0.28726766E+03</totfact>
</mgrwt>
</event>
<event>
 6    1  0.3125838E-002  0.3000000E+03  0.7818608E-02  0.1093470E+00
          1   -1    0    0  502    0  0.00000000000E+00  0.00000000000E+00  0.26664727882E+01  0.26664727882E+01  0.00000000000E+00 0.  1.
         13   -1    0    0    0    0 -0.00000000000E+00 -0.00000000000E+00 -0.10000000000E+04  0.10000000000E+04  0.00000000000E+00 0.  1.
    9000005    2    1    2  501    0 -0.16886316868E+02 -0.31815983943E+02 -0.85773349471E+03  0.85849444497E+03  0.29256725993E+01 0.  0.
         13    1    3    3    0    0 -0.20516518125E+00 -0.26407749523E+00 -0.35657043244E+01  0.35813512818E+01  0.00000000000E+00 0.  1.
          3    1    3    3  501    0 -0.16681151686E+02 -0.31551906447E+02 -0.85416779039E+03  0.85491309369E+03  0.00000000000E+00 0.  1.
         21    1    1    2  502  501  0.16886316868E+02  0.31815983943E+02 -0.13960003250E+03  0.14417202782E+03  0.00000000000E+00 0.  1.
<mgrwt>
<rscale>  1 0.30000000E+03</rscale>
<asrwt>0</asrwt>
<pdfrwt beam="1">  1        1 0.96962851E-02 0.30000000E+03</pdfrwt>
<pdfrwt beam="2">0</pdfrwt>
<totfact> 0.78863568E+02</totfact>
</mgrwt>
</event>
<event>
 6    1  0.3125838E-002  0.3000000E+03  0.7818608E-02  0.1093470E+00
          1   -1    0    0  502    0  0.00000000000E+00  0.00000000000E+00  0.19429396525E+01  0.19429396525E+01  0.00000000000E+00 0.  1.
         13   -1    0    0    0    0 -0.00000000000E+00 -0.00000000000E+00 -0.10000000000E+04  0.10000000000E+04  0.00000000000E+00 0.  1.
    9000005    2    1    2  501    0 -0.39639040451E+02  0.17056408652E+02 -0.59849390757E+03  0.60005627943E+03  0.32259085611E+01 0.  0.
         13    1    3    3    0    0 -0.59587810718E+01  0.14174014321E+01 -0.90248150179E+02  0.90455761063E+02  0.00000000000E+00 0.  1.
          1    1    3    3  501    0 -0.33680259379E+02  0.15639007220E+02 -0.50824575739E+03  0.50960051837E+03  0.00000000000E+00 0.  1.
         21    1    1    2  502  501  0.39639040451E+02 -0.17056408652E+02 -0.39956315278E+03  0.40188666022E+03  0.00000000000E+00 0.  1.
<mgrwt>
<rscale>  1 0.30000000E+03</rscale>
<asrwt>0</asrwt>
<pdfrwt beam="1">  1        1 0.70652500E-02 0.30000000E+03</pdfrwt>
<pdfrwt beam="2">0</pdfrwt>
<totfact> 0.12248189E+03</totfact>
</mgrwt>
</event>
<event>
 6    1  0.3125838E-002  0.3000000E+03  0.7818608E-02  0.1093470E+00
          3   -1    0    0  502    0  0.00000000000E+00  0.00000000000E+00  0.12675528522E+01  0.12675528522E+01  0.00000000000E+00 0.  1.
         13   -1    0    0    0    0 -0.00000000000E+00 -0.00000000000E+00 -0.10000000000E+04  0.10000000000E+04  0.00000000000E+00 0.  1.
    9000005    2    1    2  501    0 -0.30047827014E+02 -0.37093424799E+00 -0.76680935834E+03  0.76740578038E+03  0.34684616932E+01 0.  0.
         13    1    3    3    0    0 -0.47434315882E+01 -0.82502842678E+00 -0.15052244313E+03  0.15059942464E+03  0.00000000000E+00 0.  1.
          3    1    3    3  501    0 -0.25304395426E+02  0.45409417879E+00 -0.61628691521E+03  0.61680635574E+03  0.00000000000E+00 0.  1.
         21    1    1    2  502  501  0.30047827014E+02  0.37093424799E+00 -0.23192308881E+03  0.23386177247E+03  0.00000000000E+00 0.  1.
<mgrwt>
<rscale>  1 0.30000000E+03</rscale>
<asrwt>0</asrwt>
<pdfrwt beam="1">  1        3 0.46092928E-02 0.30000000E+03</pdfrwt>
<pdfrwt beam="2">0</pdfrwt>
<totfact> 0.11217647E+03</totfact>
</mgrwt>
</event>
<event>
 6    1  0.3125838E-002  0.3000000E+03  0.7818608E-02  0.1093470E+00
          1   -1    0    0  502    0  0.00000000000E+00  0.00000000000E+00  0.14319653202E+01  0.14319653202E+01  0.00000000000E+00 0.  1.
         13   -1    0    0    0    0 -0.00000000000E+00 -0.00000000000E+00 -0.10000000000E+04  0.10000000000E+04  0.00000000000E+00 0.  1.
    9000005    2    1    2  501    0 -0.28121112043E+02 -0.15568433763E+02 -0.76234360243E+03  0.76303071645E+03  0.38643245220E+01 0.  0.
         13    1    3    3    0    0 -0.54660753781E+01 -0.45334290175E+01 -0.18986107849E+03  0.18999383959E+03  0.00000000000E+00 0.  1.
          1    1    3    3  501    0 -0.22655036664E+02 -0.11035004745E+02 -0.57248252394E+03  0.57303687686E+03  0.00000000000E+00 0.  1.
         21    1    1    2  502  501  0.28121112043E+02  0.15568433763E+02 -0.23622443225E+03  0.23840124887E+03  0.00000000000E+00 0.  1.
<mgrwt>
<rscale>  1 0.30000000E+03</rscale>
<asrwt>0</asrwt>
<pdfrwt beam="1">  1        1 0.52071576E-02 0.30000000E+03</pdfrwt>
<pdfrwt beam="2">0</pdfrwt>
<totfact> 0.18788593E+03</totfact>
</mgrwt>
</event>
<event>
 6    1  0.3125838E-002  0.3000000E+03  0.7818608E-02  0.1093470E+00
          1   -1    0    0  502    0  0.00000000000E+00  0.00000000000E+00  0.55398607275E+01  0.55398607275E+01  0.00000000000E+00 0.  1.
         13   -1    0    0    0    0 -0.00000000000E+00 -0.00000000000E+00 -0.10000000000E+04  0.10000000000E+04  0.00000000000E+00 0.  1.
    9000005    2    1    2  501    0 -0.47245154449E+02 -0.42200173867E+02 -0.23375205872E+03  0.24219868988E+03  0.26872160913E+01 0.  0.
         13    1    3    3    0    0 -0.40474352029E+02 -0.36968433947E+02 -0.20473267514E+03  0.21194411186E+03  0.00000000000E+00 0.  1.
          1    1    3    3  501    0 -0.67708024196E+01 -0.52317399196E+01 -0.29019383575E+02  0.30254578018E+02  0.00000000000E+00 0.  1.
         21    1    1    2  502  501  0.47245154449E+02  0.42200173867E+02 -0.76070808056E+03  0.76334117085E+03  0.00000000000E+00 0.  1.
<mgrwt>
<rscale>  1 0.30000000E+03</rscale>
<asrwt>0</asrwt>
<pdfrwt beam="1">  1        1 0.20144991E-01 0.30000000E+03</pdfrwt>
<pdfrwt beam="2">0</pdfrwt>
<totfact> 0.29158615E+02</totfact>
</mgrwt>
</event>
<event>
 6    1  0.3125838E-002  0.3000000E+03  0.7818608E-02  0.1093470E+00
          1   -1    0    0  502    0  0.00000000000E+00  0.00000000000E+00  0.15336287536E+01  0.15336287536E+01  0.00000000000E+00 0.  1.
         13   -1    0    0    0    0 -0.00000000000E+00 -0.00000000000E+00 -0.10000000000E+04  0.10000000000E+04  0.00000000000E+00 0.  1.
    9000005    2    1    2  501    0  0.32744038752E+02 -0.43447338846E+01 -0.76820206204E+03  0.76891226068E+03  0.77956904674E+00 0.  0.
         13    1    3    3    0    0  0.24802088964E+02 -0.31179162223E+01 -0.58792149023E+03  0.58845266904E+03  0.00000000000E+00 0.  1.
          1    1    3    3  501    0  0.79419497879E+01 -0.12268176623E+01 -0.18028057180E+03  0.18045959165E+03  0.00000000000E+00 0.  1.
         21    1    1    2  502  501 -0.32744038752E+02  0.43447338846E+01 -0.23026430921E+03  0.23262136807E+03  0.00000000000E+00 0.  1.
<mgrwt>
<rscale>  1 0.30000000E+03</rscale>
<asrwt>0</asrwt>
<pdfrwt beam="1">  1        1 0.55768436E-02 0.30000000E+03</pdfrwt>
<pdfrwt beam="2">0</pdfrwt>
<totfact> 0.17063107E+03</totfact>
</mgrwt>
</event>
<event>
 6    1  0.3125838E-002  0.3000000E+03  0.7818608E-02  0.1093470E+00
          1   -1    0    0  502    0  0.00000000000E+00  0.00000000000E+00  0.13142754517E+01  0.13142754517E+01  0.00000000000E+00 0.  1.
         13   -1    0    0    0    0 -0.00000000000E+00 -0.00000000000E+00 -0.10000000000E+04  0.10000000000E+04  0.00000000000E+00 0.  1.
    9000005    2    1    2  501    0 -0.23929861710E+02  0.19371545093E+02 -0.76278948697E+03  0.76341738614E+03  0.32262962790E+01 0.  0.
         13    1    3    3    0    0 -0.17555141982E+02  0.14223845670E+02 -0.52263476842E+03  0.52312293197E+03  0.00000000000E+00 0.  1.
          3    1    3    3  501    0 -0.63747197273E+01  0.51476994225E+01 -0.24015471856E+03  0.24029445417E+03  0.00000000000E+00 0.  1.
         21    1    1    2  502  501  0.23929861710E+02 -0.19371545093E+02 -0.23589623758E+03  0.23789688931E+03  0.00000000000E+00 0.  1.
<mgrwt>
<rscale>  1 0.30000000E+03</rscale>
<asrwt>0</asrwt>
<pdfrwt beam="1">  1        1 0.47791935E-02 0.30000000E+03</pdfrwt>
<pdfrwt beam="2">0</pdfrwt>
<totfact> 0.21195697E+03</totfact>
</mgrwt>
</event>
<event>
 6    1  0.3125838E-002  0.3000000E+03  0.7818608E-02  0.1093470E+00
          3   -1    0    0  502    0  0.00000000000E+00  0.00000000000E+00  0.40677303638E+01  0.40677303638E+01  0.00000000000E+00 0.  1.
         13   -1    0    0    0    0 -0.00000000000E+00 -0.00000000000E+00 -0.10000000000E+04  0.10000000000E+04  0.00000000000E+00 0.  1.
    9000005    2    1    2  501    0  0.17317168054E+02  0.31879878159E+02 -0.91080220910E+03  0.91152942398E+03  0.30026232196E+01 0.  0.
         13    1    3    3    0    0  0.13167152101E+02  0.24507859532E+02 -0.66511499504E+03  0.66569660184E+03  0.00000000000E+00 0.  1.
          1    1    3    3  501    0  0.41500159527E+01  0.73720186272E+01 -0.24568721406E+03  0.24583282214E+03  0.00000000000E+00 0.  1.
         21    1    1    2  502  501 -0.17317168054E+02 -0.31879878159E+02 -0.85130060540E+02  0.92538306384E+02  0.00000000000E+00 0.  1.
<mgrwt>
<rscale>  1 0.30000000E+03</rscale>
<asrwt>0</asrwt>
<pdfrwt beam="1">  1        3 0.14791778E-01 0.30000000E+03</pdfrwt>
<pdfrwt beam="2">0</pdfrwt>
<totfact> 0.17051914E+02</totfact>
</mgrwt>
</event>
<event>
 6    1  0.3125838E-002  0.3000000E+03  0.7818608E-02  0.1093470E+00
          3   -1    0    0  502    0  0.00000000000E+00  0.00000000000E+00  0.11063885397E+01  0.11063885397E+01  0.00000000000E+00 0.  1.
         13   -1    0    0    0    0 -0.00000000000E+00 -0.00000000000E+00 -0.10000000000E+04  0.10000000000E+04  0.00000000000E+00 0.  1.
    9000005    2    1    2  501    0  0.85231560367E+01 -0.31963245837E+02 -0.52908294088E+03  0.53013254695E+03  0.41792020038E+01 0.  0.
         13    1    3    3    0    0  0.76133292974E+01 -0.30407477439E+02 -0.48431225940E+03  0.48532560418E+03  0.00000000000E+00 0.  1.
          3    1    3    3  501    0  0.90982673934E+00 -0.15557683972E+01 -0.44770681479E+02  0.44806942766E+02  0.00000000000E+00 0.  1.
         21    1    1    2  502  501 -0.85231560367E+01  0.31963245837E+02 -0.46981067058E+03  0.47097384159E+03  0.00000000000E+00 0.  1.
<mgrwt>
<rscale>  1 0.30000000E+03</rscale>
<asrwt>0</asrwt>
<pdfrwt beam="1">  1        3 0.40232395E-02 0.30000000E+03</pdfrwt>
<pdfrwt beam="2">0</pdfrwt>
<totfact> 0.13829052E+03</totfact>
</mgrwt>
</event>
<event>
 6    1  0.3125838E-002  0.3000000E+03  0.7818608E-02  0.1093470E+00
          1   -1    0    0  502    0  0.00000000000E+00  0.00000000000E+00  0.27374528343E+01  0.27374528343E+01  0.00000000000E+00 0.  1.
         13   -1    0    0    0    0 -0.00000000000E+00 -0.00000000000E+00 -0.10000000000E+04  0.10000000000E+04  0.00000000000E+00 0.  1.
    9000005    2    1    2  501    0  0.24020186590E+02  0.27984776116E+02 -0.85404591355E+03  0.85484857157E+03  0.33971755801E+01 0.  0.
         13    1    3    3    0    0  0.25559853982E+01  0.21710533633E+01 -0.60565221136E+02  0.60657996549E+02  0.00000000000E+00 0.  1.
          3    1    3    3  501    0  0.21464201192E+02  0.25813722753E+02 -0.79348069241E+03  0.79419057502E+03  0.00000000000E+00 0.  1.
         21    1    1    2  502  501 -0.24020186590E+02 -0.27984776116E+02 -0.14321663362E+03  0.14788888127E+03  0.00000000000E+00 0.  1.
<mgrwt>
<rscale>  1 0.30000000E+03</rscale>
<asrwt>0</asrwt>
<pdfrwt beam="1">  1        1 0.99543949E-02 0.30000000E+03</pdfrwt>
<pdfrwt beam="2">0</pdfrwt>
<totfact> 0.76052068E+02</totfact>
</mgrwt>
</event>
<event>
 6    1  0.3125838E-002  0.3000000E+03  0.7818608E-02  0.1093470E+00
          1   -1    0    0  502    0  0.00000000000E+00  0.00000000000E+00  0.49905941533E+01  0.49905941533E+01  0.00000000000E+00 0.  1.
         13   -1    0    0    0    0 -0.00000000000E+00 -0.00000000000E+00 -0.10000000000E+04  0.10000000000E+04  0.00000000000E+00 0.  1.
    9000005    2    1    2  501    0  0.91740428540E+01  0.35338764480E+02 -0.92764399171E+03  0.92836755350E+03  0.31539970317E+01 0.  0.
         13    1    3    3    0    0  0.26579331596E+01  0.11721473263E+02 -0.27005052674E+03  0.27031785834E+03  0.00000000000E+00 0.  1.
          3    1    3    3  501    0  0.65161096945E+01  0.23617291217E+02 -0.65759346496E+03  0.65804969515E+03  0.00000000000E+00 0.  1.
         21    1    1    2  502  501 -0.91740428540E+01 -0.35338764480E+02 -0.67365414138E+02  0.76623040656E+02  0.00000000000E+00 0.  1.
<mgrwt>
<rscale>  1 0.30000000E+03</rscale>
<asrwt>0</asrwt>
<pdfrwt beam="1">  1        1 0.18147653E-01 0.30000000E+03</pdfrwt>
<pdfrwt beam="2">0</pdfrwt>
<totfact> 0.33538339E+02</totfact>
</mgrwt>
</event>
<event>
 6    1  0.3125838E-002  0.3000000E+03  0.7818608E-02  0.1093470E+00
          1   -1    0    0  502    0  0.00000000000E+00  0.00000000000E+00  0.22535214984E+01  0.22535214984E+01  0.00000000000E+00 0.  1.
         13   -1    0    0    0    0 -0.00000000000E+00 -0.00000000000E+00 -0.10000000000E+04  0.10000000000E+04  0.00000000000E+00 0.  1.
    9000005    2    1    2  501    0 -0.38166014002E+02 -0.23189369959E+02 -0.33981777118E+03  0.34281089668E+03  0.69858264925E+01 0.  0.
         13    1    3    3    0    0 -0.13222288123E+02 -0.71026424726E+01 -0.13969842953E+03  0.14050241153E+03  0.00000000000E+00 0.  1.
          3    1    3    3  501    0 -0.24943725879E+02 -0.16086727486E+02 -0.20011934165E+03  0.20230848516E+03  0.00000000000E+00 0.  1.
         21    1    1    2  502  501  0.38166014002E+02  0.23189369959E+02 -0.65792870732E+03  0.65944262481E+03  0.00000000000E+00 0.  1.
<mgrwt>
<rscale>  1 0.30000000E+03</rscale>
<asrwt>0</asrwt>
<pdfrwt beam="1">  1        1 0.81946409E-02 0.30000000E+03</pdfrwt>
<pdfrwt beam="2">0</pdfrwt>
<totfact> 0.99595757E+02</totfact>
</mgrwt>
</event>
<event>
 6    1  0.3125838E-002  0.3000000E+03  0.7818608E-02  0.1093470E+00
          1   -1    0    0  502    0  0.00000000000E+00  0.00000000000E+00  0.36455331778E+02  0.36455331778E+02  0.00000000000E+00 0.  1.
         13   -1    0    0    0    0 -0.00000000000E+00 -0.00000000000E+00 -0.10000000000E+04  0.10000000000E+04  0.00000000000E+00 0.  1.
    9000005    2    1    2  501    0  0.36132438417E+02  0.20386983227E+02 -0.98761496376E+03  0.98849116475E+03  0.32068612951E+01 0.  0.
         13    1    3    3    0    0  0.26806952832E+02  0.16414417648E+02 -0.72737258412E+03  0.72805145557E+03  0.00000000000E+00 0.  1.
          1    1    3    3  501    0  0.93254855854E+01  0.39725655789E+01 -0.26024237964E+03  0.26043970919E+03  0.00000000000E+00 0.  1.
         21    1    1    2  502  501 -0.36132438417E+02 -0.20386983227E+02  0.24070295538E+02  0.47964167025E+02  0.00000000000E+00 0.  1.
<mgrwt>
<rscale>  1 0.30000000E+03</rscale>
<asrwt>0</asrwt>
<pdfrwt beam="1">  1        1 0.13256512E+00 0.30000000E+03</pdfrwt>
<pdfrwt beam="2">0</pdfrwt>
<totfact> 0.22159158E+01</totfact>
</mgrwt>
</event>
<event>
 6    1  0.3125838E-002  0.3000000E+03  0.7818608E-02  0.1093470E+00
          3   -1    0    0  502    0  0.00000000000E+00  0.00000000000E+00  0.30401232013E+01  0.30401232013E+01  0.00000000000E+00 0.  1.
         13   -1    0    0    0    0 -0.00000000000E+00 -0.00000000000E+00 -0.10000000000E+04  0.10000000000E+04  0.00000000000E+00 0.  1.
    9000005    2    1    2  501    0  0.54094435951E+02  0.10640373498E+01 -0.40472378056E+03  0.40833773220E+03  0.33203629142E+01 0.  0.
         13    1    3    3    0    0  0.20419054601E+02  0.16404225738E+01 -0.16088920900E+03  0.16218805859E+03  0.00000000000E+00 0.  1.
          3    1    3    3  501    0  0.33675381351E+02 -0.57638522405E+00 -0.24383457156E+03  0.24614967361E+03  0.00000000000E+00 0.  1.
         21    1    1    2  502  501 -0.54094435951E+02 -0.10640373498E+01 -0.59223609623E+03  0.59470239100E+03  0.00000000000E+00 0.  1.
<mgrwt>
<rscale>  1 0.30000000E+03</rscale>
<asrwt>0</asrwt>
<pdfrwt beam="1">  1        3 0.11055017E-01 0.30000000E+03</pdfrwt>
<pdfrwt beam="2">0</pdfrwt>
<totfact> 0.27959162E+02</totfact>
</mgrwt>
</event>
<event>
 6    1  0.3125838E-002  0.3000000E+03  0.7818608E-02  0.1093470E+00
          1   -1    0    0  502    0  0.00000000000E+00  0.00000000000E+00  0.20518797608E+01  0.20518797608E+01  0.00000000000E+00 0.  1.
         13   -1    0    0    0    0 -0.00000000000E+00 -0.00000000000E+00 -0.10000000000E+04  0.10000000000E+04  0.00000000000E+00 0.  1.
    9000005    2    1    2  501    0  0.25768151500E+02 -0.17267158959E+02 -0.86388956453E+03  0.86445155720E+03  0.30269836513E+01 0.  0.
         13    1    3    3    0    0  0.79579597084E+01 -0.43762820529E+01 -0.22246200363E+03  0.22264730860E+03  0.00000000000E+00 0.  1.
          1    1    3    3  501    0  0.17810191792E+02 -0.12890876906E+02 -0.64142756090E+03  0.64180424860E+03  0.00000000000E+00 0.  1.
         21    1    1    2  502  501 -0.25768151500E+02  0.17267158959E+02 -0.13405855571E+03  0.13760032256E+03  0.00000000000E+00 0.  1.
<mgrwt>
<rscale>  1 0.30000000E+03</rscale>
<asrwt>0</asrwt>
<pdfrwt beam="1">  1        1 0.74613967E-02 0.30000000E+03</pdfrwt>
<pdfrwt beam="2">0</pdfrwt>
<totfact> 0.11349381E+03</totfact>
</mgrwt>
</event>
<event>
 6    1  0.3125838E-002  0.3000000E+03  0.7818608E-02  0.1093470E+00
          1   -1    0    0  502    0  0.00000000000E+00  0.00000000000E+00  0.37825404325E+01  0.37825404325E+01  0.00000000000E+00 0.  1.
         13   -1    0    0    0    0 -0.00000000000E+00 -0.00000000000E+00 -0.10000000000E+04  0.10000000000E+04  0.00000000000E+00 0.  1.
    9000005    2    1    2  501    0 -0.23755279843E+02  0.33247718891E+02 -0.87312238295E+03  0.87408241700E+03  0.27662179321E+01 0.  0.
         13    1    3    3    0    0 -0.61930258677E+01  0.10639251317E+02 -0.25111505035E+03  0.25141661789E+03  0.00000000000E+00 0.  1.
          1    1    3    3  501    0 -0.17562253976E+02  0.22608467573E+02 -0.62200733260E+03  0.62266579911E+03  0.00000000000E+00 0.  1.
         21    1    1    2  502  501  0.23755279843E+02 -0.33247718891E+02 -0.12309507661E+03  0.12970012343E+03  0.00000000000E+00 0.  1.
<mgrwt>
<rscale>  1 0.30000000E+03</rscale>
<asrwt>0</asrwt>
<pdfrwt beam="1">  1        1 0.13754721E-01 0.30000000E+03</pdfrwt>
<pdfrwt beam="2">0</pdfrwt>
<totfact> 0.48807273E+02</totfact>
</mgrwt>
</event>
<event>
 6    1  0.3125838E-002  0.3000000E+03  0.7818608E-02  0.1093470E+00
          1   -1    0    0  502    0  0.00000000000E+00  0.00000000000E+00  0.10845897080E+01  0.10845897080E+01  0.00000000000E+00 0.  1.
         13   -1    0    0    0    0 -0.00000000000E+00 -0.00000000000E+00 -0.10000000000E+04  0.10000000000E+04  0.00000000000E+00 0.  1.
    9000005    2    1    2  501    0  0.45212242826E+00  0.32430959130E+02 -0.46759114167E+03  0.46877128914E+03  0.72852067808E+01 0.  0.
         13    1    3    3    0    0 -0.25570266017E+00  0.22485865714E+02 -0.27285247274E+03  0.27377755828E+03  0.00000000000E+00 0.  1.
          3    1    3    3  501    0  0.70782508843E+00  0.99450934166E+01 -0.19473866893E+03  0.19499373086E+03  0.00000000000E+00 0.  1.
         21    1    1    2  502  501 -0.45212242826E+00 -0.32430959130E+02 -0.53132426863E+03  0.53231330056E+03  0.00000000000E+00 0.  1.
<mgrwt>
<rscale>  1 0.30000000E+03</rscale>
<asrwt>0</asrwt>
<pdfrwt beam="1">  1        1 0.39439709E-02 0.30000000E+03</pdfrwt>
<pdfrwt beam="2">0</pdfrwt>
<totfact> 0.27775724E+03</totfact>
</mgrwt>
</event>
<event>
 6    1  0.3125838E-002  0.3000000E+03  0.7818608E-02  0.1093470E+00
          3   -1    0    0  502    0  0.00000000000E+00  0.00000000000E+00  0.44804050661E+01  0.44804050661E+01  0.00000000000E+00 0.  1.
         13   -1    0    0    0    0 -0.00000000000E+00 -0.00000000000E+00 -0.10000000000E+04  0.10000000000E+04  0.00000000000E+00 0.  1.
    9000005    2    1    2  501    0 -0.33875869271E+02 -0.12643394283E+01 -0.93077668638E+03  0.93139950961E+03  0.32609070806E+01 0.  0.
         13    1    3    3    0    0 -0.36259986573E+01 -0.70720693940E+00 -0.12660728634E+03  0.12666117386E+03  0.00000000000E+00 0.  1.
          1    1    3    3  501    0 -0.30249870613E+02 -0.55713248892E+00 -0.80416940004E+03  0.80473833575E+03  0.00000000000E+00 0.  1.
         21    1    1    2  502  501  0.33875869271E+02  0.12643394283E+01 -0.64742908553E+02  0.73080895458E+02  0.00000000000E+00 0.  1.
<mgrwt>
<rscale>  1 0.30000000E+03</rscale>
<asrwt>0</asrwt>
<pdfrwt beam="1">  1        3 0.16292416E-01 0.30000000E+03</pdfrwt>
<pdfrwt beam="2">0</pdfrwt>
<totfact> 0.14410089E+02</totfact>
</mgrwt>
</event>
<event>
 6    1  0.3125838E-002  0.3000000E+03  0.7818608E-02  0.1093470E+00
          1   -1    0    0  502    0  0.00000000000E+00  0.00000000000E+00  0.16042323264E+01  0.16042323264E+01  0.00000000000E+00 0.  1.
         13   -1    0    0    0    0 -0.00000000000E+00 -0.00000000000E+00 -0.10000000000E+04  0.10000000000E+04  0.00000000000E+00 0.  1.
    9000005    2    1    2  501    0 -0.31086510801E+02 -0.18968454312E+02 -0.70627929431E+03  0.70722657111E+03  0.35788127166E+01 0.  0.
         13    1    3    3    0    0 -0.29799067935E+02 -0.18929926283E+02 -0.68222507699E+03  0.68313789401E+03  0.00000000000E+00 0.  1.
          3    1    3    3  501    0 -0.12874428654E+01 -0.38528028663E-01 -0.24054217325E+02  0.24088677105E+02  0.00000000000E+00 0.  1.
         21    1    1    2  502  501  0.31086510801E+02  0.18968454312E+02 -0.29211647336E+03  0.29437766121E+03  0.00000000000E+00 0.  1.
<mgrwt>
<rscale>  1 0.30000000E+03</rscale>
<asrwt>0</asrwt>
<pdfrwt beam="1">  1        1 0.58335844E-02 0.30000000E+03</pdfrwt>
<pdfrwt beam="2">0</pdfrwt>
<totfact> 0.16018363E+03</totfact>
</mgrwt>
</event>
<event>
 6    1  0.3125838E-002  0.3000000E+03  0.7818608E-02  0.1093470E+00
          1   -1    0    0  502    0  0.00000000000E+00  0.00000000000E+00  0.11435257433E+01  0.11435257433E+01  0.00000000000E+00 0.  1.
         13   -1    0    0    0    0 -0.00000000000E+00 -0.00000000000E+00 -0.10000000000E+04  0.10000000000E+04  0.00000000000E+00 0.  1.
    9000005    2    1    2  501    0  0.17300870694E+02  0.28355240093E+02 -0.58632080727E+03  0.58727275327E+03  0.37226245886E+01 0.  0.
         13    1    3    3    0    0  0.39139371380E+01  0.52225626966E+01 -0.93249429542E+02  0.93477538344E+02  0.00000000000E+00 0.  1.
          1    1    3    3  501    0  0.13386933556E+02  0.23132677396E+02 -0.49307137773E+03  0.49379521493E+03  0.00000000000E+00 0.  1.
         21    1    1    2  502  501 -0.17300870694E+02 -0.28355240093E+02 -0.41253566699E+03  0.41387077247E+03  0.00000000000E+00 0.  1.
<mgrwt>
<rscale>  1 0.30000000E+03</rscale>
<asrwt>0</asrwt>
<pdfrwt beam="1">  1        1 0.41582842E-02 0.30000000E+03</pdfrwt>
<pdfrwt beam="2">0</pdfrwt>
<totfact> 0.25781584E+03</totfact>
</mgrwt>
</event>
<event>
 6    1  0.3125838E-002  0.3000000E+03  0.7818608E-02  0.1093470E+00
          3   -1    0    0  502    0  0.00000000000E+00  0.00000000000E+00  0.20159194912E+01  0.20159194912E+01  0.00000000000E+00 0.  1.
         13   -1    0    0    0    0 -0.00000000000E+00 -0.00000000000E+00 -0.10000000000E+04  0.10000000000E+04  0.00000000000E+00 0.  1.
    9000005    2    1    2  501    0  0.26009606572E+02  0.15062614857E+02 -0.87091749773E+03  0.87144295728E+03  0.34868249419E+01 0.  0.
         13    1    3    3    0    0  0.47153816281E+01  0.12958490908E+01 -0.13241224644E+03  0.13250251717E+03  0.00000000000E+00 0.  1.
          3    1    3    3  501    0  0.21294224944E+02  0.13766765767E+02 -0.73850525129E+03  0.73894044011E+03  0.00000000000E+00 0.  1.
         21    1    1    2  502  501 -0.26009606572E+02 -0.15062614857E+02 -0.12706658278E+03  0.13057296221E+03  0.00000000000E+00 0.  1.
<mgrwt>
<rscale>  1 0.30000000E+03</rscale>
<asrwt>0</asrwt>
<pdfrwt beam="1">  1        3 0.73306318E-02 0.30000000E+03</pdfrwt>
<pdfrwt beam="2">0</pdfrwt>
<totfact> 0.54456500E+02</totfact>
</mgrwt>
</event>
<event>
 6    1  0.3125838E-002  0.3000000E+03  0.7818608E-02  0.1093470E+00
          1   -1    0    0  502    0  0.00000000000E+00  0.00000000000E+00  0.75034316112E+01  0.75034316112E+01  0.00000000000E+00 0.  1.
         13   -1    0    0    0    0 -0.00000000000E+00 -0.00000000000E+00 -0.10000000000E+04  0.10000000000E+04  0.00000000000E+00 0.  1.
    9000005    2    1    2  501    0 -0.32033291243E+02  0.10143126312E+02 -0.96053225950E+03  0.96112744858E+03  0.38387652345E+01 0.  0.
         13    1    3    3    0    0 -0.22551939567E+02  0.86750751305E+01 -0.71304950424E+03  0.71345878816E+03  0.00000000000E+00 0.  1.
          3    1    3    3  501    0 -0.94813516757E+01  0.14680511810E+01 -0.24748275526E+03  0.24766866043E+03  0.00000000000E+00 0.  1.
         21    1    1    2  502  501  0.32033291243E+02 -0.10143126312E+02 -0.31964308889E+02  0.46375983030E+02  0.00000000000E+00 0.  1.
<mgrwt>
<rscale>  1 0.30000000E+03</rscale>
<asrwt>0</asrwt>
<pdfrwt beam="1">  1        1 0.27285263E-01 0.30000000E+03</pdfrwt>
<pdfrwt beam="2">0</pdfrwt>
<totfact> 0.19507083E+02</totfact>
</mgrwt>
</event>
<event>
 6    1  0.3125838E-002  0.3000000E+03  0.7818608E-02  0.1093470E+00
          1   -1    0    0  502    0  0.00000000000E+00  0.00000000000E+00  0.13915711108E+01  0.13915711108E+01  0.00000000000E+00 0.  1.
         13   -1    0    0    0    0 -0.00000000000E+00 -0.00000000000E+00 -0.10000000000E+04  0.10000000000E+04  0.00000000000E+00 0.  1.
    9000005    2    1    2  501    0 -0.13902839428E+02 -0.33873624686E+02 -0.44816213930E+03  0.44972878542E+03  0.81219418844E+01 0.  0.
         13    1    3    3    0    0  0.51348006451E+00 -0.45051504462E+00 -0.23372414358E+02  0.23382394628E+02  0.00000000000E+00 0.  1.
          1    1    3    3  501    0 -0.14416319492E+02 -0.33423109642E+02 -0.42478972494E+03  0.42634639079E+03  0.00000000000E+00 0.  1.
         21    1    1    2  502  501  0.13902839428E+02  0.33873624686E+02 -0.55044628959E+03  0.55166278569E+03  0.00000000000E+00 0.  1.
<mgrwt>
<rscale>  1 0.30000000E+03</rscale>
<asrwt>0</asrwt>
<pdfrwt beam="1">  1        1 0.50602693E-02 0.30000000E+03</pdfrwt>
<pdfrwt beam="2">0</pdfrwt>
<totfact> 0.19559433E+03</totfact>
</mgrwt>
</event>
<event>
 6    1  0.3125838E-002  0.3000000E+03  0.7818608E-02  0.1093470E+00
          1   -1    0    0  502    0  0.00000000000E+00  0.00000000000E+00  0.11807791999E+01  0.11807791999E+01  0.00000000000E+00 0.  1.
         13   -1    0    0    0    0 -0.00000000000E+00 -0.00000000000E+00 -0.10000000000E+04  0.10000000000E+04  0.00000000000E+00 0.  1.
    9000005    2    1    2  501    0 -0.17219880759E+02 -0.26922611620E+02 -0.68139532712E+03  0.68215212909E+03  0.32533207254E+01 0.  0.
         13    1    3    3    0    0 -0.12069673343E+01 -0.38088705291E+01 -0.90427209680E+02  0.90515437995E+02  0.00000000000E+00 0.  1.
          1    1    3    3  501    0 -0.16012913425E+02 -0.23113741091E+02 -0.59096811744E+03  0.59163669109E+03  0.00000000000E+00 0.  1.
         21    1    1    2  502  501  0.17219880759E+02  0.26922611620E+02 -0.31742389368E+03  0.31902865011E+03  0.00000000000E+00 0.  1.
<mgrwt>
<rscale>  1 0.30000000E+03</rscale>
<asrwt>0</asrwt>
<pdfrwt beam="1">  1        1 0.42937516E-02 0.30000000E+03</pdfrwt>
<pdfrwt beam="2">0</pdfrwt>
<totfact> 0.24643776E+03</totfact>
</mgrwt>
</event>
<event>
 6    1  0.3125838E-002  0.3000000E+03  0.7818608E-02  0.1093470E+00
          3   -1    0    0  502    0  0.00000000000E+00  0.00000000000E+00  0.18753992992E+01  0.18753992992E+01  0.00000000000E+00 0.  1.
         13   -1    0    0    0    0 -0.00000000000E+00 -0.00000000000E+00 -0.10000000000E+04  0.10000000000E+04  0.00000000000E+00 0.  1.
    9000005    2    1    2  501    0 -0.15073346217E+02 -0.37452162006E+02 -0.67887869507E+03  0.68008693079E+03  0.34757161659E+01 0.  0.
         13    1    3    3    0    0 -0.17159886522E+01 -0.59018278164E+01 -0.12288606727E+03  0.12303967538E+03  0.00000000000E+00 0.  1.
          1    1    3    3  501    0 -0.13357357565E+02 -0.31550334189E+02 -0.55599262781E+03  0.55704725542E+03  0.00000000000E+00 0.  1.
         21    1    1    2  502  501  0.15073346217E+02  0.37452162006E+02 -0.31924590563E+03  0.32178846851E+03  0.00000000000E+00 0.  1.
<mgrwt>
<rscale>  1 0.30000000E+03</rscale>
<asrwt>0</asrwt>
<pdfrwt beam="1">  1        3 0.68196482E-02 0.30000000E+03</pdfrwt>
<pdfrwt beam="2">0</pdfrwt>
<totfact> 0.61030734E+02</totfact>
</mgrwt>
</event>
<event>
 6    1  0.3125838E-002  0.3000000E+03  0.7818608E-02  0.1093470E+00
          1   -1    0    0  502    0  0.00000000000E+00  0.00000000000E+00  0.32606236417E+01  0.32606236417E+01  0.00000000000E+00 0.  1.
         13   -1    0    0    0    0 -0.00000000000E+00 -0.00000000000E+00 -0.10000000000E+04  0.10000000000E+04  0.00000000000E+00 0.  1.
    9000005    2    1    2  501    0  0.60013500329E+01 -0.51529337509E+02 -0.70668553813E+03  0.70860401351E+03  0.48897164144E+01 0.  0.
         13    1    3    3    0    0  0.20890194202E+01 -0.29061765814E+02 -0.36816056990E+03  0.36931173209E+03  0.00000000000E+00 0.  1.
          3    1    3    3  501    0  0.39123306127E+01 -0.22467571695E+02 -0.33852496823E+03  0.33929228141E+03  0.00000000000E+00 0.  1.
         21    1    1    2  502  501 -0.60013500329E+01  0.51529337509E+02 -0.29005383822E+03  0.29465661013E+03  0.00000000000E+00 0.  1.
<mgrwt>
<rscale>  1 0.30000000E+03</rscale>
<asrwt>0</asrwt>
<pdfrwt beam="1">  1        1 0.11856838E-01 0.30000000E+03</pdfrwt>
<pdfrwt beam="2">0</pdfrwt>
<totfact> 0.59793046E+02</totfact>
</mgrwt>
</event>
<event>
 6    1  0.3125838E-002  0.3000000E+03  0.7818608E-02  0.1093470E+00
          3   -1    0    0  502    0  0.00000000000E+00  0.00000000000E+00  0.12988021801E+02  0.12988021801E+02  0.00000000000E+00 0.  1.
         13   -1    0    0    0    0 -0.00000000000E+00 -0.00000000000E+00 -0.10000000000E+04  0.10000000000E+04  0.00000000000E+00 0.  1.
    9000005    2    1    2  501    0 -0.19859887650E+01 -0.44419940160E+02 -0.95984890493E+03  0.96088324481E+03  0.31007488099E+01 0.  0.
         13    1    3    3    0    0  0.71403300464E+00 -0.82925246381E+01 -0.19108076395E+03  0.19126195168E+03  0.00000000000E+00 0.  1.
          3    1    3    3  501    0 -0.27000217697E+01 -0.36127415522E+02 -0.76876814097E+03  0.76962129313E+03  0.00000000000E+00 0.  1.
         21    1    1    2  502  501  0.19859887650E+01  0.44419940160E+02 -0.27163073273E+02  0.52104776986E+02  0.00000000000E+00 0.  1.
<mgrwt>
<rscale>  1 0.30000000E+03</rscale>
<asrwt>0</asrwt>
<pdfrwt beam="1">  1        3 0.47229270E-01 0.30000000E+03</pdfrwt>
<pdfrwt beam="2">0</pdfrwt>
<totfact> 0.19507123E+01</totfact>
</mgrwt>
</event>
<event>
 6    1  0.3125838E-002  0.3000000E+03  0.7818608E-02  0.1093470E+00
          3   -1    0    0  502    0  0.00000000000E+00  0.00000000000E+00  0.28631208004E+01  0.28631208004E+01  0.00000000000E+00 0.  1.
         13   -1    0    0    0    0 -0.00000000000E+00 -0.00000000000E+00 -0.10000000000E+04  0.10000000000E+04  0.00000000000E+00 0.  1.
    9000005    2    1    2  501    0  0.29538990469E+02  0.40552017344E+02 -0.32560734389E+03  0.32946209997E+03  0.28486575639E+01 0.  0.
         13    1    3    3    0    0  0.71669442111E+01  0.11783053294E+02 -0.93058066269E+02  0.94074487147E+02  0.00000000000E+00 0.  1.
          1    1    3    3  501    0  0.22372046258E+02  0.28768964050E+02 -0.23254927763E+03  0.23538761282E+03  0.00000000000E+00 0.  1.
         21    1    1    2  502  501 -0.29538990469E+02 -0.40552017344E+02 -0.67152953531E+03  0.67340102083E+03  0.00000000000E+00 0.  1.
<mgrwt>
<rscale>  1 0.30000000E+03</rscale>
<asrwt>0</asrwt>
<pdfrwt beam="1">  1        3 0.10411370E-01 0.30000000E+03</pdfrwt>
<pdfrwt beam="2">0</pdfrwt>
<totfact> 0.30895655E+02</totfact>
</mgrwt>
</event>
<event>
 6    1  0.3125838E-002  0.3000000E+03  0.7818608E-02  0.1093470E+00
          3   -1    0    0  502    0  0.00000000000E+00  0.00000000000E+00  0.45310928466E+01  0.45310928466E+01  0.00000000000E+00 0.  1.
         13   -1    0    0    0    0 -0.00000000000E+00 -0.00000000000E+00 -0.10000000000E+04  0.10000000000E+04  0.00000000000E+00 0.  1.
    9000005    2    1    2  501    0 -0.35427537081E+02  0.16849782082E+01 -0.92449579145E+03  0.92518922062E+03  0.49674957669E+01 0.  0.
         13    1    3    3    0    0 -0.12580556985E+02  0.42825893060E+00 -0.26936632539E+03  0.26966028828E+03  0.00000000000E+00 0.  1.
          3    1    3    3  501    0 -0.22846980095E+02  0.12567192776E+01 -0.65512946606E+03  0.65552893235E+03  0.00000000000E+00 0.  1.
         21    1    1    2  502  501  0.35427537081E+02 -0.16849782082E+01 -0.70973115702E+02  0.79341872222E+02  0.00000000000E+00 0.  1.
<mgrwt>
<rscale>  1 0.30000000E+03</rscale>
<asrwt>0</asrwt>
<pdfrwt beam="1">  1        3 0.16476736E-01 0.30000000E+03</pdfrwt>
<pdfrwt beam="2">0</pdfrwt>
<totfact> 0.14128178E+02</totfact>
</mgrwt>
</event>
<event>
 6    1  0.3125838E-002  0.3000000E+03  0.7818608E-02  0.1093470E+00
          1   -1    0    0  502    0  0.00000000000E+00  0.00000000000E+00  0.16169622000E+01  0.16169622000E+01  0.00000000000E+00 0.  1.
         13   -1    0    0    0    0 -0.00000000000E+00 -0.00000000000E+00 -0.10000000000E+04  0.10000000000E+04  0.00000000000E+00 0.  1.
    9000005    2    1    2  501    0  0.29808257316E+02  0.26842746522E+02 -0.52676289176E+03  0.52829399910E+03  0.25179568295E+01 0.  0.
         13    1    3    3    0    0  0.24166281460E+02  0.23021033846E+02 -0.43583546113E+03  0.43711157196E+03  0.00000000000E+00 0.  1.
          1    1    3    3  501    0  0.56419758563E+01  0.38217126761E+01 -0.90927430626E+02  0.91182427142E+02  0.00000000000E+00 0.  1.
         21    1    1    2  502  501 -0.29808257316E+02 -0.26842746522E+02 -0.47162014604E+03  0.47332296310E+03  0.00000000000E+00 0.  1.
<mgrwt>
<rscale>  1 0.30000000E+03</rscale>
<asrwt>0</asrwt>
<pdfrwt beam="1">  1        1 0.58798749E-02 0.30000000E+03</pdfrwt>
<pdfrwt beam="2">0</pdfrwt>
<totfact> 0.15841660E+03</totfact>
</mgrwt>
</event>
<event>
 6    1  0.3125838E-002  0.3000000E+03  0.7818608E-02  0.1093470E+00
          1   -1    0    0  502    0  0.00000000000E+00  0.00000000000E+00  0.12329090777E+02  0.12329090777E+02  0.00000000000E+00 0.  1.
         13   -1    0    0    0    0 -0.00000000000E+00 -0.00000000000E+00 -0.10000000000E+04  0.10000000000E+04  0.00000000000E+00 0.  1.
    9000005    2    1    2  501    0  0.97959547290E+02  0.52102701550E+02 -0.49649456427E+03  0.50877674369E+03  0.60131654171E+01 0.  0.
         13    1    3    3    0    0  0.29987129131E+02  0.13437387977E+02 -0.13960371424E+03  0.14341892602E+03  0.00000000000E+00 0.  1.
          1    1    3    3  501    0  0.67972418159E+02  0.38665313573E+02 -0.35689085003E+03  0.36535781768E+03  0.00000000000E+00 0.  1.
         21    1    1    2  502  501 -0.97959547290E+02 -0.52102701550E+02 -0.49117634495E+03  0.50355234709E+03  0.00000000000E+00 0.  1.
<mgrwt>
<rscale>  1 0.30000000E+03</rscale>
<asrwt>0</asrwt>
<pdfrwt beam="1">  1        1 0.44833152E-01 0.30000000E+03</pdfrwt>
<pdfrwt beam="2">0</pdfrwt>
<totfact> 0.10181392E+02</totfact>
</mgrwt>
</event>
<event>
 6    1  0.3125838E-002  0.3000000E+03  0.7818608E-02  0.1093470E+00
          1   -1    0    0  502    0  0.00000000000E+00  0.00000000000E+00  0.82151193630E+01  0.82151193630E+01  0.00000000000E+00 0.  1.
         13   -1    0    0    0    0 -0.00000000000E+00 -0.00000000000E+00 -0.10000000000E+04  0.10000000000E+04  0.00000000000E+00 0.  1.
    9000005    2    1    2  501    0 -0.60611423707E+02  0.47406374483E+02 -0.23064061022E+03  0.24319112666E+03  0.50718810485E+01 0.  0.
         13    1    3    3    0    0 -0.33958932867E+01  0.22128574296E+01 -0.91252493109E+01  0.99849388683E+01  0.00000000000E+00 0.  1.
          3    1    3    3  501    0 -0.57215530420E+02  0.45193517053E+02 -0.22151536091E+03  0.23320618779E+03  0.00000000000E+00 0.  1.
         21    1    1    2  502  501  0.60611423707E+02 -0.47406374483E+02 -0.76114427041E+03  0.76502399270E+03  0.00000000000E+00 0.  1.
<mgrwt>
<rscale>  1 0.30000000E+03</rscale>
<asrwt>0</asrwt>
<pdfrwt beam="1">  1        1 0.29873224E-01 0.30000000E+03</pdfrwt>
<pdfrwt beam="2">0</pdfrwt>
<totfact> 0.17317537E+02</totfact>
</mgrwt>
</event>
<event>
 6    1  0.3125838E-002  0.3000000E+03  0.7818608E-02  0.1093470E+00
          3   -1    0    0  502    0  0.00000000000E+00  0.00000000000E+00  0.36520675205E+01  0.36520675205E+01  0.00000000000E+00 0.  1.
         13   -1    0    0    0    0 -0.00000000000E+00 -0.00000000000E+00 -0.10000000000E+04  0.10000000000E+04  0.00000000000E+00 0.  1.
    9000005    2    1    2  501    0 -0.98103351970E+01 -0.54734732211E+02 -0.69401023941E+03  0.69624319609E+03  0.34988714053E+01 0.  0.
         13    1    3    3    0    0 -0.85395419632E+01 -0.39947617015E+02 -0.49966584060E+03  0.50133291149E+03  0.00000000000E+00 0.  1.
          3    1    3    3  501    0 -0.12707932338E+01 -0.14787115196E+02 -0.19434439882E+03  0.19491028460E+03  0.00000000000E+00 0.  1.
         21    1    1    2  502  501  0.98103351970E+01  0.54734732211E+02 -0.30233769306E+03  0.30740887143E+03  0.00000000000E+00 0.  1.
<mgrwt>
<rscale>  1 0.30000000E+03</rscale>
<asrwt>0</asrwt>
<pdfrwt beam="1">  1        3 0.13280274E-01 0.30000000E+03</pdfrwt>
<pdfrwt beam="2">0</pdfrwt>
<totfact> 0.20516494E+02</totfact>
</mgrwt>
</event>
<event>
 6    1  0.3125838E-002  0.3000000E+03  0.7818608E-02  0.1093470E+00
          1   -1    0    0  502    0  0.00000000000E+00  0.00000000000E+00  0.22122149315E+01  0.22122149315E+01  0.00000000000E+00 0.  1.
         13   -1    0    0    0    0 -0.00000000000E+00 -0.00000000000E+00 -0.10000000000E+04  0.10000000000E+04  0.00000000000E+00 0.  1.
    9000005    2    1    2  501    0 -0.21183027818E+02 -0.39406709076E+02 -0.65200042295E+03  0.65354258736E+03  0.34282039884E+01 0.  0.
         13    1    3    3    0    0 -0.13332114655E+02 -0.25221032971E+02 -0.39138077646E+03  0.39241911010E+03  0.00000000000E+00 0.  1.
          1    1    3    3  501    0 -0.78509131627E+01 -0.14185676106E+02 -0.26061964648E+03  0.26112347726E+03  0.00000000000E+00 0.  1.
         21    1    1    2  502  501  0.21183027818E+02  0.39406709076E+02 -0.34578736212E+03  0.34866962757E+03  0.00000000000E+00 0.  1.
<mgrwt>
<rscale>  1 0.30000000E+03</rscale>
<asrwt>0</asrwt>
<pdfrwt beam="1">  1        1 0.80444349E-02 0.30000000E+03</pdfrwt>
<pdfrwt beam="2">0</pdfrwt>
<totfact> 0.10219306E+03</totfact>
</mgrwt>
</event>
<event>
 6    1  0.3125838E-002  0.3000000E+03  0.7818608E-02  0.1093470E+00
          1   -1    0    0  502    0  0.00000000000E+00  0.00000000000E+00  0.63239022916E+01  0.63239022916E+01  0.00000000000E+00 0.  1.
         13   -1    0    0    0    0 -0.00000000000E+00 -0.00000000000E+00 -0.10000000000E+04  0.10000000000E+04  0.00000000000E+00 0.  1.
    9000005    2    1    2  501    0  0.35979891559E+02 -0.54992361884E+01 -0.94417288274E+03  0.94487992384E+03  0.32929905308E+01 0.  0.
         13    1    3    3    0    0  0.35659794017E+00  0.38399485544E-02 -0.38693077112E+01  0.38857070142E+01  0.00000000000E+00 0.  1.
          1    1    3    3  501    0  0.35623293619E+02 -0.55030761369E+01 -0.94030357503E+03  0.94099421683E+03  0.00000000000E+00 0.  1.
         21    1    1    2  502  501 -0.35979891559E+02  0.54992361884E+01 -0.49503214969E+02  0.61443978448E+02  0.00000000000E+00 0.  1.
<mgrwt>
<rscale>  1 0.30000000E+03</rscale>
<asrwt>0</asrwt>
<pdfrwt beam="1">  1        1 0.22996057E-01 0.30000000E+03</pdfrwt>
<pdfrwt beam="2">0</pdfrwt>
<totfact> 0.24451816E+02</totfact>
</mgrwt>
</event>
<event>
 6    1  0.3125838E-002  0.3000000E+03  0.7818608E-02  0.1093470E+00
          3   -1    0    0  502    0  0.00000000000E+00  0.00000000000E+00  0.10519817651E+01  0.10519817651E+01  0.00000000000E+00 0.  1.
         13   -1    0    0    0    0 -0.00000000000E+00 -0.00000000000E+00 -0.10000000000E+04  0.10000000000E+04  0.00000000000E+00 0.  1.
    9000005    2    1    2  501    0  0.82267538715E+01 -0.31228756859E+02 -0.48098592779E+03  0.48208411969E+03  0.38367937002E+01 0.  0.
         13    1    3    3    0    0  0.79981584194E+01 -0.29226877082E+02 -0.46168335402E+03  0.46267666924E+03  0.00000000000E+00 0.  1.
          1    1    3    3  501    0  0.22859545216E+00 -0.20018797775E+01 -0.19302573771E+02  0.19407450444E+02  0.00000000000E+00 0.  1.
         21    1    1    2  502  501 -0.82267538715E+01  0.31228756859E+02 -0.51796209044E+03  0.51896786208E+03  0.00000000000E+00 0.  1.
<mgrwt>
<rscale>  1 0.30000000E+03</rscale>
<asrwt>0</asrwt>
<pdfrwt beam="1">  1        3 0.38253963E-02 0.30000000E+03</pdfrwt>
<pdfrwt beam="2">0</pdfrwt>
<totfact> 0.14943206E+03</totfact>
</mgrwt>
</event>
<event>
 6    1  0.3125838E-002  0.3000000E+03  0.7818608E-02  0.1093470E+00
          1   -1    0    0  502    0  0.00000000000E+00  0.00000000000E+00  0.65420206474E+01  0.65420206474E+01  0.00000000000E+00 0.  1.
         13   -1    0    0    0    0 -0.00000000000E+00 -0.00000000000E+00 -0.10000000000E+04  0.10000000000E+04  0.00000000000E+00 0.  1.
    9000005    2    1    2  501    0  0.14086187501E+02 -0.66440609633E+02 -0.76972980927E+03  0.77273212056E+03  0.42632841667E+01 0.  0.
         13    1    3    3    0    0  0.36282872006E+01 -0.10728350775E+02 -0.13841890555E+03  0.13888144366E+03  0.00000000000E+00 0.  1.
          1    1    3    3  501    0  0.10457900301E+02 -0.55712258858E+02 -0.63131090371E+03  0.63385067691E+03  0.00000000000E+00 0.  1.
         21    1    1    2  502  501 -0.14086187501E+02  0.66440609633E+02 -0.22372817009E+03  0.23380990008E+03  0.00000000000E+00 0.  1.
<mgrwt>
<rscale>  1 0.30000000E+03</rscale>
<asrwt>0</asrwt>
<pdfrwt beam="1">  1        1 0.23789216E-01 0.30000000E+03</pdfrwt>
<pdfrwt beam="2">0</pdfrwt>
<totfact> 0.23378583E+02</totfact>
</mgrwt>
</event>
<event>
 6    1  0.3125838E-002  0.3000000E+03  0.7818608E-02  0.1093470E+00
          1   -1    0    0  502    0  0.00000000000E+00  0.00000000000E+00  0.18896518907E+01  0.18896518907E+01  0.00000000000E+00 0.  1.
         13   -1    0    0    0    0 -0.00000000000E+00 -0.00000000000E+00 -0.10000000000E+04  0.10000000000E+04  0.00000000000E+00 0.  1.
    9000005    2    1    2  501    0  0.14297071642E+02  0.27509612810E+02 -0.84989446767E+03  0.85046596725E+03  0.32511885857E+01 0.  0.
         13    1    3    3    0    0  0.59177134954E+00  0.31947578318E+01 -0.96241763830E+02  0.96296592754E+02  0.00000000000E+00 0.  1.
          3    1    3    3  501    0  0.13705300292E+02  0.24314854978E+02 -0.75365270384E+03  0.75416937450E+03  0.00000000000E+00 0.  1.
         21    1    1    2  502  501 -0.14297071642E+02 -0.27509612810E+02 -0.14821588044E+03  0.15142368464E+03  0.00000000000E+00 0.  1.
<mgrwt>
<rscale>  1 0.30000000E+03</rscale>
<asrwt>0</asrwt>
<pdfrwt beam="1">  1        1 0.68714759E-02 0.30000000E+03</pdfrwt>
<pdfrwt beam="2">0</pdfrwt>
<totfact> 0.12733914E+03</totfact>
</mgrwt>
</event>
<event>
 6    1  0.3125838E-002  0.3000000E+03  0.7818608E-02  0.1093470E+00
          1   -1    0    0  502    0  0.00000000000E+00  0.00000000000E+00  0.47703313642E+01  0.47703313642E+01  0.00000000000E+00 0.  1.
         13   -1    0    0    0    0 -0.00000000000E+00 -0.00000000000E+00 -0.10000000000E+04  0.10000000000E+04  0.00000000000E+00 0.  1.
    9000005    2    1    2  501    0 -0.49228610243E+02  0.25656914766E+02 -0.79600598569E+03  0.79795686665E+03  0.52818967579E+01 0.  0.
         13    1    3    3    0    0 -0.47334949993E+02  0.23900819374E+02 -0.76969473614E+03  0.77151917248E+03  0.00000000000E+00 0.  1.
          1    1    3    3  501    0 -0.18936602505E+01  0.17560953917E+01 -0.26311249546E+02  0.26437694167E+02  0.00000000000E+00 0.  1.
         21    1    1    2  502  501  0.49228610243E+02 -0.25656914766E+02 -0.19922368295E+03  0.20681346472E+03  0.00000000000E+00 0.  1.
<mgrwt>
<rscale>  1 0.30000000E+03</rscale>
<asrwt>0</asrwt>
<pdfrwt beam="1">  1        1 0.17346696E-01 0.30000000E+03</pdfrwt>
<pdfrwt beam="2">0</pdfrwt>
<totfact> 0.35638006E+02</totfact>
</mgrwt>
</event>
<event>
 6    1  0.3125838E-002  0.3000000E+03  0.7818608E-02  0.1093470E+00
          3   -1    0    0  502    0  0.00000000000E+00  0.00000000000E+00  0.65209210675E+01  0.65209210675E+01  0.00000000000E+00 0.  1.
         13   -1    0    0    0    0 -0.00000000000E+00 -0.00000000000E+00 -0.10000000000E+04  0.10000000000E+04  0.00000000000E+00 0.  1.
    9000005    2    1    2  501    0  0.13685631647E+02 -0.27917261892E+02 -0.96118111034E+03  0.96168980687E+03  0.33893557659E+01 0.  0.
         13    1    3    3    0    0  0.51677478292E+01 -0.71224109523E+01 -0.26355066231E+03  0.26369752741E+03  0.00000000000E+00 0.  1.
          1    1    3    3  501    0  0.85178838173E+01 -0.20794850940E+02 -0.69763044803E+03  0.69799227946E+03  0.00000000000E+00 0.  1.
         21    1    1    2  502  501 -0.13685631647E+02  0.27917261892E+02 -0.32297968588E+02  0.44831114196E+02  0.00000000000E+00 0.  1.
<mgrwt>
<rscale>  1 0.30000000E+03</rscale>
<asrwt>0</asrwt>
<pdfrwt beam="1">  1        3 0.23712490E-01 0.30000000E+03</pdfrwt>
<pdfrwt beam="2">0</pdfrwt>
<totfact> 0.72913306E+01</totfact>
</mgrwt>
</event>
<event>
 6    1  0.3125838E-002  0.3000000E+03  0.7818608E-02  0.1093470E+00
          3   -1    0    0  502    0  0.00000000000E+00  0.00000000000E+00  0.36450895037E+01  0.36450895037E+01  0.00000000000E+00 0.  1.
         13   -1    0    0    0    0 -0.00000000000E+00 -0.00000000000E+00 -0.10000000000E+04  0.10000000000E+04  0.00000000000E+00 0.  1.
    9000005    2    1    2  501    0  0.36984261536E+02 -0.12381556680E+02 -0.88110389843E+03  0.88197366998E+03  0.35122867947E+01 0.  0.
         13    1    3    3    0    0  0.82206269309E+01 -0.12631901323E+01 -0.19285720461E+03  0.19303646217E+03  0.00000000000E+00 0.  1.
          3    1    3    3  501    0  0.28763634605E+02 -0.11118366548E+02 -0.68824669382E+03  0.68893720781E+03  0.00000000000E+00 0.  1.
         21    1    1    2  502  501 -0.36984261536E+02  0.12381556680E+02 -0.11525101207E+03  0.12167141953E+03  0.00000000000E+00 0.  1.
<mgrwt>
<rscale>  1 0.30000000E+03</rscale>
<asrwt>0</asrwt>
<pdfrwt beam="1">  1        3 0.13254899E-01 0.30000000E+03</pdfrwt>
<pdfrwt beam="2">0</pdfrwt>
<totfact> 0.20583457E+02</totfact>
</mgrwt>
</event>
<event>
 6    1  0.3125838E-002  0.3000000E+03  0.7818608E-02  0.1093470E+00
          1   -1    0    0  502    0  0.00000000000E+00  0.00000000000E+00  0.10815947669E+01  0.10815947669E+01  0.00000000000E+00 0.  1.
         13   -1    0    0    0    0 -0.00000000000E+00 -0.00000000000E+00 -0.10000000000E+04  0.10000000000E+04  0.00000000000E+00 0.  1.
    9000005    2    1    2  501    0 -0.28878779767E+02 -0.93509496769E+01 -0.68943455020E+03  0.69011265628E+03  0.37490212962E+01 0.  0.
         13    1    3    3    0    0 -0.26409150179E+02 -0.77642051108E+01 -0.60235143851E+03  0.60298008389E+03  0.00000000000E+00 0.  1.
          1    1    3    3  501    0 -0.24696295873E+01 -0.15867445661E+01 -0.87083111689E+02  0.87132572383E+02  0.00000000000E+00 0.  1.
         21    1    1    2  502  501  0.28878779767E+02  0.93509496769E+01 -0.30948385503E+03  0.31096893849E+03  0.00000000000E+00 0.  1.
<mgrwt>
<rscale>  1 0.30000000E+03</rscale>
<asrwt>0</asrwt>
<pdfrwt beam="1">  1        1 0.39330802E-02 0.30000000E+03</pdfrwt>
<pdfrwt beam="2">0</pdfrwt>
<totfact> 0.27884066E+03</totfact>
</mgrwt>
</event>
<event>
 6    1  0.3125838E-002  0.3000000E+03  0.7818608E-02  0.1093470E+00
          1   -1    0    0  502    0  0.00000000000E+00  0.00000000000E+00  0.18369557780E+01  0.18369557780E+01  0.00000000000E+00 0.  1.
         13   -1    0    0    0    0 -0.00000000000E+00 -0.00000000000E+00 -0.10000000000E+04  0.10000000000E+04  0.00000000000E+00 0.  1.
    9000005    2    1    2  501    0  0.15747135435E+02  0.30769728085E+02 -0.79485829359E+03  0.79561481810E+03  0.29126350899E+01 0.  0.
         13    1    3    3    0    0  0.74372730702E+00  0.12969160148E+01 -0.50625998149E+02  0.50648068176E+02  0.00000000000E+00 0.  1.
          3    1    3    3  501    0  0.15003408128E+02  0.29472812071E+02 -0.74423229544E+03  0.74496674992E+03  0.00000000000E+00 0.  1.
         21    1    1    2  502  501 -0.15747135435E+02 -0.30769728085E+02 -0.20330475063E+03  0.20622213768E+03  0.00000000000E+00 0.  1.
<mgrwt>
<rscale>  1 0.30000000E+03</rscale>
<asrwt>0</asrwt>
<pdfrwt beam="1">  1        1 0.66798533E-02 0.30000000E+03</pdfrwt>
<pdfrwt beam="2">0</pdfrwt>
<totfact> 0.13248010E+03</totfact>
</mgrwt>
</event>
<event>
 6    1  0.3125838E-002  0.3000000E+03  0.7818608E-02  0.1093470E+00
          1   -1    0    0  502    0  0.00000000000E+00  0.00000000000E+00  0.34818934842E+01  0.34818934842E+01  0.00000000000E+00 0.  1.
         13   -1    0    0    0    0 -0.00000000000E+00 -0.00000000000E+00 -0.10000000000E+04  0.10000000000E+04  0.00000000000E+00 0.  1.
    9000005    2    1    2  501    0 -0.28628542568E+02 -0.38573964967E+02 -0.78945096501E+03  0.79091579714E+03  0.27253973072E+01 0.  0.
         13    1    3    3    0    0 -0.25811363016E+02 -0.35826331829E+02 -0.71783726172E+03  0.71919405366E+03  0.00000000000E+00 0.  1.
          1    1    3    3  501    0 -0.28171795520E+01 -0.27476331384E+01 -0.71613703289E+02  0.71721743476E+02  0.00000000000E+00 0.  1.
         21    1    1    2  502  501  0.28628542568E+02  0.38573964967E+02 -0.20706714151E+03  0.21256609634E+03  0.00000000000E+00 0.  1.
<mgrwt>
<rscale>  1 0.30000000E+03</rscale>
<asrwt>0</asrwt>
<pdfrwt beam="1">  1        1 0.12661458E-01 0.30000000E+03</pdfrwt>
<pdfrwt beam="2">0</pdfrwt>
<totfact> 0.54649908E+02</totfact>
</mgrwt>
</event>
<event>
 6    1  0.3125838E-002  0.3000000E+03  0.7818608E-02  0.1093470E+00
          1   -1    0    0  502    0  0.00000000000E+00  0.00000000000E+00  0.16969238425E+01  0.16969238425E+01  0.00000000000E+00 0.  1.
         13   -1    0    0    0    0 -0.00000000000E+00 -0.00000000000E+00 -0.10000000000E+04  0.10000000000E+04  0.00000000000E+00 0.  1.
    9000005    2    1    2  501    0  0.38807607364E+02  0.12099774389E+02 -0.43867220035E+03  0.44059162884E+03  0.59370960014E+01 0.  0.
         13    1    3    3    0    0  0.35547482840E+01  0.28193714202E+01 -0.58501889713E+02  0.58677561219E+02  0.00000000000E+00 0.  1.
          3    1    3    3  501    0  0.35252859080E+02  0.92804029691E+01 -0.38017031064E+03  0.38191406762E+03  0.00000000000E+00 0.  1.
         21    1    1    2  502  501 -0.38807607364E+02 -0.12099774389E+02 -0.55963087580E+03  0.56110529500E+03  0.00000000000E+00 0.  1.
<mgrwt>
<rscale>  1 0.30000000E+03</rscale>
<asrwt>0</asrwt>
<pdfrwt beam="1">  1        1 0.61706452E-02 0.30000000E+03</pdfrwt>
<pdfrwt beam="2">0</pdfrwt>
<totfact> 0.14804571E+03</totfact>
</mgrwt>
</event>
<event>
 6    1  0.3125838E-002  0.3000000E+03  0.7818608E-02  0.1093470E+00
          1   -1    0    0  502    0  0.00000000000E+00  0.00000000000E+00  0.59469497624E+01  0.59469497624E+01  0.00000000000E+00 0.  1.
         13   -1    0    0    0    0 -0.00000000000E+00 -0.00000000000E+00 -0.10000000000E+04  0.10000000000E+04  0.00000000000E+00 0.  1.
    9000005    2    1    2  501    0 -0.48476893004E+02 -0.16105375759E+02 -0.87374087535E+03  0.87523959836E+03  0.34416568225E+01 0.  0.
         13    1    3    3    0    0 -0.43266935666E+02 -0.14227174988E+02 -0.75929762985E+03  0.76066242902E+03  0.00000000000E+00 0.  1.
          1    1    3    3  501    0 -0.52099573382E+01 -0.18782007716E+01 -0.11444324550E+03  0.11457716934E+03  0.00000000000E+00 0.  1.
         21    1    1    2  502  501  0.48476893004E+02  0.16105375759E+02 -0.12031217489E+03  0.13070735140E+03  0.00000000000E+00 0.  1.
<mgrwt>
<rscale>  1 0.30000000E+03</rscale>
<asrwt>0</asrwt>
<pdfrwt beam="1">  1        1 0.21625317E-01 0.30000000E+03</pdfrwt>
<pdfrwt beam="2">0</pdfrwt>
<totfact> 0.26529115E+02</totfact>
</mgrwt>
</event>
<event>
 6    1  0.3125838E-002  0.3000000E+03  0.7818608E-02  0.1093470E+00
          1   -1    0    0  502    0  0.00000000000E+00  0.00000000000E+00  0.96000770427E+01  0.96000770427E+01  0.00000000000E+00 0.  1.
         13   -1    0    0    0    0 -0.00000000000E+00 -0.00000000000E+00 -0.10000000000E+04  0.10000000000E+04  0.00000000000E+00 0.  1.
    9000005    2    1    2  501    0  0.58013165441E+02 -0.22306441983E+02 -0.88539081774E+03  0.88757542012E+03  0.31814376511E+01 0.  0.
         13    1    3    3    0    0  0.13322688721E+01 -0.12569272531E+00 -0.23533973793E+02  0.23571988916E+02  0.00000000000E+00 0.  1.
          3    1    3    3  501    0  0.56680896569E+02 -0.22180749257E+02 -0.86185684395E+03  0.86400343120E+03  0.00000000000E+00 0.  1.
         21    1    1    2  502  501 -0.58013165441E+02  0.22306441983E+02 -0.10500910522E+03  0.12202465692E+03  0.00000000000E+00 0.  1.
<mgrwt>
<rscale>  1 0.30000000E+03</rscale>
<asrwt>0</asrwt>
<pdfrwt beam="1">  1        1 0.34909445E-01 0.30000000E+03</pdfrwt>
<pdfrwt beam="2">0</pdfrwt>
<totfact> 0.14119922E+02</totfact>
</mgrwt>
</event>
<event>
 6    1  0.3125838E-002  0.3000000E+03  0.7818608E-02  0.1093470E+00
          1   -1    0    0  502    0  0.00000000000E+00  0.00000000000E+00  0.99080128557E+00  0.99080128557E+00  0.00000000000E+00 0.  1.
         13   -1    0    0    0    0 -0.00000000000E+00 -0.00000000000E+00 -0.10000000000E+04  0.10000000000E+04  0.00000000000E+00 0.  1.
    9000005    2    1    2  501    0  0.25589395618E+02 -0.17883927938E+02 -0.55100694631E+03  0.55190209044E+03  0.35511275973E+01 0.  0.
         13    1    3    3    0    0  0.91173262759E+00 -0.42922448778E+00 -0.31859254624E+02  0.31875187768E+02  0.00000000000E+00 0.  1.
          1    1    3    3  501    0  0.24677662990E+02 -0.17454703450E+02 -0.51914769169E+03  0.52002690268E+03  0.00000000000E+00 0.  1.
         21    1    1    2  502  501 -0.25589395618E+02  0.17883927938E+02 -0.44800225240E+03  0.44908871084E+03  0.00000000000E+00 0.  1.
<mgrwt>
<rscale>  1 0.30000000E+03</rscale>
<asrwt>0</asrwt>
<pdfrwt beam="1">  1        1 0.36029214E-02 0.30000000E+03</pdfrwt>
<pdfrwt beam="2">0</pdfrwt>
<totfact> 0.31546272E+03</totfact>
</mgrwt>
</event>
<event>
 6    1  0.3125838E-002  0.3000000E+03  0.7818608E-02  0.1093470E+00
          1   -1    0    0  502    0  0.00000000000E+00  0.00000000000E+00  0.43142380319E+01  0.43142380319E+01  0.00000000000E+00 0.  1.
         13   -1    0    0    0    0 -0.00000000000E+00 -0.00000000000E+00 -0.10000000000E+04  0.10000000000E+04  0.00000000000E+00 0.  1.
    9000005    2    1    2  501    0 -0.35390237215E+02 -0.40774987008E+02 -0.78361893647E+03  0.78548232323E+03  0.29621054872E+01 0.  0.
         13    1    3    3    0    0 -0.20857361122E+02 -0.22030825774E+02 -0.43010562618E+03  0.43117425302E+03  0.00000000000E+00 0.  1.
          1    1    3    3  501    0 -0.14532876093E+02 -0.18744161234E+02 -0.35351331029E+03  0.35430807021E+03  0.00000000000E+00 0.  1.
         21    1    1    2  502  501  0.35390237215E+02  0.40774987008E+02 -0.21206682550E+03  0.21883191480E+03  0.00000000000E+00 0.  1.
<mgrwt>
<rscale>  1 0.30000000E+03</rscale>
<asrwt>0</asrwt>
<pdfrwt beam="1">  1        1 0.15688171E-01 0.30000000E+03</pdfrwt>
<pdfrwt beam="2">0</pdfrwt>
<totfact> 0.40819925E+02</totfact>
</mgrwt>
</event>
<event>
 6    1  0.3125838E-002  0.3000000E+03  0.7818608E-02  0.1093470E+00
          1   -1    0    0  502    0  0.00000000000E+00  0.00000000000E+00  0.16221067773E+01  0.16221067773E+01  0.00000000000E+00 0.  1.
         13   -1    0    0    0    0 -0.00000000000E+00 -0.00000000000E+00 -0.10000000000E+04  0.10000000000E+04  0.00000000000E+00 0.  1.
    9000005    2    1    2  501    0  0.25100369747E+02 -0.28014035645E+02 -0.32325700691E+03  0.32545420907E+03  0.32457557352E+01 0.  0.
         13    1    3    3    0    0  0.17667702674E+02 -0.17470134116E+02 -0.20981515216E+03  0.21128121398E+03  0.00000000000E+00 0.  1.
          1    1    3    3  501    0  0.74326670729E+01 -0.10543901529E+02 -0.11344185475E+03  0.11417299509E+03  0.00000000000E+00 0.  1.
         21    1    1    2  502  501 -0.25100369747E+02  0.28014035645E+02 -0.67512088631E+03  0.67616789771E+03  0.00000000000E+00 0.  1.
<mgrwt>
<rscale>  1 0.30000000E+03</rscale>
<asrwt>0</asrwt>
<pdfrwt beam="1">  1        1 0.58985825E-02 0.30000000E+03</pdfrwt>
<pdfrwt beam="2">0</pdfrwt>
<totfact> 0.15771199E+03</totfact>
</mgrwt>
</event>
<event>
 6    1  0.3125838E-002  0.3000000E+03  0.7818608E-02  0.1093470E+00
          1   -1    0    0  502    0  0.00000000000E+00  0.00000000000E+00  0.15775211175E+01  0.15775211175E+01  0.00000000000E+00 0.  1.
         13   -1    0    0    0    0 -0.00000000000E+00 -0.00000000000E+00 -0.10000000000E+04  0.10000000000E+04  0.00000000000E+00 0.  1.
    9000005    2    1    2  501    0 -0.19617714088E+02 -0.31172316481E+02 -0.68479032408E+03  0.68579009808E+03  0.37017096269E+01 0.  0.
         13    1    3    3    0    0 -0.10434880834E+02 -0.19118849824E+02 -0.38096794592E+03  0.38159008501E+03  0.00000000000E+00 0.  1.
          3    1    3    3  501    0 -0.91828332538E+01 -0.12053466657E+02 -0.30382237815E+03  0.30420001307E+03  0.00000000000E+00 0.  1.
         21    1    1    2  502  501  0.19617714088E+02  0.31172316481E+02 -0.31363215481E+03  0.31578742304E+03  0.00000000000E+00 0.  1.
<mgrwt>
<rscale>  1 0.30000000E+03</rscale>
<asrwt>0</asrwt>
<pdfrwt beam="1">  1        1 0.57364525E-02 0.30000000E+03</pdfrwt>
<pdfrwt beam="2">0</pdfrwt>
<totfact> 0.16400369E+03</totfact>
</mgrwt>
</event>
<event>
 6    1  0.3125838E-002  0.3000000E+03  0.7818608E-02  0.1093470E+00
          1   -1    0    0  502    0  0.00000000000E+00  0.00000000000E+00  0.51901318978E+01  0.51901318978E+01  0.00000000000E+00 0.  1.
         13   -1    0    0    0    0 -0.00000000000E+00 -0.00000000000E+00 -0.10000000000E+04  0.10000000000E+04  0.00000000000E+00 0.  1.
    9000005    2    1    2  501    0  0.36647491990E+02  0.10327396050E+02 -0.92404740241E+03  0.92483454510E+03  0.23748972732E+01 0.  0.
         13    1    3    3    0    0  0.20661415133E+01  0.95849561074E+00 -0.66622770252E+02  0.66661691928E+02  0.00000000000E+00 0.  1.
          3    1    3    3  501    0  0.34581350477E+02  0.93689004388E+01 -0.85742463216E+03  0.85817285317E+03  0.00000000000E+00 0.  1.
         21    1    1    2  502  501 -0.36647491990E+02 -0.10327396050E+02 -0.70762465694E+02  0.80355586796E+02  0.00000000000E+00 0.  1.
<mgrwt>
<rscale>  1 0.30000000E+03</rscale>
<asrwt>0</asrwt>
<pdfrwt beam="1">  1        1 0.18873247E-01 0.30000000E+03</pdfrwt>
<pdfrwt beam="2">0</pdfrwt>
<totfact> 0.31819067E+02</totfact>
</mgrwt>
</event>
<event>
 6    1  0.3125838E-002  0.3000000E+03  0.7818608E-02  0.1093470E+00
          3   -1    0    0  502    0  0.00000000000E+00  0.00000000000E+00  0.13338752806E+01  0.13338752806E+01  0.00000000000E+00 0.  1.
         13   -1    0    0    0    0 -0.00000000000E+00 -0.00000000000E+00 -0.10000000000E+04  0.10000000000E+04  0.00000000000E+00 0.  1.
    9000005    2    1    2  501    0 -0.27953033453E+02  0.15859006604E+02 -0.73607901101E+03  0.73678733409E+03  0.32225853201E+01 0.  0.
         13    1    3    3    0    0 -0.27488520195E+02  0.15827677152E+02 -0.73072278966E+03  0.73141091695E+03  0.00000000000E+00 0.  1.
          3    1    3    3  501    0 -0.46451325837E+00  0.31329451669E-01 -0.53562213478E+01  0.53764171367E+01  0.00000000000E+00 0.  1.
         21    1    1    2  502  501  0.27953033453E+02 -0.15859006604E+02 -0.26258711371E+03  0.26454654119E+03  0.00000000000E+00 0.  1.
<mgrwt>
<rscale>  1 0.30000000E+03</rscale>
<asrwt>0</asrwt>
<pdfrwt beam="1">  1        3 0.48504658E-02 0.30000000E+03</pdfrwt>
<pdfrwt beam="2">0</pdfrwt>
<totfact> 0.10368629E+03</totfact>
</mgrwt>
</event>
<event>
 6    1  0.3125838E-002  0.3000000E+03  0.7818608E-02  0.1093470E+00
          3   -1    0    0  502    0  0.00000000000E+00  0.00000000000E+00  0.37781591894E+01  0.37781591894E+01  0.00000000000E+00 0.  1.
         13   -1    0    0    0    0 -0.00000000000E+00 -0.00000000000E+00 -0.10000000000E+04  0.10000000000E+04  0.00000000000E+00 0.  1.
    9000005    2    1    2  501    0 -0.10463675084E+02 -0.47420893468E+02 -0.80515398225E+03  0.80663568227E+03  0.54734937300E+01 0.  0.
         13    1    3    3    0    0 -0.57525285696E+01 -0.29743223806E+02 -0.45906849692E+03  0.46006699057E+03  0.00000000000E+00 0.  1.
          3    1    3    3  501    0 -0.47111465143E+01 -0.17677669662E+02 -0.34608548533E+03  0.34656869169E+03  0.00000000000E+00 0.  1.
         21    1    1    2  502  501  0.10463675084E+02  0.47420893468E+02 -0.19106785856E+03  0.19714247692E+03  0.00000000000E+00 0.  1.
<mgrwt>
<rscale>  1 0.30000000E+03</rscale>
<asrwt>0</asrwt>
<pdfrwt beam="1">  1        3 0.13738790E-01 0.30000000E+03</pdfrwt>
<pdfrwt beam="2">0</pdfrwt>
<totfact> 0.19361159E+02</totfact>
</mgrwt>
</event>
<event>
 6    1  0.3125838E-002  0.3000000E+03  0.7818608E-02  0.1093470E+00
          1   -1    0    0  502    0  0.00000000000E+00  0.00000000000E+00  0.22047590062E+01  0.22047590062E+01  0.00000000000E+00 0.  1.
         13   -1    0    0    0    0 -0.00000000000E+00 -0.00000000000E+00 -0.10000000000E+04  0.10000000000E+04  0.00000000000E+00 0.  1.
    9000005    2    1    2  501    0  0.32432441618E+02 -0.13752893931E+02 -0.82770265492E+03  0.82850244700E+03  0.91440884812E+01 0.  0.
         13    1    3    3    0    0  0.10541461916E+02 -0.91846141901E+01 -0.34009265042E+03  0.34037992072E+03  0.00000000000E+00 0.  1.
          1    1    3    3  501    0  0.21890979702E+02 -0.45682797407E+01 -0.48761000451E+03  0.48812252628E+03  0.00000000000E+00 0.  1.
         21    1    1    2  502  501 -0.32432441618E+02  0.13752893931E+02 -0.17009258607E+03  0.17370231201E+03  0.00000000000E+00 0.  1.
<mgrwt>
<rscale>  1 0.30000000E+03</rscale>
<asrwt>0</asrwt>
<pdfrwt beam="1">  1        1 0.80173224E-02 0.30000000E+03</pdfrwt>
<pdfrwt beam="2">0</pdfrwt>
<totfact> 0.10267450E+03</totfact>
</mgrwt>
</event>
<event>
 6    1  0.3125838E-002  0.3000000E+03  0.7818608E-02  0.1093470E+00
          1   -1    0    0  502    0  0.00000000000E+00  0.00000000000E+00  0.36713571768E+02  0.36713571768E+02  0.00000000000E+00 0.  1.
         13   -1    0    0    0    0 -0.00000000000E+00 -0.00000000000E+00 -0.10000000000E+04  0.10000000000E+04  0.00000000000E+00 0.  1.
    9000005    2    1    2  501    0  0.24421087529E+02 -0.24821695036E+02 -0.99136311197E+03  0.99198319920E+03  0.41643311213E+01 0.  0.
         13    1    3    3    0    0  0.98007804330E+01 -0.11806259598E+02 -0.39055262447E+03  0.39085393121E+03  0.00000000000E+00 0.  1.
          3    1    3    3  501    0  0.14620307096E+02 -0.13015435438E+02 -0.60081048750E+03  0.60112926799E+03  0.00000000000E+00 0.  1.
         21    1    1    2  502  501 -0.24421087529E+02  0.24821695036E+02  0.28076683738E+02  0.44730372571E+02  0.00000000000E+00 0.  1.
<mgrwt>
<rscale>  1 0.30000000E+03</rscale>
<asrwt>0</asrwt>
<pdfrwt beam="1">  1        1 0.13350418E+00 0.30000000E+03</pdfrwt>
<pdfrwt beam="2">0</pdfrwt>
<totfact> 0.21902807E+01</totfact>
</mgrwt>
</event>
<event>
 6    1  0.3125838E-002  0.3000000E+03  0.7818608E-02  0.1093470E+00
          3   -1    0    0  502    0  0.00000000000E+00  0.00000000000E+00  0.65404417629E+01  0.65404417629E+01  0.00000000000E+00 0.  1.
         13   -1    0    0    0    0 -0.00000000000E+00 -0.00000000000E+00 -0.10000000000E+04  0.10000000000E+04  0.00000000000E+00 0.  1.
    9000005    2    1    2  501    0 -0.21747487783E+02 -0.61731092504E+02 -0.79223466899E+03  0.79493907821E+03  0.29472534048E+01 0.  0.
         13    1    3    3    0    0 -0.73221775898E+01 -0.21962179281E+02 -0.26399408139E+03  0.26500721992E+03  0.00000000000E+00 0.  1.
          3    1    3    3  501    0 -0.14425310193E+02 -0.39768913223E+02 -0.52824058761E+03  0.52993185829E+03  0.00000000000E+00 0.  1.
         21    1    1    2  502  501  0.21747487783E+02  0.61731092504E+02 -0.20122488925E+03  0.21160136356E+03  0.00000000000E+00 0.  1.
<mgrwt>
<rscale>  1 0.30000000E+03</rscale>
<asrwt>0</asrwt>
<pdfrwt beam="1">  1        3 0.23783475E-01 0.30000000E+03</pdfrwt>
<pdfrwt beam="2">0</pdfrwt>
<totfact> 0.72504977E+01</totfact>
</mgrwt>
</event>
<event>
 6    1  0.3125838E-002  0.3000000E+03  0.7818608E-02  0.1093470E+00
          1   -1    0    0  502    0  0.00000000000E+00  0.00000000000E+00  0.10126324129E+01  0.10126324129E+01  0.00000000000E+00 0.  1.
         13   -1    0    0    0    0 -0.00000000000E+00 -0.00000000000E+00 -0.10000000000E+04  0.10000000000E+04  0.00000000000E+00 0.  1.
    9000005    2    1    2  501    0  0.25168859817E+02  0.19314080802E+02 -0.50635950084E+03  0.50736425520E+03  0.34696036848E+01 0.  0.
         13    1    3    3    0    0  0.26311151805E+01  0.34898662771E+01 -0.72746919897E+02  0.72878091963E+02  0.00000000000E+00 0.  1.
          3    1    3    3  501    0  0.22537744636E+02  0.15824214525E+02 -0.43361258094E+03  0.43448616324E+03  0.00000000000E+00 0.  1.
         21    1    1    2  502  501 -0.25168859817E+02 -0.19314080802E+02 -0.49262786675E+03  0.49364837721E+03  0.00000000000E+00 0.  1.
<mgrwt>
<rscale>  1 0.30000000E+03</rscale>
<asrwt>0</asrwt>
<pdfrwt beam="1">  1        1 0.36823074E-02 0.30000000E+03</pdfrwt>
<pdfrwt beam="2">0</pdfrwt>
<totfact> 0.30593588E+03</totfact>
</mgrwt>
</event>
<event>
 6    1  0.3125838E-002  0.3000000E+03  0.7818608E-02  0.1093470E+00
          1   -1    0    0  502    0  0.00000000000E+00  0.00000000000E+00  0.12784389796E+01  0.12784389796E+01  0.00000000000E+00 0.  1.
         13   -1    0    0    0    0 -0.00000000000E+00 -0.00000000000E+00 -0.10000000000E+04  0.10000000000E+04  0.00000000000E+00 0.  1.
    9000005    2    1    2  501    0  0.33641595761E+01  0.35051609133E+02 -0.58020344570E+03  0.58128159885E+03  0.35108232651E+01 0.  0.
         13    1    3    3    0    0  0.12959543853E+01  0.18173882954E+02 -0.32789474918E+03  0.32840057257E+03  0.00000000000E+00 0.  1.
          3    1    3    3  501    0  0.20682051908E+01  0.16877726179E+02 -0.25230869652E+03  0.25288102628E+03  0.00000000000E+00 0.  1.
         21    1    1    2  502  501 -0.33641595761E+01 -0.35051609133E+02 -0.41851811532E+03  0.41999684013E+03  0.00000000000E+00 0.  1.
<mgrwt>
<rscale>  1 0.30000000E+03</rscale>
<asrwt>0</asrwt>
<pdfrwt beam="1">  1        1 0.46488788E-02 0.30000000E+03</pdfrwt>
<pdfrwt beam="2">0</pdfrwt>
<totfact> 0.22036133E+03</totfact>
</mgrwt>
</event>
<event>
 6    1  0.3901387E-002  0.3000000E+03  0.7818608E-02  0.1093470E+00
          1   -1    0    0  502    0  0.00000000000E+00  0.00000000000E+00  0.37890421303E+01  0.37890421303E+01  0.00000000000E+00 0.  1.
         13   -1    0    0    0    0 -0.00000000000E+00 -0.00000000000E+00 -0.10000000000E+04  0.10000000000E+04  0.00000000000E+00 0.  1.
    9000005    2    1    2  501    0 -0.39535306971E+02  0.38060031765E+02 -0.72220524421E+03  0.72434184205E+03  0.88928545926E+01 0.  0.
         13    1    3    3    0    0 -0.16786267915E+02  0.20387026736E+02 -0.38776611615E+03  0.38866434167E+03  0.00000000000E+00 0.  1.
          1    1    3    3  501    0 -0.22749039056E+02  0.17673005029E+02 -0.33443912806E+03  0.33567750038E+03  0.00000000000E+00 0.  1.
         21    1    1    2  502  501  0.39535306971E+02 -0.38060031765E+02 -0.27400571366E+03  0.27944720008E+03  0.00000000000E+00 0.  1.
<mgrwt>
<rscale>  1 0.30000000E+03</rscale>
<asrwt>0</asrwt>
<pdfrwt beam="1">  1        1 0.13778364E-01 0.30000000E+03</pdfrwt>
<pdfrwt beam="2">0</pdfrwt>
<totfact> 0.48693196E+02</totfact>
</mgrwt>
</event>
<event>
 6    1  0.3125838E-002  0.3000000E+03  0.7818608E-02  0.1093470E+00
          1   -1    0    0  502    0  0.00000000000E+00  0.00000000000E+00  0.11253211424E+01  0.11253211424E+01  0.00000000000E+00 0.  1.
         13   -1    0    0    0    0 -0.00000000000E+00 -0.00000000000E+00 -0.10000000000E+04  0.10000000000E+04  0.00000000000E+00 0.  1.
    9000005    2    1    2  501    0  0.15849485164E+02 -0.28164278602E+02 -0.63063797473E+03  0.63147318327E+03  0.31133975977E+01 0.  0.
         13    1    3    3    0    0  0.12104336356E+02 -0.23461107285E+02 -0.52735054262E+03  0.52801092159E+03  0.00000000000E+00 0.  1.
          1    1    3    3  501    0  0.37451488076E+01 -0.47031713173E+01 -0.10328743211E+03  0.10346226168E+03  0.00000000000E+00 0.  1.
         21    1    1    2  502  501 -0.15849485164E+02  0.28164278602E+02 -0.36823670412E+03  0.36965213787E+03  0.00000000000E+00 0.  1.
<mgrwt>
<rscale>  1 0.30000000E+03</rscale>
<asrwt>0</asrwt>
<pdfrwt beam="1">  1        1 0.40920855E-02 0.30000000E+03</pdfrwt>
<pdfrwt beam="2">0</pdfrwt>
<totfact> 0.26370757E+03</totfact>
</mgrwt>
</event>
<event>
 6    1  0.3125838E-002  0.3000000E+03  0.7818608E-02  0.1093470E+00
          1   -1    0    0  502    0  0.00000000000E+00  0.00000000000E+00  0.16021263022E+01  0.16021263022E+01  0.00000000000E+00 0.  1.
         13   -1    0    0    0    0 -0.00000000000E+00 -0.00000000000E+00 -0.10000000000E+04  0.10000000000E+04  0.00000000000E+00 0.  1.
    9000005    2    1    2  501    0  0.15403776053E+02  0.28203187562E+02 -0.79714360944E+03  0.79779836042E+03  0.34049543401E+01 0.  0.
         13    1    3    3    0    0  0.11016860626E+02  0.19000177502E+02 -0.57961484172E+03  0.58003081186E+03  0.00000000000E+00 0.  1.
          3    1    3    3  501    0  0.43869154264E+01  0.92030100600E+01 -0.21752876772E+03  0.21776754856E+03  0.00000000000E+00 0.  1.
         21    1    1    2  502  501 -0.15403776053E+02 -0.28203187562E+02 -0.20125426426E+03  0.20380376588E+03  0.00000000000E+00 0.  1.
<mgrwt>
<rscale>  1 0.30000000E+03</rscale>
<asrwt>0</asrwt>
<pdfrwt beam="1">  1        1 0.58259261E-02 0.30000000E+03</pdfrwt>
<pdfrwt beam="2">0</pdfrwt>
<totfact> 0.16047925E+03</totfact>
</mgrwt>
</event>
<event>
 6    1  0.3125838E-002  0.3000000E+03  0.7818608E-02  0.1093470E+00
          1   -1    0    0  502    0  0.00000000000E+00  0.00000000000E+00  0.70803945188E+01  0.70803945188E+01  0.00000000000E+00 0.  1.
         13   -1    0    0    0    0 -0.00000000000E+00 -0.00000000000E+00 -0.10000000000E+04  0.10000000000E+04  0.00000000000E+00 0.  1.
    9000005    2    1    2  501    0 -0.62671361860E+01  0.30800378519E+02 -0.96353701976E+03  0.96405392991E+03  0.29070634183E+01 0.  0.
         13    1    3    3    0    0 -0.32310540617E+01  0.13500832237E+02 -0.38414502804E+03  0.38439577878E+03  0.00000000000E+00 0.  1.
          1    1    3    3  501    0 -0.30360821244E+01  0.17299546282E+02 -0.57939199172E+03  0.57965815113E+03  0.00000000000E+00 0.  1.
         21    1    1    2  502  501  0.62671361860E+01 -0.30800378519E+02 -0.29382585721E+02  0.43026464607E+02  0.00000000000E+00 0.  1.
<mgrwt>
<rscale>  1 0.30000000E+03</rscale>
<asrwt>0</asrwt>
<pdfrwt beam="1">  1        1 0.25746943E-01 0.30000000E+03</pdfrwt>
<pdfrwt beam="2">0</pdfrwt>
<totfact> 0.21058296E+02</totfact>
</mgrwt>
</event>
<event>
 6    1  0.3125838E-002  0.3000000E+03  0.7818608E-02  0.1093470E+00
          1   -1    0    0  502    0  0.00000000000E+00  0.00000000000E+00  0.24660245853E+01  0.24660245853E+01  0.00000000000E+00 0.  1.
         13   -1    0    0    0    0 -0.00000000000E+00 -0.00000000000E+00 -0.10000000000E+04  0.10000000000E+04  0.00000000000E+00 0.  1.
    9000005    2    1    2  501    0 -0.35738453371E+02 -0.89743104722E+01 -0.83447015276E+03  0.83529071075E+03  0.35157242653E+01 0.  0.
         13    1    3    3    0    0 -0.17877530992E+02 -0.54572995233E+01 -0.45624999091E+03  0.45663272161E+03  0.00000000000E+00 0.  1.
          1    1    3    3  501    0 -0.17860922378E+02 -0.35170109489E+01 -0.37822016185E+03  0.37865798914E+03  0.00000000000E+00 0.  1.
         21    1    1    2  502  501  0.35738453371E+02  0.89743104722E+01 -0.16306382265E+03  0.16717531384E+03  0.00000000000E+00 0.  1.
<mgrwt>
<rscale>  1 0.30000000E+03</rscale>
<asrwt>0</asrwt>
<pdfrwt beam="1">  1        1 0.89673810E-02 0.30000000E+03</pdfrwt>
<pdfrwt beam="2">0</pdfrwt>
<totfact> 0.87878854E+02</totfact>
</mgrwt>
</event>
<event>
 6    1  0.3125838E-002  0.3000000E+03  0.7818608E-02  0.1093470E+00
          1   -1    0    0  502    0  0.00000000000E+00  0.00000000000E+00  0.32684058528E+02  0.32684058528E+02  0.00000000000E+00 0.  1.
         13   -1    0    0    0    0 -0.00000000000E+00 -0.00000000000E+00 -0.10000000000E+04  0.10000000000E+04  0.00000000000E+00 0.  1.
    9000005    2    1    2  501    0 -0.12493769299E+03  0.29588740797E+02 -0.84710355915E+03  0.85679790906E+03  0.57702972545E+01 0.  0.
         13    1    3    3    0    0 -0.31123013446E+02  0.61825458304E+01 -0.19494971694E+03  0.19751520948E+03  0.00000000000E+00 0.  1.
          3    1    3    3  501    0 -0.93814679545E+02  0.23406194966E+02 -0.65215384221E+03  0.65928269958E+03  0.00000000000E+00 0.  1.
         21    1    1    2  502  501  0.12493769299E+03 -0.29588740797E+02 -0.12021238232E+03  0.17588614947E+03  0.00000000000E+00 0.  1.
<mgrwt>
<rscale>  1 0.30000000E+03</rscale>
<asrwt>0</asrwt>
<pdfrwt beam="1">  1        1 0.11885137E+00 0.30000000E+03</pdfrwt>
<pdfrwt beam="2">0</pdfrwt>
<totfact> 0.26388715E+01</totfact>
</mgrwt>
</event>
<event>
 6    1  0.3125838E-002  0.3000000E+03  0.7818608E-02  0.1093470E+00
          1   -1    0    0  502    0  0.00000000000E+00  0.00000000000E+00  0.11877291138E+01  0.11877291138E+01  0.00000000000E+00 0.  1.
         13   -1    0    0    0    0 -0.00000000000E+00 -0.00000000000E+00 -0.10000000000E+04  0.10000000000E+04  0.00000000000E+00 0.  1.
    9000005    2    1    2  501    0  0.30609204468E+02  0.49186517536E+01 -0.71684683907E+03  0.71752310094E+03  0.29821428384E+01 0.  0.
         13    1    3    3    0    0  0.27202977184E+02  0.36588093640E+01 -0.64689372000E+03  0.64747577085E+03  0.00000000000E+00 0.  1.
          3    1    3    3  501    0  0.34062272842E+01  0.12598423896E+01 -0.69953119062E+02  0.70047330096E+02  0.00000000000E+00 0.  1.
         21    1    1    2  502  501 -0.30609204468E+02 -0.49186517536E+01 -0.28196543182E+03  0.28366462817E+03  0.00000000000E+00 0.  1.
<mgrwt>
<rscale>  1 0.30000000E+03</rscale>
<asrwt>0</asrwt>
<pdfrwt beam="1">  1        1 0.43190241E-02 0.30000000E+03</pdfrwt>
<pdfrwt beam="2">0</pdfrwt>
<totfact> 0.24441007E+03</totfact>
</mgrwt>
</event>
<event>
 6    1  0.4451841E-002  0.3000000E+03  0.7818608E-02  0.1093470E+00
          1   -1    0    0  502    0  0.00000000000E+00  0.00000000000E+00  0.31756920212E+01  0.31756920212E+01  0.00000000000E+00 0.  1.
         13   -1    0    0    0    0 -0.00000000000E+00 -0.00000000000E+00 -0.10000000000E+04  0.10000000000E+04  0.00000000000E+00 0.  1.
    9000005    2    1    2  501    0 -0.88709157151E+01 -0.51595015683E+02 -0.33156738233E+03  0.33586203570E+03  0.11208889799E+02 0.  0.
         13    1    3    3    0    0 -0.21227880423E-01 -0.32317889571E+02 -0.19711670470E+03  0.19974844607E+03  0.00000000000E+00 0.  1.
          1    1    3    3  501    0 -0.88496878347E+01 -0.19277126111E+02 -0.13445067763E+03  0.13611358963E+03  0.00000000000E+00 0.  1.
         21    1    1    2  502  501  0.88709157151E+01  0.51595015683E+02 -0.66525692565E+03  0.66731365632E+03  0.00000000000E+00 0.  1.
<mgrwt>
<rscale>  1 0.30000000E+03</rscale>
<asrwt>0</asrwt>
<pdfrwt beam="1">  1        1 0.11547995E-01 0.30000000E+03</pdfrwt>
<pdfrwt beam="2">0</pdfrwt>
<totfact> 0.61997238E+02</totfact>
</mgrwt>
</event>
<event>
 6    1  0.4740431E-002  0.3000000E+03  0.7818608E-02  0.1093470E+00
          3   -1    0    0  502    0  0.00000000000E+00  0.00000000000E+00  0.11525177223E+01  0.11525177223E+01  0.00000000000E+00 0.  1.
         13   -1    0    0    0    0 -0.00000000000E+00 -0.00000000000E+00 -0.10000000000E+04  0.10000000000E+04  0.00000000000E+00 0.  1.
    9000005    2    1    2  501    0 -0.31318633156E+02  0.10261790464E+02 -0.56502293334E+03  0.56607792597E+03  0.10350939362E+02 0.  0.
         13    1    3    3    0    0 -0.31344069555E+02  0.82937391337E+01 -0.54304012432E+03  0.54400718141E+03  0.00000000000E+00 0.  1.
          3    1    3    3  501    0  0.25436399094E-01  0.19680513299E+01 -0.21982809018E+02  0.22070744558E+02  0.00000000000E+00 0.  1.
         21    1    1    2  502  501  0.31318633156E+02 -0.10261790464E+02 -0.43382454894E+03  0.43507459176E+03  0.00000000000E+00 0.  1.
<mgrwt>
<rscale>  1 0.30000000E+03</rscale>
<asrwt>0</asrwt>
<pdfrwt beam="1">  1        3 0.41909824E-02 0.30000000E+03</pdfrwt>
<pdfrwt beam="2">0</pdfrwt>
<totfact> 0.12987945E+03</totfact>
</mgrwt>
</event>
<event>
 6    1  0.3125838E-002  0.3000000E+03  0.7818608E-02  0.1093470E+00
          1   -1    0    0  502    0  0.00000000000E+00  0.00000000000E+00  0.25170425452E+01  0.25170425452E+01  0.00000000000E+00 0.  1.
         13   -1    0    0    0    0 -0.00000000000E+00 -0.00000000000E+00 -0.10000000000E+04  0.10000000000E+04  0.00000000000E+00 0.  1.
    9000005    2    1    2  501    0  0.49587248919E+02  0.66959460690E+01 -0.46878147076E+03  0.47145302288E+03  0.28556095970E+01 0.  0.
         13    1    3    3    0    0  0.25347820024E+02  0.48411747326E+01 -0.23906078200E+03  0.24044959232E+03  0.00000000000E+00 0.  1.
          3    1    3    3  501    0  0.24239428896E+02  0.18547713365E+01 -0.22972068876E+03  0.23100343056E+03  0.00000000000E+00 0.  1.
         21    1    1    2  502  501 -0.49587248919E+02 -0.66959460690E+01 -0.52870148669E+03  0.53106401966E+03  0.00000000000E+00 0.  1.
<mgrwt>
<rscale>  1 0.30000000E+03</rscale>
<asrwt>0</asrwt>
<pdfrwt beam="1">  1        1 0.91529013E-02 0.30000000E+03</pdfrwt>
<pdfrwt beam="2">0</pdfrwt>
<totfact> 0.85419182E+02</totfact>
</mgrwt>
</event>
<event>
 6    1  0.3125838E-002  0.3000000E+03  0.7818608E-02  0.1093470E+00
          3   -1    0    0  502    0  0.00000000000E+00  0.00000000000E+00  0.25736688534E+01  0.25736688534E+01  0.00000000000E+00 0.  1.
         13   -1    0    0    0    0 -0.00000000000E+00 -0.00000000000E+00 -0.10000000000E+04  0.10000000000E+04  0.00000000000E+00 0.  1.
    9000005    2    1    2  501    0  0.28815617257E+02  0.41318995537E+02 -0.55502189160E+03  0.55731050249E+03  0.28454946078E+01 0.  0.
         13    1    3    3    0    0  0.75097605877E+00  0.19964690256E+01 -0.25988488811E+02  0.26075877824E+02  0.00000000000E+00 0.  1.
          1    1    3    3  501    0  0.28064641198E+02  0.39322526511E+02 -0.52903340279E+03  0.53123462467E+03  0.00000000000E+00 0.  1.
         21    1    1    2  502  501 -0.28815617257E+02 -0.41318995537E+02 -0.44240443954E+03  0.44526316636E+03  0.00000000000E+00 0.  1.
<mgrwt>
<rscale>  1 0.30000000E+03</rscale>
<asrwt>0</asrwt>
<pdfrwt beam="1">  1        3 0.93588156E-02 0.30000000E+03</pdfrwt>
<pdfrwt beam="2">0</pdfrwt>
<totfact> 0.36809777E+02</totfact>
</mgrwt>
</event>
<event>
 6    1  0.3125838E-002  0.3000000E+03  0.7818608E-02  0.1093470E+00
          3   -1    0    0  502    0  0.00000000000E+00  0.00000000000E+00  0.18049833166E+01  0.18049833166E+01  0.00000000000E+00 0.  1.
         13   -1    0    0    0    0 -0.00000000000E+00 -0.00000000000E+00 -0.10000000000E+04  0.10000000000E+04  0.00000000000E+00 0.  1.
    9000005    2    1    2  501    0 -0.13779629408E+02 -0.31685370709E+02 -0.79001279532E+03  0.79077494234E+03  0.33093438507E+01 0.  0.
         13    1    3    3    0    0 -0.11117162395E+01 -0.11602760393E+01 -0.47072280474E+02  0.47099700025E+02  0.00000000000E+00 0.  1.
          3    1    3    3  501    0 -0.12667913168E+02 -0.30525094670E+02 -0.74294051485E+03  0.74367524231E+03  0.00000000000E+00 0.  1.
         21    1    1    2  502  501  0.13779629408E+02  0.31685370709E+02 -0.20818222136E+03  0.21103004098E+03  0.00000000000E+00 0.  1.
<mgrwt>
<rscale>  1 0.30000000E+03</rscale>
<asrwt>0</asrwt>
<pdfrwt beam="1">  1        3 0.65635895E-02 0.30000000E+03</pdfrwt>
<pdfrwt beam="2">0</pdfrwt>
<totfact> 0.64808258E+02</totfact>
</mgrwt>
</event>
<event>
 6    1  0.3125838E-002  0.3000000E+03  0.7818608E-02  0.1093470E+00
          1   -1    0    0  502    0  0.00000000000E+00  0.00000000000E+00  0.37561774799E+02  0.37561774799E+02  0.00000000000E+00 0.  1.
         13   -1    0    0    0    0 -0.00000000000E+00 -0.00000000000E+00 -0.10000000000E+04  0.10000000000E+04  0.00000000000E+00 0.  1.
    9000005    2    1    2  501    0 -0.36810096637E+02 -0.14990438855E+02 -0.98896995612E+03  0.98977444157E+03  0.34892111323E+01 0.  0.
         13    1    3    3    0    0 -0.28510676241E+02 -0.12266817013E+02 -0.73747272365E+03  0.73812556628E+03  0.00000000000E+00 0.  1.
          1    1    3    3  501    0 -0.82994203962E+01 -0.27236218415E+01 -0.25149723247E+03  0.25164887529E+03  0.00000000000E+00 0.  1.
         21    1    1    2  502  501  0.36810096637E+02  0.14990438855E+02  0.26531730923E+02  0.47787333230E+02  0.00000000000E+00 0.  1.
<mgrwt>
<rscale>  1 0.30000000E+03</rscale>
<asrwt>0</asrwt>
<pdfrwt beam="1">  1        1 0.13658856E+00 0.30000000E+03</pdfrwt>
<pdfrwt beam="2">0</pdfrwt>
<totfact> 0.21087992E+01</totfact>
</mgrwt>
</event>
<event>
 6    1  0.3125838E-002  0.3000000E+03  0.7818608E-02  0.1093470E+00
          1   -1    0    0  502    0  0.00000000000E+00  0.00000000000E+00  0.16541199996E+01  0.16541199996E+01  0.00000000000E+00 0.  1.
         13   -1    0    0    0    0 -0.00000000000E+00 -0.00000000000E+00 -0.10000000000E+04  0.10000000000E+04  0.00000000000E+00 0.  1.
    9000005    2    1    2  501    0 -0.56184441544E+01 -0.39591927255E+02 -0.58685444763E+03  0.58822421478E+03  0.32398345314E+01 0.  0.
         13    1    3    3    0    0 -0.94879943543E+00 -0.79742395151E+01 -0.13784395654E+03  0.13807767767E+03  0.00000000000E+00 0.  1.
          3    1    3    3  501    0 -0.46696447189E+01 -0.31617687740E+02 -0.44901049110E+03  0.45014653711E+03  0.00000000000E+00 0.  1.
         21    1    1    2  502  501  0.56184441544E+01  0.39591927255E+02 -0.41149143237E+03  0.41342990522E+03  0.00000000000E+00 0.  1.
<mgrwt>
<rscale>  1 0.30000000E+03</rscale>
<asrwt>0</asrwt>
<pdfrwt beam="1">  1        1 0.60149945E-02 0.30000000E+03</pdfrwt>
<pdfrwt beam="2">0</pdfrwt>
<totfact> 0.15344631E+03</totfact>
</mgrwt>
</event>
<event>
 6    1  0.3125838E-002  0.3000000E+03  0.7818608E-02  0.1093470E+00
          1   -1    0    0  502    0  0.00000000000E+00  0.00000000000E+00  0.11235460128E+01  0.11235460128E+01  0.00000000000E+00 0.  1.
         13   -1    0    0    0    0 -0.00000000000E+00 -0.00000000000E+00 -0.10000000000E+04  0.10000000000E+04  0.00000000000E+00 0.  1.
    9000005    2    1    2  501    0  0.25825871855E+02  0.16154174885E+02 -0.29493675146E+03  0.29652505196E+03  0.33891085183E+01 0.  0.
         13    1    3    3    0    0  0.25814582583E+02  0.16060223283E+02 -0.29476672497E+03  0.29633046687E+03  0.00000000000E+00 0.  1.
          3    1    3    3  501    0  0.11289272315E-01  0.93951602069E-01 -0.17002649195E+00  0.19458509492E+00  0.00000000000E+00 0.  1.
         21    1    1    2  502  501 -0.25825871855E+02 -0.16154174885E+02 -0.70393970253E+03  0.70459849405E+03  0.00000000000E+00 0.  1.
<mgrwt>
<rscale>  1 0.30000000E+03</rscale>
<asrwt>0</asrwt>
<pdfrwt beam="1">  1        1 0.40856305E-02 0.30000000E+03</pdfrwt>
<pdfrwt beam="2">0</pdfrwt>
<totfact> 0.26429439E+03</totfact>
</mgrwt>
</event>
<event>
 6    1  0.3125838E-002  0.3000000E+03  0.7818608E-02  0.1093470E+00
          1   -1    0    0  502    0  0.00000000000E+00  0.00000000000E+00  0.19636088335E+01  0.19636088335E+01  0.00000000000E+00 0.  1.
         13   -1    0    0    0    0 -0.00000000000E+00 -0.00000000000E+00 -0.10000000000E+04  0.10000000000E+04  0.00000000000E+00 0.  1.
    9000005    2    1    2  501    0  0.35488269166E+02 -0.74120087065E+01 -0.21295239726E+03  0.21604298141E+03  0.33898667153E+01 0.  0.
         13    1    3    3    0    0  0.34828756264E+02 -0.67943685075E+01 -0.20874507725E+03  0.21173972934E+03  0.00000000000E+00 0.  1.
          1    1    3    3  501    0  0.65951290168E+00 -0.61764019899E+00 -0.42073200083E+01  0.43032520651E+01  0.00000000000E+00 0.  1.
         21    1    1    2  502  501 -0.35488269166E+02  0.74120087065E+01 -0.78508399391E+03  0.78592062743E+03  0.00000000000E+00 0.  1.
<mgrwt>
<rscale>  1 0.30000000E+03</rscale>
<asrwt>0</asrwt>
<pdfrwt beam="1">  1        1 0.71404108E-02 0.30000000E+03</pdfrwt>
<pdfrwt beam="2">0</pdfrwt>
<totfact> 0.12068352E+03</totfact>
</mgrwt>
</event>
<event>
 6    1  0.3125838E-002  0.3000000E+03  0.7818608E-02  0.1093470E+00
          3   -1    0    0  502    0  0.00000000000E+00  0.00000000000E+00  0.10484820149E+01  0.10484820149E+01  0.00000000000E+00 0.  1.
         13   -1    0    0    0    0 -0.00000000000E+00 -0.00000000000E+00 -0.10000000000E+04  0.10000000000E+04  0.00000000000E+00 0.  1.
    9000005    2    1    2  501    0 -0.22879624619E+02  0.20831808179E+02 -0.64169260571E+03  0.64245209072E+03  0.42245927608E+01 0.  0.
         13    1    3    3    0    0 -0.22522994221E+02  0.21001044064E+02 -0.62905558674E+03  0.62980890778E+03  0.00000000000E+00 0.  1.
          3    1    3    3  501    0 -0.35663039816E+00 -0.16923588504E+00 -0.12637018977E+02  0.12643182932E+02  0.00000000000E+00 0.  1.
         21    1    1    2  502  501  0.22879624619E+02 -0.20831808179E+02 -0.35725891227E+03  0.35859639130E+03  0.00000000000E+00 0.  1.
<mgrwt>
<rscale>  1 0.30000000E+03</rscale>
<asrwt>0</asrwt>
<pdfrwt beam="1">  1        3 0.38126699E-02 0.30000000E+03</pdfrwt>
<pdfrwt beam="2">0</pdfrwt>
<totfact> 0.15019977E+03</totfact>
</mgrwt>
</event>
<event>
 6    1  0.3125838E-002  0.3000000E+03  0.7818608E-02  0.1093470E+00
          1   -1    0    0  502    0  0.00000000000E+00  0.00000000000E+00  0.40404911401E+01  0.40404911401E+01  0.00000000000E+00 0.  1.
         13   -1    0    0    0    0 -0.00000000000E+00 -0.00000000000E+00 -0.10000000000E+04  0.10000000000E+04  0.00000000000E+00 0.  1.
    9000005    2    1    2  501    0 -0.44958824664E+01  0.44467850491E+02 -0.85470947630E+03  0.85588795358E+03  0.42775606767E+01 0.  0.
         13    1    3    3    0    0 -0.50427737258E+01  0.43393541952E+02 -0.83418574539E+03  0.83532884953E+03  0.00000000000E+00 0.  1.
          1    1    3    3  501    0  0.54689125940E+00  0.10743085391E+01 -0.20523730907E+02  0.20559104048E+02  0.00000000000E+00 0.  1.
         21    1    1    2  502  501  0.44958824664E+01 -0.44467850491E+02 -0.14125003256E+03  0.14815253756E+03  0.00000000000E+00 0.  1.
<mgrwt>
<rscale>  1 0.30000000E+03</rscale>
<asrwt>0</asrwt>
<pdfrwt beam="1">  1        1 0.14692726E-01 0.30000000E+03</pdfrwt>
<pdfrwt beam="2">0</pdfrwt>
<totfact> 0.44617187E+02</totfact>
</mgrwt>
</event>
<event>
 6    1  0.3125838E-002  0.3000000E+03  0.7818608E-02  0.1093470E+00
          1   -1    0    0  502    0  0.00000000000E+00  0.00000000000E+00  0.13111468688E+01  0.13111468688E+01  0.00000000000E+00 0.  1.
         13   -1    0    0    0    0 -0.00000000000E+00 -0.00000000000E+00 -0.10000000000E+04  0.10000000000E+04  0.00000000000E+00 0.  1.
    9000005    2    1    2  501    0 -0.30834112734E+02  0.14266329148E+02 -0.66980775924E+03  0.67067986496E+03  0.38439918645E+01 0.  0.
         13    1    3    3    0    0 -0.28865981496E+02  0.12269737561E+02 -0.60782433535E+03  0.60863307007E+03  0.00000000000E+00 0.  1.
          3    1    3    3  501    0 -0.19681312384E+01  0.19965915863E+01 -0.61983423891E+02  0.62046794888E+02  0.00000000000E+00 0.  1.
         21    1    1    2  502  501  0.30834112734E+02 -0.14266329148E+02 -0.32888109389E+03  0.33063128191E+03  0.00000000000E+00 0.  1.
<mgrwt>
<rscale>  1 0.30000000E+03</rscale>
<asrwt>0</asrwt>
<pdfrwt beam="1">  1        1 0.47678168E-02 0.30000000E+03</pdfrwt>
<pdfrwt beam="2">0</pdfrwt>
<totfact> 0.21266858E+03</totfact>
</mgrwt>
</event>
<event>
 6    1  0.3125838E-002  0.3000000E+03  0.7818608E-02  0.1093470E+00
          1   -1    0    0  502    0  0.00000000000E+00  0.00000000000E+00  0.31071495706E+01  0.31071495706E+01  0.00000000000E+00 0.  1.
         13   -1    0    0    0    0 -0.00000000000E+00 -0.00000000000E+00 -0.10000000000E+04  0.10000000000E+04  0.00000000000E+00 0.  1.
    9000005    2    1    2  501    0  0.13273245933E+02  0.30040070986E+02 -0.90355360459E+03  0.90415867947E+03  0.39008153585E+01 0.  0.
         13    1    3    3    0    0  0.90831356066E+01  0.24112346447E+02 -0.68423694844E+03  0.68472192181E+03  0.00000000000E+00 0.  1.
          3    1    3    3  501    0  0.41901103266E+01  0.59277245389E+01 -0.21931665616E+03  0.21943675765E+03  0.00000000000E+00 0.  1.
         21    1    1    2  502  501 -0.13273245933E+02 -0.30040070986E+02 -0.93339245835E+02  0.98948470102E+02  0.00000000000E+00 0.  1.
<mgrwt>
<rscale>  1 0.30000000E+03</rscale>
<asrwt>0</asrwt>
<pdfrwt beam="1">  1        1 0.11298750E-01 0.30000000E+03</pdfrwt>
<pdfrwt beam="2">0</pdfrwt>
<totfact> 0.63882042E+02</totfact>
</mgrwt>
</event>
<event>
 6    1  0.3125838E-002  0.3000000E+03  0.7818608E-02  0.1093470E+00
          1   -1    0    0  502    0  0.00000000000E+00  0.00000000000E+00  0.16258994821E+02  0.16258994821E+02  0.00000000000E+00 0.  1.
         13   -1    0    0    0    0 -0.00000000000E+00 -0.00000000000E+00 -0.10000000000E+04  0.10000000000E+04  0.00000000000E+00 0.  1.
    9000005    2    1    2  501    0  0.53552679339E+02 -0.76547381202E+00 -0.95299287826E+03  0.95450202984E+03  0.31974272780E+01 0.  0.
         13    1    3    3    0    0  0.44118225133E+02  0.53015232693E+00 -0.79042888949E+03  0.79165935110E+03  0.00000000000E+00 0.  1.
          1    1    3    3  501    0  0.94344542062E+01 -0.12956261390E+01 -0.16256398877E+03  0.16284267874E+03  0.00000000000E+00 0.  1.
         21    1    1    2  502  501 -0.53552679339E+02  0.76547381202E+00 -0.30748126918E+02  0.61756964980E+02  0.00000000000E+00 0.  1.
<mgrwt>
<rscale>  1 0.30000000E+03</rscale>
<asrwt>0</asrwt>
<pdfrwt beam="1">  1        1 0.59123742E-01 0.30000000E+03</pdfrwt>
<pdfrwt beam="2">0</pdfrwt>
<totfact> 0.70712666E+01</totfact>
</mgrwt>
</event>
<event>
 6    1  0.3125838E-002  0.3000000E+03  0.7818608E-02  0.1093470E+00
          1   -1    0    0  502    0  0.00000000000E+00  0.00000000000E+00  0.84277146545E+01  0.84277146545E+01  0.00000000000E+00 0.  1.
         13   -1    0    0    0    0 -0.00000000000E+00 -0.00000000000E+00 -0.10000000000E+04  0.10000000000E+04  0.00000000000E+00 0.  1.
    9000005    2    1    2  501    0  0.11689750052E+02  0.47457968634E+02 -0.92248866410E+03  0.92380232977E+03  0.60415266503E+01 0.  0.
         13    1    3    3    0    0  0.59312211428E+01  0.22224660831E+02 -0.49042575998E+03  0.49096490810E+03  0.00000000000E+00 0.  1.
          1    1    3    3  501    0  0.57585289090E+01  0.25233307803E+02 -0.43206290412E+03  0.43283742166E+03  0.00000000000E+00 0.  1.
         21    1    1    2  502  501 -0.11689750052E+02 -0.47457968634E+02 -0.69083621243E+02  0.84625384886E+02  0.00000000000E+00 0.  1.
<mgrwt>
<rscale>  1 0.30000000E+03</rscale>
<asrwt>0</asrwt>
<pdfrwt beam="1">  1        1 0.30646300E-01 0.30000000E+03</pdfrwt>
<pdfrwt beam="2">0</pdfrwt>
<totfact> 0.16746842E+02</totfact>
</mgrwt>
</event>
<event>
 6    1  0.3125838E-002  0.3000000E+03  0.7818608E-02  0.1093470E+00
          1   -1    0    0  502    0  0.00000000000E+00  0.00000000000E+00  0.25746393046E+01  0.25746393046E+01  0.00000000000E+00 0.  1.
         13   -1    0    0    0    0 -0.00000000000E+00 -0.00000000000E+00 -0.10000000000E+04  0.10000000000E+04  0.00000000000E+00 0.  1.
    9000005    2    1    2  501    0  0.45806252129E+02 -0.14610098702E+02 -0.65781251936E+03  0.65957529569E+03  0.32545880588E+01 0.  0.
         13    1    3    3    0    0  0.24618804115E+02 -0.66129866559E+01 -0.33303269777E+03  0.33400687851E+03  0.00000000000E+00 0.  1.
          1    1    3    3  501    0  0.21187448014E+02 -0.79971120464E+01 -0.32477982159E+03  0.32556841718E+03  0.00000000000E+00 0.  1.
         21    1    1    2  502  501 -0.45806252129E+02  0.14610098702E+02 -0.33961284134E+03  0.34299934361E+03  0.00000000000E+00 0.  1.
<mgrwt>
<rscale>  1 0.30000000E+03</rscale>
<asrwt>0</asrwt>
<pdfrwt beam="1">  1        1 0.93623445E-02 0.30000000E+03</pdfrwt>
<pdfrwt beam="2">0</pdfrwt>
<totfact> 0.82783288E+02</totfact>
</mgrwt>
</event>
<event>
 6    1  0.3125838E-002  0.3000000E+03  0.7818608E-02  0.1093470E+00
          3   -1    0    0  502    0  0.00000000000E+00  0.00000000000E+00  0.19177304663E+01  0.19177304663E+01  0.00000000000E+00 0.  1.
         13   -1    0    0    0    0 -0.00000000000E+00 -0.00000000000E+00 -0.10000000000E+04  0.10000000000E+04  0.00000000000E+00 0.  1.
    9000005    2    1    2  501    0  0.21743740928E+02  0.32781626608E+02 -0.71840159821E+03  0.71948419275E+03  0.30367745023E+01 0.  0.
         13    1    3    3    0    0  0.21192386101E+02  0.32244298952E+02 -0.70988969079E+03  0.71093753954E+03  0.00000000000E+00 0.  1.
          1    1    3    3  501    0  0.55135482777E+00  0.53732765606E+00 -0.85119074196E+01  0.85466532091E+01  0.00000000000E+00 0.  1.
         21    1    1    2  502  501 -0.21743740928E+02 -0.32781626608E+02 -0.27968067132E+03  0.28243353771E+03  0.00000000000E+00 0.  1.
<mgrwt>
<rscale>  1 0.30000000E+03</rscale>
<asrwt>0</asrwt>
<pdfrwt beam="1">  1        3 0.69735800E-02 0.30000000E+03</pdfrwt>
<pdfrwt beam="2">0</pdfrwt>
<totfact> 0.58924645E+02</totfact>
</mgrwt>
</event>
<event>
 6    1  0.3125838E-002  0.3000000E+03  0.7818608E-02  0.1093470E+00
          1   -1    0    0  502    0  0.00000000000E+00  0.00000000000E+00  0.22990303074E+01  0.22990303074E+01  0.00000000000E+00 0.  1.
         13   -1    0    0    0    0 -0.00000000000E+00 -0.00000000000E+00 -0.10000000000E+04  0.10000000000E+04  0.00000000000E+00 0.  1.
    9000005    2    1    2  501    0 -0.33142325297E+02 -0.17337345054E+02 -0.81208700562E+03  0.81295399890E+03  0.31468035148E+01 0.  0.
         13    1    3    3    0    0 -0.27554591998E+02 -0.15695937361E+02 -0.68619477961E+03  0.68692713846E+03  0.00000000000E+00 0.  1.
          1    1    3    3  501    0 -0.55877332994E+01 -0.16414076932E+01 -0.12589222601E+03  0.12602686044E+03  0.00000000000E+00 0.  1.
         21    1    1    2  502  501  0.33142325297E+02  0.17337345054E+02 -0.18561396407E+03  0.18934503141E+03  0.00000000000E+00 0.  1.
<mgrwt>
<rscale>  1 0.30000000E+03</rscale>
<asrwt>0</asrwt>
<pdfrwt beam="1">  1        1 0.83601278E-02 0.30000000E+03</pdfrwt>
<pdfrwt beam="2">0</pdfrwt>
<totfact> 0.96864823E+02</totfact>
</mgrwt>
</event>
<event>
 6    1  0.3125838E-002  0.3000000E+03  0.7818608E-02  0.1093470E+00
          1   -1    0    0  502    0  0.00000000000E+00  0.00000000000E+00  0.34237629396E+01  0.34237629396E+01  0.00000000000E+00 0.  1.
         13   -1    0    0    0    0 -0.00000000000E+00 -0.00000000000E+00 -0.10000000000E+04  0.10000000000E+04  0.00000000000E+00 0.  1.
    9000005    2    1    2  501    0  0.31775308453E+02 -0.48998788342E+02 -0.52112780545E+03  0.52440209056E+03  0.35793137271E+01 0.  0.
         13    1    3    3    0    0  0.20053744092E+02 -0.32241940834E+02 -0.32457874874E+03  0.32679207386E+03  0.00000000000E+00 0.  1.
          3    1    3    3  501    0  0.11721564361E+02 -0.16756847508E+02 -0.19654905671E+03  0.19761001670E+03  0.00000000000E+00 0.  1.
         21    1    1    2  502  501 -0.31775308453E+02  0.48998788342E+02 -0.47544843161E+03  0.47902167238E+03  0.00000000000E+00 0.  1.
<mgrwt>
<rscale>  1 0.30000000E+03</rscale>
<asrwt>0</asrwt>
<pdfrwt beam="1">  1        1 0.12450073E-01 0.30000000E+03</pdfrwt>
<pdfrwt beam="2">0</pdfrwt>
<totfact> 0.55923666E+02</totfact>
</mgrwt>
</event>
<event>
 6    1  0.3125838E-002  0.3000000E+03  0.7818608E-02  0.1093470E+00
          3   -1    0    0  502    0  0.00000000000E+00  0.00000000000E+00  0.21526270740E+01  0.21526270740E+01  0.00000000000E+00 0.  1.
         13   -1    0    0    0    0 -0.00000000000E+00 -0.00000000000E+00 -0.10000000000E+04  0.10000000000E+04  0.00000000000E+00 0.  1.
    9000005    2    1    2  501    0 -0.14841610605E+02 -0.31293924662E+02 -0.83204764806E+03  0.83277396286E+03  0.30986199227E+01 0.  0.
         13    1    3    3    0    0 -0.14625732731E+01 -0.33432985481E+01 -0.67460701679E+02  0.67559329754E+02  0.00000000000E+00 0.  1.
          3    1    3    3  501    0 -0.13379037332E+02 -0.27950626114E+02 -0.76458694638E+03  0.76521463310E+03  0.00000000000E+00 0.  1.
         21    1    1    2  502  501  0.14841610605E+02  0.31293924662E+02 -0.16579972487E+03  0.16937866422E+03  0.00000000000E+00 0.  1.
<mgrwt>
<rscale>  1 0.30000000E+03</rscale>
<asrwt>0</asrwt>
<pdfrwt beam="1">  1        3 0.78277513E-02 0.30000000E+03</pdfrwt>
<pdfrwt beam="2">0</pdfrwt>
<totfact> 0.49064982E+02</totfact>
</mgrwt>
</event>
<event>
 6    1  0.3125838E-002  0.3000000E+03  0.7818608E-02  0.1093470E+00
          1   -1    0    0  502    0  0.00000000000E+00  0.00000000000E+00  0.19461168373E+01  0.19461168373E+01  0.00000000000E+00 0.  1.
         13   -1    0    0    0    0 -0.00000000000E+00 -0.00000000000E+00 -0.10000000000E+04  0.10000000000E+04  0.00000000000E+00 0.  1.
    9000005    2    1    2  501    0  0.58084197077E+01  0.40585611828E+02 -0.68279907040E+03  0.68403649667E+03  0.32293352179E+01 0.  0.
         13    1    3    3    0    0  0.61439241106E+01  0.38802053101E+02 -0.65725344417E+03  0.65842648564E+03  0.00000000000E+00 0.  1.
          1    1    3    3  501    0 -0.33550440290E+00  0.17835587270E+01 -0.25545626233E+02  0.25610011023E+02  0.00000000000E+00 0.  1.
         21    1    1    2  502  501 -0.58084197077E+01 -0.40585611828E+02 -0.31525481276E+03  0.31790962017E+03  0.00000000000E+00 0.  1.
<mgrwt>
<rscale>  1 0.30000000E+03</rscale>
<asrwt>0</asrwt>
<pdfrwt beam="1">  1        1 0.70768034E-02 0.30000000E+03</pdfrwt>
<pdfrwt beam="2">0</pdfrwt>
<totfact> 0.12220244E+03</totfact>
</mgrwt>
</event>
<event>
 6    1  0.3125838E-002  0.3000000E+03  0.7818608E-02  0.1093470E+00
          1   -1    0    0  502    0  0.00000000000E+00  0.00000000000E+00  0.49450401171E+01  0.49450401171E+01  0.00000000000E+00 0.  1.
         13   -1    0    0    0    0 -0.00000000000E+00 -0.00000000000E+00 -0.10000000000E+04  0.10000000000E+04  0.00000000000E+00 0.  1.
    9000005    2    1    2  501    0  0.45686847685E+02 -0.51444650019E+02 -0.60038192247E+03  0.60431972074E+03  0.31673296195E+01 0.  0.
         13    1    3    3    0    0  0.94013754154E+01 -0.87389486784E+01 -0.11083572034E+03  0.11157648492E+03  0.00000000000E+00 0.  1.
          1    1    3    3  501    0  0.36285472270E+02 -0.42705701341E+02 -0.48954620212E+03  0.49274323581E+03  0.00000000000E+00 0.  1.
         21    1    1    2  502  501 -0.45686847685E+02  0.51444650019E+02 -0.39467303741E+03  0.40062531938E+03  0.00000000000E+00 0.  1.
<mgrwt>
<rscale>  1 0.30000000E+03</rscale>
<asrwt>0</asrwt>
<pdfrwt beam="1">  1        1 0.17982002E-01 0.30000000E+03</pdfrwt>
<pdfrwt beam="2">0</pdfrwt>
<totfact> 0.33954219E+02</totfact>
</mgrwt>
</event>
<event>
 6    1  0.3125838E-002  0.3000000E+03  0.7818608E-02  0.1093470E+00
          1   -1    0    0  502    0  0.00000000000E+00  0.00000000000E+00  0.20348499224E+01  0.20348499224E+01  0.00000000000E+00 0.  1.
         13   -1    0    0    0    0 -0.00000000000E+00 -0.00000000000E+00 -0.10000000000E+04  0.10000000000E+04  0.00000000000E+00 0.  1.
    9000005    2    1    2  501    0  0.28974895854E+02 -0.19917969091E+02 -0.18711623808E+03  0.19042396522E+03  0.35397589922E+01 0.  0.
         13    1    3    3    0    0  0.16450746734E+02 -0.95913156755E+01 -0.10666134167E+03  0.10834787590E+03  0.00000000000E+00 0.  1.
          1    1    3    3  501    0  0.12524149120E+02 -0.10326653415E+02 -0.80454896405E+02  0.82076089316E+02  0.00000000000E+00 0.  1.
         21    1    1    2  502  501 -0.28974895854E+02  0.19917969091E+02 -0.81084891200E+03  0.81161088471E+03  0.00000000000E+00 0.  1.
<mgrwt>
<rscale>  1 0.30000000E+03</rscale>
<asrwt>0</asrwt>
<pdfrwt beam="1">  1        1 0.73994699E-02 0.30000000E+03</pdfrwt>
<pdfrwt beam="2">0</pdfrwt>
<totfact> 0.11482219E+03</totfact>
</mgrwt>
</event>
<event>
 6    1  0.3125838E-002  0.3000000E+03  0.7818608E-02  0.1093470E+00
          1   -1    0    0  502    0  0.00000000000E+00  0.00000000000E+00  0.15275229524E+01  0.15275229524E+01  0.00000000000E+00 0.  1.
         13   -1    0    0    0    0 -0.00000000000E+00 -0.00000000000E+00 -0.10000000000E+04  0.10000000000E+04  0.00000000000E+00 0.  1.
    9000005    2    1    2  501    0 -0.22701569357E+02 -0.31368906058E+02 -0.56186413639E+03  0.56320548079E+03  0.31203053825E+01 0.  0.
         13    1    3    3    0    0 -0.15556854001E+01 -0.26659630020E+01 -0.34584753032E+02  0.34722221388E+02  0.00000000000E+00 0.  1.
          1    1    3    3  501    0 -0.21145883957E+02 -0.28702943056E+02 -0.52727938336E+03  0.52848325940E+03  0.00000000000E+00 0.  1.
         21    1    1    2  502  501  0.22701569357E+02  0.31368906058E+02 -0.43660834065E+03  0.43832204216E+03  0.00000000000E+00 0.  1.
<mgrwt>
<rscale>  1 0.30000000E+03</rscale>
<asrwt>0</asrwt>
<pdfrwt beam="1">  1        1 0.55546406E-02 0.30000000E+03</pdfrwt>
<pdfrwt beam="2">0</pdfrwt>
<totfact> 0.17158947E+03</totfact>
</mgrwt>
</event>
<event>
 6    1  0.3125838E-002  0.3000000E+03  0.7818608E-02  0.1093470E+00
          1   -1    0    0  502    0  0.00000000000E+00  0.00000000000E+00  0.14234454431E+01  0.14234454431E+01  0.00000000000E+00 0.  1.
         13   -1    0    0    0    0 -0.00000000000E+00 -0.00000000000E+00 -0.10000000000E+04  0.10000000000E+04  0.00000000000E+00 0.  1.
    9000005    2    1    2  501    0 -0.30490274805E+02  0.22064258255E+02 -0.51903846344E+03  0.52041069178E+03  0.31421718135E+01 0.  0.
         13    1    3    3    0    0 -0.28848601571E+00 -0.64939812941E-01 -0.63561495054E+01  0.63630242728E+01  0.00000000000E+00 0.  1.
          1    1    3    3  501    0 -0.30201788789E+02  0.22129198067E+02 -0.51268231393E+03  0.51404766751E+03  0.00000000000E+00 0.  1.
         21    1    1    2  502  501  0.30490274805E+02 -0.22064258255E+02 -0.47953809112E+03  0.48101275366E+03  0.00000000000E+00 0.  1.
<mgrwt>
<rscale>  1 0.30000000E+03</rscale>
<asrwt>0</asrwt>
<pdfrwt beam="1">  1        1 0.51761762E-02 0.30000000E+03</pdfrwt>
<pdfrwt beam="2">0</pdfrwt>
<totfact> 0.18946785E+03</totfact>
</mgrwt>
</event>
<event>
 6    1  0.3125838E-002  0.3000000E+03  0.7818608E-02  0.1093470E+00
          3   -1    0    0  502    0  0.00000000000E+00  0.00000000000E+00  0.25677034994E+01  0.25677034994E+01  0.00000000000E+00 0.  1.
         13   -1    0    0    0    0 -0.00000000000E+00 -0.00000000000E+00 -0.10000000000E+04  0.10000000000E+04  0.00000000000E+00 0.  1.
    9000005    2    1    2  501    0 -0.16785814897E+02  0.46955600134E+02 -0.57973299201E+03  0.58190239600E+03  0.57848486706E+01 0.  0.
         13    1    3    3    0    0 -0.13020062545E+02  0.29659833779E+02 -0.35632333284E+03  0.35779260095E+03  0.00000000000E+00 0.  1.
          1    1    3    3  501    0 -0.37657523527E+01  0.17295766355E+02 -0.22340965918E+03  0.22410979505E+03  0.00000000000E+00 0.  1.
         21    1    1    2  502  501  0.16785814897E+02 -0.46955600134E+02 -0.41769930449E+03  0.42066530750E+03  0.00000000000E+00 0.  1.
<mgrwt>
<rscale>  1 0.30000000E+03</rscale>
<asrwt>0</asrwt>
<pdfrwt beam="1">  1        3 0.93371233E-02 0.30000000E+03</pdfrwt>
<pdfrwt beam="2">0</pdfrwt>
<totfact> 0.36949102E+02</totfact>
</mgrwt>
</event>
<event>
 6    1  0.3125838E-002  0.3000000E+03  0.7818608E-02  0.1093470E+00
          1   -1    0    0  502    0  0.00000000000E+00  0.00000000000E+00  0.20266442957E+01  0.20266442957E+01  0.00000000000E+00 0.  1.
         13   -1    0    0    0    0 -0.00000000000E+00 -0.00000000000E+00 -0.10000000000E+04  0.10000000000E+04  0.00000000000E+00 0.  1.
    9000005    2    1    2  501    0  0.37503777833E+02  0.57074068861E+01 -0.76807854708E+03  0.76902293000E+03  0.35361744562E+01 0.  0.
         13    1    3    3    0    0  0.52306812628E+01 -0.11157611584E+00 -0.12338119287E+03  0.12349206950E+03  0.00000000000E+00 0.  1.
          3    1    3    3  501    0  0.32273096571E+02  0.58189830019E+01 -0.64469735421E+03  0.64553086050E+03  0.00000000000E+00 0.  1.
         21    1    1    2  502  501 -0.37503777833E+02 -0.57074068861E+01 -0.22989480862E+03  0.23300371430E+03  0.00000000000E+00 0.  1.
<mgrwt>
<rscale>  1 0.30000000E+03</rscale>
<asrwt>0</asrwt>
<pdfrwt beam="1">  1        1 0.73696312E-02 0.30000000E+03</pdfrwt>
<pdfrwt beam="2">0</pdfrwt>
<totfact> 0.11547192E+03</totfact>
</mgrwt>
</event>
<event>
 6    1  0.3125838E-002  0.3000000E+03  0.7818608E-02  0.1093470E+00
          1   -1    0    0  502    0  0.00000000000E+00  0.00000000000E+00  0.33281769442E+01  0.33281769442E+01  0.00000000000E+00 0.  1.
         13   -1    0    0    0    0 -0.00000000000E+00 -0.00000000000E+00 -0.10000000000E+04  0.10000000000E+04  0.00000000000E+00 0.  1.
    9000005    2    1    2  501    0  0.43170544340E+02 -0.34394119121E+02 -0.35685606174E+03  0.36113594735E+03  0.51256546785E+01 0.  0.
         13    1    3    3    0    0  0.85601574071E+01 -0.75380667716E+01 -0.61507810453E+02  0.62556450445E+02  0.00000000000E+00 0.  1.
          3    1    3    3  501    0  0.34610386932E+02 -0.26856052350E+02 -0.29534825129E+03  0.29857949690E+03  0.00000000000E+00 0.  1.
         21    1    1    2  502  501 -0.43170544340E+02  0.34394119121E+02 -0.63981576132E+03  0.64219222960E+03  0.00000000000E+00 0.  1.
<mgrwt>
<rscale>  1 0.30000000E+03</rscale>
<asrwt>0</asrwt>
<pdfrwt beam="1">  1        1 0.12102487E-01 0.30000000E+03</pdfrwt>
<pdfrwt beam="2">0</pdfrwt>
<totfact> 0.58135624E+02</totfact>
</mgrwt>
</event>
<event>
 6    1  0.3125838E-002  0.3000000E+03  0.7818608E-02  0.1093470E+00
          1   -1    0    0  502    0  0.00000000000E+00  0.00000000000E+00  0.22091711801E+01  0.22091711801E+01  0.00000000000E+00 0.  1.
         13   -1    0    0    0    0 -0.00000000000E+00 -0.00000000000E+00 -0.10000000000E+04  0.10000000000E+04  0.00000000000E+00 0.  1.
    9000005    2    1    2  501    0 -0.33651622893E+02 -0.12225459280E+02 -0.82324963069E+03  0.82403363015E+03  0.30944472255E+01 0.  0.
         13    1    3    3    0    0 -0.92729950134E+01 -0.44544026032E+01 -0.25864374089E+03  0.25884824674E+03  0.00000000000E+00 0.  1.
          3    1    3    3  501    0 -0.24378627879E+02 -0.77710566765E+01 -0.56460588980E+03  0.56518538341E+03  0.00000000000E+00 0.  1.
         21    1    1    2  502  501  0.33651622893E+02  0.12225459280E+02 -0.17454119813E+03  0.17817554103E+03  0.00000000000E+00 0.  1.
<mgrwt>
<rscale>  1 0.30000000E+03</rscale>
<asrwt>0</asrwt>
<pdfrwt beam="1">  1        1 0.80333667E-02 0.30000000E+03</pdfrwt>
<pdfrwt beam="2">0</pdfrwt>
<totfact> 0.10238912E+03</totfact>
</mgrwt>
</event>
<event>
 6    1  0.3125838E-002  0.3000000E+03  0.7818608E-02  0.1093470E+00
          1   -1    0    0  502    0  0.00000000000E+00  0.00000000000E+00  0.95491629422E+00  0.95491629422E+00  0.00000000000E+00 0.  1.
         13   -1    0    0    0    0 -0.00000000000E+00 -0.00000000000E+00 -0.10000000000E+04  0.10000000000E+04  0.00000000000E+00 0.  1.
    9000005    2    1    2  501    0  0.13069666962E+02  0.27930015765E+02 -0.49418011412E+03  0.49514908448E+03  0.27800542690E+01 0.  0.
         13    1    3    3    0    0  0.11905839127E+02  0.23484046235E+02 -0.42887578646E+03  0.42968324338E+03  0.00000000000E+00 0.  1.
          1    1    3    3  501    0  0.11638278348E+01  0.44459695298E+01 -0.65304327657E+02  0.65465841101E+02  0.00000000000E+00 0.  1.
         21    1    1    2  502  501 -0.13069666962E+02 -0.27930015765E+02 -0.50486496959E+03  0.50580583181E+03  0.00000000000E+00 0.  1.
<mgrwt>
<rscale>  1 0.30000000E+03</rscale>
<asrwt>0</asrwt>
<pdfrwt beam="1">  1        1 0.34724302E-02 0.30000000E+03</pdfrwt>
<pdfrwt beam="2">0</pdfrwt>
<totfact> 0.33226334E+03</totfact>
</mgrwt>
</event>
<event>
 6    1  0.3125838E-002  0.3000000E+03  0.7818608E-02  0.1093470E+00
          1   -1    0    0  502    0  0.00000000000E+00  0.00000000000E+00  0.18150884390E+01  0.18150884390E+01  0.00000000000E+00 0.  1.
         13   -1    0    0    0    0 -0.00000000000E+00 -0.00000000000E+00 -0.10000000000E+04  0.10000000000E+04  0.00000000000E+00 0.  1.
    9000005    2    1    2  501    0 -0.26423568422E+02  0.31795551554E+02 -0.61758026264E+03  0.61897169899E+03  0.33795381018E+01 0.  0.
         13    1    3    3    0    0 -0.71294008526E+01  0.84041529970E+01 -0.18783749645E+03  0.18816052513E+03  0.00000000000E+00 0.  1.
          3    1    3    3  501    0 -0.19294167569E+02  0.23391398557E+02 -0.42974276619E+03  0.43081117386E+03  0.00000000000E+00 0.  1.
         21    1    1    2  502  501  0.26423568422E+02 -0.31795551554E+02 -0.38060464892E+03  0.38284338945E+03  0.00000000000E+00 0.  1.
<mgrwt>
<rscale>  1 0.30000000E+03</rscale>
<asrwt>0</asrwt>
<pdfrwt beam="1">  1        1 0.66003355E-02 0.30000000E+03</pdfrwt>
<pdfrwt beam="2">0</pdfrwt>
<totfact> 0.13471997E+03</totfact>
</mgrwt>
</event>
