<event>
 6    1  0.1543390E-002  0.6575624E+03  0.7818608E-02  0.9792691E-01
          1   -1    0    0  502    0  0.00000000000E+00  0.00000000000E+00  0.10809945568E+03  0.10809945568E+03  0.00000000000E+00 0.  1.
         13   -1    0    0    0    0 -0.00000000000E+00 -0.00000000000E+00 -0.10000000000E+04  0.10000000000E+04  0.00000000000E+00 0.  1.
    9000005    2    1    2  501    0  0.47999524764E-03  0.36474785398E-03 -0.89190287741E+03  0.11080970460E+04  0.65756240808E+03 0.  0.
         13    1    3    3    0    0 -0.19229040251E+03 -0.20924384050E+03 -0.16732178479E+03  0.32978047752E+03  0.00000000000E+00 0.  1.
          3    1    3    3  501    0  0.19229088251E+03  0.20924420525E+03 -0.72458109262E+03  0.77831656844E+03  0.00000000000E+00 0.  1.
         21    1    1    2  502  501 -0.47999524765E-03 -0.36474785398E-03  0.23330992857E-02  0.24097279331E-02  0.00000000000E+00 0.  1.
<mgrwt>
<rscale>  1 0.65756241E+03</rscale>
<asrwt>0</asrwt>
<pdfrwt beam="1">  1        1 0.39308976E+00 0.65756241E+03</pdfrwt>
<pdfrwt beam="2">0</pdfrwt>
<totfact> 0.14339872E+00</totfact>
</mgrwt>
</event>
<event>
 6    1  0.1543390E-002  0.6479002E+03  0.7818608E-02  0.9810727E-01
          3   -1    0    0  502    0  0.00000000000E+00  0.00000000000E+00  0.10498247591E+03  0.10498247591E+03  0.00000000000E+00 0.  1.
         13   -1    0    0    0    0 -0.00000000000E+00 -0.00000000000E+00 -0.10000000000E+04  0.10000000000E+04  0.00000000000E+00 0.  1.
    9000005    2    1    2  501    0 -0.16067314912E-01  0.26706020371E-01 -0.89504931173E+03  0.11049379582E+04  0.64790016217E+03 0.  0.
         13    1    3    3    0    0 -0.15103898944E+03 -0.26325237833E+03 -0.25438501218E+03  0.39601303697E+03  0.00000000000E+00 0.  1.
          1    1    3    3  501    0  0.15102292212E+03  0.26327908435E+03 -0.64066429954E+03  0.70892492125E+03  0.00000000000E+00 0.  1.
         21    1    1    2  502  501  0.16067314912E-01 -0.26706020371E-01  0.31787635894E-01  0.44517681075E-01  0.00000000000E+00 0. -1.
<mgrwt>
<rscale>  1 0.64790016E+03</rscale>
<asrwt>0</asrwt>
<pdfrwt beam="1">  1        3 0.38175526E+00 0.64790016E+03</pdfrwt>
<pdfrwt beam="2">0</pdfrwt>
<totfact> 0.73911055E-02</totfact>
</mgrwt>
</event>
<event>
 6    1  0.1543390E-002  0.6448898E+03  0.7818608E-02  0.9816416E-01
          1   -1    0    0  502    0  0.00000000000E+00  0.00000000000E+00  0.10397536681E+03  0.10397536681E+03  0.00000000000E+00 0.  1.
         13   -1    0    0    0    0 -0.00000000000E+00 -0.00000000000E+00 -0.10000000000E+04  0.10000000000E+04  0.00000000000E+00 0.  1.
    9000005    2    1    2  501    0 -0.37147820603E-03 -0.37492979220E-03 -0.89602928432E+03  0.11039706858E+04  0.64488975555E+03 0.  0.
         13    1    3    3    0    0  0.21924716413E+03 -0.18888585212E+03 -0.20456994886E+03  0.35439532740E+03  0.00000000000E+00 0.  1.
          3    1    3    3  501    0 -0.21924753561E+03  0.18888547719E+03 -0.69145933546E+03  0.74957535842E+03  0.00000000000E+00 0.  1.
         21    1    1    2  502  501  0.37147820604E-03  0.37492979221E-03  0.46511313126E-02  0.46809818301E-02  0.00000000000E+00 0.  1.
<mgrwt>
<rscale>  1 0.64488976E+03</rscale>
<asrwt>0</asrwt>
<pdfrwt beam="1">  1        1 0.37809304E+00 0.64488976E+03</pdfrwt>
<pdfrwt beam="2">0</pdfrwt>
<totfact> 0.16746311E+00</totfact>
</mgrwt>
</event>
<event>
 6    1  0.1543390E-002  0.6518554E+03  0.7818608E-02  0.9803304E-01
          1   -1    0    0  502    0  0.00000000000E+00  0.00000000000E+00  0.10622968526E+03  0.10622968526E+03  0.00000000000E+00 0.  1.
         13   -1    0    0    0    0 -0.00000000000E+00 -0.00000000000E+00 -0.10000000000E+04  0.10000000000E+04  0.00000000000E+00 0.  1.
    9000005    2    1    2  501    0  0.29599994804E-04  0.14186322619E-03 -0.89377111994E+03  0.11062288671E+04  0.65185542233E+03 0.  0.
         13    1    3    3    0    0  0.91713601415E+02  0.30304598675E+03 -0.31564499756E+03  0.44707943283E+03  0.00000000000E+00 0.  1.
          3    1    3    3  501    0 -0.91713571815E+02 -0.30304584489E+03 -0.57812612238E+03  0.65914943430E+03  0.00000000000E+00 0.  1.
         21    1    1    2  502  501 -0.29599994805E-04 -0.14186322617E-03  0.80520215484E-03  0.81813925758E-03  0.00000000000E+00 0. -1.
<mgrwt>
<rscale>  1 0.65185542E+03</rscale>
<asrwt>0</asrwt>
<pdfrwt beam="1">  1        1 0.38629058E+00 0.65185542E+03</pdfrwt>
<pdfrwt beam="2">0</pdfrwt>
<totfact> 0.15386965E+00</totfact>
</mgrwt>
</event>
<event>
 6    1  0.1543390E-002  0.6419460E+03  0.7818608E-02  0.9822010E-01
          1   -1    0    0  502    0  0.00000000000E+00  0.00000000000E+00  0.10306164980E+03  0.10306164980E+03  0.00000000000E+00 0.  1.
         13   -1    0    0    0    0 -0.00000000000E+00 -0.00000000000E+00 -0.10000000000E+04  0.10000000000E+04  0.00000000000E+00 0.  1.
    9000005    2    1    2  501    0 -0.12749538173E-02  0.12976386798E-02 -0.89697629517E+03  0.11030236612E+04  0.64194604381E+03 0.  0.
         13    1    3    3    0    0  0.20866587890E+03  0.13415762162E+03 -0.98521872447E+02  0.26691998015E+03  0.00000000000E+00 0.  1.
          1    1    3    3  501    0 -0.20866715385E+03 -0.13415632398E+03 -0.79845442273E+03  0.83610368109E+03  0.00000000000E+00 0.  1.
         21    1    1    2  502  501  0.12749538173E-02 -0.12976386798E-02  0.37944975492E-01  0.37988557994E-01  0.00000000000E+00 0. -1.
<mgrwt>
<rscale>  1 0.64194604E+03</rscale>
<asrwt>0</asrwt>
<pdfrwt beam="1">  1        1 0.37477043E+00 0.64194604E+03</pdfrwt>
<pdfrwt beam="2">0</pdfrwt>
<totfact> 0.17329602E+00</totfact>
</mgrwt>
</event>
<event>
 6    1  0.1543390E-002  0.6472413E+03  0.7818608E-02  0.9811970E-01
          1   -1    0    0  502    0  0.00000000000E+00  0.00000000000E+00  0.10628694927E+03  0.10628694927E+03  0.00000000000E+00 0.  1.
         13   -1    0    0    0    0 -0.00000000000E+00 -0.00000000000E+00 -0.10000000000E+04  0.10000000000E+04  0.00000000000E+00 0.  1.
    9000005    2    1    2  501    0  0.43502833119E+00 -0.15506855260E+01 -0.89479576446E+03  0.11043462936E+04  0.64723927748E+03 0.  0.
         13    1    3    3    0    0 -0.88498919220E+02  0.26051406468E+03 -0.73493700948E+03  0.78474966996E+03  0.00000000000E+00 0.  1.
          3    1    3    3  501    0  0.88933947551E+02 -0.26206475020E+03 -0.15985875498E+03  0.31959662368E+03  0.00000000000E+00 0.  1.
         21    1    1    2  502  501 -0.43502833119E+00  0.15506855260E+01  0.10827137257E+01  0.19406556267E+01  0.00000000000E+00 0. -1.
<mgrwt>
<rscale>  1 0.64724128E+03</rscale>
<asrwt>0</asrwt>
<pdfrwt beam="1">  1        1 0.38649881E+00 0.64724128E+03</pdfrwt>
<pdfrwt beam="2">0</pdfrwt>
<totfact> 0.15367485E+00</totfact>
</mgrwt>
</event>
<event>
 6    1  0.1543390E-002  0.6440745E+03  0.7818608E-02  0.9817962E-01
          1   -1    0    0  502    0  0.00000000000E+00  0.00000000000E+00  0.10406334439E+03  0.10406334439E+03  0.00000000000E+00 0.  1.
         13   -1    0    0    0    0 -0.00000000000E+00 -0.00000000000E+00 -0.10000000000E+04  0.10000000000E+04  0.00000000000E+00 0.  1.
    9000005    2    1    2  501    0  0.13130428380E-01  0.25305334375E-01 -0.89629138314E+03  0.11037074731E+04  0.64407448470E+03 0.  0.
         13    1    3    3    0    0 -0.24108252092E+03  0.19030677788E+03 -0.61404616338E+03  0.68657857697E+03  0.00000000000E+00 0.  1.
          1    1    3    3  501    0  0.24109565135E+03 -0.19028147255E+03 -0.28224521976E+03  0.41712889611E+03  0.00000000000E+00 0.  1.
         21    1    1    2  502  501 -0.13130428380E-01 -0.25305334375E-01  0.35472753169E+00  0.35587131078E+00  0.00000000000E+00 0.  1.
<mgrwt>
<rscale>  1 0.64407449E+03</rscale>
<asrwt>0</asrwt>
<pdfrwt beam="1">  1        1 0.37841296E+00 0.64407449E+03</pdfrwt>
<pdfrwt beam="2">0</pdfrwt>
<totfact> 0.16694516E+00</totfact>
</mgrwt>
</event>
<event>
 6    1  0.1543390E-002  0.6408842E+03  0.7818608E-02  0.9824036E-01
          1   -1    0    0  502    0  0.00000000000E+00  0.00000000000E+00  0.11335926290E+03  0.11335926290E+03  0.00000000000E+00 0.  1.
         13   -1    0    0    0    0 -0.00000000000E+00 -0.00000000000E+00 -0.10000000000E+04  0.10000000000E+04  0.00000000000E+00 0.  1.
    9000005    2    1    2  501    0 -0.10574394242E+01  0.21969747942E+01 -0.89716315154E+03  0.11025580555E+04  0.64087955213E+03 0.  0.
         13    1    3    3    0    0 -0.20858132825E+03 -0.23775389520E+03 -0.36459726917E+03  0.48266370681E+03  0.00000000000E+00 0.  1.
          1    1    3    3  501    0  0.20752388883E+03  0.23995087000E+03 -0.53256588236E+03  0.61989434866E+03  0.00000000000E+00 0.  1.
         21    1    1    2  502  501  0.10574394242E+01 -0.21969747942E+01  0.10522414437E+02  0.10801207431E+02  0.00000000000E+00 0.  1.
<mgrwt>
<rscale>  1 0.64088419E+03</rscale>
<asrwt>0</asrwt>
<pdfrwt beam="1">  1        1 0.41221637E+00 0.64088419E+03</pdfrwt>
<pdfrwt beam="2">0</pdfrwt>
<totfact> 0.11818220E+00</totfact>
</mgrwt>
</event>
<event>
 6    1  0.1543390E-002  0.6508317E+03  0.7818608E-02  0.9805220E-01
          1   -1    0    0  502    0  0.00000000000E+00  0.00000000000E+00  0.10615304647E+03  0.10615304647E+03  0.00000000000E+00 0.  1.
         13   -1    0    0    0    0 -0.00000000000E+00 -0.00000000000E+00 -0.10000000000E+04  0.10000000000E+04  0.00000000000E+00 0.  1.
    9000005    2    1    2  501    0  0.86722563821E-02 -0.17736081716E-01 -0.89410409039E+03  0.11058951528E+04  0.65083174798E+03 0.  0.
         13    1    3    3    0    0 -0.22086384600E+03 -0.23154204827E+03 -0.54765641862E+03  0.63428708913E+03  0.00000000000E+00 0.  1.
          1    1    3    3  501    0  0.22087251826E+03  0.23152431218E+03 -0.34644767176E+03  0.47160806368E+03  0.00000000000E+00 0.  1.
         21    1    1    2  502  501 -0.86722563820E-02  0.17736081716E-01  0.25713685217E+00  0.25789365515E+00  0.00000000000E+00 0. -1.
<mgrwt>
<rscale>  1 0.65083175E+03</rscale>
<asrwt>0</asrwt>
<pdfrwt beam="1">  1        1 0.38601189E+00 0.65083175E+03</pdfrwt>
<pdfrwt beam="2">0</pdfrwt>
<totfact> 0.15433647E+00</totfact>
</mgrwt>
</event>
<event>
 6    1  0.1543390E-002  0.6114788E+03  0.7818608E-02  0.9881873E-01
          1   -1    0    0  502    0  0.00000000000E+00  0.00000000000E+00  0.93584219304E+02  0.93584219304E+02  0.00000000000E+00 0.  1.
         13   -1    0    0    0    0 -0.00000000000E+00 -0.00000000000E+00 -0.10000000000E+04  0.10000000000E+04  0.00000000000E+00 0.  1.
    9000005    2    1    2  501    0  0.20010708853E-02  0.12578122262E-02 -0.90652340488E+03  0.10934765692E+04  0.61147880070E+03 0.  0.
         13    1    3    3    0    0 -0.20288637835E+03  0.23359905489E+02 -0.46389312358E+02  0.20942907154E+03  0.00000000000E+00 0.  1.
          3    1    3    3  501    0  0.20288837943E+03 -0.23358647676E+02 -0.86013409253E+03  0.88404749762E+03  0.00000000000E+00 0.  1.
         21    1    1    2  502  501 -0.20010708853E-02 -0.12578122262E-02  0.10762418764E+00  0.10765013767E+00  0.00000000000E+00 0.  1.
<mgrwt>
<rscale>  1 0.61147880E+03</rscale>
<asrwt>0</asrwt>
<pdfrwt beam="1">  1        1 0.34030697E+00 0.61147880E+03</pdfrwt>
<pdfrwt beam="2">0</pdfrwt>
<totfact> 0.24648427E+00</totfact>
</mgrwt>
</event>
<event>
 6    1  0.1543390E-002  0.6485996E+03  0.7818608E-02  0.9809410E-01
          1   -1    0    0  502    0  0.00000000000E+00  0.00000000000E+00  0.10552297873E+03  0.10552297873E+03  0.00000000000E+00 0.  1.
         13   -1    0    0    0    0 -0.00000000000E+00 -0.00000000000E+00 -0.10000000000E+04  0.10000000000E+04  0.00000000000E+00 0.  1.
    9000005    2    1    2  501    0  0.13957821580E+00 -0.37766935430E-01 -0.89481318073E+03  0.11051570394E+04  0.64859959327E+03 0.  0.
         13    1    3    3    0    0 -0.19227911298E+03  0.25943071001E+03 -0.49724396326E+03  0.59289721671E+03  0.00000000000E+00 0.  1.
          1    1    3    3  501    0  0.19241869119E+03 -0.25946847695E+03 -0.39756921747E+03  0.51225982267E+03  0.00000000000E+00 0.  1.
         21    1    1    2  502  501 -0.13957821580E+00  0.37766935430E-01  0.33615945765E+00  0.36593934020E+00  0.00000000000E+00 0.  1.
<mgrwt>
<rscale>  1 0.64859961E+03</rscale>
<asrwt>0</asrwt>
<pdfrwt beam="1">  1        1 0.38372073E+00 0.64859961E+03</pdfrwt>
<pdfrwt beam="2">0</pdfrwt>
<totfact> 0.15804512E+00</totfact>
</mgrwt>
</event>
<event>
 6    1  0.1543390E-002  0.5346280E+03  0.7818608E-02  0.1005116E+00
          1   -1    0    0  502    0  0.00000000000E+00  0.00000000000E+00  0.71456783727E+02  0.71456783727E+02  0.00000000000E+00 0.  1.
         13   -1    0    0    0    0 -0.00000000000E+00 -0.00000000000E+00 -0.10000000000E+04  0.10000000000E+04  0.00000000000E+00 0.  1.
    9000005    2    1    2  501    0 -0.36600692965E-06 -0.39244911676E-05 -0.92854321399E+03  0.10714567792E+04  0.53462802899E+03 0.  0.
         13    1    3    3    0    0  0.19205880118E+03 -0.58166946627E+02 -0.11034893838E+03  0.22901280530E+03  0.00000000000E+00 0.  1.
          3    1    3    3  501    0 -0.19205880154E+03  0.58166942703E+02 -0.81819427561E+03  0.84244397387E+03  0.00000000000E+00 0.  1.
         21    1    1    2  502  501  0.36600695500E-06  0.39244911740E-05 -0.22819069605E-05  0.45544145005E-05  0.00000000000E+00 0. -1.
<mgrwt>
<rscale>  1 0.53462803E+03</rscale>
<asrwt>0</asrwt>
<pdfrwt beam="1">  1        1 0.25984340E+00 0.53462803E+03</pdfrwt>
<pdfrwt beam="2">0</pdfrwt>
<totfact> 0.55644033E+00</totfact>
</mgrwt>
</event>
<event>
 6    1  0.1543390E-002  0.6431819E+03  0.7818608E-02  0.9819658E-01
          1   -1    0    0  502    0  0.00000000000E+00  0.00000000000E+00  0.10342384119E+03  0.10342384119E+03  0.00000000000E+00 0.  1.
         13   -1    0    0    0    0 -0.00000000000E+00 -0.00000000000E+00 -0.10000000000E+04  0.10000000000E+04  0.00000000000E+00 0.  1.
    9000005    2    1    2  501    0 -0.55171866329E-03  0.30056314114E-02 -0.89657840630E+03  0.11034200479E+04  0.64318190533E+03 0.  0.
         13    1    3    3    0    0 -0.11945932341E+03 -0.20919180563E+03 -0.81378148836E+03  0.84868843063E+03  0.00000000000E+00 0.  1.
          3    1    3    3  501    0  0.11945877169E+03  0.20919481126E+03 -0.82796917936E+02  0.25473161722E+03  0.00000000000E+00 0.  1.
         21    1    1    2  502  501  0.55171866329E-03 -0.30056314114E-02  0.22474873443E-02  0.37933379796E-02  0.00000000000E+00 0. -1.
<mgrwt>
<rscale>  1 0.64318191E+03</rscale>
<asrwt>0</asrwt>
<pdfrwt beam="1">  1        1 0.37608749E+00 0.64318191E+03</pdfrwt>
<pdfrwt beam="2">0</pdfrwt>
<totfact> 0.17095891E+00</totfact>
</mgrwt>
</event>
<event>
 6    1  0.1543390E-002  0.6472647E+03  0.7818608E-02  0.9811925E-01
          1   -1    0    0  502    0  0.00000000000E+00  0.00000000000E+00  0.10539498177E+03  0.10539498177E+03  0.00000000000E+00 0.  1.
         13   -1    0    0    0    0 -0.00000000000E+00 -0.00000000000E+00 -0.10000000000E+04  0.10000000000E+04  0.00000000000E+00 0.  1.
    9000005    2    1    2  501    0 -0.77438072786E+00 -0.10721400701E+01 -0.89442592279E+03  0.11040603563E+04  0.64726330805E+03 0.  0.
         13    1    3    3    0    0 -0.30554289916E+03 -0.96575042338E+02 -0.53140028106E+03  0.62053965284E+03  0.00000000000E+00 0.  1.
          1    1    3    3  501    0  0.30476851844E+03  0.95502902267E+02 -0.36302564172E+03  0.48352070351E+03  0.00000000000E+00 0.  1.
         21    1    1    2  502  501  0.77438072786E+00  0.10721400701E+01 -0.17909544319E+00  0.13346254229E+01  0.00000000000E+00 0.  1.
<mgrwt>
<rscale>  1 0.64726466E+03</rscale>
<asrwt>0</asrwt>
<pdfrwt beam="1">  1        1 0.38325529E+00 0.64726466E+03</pdfrwt>
<pdfrwt beam="2">0</pdfrwt>
<totfact> 0.15883466E+00</totfact>
</mgrwt>
</event>
<event>
 6    1  0.1543390E-002  0.4724745E+03  0.7818608E-02  0.1021224E+00
          1   -1    0    0  502    0  0.00000000000E+00  0.00000000000E+00  0.55913258135E+02  0.55913258135E+02  0.00000000000E+00 0.  1.
         13   -1    0    0    0    0 -0.00000000000E+00 -0.00000000000E+00 -0.10000000000E+04  0.10000000000E+04  0.00000000000E+00 0.  1.
    9000005    2    1    2  501    0 -0.38656039658E+00 -0.67298130162E-02 -0.94369069224E+03  0.10553597877E+04  0.47247434785E+03 0.  0.
         13    1    3    3    0    0 -0.22012849529E+03 -0.58005816338E+02 -0.61474729500E+03  0.65554211602E+03  0.00000000000E+00 0.  1.
          3    1    3    3  501    0  0.21974193489E+03  0.57999086525E+02 -0.32894339724E+03  0.39981767166E+03  0.00000000000E+00 0.  1.
         21    1    1    2  502  501  0.38656039658E+00  0.67298130162E-02 -0.39604962355E+00  0.55347044627E+00  0.00000000000E+00 0.  1.
<mgrwt>
<rscale>  1 0.47247451E+03</rscale>
<asrwt>0</asrwt>
<pdfrwt beam="1">  1        1 0.20332137E+00 0.47247451E+03</pdfrwt>
<pdfrwt beam="2">0</pdfrwt>
<totfact> 0.99740377E+00</totfact>
</mgrwt>
</event>
<event>
 6    1  0.1543390E-002  0.5074640E+03  0.7818608E-02  0.1011849E+00
          1   -1    0    0  502    0  0.00000000000E+00  0.00000000000E+00  0.64618436172E+02  0.64618436172E+02  0.00000000000E+00 0.  1.
         13   -1    0    0    0    0 -0.00000000000E+00 -0.00000000000E+00 -0.10000000000E+04  0.10000000000E+04  0.00000000000E+00 0.  1.
    9000005    2    1    2  501    0  0.41138336772E-02  0.43173217245E-02 -0.93562002204E+03  0.10643799034E+04  0.50746404116E+03 0.  0.
         13    1    3    3    0    0  0.24180659385E+03  0.61249260404E+02 -0.56527933178E+03  0.61786942282E+03  0.00000000000E+00 0.  1.
          1    1    3    3  501    0 -0.24180248001E+03 -0.61244943082E+02 -0.37034069027E+03  0.44651048057E+03  0.00000000000E+00 0.  1.
         21    1    1    2  502  501 -0.41138336772E-02 -0.43173217245E-02  0.23845821660E+00  0.23853277334E+00  0.00000000000E+00 0.  1.
<mgrwt>
<rscale>  1 0.50746404E+03</rscale>
<asrwt>0</asrwt>
<pdfrwt beam="1">  1        1 0.23497663E+00 0.50746404E+03</pdfrwt>
<pdfrwt beam="2">0</pdfrwt>
<totfact> 0.71739920E+00</totfact>
</mgrwt>
</event>
<event>
 6    1  0.1543390E-002  0.6357742E+03  0.7818608E-02  0.9833845E-01
          1   -1    0    0  502    0  0.00000000000E+00  0.00000000000E+00  0.10279273590E+03  0.10279273590E+03  0.00000000000E+00 0.  1.
         13   -1    0    0    0    0 -0.00000000000E+00 -0.00000000000E+00 -0.10000000000E+04  0.10000000000E+04  0.00000000000E+00 0.  1.
    9000005    2    1    2  501    0  0.62253945548E-02  0.95085152334E-01 -0.89894636329E+03  0.11010510281E+04  0.63577416856E+03 0.  0.
         13    1    3    3    0    0  0.19193241888E+02  0.24266003780E+03 -0.95353949207E+02  0.26142809740E+03  0.00000000000E+00 0.  1.
          1    1    3    3  501    0 -0.19187016493E+02 -0.24256495265E+03 -0.80359241408E+03  0.83962293074E+03  0.00000000000E+00 0.  1.
         21    1    1    2  502  501 -0.62253945548E-02 -0.95085152334E-01  0.17390991860E+01  0.17417077598E+01  0.00000000000E+00 0.  1.
<mgrwt>
<rscale>  1 0.63577418E+03</rscale>
<asrwt>0</asrwt>
<pdfrwt beam="1">  1        1 0.37379256E+00 0.63577418E+03</pdfrwt>
<pdfrwt beam="2">0</pdfrwt>
<totfact> 0.17521974E+00</totfact>
</mgrwt>
</event>
<event>
 6    1  0.1543390E-002  0.6466970E+03  0.7818608E-02  0.9812997E-01
          1   -1    0    0  502    0  0.00000000000E+00  0.00000000000E+00  0.10527479684E+03  0.10527479684E+03  0.00000000000E+00 0.  1.
         13   -1    0    0    0    0 -0.00000000000E+00 -0.00000000000E+00 -0.10000000000E+04  0.10000000000E+04  0.00000000000E+00 0.  1.
    9000005    2    1    2  501    0  0.24268539331E+00 -0.12460555657E+00 -0.89541711593E+03  0.11045310455E+04  0.64669694957E+03 0.  0.
         13    1    3    3    0    0  0.57270396337E+02 -0.45886366642E+02  0.90156862027E+02  0.11624851273E+03  0.00000000000E+00 0.  1.
          1    1    3    3  501    0 -0.57027710944E+02  0.45761761085E+02 -0.98557397796E+03  0.98828253279E+03  0.00000000000E+00 0.  1.
         21    1    1    2  502  501 -0.24268539331E+00  0.12460555657E+00  0.69191277360E+00  0.74375132344E+00  0.00000000000E+00 0. -1.
<mgrwt>
<rscale>  1 0.64669701E+03</rscale>
<asrwt>0</asrwt>
<pdfrwt beam="1">  1        1 0.38281825E+00 0.64669701E+03</pdfrwt>
<pdfrwt beam="2">0</pdfrwt>
<totfact> 0.15955922E+00</totfact>
</mgrwt>
</event>
<event>
 6    1  0.1543390E-002  0.5769381E+03  0.7818608E-02  0.9954442E-01
          1   -1    0    0  502    0  0.00000000000E+00  0.00000000000E+00  0.83214467525E+02  0.83214467525E+02  0.00000000000E+00 0.  1.
         13   -1    0    0    0    0 -0.00000000000E+00 -0.00000000000E+00 -0.10000000000E+04  0.10000000000E+04  0.00000000000E+00 0.  1.
    9000005    2    1    2  501    0  0.42027675136E-05 -0.33133648060E-04 -0.91678560576E+03  0.10832143870E+04  0.57693809134E+03 0.  0.
         13    1    3    3    0    0  0.13219246242E+03  0.24591171045E+03 -0.32213369504E+03  0.42628339627E+03  0.00000000000E+00 0.  1.
          3    1    3    3  501    0 -0.13219245821E+03 -0.24591174358E+03 -0.59465191072E+03  0.65693099072E+03  0.00000000000E+00 0.  1.
         21    1    1    2  502  501 -0.42027675292E-05  0.33133648062E-04  0.73286337355E-04  0.80538122226E-04  0.00000000000E+00 0.  1.
<mgrwt>
<rscale>  1 0.57693809E+03</rscale>
<asrwt>0</asrwt>
<pdfrwt beam="1">  1        1 0.30259870E+00 0.57693809E+03</pdfrwt>
<pdfrwt beam="2">0</pdfrwt>
<totfact> 0.36105295E+00</totfact>
</mgrwt>
</event>
<event>
 6    1  0.1543390E-002  0.6510057E+03  0.7818608E-02  0.9804894E-01
          1   -1    0    0  502    0  0.00000000000E+00  0.00000000000E+00  0.10596404977E+03  0.10596404977E+03  0.00000000000E+00 0.  1.
         13   -1    0    0    0    0 -0.00000000000E+00 -0.00000000000E+00 -0.10000000000E+04  0.10000000000E+04  0.00000000000E+00 0.  1.
    9000005    2    1    2  501    0 -0.25394253250E-01 -0.26226265682E-01 -0.89399203393E+03  0.11059069417E+04  0.65100568794E+03 0.  0.
         13    1    3    3    0    0 -0.50669684086E+01  0.19216576354E+03 -0.77602086457E+00  0.19223412042E+03  0.00000000000E+00 0.  1.
          1    1    3    3  501    0  0.50415741554E+01 -0.19219198981E+03 -0.89321601307E+03  0.91367282132E+03  0.00000000000E+00 0.  1.
         21    1    1    2  502  501  0.25394253250E-01  0.26226265682E-01 -0.43916300954E-01  0.57108025699E-01  0.00000000000E+00 0. -1.
<mgrwt>
<rscale>  1 0.65100569E+03</rscale>
<asrwt>0</asrwt>
<pdfrwt beam="1">  1        1 0.38532463E+00 0.65100569E+03</pdfrwt>
<pdfrwt beam="2">0</pdfrwt>
<totfact> 0.15541594E+00</totfact>
</mgrwt>
</event>
<event>
 6    1  0.1543390E-002  0.5168327E+03  0.7818608E-02  0.1009476E+00
          1   -1    0    0  502    0  0.00000000000E+00  0.00000000000E+00  0.70250689445E+02  0.70250689445E+02  0.00000000000E+00 0.  1.
         13   -1    0    0    0    0 -0.00000000000E+00 -0.00000000000E+00 -0.10000000000E+04  0.10000000000E+04  0.00000000000E+00 0.  1.
    9000005    2    1    2  501    0  0.40529741803E+01  0.33602180183E+01 -0.93100253995E+03  0.10648388276E+04  0.51680584525E+03 0.  0.
         13    1    3    3    0    0 -0.56905053067E+02  0.21071394245E+03 -0.17863727007E+03  0.28204578505E+03  0.00000000000E+00 0.  1.
          1    1    3    3  501    0  0.60958027247E+02 -0.20735372443E+03 -0.75236526988E+03  0.78279304254E+03  0.00000000000E+00 0.  1.
         21    1    1    2  502  501 -0.40529741803E+01 -0.33602180183E+01  0.12532293956E+01  0.54118618565E+01  0.00000000000E+00 0. -1.
<mgrwt>
<rscale>  1 0.51683266E+03</rscale>
<asrwt>0</asrwt>
<pdfrwt beam="1">  1        1 0.25545759E+00 0.51683266E+03</pdfrwt>
<pdfrwt beam="2">0</pdfrwt>
<totfact> 0.58310746E+00</totfact>
</mgrwt>
</event>
<event>
 6    1  0.1543390E-002  0.6648072E+03  0.7818608E-02  0.9779385E-01
          1   -1    0    0  502    0  0.00000000000E+00  0.00000000000E+00  0.11059505013E+03  0.11059505013E+03  0.00000000000E+00 0.  1.
         13   -1    0    0    0    0 -0.00000000000E+00 -0.00000000000E+00 -0.10000000000E+04  0.10000000000E+04  0.00000000000E+00 0.  1.
    9000005    2    1    2  501    0 -0.86060749007E-02  0.25251453128E-01 -0.88950592851E+03  0.11104906069E+04  0.66480718292E+03 0.  0.
         13    1    3    3    0    0  0.20403759927E+03  0.21478094214E+03 -0.69661703072E+03  0.75699239264E+03  0.00000000000E+00 0.  1.
          3    1    3    3  501    0 -0.20404620535E+03 -0.21475569069E+03 -0.19288889779E+03  0.35349821427E+03  0.00000000000E+00 0.  1.
         21    1    1    2  502  501  0.86060749007E-02 -0.25251453128E-01  0.10097864496E+00  0.10444322452E+00  0.00000000000E+00 0.  1.
<mgrwt>
<rscale>  1 0.66480718E+03</rscale>
<asrwt>0</asrwt>
<pdfrwt beam="1">  1        1 0.40216467E+00 0.66480718E+03</pdfrwt>
<pdfrwt beam="2">0</pdfrwt>
<totfact> 0.13047995E+00</totfact>
</mgrwt>
</event>
<event>
 6    1  0.1543390E-002  0.6686314E+03  0.7818608E-02  0.9772433E-01
          1   -1    0    0  502    0  0.00000000000E+00  0.00000000000E+00  0.11195135348E+03  0.11195135348E+03  0.00000000000E+00 0.  1.
         13   -1    0    0    0    0 -0.00000000000E+00 -0.00000000000E+00 -0.10000000000E+04  0.10000000000E+04  0.00000000000E+00 0.  1.
    9000005    2    1    2  501    0  0.25248615313E-02  0.95070141273E-02 -0.88823288001E+03  0.11117668576E+04  0.66863136059E+03 0.  0.
         13    1    3    3    0    0  0.19817398178E+03  0.26879101614E+03 -0.41791151235E+03  0.53495006269E+03  0.00000000000E+00 0.  1.
          3    1    3    3  501    0 -0.19817145692E+03 -0.26878150912E+03 -0.47032136766E+03  0.57681679489E+03  0.00000000000E+00 0.  1.
         21    1    1    2  502  501 -0.25248615313E-02 -0.95070141274E-02  0.18423349597E+00  0.18449590587E+00  0.00000000000E+00 0. -1.
<mgrwt>
<rscale>  1 0.66863136E+03</rscale>
<asrwt>0</asrwt>
<pdfrwt beam="1">  1        1 0.40709669E+00 0.66863136E+03</pdfrwt>
<pdfrwt beam="2">0</pdfrwt>
<totfact> 0.12393069E+00</totfact>
</mgrwt>
</event>
<event>
 6    1  0.1543390E-002  0.6479232E+03  0.7818608E-02  0.9810684E-01
          1   -1    0    0  502    0  0.00000000000E+00  0.00000000000E+00  0.10500027671E+03  0.10500027671E+03  0.00000000000E+00 0.  1.
         13   -1    0    0    0    0 -0.00000000000E+00 -0.00000000000E+00 -0.10000000000E+04  0.10000000000E+04  0.00000000000E+00 0.  1.
    9000005    2    1    2  501    0 -0.20282460372E-02  0.11838300624E-02 -0.89504884943E+03  0.11049510945E+04  0.64792320400E+03 0.  0.
         13    1    3    3    0    0 -0.18996482343E+03 -0.62686617645E+02 -0.88209490802E+03  0.90449304747E+03  0.00000000000E+00 0.  1.
          3    1    3    3  501    0  0.18996279518E+03  0.62687801475E+02 -0.12953941418E+02  0.20045804700E+03  0.00000000000E+00 0.  1.
         21    1    1    2  502  501  0.20282460372E-02 -0.11838300624E-02  0.49126145577E-01  0.49182246948E-01  0.00000000000E+00 0.  1.
<mgrwt>
<rscale>  1 0.64792320E+03</rscale>
<asrwt>0</asrwt>
<pdfrwt beam="1">  1        1 0.38181999E+00 0.64792320E+03</pdfrwt>
<pdfrwt beam="2">0</pdfrwt>
<totfact> 0.16115104E+00</totfact>
</mgrwt>
</event>
<event>
 6    1  0.1543390E-002  0.5767368E+03  0.7818608E-02  0.9954881E-01
          1   -1    0    0  502    0  0.00000000000E+00  0.00000000000E+00  0.83156525437E+02  0.83156525437E+02  0.00000000000E+00 0.  1.
         13   -1    0    0    0    0 -0.00000000000E+00 -0.00000000000E+00 -0.10000000000E+04  0.10000000000E+04  0.00000000000E+00 0.  1.
    9000005    2    1    2  501    0  0.28913416274E-03 -0.87808846999E-04 -0.91684355214E+03  0.10831562135E+04  0.57673675421E+03 0.  0.
         13    1    3    3    0    0 -0.12179346784E+03 -0.33849603237E+02  0.28347708619E+02  0.12954936137E+03  0.00000000000E+00 0.  1.
          1    1    3    3  501    0  0.12179375698E+03  0.33849515428E+02 -0.94519126076E+03  0.95360685209E+03  0.00000000000E+00 0.  1.
         21    1    1    2  502  501 -0.28913416274E-03  0.87808846998E-04  0.77578485873E-04  0.31197336288E-03  0.00000000000E+00 0.  1.
<mgrwt>
<rscale>  1 0.57673675E+03</rscale>
<asrwt>0</asrwt>
<pdfrwt beam="1">  1        1 0.30238800E+00 0.57673675E+03</pdfrwt>
<pdfrwt beam="2">0</pdfrwt>
<totfact> 0.36182229E+00</totfact>
</mgrwt>
</event>
<event>
 6    1  0.1543390E-002  0.6521223E+03  0.7818608E-02  0.9802805E-01
          1   -1    0    0  502    0  0.00000000000E+00  0.00000000000E+00  0.11015658674E+03  0.11015658674E+03  0.00000000000E+00 0.  1.
         13   -1    0    0    0    0 -0.00000000000E+00 -0.00000000000E+00 -0.10000000000E+04  0.10000000000E+04  0.00000000000E+00 0.  1.
    9000005    2    1    2  501    0  0.39786312171E+01 -0.24331508286E+01 -0.89205079770E+03  0.11049969089E+04  0.65210566113E+03 0.  0.
         13    1    3    3    0    0 -0.17352105941E+03 -0.25170335827E+03 -0.25441020553E+03  0.39772941970E+03  0.00000000000E+00 0.  1.
          3    1    3    3  501    0  0.17749969062E+03  0.24927020744E+03 -0.63764059218E+03  0.70726748920E+03  0.00000000000E+00 0.  1.
         21    1    1    2  502  501 -0.39786312171E+01  0.24331508286E+01  0.22073844433E+01  0.51596778385E+01  0.00000000000E+00 0. -1.
<mgrwt>
<rscale>  1 0.65212234E+03</rscale>
<asrwt>0</asrwt>
<pdfrwt beam="1">  1        1 0.40057025E+00 0.65212234E+03</pdfrwt>
<pdfrwt beam="2">0</pdfrwt>
<totfact> 0.13295276E+00</totfact>
</mgrwt>
</event>
<event>
 6    1  0.1543390E-002  0.6328402E+03  0.7818608E-02  0.9839522E-01
          1   -1    0    0  502    0  0.00000000000E+00  0.00000000000E+00  0.10038404454E+03  0.10038404454E+03  0.00000000000E+00 0.  1.
         13   -1    0    0    0    0 -0.00000000000E+00 -0.00000000000E+00 -0.10000000000E+04  0.10000000000E+04  0.00000000000E+00 0.  1.
    9000005    2    1    2  501    0  0.26438916288E+00 -0.71529716371E+00 -0.89900224856E+03  0.10994051739E+04  0.63283972049E+03 0.  0.
         13    1    3    3    0    0  0.18627930468E+03  0.21245545261E+03 -0.20247322575E+03  0.34760999100E+03  0.00000000000E+00 0.  1.
          3    1    3    3  501    0 -0.18601491552E+03 -0.21317074977E+03 -0.69652902281E+03  0.75179518286E+03  0.00000000000E+00 0.  1.
         21    1    1    2  502  501 -0.26438916288E+00  0.71529716371E+00 -0.61370689528E+00  0.97887068358E+00  0.00000000000E+00 0.  1.
<mgrwt>
<rscale>  1 0.63284018E+03</rscale>
<asrwt>0</asrwt>
<pdfrwt beam="1">  1        1 0.36503366E+00 0.63284018E+03</pdfrwt>
<pdfrwt beam="2">0</pdfrwt>
<totfact> 0.19154455E+00</totfact>
</mgrwt>
</event>
<event>
 6    1  0.1543390E-002  0.6703127E+03  0.7818608E-02  0.9769393E-01
          1   -1    0    0  502    0  0.00000000000E+00  0.00000000000E+00  0.11237311177E+03  0.11237311177E+03  0.00000000000E+00 0.  1.
         13   -1    0    0    0    0 -0.00000000000E+00 -0.00000000000E+00 -0.10000000000E+04  0.10000000000E+04  0.00000000000E+00 0.  1.
    9000005    2    1    2  501    0  0.21029152120E-02 -0.26064270780E-02 -0.88767016083E+03  0.11123297098E+04  0.67031266495E+03 0.  0.
         13    1    3    3    0    0  0.15965233417E+03  0.24879256840E+03 -0.70591157943E+03  0.76530893623E+03  0.00000000000E+00 0.  1.
          3    1    3    3  501    0 -0.15965023125E+03 -0.24879517483E+03 -0.18175858140E+03  0.34702077354E+03  0.00000000000E+00 0.  1.
         21    1    1    2  502  501 -0.21029152120E-02  0.26064270779E-02  0.43272596118E-01  0.43401996375E-01  0.00000000000E+00 0.  1.
<mgrwt>
<rscale>  1 0.67031266E+03</rscale>
<asrwt>0</asrwt>
<pdfrwt beam="1">  1        1 0.40863036E+00 0.67031266E+03</pdfrwt>
<pdfrwt beam="2">0</pdfrwt>
<totfact> 0.12194682E+00</totfact>
</mgrwt>
</event>
<event>
 6    1  0.1543390E-002  0.6487441E+03  0.7818608E-02  0.9809139E-01
          1   -1    0    0  502    0  0.00000000000E+00  0.00000000000E+00  0.10527037849E+03  0.10527037849E+03  0.00000000000E+00 0.  1.
         13   -1    0    0    0    0 -0.00000000000E+00 -0.00000000000E+00 -0.10000000000E+04  0.10000000000E+04  0.00000000000E+00 0.  1.
    9000005    2    1    2  501    0 -0.13269745280E-01  0.20142206140E-01 -0.89477973583E+03  0.11052147616E+04  0.64874408900E+03 0.  0.
         13    1    3    3    0    0  0.72894616267E+02 -0.30685292548E+03 -0.57642033047E+03  0.65706372623E+03  0.00000000000E+00 0.  1.
          3    1    3    3  501    0 -0.72907886012E+02  0.30687306769E+03 -0.31835940536E+03  0.44815103536E+03  0.00000000000E+00 0.  1.
         21    1    1    2  502  501  0.13269745280E-01 -0.20142206140E-01  0.50114318407E-01  0.55616899567E-01  0.00000000000E+00 0. -1.
<mgrwt>
<rscale>  1 0.64874409E+03</rscale>
<asrwt>0</asrwt>
<pdfrwt beam="1">  1        1 0.38280218E+00 0.64874409E+03</pdfrwt>
<pdfrwt beam="2">0</pdfrwt>
<totfact> 0.15952504E+00</totfact>
</mgrwt>
</event>
<event>
 6    1  0.1543390E-002  0.6474326E+03  0.7818608E-02  0.9811609E-01
          1   -1    0    0  502    0  0.00000000000E+00  0.00000000000E+00  0.10479884817E+03  0.10479884817E+03  0.00000000000E+00 0.  1.
         13   -1    0    0    0    0 -0.00000000000E+00 -0.00000000000E+00 -0.10000000000E+04  0.10000000000E+04  0.00000000000E+00 0.  1.
    9000005    2    1    2  501    0 -0.13780563833E-02 -0.44795141746E-03 -0.89520766582E+03  0.11047921750E+04  0.64743261030E+03 0.  0.
         13    1    3    3    0    0  0.86499197419E+02 -0.36392251556E+02  0.81071836064E+02  0.12401269987E+03  0.00000000000E+00 0.  1.
          1    1    3    3  501    0 -0.86500575475E+02  0.36391803605E+02 -0.97627950189E+03  0.98077947508E+03  0.00000000000E+00 0.  1.
         21    1    1    2  502  501  0.13780563833E-02  0.44795141747E-03  0.65139914234E-02  0.66732139283E-02  0.00000000000E+00 0.  1.
<mgrwt>
<rscale>  1 0.64743261E+03</rscale>
<asrwt>0</asrwt>
<pdfrwt beam="1">  1        1 0.38108752E+00 0.64743261E+03</pdfrwt>
<pdfrwt beam="2">0</pdfrwt>
<totfact> 0.16237025E+00</totfact>
</mgrwt>
</event>
<event>
 6    1  0.1543390E-002  0.6446011E+03  0.7818608E-02  0.9816963E-01
          1   -1    0    0  502    0  0.00000000000E+00  0.00000000000E+00  0.10397159494E+03  0.10397159494E+03  0.00000000000E+00 0.  1.
         13   -1    0    0    0    0 -0.00000000000E+00 -0.00000000000E+00 -0.10000000000E+04  0.10000000000E+04  0.00000000000E+00 0.  1.
    9000005    2    1    2  501    0  0.73473347049E-01 -0.56780498453E-01 -0.89609633866E+03  0.11038565413E+04  0.64460112245E+03 0.  0.
         13    1    3    3    0    0 -0.17018266930E+03  0.20263379388E+03 -0.76297370339E+03  0.80755895600E+03  0.00000000000E+00 0.  1.
          1    1    3    3  501    0  0.17025614265E+03 -0.20269057438E+03 -0.13312263527E+03  0.29629758533E+03  0.00000000000E+00 0.  1.
         21    1    1    2  502  501 -0.73473347049E-01  0.56780498453E-01  0.67933608462E-01  0.11505360876E+00  0.00000000000E+00 0.  1.
<mgrwt>
<rscale>  1 0.64460113E+03</rscale>
<asrwt>0</asrwt>
<pdfrwt beam="1">  1        1 0.37807932E+00 0.64460113E+03</pdfrwt>
<pdfrwt beam="2">0</pdfrwt>
<totfact> 0.16749530E+00</totfact>
</mgrwt>
</event>
<event>
 6    1  0.1543390E-002  0.6703992E+03  0.7818608E-02  0.9769237E-01
          1   -1    0    0  502    0  0.00000000000E+00  0.00000000000E+00  0.11238446646E+03  0.11238446646E+03  0.00000000000E+00 0.  1.
         13   -1    0    0    0    0 -0.00000000000E+00 -0.00000000000E+00 -0.10000000000E+04  0.10000000000E+04  0.00000000000E+00 0.  1.
    9000005    2    1    2  501    0 -0.26815678242E-01  0.18411949746E-02 -0.88763313785E+03  0.11123523358E+04  0.67039923233E+03 0.  0.
         13    1    3    3    0    0 -0.20312713250E+03  0.24768566183E+03 -0.60771420138E+03  0.68696824497E+03  0.00000000000E+00 0.  1.
          1    1    3    3  501    0  0.20310031682E+03 -0.24768382064E+03 -0.27991893647E+03  0.42538409078E+03  0.00000000000E+00 0.  1.
         21    1    1    2  502  501  0.26815678242E-01 -0.18411949746E-02  0.17604312014E-01  0.32130708053E-01  0.00000000000E+00 0.  1.
<mgrwt>
<rscale>  1 0.67039923E+03</rscale>
<asrwt>0</asrwt>
<pdfrwt beam="1">  1        1 0.40867165E+00 0.67039923E+03</pdfrwt>
<pdfrwt beam="2">0</pdfrwt>
<totfact> 0.12189287E+00</totfact>
</mgrwt>
</event>
<event>
 6    1  0.1543390E-002  0.6373784E+03  0.7818608E-02  0.9830755E-01
          1   -1    0    0  502    0  0.00000000000E+00  0.00000000000E+00  0.10382677774E+03  0.10382677774E+03  0.00000000000E+00 0.  1.
         13   -1    0    0    0    0 -0.00000000000E+00 -0.00000000000E+00 -0.10000000000E+04  0.10000000000E+04  0.00000000000E+00 0.  1.
    9000005    2    1    2  501    0 -0.73432953466E+00  0.60812211265E+00 -0.89832610965E+03  0.11014722127E+04  0.63737769574E+03 0.  0.
         13    1    3    3    0    0  0.11370278967E+02 -0.13095594953E+03 -0.95040983472E+03  0.95945692863E+03  0.00000000000E+00 0.  1.
          3    1    3    3  501    0 -0.12104608502E+02  0.13156407165E+03  0.52083725067E+02  0.14201528408E+03  0.00000000000E+00 0.  1.
         21    1    1    2  502  501  0.73432953466E+00 -0.60812211265E+00  0.21528873876E+01  0.23545650284E+01  0.00000000000E+00 0.  1.
<mgrwt>
<rscale>  1 0.63737841E+03</rscale>
<asrwt>0</asrwt>
<pdfrwt beam="1">  1        1 0.37755272E+00 0.63737841E+03</pdfrwt>
<pdfrwt beam="2">0</pdfrwt>
<totfact> 0.16861708E+00</totfact>
</mgrwt>
</event>
