<event>
 6    1  0.3423454E-002  0.6459775E+03  0.7818608E-02  0.9814357E-01
          1   -1    0    0  502    0  0.00000000000E+00  0.00000000000E+00  0.10434038207E+03  0.10434038207E+03  0.00000000000E+00 0.  1.
         13   -1    0    0    0    0 -0.00000000000E+00 -0.00000000000E+00 -0.10000000000E+04  0.10000000000E+04  0.00000000000E+00 0.  1.
    9000005    2    1    2  501    0 -0.32719115796E-03 -0.20395772310E-04 -0.89567827148E+03  0.11043217256E+04  0.64597748236E+03 0.  0.
         13    1    3    3    0    0 -0.29460924499E+03  0.11074976073E+03 -0.32383369242E+03  0.45158429676E+03  0.00000000000E+00 0.  1.
          1    1    3    3  501    0  0.29460891779E+03 -0.11074978113E+03 -0.57184457906E+03  0.65273742888E+03  0.00000000000E+00 0.  1.
         21    1    1    2  502  501  0.32719115797E-03  0.20395772316E-04  0.18653546804E-01  0.18656427268E-01  0.00000000000E+00 0. -1.
<mgrwt>
<rscale>  1 0.64597748E+03</rscale>
<asrwt>0</asrwt>
<pdfrwt beam="1">  1        1 0.37942037E+00 0.64597748E+03</pdfrwt>
<pdfrwt beam="2">0</pdfrwt>
<totfact> 0.16518836E+00</totfact>
</mgrwt>
</event>
<event>
 6    1  0.3423454E-002  0.6566098E+03  0.7818608E-02  0.9794455E-01
          1   -1    0    0  502    0  0.00000000000E+00  0.00000000000E+00  0.10781278563E+03  0.10781278563E+03  0.00000000000E+00 0.  1.
         13   -1    0    0    0    0 -0.00000000000E+00 -0.00000000000E+00 -0.10000000000E+04  0.10000000000E+04  0.00000000000E+00 0.  1.
    9000005    2    1    2  501    0 -0.34223072544E-03  0.20700533894E-03 -0.89221587602E+03  0.11077841212E+04  0.65660984592E+03 0.  0.
         13    1    3    3    0    0  0.13277335975E+03 -0.91095314854E+02 -0.92880579353E+03  0.94265970718E+03  0.00000000000E+00 0.  1.
          1    1    3    3  501    0 -0.13277370198E+03  0.91095521859E+02  0.36589917515E+02  0.16512441401E+03  0.00000000000E+00 0.  1.
         21    1    1    2  502  501  0.34223072545E-03 -0.20700533894E-03  0.28661643682E-01  0.28664434263E-01  0.00000000000E+00 0.  1.
<mgrwt>
<rscale>  1 0.65660985E+03</rscale>
<asrwt>0</asrwt>
<pdfrwt beam="1">  1        1 0.39204732E+00 0.65660985E+03</pdfrwt>
<pdfrwt beam="2">0</pdfrwt>
<totfact> 0.14496111E+00</totfact>
</mgrwt>
</event>
<event>
 6    1  0.3423454E-002  0.6336848E+03  0.7818608E-02  0.9837884E-01
          1   -1    0    0  502    0  0.00000000000E+00  0.00000000000E+00  0.10192227502E+03  0.10192227502E+03  0.00000000000E+00 0.  1.
         13   -1    0    0    0    0 -0.00000000000E+00 -0.00000000000E+00 -0.10000000000E+04  0.10000000000E+04  0.00000000000E+00 0.  1.
    9000005    2    1    2  501    0  0.12871156854E+01  0.11693555379E+01 -0.89904950551E+03  0.10999301865E+04  0.63368239507E+03 0.  0.
         13    1    3    3    0    0 -0.22925551609E+03  0.10100088267E+03 -0.78503752921E+03  0.82404077098E+03  0.00000000000E+00 0.  1.
          3    1    3    3  501    0  0.23054263177E+03 -0.99831527129E+02 -0.11401197630E+03  0.27588941555E+03  0.00000000000E+00 0.  1.
         21    1    1    2  502  501 -0.12871156854E+01 -0.11693555379E+01  0.97178053227E+00  0.19920884932E+01  0.00000000000E+00 0.  1.
<mgrwt>
<rscale>  1 0.63368478E+03</rscale>
<asrwt>0</asrwt>
<pdfrwt beam="1">  1        1 0.37062724E+00 0.63368478E+03</pdfrwt>
<pdfrwt beam="2">0</pdfrwt>
<totfact> 0.18099331E+00</totfact>
</mgrwt>
</event>
<event>
 6    1  0.3423454E-002  0.5997679E+03  0.7818608E-02  0.9905888E-01
          1   -1    0    0  502    0  0.00000000000E+00  0.00000000000E+00  0.89979785287E+02  0.89979785287E+02  0.00000000000E+00 0.  1.
         13   -1    0    0    0    0 -0.00000000000E+00 -0.00000000000E+00 -0.10000000000E+04  0.10000000000E+04  0.00000000000E+00 0.  1.
    9000005    2    1    2  501    0 -0.24270743422E-02 -0.17338742727E-02 -0.91006956140E+03  0.10899303485E+04  0.59976792016E+03 0.  0.
         13    1    3    3    0    0 -0.19983713769E+03 -0.15888618631E+03 -0.16913560890E+03  0.30624590772E+03  0.00000000000E+00 0.  1.
          1    1    3    3  501    0  0.19983471062E+03  0.15888445243E+03 -0.74093395250E+03  0.78368444081E+03  0.00000000000E+00 0.  1.
         21    1    1    2  502  501  0.24270743422E-02  0.17338742727E-02  0.49346687903E-01  0.49436753704E-01  0.00000000000E+00 0. -1.
<mgrwt>
<rscale>  1 0.59976792E+03</rscale>
<asrwt>0</asrwt>
<pdfrwt beam="1">  1        1 0.32719991E+00 0.59976792E+03</pdfrwt>
<pdfrwt beam="2">0</pdfrwt>
<totfact> 0.28152661E+00</totfact>
</mgrwt>
</event>
<event>
 6    1  0.3423454E-002  0.6345385E+03  0.7818608E-02  0.9836232E-01
          1   -1    0    0  502    0  0.00000000000E+00  0.00000000000E+00  0.10065981166E+03  0.10065981166E+03  0.00000000000E+00 0.  1.
         13   -1    0    0    0    0 -0.00000000000E+00 -0.00000000000E+00 -0.10000000000E+04  0.10000000000E+04  0.00000000000E+00 0.  1.
    9000005    2    1    2  501    0 -0.22667049862E-04 -0.74344252823E-04 -0.89934019854E+03  0.11006597333E+04  0.63453845883E+03 0.  0.
         13    1    3    3    0    0  0.43984491330E+02 -0.29767683493E+03 -0.62411136916E+03  0.69286444175E+03  0.00000000000E+00 0.  1.
          1    1    3    3  501    0 -0.43984513997E+02  0.29767676058E+03 -0.27522882938E+03  0.40779529152E+03  0.00000000000E+00 0.  1.
         21    1    1    2  502  501  0.22667049858E-04  0.74344252844E-04  0.10207659744E-04  0.78390429248E-04  0.00000000000E+00 0. -1.
<mgrwt>
<rscale>  1 0.63453846E+03</rscale>
<asrwt>0</asrwt>
<pdfrwt beam="1">  1        1 0.36603645E+00 0.63453846E+03</pdfrwt>
<pdfrwt beam="2">0</pdfrwt>
<totfact> 0.18955726E+00</totfact>
</mgrwt>
</event>
<event>
 6    1  0.3423454E-002  0.6506989E+03  0.7818608E-02  0.9805469E-01
          1   -1    0    0  502    0  0.00000000000E+00  0.00000000000E+00  0.10585274206E+03  0.10585274206E+03  0.00000000000E+00 0.  1.
         13   -1    0    0    0    0 -0.00000000000E+00 -0.00000000000E+00 -0.10000000000E+04  0.10000000000E+04  0.00000000000E+00 0.  1.
    9000005    2    1    2  501    0  0.80153937461E-05 -0.18726174922E-06 -0.89414774551E+03  0.11058522544E+04  0.65069886877E+03 0.  0.
         13    1    3    3    0    0  0.27395753930E+03  0.13325072708E+02 -0.14967892771E+03  0.31246451367E+03  0.00000000000E+00 0.  1.
          1    1    3    3  501    0 -0.27395753128E+03 -0.13325072895E+02 -0.74446881780E+03  0.79338774076E+03  0.00000000000E+00 0.  1.
         21    1    1    2  502  501 -0.80153937490E-05  0.18726174873E-06  0.48756792610E-03  0.48763384231E-03  0.00000000000E+00 0. -1.
<mgrwt>
<rscale>  1 0.65069887E+03</rscale>
<asrwt>0</asrwt>
<pdfrwt beam="1">  1        1 0.38491987E+00 0.65069887E+03</pdfrwt>
<pdfrwt beam="2">0</pdfrwt>
<totfact> 0.15606683E+00</totfact>
</mgrwt>
</event>
<event>
 6    1  0.3423454E-002  0.7021505E+03  0.7818608E-02  0.9713562E-01
          1   -1    0    0  502    0  0.00000000000E+00  0.00000000000E+00  0.12325509898E+03  0.12325509898E+03  0.00000000000E+00 0.  1.
         13   -1    0    0    0    0 -0.00000000000E+00 -0.00000000000E+00 -0.10000000000E+04  0.10000000000E+04  0.00000000000E+00 0.  1.
    9000005    2    1    2  501    0  0.58678092816E-03  0.49811193935E-03 -0.87674604071E+03  0.11232537237E+04  0.70215048811E+03 0.  0.
         13    1    3    3    0    0  0.17393660017E+03 -0.19635871093E+03 -0.65106303688E+02  0.27027673784E+03  0.00000000000E+00 0.  1.
          1    1    3    3  501    0 -0.17393601339E+03  0.19635920905E+03 -0.81163973703E+03  0.85297698588E+03  0.00000000000E+00 0.  1.
         21    1    1    2  502  501 -0.58678092818E-03 -0.49811193935E-03  0.11396951899E-02  0.13752572442E-02  0.00000000000E+00 0.  1.
<mgrwt>
<rscale>  1 0.70215049E+03</rscale>
<asrwt>0</asrwt>
<pdfrwt beam="1">  1        1 0.44820131E+00 0.70215049E+03</pdfrwt>
<pdfrwt beam="2">0</pdfrwt>
<totfact> 0.80131684E-01</totfact>
</mgrwt>
</event>
<event>
 6    1  0.3423454E-002  0.6545613E+03  0.7818608E-02  0.9798258E-01
          1   -1    0    0  502    0  0.00000000000E+00  0.00000000000E+00  0.10711263627E+03  0.10711263627E+03  0.00000000000E+00 0.  1.
         13   -1    0    0    0    0 -0.00000000000E+00 -0.00000000000E+00 -0.10000000000E+04  0.10000000000E+04  0.00000000000E+00 0.  1.
    9000005    2    1    2  501    0 -0.11753551803E-05 -0.72054734801E-06 -0.89288736857E+03  0.11071126312E+04  0.65456132280E+03 0.  0.
         13    1    3    3    0    0  0.20203127348E+03  0.22995480137E+03 -0.64235778310E+03  0.71156121848E+03  0.00000000000E+00 0.  1.
          3    1    3    3  501    0 -0.20203127465E+03 -0.22995480209E+03 -0.25052958547E+03  0.39555141276E+03  0.00000000000E+00 0.  1.
         21    1    1    2  502  501  0.11753551569E-05  0.72054734659E-06  0.48395860265E-05  0.50321209377E-05  0.00000000000E+00 0. -1.
<mgrwt>
<rscale>  1 0.65456132E+03</rscale>
<asrwt>0</asrwt>
<pdfrwt beam="1">  1        1 0.38950132E+00 0.65456132E+03</pdfrwt>
<pdfrwt beam="2">0</pdfrwt>
<totfact> 0.14883746E+00</totfact>
</mgrwt>
</event>
<event>
 6    1  0.3423454E-002  0.6455976E+03  0.7818608E-02  0.9815075E-01
          1   -1    0    0  502    0  0.00000000000E+00  0.00000000000E+00  0.10488737641E+03  0.10488737641E+03  0.00000000000E+00 0.  1.
         13   -1    0    0    0    0 -0.00000000000E+00 -0.00000000000E+00 -0.10000000000E+04  0.10000000000E+04  0.00000000000E+00 0.  1.
    9000005    2    1    2  501    0 -0.30318363898E-01  0.19734481085E-01 -0.89580041785E+03  0.11041986315E+04  0.64559757421E+03 0.  0.
         13    1    3    3    0    0  0.12875229871E+03 -0.11286309922E+03  0.20129873375E+02  0.17239618729E+03  0.00000000000E+00 0.  1.
          1    1    3    3  501    0 -0.12878261708E+03  0.11288283370E+03 -0.91593029122E+03  0.93180244418E+03  0.00000000000E+00 0.  1.
         21    1    1    2  502  501  0.30318363898E-01 -0.19734481085E-01  0.68779425707E+00  0.68874494045E+00  0.00000000000E+00 0.  1.
<mgrwt>
<rscale>  1 0.64559758E+03</rscale>
<asrwt>0</asrwt>
<pdfrwt beam="1">  1        1 0.38140945E+00 0.64559758E+03</pdfrwt>
<pdfrwt beam="2">0</pdfrwt>
<totfact> 0.16189449E+00</totfact>
</mgrwt>
</event>
<event>
 6    1  0.3423454E-002  0.6389485E+03  0.7818608E-02  0.9827740E-01
          1   -1    0    0  502    0  0.00000000000E+00  0.00000000000E+00  0.10206430210E+03  0.10206430210E+03  0.00000000000E+00 0.  1.
         13   -1    0    0    0    0 -0.00000000000E+00 -0.00000000000E+00 -0.10000000000E+04  0.10000000000E+04  0.00000000000E+00 0.  1.
    9000005    2    1    2  501    0 -0.16572805436E-04 -0.15745168412E-04 -0.89793620632E+03  0.11020637932E+04  0.63894849057E+03 0.  0.
         13    1    3    3    0    0  0.19777384937E+03  0.24397704513E+03 -0.34803374018E+03  0.46879289494E+03  0.00000000000E+00 0.  1.
          3    1    3    3  501    0 -0.19777386594E+03 -0.24397706088E+03 -0.54990246613E+03  0.63327089823E+03  0.00000000000E+00 0.  1.
         21    1    1    2  502  501  0.16572805422E-04  0.15745168429E-04  0.50841447559E-03  0.50892813559E-03  0.00000000000E+00 0. -1.
<mgrwt>
<rscale>  1 0.63894849E+03</rscale>
<asrwt>0</asrwt>
<pdfrwt beam="1">  1        1 0.37114370E+00 0.63894849E+03</pdfrwt>
<pdfrwt beam="2">0</pdfrwt>
<totfact> 0.17987698E+00</totfact>
</mgrwt>
</event>
<event>
 6    1  0.3423454E-002  0.6473743E+03  0.7818608E-02  0.9811719E-01
          1   -1    0    0  502    0  0.00000000000E+00  0.00000000000E+00  0.10481486565E+03  0.10481486565E+03  0.00000000000E+00 0.  1.
         13   -1    0    0    0    0 -0.00000000000E+00 -0.00000000000E+00 -0.10000000000E+04  0.10000000000E+04  0.00000000000E+00 0.  1.
    9000005    2    1    2  501    0  0.97760013244E-03 -0.16591326563E-02 -0.89522661399E+03  0.11047733413E+04  0.64737426990E+03 0.  0.
         13    1    3    3    0    0 -0.15720000414E+03 -0.26302000259E+03 -0.62563756831E+03  0.69664462242E+03  0.00000000000E+00 0.  1.
          1    1    3    3  501    0  0.15720098174E+03  0.26301834346E+03 -0.26958904568E+03  0.40812871892E+03  0.00000000000E+00 0.  1.
         21    1    1    2  502  501 -0.97760013245E-03  0.16591326563E-02  0.41479641124E-01  0.41524318789E-01  0.00000000000E+00 0. -1.
<mgrwt>
<rscale>  1 0.64737427E+03</rscale>
<asrwt>0</asrwt>
<pdfrwt beam="1">  1        1 0.38114577E+00 0.64737427E+03</pdfrwt>
<pdfrwt beam="2">0</pdfrwt>
<totfact> 0.16227589E+00</totfact>
</mgrwt>
</event>
<event>
 6    1  0.3423454E-002  0.6375513E+03  0.7818608E-02  0.9830423E-01
          1   -1    0    0  502    0  0.00000000000E+00  0.00000000000E+00  0.10325149624E+03  0.10325149624E+03  0.00000000000E+00 0.  1.
         13   -1    0    0    0    0 -0.00000000000E+00 -0.00000000000E+00 -0.10000000000E+04  0.10000000000E+04  0.00000000000E+00 0.  1.
    9000005    2    1    2  501    0  0.70656419534E-01  0.20033184925E-01 -0.89838118485E+03  0.11016171642E+04  0.63755126679E+03 0.  0.
         13    1    3    3    0    0  0.19908615531E+03 -0.16224095236E+03 -0.12287095135E+03  0.28470106172E+03  0.00000000000E+00 0.  1.
          3    1    3    3  501    0 -0.19901549889E+03  0.16226098555E+03 -0.77551023350E+03  0.81691610248E+03  0.00000000000E+00 0.  1.
         21    1    1    2  502  501 -0.70656419534E-01 -0.20033184925E-01  0.16326810854E+01  0.16343320301E+01  0.00000000000E+00 0.  1.
<mgrwt>
<rscale>  1 0.63755127E+03</rscale>
<asrwt>0</asrwt>
<pdfrwt beam="1">  1        1 0.37546078E+00 0.63755127E+03</pdfrwt>
<pdfrwt beam="2">0</pdfrwt>
<totfact> 0.17222664E+00</totfact>
</mgrwt>
</event>
<event>
 6    1  0.3423454E-002  0.6475836E+03  0.7818608E-02  0.9811324E-01
          1   -1    0    0  502    0  0.00000000000E+00  0.00000000000E+00  0.10501365120E+03  0.10501365120E+03  0.00000000000E+00 0.  1.
         13   -1    0    0    0    0 -0.00000000000E+00 -0.00000000000E+00 -0.10000000000E+04  0.10000000000E+04  0.00000000000E+00 0.  1.
    9000005    2    1    2  501    0 -0.16001686229E+00  0.18917243086E+00 -0.89505460449E+03  0.11047566484E+04  0.64758354344E+03 0.  0.
         13    1    3    3    0    0  0.22585909345E+03  0.12918303619E+03 -0.77622237316E+03  0.81867072717E+03  0.00000000000E+00 0.  1.
          1    1    3    3  501    0 -0.22601911031E+03 -0.12899386376E+03 -0.11883223133E+03  0.28608592121E+03  0.00000000000E+00 0.  1.
         21    1    1    2  502  501  0.16001686229E+00 -0.18917243086E+00  0.68255690308E-01  0.25700280946E+00  0.00000000000E+00 0. -1.
<mgrwt>
<rscale>  1 0.64758359E+03</rscale>
<asrwt>0</asrwt>
<pdfrwt beam="1">  1        1 0.38186863E+00 0.64758359E+03</pdfrwt>
<pdfrwt beam="2">0</pdfrwt>
<totfact> 0.16108144E+00</totfact>
</mgrwt>
</event>
<event>
 6    1  0.3423454E-002  0.6241839E+03  0.7818608E-02  0.9856465E-01
          1   -1    0    0  502    0  0.00000000000E+00  0.00000000000E+00  0.97404363352E+02  0.97404363352E+02  0.00000000000E+00 0.  1.
         13   -1    0    0    0    0 -0.00000000000E+00 -0.00000000000E+00 -0.10000000000E+04  0.10000000000E+04  0.00000000000E+00 0.  1.
    9000005    2    1    2  501    0  0.41003630579E-02 -0.31117055594E-02 -0.90259594193E+03  0.10973992069E+04  0.62418393516E+03 0.  0.
         13    1    3    3    0    0  0.15633655958E+03 -0.23240457235E+03 -0.69332258138E+03  0.74776280127E+03  0.00000000000E+00 0.  1.
          3    1    3    3  501    0 -0.15633245922E+03  0.23240146064E+03 -0.20927336055E+03  0.34963640564E+03  0.00000000000E+00 0.  1.
         21    1    1    2  502  501 -0.41003630579E-02  0.31117055594E-02  0.30528491163E-03  0.51564413671E-02  0.00000000000E+00 0.  1.
<mgrwt>
<rscale>  1 0.62418394E+03</rscale>
<asrwt>0</asrwt>
<pdfrwt beam="1">  1        1 0.35419843E+00 0.62418394E+03</pdfrwt>
<pdfrwt beam="2">0</pdfrwt>
<totfact> 0.21395838E+00</totfact>
</mgrwt>
</event>
<event>
 6    1  0.3423454E-002  0.6467129E+03  0.7818608E-02  0.9812967E-01
          1   -1    0    0  502    0  0.00000000000E+00  0.00000000000E+00  0.10457128700E+03  0.10457128700E+03  0.00000000000E+00 0.  1.
         13   -1    0    0    0    0 -0.00000000000E+00 -0.00000000000E+00 -0.10000000000E+04  0.10000000000E+04  0.00000000000E+00 0.  1.
    9000005    2    1    2  501    0  0.30530708187E-02 -0.24224587443E-02 -0.89544025989E+03  0.11045591001E+04  0.64671287803E+03 0.  0.
         13    1    3    3    0    0  0.19773458940E+03 -0.17274192893E+03 -0.12536720150E+03  0.29095648655E+03  0.00000000000E+00 0.  1.
          1    1    3    3  501    0 -0.19773153633E+03  0.17273950647E+03 -0.77007305838E+03  0.81360261357E+03  0.00000000000E+00 0.  1.
         21    1    1    2  502  501 -0.30530708187E-02  0.24224587443E-02  0.11546887899E-01  0.12186885080E-01  0.00000000000E+00 0.  1.
<mgrwt>
<rscale>  1 0.64671288E+03</rscale>
<asrwt>0</asrwt>
<pdfrwt beam="1">  1        1 0.38026003E+00 0.64671288E+03</pdfrwt>
<pdfrwt beam="2">0</pdfrwt>
<totfact> 0.16376319E+00</totfact>
</mgrwt>
</event>
<event>
 6    1  0.3423454E-002  0.6629704E+03  0.7818608E-02  0.9782741E-01
          1   -1    0    0  502    0  0.00000000000E+00  0.00000000000E+00  0.10988244388E+03  0.10988244388E+03  0.00000000000E+00 0.  1.
         13   -1    0    0    0    0 -0.00000000000E+00 -0.00000000000E+00 -0.10000000000E+04  0.10000000000E+04  0.00000000000E+00 0.  1.
    9000005    2    1    2  501    0  0.96404914984E-06  0.71383090017E-06 -0.89011755603E+03  0.11098824427E+04  0.66297041639E+03 0.  0.
         13    1    3    3    0    0 -0.43172290668E+02 -0.32435382025E+03 -0.35626494613E+03  0.48372922099E+03  0.00000000000E+00 0.  1.
          1    1    3    3  501    0  0.43172291632E+02  0.32435382096E+03 -0.53385260990E+03  0.62615322169E+03  0.00000000000E+00 0.  1.
         21    1    1    2  502  501 -0.96404915482E-06 -0.71383088418E-06 -0.90045596399E-07  0.12029353738E-05  0.00000000000E+00 0. -1.
<mgrwt>
<rscale>  1 0.66297042E+03</rscale>
<asrwt>0</asrwt>
<pdfrwt beam="1">  1        1 0.39957337E+00 0.66297042E+03</pdfrwt>
<pdfrwt beam="2">0</pdfrwt>
<totfact> 0.13404616E+00</totfact>
</mgrwt>
</event>
<event>
 6    1  0.3423454E-002  0.6528023E+03  0.7818608E-02  0.9801535E-01
          1   -1    0    0  502    0  0.00000000000E+00  0.00000000000E+00  0.10655715591E+03  0.10655715591E+03  0.00000000000E+00 0.  1.
         13   -1    0    0    0    0 -0.00000000000E+00 -0.00000000000E+00 -0.10000000000E+04  0.10000000000E+04  0.00000000000E+00 0.  1.
    9000005    2    1    2  501    0  0.86169522775E-03 -0.54993221750E-03 -0.89346228968E+03  0.11065376835E+04  0.65280225326E+03 0.  0.
         13    1    3    3    0    0  0.12509962886E+03 -0.29958625497E+03 -0.38959727985E+03  0.50713694578E+03  0.00000000000E+00 0.  1.
          3    1    3    3  501    0 -0.12509876716E+03  0.29958570504E+03 -0.50386500983E+03  0.59940073769E+03  0.00000000000E+00 0.  1.
         21    1    1    2  502  501 -0.86169522775E-03  0.54993221749E-03  0.19445589695E-01  0.19472439568E-01  0.00000000000E+00 0. -1.
<mgrwt>
<rscale>  1 0.65280225E+03</rscale>
<asrwt>0</asrwt>
<pdfrwt beam="1">  1        1 0.38748138E+00 0.65280225E+03</pdfrwt>
<pdfrwt beam="2">0</pdfrwt>
<totfact> 0.15198635E+00</totfact>
</mgrwt>
</event>
<event>
 6    1  0.3423454E-002  0.6272178E+03  0.7818608E-02  0.9850493E-01
          1   -1    0    0  502    0  0.00000000000E+00  0.00000000000E+00  0.98350543665E+02  0.98350543665E+02  0.00000000000E+00 0.  1.
         13   -1    0    0    0    0 -0.00000000000E+00 -0.00000000000E+00 -0.10000000000E+04  0.10000000000E+04  0.00000000000E+00 0.  1.
    9000005    2    1    2  501    0  0.41730048643E-05  0.12766683994E-05 -0.90164946557E+03  0.10983505334E+04  0.62721777363E+03 0.  0.
         13    1    3    3    0    0 -0.10801811269E+02 -0.30169698467E+03 -0.59954633732E+03  0.67126266117E+03  0.00000000000E+00 0.  1.
          1    1    3    3  501    0  0.10801815442E+02  0.30169698595E+03 -0.30210312825E+03  0.42708787228E+03  0.00000000000E+00 0.  1.
         21    1    1    2  502  501 -0.41730048640E-05 -0.12766683890E-05  0.92367691819E-05  0.10215760211E-04  0.00000000000E+00 0. -1.
<mgrwt>
<rscale>  1 0.62721777E+03</rscale>
<asrwt>0</asrwt>
<pdfrwt beam="1">  1        1 0.35763909E+00 0.62721777E+03</pdfrwt>
<pdfrwt beam="2">0</pdfrwt>
<totfact> 0.20657040E+00</totfact>
</mgrwt>
</event>
