<event>
 6    1  0.2173548E-003  0.6464374E+03  0.7818608E-02  0.9813487E-01
          1   -1    0    0  502    0  0.00000000000E+00  0.00000000000E+00  0.10448746537E+03  0.10448746537E+03  0.00000000000E+00 0.  1.
         13   -1    0    0    0    0 -0.00000000000E+00 -0.00000000000E+00 -0.10000000000E+04  0.10000000000E+04  0.00000000000E+00 0.  1.
    9000005    2    1    2  501    0 -0.13956003773E-02 -0.53318393348E-03 -0.89552963110E+03  0.11044703037E+04  0.64643741513E+03 0.  0.
         13    1    3    3    0    0  0.59711620986E+02 -0.41306003468E+02  0.90356819843E+02  0.11591384083E+03  0.00000000000E+00 0.  1.
          1    1    3    3  501    0 -0.59713016586E+02  0.41305470284E+02 -0.98588645094E+03  0.98855646292E+03  0.00000000000E+00 0.  1.
         21    1    1    2  502  501  0.13956003773E-02  0.53318393348E-03  0.17096468639E-01  0.17161620711E-01  0.00000000000E+00 0. -1.
<mgrwt>
<rscale>  1 0.64643742E+03</rscale>
<asrwt>0</asrwt>
<pdfrwt beam="1">  1        1 0.37995522E+00 0.64643742E+03</pdfrwt>
<pdfrwt beam="2">0</pdfrwt>
<totfact> 0.16427944E+00</totfact>
</mgrwt>
</event>
<event>
 6    1  0.2173548E-003  0.6443797E+03  0.7818608E-02  0.9817383E-01
          1   -1    0    0  502    0  0.00000000000E+00  0.00000000000E+00  0.10381314955E+03  0.10381314955E+03  0.00000000000E+00 0.  1.
         13   -1    0    0    0    0 -0.00000000000E+00 -0.00000000000E+00 -0.10000000000E+04  0.10000000000E+04  0.00000000000E+00 0.  1.
    9000005    2    1    2  501    0  0.69934033861E-02 -0.11751808558E-01 -0.89618520367E+03  0.11037993755E+04  0.64437965664E+03 0.  0.
         13    1    3    3    0    0  0.30994402445E+03  0.14114429642E+02 -0.29931759436E+03  0.43110965857E+03  0.00000000000E+00 0.  1.
          3    1    3    3  501    0 -0.30993703105E+03 -0.14126181451E+02 -0.59686760931E+03  0.67268971693E+03  0.00000000000E+00 0.  1.
         21    1    1    2  502  501 -0.69934033861E-02  0.11751808558E-01 -0.16467760832E-02  0.13774054116E-01  0.00000000000E+00 0.  1.
<mgrwt>
<rscale>  1 0.64437966E+03</rscale>
<asrwt>0</asrwt>
<pdfrwt beam="1">  1        1 0.37750316E+00 0.64437966E+03</pdfrwt>
<pdfrwt beam="2">0</pdfrwt>
<totfact> 0.16848442E+00</totfact>
</mgrwt>
</event>
<event>
 6    1  0.2173548E-003  0.6534800E+03  0.7818608E-02  0.9800271E-01
          1   -1    0    0  502    0  0.00000000000E+00  0.00000000000E+00  0.10692460091E+03  0.10692460091E+03  0.00000000000E+00 0.  1.
         13   -1    0    0    0    0 -0.00000000000E+00 -0.00000000000E+00 -0.10000000000E+04  0.10000000000E+04  0.00000000000E+00 0.  1.
    9000005    2    1    2  501    0 -0.29621073335E-02 -0.75221618346E-03 -0.89324096169E+03  0.11067590101E+04  0.65347998499E+03 0.  0.
         13    1    3    3    0    0 -0.52688978088E+02  0.32242328449E+03 -0.45526174815E+03  0.56035360454E+03  0.00000000000E+00 0.  1.
          3    1    3    3  501    0  0.52686015980E+02 -0.32242403671E+03 -0.43797921354E+03  0.54640540556E+03  0.00000000000E+00 0.  1.
         21    1    1    2  502  501  0.29621073335E-02  0.75221618343E-03  0.16556260082E+00  0.16559080499E+00  0.00000000000E+00 0. -1.
<mgrwt>
<rscale>  1 0.65347998E+03</rscale>
<asrwt>0</asrwt>
<pdfrwt beam="1">  1        1 0.38881755E+00 0.65347998E+03</pdfrwt>
<pdfrwt beam="2">0</pdfrwt>
<totfact> 0.14990988E+00</totfact>
</mgrwt>
</event>
<event>
 6    1  0.2173548E-003  0.6534592E+03  0.7818608E-02  0.9800310E-01
          1   -1    0    0  502    0  0.00000000000E+00  0.00000000000E+00  0.10675414087E+03  0.10675414087E+03  0.00000000000E+00 0.  1.
         13   -1    0    0    0    0 -0.00000000000E+00 -0.00000000000E+00 -0.10000000000E+04  0.10000000000E+04  0.00000000000E+00 0.  1.
    9000005    2    1    2  501    0  0.10759814906E-03 -0.43222495322E-04 -0.89324776521E+03  0.11067522313E+04  0.65345920404E+03 0.  0.
         13    1    3    3    0    0 -0.10180595838E+03  0.14159686866E+03  0.21329512978E+02  0.17569597178E+03  0.00000000000E+00 0.  1.
          1    1    3    3  501    0  0.10180606598E+03 -0.14159691188E+03 -0.91457727819E+03  0.93105625948E+03  0.00000000000E+00 0.  1.
         21    1    1    2  502  501 -0.10759814905E-03  0.43222495316E-04  0.19060839476E-02  0.19096076982E-02  0.00000000000E+00 0.  1.
<mgrwt>
<rscale>  1 0.65345920E+03</rscale>
<asrwt>0</asrwt>
<pdfrwt beam="1">  1        1 0.38819769E+00 0.65345920E+03</pdfrwt>
<pdfrwt beam="2">0</pdfrwt>
<totfact> 0.15086160E+00</totfact>
</mgrwt>
</event>
<event>
 6    1  0.2173548E-003  0.6571825E+03  0.7818608E-02  0.9793394E-01
          1   -1    0    0  502    0  0.00000000000E+00  0.00000000000E+00  0.11262203414E+03  0.11262203414E+03  0.00000000000E+00 0.  1.
         13   -1    0    0    0    0 -0.00000000000E+00 -0.00000000000E+00 -0.10000000000E+04  0.10000000000E+04  0.00000000000E+00 0.  1.
    9000005    2    1    2  501    0  0.64015612561E+00  0.13962116306E+01 -0.89188684884E+03  0.11078587126E+04  0.65718065755E+03 0.  0.
         13    1    3    3    0    0 -0.22058814516E+03 -0.14486523355E+03 -0.77377423656E+03  0.81753998975E+03  0.00000000000E+00 0.  1.
          3    1    3    3  501    0  0.22122830128E+03  0.14626144518E+03 -0.11811261228E+03  0.29031872281E+03  0.00000000000E+00 0.  1.
         21    1    1    2  502  501 -0.64015612561E+00 -0.13962116306E+01  0.45088829809E+01  0.47633215845E+01  0.00000000000E+00 0.  1.
<mgrwt>
<rscale>  1 0.65718245E+03</rscale>
<asrwt>0</asrwt>
<pdfrwt beam="1">  1        1 0.40953553E+00 0.65718245E+03</pdfrwt>
<pdfrwt beam="2">0</pdfrwt>
<totfact> 0.12111489E+00</totfact>
</mgrwt>
</event>
<event>
 6    1  0.2173548E-003  0.6438914E+03  0.7818608E-02  0.9818309E-01
          1   -1    0    0  502    0  0.00000000000E+00  0.00000000000E+00  0.11181164047E+03  0.11181164047E+03  0.00000000000E+00 0.  1.
         13   -1    0    0    0    0 -0.00000000000E+00 -0.00000000000E+00 -0.10000000000E+04  0.10000000000E+04  0.00000000000E+00 0.  1.
    9000005    2    1    2  501    0 -0.30799840866E+00  0.75426223700E-01 -0.89634755408E+03  0.11036462864E+04  0.64389136282E+03 0.  0.
         13    1    3    3    0    0 -0.22042677371E+03  0.48010586029E+02 -0.84228403914E+03  0.87197212199E+03  0.00000000000E+00 0.  1.
          1    1    3    3  501    0  0.22011877530E+03 -0.47935159806E+02 -0.54063514942E+02  0.23167416436E+03  0.00000000000E+00 0.  1.
         21    1    1    2  502  501  0.30799840866E+00 -0.75426223700E-01  0.81591945549E+01  0.81653541209E+01  0.00000000000E+00 0. -1.
<mgrwt>
<rscale>  1 0.64389144E+03</rscale>
<asrwt>0</asrwt>
<pdfrwt beam="1">  1        1 0.40658864E+00 0.64389144E+03</pdfrwt>
<pdfrwt beam="2">0</pdfrwt>
<totfact> 0.12517206E+00</totfact>
</mgrwt>
</event>
<event>
 6    1  0.2173548E-003  0.6510023E+03  0.7818608E-02  0.9804900E-01
          1   -1    0    0  502    0  0.00000000000E+00  0.00000000000E+00  0.10595108361E+03  0.10595108361E+03  0.00000000000E+00 0.  1.
         13   -1    0    0    0    0 -0.00000000000E+00 -0.00000000000E+00 -0.10000000000E+04  0.10000000000E+04  0.00000000000E+00 0.  1.
    9000005    2    1    2  501    0 -0.28483944251E-03  0.59941443112E-04 -0.89404857513E+03  0.11059506351E+04  0.65100226768E+03 0.  0.
         13    1    3    3    0    0  0.15126513785E+03  0.25746097704E+03 -0.66711236272E+03  0.73089411074E+03  0.00000000000E+00 0.  1.
          3    1    3    3  501    0 -0.15126542269E+03 -0.25746091710E+03 -0.22693621241E+03  0.37505652432E+03  0.00000000000E+00 0.  1.
         21    1    1    2  502  501  0.28483944250E-03 -0.59941443087E-04 -0.34126593575E-03  0.44854088275E-03  0.00000000000E+00 0. -1.
<mgrwt>
<rscale>  1 0.65100227E+03</rscale>
<asrwt>0</asrwt>
<pdfrwt beam="1">  1        1 0.38527748E+00 0.65100227E+03</pdfrwt>
<pdfrwt beam="2">0</pdfrwt>
<totfact> 0.15549070E+00</totfact>
</mgrwt>
</event>
<event>
 6    1  0.2173548E-003  0.6464236E+03  0.7818608E-02  0.9813513E-01
          1   -1    0    0  502    0  0.00000000000E+00  0.00000000000E+00  0.10589566649E+03  0.10589566649E+03  0.00000000000E+00 0.  1.
         13   -1    0    0    0    0 -0.00000000000E+00 -0.00000000000E+00 -0.10000000000E+04  0.10000000000E+04  0.00000000000E+00 0.  1.
    9000005    2    1    2  501    0  0.24651352283E-01 -0.90718854224E-02 -0.89553399222E+03  0.11044657665E+04  0.64642362071E+03 0.  0.
         13    1    3    3    0    0  0.44042682768E+02  0.33275032006E+02  0.96353146013E+02  0.11104465051E+03  0.00000000000E+00 0.  1.
          3    1    3    3  501    0 -0.44018031416E+02 -0.33284103891E+02 -0.99188713824E+03  0.99342111597E+03  0.00000000000E+00 0.  1.
         21    1    1    2  502  501 -0.24651352283E-01  0.90718854224E-02  0.14296587149E+01  0.14299000068E+01  0.00000000000E+00 0. -1.
<mgrwt>
<rscale>  1 0.64642362E+03</rscale>
<asrwt>0</asrwt>
<pdfrwt beam="1">  1        1 0.38507596E+00 0.64642362E+03</pdfrwt>
<pdfrwt beam="2">0</pdfrwt>
<totfact> 0.15594230E+00</totfact>
</mgrwt>
</event>
<event>
 6    1  0.2173548E-003  0.6565167E+03  0.7818608E-02  0.9794627E-01
          1   -1    0    0  502    0  0.00000000000E+00  0.00000000000E+00  0.10790697609E+03  0.10790697609E+03  0.00000000000E+00 0.  1.
         13   -1    0    0    0    0 -0.00000000000E+00 -0.00000000000E+00 -0.10000000000E+04  0.10000000000E+04  0.00000000000E+00 0.  1.
    9000005    2    1    2  501    0 -0.33329335677E-01 -0.19571333938E-01 -0.89224376995E+03  0.11077513540E+04  0.65651665301E+03 0.  0.
         13    1    3    3    0    0 -0.20519374488E+03  0.23997132417E+03 -0.29459664259E+03  0.43183085946E+03  0.00000000000E+00 0.  1.
          3    1    3    3  501    0  0.20516041554E+03 -0.23999089550E+03 -0.59764712736E+03  0.67592049449E+03  0.00000000000E+00 0.  1.
         21    1    1    2  502  501  0.33329335677E-01  0.19571333938E-01  0.15074603540E+00  0.15562213505E+00  0.00000000000E+00 0.  1.
<mgrwt>
<rscale>  1 0.65651665E+03</rscale>
<asrwt>0</asrwt>
<pdfrwt beam="1">  1        1 0.39238983E+00 0.65651665E+03</pdfrwt>
<pdfrwt beam="2">0</pdfrwt>
<totfact> 0.14445689E+00</totfact>
</mgrwt>
</event>
<event>
 6    1  0.2173548E-003  0.6454073E+03  0.7818608E-02  0.9815435E-01
          1   -1    0    0  502    0  0.00000000000E+00  0.00000000000E+00  0.10424357777E+03  0.10424357777E+03  0.00000000000E+00 0.  1.
         13   -1    0    0    0    0 -0.00000000000E+00 -0.00000000000E+00 -0.10000000000E+04  0.10000000000E+04  0.00000000000E+00 0.  1.
    9000005    2    1    2  501    0  0.60023612022E-01  0.14507248374E+00 -0.89579394705E+03  0.11040821561E+04  0.64540730326E+03 0.  0.
         13    1    3    3    0    0  0.47418916193E+02 -0.28275823757E+03 -0.19466561549E+03  0.34654794240E+03  0.00000000000E+00 0.  1.
          3    1    3    3  501    0 -0.47358892581E+02  0.28290331005E+03 -0.70112833155E+03  0.75753421365E+03  0.00000000000E+00 0.  1.
         21    1    1    2  502  501 -0.60023612022E-01 -0.14507248374E+00  0.37524816914E-01  0.16142171918E+00  0.00000000000E+00 0.  1.
<mgrwt>
<rscale>  1 0.64540732E+03</rscale>
<asrwt>0</asrwt>
<pdfrwt beam="1">  1        1 0.37906835E+00 0.64540732E+03</pdfrwt>
<pdfrwt beam="2">0</pdfrwt>
<totfact> 0.16579733E+00</totfact>
</mgrwt>
</event>
<event>
 6    1  0.2173548E-003  0.6502456E+03  0.7818608E-02  0.9806318E-01
          1   -1    0    0  502    0  0.00000000000E+00  0.00000000000E+00  0.10696850185E+03  0.10696850185E+03  0.00000000000E+00 0.  1.
         13   -1    0    0    0    0 -0.00000000000E+00 -0.00000000000E+00 -0.10000000000E+04  0.10000000000E+04  0.00000000000E+00 0.  1.
    9000005    2    1    2  501    0  0.21260250658E-01  0.59262245620E-01 -0.89429430743E+03  0.11057041240E+04  0.65024556716E+03 0.  0.
         13    1    3    3    0    0  0.54341628651E+02 -0.89456564510E+02 -0.97054608067E+03  0.97617374695E+03  0.00000000000E+00 0.  1.
          1    1    3    3  501    0 -0.54320368401E+02  0.89515826756E+02  0.76251773235E+02  0.12953037707E+03  0.00000000000E+00 0.  1.
         21    1    1    2  502  501 -0.21260250658E-01 -0.59262245620E-01  0.12628092832E+01  0.12643778303E+01  0.00000000000E+00 0. -1.
<mgrwt>
<rscale>  1 0.65024557E+03</rscale>
<asrwt>0</asrwt>
<pdfrwt beam="1">  1        1 0.38897719E+00 0.65024557E+03</pdfrwt>
<pdfrwt beam="2">0</pdfrwt>
<totfact> 0.14975580E+00</totfact>
</mgrwt>
</event>
<event>
 6    1  0.2173548E-003  0.6466820E+03  0.7818608E-02  0.9813025E-01
          1   -1    0    0  502    0  0.00000000000E+00  0.00000000000E+00  0.10467033699E+03  0.10467033699E+03  0.00000000000E+00 0.  1.
         13   -1    0    0    0    0 -0.00000000000E+00 -0.00000000000E+00 -0.10000000000E+04  0.10000000000E+04  0.00000000000E+00 0.  1.
    9000005    2    1    2  501    0  0.48497285746E-02  0.17082070611E-02 -0.89545054442E+03  0.11045493463E+04  0.64668197812E+03 0.  0.
         13    1    3    3    0    0 -0.21605669900E+03 -0.23942398237E+03 -0.40789921988E+03  0.51998664800E+03  0.00000000000E+00 0.  1.
          1    1    3    3  501    0  0.21606154873E+03  0.23942569058E+03 -0.48755132454E+03  0.58456269827E+03  0.00000000000E+00 0.  1.
         21    1    1    2  502  501 -0.48497285746E-02 -0.17082070611E-02  0.12088141194E+00  0.12099071697E+00  0.00000000000E+00 0. -1.
<mgrwt>
<rscale>  1 0.64668198E+03</rscale>
<asrwt>0</asrwt>
<pdfrwt beam="1">  1        1 0.38062021E+00 0.64668198E+03</pdfrwt>
<pdfrwt beam="2">0</pdfrwt>
<totfact> 0.16316582E+00</totfact>
</mgrwt>
</event>
<event>
 6    1  0.2173548E-003  0.6844652E+03  0.7818608E-02  0.9744174E-01
          1   -1    0    0  502    0  0.00000000000E+00  0.00000000000E+00  0.11769635523E+03  0.11769635523E+03  0.00000000000E+00 0.  1.
         13   -1    0    0    0    0 -0.00000000000E+00 -0.00000000000E+00 -0.10000000000E+04  0.10000000000E+04  0.00000000000E+00 0.  1.
    9000005    2    1    2  501    0  0.93600198024E+00  0.16963455807E+00 -0.88239311730E+03  0.11167409072E+04  0.68446456117E+03 0.  0.
         13    1    3    3    0    0  0.11161069839E+03  0.21935845237E+03 -0.52997659519E+02  0.25176145562E+03  0.00000000000E+00 0.  1.
          1    1    3    3  501    0 -0.11067469641E+03 -0.21918881782E+03 -0.82939545778E+03  0.86497945158E+03  0.00000000000E+00 0.  1.
         21    1    1    2  502  501 -0.93600198024E+00 -0.16963455807E+00  0.89472524755E-01  0.95544802213E+00  0.00000000000E+00 0. -1.
<mgrwt>
<rscale>  1 0.68446522E+03</rscale>
<asrwt>0</asrwt>
<pdfrwt beam="1">  1        1 0.42798765E+00 0.68446522E+03</pdfrwt>
<pdfrwt beam="2">0</pdfrwt>
<totfact> 0.99472786E-01</totfact>
</mgrwt>
</event>
<event>
 6    1  0.2173548E-003  0.6559390E+03  0.7818608E-02  0.9795698E-01
          1   -1    0    0  502    0  0.00000000000E+00  0.00000000000E+00  0.10757593522E+03  0.10757593522E+03  0.00000000000E+00 0.  1.
         13   -1    0    0    0    0 -0.00000000000E+00 -0.00000000000E+00 -0.10000000000E+04  0.10000000000E+04  0.00000000000E+00 0.  1.
    9000005    2    1    2  501    0  0.44709033859E-02  0.19771205526E-01 -0.89242556649E+03  0.11075556093E+04  0.65593904860E+03 0.  0.
         13    1    3    3    0    0  0.17885302868E+03  0.27452337802E+03 -0.47119873405E+03  0.57391614189E+03  0.00000000000E+00 0.  1.
          1    1    3    3  501    0 -0.17884855778E+03 -0.27450360682E+03 -0.42122683243E+03  0.53363946737E+03  0.00000000000E+00 0.  1.
         21    1    1    2  502  501 -0.44709033859E-02 -0.19771205526E-01  0.15017066850E-02  0.20325960445E-01  0.00000000000E+00 0.  1.
<mgrwt>
<rscale>  1 0.65593905E+03</rscale>
<asrwt>0</asrwt>
<pdfrwt beam="1">  1        1 0.39118604E+00 0.65593905E+03</pdfrwt>
<pdfrwt beam="2">0</pdfrwt>
<totfact> 0.14626098E+00</totfact>
</mgrwt>
</event>
<event>
 6    1  0.2173548E-003  0.6554808E+03  0.7818608E-02  0.9796549E-01
          1   -1    0    0  502    0  0.00000000000E+00  0.00000000000E+00  0.10745569474E+03  0.10745569474E+03  0.00000000000E+00 0.  1.
         13   -1    0    0    0    0 -0.00000000000E+00 -0.00000000000E+00 -0.10000000000E+04  0.10000000000E+04  0.00000000000E+00 0.  1.
    9000005    2    1    2  501    0 -0.84552323810E-03 -0.11343557751E-02 -0.89258620780E+03  0.11074137683E+04  0.65548082804E+03 0.  0.
         13    1    3    3    0    0  0.80539011724E+02  0.11075853607E+03  0.56759214854E+02  0.14824167495E+03  0.00000000000E+00 0.  1.
          3    1    3    3  501    0 -0.80539857248E+02 -0.11075967043E+03 -0.94934542265E+03  0.95917209337E+03  0.00000000000E+00 0.  1.
         21    1    1    2  502  501  0.84552323809E-03  0.11343557751E-02  0.41902533990E-01  0.41926412050E-01  0.00000000000E+00 0. -1.
<mgrwt>
<rscale>  1 0.65548083E+03</rscale>
<asrwt>0</asrwt>
<pdfrwt beam="1">  1        1 0.39074880E+00 0.65548083E+03</pdfrwt>
<pdfrwt beam="2">0</pdfrwt>
<totfact> 0.14692831E+00</totfact>
</mgrwt>
</event>
<event>
 6    1  0.2173548E-003  0.5182071E+03  0.7818608E-02  0.1009133E+00
          1   -1    0    0  502    0  0.00000000000E+00  0.00000000000E+00  0.67134713709E+02  0.67134713709E+02  0.00000000000E+00 0.  1.
         13   -1    0    0    0    0 -0.00000000000E+00 -0.00000000000E+00 -0.10000000000E+04  0.10000000000E+04  0.00000000000E+00 0.  1.
    9000005    2    1    2  501    0 -0.65229690478E-04 -0.23669756217E-04 -0.93286531367E+03  0.10671346391E+04  0.51820714444E+03 0.  0.
         13    1    3    3    0    0  0.15047731051E+03  0.10768288421E+03 -0.83992769548E+03  0.86006834506E+03  0.00000000000E+00 0.  1.
          1    1    3    3  501    0 -0.15047737574E+03 -0.10768290788E+03 -0.92937618187E+02  0.20706629406E+03  0.00000000000E+00 0.  1.
         21    1    1    2  502  501  0.65229690473E-04  0.23669756216E-04  0.27378519276E-04  0.74597273383E-04  0.00000000000E+00 0.  1.
<mgrwt>
<rscale>  1 0.51820714E+03</rscale>
<asrwt>0</asrwt>
<pdfrwt beam="1">  1        1 0.24412675E+00 0.51820714E+03</pdfrwt>
<pdfrwt beam="2">0</pdfrwt>
<totfact> 0.65307316E+00</totfact>
</mgrwt>
</event>
<event>
 6    1  0.2173548E-003  0.6327791E+03  0.7818608E-02  0.9839641E-01
          1   -1    0    0  502    0  0.00000000000E+00  0.00000000000E+00  0.10026801066E+03  0.10026801066E+03  0.00000000000E+00 0.  1.
         13   -1    0    0    0    0 -0.00000000000E+00 -0.00000000000E+00 -0.10000000000E+04  0.10000000000E+04  0.00000000000E+00 0.  1.
    9000005    2    1    2  501    0  0.11207509368E+00  0.69920366629E-01 -0.89986820605E+03  0.11000782617E+04  0.63277908950E+03 0.  0.
         13    1    3    3    0    0 -0.28738528064E+03  0.11760951254E+03 -0.55499840799E+03  0.63596032097E+03  0.00000000000E+00 0.  1.
          1    1    3    3  501    0  0.28749735573E+03 -0.11753959217E+03 -0.34486979806E+03  0.46411794071E+03  0.00000000000E+00 0.  1.
         21    1    1    2  502  501 -0.11207509368E+00 -0.69920366629E-01  0.13621671172E+00  0.18974898378E+00  0.00000000000E+00 0. -1.
<mgrwt>
<rscale>  1 0.63277910E+03</rscale>
<asrwt>0</asrwt>
<pdfrwt beam="1">  1        1 0.36461172E+00 0.63277910E+03</pdfrwt>
<pdfrwt beam="2">0</pdfrwt>
<totfact> 0.19236389E+00</totfact>
</mgrwt>
</event>
<event>
 6    1  0.2173548E-003  0.5885705E+03  0.7818608E-02  0.9929406E-01
          1   -1    0    0  502    0  0.00000000000E+00  0.00000000000E+00  0.87255488862E+02  0.87255488862E+02  0.00000000000E+00 0.  1.
         13   -1    0    0    0    0 -0.00000000000E+00 -0.00000000000E+00 -0.10000000000E+04  0.10000000000E+04  0.00000000000E+00 0.  1.
    9000005    2    1    2  501    0  0.39391829370E+00  0.92579178704E+00 -0.91294982041E+03  0.10862286423E+04  0.58856968696E+03 0.  0.
         13    1    3    3    0    0 -0.76531905117E+02  0.17335193737E+03 -0.87288508023E+03  0.89321687735E+03  0.00000000000E+00 0.  1.
          3    1    3    3  501    0  0.76925823410E+02 -0.17242614558E+03 -0.40064740175E+02  0.19301176491E+03  0.00000000000E+00 0.  1.
         21    1    1    2  502  501 -0.39391829370E+00 -0.92579178704E+00  0.20530927002E+00  0.10268466056E+01  0.00000000000E+00 0.  1.
<mgrwt>
<rscale>  1 0.58857055E+03</rscale>
<asrwt>0</asrwt>
<pdfrwt beam="1">  1        1 0.31729336E+00 0.58857055E+03</pdfrwt>
<pdfrwt beam="2">0</pdfrwt>
<totfact> 0.31133868E+00</totfact>
</mgrwt>
</event>
<event>
 6    1  0.2173548E-003  0.6381477E+03  0.7818608E-02  0.9829277E-01
          1   -1    0    0  502    0  0.00000000000E+00  0.00000000000E+00  0.10273880835E+03  0.10273880835E+03  0.00000000000E+00 0.  1.
         13   -1    0    0    0    0 -0.00000000000E+00 -0.00000000000E+00 -0.10000000000E+04  0.10000000000E+04  0.00000000000E+00 0.  1.
    9000005    2    1    2  501    0 -0.25142231652E+00 -0.36097724914E-01 -0.89817274497E+03  0.11017925284E+04  0.63814765641E+03 0.  0.
         13    1    3    3    0    0 -0.26800200114E+03  0.17120793742E+03 -0.40250637769E+03  0.51298013074E+03  0.00000000000E+00 0.  1.
          3    1    3    3  501    0  0.26775057882E+03 -0.17124403514E+03 -0.49566636728E+03  0.58881239769E+03  0.00000000000E+00 0.  1.
         21    1    1    2  502  501  0.25142231652E+00  0.36097724914E-01  0.91155331849E+00  0.94627991600E+00  0.00000000000E+00 0.  1.
<mgrwt>
<rscale>  1 0.63814771E+03</rscale>
<asrwt>0</asrwt>
<pdfrwt beam="1">  1        1 0.37359645E+00 0.63814771E+03</pdfrwt>
<pdfrwt beam="2">0</pdfrwt>
<totfact> 0.17549152E+00</totfact>
</mgrwt>
</event>
<event>
 6    1  0.2173548E-003  0.6579403E+03  0.7818608E-02  0.9791993E-01
          1   -1    0    0  502    0  0.00000000000E+00  0.00000000000E+00  0.10822168698E+03  0.10822168698E+03  0.00000000000E+00 0.  1.
         13   -1    0    0    0    0 -0.00000000000E+00 -0.00000000000E+00 -0.10000000000E+04  0.10000000000E+04  0.00000000000E+00 0.  1.
    9000005    2    1    2  501    0  0.93665198079E-04  0.10768145012E-03 -0.89177862771E+03  0.11082213414E+04  0.65794028665E+03 0.  0.
         13    1    3    3    0    0  0.81433920100E+02 -0.31214133203E+03 -0.33728091569E+03  0.46671416370E+03  0.00000000000E+00 0.  1.
          3    1    3    3  501    0 -0.81433826435E+02  0.31214143971E+03 -0.55449771201E+03  0.64150717775E+03  0.00000000000E+00 0.  1.
         21    1    1    2  502  501 -0.93665198077E-04 -0.10768145012E-03  0.31468725768E-03  0.34553803579E-03  0.00000000000E+00 0.  1.
<mgrwt>
<rscale>  1 0.65794029E+03</rscale>
<asrwt>0</asrwt>
<pdfrwt beam="1">  1        1 0.39353424E+00 0.65794029E+03</pdfrwt>
<pdfrwt beam="2">0</pdfrwt>
<totfact> 0.14273815E+00</totfact>
</mgrwt>
</event>
<event>
 6    1  0.2173548E-003  0.5204424E+03  0.7818608E-02  0.1008577E+00
          1   -1    0    0  502    0  0.00000000000E+00  0.00000000000E+00  0.70853657170E+02  0.70853657170E+02  0.00000000000E+00 0.  1.
         13   -1    0    0    0    0 -0.00000000000E+00 -0.00000000000E+00 -0.10000000000E+04  0.10000000000E+04  0.00000000000E+00 0.  1.
    9000005    2    1    2  501    0 -0.63984949127E+01 -0.22410882319E+01 -0.92800298721E+03  0.10639783044E+04  0.52039823669E+03 0.  0.
         13    1    3    3    0    0 -0.21939711141E+03  0.60472851786E+02 -0.20035346747E+03  0.30320549174E+03  0.00000000000E+00 0.  1.
          1    1    3    3  501    0  0.21299861649E+03 -0.62713940018E+02 -0.72764951974E+03  0.76077281266E+03  0.00000000000E+00 0.  1.
         21    1    1    2  502  501  0.63984949127E+01  0.22410882319E+01 -0.11433556190E+01  0.68753527678E+01  0.00000000000E+00 0. -1.
<mgrwt>
<rscale>  1 0.52044240E+03</rscale>
<asrwt>0</asrwt>
<pdfrwt beam="1">  1        1 0.25765021E+00 0.52044240E+03</pdfrwt>
<pdfrwt beam="2">0</pdfrwt>
<totfact> 0.57012356E+00</totfact>
</mgrwt>
</event>
<event>
 6    1  0.2173548E-003  0.6514117E+03  0.7818608E-02  0.9804134E-01
          1   -1    0    0  502    0  0.00000000000E+00  0.00000000000E+00  0.10839977256E+03  0.10839977256E+03  0.00000000000E+00 0.  1.
         13   -1    0    0    0    0 -0.00000000000E+00 -0.00000000000E+00 -0.10000000000E+04  0.10000000000E+04  0.00000000000E+00 0.  1.
    9000005    2    1    2  501    0 -0.55722586426E+00  0.10832794831E+01 -0.89373714712E+03  0.11059400122E+04  0.65141057601E+03 0.  0.
         13    1    3    3    0    0  0.13083810810E+03 -0.11006088817E+03 -0.91652853787E+03  0.93233930002E+03  0.00000000000E+00 0.  1.
          1    1    3    3  501    0 -0.13139533397E+03  0.11114416765E+03  0.22791390749E+02  0.17360071222E+03  0.00000000000E+00 0.  1.
         21    1    1    2  502  501  0.55722586426E+00 -0.10832794831E+01  0.21369196829E+01  0.24597603203E+01  0.00000000000E+00 0.  1.
<mgrwt>
<rscale>  1 0.65141172E+03</rscale>
<asrwt>0</asrwt>
<pdfrwt beam="1">  1        1 0.39418182E+00 0.65141172E+03</pdfrwt>
<pdfrwt beam="2">0</pdfrwt>
<totfact> 0.14196861E+00</totfact>
</mgrwt>
</event>
<event>
 6    1  0.2173548E-003  0.5791735E+03  0.7818608E-02  0.9949582E-01
          1   -1    0    0  502    0  0.00000000000E+00  0.00000000000E+00  0.84887770642E+02  0.84887770642E+02  0.00000000000E+00 0.  1.
         13   -1    0    0    0    0 -0.00000000000E+00 -0.00000000000E+00 -0.10000000000E+04  0.10000000000E+04  0.00000000000E+00 0.  1.
    9000005    2    1    2  501    0  0.25027094324E-02  0.82305860990E-01 -0.91613771931E+03  0.10838589800E+04  0.57917351548E+03 0.  0.
         13    1    3    3    0    0 -0.91734362348E+02 -0.27104899628E+03 -0.37525888217E+03  0.47191310669E+03  0.00000000000E+00 0.  1.
          3    1    3    3  501    0  0.91736865057E+02  0.27113130214E+03 -0.54087883714E+03  0.61194587332E+03  0.00000000000E+00 0.  1.
         21    1    1    2  502  501 -0.25027094324E-02 -0.82305860990E-01  0.10254899508E+01  0.10287906286E+01  0.00000000000E+00 0.  1.
<mgrwt>
<rscale>  1 0.57917352E+03</rscale>
<asrwt>0</asrwt>
<pdfrwt beam="1">  1        1 0.30868345E+00 0.57917352E+03</pdfrwt>
<pdfrwt beam="2">0</pdfrwt>
<totfact> 0.33973776E+00</totfact>
</mgrwt>
</event>
<event>
 6    1  0.2173548E-003  0.6947908E+03  0.7818608E-02  0.9726182E-01
          1   -1    0    0  502    0  0.00000000000E+00  0.00000000000E+00  0.12135016001E+03  0.12135016001E+03  0.00000000000E+00 0.  1.
         13   -1    0    0    0    0 -0.00000000000E+00 -0.00000000000E+00 -0.10000000000E+04  0.10000000000E+04  0.00000000000E+00 0.  1.
    9000005    2    1    2  501    0 -0.31097956105E-02  0.10713836441E-01 -0.87931639809E+03  0.11206835086E+04  0.69479075862E+03 0.  0.
         13    1    3    3    0    0  0.13077191976E+03 -0.30762957220E+03 -0.59218339998E+03  0.68001354979E+03  0.00000000000E+00 0.  1.
          3    1    3    3  501    0 -0.13077502956E+03  0.30764028604E+03 -0.28713299812E+03  0.44066995876E+03  0.00000000000E+00 0.  1.
         21    1    1    2  502  501  0.31097956105E-02 -0.10713836441E-01  0.66655810112E+00  0.66665145263E+00  0.00000000000E+00 0.  1.
<mgrwt>
<rscale>  1 0.69479076E+03</rscale>
<asrwt>0</asrwt>
<pdfrwt beam="1">  1        1 0.44127424E+00 0.69479076E+03</pdfrwt>
<pdfrwt beam="2">0</pdfrwt>
<totfact> 0.86347554E-01</totfact>
</mgrwt>
</event>
<event>
 6    1  0.2173548E-003  0.6518113E+03  0.7818608E-02  0.9803386E-01
          3   -1    0    0  502    0  0.00000000000E+00  0.00000000000E+00  0.10622364093E+03  0.10622364093E+03  0.00000000000E+00 0.  1.
         13   -1    0    0    0    0 -0.00000000000E+00 -0.00000000000E+00 -0.10000000000E+04  0.10000000000E+04  0.00000000000E+00 0.  1.
    9000005    2    1    2  501    0  0.10524329663E-01  0.50791173304E-02 -0.89378120606E+03  0.11062109898E+04  0.65181125289E+03 0.  0.
         13    1    3    3    0    0 -0.21126601814E+03  0.22181542288E+03 -0.25807142419E+03  0.40054496906E+03  0.00000000000E+00 0.  1.
          3    1    3    3  501    0  0.21127654247E+03 -0.22181034377E+03 -0.63570978187E+03  0.70566602070E+03  0.00000000000E+00 0.  1.
         21    1    1    2  502  501 -0.10524329663E-01 -0.50791173304E-02  0.48469926066E-02  0.12651177219E-01  0.00000000000E+00 0. -1.
<mgrwt>
<rscale>  1 0.65181125E+03</rscale>
<asrwt>0</asrwt>
<pdfrwt beam="1">  1        3 0.38626860E+00 0.65181125E+03</pdfrwt>
<pdfrwt beam="2">0</pdfrwt>
<totfact> 0.69923473E-02</totfact>
</mgrwt>
</event>
<event>
 6    1  0.2173548E-003  0.6230668E+03  0.7818608E-02  0.9858673E-01
          1   -1    0    0  502    0  0.00000000000E+00  0.00000000000E+00  0.97465722496E+02  0.97465722496E+02  0.00000000000E+00 0.  1.
         13   -1    0    0    0    0 -0.00000000000E+00 -0.00000000000E+00 -0.10000000000E+04  0.10000000000E+04  0.00000000000E+00 0.  1.
    9000005    2    1    2  501    0  0.11198143082E-01  0.39175901993E-01 -0.90294583792E+03  0.10970521501E+04  0.62306679591E+03 0.  0.
         13    1    3    3    0    0 -0.21029677838E+03 -0.21494794200E+03 -0.30824381299E+03  0.43062930812E+03  0.00000000000E+00 0.  1.
          3    1    3    3  501    0  0.21030797652E+03  0.21498711790E+03 -0.59470202493E+03  0.66642284198E+03  0.00000000000E+00 0.  1.
         21    1    1    2  502  501 -0.11198143082E-01 -0.39175901993E-01  0.41156041717E+00  0.41357239595E+00  0.00000000000E+00 0. -1.
<mgrwt>
<rscale>  1 0.62306680E+03</rscale>
<asrwt>0</asrwt>
<pdfrwt beam="1">  1        1 0.35442156E+00 0.62306680E+03</pdfrwt>
<pdfrwt beam="2">0</pdfrwt>
<totfact> 0.21352207E+00</totfact>
</mgrwt>
</event>
<event>
 6    1  0.2173548E-003  0.6513822E+03  0.7818608E-02  0.9804189E-01
          1   -1    0    0  502    0  0.00000000000E+00  0.00000000000E+00  0.10607473052E+03  0.10607473052E+03  0.00000000000E+00 0.  1.
         13   -1    0    0    0    0 -0.00000000000E+00 -0.00000000000E+00 -0.10000000000E+04  0.10000000000E+04  0.00000000000E+00 0.  1.
    9000005    2    1    2  501    0  0.22755904894E-06  0.85170444024E-04 -0.89392526508E+03  0.11060746452E+04  0.65138217759E+03 0.  0.
         13    1    3    3    0    0  0.53146352359E+02  0.10844082525E+03 -0.96057700618E+03  0.96813848810E+03  0.00000000000E+00 0.  1.
          1    1    3    3  501    0 -0.53146352132E+02 -0.10844074008E+03  0.66651741096E+02  0.13793615713E+03  0.00000000000E+00 0.  1.
         21    1    1    2  502  501 -0.22755904663E-06 -0.85170444024E-04 -0.43987658719E-05  0.85284262672E-04  0.00000000000E+00 0. -1.
<mgrwt>
<rscale>  1 0.65138218E+03</rscale>
<asrwt>0</asrwt>
<pdfrwt beam="1">  1        1 0.38572711E+00 0.65138218E+03</pdfrwt>
<pdfrwt beam="2">0</pdfrwt>
<totfact> 0.15476923E+00</totfact>
</mgrwt>
</event>
<event>
 6    1  0.2173548E-003  0.6175185E+03  0.7818608E-02  0.9869713E-01
          1   -1    0    0  502    0  0.00000000000E+00  0.00000000000E+00  0.95868061708E+02  0.95868061708E+02  0.00000000000E+00 0.  1.
         13   -1    0    0    0    0 -0.00000000000E+00 -0.00000000000E+00 -0.10000000000E+04  0.10000000000E+04  0.00000000000E+00 0.  1.
    9000005    2    1    2  501    0  0.28844560890E+00 -0.11547791378E+01 -0.90382934994E+03  0.10946399430E+04  0.61751736364E+03 0.  0.
         13    1    3    3    0    0  0.21074951442E+03  0.15985831148E+03 -0.73322866338E+03  0.77948336119E+03  0.00000000000E+00 0.  1.
          1    1    3    3  501    0 -0.21046106881E+03 -0.16101309062E+03 -0.17060068656E+03  0.31515658186E+03  0.00000000000E+00 0.  1.
         21    1    1    2  502  501 -0.28844560890E+00  0.11547791378E+01 -0.30258835465E+00  0.12281186583E+01  0.00000000000E+00 0. -1.
<mgrwt>
<rscale>  1 0.61751851E+03</rscale>
<asrwt>0</asrwt>
<pdfrwt beam="1">  1        1 0.34861187E+00 0.61751851E+03</pdfrwt>
<pdfrwt beam="2">0</pdfrwt>
<totfact> 0.22656988E+00</totfact>
</mgrwt>
</event>
<event>
 6    1  0.2173548E-003  0.6430240E+03  0.7818608E-02  0.9819958E-01
          1   -1    0    0  502    0  0.00000000000E+00  0.00000000000E+00  0.10338555574E+03  0.10338555574E+03  0.00000000000E+00 0.  1.
         13   -1    0    0    0    0 -0.00000000000E+00 -0.00000000000E+00 -0.10000000000E+04  0.10000000000E+04  0.00000000000E+00 0.  1.
    9000005    2    1    2  501    0  0.72512434707E-03 -0.69167914478E-03 -0.89663001949E+03  0.11033699483E+04  0.64302398941E+03 0.  0.
         13    1    3    3    0    0  0.29682578386E+03 -0.12350701902E+03 -0.44269395152E+03  0.54711741375E+03  0.00000000000E+00 0.  1.
          1    1    3    3  501    0 -0.29682505874E+03  0.12350632734E+03 -0.45393606798E+03  0.55625253456E+03  0.00000000000E+00 0.  1.
         21    1    1    2  502  501 -0.72512434705E-03  0.69167914478E-03  0.15575239021E-01  0.15607443606E-01  0.00000000000E+00 0. -1.
<mgrwt>
<rscale>  1 0.64302399E+03</rscale>
<asrwt>0</asrwt>
<pdfrwt beam="1">  1        1 0.37594827E+00 0.64302399E+03</pdfrwt>
<pdfrwt beam="2">0</pdfrwt>
<totfact> 0.17120538E+00</totfact>
</mgrwt>
</event>
<event>
 6    1  0.2173548E-003  0.6470715E+03  0.7818608E-02  0.9812290E-01
          1   -1    0    0  502    0  0.00000000000E+00  0.00000000000E+00  0.10467618672E+03  0.10467618672E+03  0.00000000000E+00 0.  1.
         13   -1    0    0    0    0 -0.00000000000E+00 -0.00000000000E+00 -0.10000000000E+04  0.10000000000E+04  0.00000000000E+00 0.  1.
    9000005    2    1    2  501    0  0.11467880698E-03  0.50334883752E-03 -0.89532450903E+03  0.11046753204E+04  0.64707154702E+03 0.  0.
         13    1    3    3    0    0 -0.78513391485E+02 -0.29268226113E+02 -0.98115460344E+03  0.98472602157E+03  0.00000000000E+00 0.  1.
          3    1    3    3  501    0  0.78513506163E+02  0.29268729462E+02  0.85830094415E+02  0.11994929880E+03  0.00000000000E+00 0.  1.
         21    1    1    2  502  501 -0.11467880698E-03 -0.50334883752E-03  0.69575028918E-03  0.86636005558E-03  0.00000000000E+00 0. -1.
<mgrwt>
<rscale>  1 0.64707155E+03</rscale>
<asrwt>0</asrwt>
<pdfrwt beam="1">  1        1 0.38064148E+00 0.64707155E+03</pdfrwt>
<pdfrwt beam="2">0</pdfrwt>
<totfact> 0.16311887E+00</totfact>
</mgrwt>
</event>
<event>
 6    1  0.2173548E-003  0.6496680E+03  0.7818608E-02  0.9807402E-01
          1   -1    0    0  502    0  0.00000000000E+00  0.00000000000E+00  0.10551833145E+03  0.10551833145E+03  0.00000000000E+00 0.  1.
         13   -1    0    0    0    0 -0.00000000000E+00 -0.00000000000E+00 -0.10000000000E+04  0.10000000000E+04  0.00000000000E+00 0.  1.
    9000005    2    1    2  501    0 -0.36766252362E-03  0.38605093312E-03 -0.89448279961E+03  0.11055170810E+04  0.64966802114E+03 0.  0.
         13    1    3    3    0    0  0.17680380652E+03 -0.26715983300E+03 -0.35587252494E+03  0.47883109379E+03  0.00000000000E+00 0.  1.
          1    1    3    3  501    0 -0.17680417418E+03  0.26716021905E+03 -0.53861027466E+03  0.62668598726E+03  0.00000000000E+00 0.  1.
         21    1    1    2  502  501  0.36766252361E-03 -0.38605093316E-03  0.11310599364E-02  0.12504029886E-02  0.00000000000E+00 0.  1.
<mgrwt>
<rscale>  1 0.64966802E+03</rscale>
<asrwt>0</asrwt>
<pdfrwt beam="1">  1        1 0.38370383E+00 0.64966802E+03</pdfrwt>
<pdfrwt beam="2">0</pdfrwt>
<totfact> 0.15804116E+00</totfact>
</mgrwt>
</event>
<event>
 6    1  0.2173548E-003  0.5221032E+03  0.7818608E-02  0.1008165E+00
          1   -1    0    0  502    0  0.00000000000E+00  0.00000000000E+00  0.68149871255E+02  0.68149871255E+02  0.00000000000E+00 0.  1.
         13   -1    0    0    0    0 -0.00000000000E+00 -0.00000000000E+00 -0.10000000000E+04  0.10000000000E+04  0.00000000000E+00 0.  1.
    9000005    2    1    2  501    0  0.11313379161E-04  0.34395491906E-03 -0.93185205258E+03  0.10681479169E+04  0.52210317414E+03 0.  0.
         13    1    3    3    0    0 -0.17978609783E+03 -0.13765415309E+03 -0.73169960066E+03  0.76593473119E+03  0.00000000000E+00 0.  1.
          1    1    3    3  501    0  0.17978610915E+03  0.13765449705E+03 -0.20015245192E+03  0.30221318569E+03  0.00000000000E+00 0.  1.
         21    1    1    2  502  501 -0.11313379175E-04 -0.34395491905E-03  0.19238320180E-02  0.19543701319E-02  0.00000000000E+00 0. -1.
<mgrwt>
<rscale>  1 0.52210317E+03</rscale>
<asrwt>0</asrwt>
<pdfrwt beam="1">  1        1 0.24781824E+00 0.52210317E+03</pdfrwt>
<pdfrwt beam="2">0</pdfrwt>
<totfact> 0.62890542E+00</totfact>
</mgrwt>
</event>
<event>
 6    1  0.2173548E-003  0.6647245E+03  0.7818608E-02  0.9779535E-01
          1   -1    0    0  502    0  0.00000000000E+00  0.00000000000E+00  0.11051003976E+03  0.11051003976E+03  0.00000000000E+00 0.  1.
         13   -1    0    0    0    0 -0.00000000000E+00 -0.00000000000E+00 -0.10000000000E+04  0.10000000000E+04  0.00000000000E+00 0.  1.
    9000005    2    1    2  501    0  0.34839204921E-02  0.38241189267E-01 -0.88952611141E+03  0.11104573005E+04  0.66472453828E+03 0.  0.
         13    1    3    3    0    0  0.18868903031E+03 -0.20718492338E+03 -0.74325083744E+03  0.79432420962E+03  0.00000000000E+00 0.  1.
          3    1    3    3  501    0 -0.18868554639E+03  0.20722316457E+03 -0.14627527397E+03  0.31613309084E+03  0.00000000000E+00 0.  1.
         21    1    1    2  502  501 -0.34839204922E-02 -0.38241189267E-01  0.36151172283E-01  0.52739297644E-01  0.00000000000E+00 0.  1.
<mgrwt>
<rscale>  1 0.66472454E+03</rscale>
<asrwt>0</asrwt>
<pdfrwt beam="1">  1        1 0.40185554E+00 0.66472454E+03</pdfrwt>
<pdfrwt beam="2">0</pdfrwt>
<totfact> 0.13089728E+00</totfact>
</mgrwt>
</event>
<event>
 6    1  0.2173548E-003  0.6442077E+03  0.7818608E-02  0.9817709E-01
          1   -1    0    0  502    0  0.00000000000E+00  0.00000000000E+00  0.10519158897E+03  0.10519158897E+03  0.00000000000E+00 0.  1.
         13   -1    0    0    0    0 -0.00000000000E+00 -0.00000000000E+00 -0.10000000000E+04  0.10000000000E+04  0.00000000000E+00 0.  1.
    9000005    2    1    2  501    0  0.41050968659E-01  0.78205433018E-01 -0.89624760342E+03  0.11037496888E+04  0.64420773136E+03 0.  0.
         13    1    3    3    0    0 -0.46001648365E+02 -0.20066647547E+03 -0.23708268950E+02  0.20723240106E+03  0.00000000000E+00 0.  1.
          3    1    3    3  501    0  0.46042699334E+02  0.20074468091E+03 -0.87253933447E+03  0.89651728777E+03  0.00000000000E+00 0.  1.
         21    1    1    2  502  501 -0.41050968659E-01 -0.78205433018E-01  0.14391923878E+01  0.14419001356E+01  0.00000000000E+00 0.  1.
<mgrwt>
<rscale>  1 0.64420774E+03</rscale>
<asrwt>0</asrwt>
<pdfrwt beam="1">  1        1 0.38251568E+00 0.64420774E+03</pdfrwt>
<pdfrwt beam="2">0</pdfrwt>
<totfact> 0.16012478E+00</totfact>
</mgrwt>
</event>
<event>
 6    1  0.2173548E-003  0.6512623E+03  0.7818608E-02  0.9804413E-01
          1   -1    0    0  502    0  0.00000000000E+00  0.00000000000E+00  0.10767599413E+03  0.10767599413E+03  0.00000000000E+00 0.  1.
         13   -1    0    0    0    0 -0.00000000000E+00 -0.00000000000E+00 -0.10000000000E+04  0.10000000000E+04  0.00000000000E+00 0.  1.
    9000005    2    1    2  501    0 -0.40501918552E+00  0.86226000222E+00 -0.89380997525E+03  0.11059108772E+04  0.65126161323E+03 0.  0.
         13    1    3    3    0    0 -0.16275747356E+03 -0.93664942905E+01  0.31813155965E+02  0.16610178598E+03  0.00000000000E+00 0.  1.
          1    1    3    3  501    0  0.16235245437E+03  0.10228754293E+02 -0.92562313122E+03  0.93980909120E+03  0.00000000000E+00 0.  1.
         21    1    1    2  502  501  0.40501918552E+00 -0.86226000222E+00  0.14859693800E+01  0.17651169509E+01  0.00000000000E+00 0.  1.
<mgrwt>
<rscale>  1 0.65126231E+03</rscale>
<asrwt>0</asrwt>
<pdfrwt beam="1">  1        1 0.39154990E+00 0.65126231E+03</pdfrwt>
<pdfrwt beam="2">0</pdfrwt>
<totfact> 0.14584517E+00</totfact>
</mgrwt>
</event>
<event>
 6    1  0.2173548E-003  0.6438898E+03  0.7818608E-02  0.9818313E-01
          1   -1    0    0  502    0  0.00000000000E+00  0.00000000000E+00  0.10366035137E+03  0.10366035137E+03  0.00000000000E+00 0.  1.
         13   -1    0    0    0    0 -0.00000000000E+00 -0.00000000000E+00 -0.10000000000E+04  0.10000000000E+04  0.00000000000E+00 0.  1.
    9000005    2    1    2  501    0 -0.60347923323E-02 -0.31952544515E-03 -0.89635061361E+03  0.11036478313E+04  0.64388982988E+03 0.  0.
         13    1    3    3    0    0  0.30462970279E+03  0.74796835817E+02 -0.57239833276E+03  0.65271255068E+03  0.00000000000E+00 0.  1.
          3    1    3    3  501    0 -0.30463573758E+03 -0.74797155342E+02 -0.32395228085E+03  0.45093528064E+03  0.00000000000E+00 0.  1.
         21    1    1    2  502  501  0.60347923323E-02  0.31952544516E-03  0.10964984127E-01  0.12520051594E-01  0.00000000000E+00 0. -1.
<mgrwt>
<rscale>  1 0.64388983E+03</rscale>
<asrwt>0</asrwt>
<pdfrwt beam="1">  1        1 0.37694753E+00 0.64388983E+03</pdfrwt>
<pdfrwt beam="2">0</pdfrwt>
<totfact> 0.16945214E+00</totfact>
</mgrwt>
</event>
<event>
 6    1  0.2173548E-003  0.6632699E+03  0.7818608E-02  0.9782193E-01
          1   -1    0    0  502    0  0.00000000000E+00  0.00000000000E+00  0.10998412041E+03  0.10998412041E+03  0.00000000000E+00 0.  1.
         13   -1    0    0    0    0 -0.00000000000E+00 -0.00000000000E+00 -0.10000000000E+04  0.10000000000E+04  0.00000000000E+00 0.  1.
    9000005    2    1    2  501    0  0.53091280053E-02 -0.13139165557E-03 -0.89001432826E+03  0.11099785877E+04  0.66326990031E+03 0.  0.
         13    1    3    3    0    0  0.68953609252E+02  0.23873866680E+03 -0.77481135330E+02  0.26029613441E+03  0.00000000000E+00 0.  1.
          3    1    3    3  501    0 -0.68948300124E+02 -0.23873879819E+03 -0.81253319293E+03  0.84968245331E+03  0.00000000000E+00 0.  1.
         21    1    1    2  502  501 -0.53091280053E-02  0.13139165558E-03 -0.15513267439E-02  0.55326954200E-02  0.00000000000E+00 0. -1.
<mgrwt>
<rscale>  1 0.66326990E+03</rscale>
<asrwt>0</asrwt>
<pdfrwt beam="1">  1        1 0.39994310E+00 0.66326990E+03</pdfrwt>
<pdfrwt beam="2">0</pdfrwt>
<totfact> 0.13353082E+00</totfact>
</mgrwt>
</event>
<event>
 6    1  0.2173548E-003  0.6476316E+03  0.7818608E-02  0.9811233E-01
          3   -1    0    0  502    0  0.00000000000E+00  0.00000000000E+00  0.10485717234E+03  0.10485717234E+03  0.00000000000E+00 0.  1.
         13   -1    0    0    0    0 -0.00000000000E+00 -0.00000000000E+00 -0.10000000000E+04  0.10000000000E+04  0.00000000000E+00 0.  1.
    9000005    2    1    2  501    0 -0.19115203816E-03  0.61302591980E-05 -0.89514330596E+03  0.11048566572E+04  0.64763160423E+03 0.  0.
         13    1    3    3    0    0  0.16514633768E+03  0.16772268402E+02 -0.92189364777E+03  0.93671901850E+03  0.00000000000E+00 0.  1.
          3    1    3    3  501    0 -0.16514652883E+03 -0.16772262272E+02  0.26750341806E+02  0.16813763872E+03  0.00000000000E+00 0.  1.
         21    1    1    2  502  501  0.19115203814E-03 -0.61302591983E-05  0.47830103553E-03  0.51511994948E-03  0.00000000000E+00 0. -1.
<mgrwt>
<rscale>  1 0.64763160E+03</rscale>
<asrwt>0</asrwt>
<pdfrwt beam="1">  1        3 0.38129961E+00 0.64763160E+03</pdfrwt>
<pdfrwt beam="2">0</pdfrwt>
<totfact> 0.74324871E-02</totfact>
</mgrwt>
</event>
<event>
 6    1  0.2173548E-003  0.6458859E+03  0.7818608E-02  0.9814530E-01
          1   -1    0    0  502    0  0.00000000000E+00  0.00000000000E+00  0.10429218527E+03  0.10429218527E+03  0.00000000000E+00 0.  1.
         13   -1    0    0    0    0 -0.00000000000E+00 -0.00000000000E+00 -0.10000000000E+04  0.10000000000E+04  0.00000000000E+00 0.  1.
    9000005    2    1    2  501    0  0.92284133402E-05 -0.40582609131E-05 -0.89570785827E+03  0.11042921406E+04  0.64588587566E+03 0.  0.
         13    1    3    3    0    0  0.35887893086E+02 -0.31606614799E+03 -0.54314590555E+03  0.62943881791E+03  0.00000000000E+00 0.  1.
          3    1    3    3  501    0 -0.35887883858E+02  0.31606614393E+03 -0.35256195272E+03  0.47485332267E+03  0.00000000000E+00 0.  1.
         21    1    1    2  502  501 -0.92284133420E-05  0.40582609308E-05  0.43540408660E-04  0.44692284355E-04  0.00000000000E+00 0. -1.
<mgrwt>
<rscale>  1 0.64588588E+03</rscale>
<asrwt>0</asrwt>
<pdfrwt beam="1">  1        1 0.37924511E+00 0.64588588E+03</pdfrwt>
<pdfrwt beam="2">0</pdfrwt>
<totfact> 0.16548545E+00</totfact>
</mgrwt>
</event>
<event>
 6    1  0.2173548E-003  0.6573280E+03  0.7818608E-02  0.9793125E-01
          1   -1    0    0  502    0  0.00000000000E+00  0.00000000000E+00  0.10803079148E+03  0.10803079148E+03  0.00000000000E+00 0.  1.
         13   -1    0    0    0    0 -0.00000000000E+00 -0.00000000000E+00 -0.10000000000E+04  0.10000000000E+04  0.00000000000E+00 0.  1.
    9000005    2    1    2  501    0 -0.10917360901E-02  0.17230696915E-02 -0.89197985353E+03  0.11080199528E+04  0.65732804345E+03 0.  0.
         13    1    3    3    0    0  0.32143012473E+03  0.61263118875E+02 -0.39405360762E+03  0.51219990287E+03  0.00000000000E+00 0.  1.
          3    1    3    3  501    0 -0.32143121647E+03 -0.61261395805E+02 -0.49792624591E+03  0.59582004993E+03  0.00000000000E+00 0.  1.
         21    1    1    2  502  501  0.10917360901E-02 -0.17230696915E-02  0.10645007656E-01  0.10838682801E-01  0.00000000000E+00 0.  1.
<mgrwt>
<rscale>  1 0.65732804E+03</rscale>
<asrwt>0</asrwt>
<pdfrwt beam="1">  1        1 0.39284007E+00 0.65732804E+03</pdfrwt>
<pdfrwt beam="2">0</pdfrwt>
<totfact> 0.14377165E+00</totfact>
</mgrwt>
</event>
<event>
 6    1  0.2173548E-003  0.6474466E+03  0.7818608E-02  0.9811582E-01
          1   -1    0    0  502    0  0.00000000000E+00  0.00000000000E+00  0.10488932530E+03  0.10488932530E+03  0.00000000000E+00 0.  1.
         13   -1    0    0    0    0 -0.00000000000E+00 -0.00000000000E+00 -0.10000000000E+04  0.10000000000E+04  0.00000000000E+00 0.  1.
    9000005    2    1    2  501    0 -0.43116190605E-01 -0.64508185373E-01 -0.89518489543E+03  0.11047819520E+04  0.64744664521E+03 0.  0.
         13    1    3    3    0    0  0.26104951336E+03 -0.15669414787E+03 -0.25992263395E+03  0.40032446845E+03  0.00000000000E+00 0.  1.
          3    1    3    3  501    0 -0.26109262955E+03  0.15662963969E+03 -0.63526226149E+03  0.70445748353E+03  0.00000000000E+00 0.  1.
         21    1    1    2  502  501  0.43116190605E-01  0.64508185373E-01  0.74220730817E-01  0.10737331491E+00  0.00000000000E+00 0.  1.
<mgrwt>
<rscale>  1 0.64744665E+03</rscale>
<asrwt>0</asrwt>
<pdfrwt beam="1">  1        1 0.38141653E+00 0.64744665E+03</pdfrwt>
<pdfrwt beam="2">0</pdfrwt>
<totfact> 0.16182767E+00</totfact>
</mgrwt>
</event>
<event>
 6    1  0.2173548E-003  0.6551640E+03  0.7818608E-02  0.9797137E-01
          1   -1    0    0  502    0  0.00000000000E+00  0.00000000000E+00  0.10731825108E+03  0.10731825108E+03  0.00000000000E+00 0.  1.
         13   -1    0    0    0    0 -0.00000000000E+00 -0.00000000000E+00 -0.10000000000E+04  0.10000000000E+04  0.00000000000E+00 0.  1.
    9000005    2    1    2  501    0 -0.14979124713E-01  0.18586486871E-01 -0.89266130970E+03  0.11072868251E+04  0.65516402419E+03 0.  0.
         13    1    3    3    0    0 -0.26785650152E+03 -0.15602959717E+03 -0.62534501087E+03  0.69796040233E+03  0.00000000000E+00 0.  1.
          1    1    3    3  501    0  0.26784152240E+03  0.15604818366E+03 -0.26731629883E+03  0.40932642275E+03  0.00000000000E+00 0.  1.
         21    1    1    2  502  501  0.14979124713E-01 -0.18586486871E-01 -0.20439220213E-01  0.31425998700E-01  0.00000000000E+00 0.  1.
<mgrwt>
<rscale>  1 0.65516402E+03</rscale>
<asrwt>0</asrwt>
<pdfrwt beam="1">  1        1 0.39024901E+00 0.65516402E+03</pdfrwt>
<pdfrwt beam="2">0</pdfrwt>
<totfact> 0.14768898E+00</totfact>
</mgrwt>
</event>
<event>
 6    1  0.2173548E-003  0.6556345E+03  0.7818608E-02  0.9796263E-01
          1   -1    0    0  502    0  0.00000000000E+00  0.00000000000E+00  0.10746459673E+03  0.10746459673E+03  0.00000000000E+00 0.  1.
         13   -1    0    0    0    0 -0.00000000000E+00 -0.00000000000E+00 -0.10000000000E+04  0.10000000000E+04  0.00000000000E+00 0.  1.
    9000005    2    1    2  501    0  0.59302232984E-04  0.17951513847E-03 -0.89253582481E+03  0.11074641347E+04  0.65563451035E+03 0.  0.
         13    1    3    3    0    0  0.15748024201E+03 -0.12099486395E+02  0.38955226817E+02  0.16267739207E+03  0.00000000000E+00 0.  1.
          3    1    3    3  501    0 -0.15748018271E+03  0.12099665910E+02 -0.93149105163E+03  0.94478674267E+03  0.00000000000E+00 0.  1.
         21    1    1    2  502  501 -0.59302233003E-04 -0.17951513847E-03  0.42153838195E-03  0.46199247530E-03  0.00000000000E+00 0.  1.
<mgrwt>
<rscale>  1 0.65563451E+03</rscale>
<asrwt>0</asrwt>
<pdfrwt beam="1">  1        1 0.39078118E+00 0.65563451E+03</pdfrwt>
<pdfrwt beam="2">0</pdfrwt>
<totfact> 0.14687554E+00</totfact>
</mgrwt>
</event>
<event>
 6    1  0.2173548E-003  0.6424571E+03  0.7818608E-02  0.9821037E-01
          1   -1    0    0  502    0  0.00000000000E+00  0.00000000000E+00  0.10346315905E+03  0.10346315905E+03  0.00000000000E+00 0.  1.
         13   -1    0    0    0    0 -0.00000000000E+00 -0.00000000000E+00 -0.10000000000E+04  0.10000000000E+04  0.00000000000E+00 0.  1.
    9000005    2    1    2  501    0 -0.16231995663E-01 -0.41820898063E-02 -0.89681194731E+03  0.11031875425E+04  0.64245706847E+03 0.  0.
         13    1    3    3    0    0  0.17695399666E+03  0.16711934803E+03 -0.88443268858E+02  0.25896680333E+03  0.00000000000E+00 0.  1.
          1    1    3    3  501    0 -0.17697022865E+03 -0.16712353012E+03 -0.80836867845E+03  0.84422073918E+03  0.00000000000E+00 0.  1.
         21    1    1    2  502  501  0.16231995663E-01  0.41820898063E-02  0.27510636677E+00  0.27561654631E+00  0.00000000000E+00 0. -1.
<mgrwt>
<rscale>  1 0.64245707E+03</rscale>
<asrwt>0</asrwt>
<pdfrwt beam="1">  1        1 0.37623046E+00 0.64245707E+03</pdfrwt>
<pdfrwt beam="2">0</pdfrwt>
<totfact> 0.17073390E+00</totfact>
</mgrwt>
</event>
<event>
 6    1  0.2173548E-003  0.6517864E+03  0.7818608E-02  0.9803433E-01
          1   -1    0    0  502    0  0.00000000000E+00  0.00000000000E+00  0.10738735532E+03  0.10738735532E+03  0.00000000000E+00 0.  1.
         13   -1    0    0    0    0 -0.00000000000E+00 -0.00000000000E+00 -0.10000000000E+04  0.10000000000E+04  0.00000000000E+00 0.  1.
    9000005    2    1    2  501    0 -0.13893776711E+01 -0.30377173298E+01 -0.89001622369E+03  0.11031565754E+04  0.65177787114E+03 0.  0.
         13    1    3    3    0    0  0.10889447313E+03  0.27184654428E+03 -0.67909851252E+03  0.73954941661E+03  0.00000000000E+00 0.  1.
          3    1    3    3  501    0 -0.11028385080E+03 -0.27488426161E+03 -0.21091771117E+03  0.36360715878E+03  0.00000000000E+00 0.  1.
         21    1    1    2  502  501  0.13893776711E+01  0.30377173298E+01 -0.25964209856E+01  0.42307799308E+01  0.00000000000E+00 0.  1.
<mgrwt>
<rscale>  1 0.65178643E+03</rscale>
<asrwt>0</asrwt>
<pdfrwt beam="1">  1        1 0.39050030E+00 0.65178643E+03</pdfrwt>
<pdfrwt beam="2">0</pdfrwt>
<totfact> 0.14740295E+00</totfact>
</mgrwt>
</event>
<event>
 6    1  0.2173548E-003  0.6352234E+03  0.7818608E-02  0.9834908E-01
          1   -1    0    0  502    0  0.00000000000E+00  0.00000000000E+00  0.10425058674E+03  0.10425058674E+03  0.00000000000E+00 0.  1.
         13   -1    0    0    0    0 -0.00000000000E+00 -0.00000000000E+00 -0.10000000000E+04  0.10000000000E+04  0.00000000000E+00 0.  1.
    9000005    2    1    2  501    0  0.99853270885E+00  0.16011588717E+00 -0.89903919089E+03  0.11008088805E+04  0.63522256103E+03 0.  0.
         13    1    3    3    0    0 -0.13211785091E+03  0.45377228630E+02  0.44688395837E+02  0.14666721559E+03  0.00000000000E+00 0.  1.
          1    1    3    3  501    0  0.13311638361E+03 -0.45217112743E+02 -0.94372758672E+03  0.95414166496E+03  0.00000000000E+00 0.  1.
         21    1    1    2  502  501 -0.99853270885E+00 -0.16011588717E+00  0.32897776222E+01  0.34417061862E+01  0.00000000000E+00 0. -1.
<mgrwt>
<rscale>  1 0.63522337E+03</rscale>
<asrwt>0</asrwt>
<pdfrwt beam="1">  1        1 0.37909384E+00 0.63522337E+03</pdfrwt>
<pdfrwt beam="2">0</pdfrwt>
<totfact> 0.16606696E+00</totfact>
</mgrwt>
</event>
<event>
 6    1  0.2173548E-003  0.6527476E+03  0.7818608E-02  0.9801637E-01
          3   -1    0    0  502    0  0.00000000000E+00  0.00000000000E+00  0.10653704647E+03  0.10653704647E+03  0.00000000000E+00 0.  1.
         13   -1    0    0    0    0 -0.00000000000E+00 -0.00000000000E+00 -0.10000000000E+04  0.10000000000E+04  0.00000000000E+00 0.  1.
    9000005    2    1    2  501    0 -0.41875679065E-02 -0.67055216888E-02 -0.89347913971E+03  0.11065190328E+04  0.65274757510E+03 0.  0.
         13    1    3    3    0    0  0.31311877272E+03 -0.90076235753E+02 -0.47899305684E+03  0.57930254839E+03  0.00000000000E+00 0.  1.
          3    1    3    3  501    0 -0.31312296029E+03  0.90069530231E+02 -0.41448608287E+03  0.52721648441E+03  0.00000000000E+00 0.  1.
         21    1    1    2  502  501  0.41875679065E-02  0.67055216888E-02  0.16186177028E-01  0.18013663505E-01  0.00000000000E+00 0.  1.
<mgrwt>
<rscale>  1 0.65274758E+03</rscale>
<asrwt>0</asrwt>
<pdfrwt beam="1">  1        3 0.38740826E+00 0.65274758E+03</pdfrwt>
<pdfrwt beam="2">0</pdfrwt>
<totfact> 0.68952662E-02</totfact>
</mgrwt>
</event>
<event>
 6    1  0.2173548E-003  0.6478260E+03  0.7818608E-02  0.9810867E-01
          3   -1    0    0  502    0  0.00000000000E+00  0.00000000000E+00  0.11130799351E+03  0.11130799351E+03  0.00000000000E+00 0.  1.
         13   -1    0    0    0    0 -0.00000000000E+00 -0.00000000000E+00 -0.10000000000E+04  0.10000000000E+04  0.00000000000E+00 0.  1.
    9000005    2    1    2  501    0 -0.42566711198E+01 -0.10294381936E+02 -0.88919441847E+03  0.11001569413E+04  0.64773025869E+03 0.  0.
         13    1    3    3    0    0  0.54612434780E+02 -0.12426773699E+03 -0.94897404259E+03  0.95863273573E+03  0.00000000000E+00 0.  1.
          3    1    3    3  501    0 -0.58869105900E+02  0.11397335505E+03  0.59779624127E+02  0.14152420553E+03  0.00000000000E+00 0.  1.
         21    1    1    2  502  501  0.42566711198E+01  0.10294381936E+02  0.50241197689E+00  0.11151052250E+02  0.00000000000E+00 0. -1.
<mgrwt>
<rscale>  1 0.64782604E+03</rscale>
<asrwt>0</asrwt>
<pdfrwt beam="1">  1        3 0.40475719E+00 0.64782604E+03</pdfrwt>
<pdfrwt beam="2">0</pdfrwt>
<totfact> 0.55960460E-02</totfact>
</mgrwt>
</event>
<event>
 6    1  0.3379378E-003  0.5895479E+03  0.7818608E-02  0.9927331E-01
          1   -1    0    0  502    0  0.00000000000E+00  0.00000000000E+00  0.86891683923E+02  0.86891683923E+02  0.00000000000E+00 0.  1.
         13   -1    0    0    0    0 -0.00000000000E+00 -0.00000000000E+00 -0.10000000000E+04  0.10000000000E+04  0.00000000000E+00 0.  1.
    9000005    2    1    2  501    0 -0.10706887856E-05 -0.52540645044E-05 -0.91310832346E+03  0.10868916748E+04  0.58954787963E+03 0.  0.
         13    1    3    3    0    0  0.21174737128E+02  0.40438751207E+02  0.80336222450E+02  0.92398975802E+02  0.00000000000E+00 0.  1.
          1    1    3    3  501    0 -0.21174738199E+02 -0.40438756461E+02 -0.99344454591E+03  0.99449269900E+03  0.00000000000E+00 0.  1.
         21    1    1    2  502  501  0.10706887868E-05  0.52540645092E-05  0.73823243738E-05  0.91241592218E-05  0.00000000000E+00 0. -1.
<mgrwt>
<rscale>  1 0.58954788E+03</rscale>
<asrwt>0</asrwt>
<pdfrwt beam="1">  1        1 0.31597043E+00 0.58954788E+03</pdfrwt>
<pdfrwt beam="2">0</pdfrwt>
<totfact> 0.31540799E+00</totfact>
</mgrwt>
</event>
<event>
 6    1  0.4074277E-003  0.6542084E+03  0.7818608E-02  0.9798914E-01
          1   -1    0    0  502    0  0.00000000000E+00  0.00000000000E+00  0.10699714894E+03  0.10699714894E+03  0.00000000000E+00 0.  1.
         13   -1    0    0    0    0 -0.00000000000E+00 -0.00000000000E+00 -0.10000000000E+04  0.10000000000E+04  0.00000000000E+00 0.  1.
    9000005    2    1    2  501    0  0.13195179804E-04 -0.11542716464E-04 -0.89300284035E+03  0.11069971284E+04  0.65420835321E+03 0.  0.
         13    1    3    3    0    0  0.30858300911E+03  0.10730542198E+03 -0.41925791600E+03  0.53152152094E+03  0.00000000000E+00 0.  1.
          3    1    3    3  501    0 -0.30858299591E+03 -0.10730543352E+03 -0.47374492436E+03  0.57547560746E+03  0.00000000000E+00 0.  1.
         21    1    1    2  502  501 -0.13195179831E-04  0.11542716464E-04 -0.10704347363E-04  0.20540937822E-04  0.00000000000E+00 0.  1.
<mgrwt>
<rscale>  1 0.65420835E+03</rscale>
<asrwt>0</asrwt>
<pdfrwt beam="1">  1        1 0.38908136E+00 0.65420835E+03</pdfrwt>
<pdfrwt beam="2">0</pdfrwt>
<totfact> 0.14948664E+00</totfact>
</mgrwt>
</event>
<event>
 6    1  0.2173548E-003  0.6585454E+03  0.7818608E-02  0.9790875E-01
          1   -1    0    0  502    0  0.00000000000E+00  0.00000000000E+00  0.10898018922E+03  0.10898018922E+03  0.00000000000E+00 0.  1.
         13   -1    0    0    0    0 -0.00000000000E+00 -0.00000000000E+00 -0.10000000000E+04  0.10000000000E+04  0.00000000000E+00 0.  1.
    9000005    2    1    2  501    0 -0.15492689273E+01  0.27854726703E+00 -0.88979546898E+03  0.11069859887E+04  0.65854348738E+03 0.  0.
         13    1    3    3    0    0  0.66567949045E+02  0.21864975831E+03 -0.84308535326E+03  0.87351698412E+03  0.00000000000E+00 0.  1.
          1    1    3    3  501    0 -0.68117217972E+02 -0.21837121104E+03 -0.46710115714E+02  0.23346900460E+03  0.00000000000E+00 0.  1.
         21    1    1    2  502  501  0.15492689273E+01 -0.27854726703E+00 -0.12243418056E+01  0.19942005030E+01  0.00000000000E+00 0. -1.
<mgrwt>
<rscale>  1 0.65854537E+03</rscale>
<asrwt>0</asrwt>
<pdfrwt beam="1">  1        1 0.39629243E+00 0.65854537E+03</pdfrwt>
<pdfrwt beam="2">0</pdfrwt>
<totfact> 0.13874801E+00</totfact>
</mgrwt>
</event>
<event>
 6    1  0.2173548E-003  0.6502335E+03  0.7818608E-02  0.9806341E-01
          1   -1    0    0  502    0  0.00000000000E+00  0.00000000000E+00  0.10573493041E+03  0.10573493041E+03  0.00000000000E+00 0.  1.
         13   -1    0    0    0    0 -0.00000000000E+00 -0.00000000000E+00 -0.10000000000E+04  0.10000000000E+04  0.00000000000E+00 0.  1.
    9000005    2    1    2  501    0  0.15318835700E-01  0.70820507363E-02 -0.89429677006E+03  0.11056990174E+04  0.65023349955E+03 0.  0.
         13    1    3    3    0    0  0.15261529361E+03 -0.52289900464E+02  0.32840155408E+02  0.16463334213E+03  0.00000000000E+00 0.  1.
          3    1    3    3  501    0 -0.15259997477E+03  0.52296982514E+02 -0.92713692546E+03  0.94106567531E+03  0.00000000000E+00 0.  1.
         21    1    1    2  502  501 -0.15318835700E-01 -0.70820507363E-02  0.31700467573E-01  0.35912975568E-01  0.00000000000E+00 0.  1.
<mgrwt>
<rscale>  1 0.65023350E+03</rscale>
<asrwt>0</asrwt>
<pdfrwt beam="1">  1        1 0.38449147E+00 0.65023350E+03</pdfrwt>
<pdfrwt beam="2">0</pdfrwt>
<totfact> 0.15676265E+00</totfact>
</mgrwt>
</event>
<event>
 6    1  0.2173548E-003  0.6459447E+03  0.7818608E-02  0.9814419E-01
          1   -1    0    0  502    0  0.00000000000E+00  0.00000000000E+00  0.10883928458E+03  0.10883928458E+03  0.00000000000E+00 0.  1.
         13   -1    0    0    0    0 -0.00000000000E+00 -0.00000000000E+00 -0.10000000000E+04  0.10000000000E+04  0.00000000000E+00 0.  1.
    9000005    2    1    2  501    0  0.32390186027E+00 -0.13079330034E+01 -0.89557791805E+03  0.11042211377E+04  0.64594326233E+03 0.  0.
         13    1    3    3    0    0  0.80622540324E+02  0.17859864739E+02  0.85971591383E+02  0.11920605396E+03  0.00000000000E+00 0.  1.
          3    1    3    3  501    0 -0.80298638464E+02 -0.19167797743E+02 -0.98154950943E+03  0.98501508378E+03  0.00000000000E+00 0.  1.
         21    1    1    2  502  501 -0.32390186027E+00  0.13079330034E+01  0.44172026247E+01  0.46181468344E+01  0.00000000000E+00 0.  1.
<mgrwt>
<rscale>  1 0.64594467E+03</rscale>
<asrwt>0</asrwt>
<pdfrwt beam="1">  1        1 0.39578005E+00 0.64594467E+03</pdfrwt>
<pdfrwt beam="2">0</pdfrwt>
<totfact> 0.13980936E+00</totfact>
</mgrwt>
</event>
<event>
 6    1  0.2173548E-003  0.7120289E+03  0.7818608E-02  0.9696879E-01
          1   -1    0    0  502    0  0.00000000000E+00  0.00000000000E+00  0.12705302249E+03  0.12705302249E+03  0.00000000000E+00 0.  1.
         13   -1    0    0    0    0 -0.00000000000E+00 -0.00000000000E+00 -0.10000000000E+04  0.10000000000E+04  0.00000000000E+00 0.  1.
    9000005    2    1    2  501    0  0.11233516033E-01 -0.27555435491E-02 -0.87325359124E+03  0.11267461907E+04  0.71202889228E+03 0.  0.
         13    1    3    3    0    0 -0.20000382890E+03 -0.32392138193E+02  0.26612632406E+02  0.20435022485E+03  0.00000000000E+00 0.  1.
          1    1    3    3  501    0  0.20001506242E+03  0.32389382650E+02 -0.89986622365E+03  0.92239596582E+03  0.00000000000E+00 0.  1.
         21    1    1    2  502  501 -0.11233516033E-01  0.27555435491E-02  0.30661372843E+00  0.30683181609E+00  0.00000000000E+00 0. -1.
<mgrwt>
<rscale>  1 0.71202889E+03</rscale>
<asrwt>0</asrwt>
<pdfrwt beam="1">  1        1 0.46201197E+00 0.71202889E+03</pdfrwt>
<pdfrwt beam="2">0</pdfrwt>
<totfact> 0.69022926E-01</totfact>
</mgrwt>
</event>
<event>
 6    1  0.2173548E-003  0.6303172E+03  0.7818608E-02  0.9844430E-01
          1   -1    0    0  502    0  0.00000000000E+00  0.00000000000E+00  0.99359177545E+02  0.99359177545E+02  0.00000000000E+00 0.  1.
         13   -1    0    0    0    0 -0.00000000000E+00 -0.00000000000E+00 -0.10000000000E+04  0.10000000000E+04  0.00000000000E+00 0.  1.
    9000005    2    1    2  501    0 -0.12553612270E-01 -0.13284719110E-02 -0.90067378010E+03  0.10993238850E+04  0.63031717874E+03 0.  0.
         13    1    3    3    0    0 -0.12450132685E+03  0.28834632446E+03 -0.49588421782E+03  0.58697984693E+03  0.00000000000E+00 0.  1.
          3    1    3    3  501    0  0.12448877323E+03 -0.28834765294E+03 -0.40478956228E+03  0.51234403807E+03  0.00000000000E+00 0.  1.
         21    1    1    2  502  501  0.12553612270E-01  0.13284719110E-02  0.32957640508E-01  0.35292550014E-01  0.00000000000E+00 0.  1.
<mgrwt>
<rscale>  1 0.63031718E+03</rscale>
<asrwt>0</asrwt>
<pdfrwt beam="1">  1        1 0.36130686E+00 0.63031718E+03</pdfrwt>
<pdfrwt beam="2">0</pdfrwt>
<totfact> 0.19897010E+00</totfact>
</mgrwt>
</event>
<event>
 6    1  0.2173548E-003  0.6561583E+03  0.7818608E-02  0.9795292E-01
          1   -1    0    0  502    0  0.00000000000E+00  0.00000000000E+00  0.10767542546E+03  0.10767542546E+03  0.00000000000E+00 0.  1.
         13   -1    0    0    0    0 -0.00000000000E+00 -0.00000000000E+00 -0.10000000000E+04  0.10000000000E+04  0.00000000000E+00 0.  1.
    9000005    2    1    2  501    0 -0.63977185610E-01 -0.42909163437E-01 -0.89231697935E+03  0.11075980177E+04  0.65615834310E+03 0.  0.
         13    1    3    3    0    0 -0.70797623752E+02  0.29472192394E+03 -0.65801482070E+03  0.72447002715E+03  0.00000000000E+00 0.  1.
          1    1    3    3  501    0  0.70733646566E+02 -0.29476483310E+03 -0.23430215865E+03  0.38312799054E+03  0.00000000000E+00 0.  1.
         21    1    1    2  502  501  0.63977185610E-01  0.42909163437E-01 -0.75951906451E-02  0.77407774199E-01  0.00000000000E+00 0. -1.
<mgrwt>
<rscale>  1 0.65615835E+03</rscale>
<asrwt>0</asrwt>
<pdfrwt beam="1">  1        1 0.39154783E+00 0.65615835E+03</pdfrwt>
<pdfrwt beam="2">0</pdfrwt>
<totfact> 0.14571532E+00</totfact>
</mgrwt>
</event>
<event>
 6    1  0.2173548E-003  0.6428850E+03  0.7818608E-02  0.9820222E-01
          1   -1    0    0  502    0  0.00000000000E+00  0.00000000000E+00  0.10332849335E+03  0.10332849335E+03  0.00000000000E+00 0.  1.
         13   -1    0    0    0    0 -0.00000000000E+00 -0.00000000000E+00 -0.10000000000E+04  0.10000000000E+04  0.00000000000E+00 0.  1.
    9000005    2    1    2  501    0 -0.33415001795E-04 -0.20806587185E-03 -0.89667472720E+03  0.11033252659E+04  0.64288496327E+03 0.  0.
         13    1    3    3    0    0  0.12655996294E+03 -0.11463695677E+02  0.58384718594E+02  0.13984854630E+03  0.00000000000E+00 0.  1.
          1    1    3    3  501    0 -0.12655999636E+03  0.11463487611E+02 -0.95505944579E+03  0.96347671961E+03  0.00000000000E+00 0.  1.
         21    1    1    2  502  501  0.33415001796E-04  0.20806587185E-03  0.32205535302E-02  0.32274406285E-02  0.00000000000E+00 0.  1.
<mgrwt>
<rscale>  1 0.64288496E+03</rscale>
<asrwt>0</asrwt>
<pdfrwt beam="1">  1        1 0.37574077E+00 0.64288496E+03</pdfrwt>
<pdfrwt beam="2">0</pdfrwt>
<totfact> 0.17157033E+00</totfact>
</mgrwt>
</event>
<event>
 6    1  0.2173548E-003  0.6406940E+03  0.7818608E-02  0.9824400E-01
          1   -1    0    0  502    0  0.00000000000E+00  0.00000000000E+00  0.13265431309E+03  0.13265431309E+03  0.00000000000E+00 0.  1.
         13   -1    0    0    0    0 -0.00000000000E+00 -0.00000000000E+00 -0.10000000000E+04  0.10000000000E+04  0.00000000000E+00 0.  1.
    9000005    2    1    2  501    0  0.23232937366E+01  0.10555998730E+01 -0.89731801084E+03  0.11025735520E+04  0.64068893625E+03 0.  0.
         13    1    3    3    0    0  0.18581662190E+03  0.23489363042E+03 -0.65080495155E+03  0.71641462823E+03  0.00000000000E+00 0.  1.
          1    1    3    3  501    0 -0.18349332816E+03 -0.23383803055E+03 -0.24651305930E+03  0.38615892378E+03  0.00000000000E+00 0.  1.
         21    1    1    2  502  501 -0.23232937366E+01 -0.10555998730E+01  0.29972323930E+02  0.30080761072E+02  0.00000000000E+00 0. -1.
<mgrwt>
<rscale>  1 0.64069402E+03</rscale>
<asrwt>0</asrwt>
<pdfrwt beam="1">  1        1 0.48238034E+00 0.64069402E+03</pdfrwt>
<pdfrwt beam="2">0</pdfrwt>
<totfact> 0.56222534E-01</totfact>
</mgrwt>
</event>
<event>
 6    1  0.2173548E-003  0.4825522E+03  0.7818608E-02  0.1018436E+00
          1   -1    0    0  502    0  0.00000000000E+00  0.00000000000E+00  0.58611610693E+02  0.58611610693E+02  0.00000000000E+00 0.  1.
         13   -1    0    0    0    0 -0.00000000000E+00 -0.00000000000E+00 -0.10000000000E+04  0.10000000000E+04  0.00000000000E+00 0.  1.
    9000005    2    1    2  501    0  0.57019507613E-01  0.37650042436E-01 -0.94178274402E+03  0.10582113803E+04  0.48255215649E+03 0.  0.
         13    1    3    3    0    0  0.15066818619E+03  0.17855089178E+03 -0.33849972685E+03  0.41129477065E+03  0.00000000000E+00 0.  1.
          3    1    3    3  501    0 -0.15061116668E+03 -0.17851324174E+03 -0.60328301717E+03  0.64691660962E+03  0.00000000000E+00 0.  1.
         21    1    1    2  502  501 -0.57019507613E-01 -0.37650042436E-01  0.39435471329E+00  0.40023042093E+00  0.00000000000E+00 0. -1.
<mgrwt>
<rscale>  1 0.48255216E+03</rscale>
<asrwt>0</asrwt>
<pdfrwt beam="1">  1        1 0.21313358E+00 0.48255216E+03</pdfrwt>
<pdfrwt beam="2">0</pdfrwt>
<totfact> 0.89976345E+00</totfact>
</mgrwt>
</event>
<event>
 6    1  0.2173548E-003  0.6549847E+03  0.7818608E-02  0.9797470E-01
          1   -1    0    0  502    0  0.00000000000E+00  0.00000000000E+00  0.10971003504E+03  0.10971003504E+03  0.00000000000E+00 0.  1.
         13   -1    0    0    0    0 -0.00000000000E+00 -0.00000000000E+00 -0.10000000000E+04  0.10000000000E+04  0.00000000000E+00 0.  1.
    9000005    2    1    2  501    0 -0.32307176499E+01 -0.21068848382E+01 -0.89094536905E+03  0.11057977397E+04  0.65497336893E+03 0.  0.
         13    1    3    3    0    0 -0.11085809985E+03 -0.20471840201E+03 -0.83881985545E+03  0.87052736448E+03  0.00000000000E+00 0.  1.
          3    1    3    3  501    0  0.10762738220E+03  0.20261151717E+03 -0.52125513605E+02  0.23527037522E+03  0.00000000000E+00 0.  1.
         21    1    1    2  502  501  0.32307176499E+01  0.21068848382E+01  0.65540409491E+00  0.39122953343E+01  0.00000000000E+00 0. -1.
<mgrwt>
<rscale>  1 0.65498473E+03</rscale>
<asrwt>0</asrwt>
<pdfrwt beam="1">  1        1 0.39894642E+00 0.65498473E+03</pdfrwt>
<pdfrwt beam="2">0</pdfrwt>
<totfact> 0.13511383E+00</totfact>
</mgrwt>
</event>
<event>
 6    1  0.2173548E-003  0.6403106E+03  0.7818608E-02  0.9825132E-01
          1   -1    0    0  502    0  0.00000000000E+00  0.00000000000E+00  0.10493385239E+03  0.10493385239E+03  0.00000000000E+00 0.  1.
         13   -1    0    0    0    0 -0.00000000000E+00 -0.00000000000E+00 -0.10000000000E+04  0.10000000000E+04  0.00000000000E+00 0.  1.
    9000005    2    1    2  501    0 -0.49238075809E-01  0.41471708261E-01 -0.89750011777E+03  0.11024990310E+04  0.64031058704E+03 0.  0.
         13    1    3    3    0    0 -0.15524030451E+03 -0.23010080638E+03 -0.72343719139E+03  0.77485953768E+03  0.00000000000E+00 0.  1.
          1    1    3    3  501    0  0.15519106643E+03  0.23014227809E+03 -0.17406292638E+03  0.32763949335E+03  0.00000000000E+00 0.  1.
         21    1    1    2  502  501  0.49238075809E-01 -0.41471708261E-01  0.24339701637E+01  0.24348213586E+01  0.00000000000E+00 0.  1.
<mgrwt>
<rscale>  1 0.64031059E+03</rscale>
<asrwt>0</asrwt>
<pdfrwt beam="1">  1        1 0.38157845E+00 0.64031059E+03</pdfrwt>
<pdfrwt beam="2">0</pdfrwt>
<totfact> 0.16177493E+00</totfact>
</mgrwt>
</event>
<event>
 6    1  0.2173548E-003  0.6484734E+03  0.7818608E-02  0.9809648E-01
          1   -1    0    0  502    0  0.00000000000E+00  0.00000000000E+00  0.10512951902E+03  0.10512951902E+03  0.00000000000E+00 0.  1.
         13   -1    0    0    0    0 -0.00000000000E+00 -0.00000000000E+00 -0.10000000000E+04  0.10000000000E+04  0.00000000000E+00 0.  1.
    9000005    2    1    2  501    0 -0.14347466305E-04  0.40102398202E-06 -0.89487057037E+03  0.11051294285E+04  0.64847337340E+03 0.  0.
         13    1    3    3    0    0  0.40987529495E+02 -0.21581976462E+03 -0.41022372269E+02  0.22347479366E+03  0.00000000000E+00 0.  1.
          1    1    3    3  501    0 -0.40987543843E+02  0.21581976502E+03 -0.85384819810E+03  0.88165463483E+03  0.00000000000E+00 0.  1.
         21    1    1    2  502  501  0.14347466304E-04 -0.40102397564E-06  0.89383463965E-04  0.90528527216E-04  0.00000000000E+00 0. -1.
<mgrwt>
<rscale>  1 0.64847337E+03</rscale>
<asrwt>0</asrwt>
<pdfrwt beam="1">  1        1 0.38228997E+00 0.64847337E+03</pdfrwt>
<pdfrwt beam="2">0</pdfrwt>
<totfact> 0.16036641E+00</totfact>
</mgrwt>
</event>
<event>
 6    1  0.2173548E-003  0.5633907E+03  0.7818608E-02  0.9984412E-01
          1   -1    0    0  502    0  0.00000000000E+00  0.00000000000E+00  0.89141044506E+02  0.89141044506E+02  0.00000000000E+00 0.  1.
         13   -1    0    0    0    0 -0.00000000000E+00 -0.00000000000E+00 -0.10000000000E+04  0.10000000000E+04  0.00000000000E+00 0.  1.
    9000005    2    1    2  501    0 -0.16280200507E+02  0.13552747854E+02 -0.90681127869E+03  0.10675747377E+04  0.56299236537E+03 0.  0.
         13    1    3    3    0    0  0.33026494362E+02 -0.85640103473E+02 -0.94572340828E+03  0.95016721771E+03  0.00000000000E+00 0.  1.
          1    1    3    3  501    0 -0.49306694869E+02  0.99192851327E+02  0.38912129593E+02  0.11740751996E+03  0.00000000000E+00 0.  1.
         21    1    1    2  502  501  0.16280200507E+02 -0.13552747854E+02 -0.40476768077E+01  0.21566306834E+02  0.00000000000E+00 0. -1.
<mgrwt>
<rscale>  1 0.56339074E+03</rscale>
<asrwt>0</asrwt>
<pdfrwt beam="1">  1        1 0.32414994E+00 0.56339074E+03</pdfrwt>
<pdfrwt beam="2">0</pdfrwt>
<totfact> 0.29217137E+00</totfact>
</mgrwt>
</event>
<event>
 6    1  0.2173548E-003  0.6518178E+03  0.7818608E-02  0.9803374E-01
          1   -1    0    0  502    0  0.00000000000E+00  0.00000000000E+00  0.10856173857E+03  0.10856173857E+03  0.00000000000E+00 0.  1.
         13   -1    0    0    0    0 -0.00000000000E+00 -0.00000000000E+00 -0.10000000000E+04  0.10000000000E+04  0.00000000000E+00 0.  1.
    9000005    2    1    2  501    0 -0.84076909707E-01  0.23683596708E-01 -0.89378247304E+03  0.11062159001E+04  0.65181784342E+03 0.  0.
         13    1    3    3    0    0  0.10802700255E+03 -0.30465141659E+03 -0.37651309177E+03  0.49623021592E+03  0.00000000000E+00 0.  1.
          3    1    3    3  501    0 -0.10811107946E+03  0.30467510019E+03 -0.51726938126E+03  0.60998568423E+03  0.00000000000E+00 0.  1.
         21    1    1    2  502  501  0.84076909707E-01 -0.23683596708E-01  0.23442116095E+01  0.23458384236E+01  0.00000000000E+00 0.  1.
<mgrwt>
<rscale>  1 0.65181785E+03</rscale>
<asrwt>0</asrwt>
<pdfrwt beam="1">  1        1 0.39477079E+00 0.65181785E+03</pdfrwt>
<pdfrwt beam="2">0</pdfrwt>
<totfact> 0.14110473E+00</totfact>
</mgrwt>
</event>
<event>
 6    1  0.2173548E-003  0.6391112E+03  0.7818608E-02  0.9827429E-01
          1   -1    0    0  502    0  0.00000000000E+00  0.00000000000E+00  0.10324301436E+03  0.10324301436E+03  0.00000000000E+00 0.  1.
         13   -1    0    0    0    0 -0.00000000000E+00 -0.00000000000E+00 -0.10000000000E+04  0.10000000000E+04  0.00000000000E+00 0.  1.
    9000005    2    1    2  501    0  0.24777306023E+00  0.51104358106E+00 -0.89780485769E+03  0.11020511281E+04  0.63911094804E+03 0.  0.
         13    1    3    3    0    0  0.13936275162E+03 -0.25793507154E+03 -0.66725170949E+03  0.72881912810E+03  0.00000000000E+00 0.  1.
          1    1    3    3  501    0 -0.13911497856E+03  0.25844611512E+03 -0.23055314819E+03  0.37323200000E+03  0.00000000000E+00 0.  1.
         21    1    1    2  502  501 -0.24777306023E+00 -0.51104358106E+00  0.10478720436E+01  0.11918862575E+01  0.00000000000E+00 0.  1.
<mgrwt>
<rscale>  1 0.63911120E+03</rscale>
<asrwt>0</asrwt>
<pdfrwt beam="1">  1        1 0.37542993E+00 0.63911120E+03</pdfrwt>
<pdfrwt beam="2">0</pdfrwt>
<totfact> 0.17223103E+00</totfact>
</mgrwt>
</event>
<event>
 6    1  0.2173548E-003  0.6388949E+03  0.7818608E-02  0.9827843E-01
          1   -1    0    0  502    0  0.00000000000E+00  0.00000000000E+00  0.10204826525E+03  0.10204826525E+03  0.00000000000E+00 0.  1.
         13   -1    0    0    0    0 -0.00000000000E+00 -0.00000000000E+00 -0.10000000000E+04  0.10000000000E+04  0.00000000000E+00 0.  1.
    9000005    2    1    2  501    0 -0.39197573365E-02 -0.26593053099E-02 -0.89794718519E+03  0.11020416975E+04  0.63889494887E+03 0.  0.
         13    1    3    3    0    0 -0.12074655533E+03  0.26860854654E+03 -0.23549974219E+03  0.37708143745E+03  0.00000000000E+00 0.  1.
          3    1    3    3  501    0  0.12074263557E+03 -0.26861120585E+03 -0.66244744300E+03  0.72496026008E+03  0.00000000000E+00 0.  1.
         21    1    1    2  502  501  0.39197573365E-02  0.26593053098E-02 -0.45495650158E-02  0.65677198586E-02  0.00000000000E+00 0. -1.
<mgrwt>
<rscale>  1 0.63889495E+03</rscale>
<asrwt>0</asrwt>
<pdfrwt beam="1">  1        1 0.37108538E+00 0.63889495E+03</pdfrwt>
<pdfrwt beam="2">0</pdfrwt>
<totfact> 0.17998490E+00</totfact>
</mgrwt>
</event>
<event>
 6    1  0.2173548E-003  0.6511786E+03  0.7818608E-02  0.9804570E-01
          1   -1    0    0  502    0  0.00000000000E+00  0.00000000000E+00  0.10652046070E+03  0.10652046070E+03  0.00000000000E+00 0.  1.
         13   -1    0    0    0    0 -0.00000000000E+00 -0.00000000000E+00 -0.10000000000E+04  0.10000000000E+04  0.00000000000E+00 0.  1.
    9000005    2    1    2  501    0  0.12818865102E+00 -0.87564696815E-01 -0.89397855513E+03  0.11059978550E+04  0.65117860388E+03 0.  0.
         13    1    3    3    0    0  0.97498014151E+02 -0.30945695595E+03 -0.49446287815E+03  0.59140764978E+03  0.00000000000E+00 0.  1.
          1    1    3    3  501    0 -0.97369825500E+02  0.30936939126E+03 -0.39951567699E+03  0.51459020523E+03  0.00000000000E+00 0.  1.
         21    1    1    2  502  501 -0.12818865102E+00  0.87564696815E-01  0.49901583085E+00  0.52260568866E+00  0.00000000000E+00 0. -1.
<mgrwt>
<rscale>  1 0.65117862E+03</rscale>
<asrwt>0</asrwt>
<pdfrwt beam="1">  1        1 0.38734795E+00 0.65117862E+03</pdfrwt>
<pdfrwt beam="2">0</pdfrwt>
<totfact> 0.15223905E+00</totfact>
</mgrwt>
</event>
<event>
 6    1  0.2173548E-003  0.4872364E+03  0.7818608E-02  0.1017165E+00
          1   -1    0    0  502    0  0.00000000000E+00  0.00000000000E+00  0.59369894643E+02  0.59369894643E+02  0.00000000000E+00 0.  1.
         13   -1    0    0    0    0 -0.00000000000E+00 -0.00000000000E+00 -0.10000000000E+04  0.10000000000E+04  0.00000000000E+00 0.  1.
    9000005    2    1    2  501    0 -0.16136601813E-02 -0.94692892954E-03 -0.94065012705E+03  0.10593497857E+04  0.48723639743E+03 0.  0.
         13    1    3    3    0    0  0.11729967334E+03 -0.20765829359E+02 -0.93235728494E+03  0.93993645520E+03  0.00000000000E+00 0.  1.
          1    1    3    3  501    0 -0.11730128700E+03  0.20764882431E+02 -0.82928421083E+01  0.11941333052E+03  0.00000000000E+00 0.  1.
         21    1    1    2  502  501  0.16136601813E-02  0.94692892954E-03  0.20021693633E-01  0.20108923131E-01  0.00000000000E+00 0. -1.
<mgrwt>
<rscale>  1 0.48723640E+03</rscale>
<asrwt>0</asrwt>
<pdfrwt beam="1">  1        1 0.21589098E+00 0.48723640E+03</pdfrwt>
<pdfrwt beam="2">0</pdfrwt>
<totfact> 0.87398583E+00</totfact>
</mgrwt>
</event>
<event>
 6    1  0.2173548E-003  0.6488432E+03  0.7818608E-02  0.9808952E-01
          1   -1    0    0  502    0  0.00000000000E+00  0.00000000000E+00  0.10536953528E+03  0.10536953528E+03  0.00000000000E+00 0.  1.
         13   -1    0    0    0    0 -0.00000000000E+00 -0.00000000000E+00 -0.10000000000E+04  0.10000000000E+04  0.00000000000E+00 0.  1.
    9000005    2    1    2  501    0  0.55768073991E-02 -0.16350635332E-03 -0.89475055156E+03  0.11052493189E+04  0.64884320710E+03 0.  0.
         13    1    3    3    0    0  0.13981770221E+03 -0.43603975309E+02 -0.94048507348E+03  0.95182060808E+03  0.00000000000E+00 0.  1.
          1    1    3    3  501    0 -0.13981212540E+03  0.43603811803E+02  0.45734521926E+02  0.15342871083E+03  0.00000000000E+00 0.  1.
         21    1    1    2  502  501 -0.55768073991E-02  0.16350635331E-03  0.12008683642E+00  0.12021637075E+00  0.00000000000E+00 0.  1.
<mgrwt>
<rscale>  1 0.64884321E+03</rscale>
<asrwt>0</asrwt>
<pdfrwt beam="1">  1        1 0.38316275E+00 0.64884321E+03</pdfrwt>
<pdfrwt beam="2">0</pdfrwt>
<totfact> 0.15893797E+00</totfact>
</mgrwt>
</event>
<event>
 6    1  0.2173548E-003  0.4687507E+03  0.7818608E-02  0.1022273E+00
          1   -1    0    0  502    0  0.00000000000E+00  0.00000000000E+00  0.54931850302E+02  0.54931850302E+02  0.00000000000E+00 0.  1.
         13   -1    0    0    0    0 -0.00000000000E+00 -0.00000000000E+00 -0.10000000000E+04  0.10000000000E+04  0.00000000000E+00 0.  1.
    9000005    2    1    2  501    0  0.54053052921E-04  0.48355640459E-04 -0.94506817890E+03  0.10549317721E+04  0.46875065979E+03 0.  0.
         13    1    3    3    0    0  0.40453749453E+02  0.92501879076E+02 -0.94855297060E+03  0.95391081424E+03  0.00000000000E+00 0.  1.
          3    1    3    3  501    0 -0.40453695400E+02 -0.92501830721E+02  0.34847917001E+01  0.10102095788E+03  0.00000000000E+00 0.  1.
         21    1    1    2  502  501 -0.54053052923E-04 -0.48355640457E-04  0.29203899443E-04  0.78184833805E-04  0.00000000000E+00 0.  1.
<mgrwt>
<rscale>  1 0.46875066E+03</rscale>
<asrwt>0</asrwt>
<pdfrwt beam="1">  1        1 0.19975260E+00 0.46875066E+03</pdfrwt>
<pdfrwt beam="2">0</pdfrwt>
<totfact> 0.10357828E+01</totfact>
</mgrwt>
</event>
<event>
 6    1  0.2173548E-003  0.6409869E+03  0.7818608E-02  0.9823840E-01
          1   -1    0    0  502    0  0.00000000000E+00  0.00000000000E+00  0.10277461419E+03  0.10277461419E+03  0.00000000000E+00 0.  1.
         13   -1    0    0    0    0 -0.00000000000E+00 -0.00000000000E+00 -0.10000000000E+04  0.10000000000E+04  0.00000000000E+00 0.  1.
    9000005    2    1    2  501    0 -0.81964551252E-01 -0.70430200873E-01 -0.89722305285E+03  0.11026665214E+04  0.64098692597E+03 0.  0.
         13    1    3    3    0    0  0.19164246261E+03 -0.13201522656E+03 -0.82766022903E+03  0.85975363229E+03  0.00000000000E+00 0.  1.
          3    1    3    3  501    0 -0.19172442716E+03  0.13194479635E+03 -0.69562823811E+02  0.24291288915E+03  0.00000000000E+00 0.  1.
         21    1    1    2  502  501  0.81964551252E-01  0.70430200873E-01 -0.23329589617E-02  0.10809275440E+00  0.00000000000E+00 0. -1.
<mgrwt>
<rscale>  1 0.64098694E+03</rscale>
<asrwt>0</asrwt>
<pdfrwt beam="1">  1        1 0.37372666E+00 0.64098694E+03</pdfrwt>
<pdfrwt beam="2">0</pdfrwt>
<totfact> 0.17516915E+00</totfact>
</mgrwt>
</event>
<event>
 6    1  0.2173548E-003  0.6278564E+03  0.7818608E-02  0.9849241E-01
          1   -1    0    0  502    0  0.00000000000E+00  0.00000000000E+00  0.10902142561E+03  0.10902142561E+03  0.00000000000E+00 0.  1.
         13   -1    0    0    0    0 -0.00000000000E+00 -0.00000000000E+00 -0.10000000000E+04  0.10000000000E+04  0.00000000000E+00 0.  1.
    9000005    2    1    2  501    0 -0.23142186065E+02 -0.21978028508E+02 -0.85730068285E+03  0.10626232048E+04  0.62704467153E+03 0.  0.
         13    1    3    3    0    0  0.93550657869E+02 -0.14945303932E+03  0.11603453151E+02  0.17669911340E+03  0.00000000000E+00 0.  1.
          3    1    3    3  501    0 -0.11669284393E+03  0.12747501081E+03 -0.86890413600E+03  0.88592409142E+03  0.00000000000E+00 0.  1.
         21    1    1    2  502  501  0.23142186065E+02  0.21978028508E+02 -0.33677891546E+02  0.46398220785E+02  0.00000000000E+00 0.  1.
<mgrwt>
<rscale>  1 0.62785636E+03</rscale>
<asrwt>0</asrwt>
<pdfrwt beam="1">  1        1 0.39644238E+00 0.62785636E+03</pdfrwt>
<pdfrwt beam="2">0</pdfrwt>
<totfact> 0.13934846E+00</totfact>
</mgrwt>
</event>
<event>
 6    1  0.2173548E-003  0.6546015E+03  0.7818608E-02  0.9798183E-01
          1   -1    0    0  502    0  0.00000000000E+00  0.00000000000E+00  0.10737233463E+03  0.10737233463E+03  0.00000000000E+00 0.  1.
         13   -1    0    0    0    0 -0.00000000000E+00 -0.00000000000E+00 -0.10000000000E+04  0.10000000000E+04  0.00000000000E+00 0.  1.
    9000005    2    1    2  501    0 -0.13404403226E-01 -0.86278218776E-01 -0.89286564473E+03  0.11071188434E+04  0.65460145612E+03 0.  0.
         13    1    3    3    0    0 -0.24917750135E+02  0.90609366826E+02  0.83814907610E+02  0.12592017458E+03  0.00000000000E+00 0.  1.
          3    1    3    3  501    0  0.24904345732E+02 -0.90695645045E+02 -0.97668055234E+03  0.98119866886E+03  0.00000000000E+00 0.  1.
         21    1    1    2  502  501  0.13404403226E-01  0.86278218776E-01  0.23797935298E+00  0.25349118625E+00  0.00000000000E+00 0.  1.
<mgrwt>
<rscale>  1 0.65460146E+03</rscale>
<asrwt>0</asrwt>
<pdfrwt beam="1">  1        1 0.39044568E+00 0.65460146E+03</pdfrwt>
<pdfrwt beam="2">0</pdfrwt>
<totfact> 0.14740801E+00</totfact>
</mgrwt>
</event>
<event>
 6    1  0.2173548E-003  0.6493080E+03  0.7818608E-02  0.9808079E-01
          1   -1    0    0  502    0  0.00000000000E+00  0.00000000000E+00  0.10540029206E+03  0.10540029206E+03  0.00000000000E+00 0.  1.
         13   -1    0    0    0    0 -0.00000000000E+00 -0.00000000000E+00 -0.10000000000E+04  0.10000000000E+04  0.00000000000E+00 0.  1.
    9000005    2    1    2  501    0 -0.12092990436E-03 -0.79659079461E-04 -0.89459967601E+03  0.11054001438E+04  0.64930801439E+03 0.  0.
         13    1    3    3    0    0 -0.77423350437E+01 -0.31260633541E+03 -0.29871405307E+03  0.43244970828E+03  0.00000000000E+00 0.  1.
          1    1    3    3  501    0  0.77422141138E+01  0.31260625575E+03 -0.59588562294E+03  0.67295043550E+03  0.00000000000E+00 0.  1.
         21    1    1    2  502  501  0.12092990437E-03  0.79659079438E-04 -0.31929118715E-04  0.14828715160E-03  0.00000000000E+00 0.  1.
<mgrwt>
<rscale>  1 0.64930801E+03</rscale>
<asrwt>0</asrwt>
<pdfrwt beam="1">  1        1 0.38327460E+00 0.64930801E+03</pdfrwt>
<pdfrwt beam="2">0</pdfrwt>
<totfact> 0.15874359E+00</totfact>
</mgrwt>
</event>
<event>
 6    1  0.2173548E-003  0.6459001E+03  0.7818608E-02  0.9814503E-01
          1   -1    0    0  502    0  0.00000000000E+00  0.00000000000E+00  0.10429683002E+03  0.10429683002E+03  0.00000000000E+00 0.  1.
         13   -1    0    0    0    0 -0.00000000000E+00 -0.00000000000E+00 -0.10000000000E+04  0.10000000000E+04  0.00000000000E+00 0.  1.
    9000005    2    1    2  501    0 -0.38984772061E-04  0.44579199880E-04 -0.89570324508E+03  0.11042967344E+04  0.64590012720E+03 0.  0.
         13    1    3    3    0    0  0.28501720331E+03 -0.91351130708E+02 -0.65526101417E+03  0.72037964433E+03  0.00000000000E+00 0.  1.
          1    1    3    3  501    0 -0.28501724230E+03  0.91351175288E+02 -0.24044223091E+03  0.38391709005E+03  0.00000000000E+00 0.  1.
         21    1    1    2  502  501  0.38984772045E-04 -0.44579199891E-04  0.75095741356E-04  0.95637272463E-04  0.00000000000E+00 0. -1.
<mgrwt>
<rscale>  1 0.64590013E+03</rscale>
<asrwt>0</asrwt>
<pdfrwt beam="1">  1        1 0.37926200E+00 0.64590013E+03</pdfrwt>
<pdfrwt beam="2">0</pdfrwt>
<totfact> 0.16545663E+00</totfact>
</mgrwt>
</event>
<event>
 6    1  0.2173548E-003  0.6156466E+03  0.7818608E-02  0.9873466E-01
          1   -1    0    0  502    0  0.00000000000E+00  0.00000000000E+00  0.94756653084E+02  0.94756653084E+02  0.00000000000E+00 0.  1.
         13   -1    0    0    0    0 -0.00000000000E+00 -0.00000000000E+00 -0.10000000000E+04  0.10000000000E+04  0.00000000000E+00 0.  1.
    9000005    2    1    2  501    0 -0.58224853660E-04 -0.14075118884E-04 -0.90524480521E+03  0.10947551936E+04  0.61564663280E+03 0.  0.
         13    1    3    3    0    0 -0.71791536910E+02  0.78892944425E+02  0.60840213315E+02  0.12279923863E+03  0.00000000000E+00 0.  1.
          3    1    3    3  501    0  0.71791478685E+02 -0.78892958501E+02 -0.96608501852E+03  0.97195595493E+03  0.00000000000E+00 0.  1.
         21    1    1    2  502  501  0.58224853653E-04  0.14075118875E-04  0.14582917341E-02  0.14595215053E-02  0.00000000000E+00 0.  1.
<mgrwt>
<rscale>  1 0.61564663E+03</rscale>
<asrwt>0</asrwt>
<pdfrwt beam="1">  1        1 0.34457037E+00 0.61564663E+03</pdfrwt>
<pdfrwt beam="2">0</pdfrwt>
<totfact> 0.23601339E+00</totfact>
</mgrwt>
</event>
<event>
 6    1  0.2173548E-003  0.6528085E+03  0.7818608E-02  0.9801523E-01
          1   -1    0    0  502    0  0.00000000000E+00  0.00000000000E+00  0.10654405779E+03  0.10654405779E+03  0.00000000000E+00 0.  1.
         13   -1    0    0    0    0 -0.00000000000E+00 -0.00000000000E+00 -0.10000000000E+04  0.10000000000E+04  0.00000000000E+00 0.  1.
    9000005    2    1    2  501    0 -0.17502682525E-03 -0.53217971094E-03 -0.89346022911E+03  0.11065397344E+04  0.65280854995E+03 0.  0.
         13    1    3    3    0    0 -0.22156717184E+03 -0.14843444548E+03 -0.12774170033E+03  0.29570718328E+03  0.00000000000E+00 0.  1.
          1    1    3    3  501    0  0.22156699681E+03  0.14843391330E+03 -0.76571852878E+03  0.81083255116E+03  0.00000000000E+00 0.  1.
         21    1    1    2  502  501  0.17502682523E-03  0.53217971094E-03  0.42869054452E-02  0.43233560957E-02  0.00000000000E+00 0. -1.
<mgrwt>
<rscale>  1 0.65280855E+03</rscale>
<asrwt>0</asrwt>
<pdfrwt beam="1">  1        1 0.38743375E+00 0.65280855E+03</pdfrwt>
<pdfrwt beam="2">0</pdfrwt>
<totfact> 0.15206001E+00</totfact>
</mgrwt>
</event>
<event>
 6    1  0.2173548E-003  0.6515513E+03  0.7818608E-02  0.9803873E-01
          1   -1    0    0  502    0  0.00000000000E+00  0.00000000000E+00  0.10623243284E+03  0.10623243284E+03  0.00000000000E+00 0.  1.
         13   -1    0    0    0    0 -0.00000000000E+00 -0.00000000000E+00 -0.10000000000E+04  0.10000000000E+04  0.00000000000E+00 0.  1.
    9000005    2    1    2  501    0  0.34039890451E-03 -0.26077626178E-02 -0.89387020309E+03  0.11061297632E+04  0.65155131273E+03 0.  0.
         13    1    3    3    0    0 -0.23574447745E+03  0.93754483640E+02 -0.79387809276E+03  0.83343133371E+03  0.00000000000E+00 0.  1.
          3    1    3    3  501    0  0.23574481785E+03 -0.93757091403E+02 -0.99992110326E+02  0.27269842951E+03  0.00000000000E+00 0.  1.
         21    1    1    2  502  501 -0.34039890451E-03  0.26077626178E-02  0.10263592233E+00  0.10266961016E+00  0.00000000000E+00 0. -1.
<mgrwt>
<rscale>  1 0.65155131E+03</rscale>
<asrwt>0</asrwt>
<pdfrwt beam="1">  1        1 0.38630057E+00 0.65155131E+03</pdfrwt>
<pdfrwt beam="2">0</pdfrwt>
<totfact> 0.15386263E+00</totfact>
</mgrwt>
</event>
<event>
 6    1  0.2173548E-003  0.6451430E+03  0.7818608E-02  0.9815936E-01
          1   -1    0    0  502    0  0.00000000000E+00  0.00000000000E+00  0.10407344424E+03  0.10407344424E+03  0.00000000000E+00 0.  1.
         13   -1    0    0    0    0 -0.00000000000E+00 -0.00000000000E+00 -0.10000000000E+04  0.10000000000E+04  0.00000000000E+00 0.  1.
    9000005    2    1    2  501    0  0.82773408485E-02 -0.28714901404E-02 -0.89594661406E+03  0.11040515560E+04  0.64514300971E+03 0.  0.
         13    1    3    3    0    0  0.19343640964E+03 -0.81748584310E+02 -0.86700375350E+03  0.89207397910E+03  0.00000000000E+00 0.  1.
          3    1    3    3  501    0 -0.19342813230E+03  0.81745712820E+02 -0.28942860561E+02  0.21197757689E+03  0.00000000000E+00 0.  1.
         21    1    1    2  502  501 -0.82773408485E-02  0.28714901404E-02  0.20058296099E-01  0.21888240439E-01  0.00000000000E+00 0. -1.
<mgrwt>
<rscale>  1 0.64514301E+03</rscale>
<asrwt>0</asrwt>
<pdfrwt beam="1">  1        1 0.37844969E+00 0.64514301E+03</pdfrwt>
<pdfrwt beam="2">0</pdfrwt>
<totfact> 0.16685018E+00</totfact>
</mgrwt>
</event>
<event>
 6    1  0.2173548E-003  0.4657426E+03  0.7818608E-02  0.1023129E+00
          1   -1    0    0  502    0  0.00000000000E+00  0.00000000000E+00  0.54324557704E+02  0.54324557704E+02  0.00000000000E+00 0.  1.
         13   -1    0    0    0    0 -0.00000000000E+00 -0.00000000000E+00 -0.10000000000E+04  0.10000000000E+04  0.00000000000E+00 0.  1.
    9000005    2    1    2  501    0  0.31782479628E-01 -0.18409739699E-01 -0.94576723964E+03  0.10542256851E+04  0.46574254920E+03 0.  0.
         13    1    3    3    0    0  0.97912814533E+02 -0.16871453422E+02 -0.94964534213E+03  0.95482869721E+03  0.00000000000E+00 0.  1.
          1    1    3    3  501    0 -0.97881032053E+02  0.16853043682E+02  0.38781024858E+01  0.99396987862E+02  0.00000000000E+00 0.  1.
         21    1    1    2  502  501 -0.31782479628E-01  0.18409739699E-01  0.91797346374E-01  0.98872631847E-01  0.00000000000E+00 0.  1.
<mgrwt>
<rscale>  1 0.46574255E+03</rscale>
<asrwt>0</asrwt>
<pdfrwt beam="1">  1        1 0.19754426E+00 0.46574255E+03</pdfrwt>
<pdfrwt beam="2">0</pdfrwt>
<totfact> 0.10604698E+01</totfact>
</mgrwt>
</event>
<event>
 6    1  0.2173548E-003  0.6517358E+03  0.7818608E-02  0.9803528E-01
          1   -1    0    0  502    0  0.00000000000E+00  0.00000000000E+00  0.10619023205E+03  0.10619023205E+03  0.00000000000E+00 0.  1.
         13   -1    0    0    0    0 -0.00000000000E+00 -0.00000000000E+00 -0.10000000000E+04  0.10000000000E+04  0.00000000000E+00 0.  1.
    9000005    2    1    2  501    0  0.29968237013E-04 -0.20175933514E-04 -0.89381011087E+03  0.11061898872E+04  0.65173579949E+03 0.  0.
         13    1    3    3    0    0 -0.59456984342E+01 -0.80955022009E+02  0.88755376072E+02  0.12027711212E+03  0.00000000000E+00 0.  1.
          1    1    3    3  501    0  0.59457284025E+01  0.80955001833E+02 -0.98256548694E+03  0.98591277511E+03  0.00000000000E+00 0.  1.
         21    1    1    2  502  501 -0.29968237012E-04  0.20175933518E-04  0.34291316889E-03  0.34481096984E-03  0.00000000000E+00 0.  1.
<mgrwt>
<rscale>  1 0.65173580E+03</rscale>
<asrwt>0</asrwt>
<pdfrwt beam="1">  1        1 0.38614711E+00 0.65173580E+03</pdfrwt>
<pdfrwt beam="2">0</pdfrwt>
<totfact> 0.15409819E+00</totfact>
</mgrwt>
</event>
<event>
 6    1  0.2173548E-003  0.6541627E+03  0.7818608E-02  0.9798999E-01
          1   -1    0    0  502    0  0.00000000000E+00  0.00000000000E+00  0.10698512073E+03  0.10698512073E+03  0.00000000000E+00 0.  1.
         13   -1    0    0    0    0 -0.00000000000E+00 -0.00000000000E+00 -0.10000000000E+04  0.10000000000E+04  0.00000000000E+00 0.  1.
    9000005    2    1    2  501    0  0.33569045953E-02  0.17607224243E-02 -0.89301634440E+03  0.11069810568E+04  0.65416272342E+03 0.  0.
         13    1    3    3    0    0  0.25674779643E+03  0.10181564854E+03 -0.74299703409E+03  0.79267297792E+03  0.00000000000E+00 0.  1.
          3    1    3    3  501    0 -0.25674443952E+03 -0.10181388782E+03 -0.15001931031E+03  0.31430807888E+03  0.00000000000E+00 0.  1.
         21    1    1    2  502  501 -0.33569045953E-02 -0.17607224243E-02  0.14651292387E-02  0.40639335137E-02  0.00000000000E+00 0. -1.
<mgrwt>
<rscale>  1 0.65416272E+03</rscale>
<asrwt>0</asrwt>
<pdfrwt beam="1">  1        1 0.38903762E+00 0.65416272E+03</pdfrwt>
<pdfrwt beam="2">0</pdfrwt>
<totfact> 0.14955465E+00</totfact>
</mgrwt>
</event>
<event>
 6    1  0.2173548E-003  0.6311396E+03  0.7818608E-02  0.9842827E-01
          1   -1    0    0  502    0  0.00000000000E+00  0.00000000000E+00  0.10489552605E+03  0.10489552605E+03  0.00000000000E+00 0.  1.
         13   -1    0    0    0    0 -0.00000000000E+00 -0.00000000000E+00 -0.10000000000E+04  0.10000000000E+04  0.00000000000E+00 0.  1.
    9000005    2    1    2  501    0 -0.51944199777E+00 -0.73072195773E+00 -0.90037406053E+03  0.10995502181E+04  0.63113899376E+03 0.  0.
         13    1    3    3    0    0 -0.28829137335E+03  0.73204903373E+02 -0.26595349628E+03  0.39900142356E+03  0.00000000000E+00 0.  1.
          1    1    3    3  501    0  0.28777193135E+03 -0.73935625331E+02 -0.63442056425E+03  0.70054879452E+03  0.00000000000E+00 0.  1.
         21    1    1    2  502  501  0.51944199777E+00  0.73072195773E+00  0.52695865721E+01  0.53453079621E+01  0.00000000000E+00 0. -1.
<mgrwt>
<rscale>  1 0.63113963E+03</rscale>
<asrwt>0</asrwt>
<pdfrwt beam="1">  1        1 0.38143908E+00 0.63113963E+03</pdfrwt>
<pdfrwt beam="2">0</pdfrwt>
<totfact> 0.16228240E+00</totfact>
</mgrwt>
</event>
<event>
 6    1  0.2173548E-003  0.6337637E+03  0.7818608E-02  0.9837732E-01
          1   -1    0    0  502    0  0.00000000000E+00  0.00000000000E+00  0.10051489833E+03  0.10051489833E+03  0.00000000000E+00 0.  1.
         13   -1    0    0    0    0 -0.00000000000E+00 -0.00000000000E+00 -0.10000000000E+04  0.10000000000E+04  0.00000000000E+00 0.  1.
    9000005    2    1    2  501    0 -0.24595433405E+00  0.18556171782E+00 -0.89889757567E+03  0.10998514878E+04  0.63376363797E+03 0.  0.
         13    1    3    3    0    0  0.20899354873E+03  0.28346438241E+02 -0.39085971434E+02  0.21449833830E+03  0.00000000000E+00 0.  1.
          3    1    3    3  501    0 -0.20923950306E+03 -0.28160876523E+02 -0.85981160423E+03  0.88535314953E+03  0.00000000000E+00 0.  1.
         21    1    1    2  502  501  0.24595433405E+00 -0.18556171782E+00 -0.58752600362E+00  0.66341049923E+00  0.00000000000E+00 0.  1.
<mgrwt>
<rscale>  1 0.63376371E+03</rscale>
<asrwt>0</asrwt>
<pdfrwt beam="1">  1        1 0.36550949E+00 0.63376371E+03</pdfrwt>
<pdfrwt beam="2">0</pdfrwt>
<totfact> 0.19059502E+00</totfact>
</mgrwt>
</event>
<event>
 6    1  0.2173548E-003  0.6420170E+03  0.7818608E-02  0.9821875E-01
          1   -1    0    0  502    0  0.00000000000E+00  0.00000000000E+00  0.10304726376E+03  0.10304726376E+03  0.00000000000E+00 0.  1.
         13   -1    0    0    0    0 -0.00000000000E+00 -0.00000000000E+00 -0.10000000000E+04  0.10000000000E+04  0.00000000000E+00 0.  1.
    9000005    2    1    2  501    0  0.20816779937E-03  0.37942096971E-03 -0.89695349067E+03  0.11030463940E+04  0.64201696466E+03 0.  0.
         13    1    3    3    0    0 -0.13509944220E+03  0.12563597242E+03 -0.89981691273E+03  0.91853510183E+03  0.00000000000E+00 0.  1.
          1    1    3    3  501    0  0.13509965037E+03 -0.12563559300E+03  0.28634220580E+01  0.18451129218E+03  0.00000000000E+00 0.  1.
         21    1    1    2  502  501 -0.20816779938E-03 -0.37942096970E-03  0.75443767700E-03  0.86975301864E-03  0.00000000000E+00 0.  1.
<mgrwt>
<rscale>  1 0.64201696E+03</rscale>
<asrwt>0</asrwt>
<pdfrwt beam="1">  1        1 0.37471811E+00 0.64201696E+03</pdfrwt>
<pdfrwt beam="2">0</pdfrwt>
<totfact> 0.17338567E+00</totfact>
</mgrwt>
</event>
<event>
 6    1  0.2173548E-003  0.6712856E+03  0.7818608E-02  0.9767638E-01
          1   -1    0    0  502    0  0.00000000000E+00  0.00000000000E+00  0.11325078025E+03  0.11325078025E+03  0.00000000000E+00 0.  1.
         13   -1    0    0    0    0 -0.00000000000E+00 -0.00000000000E+00 -0.10000000000E+04  0.10000000000E+04  0.00000000000E+00 0.  1.
    9000005    2    1    2  501    0 -0.58640267120E+00  0.12697280602E+01 -0.88620963913E+03  0.11117517056E+04  0.67128412346E+03 0.  0.
         13    1    3    3    0    0 -0.10835327215E+03  0.72617068600E+02 -0.95600724798E+03  0.96486451300E+03  0.00000000000E+00 0.  1.
          3    1    3    3  501    0  0.10776686948E+03 -0.71347340540E+02  0.69797608854E+02  0.14688719264E+03  0.00000000000E+00 0.  1.
         21    1    1    2  502  501  0.58640267120E+00 -0.12697280602E+01 -0.53958062381E+00  0.14990746110E+01  0.00000000000E+00 0. -1.
<mgrwt>
<rscale>  1 0.67128558E+03</rscale>
<asrwt>0</asrwt>
<pdfrwt beam="1">  1        1 0.41182189E+00 0.67128558E+03</pdfrwt>
<pdfrwt beam="2">0</pdfrwt>
<totfact> 0.11797014E+00</totfact>
</mgrwt>
</event>
<event>
 6    1  0.2173548E-003  0.6292863E+03  0.7818608E-02  0.9846443E-01
          1   -1    0    0  502    0  0.00000000000E+00  0.00000000000E+00  0.10242746945E+03  0.10242746945E+03  0.00000000000E+00 0.  1.
         13   -1    0    0    0    0 -0.00000000000E+00 -0.00000000000E+00 -0.10000000000E+04  0.10000000000E+04  0.00000000000E+00 0.  1.
    9000005    2    1    2  501    0  0.35508802335E+00 -0.19266483338E+00 -0.90098660711E+03  0.10989895739E+04  0.62928614643E+03 0.  0.
         13    1    3    3    0    0 -0.30757798133E+03 -0.33852414097E+02 -0.54823510103E+03  0.62953310202E+03  0.00000000000E+00 0.  1.
          1    1    3    3  501    0  0.30793306936E+03  0.33659749264E+02 -0.35275150608E+03  0.46945647185E+03  0.00000000000E+00 0.  1.
         21    1    1    2  502  501 -0.35508802335E+00  0.19266483338E+00  0.34140765556E+01  0.34378955729E+01  0.00000000000E+00 0. -1.
<mgrwt>
<rscale>  1 0.62928628E+03</rscale>
<asrwt>0</asrwt>
<pdfrwt beam="1">  1        1 0.37246431E+00 0.62928628E+03</pdfrwt>
<pdfrwt beam="2">0</pdfrwt>
<totfact> 0.17780474E+00</totfact>
</mgrwt>
</event>
<event>
 6    1  0.2173548E-003  0.6434144E+03  0.7818608E-02  0.9819216E-01
          1   -1    0    0  502    0  0.00000000000E+00  0.00000000000E+00  0.10427396420E+03  0.10427396420E+03  0.00000000000E+00 0.  1.
         13   -1    0    0    0    0 -0.00000000000E+00 -0.00000000000E+00 -0.10000000000E+04  0.10000000000E+04  0.00000000000E+00 0.  1.
    9000005    2    1    2  501    0  0.43454913810E+00 -0.75670400235E+00 -0.89622520706E+03  0.11032686753E+04  0.64341385329E+03 0.  0.
         13    1    3    3    0    0  0.26659838376E+03 -0.17165288338E+03 -0.54566710700E+03  0.63110379674E+03  0.00000000000E+00 0.  1.
          3    1    3    3  501    0 -0.26616383462E+03  0.17089617938E+03 -0.35055810006E+03  0.47216487852E+03  0.00000000000E+00 0.  1.
         21    1    1    2  502  501 -0.43454913810E+00  0.75670400235E+00  0.49917126182E+00  0.10052889382E+01  0.00000000000E+00 0. -1.
<mgrwt>
<rscale>  1 0.64341445E+03</rscale>
<asrwt>0</asrwt>
<pdfrwt beam="1">  1        1 0.37917885E+00 0.64341445E+03</pdfrwt>
<pdfrwt beam="2">0</pdfrwt>
<totfact> 0.16567212E+00</totfact>
</mgrwt>
</event>
<event>
 6    1  0.2173548E-003  0.6619987E+03  0.7818608E-02  0.9784521E-01
          1   -1    0    0  502    0  0.00000000000E+00  0.00000000000E+00  0.10956401839E+03  0.10956401839E+03  0.00000000000E+00 0.  1.
         13   -1    0    0    0    0 -0.00000000000E+00 -0.00000000000E+00 -0.10000000000E+04  0.10000000000E+04  0.00000000000E+00 0.  1.
    9000005    2    1    2  501    0 -0.96858522625E-06 -0.26390367539E-03 -0.89043941698E+03  0.11095605729E+04  0.66199872328E+03 0.  0.
         13    1    3    3    0    0 -0.17280058456E+03  0.10015993438E+03 -0.28227461738E+01  0.19974989957E+03  0.00000000000E+00 0.  1.
          1    1    3    3  501    0  0.17280058360E+03 -0.10016019829E+03 -0.88761667081E+03  0.90981067333E+03  0.00000000000E+00 0.  1.
         21    1    1    2  502  501  0.96858521998E-06  0.26390367539E-03  0.34353669286E-02  0.34454886478E-02  0.00000000000E+00 0. -1.
<mgrwt>
<rscale>  1 0.66199872E+03</rscale>
<asrwt>0</asrwt>
<pdfrwt beam="1">  1        1 0.39841545E+00 0.66199872E+03</pdfrwt>
<pdfrwt beam="2">0</pdfrwt>
<totfact> 0.13567312E+00</totfact>
</mgrwt>
</event>
<event>
 6    1  0.2173548E-003  0.6483045E+03  0.7818608E-02  0.9809966E-01
          1   -1    0    0  502    0  0.00000000000E+00  0.00000000000E+00  0.10511797106E+03  0.10511797106E+03  0.00000000000E+00 0.  1.
         13   -1    0    0    0    0 -0.00000000000E+00 -0.00000000000E+00 -0.10000000000E+04  0.10000000000E+04  0.00000000000E+00 0.  1.
    9000005    2    1    2  501    0 -0.24481231228E-02 -0.44645977994E-04 -0.89492527032E+03  0.11050746604E+04  0.64830453153E+03 0.  0.
         13    1    3    3    0    0  0.60302437947E+02  0.58558499642E+02  0.86174364816E+02  0.12038065897E+03  0.00000000000E+00 0.  1.
          3    1    3    3  501    0 -0.60304886070E+02 -0.58558544288E+02 -0.98109963514E+03  0.98469400144E+03  0.00000000000E+00 0.  1.
         21    1    1    2  502  501  0.24481231228E-02  0.44645977995E-04  0.43241380029E-01  0.43310648193E-01  0.00000000000E+00 0.  1.
<mgrwt>
<rscale>  1 0.64830453E+03</rscale>
<asrwt>0</asrwt>
<pdfrwt beam="1">  1        1 0.38224797E+00 0.64830453E+03</pdfrwt>
<pdfrwt beam="2">0</pdfrwt>
<totfact> 0.16043990E+00</totfact>
</mgrwt>
</event>
<event>
 6    1  0.2173548E-003  0.6422932E+03  0.7818608E-02  0.9821349E-01
          1   -1    0    0  502    0  0.00000000000E+00  0.00000000000E+00  0.10450162943E+03  0.10450162943E+03  0.00000000000E+00 0.  1.
         13   -1    0    0    0    0 -0.00000000000E+00 -0.00000000000E+00 -0.10000000000E+04  0.10000000000E+04  0.00000000000E+00 0.  1.
    9000005    2    1    2  501    0 -0.43804195175E-01  0.37944739691E-01 -0.89686419076E+03  0.11031345803E+04  0.64229317463E+03 0.  0.
         13    1    3    3    0    0 -0.87743134470E+02 -0.11013880831E+03 -0.94414596531E+03  0.95458945027E+03  0.00000000000E+00 0.  1.
          1    1    3    3  501    0  0.87699330275E+02  0.11017675305E+03  0.47281774557E+02  0.14854513001E+03  0.00000000000E+00 0.  1.
         21    1    1    2  502  501  0.43804195175E-01 -0.37944739691E-01  0.13658201835E+01  0.13670491522E+01  0.00000000000E+00 0. -1.
<mgrwt>
<rscale>  1 0.64229318E+03</rscale>
<asrwt>0</asrwt>
<pdfrwt beam="1">  1        1 0.38000673E+00 0.64229318E+03</pdfrwt>
<pdfrwt beam="2">0</pdfrwt>
<totfact> 0.16431895E+00</totfact>
</mgrwt>
</event>
<event>
 6    1  0.2173548E-003  0.6694350E+03  0.7818608E-02  0.9770979E-01
          1   -1    0    0  502    0  0.00000000000E+00  0.00000000000E+00  0.11204666833E+03  0.11204666833E+03  0.00000000000E+00 0.  1.
         13   -1    0    0    0    0 -0.00000000000E+00 -0.00000000000E+00 -0.10000000000E+04  0.10000000000E+04  0.00000000000E+00 0.  1.
    9000005    2    1    2  501    0 -0.24214011096E-02 -0.66059294483E-03 -0.88796404232E+03  0.11120356675E+04  0.66943497473E+03 0.  0.
         13    1    3    3    0    0 -0.28699651884E+03 -0.16868034584E+03 -0.50192299815E+03  0.60228461459E+03  0.00000000000E+00 0.  1.
          3    1    3    3  501    0  0.28699409744E+03  0.16867968525E+03 -0.38604104417E+03  0.50975105294E+03  0.00000000000E+00 0.  1.
         21    1    1    2  502  501  0.24214011096E-02  0.66059294481E-03  0.10710657384E-01  0.11000806696E-01  0.00000000000E+00 0.  1.
<mgrwt>
<rscale>  1 0.66943497E+03</rscale>
<asrwt>0</asrwt>
<pdfrwt beam="1">  1        1 0.40744329E+00 0.66943497E+03</pdfrwt>
<pdfrwt beam="2">0</pdfrwt>
<totfact> 0.12346986E+00</totfact>
</mgrwt>
</event>
<event>
 6    1  0.2173548E-003  0.6643956E+03  0.7818608E-02  0.9780136E-01
          1   -1    0    0  502    0  0.00000000000E+00  0.00000000000E+00  0.11035566372E+03  0.11035566372E+03  0.00000000000E+00 0.  1.
         13   -1    0    0    0    0 -0.00000000000E+00 -0.00000000000E+00 -0.10000000000E+04  0.10000000000E+04  0.00000000000E+00 0.  1.
    9000005    2    1    2  501    0 -0.58401057572E-05  0.26249330119E-04 -0.88964462922E+03  0.11103553695E+04  0.66439557522E+03 0.  0.
         13    1    3    3    0    0 -0.12485794747E+03 -0.96433580605E+02  0.43754709478E+02  0.16371749178E+03  0.00000000000E+00 0.  1.
          1    1    3    3  501    0  0.12485794163E+03  0.96433606854E+02 -0.93339933870E+03  0.94663787776E+03  0.00000000000E+00 0.  1.
         21    1    1    2  502  501  0.58401057505E-05 -0.26249330113E-04  0.29294642671E-03  0.29417808057E-03  0.00000000000E+00 0.  1.
<mgrwt>
<rscale>  1 0.66439558E+03</rscale>
<asrwt>0</asrwt>
<pdfrwt beam="1">  1        1 0.40129417E+00 0.66439558E+03</pdfrwt>
<pdfrwt beam="2">0</pdfrwt>
<totfact> 0.13166277E+00</totfact>
</mgrwt>
</event>
<event>
 6    1  0.2173548E-003  0.6502173E+03  0.7818608E-02  0.9806372E-01
          1   -1    0    0  502    0  0.00000000000E+00  0.00000000000E+00  0.10570183402E+03  0.10570183402E+03  0.00000000000E+00 0.  1.
         13   -1    0    0    0    0 -0.00000000000E+00 -0.00000000000E+00 -0.10000000000E+04  0.10000000000E+04  0.00000000000E+00 0.  1.
    9000005    2    1    2  501    0 -0.10811371116E-02 -0.95401237246E-03 -0.89430428348E+03  0.11056955489E+04  0.65021726782E+03 0.  0.
         13    1    3    3    0    0  0.49875008732E+02 -0.17014596235E+03  0.16241563827E+02  0.17804761553E+03  0.00000000000E+00 0.  1.
          1    1    3    3  501    0 -0.49876089869E+02  0.17014500834E+03 -0.91054584731E+03  0.92764793336E+03  0.00000000000E+00 0.  1.
         21    1    1    2  502  501  0.10811371116E-02  0.95401237245E-03  0.61175088041E-02  0.62851341298E-02  0.00000000000E+00 0.  1.
<mgrwt>
<rscale>  1 0.65021727E+03</rscale>
<asrwt>0</asrwt>
<pdfrwt beam="1">  1        1 0.38437112E+00 0.65021727E+03</pdfrwt>
<pdfrwt beam="2">0</pdfrwt>
<totfact> 0.15695533E+00</totfact>
</mgrwt>
</event>
<event>
 6    1  0.2173548E-003  0.6340460E+03  0.7818608E-02  0.9837185E-01
          1   -1    0    0  502    0  0.00000000000E+00  0.00000000000E+00  0.10050647673E+03  0.10050647673E+03  0.00000000000E+00 0.  1.
         13   -1    0    0    0    0 -0.00000000000E+00 -0.00000000000E+00 -0.10000000000E+04  0.10000000000E+04  0.00000000000E+00 0.  1.
    9000005    2    1    2  501    0 -0.16349392016E-02  0.13804597103E-03 -0.89949616739E+03  0.11005033649E+04  0.63404597706E+03 0.  0.
         13    1    3    3    0    0 -0.44442249389E+02  0.16934989520E+03  0.89754776462E+01  0.17531417437E+03  0.00000000000E+00 0.  1.
          3    1    3    3  501    0  0.44440614450E+02 -0.16934975715E+03 -0.90847164503E+03  0.92518919054E+03  0.00000000000E+00 0.  1.
         21    1    1    2  502  501  0.16349392016E-02 -0.13804597101E-03  0.26441148070E-02  0.31118203669E-02  0.00000000000E+00 0.  1.
<mgrwt>
<rscale>  1 0.63404598E+03</rscale>
<asrwt>0</asrwt>
<pdfrwt beam="1">  1        1 0.36547887E+00 0.63404598E+03</pdfrwt>
<pdfrwt beam="2">0</pdfrwt>
<totfact> 0.19064418E+00</totfact>
</mgrwt>
</event>
<event>
 6    1  0.2173548E-003  0.6326457E+03  0.7818608E-02  0.9839900E-01
          1   -1    0    0  502    0  0.00000000000E+00  0.00000000000E+00  0.10007442714E+03  0.10007442714E+03  0.00000000000E+00 0.  1.
         13   -1    0    0    0    0 -0.00000000000E+00 -0.00000000000E+00 -0.10000000000E+04  0.10000000000E+04  0.00000000000E+00 0.  1.
    9000005    2    1    2  501    0  0.69392523820E-02  0.60061806280E-02 -0.89993822629E+03  0.11000587959E+04  0.63264566950E+03 0.  0.
         13    1    3    3    0    0 -0.24753845880E+03  0.10350872492E+03 -0.74128926730E+03  0.78835215642E+03  0.00000000000E+00 0.  1.
          3    1    3    3  501    0  0.24754539805E+03 -0.10350271874E+03 -0.15864895899E+03  0.31170663944E+03  0.00000000000E+00 0.  1.
         21    1    1    2  502  501 -0.69392523820E-02 -0.60061806280E-02  0.12653427075E-01  0.15631271416E-01  0.00000000000E+00 0.  1.
<mgrwt>
<rscale>  1 0.63264567E+03</rscale>
<asrwt>0</asrwt>
<pdfrwt beam="1">  1        1 0.36390778E+00 0.63264567E+03</pdfrwt>
<pdfrwt beam="2">0</pdfrwt>
<totfact> 0.19373942E+00</totfact>
</mgrwt>
</event>
<event>
 6    1  0.2173548E-003  0.5919082E+03  0.7818608E-02  0.9922338E-01
          3   -1    0    0  502    0  0.00000000000E+00  0.00000000000E+00  0.87588972306E+02  0.87588972306E+02  0.00000000000E+00 0.  1.
         13   -1    0    0    0    0 -0.00000000000E+00 -0.00000000000E+00 -0.10000000000E+04  0.10000000000E+04  0.00000000000E+00 0.  1.
    9000005    2    1    2  501    0 -0.29026151118E-04  0.17146195866E-04 -0.91241117572E+03  0.10875888205E+04  0.59190817606E+03 0.  0.
         13    1    3    3    0    0  0.50164580236E+02 -0.58104951073E+02  0.68978058942E+02  0.10320195282E+03  0.00000000000E+00 0.  1.
          3    1    3    3  501    0 -0.50164609262E+02  0.58104968220E+02 -0.98138923466E+03  0.98438686768E+03  0.00000000000E+00 0.  1.
         21    1    1    2  502  501  0.29026151115E-04 -0.17146195864E-04  0.14802269708E-03  0.15181313623E-03  0.00000000000E+00 0.  1.
<mgrwt>
<rscale>  1 0.59190818E+03</rscale>
<asrwt>0</asrwt>
<pdfrwt beam="1">  1        3 0.31850603E+00 0.59190818E+03</pdfrwt>
<pdfrwt beam="2">0</pdfrwt>
<totfact> 0.16194820E-01</totfact>
</mgrwt>
</event>
<event>
 6    1  0.2173548E-003  0.6739660E+03  0.7818608E-02  0.9762820E-01
          1   -1    0    0  502    0  0.00000000000E+00  0.00000000000E+00  0.11355858021E+03  0.11355858021E+03  0.00000000000E+00 0.  1.
         13   -1    0    0    0    0 -0.00000000000E+00 -0.00000000000E+00 -0.10000000000E+04  0.10000000000E+04  0.00000000000E+00 0.  1.
    9000005    2    1    2  501    0 -0.12693932604E-04  0.18007228498E-03 -0.88644243938E+03  0.11135575448E+04  0.67396602820E+03 0.  0.
         13    1    3    3    0    0 -0.31790945539E+03 -0.10955572120E+03 -0.40669727885E+03  0.52770404063E+03  0.00000000000E+00 0.  1.
          3    1    3    3  501    0  0.31790944269E+03  0.10955590127E+03 -0.47974516053E+03  0.58585350413E+03  0.00000000000E+00 0.  1.
         21    1    1    2  502  501  0.12693932595E-04 -0.18007228497E-03  0.10195934884E-02  0.10354506484E-02  0.00000000000E+00 0.  1.
<mgrwt>
<rscale>  1 0.67396603E+03</rscale>
<asrwt>0</asrwt>
<pdfrwt beam="1">  1        1 0.41294116E+00 0.67396603E+03</pdfrwt>
<pdfrwt beam="2">0</pdfrwt>
<totfact> 0.11655303E+00</totfact>
</mgrwt>
</event>
<event>
 6    1  0.2173548E-003  0.6685142E+03  0.7818608E-02  0.9772646E-01
          1   -1    0    0  502    0  0.00000000000E+00  0.00000000000E+00  0.11203418823E+03  0.11203418823E+03  0.00000000000E+00 0.  1.
         13   -1    0    0    0    0 -0.00000000000E+00 -0.00000000000E+00 -0.10000000000E+04  0.10000000000E+04  0.00000000000E+00 0.  1.
    9000005    2    1    2  501    0 -0.51770759081E+00  0.62050532964E+00 -0.88746683700E+03  0.11110844389E+04  0.66851371751E+03 0.  0.
         13    1    3    3    0    0  0.15019507202E+03 -0.17183549678E+03 -0.84863114691E+03  0.87878371691E+03  0.00000000000E+00 0.  1.
          1    1    3    3  501    0 -0.15071277961E+03  0.17245600211E+03 -0.38835690092E+02  0.23230072196E+03  0.00000000000E+00 0.  1.
         21    1    1    2  502  501  0.51770759081E+00 -0.62050532964E+00 -0.49897476960E+00  0.94974935345E+00  0.00000000000E+00 0.  1.
<mgrwt>
<rscale>  1 0.66851421E+03</rscale>
<asrwt>0</asrwt>
<pdfrwt beam="1">  1        1 0.40739791E+00 0.66851421E+03</pdfrwt>
<pdfrwt beam="2">0</pdfrwt>
<totfact> 0.12354908E+00</totfact>
</mgrwt>
</event>
<event>
 6    1  0.2173548E-003  0.6507098E+03  0.7818608E-02  0.9805448E-01
          1   -1    0    0  502    0  0.00000000000E+00  0.00000000000E+00  0.10585962926E+03  0.10585962926E+03  0.00000000000E+00 0.  1.
         13   -1    0    0    0    0 -0.00000000000E+00 -0.00000000000E+00 -0.10000000000E+04  0.10000000000E+04  0.00000000000E+00 0.  1.
    9000005    2    1    2  501    0  0.13365260683E-02  0.21818589112E-02 -0.89414369689E+03  0.11058554328E+04  0.65070983365E+03 0.  0.
         13    1    3    3    0    0  0.23629789228E+03  0.21692590124E+03 -0.53958208703E+03  0.62772794200E+03  0.00000000000E+00 0.  1.
          1    1    3    3  501    0 -0.23629655576E+03 -0.21692371938E+03 -0.35456160986E+03  0.47812749082E+03  0.00000000000E+00 0.  1.
         21    1    1    2  502  501 -0.13365260683E-02 -0.21818589112E-02  0.33261539111E-02  0.41964401676E-02  0.00000000000E+00 0. -1.
<mgrwt>
<rscale>  1 0.65070983E+03</rscale>
<asrwt>0</asrwt>
<pdfrwt beam="1">  1        1 0.38494492E+00 0.65070983E+03</pdfrwt>
<pdfrwt beam="2">0</pdfrwt>
<totfact> 0.15602671E+00</totfact>
</mgrwt>
</event>
<event>
 6    1  0.2173548E-003  0.6149566E+03  0.7818608E-02  0.9874853E-01
          1   -1    0    0  502    0  0.00000000000E+00  0.00000000000E+00  0.94553978639E+02  0.94553978639E+02  0.00000000000E+00 0.  1.
         13   -1    0    0    0    0 -0.00000000000E+00 -0.00000000000E+00 -0.10000000000E+04  0.10000000000E+04  0.00000000000E+00 0.  1.
    9000005    2    1    2  501    0 -0.45493826242E-03  0.68025002508E-03 -0.90545709179E+03  0.10945428780E+04  0.61495655676E+03 0.  0.
         13    1    3    3    0    0  0.82796622849E+02 -0.22437852803E+03 -0.10878596771E+03  0.26274586841E+03  0.00000000000E+00 0.  1.
          1    1    3    3  501    0 -0.82797077788E+02  0.22437920828E+03 -0.79667112409E+03  0.83179700959E+03  0.00000000000E+00 0.  1.
         21    1    1    2  502  501  0.45493826243E-03 -0.68025002508E-03  0.11070434072E-01  0.11100640498E-01  0.00000000000E+00 0. -1.
<mgrwt>
<rscale>  1 0.61495656E+03</rscale>
<asrwt>0</asrwt>
<pdfrwt beam="1">  1        1 0.34383337E+00 0.61495656E+03</pdfrwt>
<pdfrwt beam="2">0</pdfrwt>
<totfact> 0.23779084E+00</totfact>
</mgrwt>
</event>
<event>
 6    1  0.2173548E-003  0.6448965E+03  0.7818608E-02  0.9816403E-01
          3   -1    0    0  502    0  0.00000000000E+00  0.00000000000E+00  0.10397321088E+03  0.10397321088E+03  0.00000000000E+00 0.  1.
         13   -1    0    0    0    0 -0.00000000000E+00 -0.00000000000E+00 -0.10000000000E+04  0.10000000000E+04  0.00000000000E+00 0.  1.
    9000005    2    1    2  501    0  0.95454339396E-03  0.51793696571E-04 -0.89602614210E+03  0.11039720566E+04  0.64489646792E+03 0.  0.
         13    1    3    3    0    0 -0.29267469356E+03  0.13480919868E+03 -0.46831046601E+03  0.56845992724E+03  0.00000000000E+00 0.  1.
          1    1    3    3  501    0  0.29267564810E+03 -0.13480914689E+03 -0.42771567609E+03  0.53551212932E+03  0.00000000000E+00 0.  1.
         21    1    1    2  502  501 -0.95454339398E-03 -0.51793696576E-04 -0.64701959732E-03  0.11543266597E-02  0.00000000000E+00 0. -1.
<mgrwt>
<rscale>  1 0.64489647E+03</rscale>
<asrwt>0</asrwt>
<pdfrwt beam="1">  1        3 0.37808520E+00 0.64489647E+03</pdfrwt>
<pdfrwt beam="2">0</pdfrwt>
<totfact> 0.77323408E-02</totfact>
</mgrwt>
</event>
<event>
 6    1  0.2173548E-003  0.6535327E+03  0.7818608E-02  0.9800173E-01
          1   -1    0    0  502    0  0.00000000000E+00  0.00000000000E+00  0.10678665749E+03  0.10678665749E+03  0.00000000000E+00 0.  1.
         13   -1    0    0    0    0 -0.00000000000E+00 -0.00000000000E+00 -0.10000000000E+04  0.10000000000E+04  0.00000000000E+00 0.  1.
    9000005    2    1    2  501    0  0.57465716323E-02 -0.63430843477E-02 -0.89322176765E+03  0.11067746475E+04  0.65353270307E+03 0.  0.
         13    1    3    3    0    0  0.29402819767E+03 -0.13017587603E+03 -0.54508014421E+03  0.63285914968E+03  0.00000000000E+00 0.  1.
          3    1    3    3  501    0 -0.29402245110E+03  0.13016953295E+03 -0.34814162344E+03  0.47391549778E+03  0.00000000000E+00 0.  1.
         21    1    1    2  502  501 -0.57465716323E-02  0.63430843477E-02  0.84251404422E-02  0.12010028977E-01  0.00000000000E+00 0.  1.
<mgrwt>
<rscale>  1 0.65353270E+03</rscale>
<asrwt>0</asrwt>
<pdfrwt beam="1">  1        1 0.38831594E+00 0.65353270E+03</pdfrwt>
<pdfrwt beam="2">0</pdfrwt>
<totfact> 0.15067767E+00</totfact>
</mgrwt>
</event>
<event>
 6    1  0.2195191E-003  0.6502341E+03  0.7818608E-02  0.9806340E-01
          1   -1    0    0  502    0  0.00000000000E+00  0.00000000000E+00  0.10570110421E+03  0.10570110421E+03  0.00000000000E+00 0.  1.
         13   -1    0    0    0    0 -0.00000000000E+00 -0.00000000000E+00 -0.10000000000E+04  0.10000000000E+04  0.00000000000E+00 0.  1.
    9000005    2    1    2  501    0 -0.27051539959E-05 -0.32730393684E-05 -0.89429889751E+03  0.11057010996E+04  0.65023411447E+03 0.  0.
         13    1    3    3    0    0  0.33103091347E+02  0.86342485690E+02 -0.97716666385E+03  0.98153223504E+03  0.00000000000E+00 0.  1.
          1    1    3    3  501    0 -0.33103094052E+02 -0.86342488963E+02  0.82867766332E+02  0.12416886459E+03  0.00000000000E+00 0.  1.
         21    1    1    2  502  501  0.27051539922E-05  0.32730393728E-05  0.17256356398E-05  0.45834990148E-05  0.00000000000E+00 0. -1.
<mgrwt>
<rscale>  1 0.65023411E+03</rscale>
<asrwt>0</asrwt>
<pdfrwt beam="1">  1        1 0.38436846E+00 0.65023411E+03</pdfrwt>
<pdfrwt beam="2">0</pdfrwt>
<totfact> 0.15695909E+00</totfact>
</mgrwt>
</event>
<event>
 6    1  0.2173548E-003  0.6436243E+03  0.7818608E-02  0.9818817E-01
          1   -1    0    0  502    0  0.00000000000E+00  0.00000000000E+00  0.10612752148E+03  0.10612752148E+03  0.00000000000E+00 0.  1.
         13   -1    0    0    0    0 -0.00000000000E+00 -0.00000000000E+00 -0.10000000000E+04  0.10000000000E+04  0.00000000000E+00 0.  1.
    9000005    2    1    2  501    0 -0.62979247970E+00  0.23705939944E+00 -0.89638812025E+03  0.11035234306E+04  0.64362399507E+03 0.  0.
         13    1    3    3    0    0 -0.15783712991E+03  0.65817001204E+02  0.19328436062E+02  0.17209888340E+03  0.00000000000E+00 0.  1.
          1    1    3    3  501    0  0.15720733743E+03 -0.65579941805E+02 -0.91571655632E+03  0.93142454725E+03  0.00000000000E+00 0.  1.
         21    1    1    2  502  501  0.62979247970E+00 -0.23705939944E+00  0.25156417334E+01  0.26040908312E+01  0.00000000000E+00 0.  1.
<mgrwt>
<rscale>  1 0.64362435E+03</rscale>
<asrwt>0</asrwt>
<pdfrwt beam="1">  1        1 0.38591907E+00 0.64362435E+03</pdfrwt>
<pdfrwt beam="2">0</pdfrwt>
<totfact> 0.15468951E+00</totfact>
</mgrwt>
</event>
<event>
 6    1  0.2173548E-003  0.6501517E+03  0.7818608E-02  0.9806495E-01
          1   -1    0    0  502    0  0.00000000000E+00  0.00000000000E+00  0.10854600624E+03  0.10854600624E+03  0.00000000000E+00 0.  1.
         13   -1    0    0    0    0 -0.00000000000E+00 -0.00000000000E+00 -0.10000000000E+04  0.10000000000E+04  0.00000000000E+00 0.  1.
    9000005    2    1    2  501    0 -0.18988473682E-01  0.50808340309E+00 -0.89430079863E+03  0.11056541544E+04  0.65015146861E+03 0.  0.
         13    1    3    3    0    0  0.24356671915E+03  0.63324645971E+02 -0.79724890155E+03  0.83602665537E+03  0.00000000000E+00 0.  1.
          1    1    3    3  501    0 -0.24358570762E+03 -0.62816562568E+02 -0.97051897073E+02  0.26962749900E+03  0.00000000000E+00 0.  1.
         21    1    1    2  502  501  0.18988473682E-01 -0.50808340309E+00  0.28468048638E+01  0.28918518702E+01  0.00000000000E+00 0.  1.
<mgrwt>
<rscale>  1 0.65015167E+03</rscale>
<asrwt>0</asrwt>
<pdfrwt beam="1">  1        1 0.39471358E+00 0.65015167E+03</pdfrwt>
<pdfrwt beam="2">0</pdfrwt>
<totfact> 0.14123163E+00</totfact>
</mgrwt>
</event>
<event>
 6    1  0.2173548E-003  0.6588074E+03  0.7818608E-02  0.9790392E-01
          3   -1    0    0  502    0  0.00000000000E+00  0.00000000000E+00  0.10854283572E+03  0.10854283572E+03  0.00000000000E+00 0.  1.
         13   -1    0    0    0    0 -0.00000000000E+00 -0.00000000000E+00 -0.10000000000E+04  0.10000000000E+04  0.00000000000E+00 0.  1.
    9000005    2    1    2  501    0 -0.47174215807E-01  0.42896067433E-01 -0.89145873039E+03  0.11084790554E+04  0.65880736498E+03 0.  0.
         13    1    3    3    0    0 -0.11790842571E+03  0.29157663362E+03 -0.61066987320E+03  0.68690394100E+03  0.00000000000E+00 0.  1.
          1    1    3    3  501    0  0.11786125150E+03 -0.29153373755E+03 -0.28078885720E+03  0.42157511438E+03  0.00000000000E+00 0.  1.
         21    1    1    2  502  501  0.47174215807E-01 -0.42896067433E-01  0.15661110735E-02  0.63780341345E-01  0.00000000000E+00 0.  1.
<mgrwt>
<rscale>  1 0.65880737E+03</rscale>
<asrwt>0</asrwt>
<pdfrwt beam="1">  1        3 0.39470205E+00 0.65880737E+03</pdfrwt>
<pdfrwt beam="2">0</pdfrwt>
<totfact> 0.63059252E-02</totfact>
</mgrwt>
</event>
<event>
 6    1  0.2173548E-003  0.6580787E+03  0.7818608E-02  0.9791737E-01
          1   -1    0    0  502    0  0.00000000000E+00  0.00000000000E+00  0.11064983990E+03  0.11064983990E+03  0.00000000000E+00 0.  1.
         13   -1    0    0    0    0 -0.00000000000E+00 -0.00000000000E+00 -0.10000000000E+04  0.10000000000E+04  0.00000000000E+00 0.  1.
    9000005    2    1    2  501    0  0.44119373597E-01 -0.72487512564E-01 -0.89173225435E+03  0.11082662347E+04  0.65807873862E+03 0.  0.
         13    1    3    3    0    0 -0.81648258848E+02  0.24370260548E+03 -0.99913262927E+02  0.27575361865E+03  0.00000000000E+00 0.  1.
          3    1    3    3  501    0  0.81692378222E+02 -0.24377509299E+03 -0.79181899142E+03  0.83251261600E+03  0.00000000000E+00 0.  1.
         21    1    1    2  502  501 -0.44119373597E-01  0.72487512564E-01  0.23820942484E+01  0.23836052456E+01  0.00000000000E+00 0.  1.
<mgrwt>
<rscale>  1 0.65807874E+03</rscale>
<asrwt>0</asrwt>
<pdfrwt beam="1">  1        1 0.40236390E+00 0.65807874E+03</pdfrwt>
<pdfrwt beam="2">0</pdfrwt>
<totfact> 0.13037801E+00</totfact>
</mgrwt>
</event>
<event>
 6    1  0.2173548E-003  0.5913766E+03  0.7818608E-02  0.9923460E-01
          1   -1    0    0  502    0  0.00000000000E+00  0.00000000000E+00  0.87566920484E+02  0.87566920484E+02  0.00000000000E+00 0.  1.
         13   -1    0    0    0    0 -0.00000000000E+00 -0.00000000000E+00 -0.10000000000E+04  0.10000000000E+04  0.00000000000E+00 0.  1.
    9000005    2    1    2  501    0  0.52123725095E-02  0.27385798177E-01 -0.91256687599E+03  0.10874302506E+04  0.59137656877E+03 0.  0.
         13    1    3    3    0    0 -0.21919931913E+03  0.63632571987E+02 -0.80193622530E+03  0.83378603680E+03  0.00000000000E+00 0.  1.
          1    1    3    3  501    0  0.21920453150E+03 -0.63605186188E+02 -0.11063065069E+03  0.25364421384E+03  0.00000000000E+00 0.  1.
         21    1    1    2  502  501 -0.52123725095E-02 -0.27385798177E-01  0.13379646919E+00  0.13666984282E+00  0.00000000000E+00 0.  1.
<mgrwt>
<rscale>  1 0.59137657E+03</rscale>
<asrwt>0</asrwt>
<pdfrwt beam="1">  1        1 0.31842584E+00 0.59137657E+03</pdfrwt>
<pdfrwt beam="2">0</pdfrwt>
<totfact> 0.30769447E+00</totfact>
</mgrwt>
</event>
<event>
 6    1  0.2173548E-003  0.6513467E+03  0.7818608E-02  0.9804255E-01
          1   -1    0    0  502    0  0.00000000000E+00  0.00000000000E+00  0.10619816602E+03  0.10619816602E+03  0.00000000000E+00 0.  1.
         13   -1    0    0    0    0 -0.00000000000E+00 -0.00000000000E+00 -0.10000000000E+04  0.10000000000E+04  0.00000000000E+00 0.  1.
    9000005    2    1    2  501    0  0.16893230675E-02 -0.15042500054E-02 -0.89393684882E+03  0.11060631322E+04  0.65134673009E+03 0.  0.
         13    1    3    3    0    0  0.14110416601E+03 -0.28583508857E+03 -0.56027034364E+03  0.64460448454E+03  0.00000000000E+00 0.  1.
          1    1    3    3  501    0 -0.14110247669E+03  0.28583358432E+03 -0.33366650517E+03  0.46145864769E+03  0.00000000000E+00 0.  1.
         21    1    1    2  502  501 -0.16893230675E-02  0.15042500054E-02  0.13501483827E+00  0.13503378516E+00  0.00000000000E+00 0.  1.
<mgrwt>
<rscale>  1 0.65134673E+03</rscale>
<asrwt>0</asrwt>
<pdfrwt beam="1">  1        1 0.38617596E+00 0.65134673E+03</pdfrwt>
<pdfrwt beam="2">0</pdfrwt>
<totfact> 0.15406397E+00</totfact>
</mgrwt>
</event>
<event>
 6    1  0.2173548E-003  0.6566923E+03  0.7818608E-02  0.9794302E-01
          1   -1    0    0  502    0  0.00000000000E+00  0.00000000000E+00  0.10866419633E+03  0.10866419633E+03  0.00000000000E+00 0.  1.
         13   -1    0    0    0    0 -0.00000000000E+00 -0.00000000000E+00 -0.10000000000E+04  0.10000000000E+04  0.00000000000E+00 0.  1.
    9000005    2    1    2  501    0 -0.15383961073E-01 -0.45440682342E-02 -0.89218872456E+03  0.11078111246E+04  0.65669229271E+03 0.  0.
         13    1    3    3    0    0 -0.14980572762E+03  0.26695092258E+03 -0.24572675479E+03  0.39253813714E+03  0.00000000000E+00 0.  1.
          1    1    3    3  501    0  0.14979034366E+03 -0.26695546665E+03 -0.64646196978E+03  0.71527298746E+03  0.00000000000E+00 0.  1.
         21    1    1    2  502  501  0.15383961073E-01  0.45440682342E-02  0.85292089660E+00  0.85307172657E+00  0.00000000000E+00 0. -1.
<mgrwt>
<rscale>  1 0.65669229E+03</rscale>
<asrwt>0</asrwt>
<pdfrwt beam="1">  1        1 0.39514337E+00 0.65669229E+03</pdfrwt>
<pdfrwt beam="2">0</pdfrwt>
<totfact> 0.14043924E+00</totfact>
</mgrwt>
</event>
<event>
 6    1  0.2173548E-003  0.6515437E+03  0.7818608E-02  0.9803887E-01
          1   -1    0    0  502    0  0.00000000000E+00  0.00000000000E+00  0.10613324586E+03  0.10613324586E+03  0.00000000000E+00 0.  1.
         13   -1    0    0    0    0 -0.00000000000E+00 -0.00000000000E+00 -0.10000000000E+04  0.10000000000E+04  0.00000000000E+00 0.  1.
    9000005    2    1    2  501    0  0.91036784397E-04 -0.61813338704E-04 -0.89387271220E+03  0.11061272868E+04  0.65154366620E+03 0.  0.
         13    1    3    3    0    0  0.19161755163E+03  0.11335063029E+03 -0.43177021956E+02  0.22678162779E+03  0.00000000000E+00 0.  1.
          1    1    3    3  501    0 -0.19161746059E+03 -0.11335069210E+03 -0.85069569024E+03  0.87934565900E+03  0.00000000000E+00 0.  1.
         21    1    1    2  502  501 -0.91036784403E-04  0.61813338703E-04  0.59580539630E-02  0.59590700290E-02  0.00000000000E+00 0.  1.
<mgrwt>
<rscale>  1 0.65154367E+03</rscale>
<asrwt>0</asrwt>
<pdfrwt beam="1">  1        1 0.38593989E+00 0.65154367E+03</pdfrwt>
<pdfrwt beam="2">0</pdfrwt>
<totfact> 0.15442943E+00</totfact>
</mgrwt>
</event>
<event>
 6    1  0.2173548E-003  0.6601993E+03  0.7818608E-02  0.9787827E-01
          1   -1    0    0  502    0  0.00000000000E+00  0.00000000000E+00  0.10939818013E+03  0.10939818013E+03  0.00000000000E+00 0.  1.
         13   -1    0    0    0    0 -0.00000000000E+00 -0.00000000000E+00 -0.10000000000E+04  0.10000000000E+04  0.00000000000E+00 0.  1.
    9000005    2    1    2  501    0  0.60299824541E+00  0.17915574315E+00 -0.89076386855E+03  0.11087485930E+04  0.66019904366E+03 0.  0.
         13    1    3    3    0    0 -0.32195931112E+03  0.39112713104E+02 -0.34436107376E+03  0.47304561246E+03  0.00000000000E+00 0.  1.
          3    1    3    3  501    0  0.32256230936E+03 -0.38933557361E+02 -0.54640279479E+03  0.63570298054E+03  0.00000000000E+00 0.  1.
         21    1    1    2  502  501 -0.60299824541E+00 -0.17915574315E+00  0.16204868102E+00  0.64958712987E+00  0.00000000000E+00 0.  1.
<mgrwt>
<rscale>  1 0.66019934E+03</rscale>
<asrwt>0</asrwt>
<pdfrwt beam="1">  1        1 0.39781240E+00 0.66019934E+03</pdfrwt>
<pdfrwt beam="2">0</pdfrwt>
<totfact> 0.13656081E+00</totfact>
</mgrwt>
</event>
<event>
 6    1  0.2173548E-003  0.6362411E+03  0.7818608E-02  0.9832945E-01
          1   -1    0    0  502    0  0.00000000000E+00  0.00000000000E+00  0.10120571782E+03  0.10120571782E+03  0.00000000000E+00 0.  1.
         13   -1    0    0    0    0 -0.00000000000E+00 -0.00000000000E+00 -0.10000000000E+04  0.10000000000E+04  0.00000000000E+00 0.  1.
    9000005    2    1    2  501    0  0.70634997715E-02  0.43763971366E-02 -0.89879521407E+03  0.11011973563E+04  0.63624113408E+03 0.  0.
         13    1    3    3    0    0  0.68325414045E+02  0.27067219505E+03 -0.71342740917E+03  0.76610082074E+03  0.00000000000E+00 0.  1.
          3    1    3    3  501    0 -0.68318350545E+02 -0.27066781866E+03 -0.18536780491E+03  0.33509653560E+03  0.00000000000E+00 0.  1.
         21    1    1    2  502  501 -0.70634997715E-02 -0.43763971366E-02  0.93188980974E-03  0.83614771145E-02  0.00000000000E+00 0.  1.
<mgrwt>
<rscale>  1 0.63624113E+03</rscale>
<asrwt>0</asrwt>
<pdfrwt beam="1">  1        1 0.36802157E+00 0.63624113E+03</pdfrwt>
<pdfrwt beam="2">0</pdfrwt>
<totfact> 0.18573727E+00</totfact>
</mgrwt>
</event>
<event>
 6    1  0.2173548E-003  0.6433425E+03  0.7818608E-02  0.9819352E-01
          1   -1    0    0  502    0  0.00000000000E+00  0.00000000000E+00  0.10368632300E+03  0.10368632300E+03  0.00000000000E+00 0.  1.
         13   -1    0    0    0    0 -0.00000000000E+00 -0.00000000000E+00 -0.10000000000E+04  0.10000000000E+04  0.00000000000E+00 0.  1.
    9000005    2    1    2  501    0 -0.13891240771E-01 -0.24551520496E-02 -0.89652733916E+03  0.11034721957E+04  0.64334253438E+03 0.  0.
         13    1    3    3    0    0 -0.27416502530E+03 -0.15142969339E+01 -0.73685416463E+03  0.78620786954E+03  0.00000000000E+00 0.  1.
          3    1    3    3  501    0  0.27415113406E+03  0.15118417819E+01 -0.15967317454E+03  0.31726432613E+03  0.00000000000E+00 0.  1.
         21    1    1    2  502  501  0.13891240771E-01  0.24551520496E-02  0.21366216342E+00  0.21412733226E+00  0.00000000000E+00 0.  1.
<mgrwt>
<rscale>  1 0.64334253E+03</rscale>
<asrwt>0</asrwt>
<pdfrwt beam="1">  1        1 0.37704197E+00 0.64334253E+03</pdfrwt>
<pdfrwt beam="2">0</pdfrwt>
<totfact> 0.16930685E+00</totfact>
</mgrwt>
</event>
<event>
 6    1  0.2173548E-003  0.6535080E+03  0.7818608E-02  0.9800219E-01
          1   -1    0    0  502    0  0.00000000000E+00  0.00000000000E+00  0.10707327568E+03  0.10707327568E+03  0.00000000000E+00 0.  1.
         13   -1    0    0    0    0 -0.00000000000E+00 -0.00000000000E+00 -0.10000000000E+04  0.10000000000E+04  0.00000000000E+00 0.  1.
    9000005    2    1    2  501    0 -0.11304883131E+00  0.11199869831E-01 -0.89322009043E+03  0.11067586821E+04  0.65350794751E+03 0.  0.
         13    1    3    3    0    0  0.10705161568E+03 -0.18222123848E+03 -0.24582116043E+02  0.21276491393E+03  0.00000000000E+00 0.  1.
          1    1    3    3  501    0 -0.10716466451E+03  0.18223243835E+03 -0.86863797438E+03  0.89399376812E+03  0.00000000000E+00 0.  1.
         21    1    1    2  502  501  0.11304883131E+00 -0.11199869831E-01  0.29336610244E+00  0.31459361946E+00  0.00000000000E+00 0. -1.
<mgrwt>
<rscale>  1 0.65350796E+03</rscale>
<asrwt>0</asrwt>
<pdfrwt beam="1">  1        1 0.38935819E+00 0.65350796E+03</pdfrwt>
<pdfrwt beam="2">0</pdfrwt>
<totfact> 0.14908420E+00</totfact>
</mgrwt>
</event>
<event>
 6    1  0.2173548E-003  0.6550533E+03  0.7818608E-02  0.9797343E-01
          1   -1    0    0  502    0  0.00000000000E+00  0.00000000000E+00  0.10729238356E+03  0.10729238356E+03  0.00000000000E+00 0.  1.
         13   -1    0    0    0    0 -0.00000000000E+00 -0.00000000000E+00 -0.10000000000E+04  0.10000000000E+04  0.00000000000E+00 0.  1.
    9000005    2    1    2  501    0  0.32810349819E-02  0.13540574876E-02 -0.89272609018E+03  0.11072735719E+04  0.65505334972E+03 0.  0.
         13    1    3    3    0    0  0.24053911029E+03 -0.14244064359E+03 -0.73484585916E+03  0.78622314724E+03  0.00000000000E+00 0.  1.
          3    1    3    3  501    0 -0.24053582925E+03  0.14244199764E+03 -0.15788023102E+03  0.32105042469E+03  0.00000000000E+00 0.  1.
         21    1    1    2  502  501 -0.32810349819E-02 -0.13540574877E-02  0.18473740090E-01  0.18811638290E-01  0.00000000000E+00 0. -1.
<mgrwt>
<rscale>  1 0.65505335E+03</rscale>
<asrwt>0</asrwt>
<pdfrwt beam="1">  1        1 0.39015494E+00 0.65505335E+03</pdfrwt>
<pdfrwt beam="2">0</pdfrwt>
<totfact> 0.14783396E+00</totfact>
</mgrwt>
</event>
<event>
 6    1  0.2173548E-003  0.6395664E+03  0.7818608E-02  0.9826556E-01
          1   -1    0    0  502    0  0.00000000000E+00  0.00000000000E+00  0.10226489340E+03  0.10226489340E+03  0.00000000000E+00 0.  1.
         13   -1    0    0    0    0 -0.00000000000E+00 -0.00000000000E+00 -0.10000000000E+04  0.10000000000E+04  0.00000000000E+00 0.  1.
    9000005    2    1    2  501    0 -0.45450111149E-02 -0.54480728277E-02 -0.89773436801E+03  0.11022577601E+04  0.63956639540E+03 0.  0.
         13    1    3    3    0    0  0.20327297146E+02 -0.23902373868E+03 -0.84423453222E+02  0.25430860409E+03  0.00000000000E+00 0.  1.
          3    1    3    3  501    0 -0.20331842157E+02  0.23901829060E+03 -0.81331091479E+03  0.84794915600E+03  0.00000000000E+00 0.  1.
         21    1    1    2  502  501  0.45450111149E-02  0.54480728277E-02 -0.73859032432E-03  0.71333119403E-02  0.00000000000E+00 0.  1.
<mgrwt>
<rscale>  1 0.63956640E+03</rscale>
<asrwt>0</asrwt>
<pdfrwt beam="1">  1        1 0.37187312E+00 0.63956640E+03</pdfrwt>
<pdfrwt beam="2">0</pdfrwt>
<totfact> 0.17853401E+00</totfact>
</mgrwt>
</event>
<event>
 6    1  0.2173548E-003  0.5613711E+03  0.7818608E-02  0.9988957E-01
          1   -1    0    0  502    0  0.00000000000E+00  0.00000000000E+00  0.78793024906E+02  0.78793024906E+02  0.00000000000E+00 0.  1.
         13   -1    0    0    0    0 -0.00000000000E+00 -0.00000000000E+00 -0.10000000000E+04  0.10000000000E+04  0.00000000000E+00 0.  1.
    9000005    2    1    2  501    0 -0.38325350850E-02  0.12727203180E-01 -0.92120982241E+03  0.10787794316E+04  0.56137111167E+03 0.  0.
         13    1    3    3    0    0  0.14672395112E+03 -0.64979632977E+02 -0.90314291057E+03  0.91728806133E+03  0.00000000000E+00 0.  1.
          3    1    3    3  501    0 -0.14672778366E+03  0.64992360181E+02 -0.18066911840E+02  0.16149137030E+03  0.00000000000E+00 0.  1.
         21    1    1    2  502  501  0.38325350850E-02 -0.12727203180E-01  0.28473173958E-02  0.13593279307E-01  0.00000000000E+00 0.  1.
<mgrwt>
<rscale>  1 0.56137111E+03</rscale>
<asrwt>0</asrwt>
<pdfrwt beam="1">  1        1 0.28652069E+00 0.56137111E+03</pdfrwt>
<pdfrwt beam="2">0</pdfrwt>
<totfact> 0.42472716E+00</totfact>
</mgrwt>
</event>
<event>
 6    1  0.2173548E-003  0.6628440E+03  0.7818608E-02  0.9782972E-01
          1   -1    0    0  502    0  0.00000000000E+00  0.00000000000E+00  0.11300253672E+03  0.11300253672E+03  0.00000000000E+00 0.  1.
         13   -1    0    0    0    0 -0.00000000000E+00 -0.00000000000E+00 -0.10000000000E+04  0.10000000000E+04  0.00000000000E+00 0.  1.
    9000005    2    1    2  501    0  0.77700769753E-01  0.26961167671E+00 -0.89015256460E+03  0.11098349837E+04  0.66284389113E+03 0.  0.
         13    1    3    3    0    0 -0.67999948514E+02 -0.29135891554E+03 -0.20668490894E+03  0.36363809241E+03  0.00000000000E+00 0.  1.
          1    1    3    3  501    0  0.68077649284E+02  0.29162852722E+03 -0.68346765566E+03  0.74619689128E+03  0.00000000000E+00 0.  1.
         21    1    1    2  502  501 -0.77700769753E-01 -0.26961167671E+00  0.31551013237E+01  0.31675530348E+01  0.00000000000E+00 0.  1.
<mgrwt>
<rscale>  1 0.66284395E+03</rscale>
<asrwt>0</asrwt>
<pdfrwt beam="1">  1        1 0.41091918E+00 0.66284395E+03</pdfrwt>
<pdfrwt beam="2">0</pdfrwt>
<totfact> 0.11926729E+00</totfact>
</mgrwt>
</event>
<event>
 6    1  0.2173548E-003  0.6443541E+03  0.7818608E-02  0.9817431E-01
          1   -1    0    0  502    0  0.00000000000E+00  0.00000000000E+00  0.10379807799E+03  0.10379807799E+03  0.00000000000E+00 0.  1.
         13   -1    0    0    0    0 -0.00000000000E+00 -0.00000000000E+00 -0.10000000000E+04  0.10000000000E+04  0.00000000000E+00 0.  1.
    9000005    2    1    2  501    0 -0.19491589963E-04 -0.15329926512E-04 -0.89620193406E+03  0.11037980504E+04  0.64435411808E+03 0.  0.
         13    1    3    3    0    0 -0.28334413986E+02 -0.12729110873E+03  0.56566540750E+02  0.14214654027E+03  0.00000000000E+00 0.  1.
          3    1    3    3  501    0  0.28334394495E+02  0.12729109340E+03 -0.95276847481E+03  0.96165151015E+03  0.00000000000E+00 0.  1.
         21    1    1    2  502  501  0.19491589962E-04  0.15329926522E-04  0.12052085242E-04  0.27571388886E-04  0.00000000000E+00 0.  1.
<mgrwt>
<rscale>  1 0.64435412E+03</rscale>
<asrwt>0</asrwt>
<pdfrwt beam="1">  1        1 0.37744835E+00 0.64435412E+03</pdfrwt>
<pdfrwt beam="2">0</pdfrwt>
<totfact> 0.16857893E+00</totfact>
</mgrwt>
</event>
<event>
 6    1  0.2173548E-003  0.6513851E+03  0.7818608E-02  0.9804184E-01
          1   -1    0    0  502    0  0.00000000000E+00  0.00000000000E+00  0.10608188288E+03  0.10608188288E+03  0.00000000000E+00 0.  1.
         13   -1    0    0    0    0 -0.00000000000E+00 -0.00000000000E+00 -0.10000000000E+04  0.10000000000E+04  0.00000000000E+00 0.  1.
    9000005    2    1    2  501    0  0.65622261522E-03  0.34334045108E-03 -0.89392433812E+03  0.11060756179E+04  0.65138510141E+03 0.  0.
         13    1    3    3    0    0 -0.40742519604E+02  0.29459978543E+03 -0.67240328250E+03  0.73523816604E+03  0.00000000000E+00 0.  1.
          3    1    3    3  501    0  0.40743175826E+02 -0.29459944209E+03 -0.22152105562E+03  0.37083745191E+03  0.00000000000E+00 0.  1.
         21    1    1    2  502  501 -0.65622261522E-03 -0.34334045104E-03  0.62210054922E-02  0.62649357634E-02  0.00000000000E+00 0.  1.
<mgrwt>
<rscale>  1 0.65138510E+03</rscale>
<asrwt>0</asrwt>
<pdfrwt beam="1">  1        1 0.38575311E+00 0.65138510E+03</pdfrwt>
<pdfrwt beam="2">0</pdfrwt>
<totfact> 0.15472814E+00</totfact>
</mgrwt>
</event>
<event>
 6    1  0.2173548E-003  0.6403737E+03  0.7818608E-02  0.9825012E-01
          1   -1    0    0  502    0  0.00000000000E+00  0.00000000000E+00  0.10266331014E+03  0.10266331014E+03  0.00000000000E+00 0.  1.
         13   -1    0    0    0    0 -0.00000000000E+00 -0.00000000000E+00 -0.10000000000E+04  0.10000000000E+04  0.00000000000E+00 0.  1.
    9000005    2    1    2  501    0  0.29075328605E+00  0.19682089357E+00 -0.89718888139E+03  0.11022823596E+04  0.64037363173E+03 0.  0.
         13    1    3    3    0    0 -0.16210620247E+03  0.88014109457E+02 -0.89892370695E+03  0.91765393000E+03  0.00000000000E+00 0.  1.
          1    1    3    3  501    0  0.16239695576E+03 -0.87817288564E+02  0.17348255600E+01  0.18462842964E+03  0.00000000000E+00 0.  1.
         21    1    1    2  502  501 -0.29075328605E+00 -0.19682089357E+00 -0.14780847577E+00  0.38095049941E+00  0.00000000000E+00 0.  1.
<mgrwt>
<rscale>  1 0.64037373E+03</rscale>
<asrwt>0</asrwt>
<pdfrwt beam="1">  1        1 0.37332192E+00 0.64037373E+03</pdfrwt>
<pdfrwt beam="2">0</pdfrwt>
<totfact> 0.17590844E+00</totfact>
</mgrwt>
</event>
<event>
 6    1  0.2173548E-003  0.6470160E+03  0.7818608E-02  0.9812395E-01
          1   -1    0    0  502    0  0.00000000000E+00  0.00000000000E+00  0.10471217848E+03  0.10471217848E+03  0.00000000000E+00 0.  1.
         13   -1    0    0    0    0 -0.00000000000E+00 -0.00000000000E+00 -0.10000000000E+04  0.10000000000E+04  0.00000000000E+00 0.  1.
    9000005    2    1    2  501    0 -0.42025451898E-02 -0.33992260431E-02 -0.89534241167E+03  0.11046573214E+04  0.64701604581E+03 0.  0.
         13    1    3    3    0    0 -0.73533882694E+02  0.13187363632E+03 -0.93615096676E+03  0.94824918689E+03  0.00000000000E+00 0.  1.
          3    1    3    3  501    0  0.73529680149E+02 -0.13187703555E+03  0.40808555094E+02  0.15640813450E+03  0.00000000000E+00 0.  1.
         21    1    1    2  502  501  0.42025451898E-02  0.33992260431E-02  0.54590145986E-01  0.54857088535E-01  0.00000000000E+00 0. -1.
<mgrwt>
<rscale>  1 0.64701605E+03</rscale>
<asrwt>0</asrwt>
<pdfrwt beam="1">  1        1 0.38077236E+00 0.64701605E+03</pdfrwt>
<pdfrwt beam="2">0</pdfrwt>
<totfact> 0.16290370E+00</totfact>
</mgrwt>
</event>
<event>
 6    1  0.2173548E-003  0.6455953E+03  0.7818608E-02  0.9815080E-01
          1   -1    0    0  502    0  0.00000000000E+00  0.00000000000E+00  0.10419946952E+03  0.10419946952E+03  0.00000000000E+00 0.  1.
         13   -1    0    0    0    0 -0.00000000000E+00 -0.00000000000E+00 -0.10000000000E+04  0.10000000000E+04  0.00000000000E+00 0.  1.
    9000005    2    1    2  501    0 -0.14093550789E-04 -0.51282008201E-04 -0.89580166721E+03  0.11041983315E+04  0.64559532869E+03 0.  0.
         13    1    3    3    0    0 -0.12812583330E+03  0.22111238133E+03 -0.78519863892E+03  0.82573834651E+03  0.00000000000E+00 0.  1.
          3    1    3    3  501    0  0.12812581920E+03 -0.22111243261E+03 -0.11060302829E+03  0.27845998504E+03  0.00000000000E+00 0.  1.
         21    1    1    2  502  501  0.14093550803E-04  0.51282008198E-04  0.11367268447E-02  0.11379702948E-02  0.00000000000E+00 0.  1.
<mgrwt>
<rscale>  1 0.64559533E+03</rscale>
<asrwt>0</asrwt>
<pdfrwt beam="1">  1        1 0.37890796E+00 0.64559533E+03</pdfrwt>
<pdfrwt beam="2">0</pdfrwt>
<totfact> 0.16606186E+00</totfact>
</mgrwt>
</event>
<event>
 6    1  0.2173548E-003  0.6506858E+03  0.7818608E-02  0.9805493E-01
          1   -1    0    0  502    0  0.00000000000E+00  0.00000000000E+00  0.10584835356E+03  0.10584835356E+03  0.00000000000E+00 0.  1.
         13   -1    0    0    0    0 -0.00000000000E+00 -0.00000000000E+00 -0.10000000000E+04  0.10000000000E+04  0.00000000000E+00 0.  1.
    9000005    2    1    2  501    0  0.20513897303E-03 -0.13136729868E-03 -0.89415195710E+03  0.11058479588E+04  0.65068578098E+03 0.  0.
         13    1    3    3    0    0 -0.19210588369E+03 -0.25440760711E+03 -0.55747999547E+03  0.64219299782E+03  0.00000000000E+00 0.  1.
          1    1    3    3  501    0  0.19210608883E+03  0.25440747575E+03 -0.33667196163E+03  0.46365496096E+03  0.00000000000E+00 0.  1.
         21    1    1    2  502  501 -0.20513897304E-03  0.13136729868E-03  0.31065404075E-03  0.39477246415E-03  0.00000000000E+00 0.  1.
<mgrwt>
<rscale>  1 0.65068578E+03</rscale>
<asrwt>0</asrwt>
<pdfrwt beam="1">  1        1 0.38490392E+00 0.65068578E+03</pdfrwt>
<pdfrwt beam="2">0</pdfrwt>
<totfact> 0.15609257E+00</totfact>
</mgrwt>
</event>
<event>
 6    1  0.2173548E-003  0.6521588E+03  0.7818608E-02  0.9802737E-01
          1   -1    0    0  502    0  0.00000000000E+00  0.00000000000E+00  0.10632792896E+03  0.10632792896E+03  0.00000000000E+00 0.  1.
         13   -1    0    0    0    0 -0.00000000000E+00 -0.00000000000E+00 -0.10000000000E+04  0.10000000000E+04  0.00000000000E+00 0.  1.
    9000005    2    1    2  501    0 -0.48537208414E-04 -0.64244545541E-04 -0.89367220656E+03  0.11063277713E+04  0.65215881873E+03 0.  0.
         13    1    3    3    0    0  0.21362148105E+03 -0.18181435917E+03 -0.72885443774E+03  0.78097336048E+03  0.00000000000E+00 0.  1.
          1    1    3    3  501    0 -0.21362152959E+03  0.18181429492E+03 -0.16481776882E+03  0.32535441085E+03  0.00000000000E+00 0.  1.
         21    1    1    2  502  501  0.48537208412E-04  0.64244545550E-04  0.13551627389E-03  0.15763211196E-03  0.00000000000E+00 0.  1.
<mgrwt>
<rscale>  1 0.65215882E+03</rscale>
<asrwt>0</asrwt>
<pdfrwt beam="1">  1        1 0.38664783E+00 0.65215882E+03</pdfrwt>
<pdfrwt beam="2">0</pdfrwt>
<totfact> 0.15330178E+00</totfact>
</mgrwt>
</event>
<event>
 6    1  0.2173548E-003  0.6880398E+03  0.7818608E-02  0.9737907E-01
          1   -1    0    0  502    0  0.00000000000E+00  0.00000000000E+00  0.11844053034E+03  0.11844053034E+03  0.00000000000E+00 0.  1.
         13   -1    0    0    0    0 -0.00000000000E+00 -0.00000000000E+00 -0.10000000000E+04  0.10000000000E+04  0.00000000000E+00 0.  1.
    9000005    2    1    2  501    0 -0.20766458205E-02  0.19015076312E-02 -0.88165028161E+03  0.11183496748E+04  0.68803980695E+03 0.  0.
         13    1    3    3    0    0 -0.26554034338E+02 -0.23160215700E+03 -0.29608658536E+02  0.23499223078E+03  0.00000000000E+00 0.  1.
          3    1    3    3  501    0  0.26551957692E+02  0.23160405851E+03 -0.85204162307E+03  0.88335744397E+03  0.00000000000E+00 0.  1.
         21    1    1    2  502  501  0.20766458205E-02 -0.19015076312E-02  0.90811949145E-01  0.90855590343E-01  0.00000000000E+00 0.  1.
<mgrwt>
<rscale>  1 0.68803981E+03</rscale>
<asrwt>0</asrwt>
<pdfrwt beam="1">  1        1 0.43069375E+00 0.68803981E+03</pdfrwt>
<pdfrwt beam="2">0</pdfrwt>
<totfact> 0.96630129E-01</totfact>
</mgrwt>
</event>
<event>
 6    1  0.2770115E-003  0.6564773E+03  0.7818608E-02  0.9794700E-01
          1   -1    0    0  502    0  0.00000000000E+00  0.00000000000E+00  0.10774060436E+03  0.10774060436E+03  0.00000000000E+00 0.  1.
         13   -1    0    0    0    0 -0.00000000000E+00 -0.00000000000E+00 -0.10000000000E+04  0.10000000000E+04  0.00000000000E+00 0.  1.
    9000005    2    1    2  501    0  0.56602743825E-07  0.84867802599E-05 -0.89225939470E+03  0.11077405958E+04  0.65647726556E+03 0.  0.
         13    1    3    3    0    0 -0.31820759138E+03 -0.76603187822E+02 -0.48802620147E+03  0.58761696106E+03  0.00000000000E+00 0.  1.
          1    1    3    3  501    0  0.31820759144E+03  0.76603196309E+02 -0.40423319323E+03  0.52012363476E+03  0.00000000000E+00 0.  1.
         21    1    1    2  502  501 -0.56602715821E-07 -0.84867802646E-05 -0.94019772327E-06  0.85388883870E-05  0.00000000000E+00 0.  1.
<mgrwt>
<rscale>  1 0.65647727E+03</rscale>
<asrwt>0</asrwt>
<pdfrwt beam="1">  1        1 0.39178484E+00 0.65647727E+03</pdfrwt>
<pdfrwt beam="2">0</pdfrwt>
<totfact> 0.14535415E+00</totfact>
</mgrwt>
</event>
<event>
 6    1  0.2173548E-003  0.6405835E+03  0.7818608E-02  0.9824611E-01
          1   -1    0    0  502    0  0.00000000000E+00  0.00000000000E+00  0.11787507896E+03  0.11787507896E+03  0.00000000000E+00 0.  1.
         13   -1    0    0    0    0 -0.00000000000E+00 -0.00000000000E+00 -0.10000000000E+04  0.10000000000E+04  0.00000000000E+00 0.  1.
    9000005    2    1    2  501    0 -0.72115852184E+00 -0.32010746956E+02 -0.87607424880E+03  0.10852895204E+04  0.63978281138E+03 0.  0.
         13    1    3    3    0    0 -0.20747057159E+02 -0.18357093569E+03  0.11068376901E+02  0.18507089933E+03  0.00000000000E+00 0.  1.
          3    1    3    3  501    0  0.20025898638E+02  0.15156018874E+03 -0.88714262570E+03  0.90021862109E+03  0.00000000000E+00 0.  1.
         21    1    1    2  502  501  0.72115852184E+00  0.32010746956E+02 -0.60506722397E+01  0.32585558532E+02  0.00000000000E+00 0. -1.
<mgrwt>
<rscale>  1 0.64058353E+03</rscale>
<asrwt>0</asrwt>
<pdfrwt beam="1">  1        1 0.42863755E+00 0.64058353E+03</pdfrwt>
<pdfrwt beam="2">0</pdfrwt>
<totfact> 0.99659694E-01</totfact>
</mgrwt>
</event>
<event>
 6    1  0.2173548E-003  0.6546164E+03  0.7818608E-02  0.9798155E-01
          3   -1    0    0  502    0  0.00000000000E+00  0.00000000000E+00  0.10713581270E+03  0.10713581270E+03  0.00000000000E+00 0.  1.
         13   -1    0    0    0    0 -0.00000000000E+00 -0.00000000000E+00 -0.10000000000E+04  0.10000000000E+04  0.00000000000E+00 0.  1.
    9000005    2    1    2  501    0 -0.41421119465E-03 -0.36300178201E-02 -0.89286861985E+03  0.11071300685E+04  0.65461638858E+03 0.  0.
         13    1    3    3    0    0  0.31189920945E+03  0.24394660066E+02 -0.28373605562E+03  0.42235336574E+03  0.00000000000E+00 0.  1.
          3    1    3    3  501    0 -0.31189962366E+03 -0.24398290084E+02 -0.60913256423E+03  0.68477670274E+03  0.00000000000E+00 0.  1.
         21    1    1    2  502  501  0.41421119463E-03  0.36300178201E-02  0.44325508996E-02  0.57442238611E-02  0.00000000000E+00 0.  1.
<mgrwt>
<rscale>  1 0.65461639E+03</rscale>
<asrwt>0</asrwt>
<pdfrwt beam="1">  1        3 0.38958559E+00 0.65461639E+03</pdfrwt>
<pdfrwt beam="2">0</pdfrwt>
<totfact> 0.67135483E-02</totfact>
</mgrwt>
</event>
<event>
 6    1  0.2173548E-003  0.6514970E+03  0.7818608E-02  0.9803974E-01
          1   -1    0    0  502    0  0.00000000000E+00  0.00000000000E+00  0.10624187965E+03  0.10624187965E+03  0.00000000000E+00 0.  1.
         13   -1    0    0    0    0 -0.00000000000E+00 -0.00000000000E+00 -0.10000000000E+04  0.10000000000E+04  0.00000000000E+00 0.  1.
    9000005    2    1    2  501    0  0.89969528404E-02 -0.12244460732E-01 -0.89388741298E+03  0.11061116973E+04  0.65149702953E+03 0.  0.
         13    1    3    3    0    0 -0.29822292062E+02  0.16020562892E+03  0.31932870466E+02  0.16605698076E+03  0.00000000000E+00 0.  1.
          1    1    3    3  501    0  0.29831289015E+02 -0.16021787339E+03 -0.92582028345E+03  0.94005471649E+03  0.00000000000E+00 0.  1.
         21    1    1    2  502  501 -0.89969528404E-02  0.12244460732E-01  0.12929263641E+00  0.13018240207E+00  0.00000000000E+00 0. -1.
<mgrwt>
<rscale>  1 0.65149703E+03</rscale>
<asrwt>0</asrwt>
<pdfrwt beam="1">  1        1 0.38633492E+00 0.65149703E+03</pdfrwt>
<pdfrwt beam="2">0</pdfrwt>
<totfact> 0.15381031E+00</totfact>
</mgrwt>
</event>
<event>
 6    1  0.2173548E-003  0.6232061E+03  0.7818608E-02  0.9858397E-01
          1   -1    0    0  502    0  0.00000000000E+00  0.00000000000E+00  0.10087450314E+03  0.10087450314E+03  0.00000000000E+00 0.  1.
         13   -1    0    0    0    0 -0.00000000000E+00 -0.00000000000E+00 -0.10000000000E+04  0.10000000000E+04  0.00000000000E+00 0.  1.
    9000005    2    1    2  501    0 -0.87823802776E-01  0.75949601421E-01 -0.90290255397E+03  0.10970956618E+04  0.62320611014E+03 0.  0.
         13    1    3    3    0    0 -0.11497960356E+02  0.79249548303E+02  0.78677060805E+02  0.11226207684E+03  0.00000000000E+00 0.  1.
          3    1    3    3  501    0  0.11410136553E+02 -0.79173598702E+02 -0.98157961478E+03  0.98483358497E+03  0.00000000000E+00 0.  1.
         21    1    1    2  502  501  0.87823802776E-01 -0.75949601421E-01  0.37770571099E+01  0.37788413269E+01  0.00000000000E+00 0. -1.
<mgrwt>
<rscale>  1 0.62320612E+03</rscale>
<asrwt>0</asrwt>
<pdfrwt beam="1">  1        1 0.36681715E+00 0.62320612E+03</pdfrwt>
<pdfrwt beam="2">0</pdfrwt>
<totfact> 0.18845981E+00</totfact>
</mgrwt>
</event>
<event>
 6    1  0.2173548E-003  0.6303635E+03  0.7818608E-02  0.9844340E-01
          1   -1    0    0  502    0  0.00000000000E+00  0.00000000000E+00  0.99549332284E+02  0.99549332284E+02  0.00000000000E+00 0.  1.
         13   -1    0    0    0    0 -0.00000000000E+00 -0.00000000000E+00 -0.10000000000E+04  0.10000000000E+04  0.00000000000E+00 0.  1.
    9000005    2    1    2  501    0 -0.13256560175E+00  0.20086882514E+00 -0.90058191165E+03  0.10992752029E+04  0.63036349378E+03 0.  0.
         13    1    3    3    0    0  0.24575428057E+03  0.10253616043E+03 -0.74424354003E+03  0.79044751723E+03  0.00000000000E+00 0.  1.
          1    1    3    3  501    0 -0.24588684617E+03 -0.10233529160E+03 -0.15633837162E+03  0.30882768572E+03  0.00000000000E+00 0.  1.
         21    1    1    2  502  501  0.13256560175E+00 -0.20086882514E+00  0.13124393570E+00  0.27412933871E+00  0.00000000000E+00 0. -1.
<mgrwt>
<rscale>  1 0.63036354E+03</rscale>
<asrwt>0</asrwt>
<pdfrwt beam="1">  1        1 0.36199834E+00 0.63036354E+03</pdfrwt>
<pdfrwt beam="2">0</pdfrwt>
<totfact> 0.19758688E+00</totfact>
</mgrwt>
</event>
<event>
 6    1  0.2173548E-003  0.5270880E+03  0.7818608E-02  0.1006941E+00
          3   -1    0    0  502    0  0.00000000000E+00  0.00000000000E+00  0.69473002488E+02  0.69473002488E+02  0.00000000000E+00 0.  1.
         13   -1    0    0    0    0 -0.00000000000E+00 -0.00000000000E+00 -0.10000000000E+04  0.10000000000E+04  0.00000000000E+00 0.  1.
    9000005    2    1    2  501    0  0.28877174734E-03  0.61409434535E-03 -0.93054455286E+03  0.10694554340E+04  0.52708800073E+03 0.  0.
         13    1    3    3    0    0 -0.14262393582E+03 -0.58929845101E+02 -0.31803688906E+02  0.15756201427E+03  0.00000000000E+00 0.  1.
          1    1    3    3  501    0  0.14262422459E+03  0.58930459195E+02 -0.89874086396E+03  0.91189341976E+03  0.00000000000E+00 0.  1.
         21    1    1    2  502  501 -0.28877174734E-03 -0.61409434535E-03  0.17555349825E-01  0.17568460617E-01  0.00000000000E+00 0.  1.
<mgrwt>
<rscale>  1 0.52708800E+03</rscale>
<asrwt>0</asrwt>
<pdfrwt beam="1">  1        3 0.25262963E+00 0.52708800E+03</pdfrwt>
<pdfrwt beam="2">0</pdfrwt>
<totfact> 0.37458720E-01</totfact>
</mgrwt>
</event>
<event>
 6    1  0.2173548E-003  0.6566819E+03  0.7818608E-02  0.9794321E-01
          1   -1    0    0  502    0  0.00000000000E+00  0.00000000000E+00  0.10781114993E+03  0.10781114993E+03  0.00000000000E+00 0.  1.
         13   -1    0    0    0    0 -0.00000000000E+00 -0.00000000000E+00 -0.10000000000E+04  0.10000000000E+04  0.00000000000E+00 0.  1.
    9000005    2    1    2  501    0  0.32687685567E-03  0.34300450533E-02 -0.89219120575E+03  0.11078069761E+04  0.65668192343E+03 0.  0.
         13    1    3    3    0    0 -0.89051517935E+02 -0.67998239576E+02 -0.96674966462E+03  0.97322086263E+03  0.00000000000E+00 0.  1.
          1    1    3    3  501    0  0.89051844812E+02  0.68001669621E+02  0.74558458868E+02  0.13458611342E+03  0.00000000000E+00 0.  1.
         21    1    1    2  502  501 -0.32687685566E-03 -0.34300450533E-02  0.23556783997E-02  0.41738804809E-02  0.00000000000E+00 0. -1.
<mgrwt>
<rscale>  1 0.65668192E+03</rscale>
<asrwt>0</asrwt>
<pdfrwt beam="1">  1        1 0.39204137E+00 0.65668192E+03</pdfrwt>
<pdfrwt beam="2">0</pdfrwt>
<totfact> 0.14496799E+00</totfact>
</mgrwt>
</event>
<event>
 6    1  0.2173548E-003  0.6564532E+03  0.7818608E-02  0.9794745E-01
          1   -1    0    0  502    0  0.00000000000E+00  0.00000000000E+00  0.10773283795E+03  0.10773283795E+03  0.00000000000E+00 0.  1.
         13   -1    0    0    0    0 -0.00000000000E+00 -0.00000000000E+00 -0.10000000000E+04  0.10000000000E+04  0.00000000000E+00 0.  1.
    9000005    2    1    2  501    0 -0.29034055899E-04  0.28140343986E-04 -0.89226729096E+03  0.11077327028E+04  0.65645321419E+03 0.  0.
         13    1    3    3    0    0 -0.28462052634E+03 -0.67522635026E+02 -0.19490986348E+03  0.35150818645E+03  0.00000000000E+00 0.  1.
          3    1    3    3  501    0  0.28462049731E+03  0.67522663166E+02 -0.69735742749E+03  0.75622451640E+03  0.00000000000E+00 0.  1.
         21    1    1    2  502  501  0.29034055875E-04 -0.28140343993E-04  0.12891811466E-03  0.13511008714E-03  0.00000000000E+00 0. -1.
<mgrwt>
<rscale>  1 0.65645321E+03</rscale>
<asrwt>0</asrwt>
<pdfrwt beam="1">  1        1 0.39175660E+00 0.65645321E+03</pdfrwt>
<pdfrwt beam="2">0</pdfrwt>
<totfact> 0.14539677E+00</totfact>
</mgrwt>
</event>
<event>
 6    1  0.2173548E-003  0.6524714E+03  0.7818608E-02  0.9802153E-01
          1   -1    0    0  502    0  0.00000000000E+00  0.00000000000E+00  0.10776801466E+03  0.10776801466E+03  0.00000000000E+00 0.  1.
         13   -1    0    0    0    0 -0.00000000000E+00 -0.00000000000E+00 -0.10000000000E+04  0.10000000000E+04  0.00000000000E+00 0.  1.
    9000005    2    1    2  501    0 -0.11827396157E-01 -0.14319577424E-01 -0.89357019368E+03  0.11064296775E+04  0.65247140916E+03 0.  0.
         13    1    3    3    0    0 -0.14155273879E+03  0.22777817548E+03 -0.76179055960E+03  0.80761682238E+03  0.00000000000E+00 0.  1.
          1    1    3    3  501    0  0.14154091140E+03 -0.22779249506E+03 -0.13177963407E+03  0.29881285508E+03  0.00000000000E+00 0.  1.
         21    1    1    2  502  501  0.11827396157E-01  0.14319577424E-01  0.13382083342E+01  0.13383372083E+01  0.00000000000E+00 0.  1.
<mgrwt>
<rscale>  1 0.65247141E+03</rscale>
<asrwt>0</asrwt>
<pdfrwt beam="1">  1        1 0.39188452E+00 0.65247141E+03</pdfrwt>
<pdfrwt beam="2">0</pdfrwt>
<totfact> 0.14531447E+00</totfact>
</mgrwt>
</event>
<event>
 6    1  0.2173548E-003  0.6458891E+03  0.7818608E-02  0.9814524E-01
          1   -1    0    0  502    0  0.00000000000E+00  0.00000000000E+00  0.10994985042E+03  0.10994985042E+03  0.00000000000E+00 0.  1.
         13   -1    0    0    0    0 -0.00000000000E+00 -0.00000000000E+00 -0.10000000000E+04  0.10000000000E+04  0.00000000000E+00 0.  1.
    9000005    2    1    2  501    0 -0.29545323239E-01  0.12366640050E+00 -0.89570602081E+03  0.11042925502E+04  0.64588911165E+03 0.  0.
         13    1    3    3    0    0  0.12958773816E+03  0.79628576251E+02 -0.93495896050E+03  0.94724967662E+03  0.00000000000E+00 0.  1.
          3    1    3    3  501    0 -0.12961728348E+03 -0.79504909851E+02  0.39252939689E+02  0.15704287358E+03  0.00000000000E+00 0.  1.
         21    1    1    2  502  501  0.29545323239E-01 -0.12366640050E+00  0.56558712333E+01  0.56573002141E+01  0.00000000000E+00 0.  1.
<mgrwt>
<rscale>  1 0.64588912E+03</rscale>
<asrwt>0</asrwt>
<pdfrwt beam="1">  1        1 0.39981848E+00 0.64588912E+03</pdfrwt>
<pdfrwt beam="2">0</pdfrwt>
<totfact> 0.13414191E+00</totfact>
</mgrwt>
</event>
<event>
 6    1  0.2173548E-003  0.6527207E+03  0.7818608E-02  0.9801687E-01
          1   -1    0    0  502    0  0.00000000000E+00  0.00000000000E+00  0.10653420433E+03  0.10653420433E+03  0.00000000000E+00 0.  1.
         13   -1    0    0    0    0 -0.00000000000E+00 -0.00000000000E+00 -0.10000000000E+04  0.10000000000E+04  0.00000000000E+00 0.  1.
    9000005    2    1    2  501    0  0.19744401101E-04 -0.76542049138E-03 -0.89348890751E+03  0.11065110798E+04  0.65272072273E+03 0.  0.
         13    1    3    3    0    0  0.20636705069E+03  0.92498772499E+02 -0.47851366841E+02  0.23115608543E+03  0.00000000000E+00 0.  1.
          3    1    3    3  501    0 -0.20636703095E+03 -0.92499537919E+02 -0.84563754067E+03  0.87535499437E+03  0.00000000000E+00 0.  1.
         21    1    1    2  502  501 -0.19744401109E-04  0.76542049138E-03  0.23111847895E-01  0.23124527487E-01  0.00000000000E+00 0. -1.
<mgrwt>
<rscale>  1 0.65272072E+03</rscale>
<asrwt>0</asrwt>
<pdfrwt beam="1">  1        1 0.38739792E+00 0.65272072E+03</pdfrwt>
<pdfrwt beam="2">0</pdfrwt>
<totfact> 0.15211805E+00</totfact>
</mgrwt>
</event>
<event>
 6    1  0.2173548E-003  0.6536456E+03  0.7818608E-02  0.9799963E-01
          1   -1    0    0  502    0  0.00000000000E+00  0.00000000000E+00  0.10681327033E+03  0.10681327033E+03  0.00000000000E+00 0.  1.
         13   -1    0    0    0    0 -0.00000000000E+00 -0.00000000000E+00 -0.10000000000E+04  0.10000000000E+04  0.00000000000E+00 0.  1.
    9000005    2    1    2  501    0  0.23611989670E-03  0.36626032227E-04 -0.89318675361E+03  0.11068130302E+04  0.65364555147E+03 0.  0.
         13    1    3    3    0    0 -0.69814699601E+02  0.28538996745E+03 -0.68898623057E+03  0.74901505440E+03  0.00000000000E+00 0.  1.
          3    1    3    3  501    0  0.69814935721E+02 -0.28538993083E+03 -0.20420052305E+03  0.35779797579E+03  0.00000000000E+00 0.  1.
         21    1    1    2  502  501 -0.23611989669E-03 -0.36626032219E-04  0.23941461455E-04  0.24014009542E-03  0.00000000000E+00 0.  1.
<mgrwt>
<rscale>  1 0.65364555E+03</rscale>
<asrwt>0</asrwt>
<pdfrwt beam="1">  1        1 0.38841271E+00 0.65364555E+03</pdfrwt>
<pdfrwt beam="2">0</pdfrwt>
<totfact> 0.15052582E+00</totfact>
</mgrwt>
</event>
<event>
 6    1  0.2173548E-003  0.6651233E+03  0.7818608E-02  0.9778808E-01
          3   -1    0    0  502    0  0.00000000000E+00  0.00000000000E+00  0.11059745899E+03  0.11059745899E+03  0.00000000000E+00 0.  1.
         13   -1    0    0    0    0 -0.00000000000E+00 -0.00000000000E+00 -0.10000000000E+04  0.10000000000E+04  0.00000000000E+00 0.  1.
    9000005    2    1    2  501    0  0.11854595016E-04 -0.17715418849E-04 -0.88940275690E+03  0.11105972421E+04  0.66512327435E+03 0.  0.
         13    1    3    3    0    0  0.18874113712E+03  0.86059195222E+02 -0.87873609574E+03  0.90288788223E+03  0.00000000000E+00 0.  1.
          3    1    3    3  501    0 -0.18874112526E+03 -0.86059212937E+02 -0.10666661154E+02  0.20770935982E+03  0.00000000000E+00 0.  1.
         21    1    1    2  502  501 -0.11854595042E-04  0.17715418845E-04  0.21588745674E-03  0.21693722932E-03  0.00000000000E+00 0.  1.
<mgrwt>
<rscale>  1 0.66512327E+03</rscale>
<asrwt>0</asrwt>
<pdfrwt beam="1">  1        3 0.40217343E+00 0.66512327E+03</pdfrwt>
<pdfrwt beam="2">0</pdfrwt>
<totfact> 0.57557812E-02</totfact>
</mgrwt>
</event>
<event>
 6    1  0.2173548E-003  0.6558094E+03  0.7818608E-02  0.9795939E-01
          1   -1    0    0  502    0  0.00000000000E+00  0.00000000000E+00  0.11954373103E+03  0.11954373103E+03  0.00000000000E+00 0.  1.
         13   -1    0    0    0    0 -0.00000000000E+00 -0.00000000000E+00 -0.10000000000E+04  0.10000000000E+04  0.00000000000E+00 0.  1.
    9000005    2    1    2  501    0 -0.14967010313E+01 -0.40485731000E+01 -0.89204789192E+03  0.11071745443E+04  0.65579524166E+03 0.  0.
         13    1    3    3    0    0 -0.24425821853E+02  0.30758437567E+03 -0.62138370626E+03  0.69377408379E+03  0.00000000000E+00 0.  1.
          3    1    3    3  501    0  0.22929120822E+02 -0.31163294877E+03 -0.27066418566E+03  0.41340046050E+03  0.00000000000E+00 0.  1.
         21    1    1    2  502  501  0.14967010313E+01  0.40485731000E+01  0.11591622951E+02  0.12369186746E+02  0.00000000000E+00 0. -1.
<mgrwt>
<rscale>  1 0.65580945E+03</rscale>
<asrwt>0</asrwt>
<pdfrwt beam="1">  1        1 0.43470539E+00 0.65580945E+03</pdfrwt>
<pdfrwt beam="2">0</pdfrwt>
<totfact> 0.93240865E-01</totfact>
</mgrwt>
</event>
<event>
 6    1  0.2173548E-003  0.6514028E+03  0.7818608E-02  0.9804151E-01
          1   -1    0    0  502    0  0.00000000000E+00  0.00000000000E+00  0.10615460408E+03  0.10615460408E+03  0.00000000000E+00 0.  1.
         13   -1    0    0    0    0 -0.00000000000E+00 -0.00000000000E+00 -0.10000000000E+04  0.10000000000E+04  0.00000000000E+00 0.  1.
    9000005    2    1    2  501    0 -0.24864353409E-01 -0.10267404812E-01 -0.89391586764E+03  0.11060791725E+04  0.65140276078E+03 0.  0.
         13    1    3    3    0    0 -0.24583509474E+03  0.94673562070E+02 -0.77220723098E+03  0.81590562244E+03  0.00000000000E+00 0.  1.
          3    1    3    3  501    0  0.24581023039E+03 -0.94683829475E+02 -0.12170863667E+03  0.29017355008E+03  0.00000000000E+00 0.  1.
         21    1    1    2  502  501  0.24864353409E-01  0.10267404812E-01  0.70471728365E-01  0.75431559515E-01  0.00000000000E+00 0.  1.
<mgrwt>
<rscale>  1 0.65140276E+03</rscale>
<asrwt>0</asrwt>
<pdfrwt beam="1">  1        1 0.38601756E+00 0.65140276E+03</pdfrwt>
<pdfrwt beam="2">0</pdfrwt>
<totfact> 0.15431127E+00</totfact>
</mgrwt>
</event>
<event>
 6    1  0.2173548E-003  0.7182695E+03  0.7818608E-02  0.9686489E-01
          1   -1    0    0  502    0  0.00000000000E+00  0.00000000000E+00  0.12984756998E+03  0.12984756998E+03  0.00000000000E+00 0.  1.
         13   -1    0    0    0    0 -0.00000000000E+00 -0.00000000000E+00 -0.10000000000E+04  0.10000000000E+04  0.00000000000E+00 0.  1.
    9000005    2    1    2  501    0 -0.26953365258E-01 -0.19790884243E-01 -0.87102187572E+03  0.11289774815E+04  0.71826947910E+03 0.  0.
         13    1    3    3    0    0  0.36205791011E+02  0.16775114947E+03 -0.93136217925E+03  0.94704108485E+03  0.00000000000E+00 0.  1.
          3    1    3    3  501    0 -0.36232744376E+02 -0.16777094035E+03  0.60340303534E+02  0.18193639664E+03  0.00000000000E+00 0.  1.
         21    1    1    2  502  501  0.26953365258E-01  0.19790884243E-01  0.86944570097E+00  0.87008849546E+00  0.00000000000E+00 0.  1.
<mgrwt>
<rscale>  1 0.71826948E+03</rscale>
<asrwt>0</asrwt>
<pdfrwt beam="1">  1        1 0.47217398E+00 0.71826948E+03</pdfrwt>
<pdfrwt beam="2">0</pdfrwt>
<totfact> 0.61790175E-01</totfact>
</mgrwt>
</event>
<event>
 6    1  0.2173548E-003  0.6618128E+03  0.7818608E-02  0.9784862E-01
          1   -1    0    0  502    0  0.00000000000E+00  0.00000000000E+00  0.10949912399E+03  0.10949912399E+03  0.00000000000E+00 0.  1.
         13   -1    0    0    0    0 -0.00000000000E+00 -0.00000000000E+00 -0.10000000000E+04  0.10000000000E+04  0.00000000000E+00 0.  1.
    9000005    2    1    2  501    0  0.76917387787E-04 -0.18789642468E-04 -0.89050091380E+03  0.11094990363E+04  0.66181283908E+03 0.  0.
         13    1    3    3    0    0 -0.20604225856E+03 -0.13638259520E+03 -0.76257447552E+02  0.25859006728E+03  0.00000000000E+00 0.  1.
          1    1    3    3  501    0  0.20604233548E+03  0.13638257641E+03 -0.81424346625E+03  0.85090896898E+03  0.00000000000E+00 0.  1.
         21    1    1    2  502  501 -0.76917387794E-04  0.18789642463E-04  0.37787923991E-04  0.87734043612E-04  0.00000000000E+00 0.  1.
<mgrwt>
<rscale>  1 0.66181284E+03</rscale>
<asrwt>0</asrwt>
<pdfrwt beam="1">  1        1 0.39817947E+00 0.66181284E+03</pdfrwt>
<pdfrwt beam="2">0</pdfrwt>
<totfact> 0.13600666E+00</totfact>
</mgrwt>
</event>
<event>
 6    1  0.2173548E-003  0.6494220E+03  0.7818608E-02  0.9807864E-01
          1   -1    0    0  502    0  0.00000000000E+00  0.00000000000E+00  0.10545023429E+03  0.10545023429E+03  0.00000000000E+00 0.  1.
         13   -1    0    0    0    0 -0.00000000000E+00 -0.00000000000E+00 -0.10000000000E+04  0.10000000000E+04  0.00000000000E+00 0.  1.
    9000005    2    1    2  501    0 -0.14344699327E-02  0.36225617644E-02 -0.89456245642E+03  0.11054369589E+04  0.64942195972E+03 0.  0.
         13    1    3    3    0    0  0.94244691298E+02 -0.22455215658E+03 -0.81683351189E+02  0.25686164121E+03  0.00000000000E+00 0.  1.
          3    1    3    3  501    0 -0.94246125768E+02  0.22455577914E+03 -0.81287910523E+03  0.84857531774E+03  0.00000000000E+00 0.  1.
         21    1    1    2  502  501  0.14344699327E-02 -0.36225617644E-02  0.12690708503E-01  0.13275343312E-01  0.00000000000E+00 0. -1.
<mgrwt>
<rscale>  1 0.64942196E+03</rscale>
<asrwt>0</asrwt>
<pdfrwt beam="1">  1        1 0.38345621E+00 0.64942196E+03</pdfrwt>
<pdfrwt beam="2">0</pdfrwt>
<totfact> 0.15844715E+00</totfact>
</mgrwt>
</event>
<event>
 6    1  0.2173548E-003  0.6505044E+03  0.7818608E-02  0.9805833E-01
          1   -1    0    0  502    0  0.00000000000E+00  0.00000000000E+00  0.10897683333E+03  0.10897683333E+03  0.00000000000E+00 0.  1.
         13   -1    0    0    0    0 -0.00000000000E+00 -0.00000000000E+00 -0.10000000000E+04  0.10000000000E+04  0.00000000000E+00 0.  1.
    9000005    2    1    2  501    0 -0.84564993520E-01 -0.36875226233E+00 -0.89419858283E+03  0.11057789595E+04  0.65050431093E+03 0.  0.
         13    1    3    3    0    0 -0.94872385572E+02 -0.31129829425E+03 -0.45091695912E+03  0.55608767436E+03  0.00000000000E+00 0.  1.
          3    1    3    3  501    0  0.94787820579E+02  0.31092954199E+03 -0.44328162370E+03  0.54969128511E+03  0.00000000000E+00 0.  1.
         21    1    1    2  502  501  0.84564993520E-01  0.36875226233E+00  0.31754161585E+01  0.31978738638E+01  0.00000000000E+00 0.  1.
<mgrwt>
<rscale>  1 0.65050442E+03</rscale>
<asrwt>0</asrwt>
<pdfrwt beam="1">  1        1 0.39628023E+00 0.65050442E+03</pdfrwt>
<pdfrwt beam="2">0</pdfrwt>
<totfact> 0.13897505E+00</totfact>
</mgrwt>
</event>
<event>
 6    1  0.2173548E-003  0.5222955E+03  0.7818608E-02  0.1008118E+00
          1   -1    0    0  502    0  0.00000000000E+00  0.00000000000E+00  0.70363634565E+02  0.70363634565E+02  0.00000000000E+00 0.  1.
         13   -1    0    0    0    0 -0.00000000000E+00 -0.00000000000E+00 -0.10000000000E+04  0.10000000000E+04  0.00000000000E+00 0.  1.
    9000005    2    1    2  501    0  0.59584643619E+00  0.46142395034E+00 -0.93173166127E+03  0.10681369308E+04  0.52229498021E+03 0.  0.
         13    1    3    3    0    0 -0.14454003758E+03 -0.99761068410E+02 -0.85996946837E+03  0.87771953365E+03  0.00000000000E+00 0.  1.
          1    1    3    3  501    0  0.14513588401E+03  0.10022249236E+03 -0.71762192909E+02  0.19041739714E+03  0.00000000000E+00 0.  1.
         21    1    1    2  502  501 -0.59584643619E+00 -0.46142395034E+00  0.20952958395E+01  0.22267037730E+01  0.00000000000E+00 0.  1.
<mgrwt>
<rscale>  1 0.52229552E+03</rscale>
<asrwt>0</asrwt>
<pdfrwt beam="1">  1        1 0.25586830E+00 0.52229552E+03</pdfrwt>
<pdfrwt beam="2">0</pdfrwt>
<totfact> 0.58018216E+00</totfact>
</mgrwt>
</event>
<event>
 6    1  0.2173548E-003  0.6740150E+03  0.7818608E-02  0.9762732E-01
          1   -1    0    0  502    0  0.00000000000E+00  0.00000000000E+00  0.11357413351E+03  0.11357413351E+03  0.00000000000E+00 0.  1.
         13   -1    0    0    0    0 -0.00000000000E+00 -0.00000000000E+00 -0.10000000000E+04  0.10000000000E+04  0.00000000000E+00 0.  1.
    9000005    2    1    2  501    0 -0.10339740982E-04 -0.48922539193E-05 -0.88642593796E+03  0.11135740611E+04  0.67401501922E+03 0.  0.
         13    1    3    3    0    0  0.30727421038E+03  0.46120933141E+02 -0.22761225020E+03  0.38516479237E+03  0.00000000000E+00 0.  1.
          1    1    3    3  501    0 -0.30727422072E+03 -0.46120938034E+02 -0.65881368776E+03  0.72840926876E+03  0.00000000000E+00 0.  1.
         21    1    1    2  502  501  0.10339741006E-04  0.48922539244E-05  0.71468698969E-04  0.72378307004E-04  0.00000000000E+00 0. -1.
<mgrwt>
<rscale>  1 0.67401502E+03</rscale>
<asrwt>0</asrwt>
<pdfrwt beam="1">  1        1 0.41299772E+00 0.67401502E+03</pdfrwt>
<pdfrwt beam="2">0</pdfrwt>
<totfact> 0.11648375E+00</totfact>
</mgrwt>
</event>
<event>
 6    1  0.2173548E-003  0.6192163E+03  0.7818608E-02  0.9866321E-01
          1   -1    0    0  502    0  0.00000000000E+00  0.00000000000E+00  0.95857359934E+02  0.95857359934E+02  0.00000000000E+00 0.  1.
         13   -1    0    0    0    0 -0.00000000000E+00 -0.00000000000E+00 -0.10000000000E+04  0.10000000000E+04  0.00000000000E+00 0.  1.
    9000005    2    1    2  501    0 -0.18886850313E-04  0.35268126453E-04 -0.90414277832E+03  0.10958572160E+04  0.61921633886E+03 0.  0.
         13    1    3    3    0    0  0.15317865992E+03 -0.62953750979E+02 -0.91502331177E+03  0.92988952984E+03  0.00000000000E+00 0.  1.
          3    1    3    3  501    0 -0.15317867881E+03  0.62953786247E+02  0.10880533459E+02  0.16596768617E+03  0.00000000000E+00 0.  1.
         21    1    1    2  502  501  0.18886850327E-04 -0.35268126455E-04  0.13824930045E-03  0.14392158606E-03  0.00000000000E+00 0. -1.
<mgrwt>
<rscale>  1 0.61921634E+03</rscale>
<asrwt>0</asrwt>
<pdfrwt beam="1">  1        1 0.34857295E+00 0.61921634E+03</pdfrwt>
<pdfrwt beam="2">0</pdfrwt>
<totfact> 0.22658954E+00</totfact>
</mgrwt>
</event>
<event>
 6    1  0.2173548E-003  0.7032587E+03  0.7818608E-02  0.9711676E-01
          1   -1    0    0  502    0  0.00000000000E+00  0.00000000000E+00  0.12484612850E+03  0.12484612850E+03  0.00000000000E+00 0.  1.
         13   -1    0    0    0    0 -0.00000000000E+00 -0.00000000000E+00 -0.10000000000E+04  0.10000000000E+04  0.00000000000E+00 0.  1.
    9000005    2    1    2  501    0 -0.21903846308E-01 -0.14089437858E-01 -0.87635664301E+03  0.11236430751E+04  0.70325869614E+03 0.  0.
         13    1    3    3    0    0  0.24815661190E-01  0.46267424509E+02 -0.99511247112E+03  0.99618748504E+03  0.00000000000E+00 0.  1.
          1    1    3    3  501    0 -0.46719507498E-01 -0.46281513947E+02  0.11875582811E+03  0.12745559001E+03  0.00000000000E+00 0.  1.
         21    1    1    2  502  501  0.21903846308E-01  0.14089437858E-01  0.12027715024E+01  0.12030534393E+01  0.00000000000E+00 0. -1.
<mgrwt>
<rscale>  1 0.70325870E+03</rscale>
<asrwt>0</asrwt>
<pdfrwt beam="1">  1        1 0.45398688E+00 0.70325870E+03</pdfrwt>
<pdfrwt beam="2">0</pdfrwt>
<totfact> 0.75335277E-01</totfact>
</mgrwt>
</event>
<event>
 6    1  0.2173548E-003  0.6518745E+03  0.7818608E-02  0.9803268E-01
          1   -1    0    0  502    0  0.00000000000E+00  0.00000000000E+00  0.10623735662E+03  0.10623735662E+03  0.00000000000E+00 0.  1.
         13   -1    0    0    0    0 -0.00000000000E+00 -0.00000000000E+00 -0.10000000000E+04  0.10000000000E+04  0.00000000000E+00 0.  1.
    9000005    2    1    2  501    0  0.17075890321E-02 -0.26101848789E-03 -0.89376454961E+03  0.11062347841E+04  0.65187447217E+03 0.  0.
         13    1    3    3    0    0 -0.12762238795E+03  0.26411949485E+03 -0.20576220114E+03  0.35830805863E+03  0.00000000000E+00 0.  1.
          3    1    3    3  501    0  0.12762409554E+03 -0.26411975587E+03 -0.68800234847E+03  0.74792672549E+03  0.00000000000E+00 0.  1.
         21    1    1    2  502  501 -0.17075890321E-02  0.26101848790E-03  0.19062315682E-02  0.25724909612E-02  0.00000000000E+00 0.  1.
<mgrwt>
<rscale>  1 0.65187447E+03</rscale>
<asrwt>0</asrwt>
<pdfrwt beam="1">  1        1 0.38631848E+00 0.65187447E+03</pdfrwt>
<pdfrwt beam="2">0</pdfrwt>
<totfact> 0.15382537E+00</totfact>
</mgrwt>
</event>
<event>
 6    1  0.2173548E-003  0.6358128E+03  0.7818608E-02  0.9833771E-01
          1   -1    0    0  502    0  0.00000000000E+00  0.00000000000E+00  0.10106569591E+03  0.10106569591E+03  0.00000000000E+00 0.  1.
         13   -1    0    0    0    0 -0.00000000000E+00 -0.00000000000E+00 -0.10000000000E+04  0.10000000000E+04  0.00000000000E+00 0.  1.
    9000005    2    1    2  501    0 -0.12121345461E-02 -0.49118437542E-03 -0.89893510542E+03  0.11010641621E+04  0.63581283823E+03 0.  0.
         13    1    3    3    0    0  0.22922056586E+03 -0.13182826003E+03 -0.14385734349E+03  0.30102440637E+03  0.00000000000E+00 0.  1.
          3    1    3    3  501    0 -0.22922177800E+03  0.13182776885E+03 -0.75507776193E+03  0.80003975570E+03  0.00000000000E+00 0.  1.
         21    1    1    2  502  501  0.12121345461E-02  0.49118437544E-03  0.80132684574E-03  0.15338373324E-02  0.00000000000E+00 0. -1.
<mgrwt>
<rscale>  1 0.63581284E+03</rscale>
<asrwt>0</asrwt>
<pdfrwt beam="1">  1        1 0.36751240E+00 0.63581284E+03</pdfrwt>
<pdfrwt beam="2">0</pdfrwt>
<totfact> 0.18670970E+00</totfact>
</mgrwt>
</event>
<event>
 6    1  0.2173548E-003  0.6474407E+03  0.7818608E-02  0.9811593E-01
          1   -1    0    0  502    0  0.00000000000E+00  0.00000000000E+00  0.12501896688E+03  0.12501896688E+03  0.00000000000E+00 0.  1.
         13   -1    0    0    0    0 -0.00000000000E+00 -0.00000000000E+00 -0.10000000000E+04  0.10000000000E+04  0.00000000000E+00 0.  1.
    9000005    2    1    2  501    0  0.67434545313E+01  0.13873137799E+02 -0.89190345066E+03  0.11021212302E+04  0.64725690614E+03 0.  0.
         13    1    3    3    0    0  0.15262175677E+03  0.22805090518E+03 -0.14255178105E+03  0.30922746688E+03  0.00000000000E+00 0.  1.
          3    1    3    3  501    0 -0.14587830224E+03 -0.21417776738E+03 -0.74935166961E+03  0.79289376328E+03  0.00000000000E+00 0.  1.
         21    1    1    2  502  501 -0.67434545313E+01 -0.13873137799E+02  0.16922417541E+02  0.22897736719E+02  0.00000000000E+00 0.  1.
<mgrwt>
<rscale>  1 0.64744069E+03</rscale>
<asrwt>0</asrwt>
<pdfrwt beam="1">  1        1 0.45461538E+00 0.64744069E+03</pdfrwt>
<pdfrwt beam="2">0</pdfrwt>
<totfact> 0.75687581E-01</totfact>
</mgrwt>
</event>
<event>
 6    1  0.2173548E-003  0.6580265E+03  0.7818608E-02  0.9791834E-01
          1   -1    0    0  502    0  0.00000000000E+00  0.00000000000E+00  0.10824990871E+03  0.10824990871E+03  0.00000000000E+00 0.  1.
         13   -1    0    0    0    0 -0.00000000000E+00 -0.00000000000E+00 -0.10000000000E+04  0.10000000000E+04  0.00000000000E+00 0.  1.
    9000005    2    1    2  501    0 -0.15359999384E-03 -0.56853760398E-04 -0.89175025926E+03  0.11082496741E+04  0.65802645484E+03 0.  0.
         13    1    3    3    0    0 -0.26690237907E+03 -0.12312357189E+03 -0.19690103105E+03  0.35378851019E+03  0.00000000000E+00 0.  1.
          1    1    3    3  501    0  0.26690222547E+03  0.12312351504E+03 -0.69484922821E+03  0.75446116392E+03  0.00000000000E+00 0.  1.
         21    1    1    2  502  501  0.15359999384E-03  0.56853760388E-04  0.16797275882E-03  0.23460638500E-03  0.00000000000E+00 0. -1.
<mgrwt>
<rscale>  1 0.65802645E+03</rscale>
<asrwt>0</asrwt>
<pdfrwt beam="1">  1        1 0.39363686E+00 0.65802645E+03</pdfrwt>
<pdfrwt beam="2">0</pdfrwt>
<totfact> 0.14258607E+00</totfact>
</mgrwt>
</event>
<event>
 6    1  0.2173548E-003  0.6577813E+03  0.7818608E-02  0.9792287E-01
          1   -1    0    0  502    0  0.00000000000E+00  0.00000000000E+00  0.10817129874E+03  0.10817129874E+03  0.00000000000E+00 0.  1.
         13   -1    0    0    0    0 -0.00000000000E+00 -0.00000000000E+00 -0.10000000000E+04  0.10000000000E+04  0.00000000000E+00 0.  1.
    9000005    2    1    2  501    0  0.39544994706E-03 -0.27955112927E-04 -0.89183091484E+03  0.11081690499E+04  0.65778131822E+03 0.  0.
         13    1    3    3    0    0 -0.17113394154E+03  0.24792985437E+03 -0.22360443875E+03  0.37517327152E+03  0.00000000000E+00 0.  1.
          1    1    3    3  501    0  0.17113433699E+03 -0.24792988233E+03 -0.66822647608E+03  0.73299577842E+03  0.00000000000E+00 0.  1.
         21    1    1    2  502  501 -0.39544994706E-03  0.27955112911E-04  0.22135743919E-02  0.22487938406E-02  0.00000000000E+00 0.  1.
<mgrwt>
<rscale>  1 0.65778132E+03</rscale>
<asrwt>0</asrwt>
<pdfrwt beam="1">  1        1 0.39335101E+00 0.65778132E+03</pdfrwt>
<pdfrwt beam="2">0</pdfrwt>
<totfact> 0.14301019E+00</totfact>
</mgrwt>
</event>
<event>
 6    1  0.2173548E-003  0.6561662E+03  0.7818608E-02  0.9795277E-01
          1   -1    0    0  502    0  0.00000000000E+00  0.00000000000E+00  0.10785238800E+03  0.10785238800E+03  0.00000000000E+00 0.  1.
         13   -1    0    0    0    0 -0.00000000000E+00 -0.00000000000E+00 -0.10000000000E+04  0.10000000000E+04  0.00000000000E+00 0.  1.
    9000005    2    1    2  501    0 -0.23793809121E+00  0.15358939357E+00 -0.89225220786E+03  0.11075504865E+04  0.65616613555E+03 0.  0.
         13    1    3    3    0    0  0.35255306328E+02  0.30528694548E+03 -0.25203047662E+03  0.39744486014E+03  0.00000000000E+00 0.  1.
          1    1    3    3  501    0 -0.35493244420E+02 -0.30513335609E+03 -0.64022173124E+03  0.71010562633E+03  0.00000000000E+00 0.  1.
         21    1    1    2  502  501  0.23793809121E+00 -0.15358939357E+00  0.10459585678E+00  0.30190152421E+00  0.00000000000E+00 0. -1.
<mgrwt>
<rscale>  1 0.65616620E+03</rscale>
<asrwt>0</asrwt>
<pdfrwt beam="1">  1        1 0.39219133E+00 0.65616620E+03</pdfrwt>
<pdfrwt beam="2">0</pdfrwt>
<totfact> 0.14475979E+00</totfact>
</mgrwt>
</event>
<event>
 6    1  0.2173548E-003  0.6389487E+03  0.7818608E-02  0.9827740E-01
          1   -1    0    0  502    0  0.00000000000E+00  0.00000000000E+00  0.10213659997E+03  0.10213659997E+03  0.00000000000E+00 0.  1.
         13   -1    0    0    0    0 -0.00000000000E+00 -0.00000000000E+00 -0.10000000000E+04  0.10000000000E+04  0.00000000000E+00 0.  1.
    9000005    2    1    2  501    0 -0.14943666835E-02  0.48096804659E-03 -0.89793611574E+03  0.11020638673E+04  0.63894874575E+03 0.  0.
         13    1    3    3    0    0 -0.21047553950E+03  0.18912292502E+03 -0.19315692334E+03  0.34260331366E+03  0.00000000000E+00 0.  1.
          1    1    3    3  501    0  0.21047404514E+03 -0.18912244405E+03 -0.70477919240E+03  0.75946055365E+03  0.00000000000E+00 0.  1.
         21    1    1    2  502  501  0.14943666835E-02 -0.48096804660E-03  0.72715711420E-01  0.72732655316E-01  0.00000000000E+00 0.  1.
<mgrwt>
<rscale>  1 0.63894875E+03</rscale>
<asrwt>0</asrwt>
<pdfrwt beam="1">  1        1 0.37140660E+00 0.63894875E+03</pdfrwt>
<pdfrwt beam="2">0</pdfrwt>
<totfact> 0.17939911E+00</totfact>
</mgrwt>
</event>
<event>
 6    1  0.2173548E-003  0.5956409E+03  0.7818608E-02  0.9914491E-01
          1   -1    0    0  502    0  0.00000000000E+00  0.00000000000E+00  0.88792100738E+02  0.88792100738E+02  0.00000000000E+00 0.  1.
         13   -1    0    0    0    0 -0.00000000000E+00 -0.00000000000E+00 -0.10000000000E+04  0.10000000000E+04  0.00000000000E+00 0.  1.
    9000005    2    1    2  501    0 -0.92980992590E-02 -0.83740622693E-02 -0.91130252029E+03  0.10886966559E+04  0.59564093621E+03 0.  0.
         13    1    3    3    0    0  0.13529805087E+03  0.23866922453E+03 -0.66742192161E+03  0.72160971637E+03  0.00000000000E+00 0.  1.
          1    1    3    3  501    0 -0.13530734897E+03 -0.23867759859E+03 -0.24388059868E+03  0.36708693952E+03  0.00000000000E+00 0.  1.
         21    1    1    2  502  501  0.92980992590E-02  0.83740622693E-02  0.94621032189E-01  0.95444849527E-01  0.00000000000E+00 0. -1.
<mgrwt>
<rscale>  1 0.59564094E+03</rscale>
<asrwt>0</asrwt>
<pdfrwt beam="1">  1        1 0.32288105E+00 0.59564094E+03</pdfrwt>
<pdfrwt beam="2">0</pdfrwt>
<totfact> 0.29411898E+00</totfact>
</mgrwt>
</event>
<event>
 6    1  0.2173548E-003  0.6381470E+03  0.7818608E-02  0.9829278E-01
          1   -1    0    0  502    0  0.00000000000E+00  0.00000000000E+00  0.10345665078E+03  0.10345665078E+03  0.00000000000E+00 0.  1.
         13   -1    0    0    0    0 -0.00000000000E+00 -0.00000000000E+00 -0.10000000000E+04  0.10000000000E+04  0.00000000000E+00 0.  1.
    9000005    2    1    2  501    0  0.43431493897E+00  0.91501555018E+00 -0.89801902454E+03  0.11016668182E+04  0.63814620899E+03 0.  0.
         13    1    3    3    0    0 -0.65059920081E+02  0.28195875689E+03 -0.68307543085E+03  0.74183932089E+03  0.00000000000E+00 0.  1.
          3    1    3    3  501    0  0.65494235020E+02 -0.28104374134E+03 -0.21494359369E+03  0.35982749733E+03  0.00000000000E+00 0.  1.
         21    1    1    2  502  501 -0.43431493897E+00 -0.91501555018E+00  0.14756753202E+01  0.17898325547E+01  0.00000000000E+00 0. -1.
<mgrwt>
<rscale>  1 0.63814701E+03</rscale>
<asrwt>0</asrwt>
<pdfrwt beam="1">  1        1 0.37620680E+00 0.63814701E+03</pdfrwt>
<pdfrwt beam="2">0</pdfrwt>
<totfact> 0.17091028E+00</totfact>
</mgrwt>
</event>
<event>
 6    1  0.2173548E-003  0.6271260E+03  0.7818608E-02  0.9850673E-01
          1   -1    0    0  502    0  0.00000000000E+00  0.00000000000E+00  0.98322977030E+02  0.98322977030E+02  0.00000000000E+00 0.  1.
         13   -1    0    0    0    0 -0.00000000000E+00 -0.00000000000E+00 -0.10000000000E+04  0.10000000000E+04  0.00000000000E+00 0.  1.
    9000005    2    1    2  501    0  0.24235957576E-02 -0.15250263900E-03 -0.90167672039E+03  0.10983205299E+04  0.62712604652E+03 0.  0.
         13    1    3    3    0    0  0.10687572621E+03  0.20261303386E+03 -0.82583973975E+03  0.85702143386E+03  0.00000000000E+00 0.  1.
          1    1    3    3  501    0 -0.10687330261E+03 -0.20261318636E+03 -0.75836980643E+02  0.24129909601E+03  0.00000000000E+00 0.  1.
         21    1    1    2  502  501 -0.24235957576E-02  0.15250263901E-03 -0.30258016533E-03  0.24471673845E-02  0.00000000000E+00 0. -1.
<mgrwt>
<rscale>  1 0.62712605E+03</rscale>
<asrwt>0</asrwt>
<pdfrwt beam="1">  1        1 0.35753885E+00 0.62712605E+03</pdfrwt>
<pdfrwt beam="2">0</pdfrwt>
<totfact> 0.20678225E+00</totfact>
</mgrwt>
</event>
<event>
 6    1  0.2173548E-003  0.6562895E+03  0.7818608E-02  0.9795049E-01
          3   -1    0    0  502    0  0.00000000000E+00  0.00000000000E+00  0.10779717679E+03  0.10779717679E+03  0.00000000000E+00 0.  1.
         13   -1    0    0    0    0 -0.00000000000E+00 -0.00000000000E+00 -0.10000000000E+04  0.10000000000E+04  0.00000000000E+00 0.  1.
    9000005    2    1    2  501    0  0.11773311305E-02 -0.17194489762E-02 -0.89232102885E+03  0.11076789528E+04  0.65628945131E+03 0.  0.
         13    1    3    3    0    0  0.25883166670E+03 -0.20163038712E+03 -0.45555418626E+03  0.56140739336E+03  0.00000000000E+00 0.  1.
          3    1    3    3  501    0 -0.25883048937E+03  0.20162866767E+03 -0.43676684259E+03  0.54627155942E+03  0.00000000000E+00 0.  1.
         21    1    1    2  502  501 -0.11773311306E-02  0.17194489762E-02  0.11820564324E+00  0.11822401070E+00  0.00000000000E+00 0. -1.
<mgrwt>
<rscale>  1 0.65628945E+03</rscale>
<asrwt>0</asrwt>
<pdfrwt beam="1">  1        3 0.39199056E+00 0.65628945E+03</pdfrwt>
<pdfrwt beam="2">0</pdfrwt>
<totfact> 0.65189951E-02</totfact>
</mgrwt>
</event>
<event>
 6    1  0.2173548E-003  0.6560738E+03  0.7818608E-02  0.9795448E-01
          1   -1    0    0  502    0  0.00000000000E+00  0.00000000000E+00  0.10760826199E+03  0.10760826199E+03  0.00000000000E+00 0.  1.
         13   -1    0    0    0    0 -0.00000000000E+00 -0.00000000000E+00 -0.10000000000E+04  0.10000000000E+04  0.00000000000E+00 0.  1.
    9000005    2    1    2  501    0  0.60769876285E-04  0.56270984032E-05 -0.89239177802E+03  0.11076081890E+04  0.65607378768E+03 0.  0.
         13    1    3    3    0    0  0.24909199323E+03 -0.19082292921E+03 -0.60766772350E+03  0.68390077759E+03  0.00000000000E+00 0.  1.
          3    1    3    3  501    0 -0.24909193246E+03  0.19082293483E+03 -0.28472405452E+03  0.42370741142E+03  0.00000000000E+00 0.  1.
         21    1    1    2  502  501 -0.60769876276E-04 -0.56270983821E-05  0.40015805559E-04  0.72978810578E-04  0.00000000000E+00 0. -1.
<mgrwt>
<rscale>  1 0.65607379E+03</rscale>
<asrwt>0</asrwt>
<pdfrwt beam="1">  1        1 0.39130360E+00 0.65607379E+03</pdfrwt>
<pdfrwt beam="2">0</pdfrwt>
<totfact> 0.14608175E+00</totfact>
</mgrwt>
</event>
<event>
 6    1  0.2173548E-003  0.6517008E+03  0.7818608E-02  0.9803593E-01
          1   -1    0    0  502    0  0.00000000000E+00  0.00000000000E+00  0.10617851823E+03  0.10617851823E+03  0.00000000000E+00 0.  1.
         13   -1    0    0    0    0 -0.00000000000E+00 -0.00000000000E+00 -0.10000000000E+04  0.10000000000E+04  0.00000000000E+00 0.  1.
    9000005    2    1    2  501    0 -0.95910297659E-05 -0.95037565941E-05 -0.89382151103E+03  0.11061784860E+04  0.65170081274E+03 0.  0.
         13    1    3    3    0    0  0.27919540317E+03  0.59721054123E+02 -0.71346731733E+03  0.76847400109E+03  0.00000000000E+00 0.  1.
          3    1    3    3  501    0 -0.27919541276E+03 -0.59721063627E+02 -0.18035419370E+03  0.33770448492E+03  0.00000000000E+00 0.  1.
         21    1    1    2  502  501  0.95910297491E-05  0.95037565923E-05  0.29259792985E-04  0.32224908480E-04  0.00000000000E+00 0.  1.
<mgrwt>
<rscale>  1 0.65170081E+03</rscale>
<asrwt>0</asrwt>
<pdfrwt beam="1">  1        1 0.38610452E+00 0.65170081E+03</pdfrwt>
<pdfrwt beam="2">0</pdfrwt>
<totfact> 0.15416610E+00</totfact>
</mgrwt>
</event>
<event>
 6    1  0.2173548E-003  0.6544121E+03  0.7818608E-02  0.9798535E-01
          1   -1    0    0  502    0  0.00000000000E+00  0.00000000000E+00  0.10747958177E+03  0.10747958177E+03  0.00000000000E+00 0.  1.
         13   -1    0    0    0    0 -0.00000000000E+00 -0.00000000000E+00 -0.10000000000E+04  0.10000000000E+04  0.00000000000E+00 0.  1.
    9000005    2    1    2  501    0 -0.89857550247E-02  0.64489923335E-02 -0.89293612268E+03  0.11070637302E+04  0.65441208992E+03 0.  0.
         13    1    3    3    0    0  0.21194527554E+03  0.23161993229E+03 -0.60238571915E+03  0.67929165128E+03  0.00000000000E+00 0.  1.
          1    1    3    3  501    0 -0.21195426129E+03 -0.23161348330E+03 -0.29055040353E+03  0.42777207893E+03  0.00000000000E+00 0.  1.
         21    1    1    2  502  501  0.89857550246E-02 -0.64489923335E-02  0.41570444827E+00  0.41585156198E+00  0.00000000000E+00 0.  1.
<mgrwt>
<rscale>  1 0.65441209E+03</rscale>
<asrwt>0</asrwt>
<pdfrwt beam="1">  1        1 0.39083567E+00 0.65441209E+03</pdfrwt>
<pdfrwt beam="2">0</pdfrwt>
<totfact> 0.14682712E+00</totfact>
</mgrwt>
</event>
<event>
 6    1  0.2173548E-003  0.6471927E+03  0.7818608E-02  0.9812061E-01
          1   -1    0    0  502    0  0.00000000000E+00  0.00000000000E+00  0.10505205441E+03  0.10505205441E+03  0.00000000000E+00 0.  1.
         13   -1    0    0    0    0 -0.00000000000E+00 -0.00000000000E+00 -0.10000000000E+04  0.10000000000E+04  0.00000000000E+00 0.  1.
    9000005    2    1    2  501    0 -0.13688885475E+00 -0.23360553679E-01 -0.89526955403E+03  0.11047017456E+04  0.64719267076E+03 0.  0.
         13    1    3    3    0    0  0.11511194509E+03 -0.16332276276E+03 -0.88204314586E+03  0.90439216930E+03  0.00000000000E+00 0.  1.
          1    1    3    3  501    0 -0.11524883394E+03  0.16329940220E+03 -0.13226408165E+02  0.20030957630E+03  0.00000000000E+00 0.  1.
         21    1    1    2  502  501  0.13688885475E+00  0.23360553679E-01  0.32160843700E+00  0.35030880773E+00  0.00000000000E+00 0.  1.
<mgrwt>
<rscale>  1 0.64719269E+03</rscale>
<asrwt>0</asrwt>
<pdfrwt beam="1">  1        1 0.38200828E+00 0.64719269E+03</pdfrwt>
<pdfrwt beam="2">0</pdfrwt>
<totfact> 0.16086444E+00</totfact>
</mgrwt>
</event>
<event>
 6    1  0.2173548E-003  0.6376908E+03  0.7818608E-02  0.9830155E-01
          3   -1    0    0  502    0  0.00000000000E+00  0.00000000000E+00  0.10274150532E+03  0.10274150532E+03  0.00000000000E+00 0.  1.
         13   -1    0    0    0    0 -0.00000000000E+00 -0.00000000000E+00 -0.10000000000E+04  0.10000000000E+04  0.00000000000E+00 0.  1.
    9000005    2    1    2  501    0  0.70509237436E-01 -0.29710277269E+00 -0.89831377307E+03  0.11016429362E+04  0.63769070150E+03 0.  0.
         13    1    3    3    0    0 -0.28584346564E+03  0.60719374153E+02 -0.66916269492E+03  0.73018630603E+03  0.00000000000E+00 0.  1.
          3    1    3    3  501    0  0.28591397488E+03 -0.61016476926E+02 -0.22915107815E+03  0.37145663018E+03  0.00000000000E+00 0.  1.
         21    1    1    2  502  501 -0.70509237436E-01  0.29710277269E+00  0.10552783935E+01  0.10985691138E+01  0.00000000000E+00 0. -1.
<mgrwt>
<rscale>  1 0.63769077E+03</rscale>
<asrwt>0</asrwt>
<pdfrwt beam="1">  1        3 0.37360626E+00 0.63769077E+03</pdfrwt>
<pdfrwt beam="2">0</pdfrwt>
<totfact> 0.81754776E-02</totfact>
</mgrwt>
</event>
<event>
 6    1  0.2173548E-003  0.6523534E+03  0.7818608E-02  0.9802373E-01
          1   -1    0    0  502    0  0.00000000000E+00  0.00000000000E+00  0.10652955835E+03  0.10652955835E+03  0.00000000000E+00 0.  1.
         13   -1    0    0    0    0 -0.00000000000E+00 -0.00000000000E+00 -0.10000000000E+04  0.10000000000E+04  0.00000000000E+00 0.  1.
    9000005    2    1    2  501    0  0.55686676609E-01  0.15778533176E+00 -0.89355040414E+03  0.11063441097E+04  0.65235338295E+03 0.  0.
         13    1    3    3    0    0 -0.92007458171E+02  0.24983969170E+03 -0.76656566508E+03  0.81148515870E+03  0.00000000000E+00 0.  1.
          3    1    3    3  501    0  0.92063144847E+02 -0.24968190637E+03 -0.12698473906E+03  0.29485895096E+03  0.00000000000E+00 0.  1.
         21    1    1    2  502  501 -0.55686676609E-01 -0.15778533176E+00  0.79962483145E-01  0.18544868719E+00  0.00000000000E+00 0.  1.
<mgrwt>
<rscale>  1 0.65235340E+03</rscale>
<asrwt>0</asrwt>
<pdfrwt beam="1">  1        1 0.38738103E+00 0.65235340E+03</pdfrwt>
<pdfrwt beam="2">0</pdfrwt>
<totfact> 0.15215460E+00</totfact>
</mgrwt>
</event>
<event>
 6    1  0.2173548E-003  0.6470559E+03  0.7818608E-02  0.9812319E-01
          1   -1    0    0  502    0  0.00000000000E+00  0.00000000000E+00  0.10467539139E+03  0.10467539139E+03  0.00000000000E+00 0.  1.
         13   -1    0    0    0    0 -0.00000000000E+00 -0.00000000000E+00 -0.10000000000E+04  0.10000000000E+04  0.00000000000E+00 0.  1.
    9000005    2    1    2  501    0 -0.66053494049E-02  0.10221184196E-01 -0.89531971721E+03  0.11046622754E+04  0.64705590681E+03 0.  0.
         13    1    3    3    0    0 -0.13100960695E+02 -0.29994746388E+03 -0.24188479942E+03  0.38554944229E+03  0.00000000000E+00 0.  1.
          1    1    3    3  501    0  0.13094355345E+02  0.29995768506E+03 -0.65343491779E+03  0.71911283312E+03  0.00000000000E+00 0.  1.
         21    1    1    2  502  501  0.66053494049E-02 -0.10221184196E-01 -0.48913918440E-02  0.13115981141E-01  0.00000000000E+00 0.  1.
<mgrwt>
<rscale>  1 0.64705591E+03</rscale>
<asrwt>0</asrwt>
<pdfrwt beam="1">  1        1 0.38063859E+00 0.64705591E+03</pdfrwt>
<pdfrwt beam="2">0</pdfrwt>
<totfact> 0.16312413E+00</totfact>
</mgrwt>
</event>
<event>
 6    1  0.2173548E-003  0.6616952E+03  0.7818608E-02  0.9785078E-01
          1   -1    0    0  502    0  0.00000000000E+00  0.00000000000E+00  0.10952225370E+03  0.10952225370E+03  0.00000000000E+00 0.  1.
         13   -1    0    0    0    0 -0.00000000000E+00 -0.00000000000E+00 -0.10000000000E+04  0.10000000000E+04  0.00000000000E+00 0.  1.
    9000005    2    1    2  501    0 -0.25730337828E-01  0.81166866157E-02 -0.89053658688E+03  0.11094575224E+04  0.66169523245E+03 0.  0.
         13    1    3    3    0    0 -0.32068698085E+03 -0.81385807383E+02 -0.44195281877E+03  0.55207434585E+03  0.00000000000E+00 0.  1.
          1    1    3    3  501    0  0.32066125051E+03  0.81393924070E+02 -0.44858376812E+03  0.55738317652E+03  0.00000000000E+00 0.  1.
         21    1    1    2  502  501  0.25730337828E-01 -0.81166866157E-02  0.58840581094E-01  0.64731328349E-01  0.00000000000E+00 0. -1.
<mgrwt>
<rscale>  1 0.66169523E+03</rscale>
<asrwt>0</asrwt>
<pdfrwt beam="1">  1        1 0.39826358E+00 0.66169523E+03</pdfrwt>
<pdfrwt beam="2">0</pdfrwt>
<totfact> 0.13589236E+00</totfact>
</mgrwt>
</event>
<event>
 6    1  0.2173548E-003  0.6524595E+03  0.7818608E-02  0.9802175E-01
          1   -1    0    0  502    0  0.00000000000E+00  0.00000000000E+00  0.10642648435E+03  0.10642648435E+03  0.00000000000E+00 0.  1.
         13   -1    0    0    0    0 -0.00000000000E+00 -0.00000000000E+00 -0.10000000000E+04  0.10000000000E+04  0.00000000000E+00 0.  1.
    9000005    2    1    2  501    0  0.30437155537E-03  0.17266042988E-03 -0.89357408395E+03  0.11064258170E+04  0.65245953509E+03 0.  0.
         13    1    3    3    0    0 -0.76190249725E+02  0.31797896268E+02  0.88417445418E+02  0.12096985168E+03  0.00000000000E+00 0.  1.
          3    1    3    3  501    0  0.76190554096E+02 -0.31797723608E+02 -0.98199152937E+03  0.98545596528E+03  0.00000000000E+00 0.  1.
         21    1    1    2  502  501 -0.30437155536E-03 -0.17266042988E-03  0.56829418645E-03  0.66739190144E-03  0.00000000000E+00 0. -1.
<mgrwt>
<rscale>  1 0.65245954E+03</rscale>
<asrwt>0</asrwt>
<pdfrwt beam="1">  1        1 0.38700621E+00 0.65245954E+03</pdfrwt>
<pdfrwt beam="2">0</pdfrwt>
<totfact> 0.15273421E+00</totfact>
</mgrwt>
</event>
<event>
 6    1  0.2173548E-003  0.6471352E+03  0.7818608E-02  0.9812170E-01
          1   -1    0    0  502    0  0.00000000000E+00  0.00000000000E+00  0.10798397925E+03  0.10798397925E+03  0.00000000000E+00 0.  1.
         13   -1    0    0    0    0 -0.00000000000E+00 -0.00000000000E+00 -0.10000000000E+04  0.10000000000E+04  0.00000000000E+00 0.  1.
    9000005    2    1    2  501    0  0.69049429904E-01 -0.45871167646E+00 -0.89528591972E+03  0.11046813404E+04  0.64713504814E+03 0.  0.
         13    1    3    3    0    0  0.28804068544E+03 -0.44038920180E+02 -0.20735099611E+03  0.35763291032E+03  0.00000000000E+00 0.  1.
          3    1    3    3  501    0 -0.28797163601E+03  0.43580208503E+02 -0.68793492362E+03  0.74704843006E+03  0.00000000000E+00 0.  1.
         21    1    1    2  502  501 -0.69049429904E-01  0.45871167646E+00  0.32698989718E+01  0.33026388709E+01  0.00000000000E+00 0. -1.
<mgrwt>
<rscale>  1 0.64713521E+03</rscale>
<asrwt>0</asrwt>
<pdfrwt beam="1">  1        1 0.39266984E+00 0.64713521E+03</pdfrwt>
<pdfrwt beam="2">0</pdfrwt>
<totfact> 0.14429699E+00</totfact>
</mgrwt>
</event>
<event>
 6    1  0.2173548E-003  0.6532228E+03  0.7818608E-02  0.9800751E-01
          1   -1    0    0  502    0  0.00000000000E+00  0.00000000000E+00  0.10726433247E+03  0.10726433247E+03  0.00000000000E+00 0.  1.
         13   -1    0    0    0    0 -0.00000000000E+00 -0.00000000000E+00 -0.10000000000E+04  0.10000000000E+04  0.00000000000E+00 0.  1.
    9000005    2    1    2  501    0 -0.18713058637E-01 -0.18846760290E-01 -0.89332467583E+03  0.11066747257E+04  0.65322275781E+03 0.  0.
         13    1    3    3    0    0 -0.11822843249E+03  0.99411097298E+01 -0.96220936576E+03  0.96949659694E+03  0.00000000000E+00 0.  1.
          1    1    3    3  501    0  0.11820971943E+03 -0.99599564901E+01  0.68884689931E+02  0.13717812875E+03  0.00000000000E+00 0.  1.
         21    1    1    2  502  501  0.18713058637E-01  0.18846760290E-01  0.58900830115E+00  0.58960678232E+00  0.00000000000E+00 0.  1.
<mgrwt>
<rscale>  1 0.65322276E+03</rscale>
<asrwt>0</asrwt>
<pdfrwt beam="1">  1        1 0.39005294E+00 0.65322276E+03</pdfrwt>
<pdfrwt beam="2">0</pdfrwt>
<totfact> 0.14803832E+00</totfact>
</mgrwt>
</event>
<event>
 6    1  0.2173548E-003  0.6323805E+03  0.7818608E-02  0.9840414E-01
          1   -1    0    0  502    0  0.00000000000E+00  0.00000000000E+00  0.11755136193E+03  0.11755136193E+03  0.00000000000E+00 0.  1.
         13   -1    0    0    0    0 -0.00000000000E+00 -0.00000000000E+00 -0.10000000000E+04  0.10000000000E+04  0.00000000000E+00 0.  1.
    9000005    2    1    2  501    0  0.58040079287E+01 -0.80788798985E+01 -0.89846259352E+03  0.10986992645E+04  0.63230221180E+03 0.  0.
         13    1    3    3    0    0 -0.23088729980E+03 -0.20415975037E+03 -0.57565521178E+03  0.65296942634E+03  0.00000000000E+00 0.  1.
          3    1    3    3  501    0  0.23669130773E+03  0.19608087048E+03 -0.32280738174E+03  0.44572983816E+03  0.00000000000E+00 0.  1.
         21    1    1    2  502  501 -0.58040079287E+01  0.80788798985E+01  0.16013955446E+02  0.18852097429E+02  0.00000000000E+00 0.  1.
<mgrwt>
<rscale>  1 0.63238046E+03</rscale>
<asrwt>0</asrwt>
<pdfrwt beam="1">  1        1 0.42746040E+00 0.63238046E+03</pdfrwt>
<pdfrwt beam="2">0</pdfrwt>
<totfact> 0.10106052E+00</totfact>
</mgrwt>
</event>
<event>
 6    1  0.2173548E-003  0.5112590E+03  0.7818608E-02  0.1010881E+00
          3   -1    0    0  502    0  0.00000000000E+00  0.00000000000E+00  0.65347701839E+02  0.65347701839E+02  0.00000000000E+00 0.  1.
         13   -1    0    0    0    0 -0.00000000000E+00 -0.00000000000E+00 -0.10000000000E+04  0.10000000000E+04  0.00000000000E+00 0.  1.
    9000005    2    1    2  501    0 -0.44196754828E-04 -0.27673991974E-03 -0.93465354279E+03  0.10653464261E+04  0.51125899743E+03 0.  0.
         13    1    3    3    0    0 -0.16172798371E+03  0.15019278638E+03 -0.73606513154E+03  0.76844368152E+03  0.00000000000E+00 0.  1.
          1    1    3    3  501    0  0.16172793951E+03 -0.15019306312E+03 -0.19858841124E+03  0.29690274453E+03  0.00000000000E+00 0.  1.
         21    1    1    2  502  501  0.44196754831E-04  0.27673991974E-03  0.12446275978E-02  0.12757884596E-02  0.00000000000E+00 0.  1.
<mgrwt>
<rscale>  1 0.51125900E+03</rscale>
<asrwt>0</asrwt>
<pdfrwt beam="1">  1        3 0.23762851E+00 0.51125900E+03</pdfrwt>
<pdfrwt beam="2">0</pdfrwt>
<totfact> 0.45655957E-01</totfact>
</mgrwt>
</event>
<event>
 6    1  0.2173548E-003  0.6535265E+03  0.7818608E-02  0.9800184E-01
          1   -1    0    0  502    0  0.00000000000E+00  0.00000000000E+00  0.10793401743E+03  0.10793401743E+03  0.00000000000E+00 0.  1.
         13   -1    0    0    0    0 -0.00000000000E+00 -0.00000000000E+00 -0.10000000000E+04  0.10000000000E+04  0.00000000000E+00 0.  1.
    9000005    2    1    2  501    0  0.83560982320E+00 -0.17884949583E-01 -0.89305672817E+03  0.11066378151E+04  0.65352600216E+03 0.  0.
         13    1    3    3    0    0  0.22495618546E+03 -0.89422217291E+02 -0.81931065306E+03  0.85432521006E+03  0.00000000000E+00 0.  1.
          3    1    3    3  501    0 -0.22412057564E+03  0.89404332342E+02 -0.73746075110E+02  0.25231260504E+03  0.00000000000E+00 0.  1.
         21    1    1    2  502  501 -0.83560982320E+00  0.17884949583E-01  0.99074560317E+00  0.12962023369E+01  0.00000000000E+00 0. -1.
<mgrwt>
<rscale>  1 0.65352654E+03</rscale>
<asrwt>0</asrwt>
<pdfrwt beam="1">  1        1 0.39248816E+00 0.65352654E+03</pdfrwt>
<pdfrwt beam="2">0</pdfrwt>
<totfact> 0.14439212E+00</totfact>
</mgrwt>
</event>
<event>
 6    1  0.2173548E-003  0.6342974E+03  0.7818608E-02  0.9836698E-01
          1   -1    0    0  502    0  0.00000000000E+00  0.00000000000E+00  0.10070162471E+03  0.10070162471E+03  0.00000000000E+00 0.  1.
         13   -1    0    0    0    0 -0.00000000000E+00 -0.00000000000E+00 -0.10000000000E+04  0.10000000000E+04  0.00000000000E+00 0.  1.
    9000005    2    1    2  501    0  0.46718515941E-03  0.22654983044E-02 -0.89941668236E+03  0.11005832950E+04  0.63429742297E+03 0.  0.
         13    1    3    3    0    0  0.15770606948E+03  0.18778877971E+03 -0.10074728026E+03  0.26511477631E+03  0.00000000000E+00 0.  1.
          3    1    3    3  501    0 -0.15770560230E+03 -0.18778651421E+03 -0.79866940210E+03  0.83546851872E+03  0.00000000000E+00 0.  1.
         21    1    1    2  502  501 -0.46718515942E-03 -0.22654983044E-02  0.11830706817E+00  0.11832967980E+00  0.00000000000E+00 0.  1.
<mgrwt>
<rscale>  1 0.63429742E+03</rscale>
<asrwt>0</asrwt>
<pdfrwt beam="1">  1        1 0.36618850E+00 0.63429742E+03</pdfrwt>
<pdfrwt beam="2">0</pdfrwt>
<totfact> 0.18927479E+00</totfact>
</mgrwt>
</event>
<event>
 6    1  0.2173548E-003  0.6691320E+03  0.7818608E-02  0.9771527E-01
          1   -1    0    0  502    0  0.00000000000E+00  0.00000000000E+00  0.11193445978E+03  0.11193445978E+03  0.00000000000E+00 0.  1.
         13   -1    0    0    0    0 -0.00000000000E+00 -0.00000000000E+00 -0.10000000000E+04  0.10000000000E+04  0.00000000000E+00 0.  1.
    9000005    2    1    2  501    0 -0.73152548055E-05 -0.16277346901E-04 -0.88806559661E+03  0.11119344006E+04  0.66913198058E+03 0.  0.
         13    1    3    3    0    0  0.10399470433E+03 -0.29275978670E+03 -0.23773917824E+03  0.39120724445E+03  0.00000000000E+00 0.  1.
          3    1    3    3  501    0 -0.10399471165E+03  0.29275977043E+03 -0.65032641837E+03  0.72072715618E+03  0.00000000000E+00 0.  1.
         21    1    1    2  502  501  0.73152548124E-05  0.16277346940E-04  0.56392778650E-04  0.59149052911E-04  0.00000000000E+00 0.  1.
<mgrwt>
<rscale>  1 0.66913198E+03</rscale>
<asrwt>0</asrwt>
<pdfrwt beam="1">  1        1 0.40703526E+00 0.66913198E+03</pdfrwt>
<pdfrwt beam="2">0</pdfrwt>
<totfact> 0.12399754E+00</totfact>
</mgrwt>
</event>
<event>
 6    1  0.2173548E-003  0.6599480E+03  0.7818608E-02  0.9788290E-01
          1   -1    0    0  502    0  0.00000000000E+00  0.00000000000E+00  0.10891975354E+03  0.10891975354E+03  0.00000000000E+00 0.  1.
         13   -1    0    0    0    0 -0.00000000000E+00 -0.00000000000E+00 -0.10000000000E+04  0.10000000000E+04  0.00000000000E+00 0.  1.
    9000005    2    1    2  501    0 -0.78539527689E-01  0.89430528333E-02 -0.89106224468E+03  0.11088386826E+04  0.65994794785E+03 0.  0.
         13    1    3    3    0    0  0.21644948127E+03  0.24896310642E+03 -0.45544710501E+03  0.56237449423E+03  0.00000000000E+00 0.  1.
          3    1    3    3  501    0 -0.21652802080E+03 -0.24895416337E+03 -0.43561513968E+03  0.54646418836E+03  0.00000000000E+00 0.  1.
         21    1    1    2  502  501  0.78539527689E-01 -0.89430528333E-02 -0.18001772748E-01  0.81070953033E-01  0.00000000000E+00 0.  1.
<mgrwt>
<rscale>  1 0.65994795E+03</rscale>
<asrwt>0</asrwt>
<pdfrwt beam="1">  1        1 0.39607267E+00 0.65994795E+03</pdfrwt>
<pdfrwt beam="2">0</pdfrwt>
<totfact> 0.13902439E+00</totfact>
</mgrwt>
</event>
<event>
 6    1  0.2173548E-003  0.6596184E+03  0.7818608E-02  0.9788896E-01
          1   -1    0    0  502    0  0.00000000000E+00  0.00000000000E+00  0.10877413033E+03  0.10877413033E+03  0.00000000000E+00 0.  1.
         13   -1    0    0    0    0 -0.00000000000E+00 -0.00000000000E+00 -0.10000000000E+04  0.10000000000E+04  0.00000000000E+00 0.  1.
    9000005    2    1    2  501    0 -0.71136501099E-05 -0.12374502134E-04 -0.89122587814E+03  0.11087741137E+04  0.65961842713E+03 0.  0.
         13    1    3    3    0    0  0.54558816943E+01 -0.93679536594E+02 -0.97708676350E+03  0.98158248030E+03  0.00000000000E+00 0.  1.
          3    1    3    3  501    0 -0.54558888080E+01  0.93679524219E+02  0.85860885358E+02  0.12719163343E+03  0.00000000000E+00 0.  1.
         21    1    1    2  502  501  0.71136501098E-05  0.12374502125E-04  0.84702730273E-05  0.16597525294E-04  0.00000000000E+00 0. -1.
<mgrwt>
<rscale>  1 0.65961843E+03</rscale>
<asrwt>0</asrwt>
<pdfrwt beam="1">  1        1 0.39554313E+00 0.65961843E+03</pdfrwt>
<pdfrwt beam="2">0</pdfrwt>
<totfact> 0.13978916E+00</totfact>
</mgrwt>
</event>
<event>
 6    1  0.2173548E-003  0.6546898E+03  0.7818608E-02  0.9798019E-01
          1   -1    0    0  502    0  0.00000000000E+00  0.00000000000E+00  0.10715521654E+03  0.10715521654E+03  0.00000000000E+00 0.  1.
         13   -1    0    0    0    0 -0.00000000000E+00 -0.00000000000E+00 -0.10000000000E+04  0.10000000000E+04  0.00000000000E+00 0.  1.
    9000005    2    1    2  501    0 -0.86628875740E-04 -0.61271967411E-04 -0.89284529648E+03  0.11071546927E+04  0.65468984261E+03 0.  0.
         13    1    3    3    0    0  0.51678339281E+01 -0.13192144815E+03 -0.95298020236E+03  0.96208172266E+03  0.00000000000E+00 0.  1.
          3    1    3    3  501    0 -0.51679205569E+01  0.13192138688E+03  0.60134905878E+02  0.14507296999E+03  0.00000000000E+00 0.  1.
         21    1    1    2  502  501  0.86628875739E-04  0.61271967406E-04  0.51302280162E-03  0.52388091308E-03  0.00000000000E+00 0. -1.
<mgrwt>
<rscale>  1 0.65468984E+03</rscale>
<asrwt>0</asrwt>
<pdfrwt beam="1">  1        1 0.38965615E+00 0.65468984E+03</pdfrwt>
<pdfrwt beam="2">0</pdfrwt>
<totfact> 0.14859883E+00</totfact>
</mgrwt>
</event>
<event>
 6    1  0.2173548E-003  0.6726843E+03  0.7818608E-02  0.9765121E-01
          1   -1    0    0  502    0  0.00000000000E+00  0.00000000000E+00  0.11312677964E+03  0.11312677964E+03  0.00000000000E+00 0.  1.
         13   -1    0    0    0    0 -0.00000000000E+00 -0.00000000000E+00 -0.10000000000E+04  0.10000000000E+04  0.00000000000E+00 0.  1.
    9000005    2    1    2  501    0 -0.31906510571E-04  0.34676640723E-04 -0.88687396346E+03  0.11131260351E+04  0.67268428171E+03 0.  0.
         13    1    3    3    0    0 -0.15972331725E+03  0.19516542373E+03 -0.81168904187E+03  0.84996481185E+03  0.00000000000E+00 0.  1.
          1    1    3    3  501    0  0.15972328534E+03 -0.19516538905E+03 -0.75184921586E+02  0.26316122320E+03  0.00000000000E+00 0.  1.
         21    1    1    2  502  501  0.31906510584E-04 -0.34676640721E-04  0.74309319779E-03  0.74458578783E-03  0.00000000000E+00 0. -1.
<mgrwt>
<rscale>  1 0.67268428E+03</rscale>
<asrwt>0</asrwt>
<pdfrwt beam="1">  1        1 0.41137098E+00 0.67268428E+03</pdfrwt>
<pdfrwt beam="2">0</pdfrwt>
<totfact> 0.11849008E+00</totfact>
</mgrwt>
</event>
<event>
 6    1  0.2173548E-003  0.6320435E+03  0.7818608E-02  0.9841069E-01
          1   -1    0    0  502    0  0.00000000000E+00  0.00000000000E+00  0.99869767911E+02  0.99869767911E+02  0.00000000000E+00 0.  1.
         13   -1    0    0    0    0 -0.00000000000E+00 -0.00000000000E+00 -0.10000000000E+04  0.10000000000E+04  0.00000000000E+00 0.  1.
    9000005    2    1    2  501    0 -0.65864941803E-05 -0.13643936541E-05 -0.90013024200E+03  0.10998697559E+04  0.63204353287E+03 0.  0.
         13    1    3    3    0    0  0.18060640535E+03  0.11737878769E+03 -0.47660672590E+02  0.22060823458E+03  0.00000000000E+00 0.  1.
          1    1    3    3  501    0 -0.18060641194E+03 -0.11737878905E+03 -0.85246956941E+03  0.87926152135E+03  0.00000000000E+00 0.  1.
         21    1    1    2  502  501  0.65864941844E-05  0.13643936497E-05  0.99142722545E-05  0.11980662336E-04  0.00000000000E+00 0.  1.
<mgrwt>
<rscale>  1 0.63204353E+03</rscale>
<asrwt>0</asrwt>
<pdfrwt beam="1">  1        1 0.36316356E+00 0.63204353E+03</pdfrwt>
<pdfrwt beam="2">0</pdfrwt>
<totfact> 0.19522022E+00</totfact>
</mgrwt>
</event>
<event>
 6    1  0.2173548E-003  0.6439545E+03  0.7818608E-02  0.9818190E-01
          1   -1    0    0  502    0  0.00000000000E+00  0.00000000000E+00  0.13585652161E+03  0.13585652161E+03  0.00000000000E+00 0.  1.
         13   -1    0    0    0    0 -0.00000000000E+00 -0.00000000000E+00 -0.10000000000E+04  0.10000000000E+04  0.00000000000E+00 0.  1.
    9000005    2    1    2  501    0 -0.44252198967E+00  0.11079648382E-01 -0.89632897633E+03  0.11036679798E+04  0.64395433054E+03 0.  0.
         13    1    3    3    0    0 -0.16440397636E+03 -0.27135749904E+03 -0.35326830548E+03  0.47482844838E+03  0.00000000000E+00 0.  1.
          3    1    3    3  501    0  0.16396145437E+03  0.27136857869E+03 -0.54306067084E+03  0.62883953139E+03  0.00000000000E+00 0.  1.
         21    1    1    2  502  501  0.44252198967E+00 -0.11079648382E-01  0.32185497936E+02  0.32188541842E+02  0.00000000000E+00 0.  1.
<mgrwt>
<rscale>  1 0.64395448E+03</rscale>
<asrwt>0</asrwt>
<pdfrwt beam="1">  1        1 0.49402476E+00 0.64395448E+03</pdfrwt>
<pdfrwt beam="2">0</pdfrwt>
<totfact> 0.49457442E-01</totfact>
</mgrwt>
</event>
<event>
 6    1  0.2173548E-003  0.6495051E+03  0.7818608E-02  0.9807708E-01
          1   -1    0    0  502    0  0.00000000000E+00  0.00000000000E+00  0.10588514379E+03  0.10588514379E+03  0.00000000000E+00 0.  1.
         13   -1    0    0    0    0 -0.00000000000E+00 -0.00000000000E+00 -0.10000000000E+04  0.10000000000E+04  0.00000000000E+00 0.  1.
    9000005    2    1    2  501    0  0.24719777675E-01 -0.29695575106E-01 -0.89453480745E+03  0.11054634188E+04  0.64950507863E+03 0.  0.
         13    1    3    3    0    0  0.31540706832E+03 -0.30513632501E+02 -0.56835856696E+03  0.65072587251E+03  0.00000000000E+00 0.  1.
          3    1    3    3  501    0 -0.31538234855E+03  0.30483936926E+02 -0.32617624049E+03  0.45473754633E+03  0.00000000000E+00 0.  1.
         21    1    1    2  502  501 -0.24719777675E-01  0.29695575106E-01  0.41995123652E+00  0.42172495260E+00  0.00000000000E+00 0.  1.
<mgrwt>
<rscale>  1 0.64950508E+03</rscale>
<asrwt>0</asrwt>
<pdfrwt beam="1">  1        1 0.38503770E+00 0.64950508E+03</pdfrwt>
<pdfrwt beam="2">0</pdfrwt>
<totfact> 0.15591404E+00</totfact>
</mgrwt>
</event>
<event>
 6    1  0.2173548E-003  0.6393172E+03  0.7818608E-02  0.9827034E-01
          1   -1    0    0  502    0  0.00000000000E+00  0.00000000000E+00  0.12801429043E+03  0.12801429043E+03  0.00000000000E+00 0.  1.
         13   -1    0    0    0    0 -0.00000000000E+00 -0.00000000000E+00 -0.10000000000E+04  0.10000000000E+04  0.00000000000E+00 0.  1.
    9000005    2    1    2  501    0 -0.58545866631E+02 -0.17531494967E+02 -0.84883830369E+03  0.10626631297E+04  0.63638941656E+03 0.  0.
         13    1    3    3    0    0 -0.53411331155E+01 -0.21563355437E+03 -0.29103716505E+02  0.21765427584E+03  0.00000000000E+00 0.  1.
          1    1    3    3  501    0 -0.53204733516E+02  0.19810205941E+03 -0.81973458719E+03  0.84500885382E+03  0.00000000000E+00 0.  1.
         21    1    1    2  502  501  0.58545866631E+02  0.17531494967E+02 -0.23147405877E+02  0.65351160772E+02  0.00000000000E+00 0.  1.
<mgrwt>
<rscale>  1 0.63931718E+03</rscale>
<asrwt>0</asrwt>
<pdfrwt beam="1">  1        1 0.46550749E+00 0.63931718E+03</pdfrwt>
<pdfrwt beam="2">0</pdfrwt>
<totfact> 0.67489931E-01</totfact>
</mgrwt>
</event>
<event>
 6    1  0.2173548E-003  0.6689269E+03  0.7818608E-02  0.9771898E-01
          1   -1    0    0  502    0  0.00000000000E+00  0.00000000000E+00  0.11387550134E+03  0.11387550134E+03  0.00000000000E+00 0.  1.
         13   -1    0    0    0    0 -0.00000000000E+00 -0.00000000000E+00 -0.10000000000E+04  0.10000000000E+04  0.00000000000E+00 0.  1.
    9000005    2    1    2  501    0  0.43095004779E+00 -0.60233289561E+00 -0.88805803095E+03  0.11118049773E+04  0.66892652258E+03 0.  0.
         13    1    3    3    0    0 -0.11199342078E+03 -0.26114557402E+03 -0.15049945123E+03  0.32154256631E+03  0.00000000000E+00 0.  1.
          3    1    3    3  501    0  0.11242437083E+03  0.26054324112E+03 -0.73755857972E+03  0.79026241096E+03  0.00000000000E+00 0.  1.
         21    1    1    2  502  501 -0.43095004779E+00  0.60233289561E+00  0.19335322901E+01  0.20705240828E+01  0.00000000000E+00 0. -1.
<mgrwt>
<rscale>  1 0.66892693E+03</rscale>
<asrwt>0</asrwt>
<pdfrwt beam="1">  1        1 0.41409361E+00 0.66892693E+03</pdfrwt>
<pdfrwt beam="2">0</pdfrwt>
<totfact> 0.11528115E+00</totfact>
</mgrwt>
</event>
<event>
 6    1  0.2173548E-003  0.6505532E+03  0.7818608E-02  0.9805742E-01
          1   -1    0    0  502    0  0.00000000000E+00  0.00000000000E+00  0.10801332363E+03  0.10801332363E+03  0.00000000000E+00 0.  1.
         13   -1    0    0    0    0 -0.00000000000E+00 -0.00000000000E+00 -0.10000000000E+04  0.10000000000E+04  0.00000000000E+00 0.  1.
    9000005    2    1    2  501    0 -0.57132418116E-01 -0.24088585737E-01 -0.89419466128E+03  0.11058044683E+04  0.65055316928E+03 0.  0.
         13    1    3    3    0    0  0.15149775578E+03 -0.54277192136E+02 -0.92755451090E+03  0.94141115050E+03  0.00000000000E+00 0.  1.
          1    1    3    3  501    0 -0.15155488820E+03  0.54253103550E+02  0.33359849615E+02  0.16439331783E+03  0.00000000000E+00 0.  1.
         21    1    1    2  502  501  0.57132418116E-01  0.24088585737E-01  0.22079849107E+01  0.22088553007E+01  0.00000000000E+00 0.  1.
<mgrwt>
<rscale>  1 0.65055317E+03</rscale>
<asrwt>0</asrwt>
<pdfrwt beam="1">  1        1 0.39277655E+00 0.65055317E+03</pdfrwt>
<pdfrwt beam="2">0</pdfrwt>
<totfact> 0.14404711E+00</totfact>
</mgrwt>
</event>
<event>
 6    1  0.2173548E-003  0.6480246E+03  0.7818608E-02  0.9810493E-01
          1   -1    0    0  502    0  0.00000000000E+00  0.00000000000E+00  0.10503923775E+03  0.10503923775E+03  0.00000000000E+00 0.  1.
         13   -1    0    0    0    0 -0.00000000000E+00 -0.00000000000E+00 -0.10000000000E+04  0.10000000000E+04  0.00000000000E+00 0.  1.
    9000005    2    1    2  501    0 -0.85367276019E-02  0.89752109183E-02 -0.89501524970E+03  0.11049833601E+04  0.64802463592E+03 0.  0.
         13    1    3    3    0    0 -0.66091565880E+02  0.11304471650E+03 -0.95287734496E+03  0.96183285322E+03  0.00000000000E+00 0.  1.
          1    1    3    3  501    0  0.66083029152E+02 -0.11303574129E+03  0.57862095260E+02  0.14315050688E+03  0.00000000000E+00 0.  1.
         21    1    1    2  502  501  0.85367276019E-02 -0.89752109183E-02  0.54487443679E-01  0.55877648911E-01  0.00000000000E+00 0.  1.
<mgrwt>
<rscale>  1 0.64802464E+03</rscale>
<asrwt>0</asrwt>
<pdfrwt beam="1">  1        1 0.38196167E+00 0.64802464E+03</pdfrwt>
<pdfrwt beam="2">0</pdfrwt>
<totfact> 0.16091603E+00</totfact>
</mgrwt>
</event>
<event>
 6    1  0.2173548E-003  0.6550412E+03  0.7818608E-02  0.9797366E-01
          1   -1    0    0  502    0  0.00000000000E+00  0.00000000000E+00  0.10727922978E+03  0.10727922978E+03  0.00000000000E+00 0.  1.
         13   -1    0    0    0    0 -0.00000000000E+00 -0.00000000000E+00 -0.10000000000E+04  0.10000000000E+04  0.00000000000E+00 0.  1.
    9000005    2    1    2  501    0 -0.12192809883E-03 -0.61274193229E-04 -0.89273027151E+03  0.11072697275E+04  0.65504115274E+03 0.  0.
         13    1    3    3    0    0 -0.60661126177E+02 -0.18794337648E+03 -0.88802824149E+03  0.90972338800E+03  0.00000000000E+00 0.  1.
          3    1    3    3  501    0  0.60661004249E+02  0.18794331521E+03 -0.47020300254E+01  0.19754633951E+03  0.00000000000E+00 0.  1.
         21    1    1    2  502  501  0.12192809882E-03  0.61274193227E-04  0.95012945178E-02  0.95022743858E-02  0.00000000000E+00 0. -1.
<mgrwt>
<rscale>  1 0.65504115E+03</rscale>
<asrwt>0</asrwt>
<pdfrwt beam="1">  1        1 0.39010711E+00 0.65504115E+03</pdfrwt>
<pdfrwt beam="2">0</pdfrwt>
<totfact> 0.14790652E+00</totfact>
</mgrwt>
</event>
<event>
 6    1  0.2173548E-003  0.6554050E+03  0.7818608E-02  0.9796690E-01
          1   -1    0    0  502    0  0.00000000000E+00  0.00000000000E+00  0.10793377518E+03  0.10793377518E+03  0.00000000000E+00 0.  1.
         13   -1    0    0    0    0 -0.00000000000E+00 -0.00000000000E+00 -0.10000000000E+04  0.10000000000E+04  0.00000000000E+00 0.  1.
    9000005    2    1    2  501    0 -0.75609407961E+00 -0.59732339591E+00 -0.88753637724E+03  0.11033025774E+04  0.65540432405E+03 0.  0.
         13    1    3    3    0    0 -0.17928212267E+03  0.25481213223E+03 -0.27288302223E+03  0.41416958612E+03  0.00000000000E+00 0.  1.
          1    1    3    3  501    0  0.17852602859E+03 -0.25540945562E+03 -0.61465335501E+03  0.68913299133E+03  0.00000000000E+00 0.  1.
         21    1    1    2  502  501  0.75609407961E+00  0.59732339591E+00 -0.45298475716E+01  0.46311977413E+01  0.00000000000E+00 0. -1.
<mgrwt>
<rscale>  1 0.65540503E+03</rscale>
<asrwt>0</asrwt>
<pdfrwt beam="1">  1        1 0.39248728E+00 0.65540503E+03</pdfrwt>
<pdfrwt beam="2">0</pdfrwt>
<totfact> 0.14434287E+00</totfact>
</mgrwt>
</event>
<event>
 6    1  0.2173548E-003  0.6404167E+03  0.7818608E-02  0.9824930E-01
          1   -1    0    0  502    0  0.00000000000E+00  0.00000000000E+00  0.11373663535E+03  0.11373663535E+03  0.00000000000E+00 0.  1.
         13   -1    0    0    0    0 -0.00000000000E+00 -0.00000000000E+00 -0.10000000000E+04  0.10000000000E+04  0.00000000000E+00 0.  1.
    9000005    2    1    2  501    0  0.11158417345E+02  0.51777514239E+01 -0.89361924643E+03  0.10994038623E+04  0.64029850492E+03 0.  0.
         13    1    3    3    0    0 -0.23665381661E+03  0.21070699132E+03 -0.48211259822E+03  0.57691855791E+03  0.00000000000E+00 0.  1.
          1    1    3    3  501    0  0.24781223395E+03 -0.20552923990E+03 -0.41150664821E+03  0.52248530436E+03  0.00000000000E+00 0.  1.
         21    1    1    2  502  501 -0.11158417345E+02 -0.51777514239E+01  0.73558817756E+01  0.14332773080E+02  0.00000000000E+00 0. -1.
<mgrwt>
<rscale>  1 0.64041666E+03</rscale>
<asrwt>0</asrwt>
<pdfrwt beam="1">  1        1 0.41358864E+00 0.64041666E+03</pdfrwt>
<pdfrwt beam="2">0</pdfrwt>
<totfact> 0.11652853E+00</totfact>
</mgrwt>
</event>
<event>
 6    1  0.2173548E-003  0.6395554E+03  0.7818608E-02  0.9826578E-01
          1   -1    0    0  502    0  0.00000000000E+00  0.00000000000E+00  0.10266561428E+03  0.10266561428E+03  0.00000000000E+00 0.  1.
         13   -1    0    0    0    0 -0.00000000000E+00 -0.00000000000E+00 -0.10000000000E+04  0.10000000000E+04  0.00000000000E+00 0.  1.
    9000005    2    1    2  501    0 -0.91267405787E+00  0.88896102472E+00 -0.89557621191E+03  0.11004943472E+04  0.63955408968E+03 0.  0.
         13    1    3    3    0    0  0.26254645254E+03 -0.11496754593E+03 -0.20511181410E+03  0.35244720547E+03  0.00000000000E+00 0.  1.
          1    1    3    3  501    0 -0.26345912660E+03  0.11585650695E+03 -0.69046439781E+03  0.74804714172E+03  0.00000000000E+00 0.  1.
         21    1    1    2  502  501  0.91267405787E+00 -0.88896102472E+00 -0.17581738122E+01  0.21712670939E+01  0.00000000000E+00 0.  1.
<mgrwt>
<rscale>  1 0.63955536E+03</rscale>
<asrwt>0</asrwt>
<pdfrwt beam="1">  1        1 0.37333029E+00 0.63955536E+03</pdfrwt>
<pdfrwt beam="2">0</pdfrwt>
<totfact> 0.17591984E+00</totfact>
</mgrwt>
</event>
<event>
 6    1  0.2173548E-003  0.6441006E+03  0.7818608E-02  0.9817912E-01
          1   -1    0    0  502    0  0.00000000000E+00  0.00000000000E+00  0.10377470310E+03  0.10377470310E+03  0.00000000000E+00 0.  1.
         13   -1    0    0    0    0 -0.00000000000E+00 -0.00000000000E+00 -0.10000000000E+04  0.10000000000E+04  0.00000000000E+00 0.  1.
    9000005    2    1    2  501    0  0.38890991113E-01 -0.26564768467E-01 -0.89627293607E+03  0.11037077129E+04  0.64410056464E+03 0.  0.
         13    1    3    3    0    0  0.10505032088E+03 -0.49550608002E+02  0.66580308908E+02  0.13387968555E+03  0.00000000000E+00 0.  1.
          3    1    3    3  501    0 -0.10501142989E+03  0.49524043233E+02 -0.96285324498E+03  0.96982802735E+03  0.00000000000E+00 0.  1.
         21    1    1    2  502  501 -0.38890991113E-01  0.26564768467E-01  0.47639170208E-01  0.66990198176E-01  0.00000000000E+00 0. -1.
<mgrwt>
<rscale>  1 0.64410057E+03</rscale>
<asrwt>0</asrwt>
<pdfrwt beam="1">  1        1 0.37736335E+00 0.64410057E+03</pdfrwt>
<pdfrwt beam="2">0</pdfrwt>
<totfact> 0.16873223E+00</totfact>
</mgrwt>
</event>
<event>
 6    1  0.2173548E-003  0.6473105E+03  0.7818608E-02  0.9811839E-01
          3   -1    0    0  502    0  0.00000000000E+00  0.00000000000E+00  0.10475291415E+03  0.10475291415E+03  0.00000000000E+00 0.  1.
         13   -1    0    0    0    0 -0.00000000000E+00 -0.00000000000E+00 -0.10000000000E+04  0.10000000000E+04  0.00000000000E+00 0.  1.
    9000005    2    1    2  501    0  0.66045308387E-04 -0.97807692555E-04 -0.89524727366E+03  0.11047526923E+04  0.64731045891E+03 0.  0.
         13    1    3    3    0    0  0.18208899458E+03  0.23066574893E+03 -0.67906374857E+03  0.73992612084E+03  0.00000000000E+00 0.  1.
          3    1    3    3  501    0 -0.18208892854E+03 -0.23066584674E+03 -0.21618352510E+03  0.36482657150E+03  0.00000000000E+00 0.  1.
         21    1    1    2  502  501 -0.66045308378E-04  0.97807692539E-04  0.18781361031E-03  0.22181586890E-03  0.00000000000E+00 0.  1.
<mgrwt>
<rscale>  1 0.64731046E+03</rscale>
<asrwt>0</asrwt>
<pdfrwt beam="1">  1        3 0.38092049E+00 0.64731046E+03</pdfrwt>
<pdfrwt beam="2">0</pdfrwt>
<totfact> 0.74672208E-02</totfact>
</mgrwt>
</event>
<event>
 6    1  0.3233305E-003  0.6518140E+03  0.7818608E-02  0.9803381E-01
          1   -1    0    0  502    0  0.00000000000E+00  0.00000000000E+00  0.10621539028E+03  0.10621539028E+03  0.00000000000E+00 0.  1.
         13   -1    0    0    0    0 -0.00000000000E+00 -0.00000000000E+00 -0.10000000000E+04  0.10000000000E+04  0.00000000000E+00 0.  1.
    9000005    2    1    2  501    0  0.16077911113E-04 -0.12943982483E-04 -0.89378459332E+03  0.11062153639E+04  0.65181403185E+03 0.  0.
         13    1    3    3    0    0  0.12897370979E+03 -0.16598415485E+03 -0.24205807214E+02  0.21159130082E+03  0.00000000000E+00 0.  1.
          1    1    3    3  501    0 -0.12897369371E+03  0.16598414190E+03 -0.86957878611E+03  0.89462406310E+03  0.00000000000E+00 0.  1.
         21    1    1    2  502  501 -0.16077911120E-04  0.12943982485E-04 -0.16398581072E-04  0.26362082045E-04  0.00000000000E+00 0.  1.
<mgrwt>
<rscale>  1 0.65181403E+03</rscale>
<asrwt>0</asrwt>
<pdfrwt beam="1">  1        1 0.38623860E+00 0.65181403E+03</pdfrwt>
<pdfrwt beam="2">0</pdfrwt>
<totfact> 0.15395236E+00</totfact>
</mgrwt>
</event>
<event>
 6    1  0.2173548E-003  0.6366954E+03  0.7818608E-02  0.9832070E-01
          1   -1    0    0  502    0  0.00000000000E+00  0.00000000000E+00  0.10134612156E+03  0.10134612156E+03  0.00000000000E+00 0.  1.
         13   -1    0    0    0    0 -0.00000000000E+00 -0.00000000000E+00 -0.10000000000E+04  0.10000000000E+04  0.00000000000E+00 0.  1.
    9000005    2    1    2  501    0  0.76691145917E-03 -0.14904333310E-03 -0.89865455850E+03  0.11013450858E+04  0.63669536079E+03 0.  0.
         13    1    3    3    0    0  0.17745493080E+02  0.15398532991E+03 -0.93031546873E+03  0.94314010396E+03  0.00000000000E+00 0.  1.
          3    1    3    3  501    0 -0.17744726168E+02 -0.15398547895E+03  0.31660910224E+02  0.15820498181E+03  0.00000000000E+00 0.  1.
         21    1    1    2  502  501 -0.76691145917E-03  0.14904333310E-03  0.68006373887E-03  0.10357865563E-02  0.00000000000E+00 0. -1.
<mgrwt>
<rscale>  1 0.63669536E+03</rscale>
<asrwt>0</asrwt>
<pdfrwt beam="1">  1        1 0.36853213E+00 0.63669536E+03</pdfrwt>
<pdfrwt beam="2">0</pdfrwt>
<totfact> 0.18476623E+00</totfact>
</mgrwt>
</event>
<event>
 6    1  0.2173548E-003  0.6264586E+03  0.7818608E-02  0.9851984E-01
          1   -1    0    0  502    0  0.00000000000E+00  0.00000000000E+00  0.98112649496E+02  0.98112649496E+02  0.00000000000E+00 0.  1.
         13   -1    0    0    0    0 -0.00000000000E+00 -0.00000000000E+00 -0.10000000000E+04  0.10000000000E+04  0.00000000000E+00 0.  1.
    9000005    2    1    2  501    0  0.75027102184E-05 -0.10290296728E-04 -0.90188741970E+03  0.10981125791E+04  0.62645855303E+03 0.  0.
         13    1    3    3    0    0  0.27047230250E+03 -0.14982529873E+03 -0.36312943871E+03  0.47693382750E+03  0.00000000000E+00 0.  1.
          1    1    3    3  501    0 -0.27047229499E+03  0.14982528844E+03 -0.53875798099E+03  0.62117875164E+03  0.00000000000E+00 0.  1.
         21    1    1    2  502  501 -0.75027102415E-05  0.10290296722E-04  0.69192848005E-04  0.70355035944E-04  0.00000000000E+00 0. -1.
<mgrwt>
<rscale>  1 0.62645855E+03</rscale>
<asrwt>0</asrwt>
<pdfrwt beam="1">  1        1 0.35677402E+00 0.62645855E+03</pdfrwt>
<pdfrwt beam="2">0</pdfrwt>
<totfact> 0.20840433E+00</totfact>
</mgrwt>
</event>
<event>
 6    1  0.2173548E-003  0.6508491E+03  0.7818608E-02  0.9805187E-01
          1   -1    0    0  502    0  0.00000000000E+00  0.00000000000E+00  0.10590195339E+03  0.10590195339E+03  0.00000000000E+00 0.  1.
         13   -1    0    0    0    0 -0.00000000000E+00 -0.00000000000E+00 -0.10000000000E+04  0.10000000000E+04  0.00000000000E+00 0.  1.
    9000005    2    1    2  501    0 -0.20620377010E-02  0.41993277500E-03 -0.89409691454E+03  0.11058995638E+04  0.65084910133E+03 0.  0.
         13    1    3    3    0    0 -0.21433822743E+03 -0.15813836048E+03 -0.12937869223E+03  0.29612068958E+03  0.00000000000E+00 0.  1.
          1    1    3    3  501    0  0.21433616539E+03  0.15813878041E+03 -0.76471822232E+03  0.80977887427E+03  0.00000000000E+00 0.  1.
         21    1    1    2  502  501  0.20620377010E-02 -0.41993277500E-03 -0.11320719139E-02  0.23895459472E-02  0.00000000000E+00 0.  1.
<mgrwt>
<rscale>  1 0.65084910E+03</rscale>
<asrwt>0</asrwt>
<pdfrwt beam="1">  1        1 0.38509882E+00 0.65084910E+03</pdfrwt>
<pdfrwt beam="2">0</pdfrwt>
<totfact> 0.15577832E+00</totfact>
</mgrwt>
</event>
<event>
 6    1  0.2173548E-003  0.6454420E+03  0.7818608E-02  0.9815370E-01
          1   -1    0    0  502    0  0.00000000000E+00  0.00000000000E+00  0.10414894627E+03  0.10414894627E+03  0.00000000000E+00 0.  1.
         13   -1    0    0    0    0 -0.00000000000E+00 -0.00000000000E+00 -0.10000000000E+04  0.10000000000E+04  0.00000000000E+00 0.  1.
    9000005    2    1    2  501    0  0.88861271024E-04 -0.10471410235E-04 -0.89585113555E+03  0.11041488250E+04  0.64544199642E+03 0.  0.
         13    1    3    3    0    0 -0.22175454577E+03  0.22704352554E+03 -0.54804057427E+03  0.63330270180E+03  0.00000000000E+00 0.  1.
          3    1    3    3  501    0  0.22175463463E+03 -0.22704353601E+03 -0.34781056128E+03  0.47084612323E+03  0.00000000000E+00 0.  1.
         21    1    1    2  502  501 -0.88861271037E-04  0.10471410233E-04  0.81817728589E-04  0.12124403752E-03  0.00000000000E+00 0.  1.
<mgrwt>
<rscale>  1 0.64544200E+03</rscale>
<asrwt>0</asrwt>
<pdfrwt beam="1">  1        1 0.37872424E+00 0.64544200E+03</pdfrwt>
<pdfrwt beam="2">0</pdfrwt>
<totfact> 0.16637661E+00</totfact>
</mgrwt>
</event>
<event>
 6    1  0.2173548E-003  0.6574272E+03  0.7818608E-02  0.9792941E-01
          1   -1    0    0  502    0  0.00000000000E+00  0.00000000000E+00  0.11129788171E+03  0.11129788171E+03  0.00000000000E+00 0.  1.
         13   -1    0    0    0    0 -0.00000000000E+00 -0.00000000000E+00 -0.10000000000E+04  0.10000000000E+04  0.00000000000E+00 0.  1.
    9000005    2    1    2  501    0 -0.40949551472E+01  0.47177831895E+01 -0.88818929667E+03  0.11050297782E+04  0.65739756449E+03 0.  0.
         13    1    3    3    0    0 -0.32160896205E+03  0.36258422180E+02 -0.56331134182E+03  0.64966658023E+03  0.00000000000E+00 0.  1.
          3    1    3    3  501    0  0.31751400691E+03 -0.31540638990E+02 -0.32487795486E+03  0.45536319794E+03  0.00000000000E+00 0.  1.
         21    1    1    2  502  501  0.40949551472E+01 -0.47177831895E+01 -0.51282162066E+00  0.62681035326E+01  0.00000000000E+00 0. -1.
<mgrwt>
<rscale>  1 0.65742725E+03</rscale>
<asrwt>0</asrwt>
<pdfrwt beam="1">  1        1 0.40472042E+00 0.65742725E+03</pdfrwt>
<pdfrwt beam="2">0</pdfrwt>
<totfact> 0.12727142E+00</totfact>
</mgrwt>
</event>
<event>
 6    1  0.2173548E-003  0.6455366E+03  0.7818608E-02  0.9815191E-01
          1   -1    0    0  502    0  0.00000000000E+00  0.00000000000E+00  0.10639749423E+03  0.10639749423E+03  0.00000000000E+00 0.  1.
         13   -1    0    0    0    0 -0.00000000000E+00 -0.00000000000E+00 -0.10000000000E+04  0.10000000000E+04  0.00000000000E+00 0.  1.
    9000005    2    1    2  501    0 -0.29196588535E+00 -0.35750885408E-01 -0.89580984259E+03  0.11041706449E+04  0.64553656163E+03 0.  0.
         13    1    3    3    0    0 -0.21346406380E+03 -0.37264048312E+01 -0.33762784902E+02  0.21614975890E+03  0.00000000000E+00 0.  1.
          1    1    3    3  501    0  0.21317209792E+03  0.36906539458E+01 -0.86204705769E+03  0.88802088598E+03  0.00000000000E+00 0.  1.
         21    1    1    2  502  501  0.29196588535E+00  0.35750885408E-01  0.22073368192E+01  0.22268493522E+01  0.00000000000E+00 0.  1.
<mgrwt>
<rscale>  1 0.64553663E+03</rscale>
<asrwt>0</asrwt>
<pdfrwt beam="1">  1        1 0.38690079E+00 0.64553663E+03</pdfrwt>
<pdfrwt beam="2">0</pdfrwt>
<totfact> 0.15309516E+00</totfact>
</mgrwt>
</event>
<event>
 6    1  0.2173548E-003  0.6406387E+03  0.7818608E-02  0.9824505E-01
          1   -1    0    0  502    0  0.00000000000E+00  0.00000000000E+00  0.10260462014E+03  0.10260462014E+03  0.00000000000E+00 0.  1.
         13   -1    0    0    0    0 -0.00000000000E+00 -0.00000000000E+00 -0.10000000000E+04  0.10000000000E+04  0.00000000000E+00 0.  1.
    9000005    2    1    2  501    0 -0.12239619335E-03 -0.63171349382E-04 -0.89739546244E+03  0.11026044595E+04  0.64063872673E+03 0.  0.
         13    1    3    3    0    0  0.10230870086E+03 -0.27992609494E+03 -0.24666934229E+03  0.38687395018E+03  0.00000000000E+00 0.  1.
          3    1    3    3  501    0 -0.10230882326E+03  0.27992603177E+03 -0.65072612015E+03  0.71573050936E+03  0.00000000000E+00 0.  1.
         21    1    1    2  502  501  0.12239619335E-03  0.63171349420E-04  0.82579454455E-04  0.16059518621E-03  0.00000000000E+00 0. -1.
<mgrwt>
<rscale>  1 0.64063873E+03</rscale>
<asrwt>0</asrwt>
<pdfrwt beam="1">  1        1 0.37310850E+00 0.64063873E+03</pdfrwt>
<pdfrwt beam="2">0</pdfrwt>
<totfact> 0.17628051E+00</totfact>
</mgrwt>
</event>
<event>
 6    1  0.2173548E-003  0.6411627E+03  0.7818608E-02  0.9823505E-01
          1   -1    0    0  502    0  0.00000000000E+00  0.00000000000E+00  0.10324080757E+03  0.10324080757E+03  0.00000000000E+00 0.  1.
         13   -1    0    0    0    0 -0.00000000000E+00 -0.00000000000E+00 -0.10000000000E+04  0.10000000000E+04  0.00000000000E+00 0.  1.
    9000005    2    1    2  501    0  0.42854902003E-01  0.80520228156E-01 -0.89722270743E+03  0.11027684029E+04  0.64116265900E+03 0.  0.
         13    1    3    3    0    0 -0.26867805677E+03 -0.12456557156E+03 -0.23758889950E+03  0.37967481477E+03  0.00000000000E+00 0.  1.
          3    1    3    3  501    0  0.26872091167E+03  0.12464609179E+03 -0.65963380793E+03  0.72309358809E+03  0.00000000000E+00 0.  1.
         21    1    1    2  502  501 -0.42854902003E-01 -0.80520228156E-01  0.46351500034E+00  0.47240470500E+00  0.00000000000E+00 0.  1.
<mgrwt>
<rscale>  1 0.64116267E+03</rscale>
<asrwt>0</asrwt>
<pdfrwt beam="1">  1        1 0.37542191E+00 0.64116267E+03</pdfrwt>
<pdfrwt beam="2">0</pdfrwt>
<totfact> 0.17218016E+00</totfact>
</mgrwt>
</event>
<event>
 6    1  0.2173548E-003  0.6494497E+03  0.7818608E-02  0.9807812E-01
          1   -1    0    0  502    0  0.00000000000E+00  0.00000000000E+00  0.10544626152E+03  0.10544626152E+03  0.00000000000E+00 0.  1.
         13   -1    0    0    0    0 -0.00000000000E+00 -0.00000000000E+00 -0.10000000000E+04  0.10000000000E+04  0.00000000000E+00 0.  1.
    9000005    2    1    2  501    0  0.72823378403E-05  0.77814734141E-05 -0.89455378350E+03  0.11054462153E+04  0.64944966183E+03 0.  0.
         13    1    3    3    0    0  0.32970166773E+02 -0.21902702887E+03 -0.43092917244E+02  0.22564766958E+03  0.00000000000E+00 0.  1.
          1    1    3    3  501    0 -0.32970159491E+02  0.21902703665E+03 -0.85146086626E+03  0.87979854567E+03  0.00000000000E+00 0.  1.
         21    1    1    2  502  501 -0.72823378412E-05 -0.77814734032E-05  0.45016918203E-04  0.46261287242E-04  0.00000000000E+00 0. -1.
<mgrwt>
<rscale>  1 0.64944966E+03</rscale>
<asrwt>0</asrwt>
<pdfrwt beam="1">  1        1 0.38344176E+00 0.64944966E+03</pdfrwt>
<pdfrwt beam="2">0</pdfrwt>
<totfact> 0.15846964E+00</totfact>
</mgrwt>
</event>
<event>
 6    1  0.2173548E-003  0.6450487E+03  0.7818608E-02  0.9816115E-01
          1   -1    0    0  502    0  0.00000000000E+00  0.00000000000E+00  0.10402286315E+03  0.10402286315E+03  0.00000000000E+00 0.  1.
         13   -1    0    0    0    0 -0.00000000000E+00 -0.00000000000E+00 -0.10000000000E+04  0.10000000000E+04  0.00000000000E+00 0.  1.
    9000005    2    1    2  501    0  0.10648687390E-03 -0.71244289571E-03 -0.89597787630E+03  0.11040218308E+04  0.64504871763E+03 0.  0.
         13    1    3    3    0    0  0.20461847020E+03 -0.10508269065E+02 -0.87430439219E+03  0.89799070835E+03  0.00000000000E+00 0.  1.
          1    1    3    3  501    0 -0.20461836372E+03  0.10507556622E+02 -0.21673484105E+02  0.20603112248E+03  0.00000000000E+00 0.  1.
         21    1    1    2  502  501 -0.10648687392E-03  0.71244289572E-03  0.73944864200E-03  0.10323268030E-02  0.00000000000E+00 0.  1.
<mgrwt>
<rscale>  1 0.64504872E+03</rscale>
<asrwt>0</asrwt>
<pdfrwt beam="1">  1        1 0.37826575E+00 0.64504872E+03</pdfrwt>
<pdfrwt beam="2">0</pdfrwt>
<totfact> 0.16716490E+00</totfact>
</mgrwt>
</event>
<event>
 6    1  0.2173548E-003  0.6407900E+03  0.7818608E-02  0.9824216E-01
          1   -1    0    0  502    0  0.00000000000E+00  0.00000000000E+00  0.10265298957E+03  0.10265298957E+03  0.00000000000E+00 0.  1.
         13   -1    0    0    0    0 -0.00000000000E+00 -0.00000000000E+00 -0.10000000000E+04  0.10000000000E+04  0.00000000000E+00 0.  1.
    9000005    2    1    2  501    0 -0.26277292633E-04 -0.41792389993E-05 -0.89734702770E+03  0.11026529579E+04  0.64079002594E+03 0.  0.
         13    1    3    3    0    0 -0.76723272329E+02  0.29077890211E+03 -0.63884896724E+03  0.70609265212E+03  0.00000000000E+00 0.  1.
          3    1    3    3  501    0  0.76723246052E+02 -0.29077890629E+03 -0.25849806045E+03  0.39656030573E+03  0.00000000000E+00 0.  1.
         21    1    1    2  502  501  0.26277292625E-04  0.41792390205E-05  0.17272088087E-04  0.31722029781E-04  0.00000000000E+00 0.  1.
<mgrwt>
<rscale>  1 0.64079003E+03</rscale>
<asrwt>0</asrwt>
<pdfrwt beam="1">  1        1 0.37328439E+00 0.64079003E+03</pdfrwt>
<pdfrwt beam="2">0</pdfrwt>
<totfact> 0.17596193E+00</totfact>
</mgrwt>
</event>
<event>
 6    1  0.2173548E-003  0.6642956E+03  0.7818608E-02  0.9780318E-01
          1   -1    0    0  502    0  0.00000000000E+00  0.00000000000E+00  0.11690545411E+03  0.11690545411E+03  0.00000000000E+00 0.  1.
         13   -1    0    0    0    0 -0.00000000000E+00 -0.00000000000E+00 -0.10000000000E+04  0.10000000000E+04  0.00000000000E+00 0.  1.
    9000005    2    1    2  501    0 -0.49281773984E+01 -0.19691508207E+01 -0.88846804253E+03  0.11093530404E+04  0.66427444709E+03 0.  0.
         13    1    3    3    0    0  0.25935065578E+03  0.16642581701E+03 -0.63677866888E+03  0.70742306180E+03  0.00000000000E+00 0.  1.
          3    1    3    3  501    0 -0.26427883318E+03 -0.16839496783E+03 -0.25168937365E+03  0.40192997856E+03  0.00000000000E+00 0.  1.
         21    1    1    2  502  501  0.49281773984E+01  0.19691508207E+01  0.53734966401E+01  0.75524137576E+01  0.00000000000E+00 0.  1.
<mgrwt>
<rscale>  1 0.66429565E+03</rscale>
<asrwt>0</asrwt>
<pdfrwt beam="1">  1        1 0.42511164E+00 0.66429565E+03</pdfrwt>
<pdfrwt beam="2">0</pdfrwt>
<totfact> 0.10290540E+00</totfact>
</mgrwt>
</event>
<event>
 6    1  0.2173548E-003  0.6561118E+03  0.7818608E-02  0.9795378E-01
          1   -1    0    0  502    0  0.00000000000E+00  0.00000000000E+00  0.10805922625E+03  0.10805922625E+03  0.00000000000E+00 0.  1.
         13   -1    0    0    0    0 -0.00000000000E+00 -0.00000000000E+00 -0.10000000000E+04  0.10000000000E+04  0.00000000000E+00 0.  1.
    9000005    2    1    2  501    0  0.59230916243E-01 -0.75396245519E-01 -0.89237350849E+03  0.11076159969E+04  0.65611181117E+03 0.  0.
         13    1    3    3    0    0 -0.27563031409E+03  0.17709775389E+03 -0.41915101039E+03  0.53199929886E+03  0.00000000000E+00 0.  1.
          3    1    3    3  501    0  0.27568954501E+03 -0.17717315014E+03 -0.47322249810E+03  0.57561669804E+03  0.00000000000E+00 0.  1.
         21    1    1    2  502  501 -0.59230916243E-01  0.75396245519E-01  0.43273474113E+00  0.44322934408E+00  0.00000000000E+00 0.  1.
<mgrwt>
<rscale>  1 0.65611182E+03</rscale>
<asrwt>0</asrwt>
<pdfrwt beam="1">  1        1 0.39294347E+00 0.65611182E+03</pdfrwt>
<pdfrwt beam="2">0</pdfrwt>
<totfact> 0.14365219E+00</totfact>
</mgrwt>
</event>
<event>
 6    1  0.2173548E-003  0.6442049E+03  0.7818608E-02  0.9817714E-01
          1   -1    0    0  502    0  0.00000000000E+00  0.00000000000E+00  0.10574692064E+03  0.10574692064E+03  0.00000000000E+00 0.  1.
         13   -1    0    0    0    0 -0.00000000000E+00 -0.00000000000E+00 -0.10000000000E+04  0.10000000000E+04  0.00000000000E+00 0.  1.
    9000005    2    1    2  501    0  0.19372326050E-01  0.50234779750E-01 -0.89624959739E+03  0.11037496768E+04  0.64420494043E+03 0.  0.
         13    1    3    3    0    0  0.11098876545E+03  0.29547603250E+03 -0.33788760448E+03  0.46237714595E+03  0.00000000000E+00 0.  1.
          1    1    3    3  501    0 -0.11096939312E+03 -0.29542579772E+03 -0.55836199291E+03  0.64137253083E+03  0.00000000000E+00 0.  1.
         21    1    1    2  502  501 -0.19372326050E-01 -0.50234779750E-01  0.19965180251E+01  0.19972438621E+01  0.00000000000E+00 0. -1.
<mgrwt>
<rscale>  1 0.64420494E+03</rscale>
<asrwt>0</asrwt>
<pdfrwt beam="1">  1        1 0.38453507E+00 0.64420494E+03</pdfrwt>
<pdfrwt beam="2">0</pdfrwt>
<totfact> 0.15686818E+00</totfact>
</mgrwt>
</event>
<event>
 6    1  0.2173548E-003  0.6492878E+03  0.7818608E-02  0.9808117E-01
          1   -1    0    0  502    0  0.00000000000E+00  0.00000000000E+00  0.10540298456E+03  0.10540298456E+03  0.00000000000E+00 0.  1.
         13   -1    0    0    0    0 -0.00000000000E+00 -0.00000000000E+00 -0.10000000000E+04  0.10000000000E+04  0.00000000000E+00 0.  1.
    9000005    2    1    2  501    0  0.10073757887E-01 -0.92142275100E-02 -0.89460046683E+03  0.11053889028E+04  0.64928778758E+03 0.  0.
         13    1    3    3    0    0 -0.12844593077E+03 -0.17692193007E+03 -0.85587190728E+03  0.88335522195E+03  0.00000000000E+00 0.  1.
          3    1    3    3  501    0  0.12845600453E+03  0.17691271584E+03 -0.38728559547E+02  0.22203368090E+03  0.00000000000E+00 0.  1.
         21    1    1    2  502  501 -0.10073757887E-01  0.92142275100E-02  0.34513876919E-02  0.14081713801E-01  0.00000000000E+00 0. -1.
<mgrwt>
<rscale>  1 0.64928779E+03</rscale>
<asrwt>0</asrwt>
<pdfrwt beam="1">  1        1 0.38328439E+00 0.64928779E+03</pdfrwt>
<pdfrwt beam="2">0</pdfrwt>
<totfact> 0.15872837E+00</totfact>
</mgrwt>
</event>
<event>
 6    1  0.2173548E-003  0.6528738E+03  0.7818608E-02  0.9801402E-01
          1   -1    0    0  502    0  0.00000000000E+00  0.00000000000E+00  0.10656120071E+03  0.10656120071E+03  0.00000000000E+00 0.  1.
         13   -1    0    0    0    0 -0.00000000000E+00 -0.00000000000E+00 -0.10000000000E+04  0.10000000000E+04  0.00000000000E+00 0.  1.
    9000005    2    1    2  501    0 -0.12897468909E-03 -0.60556392555E-04 -0.89343892470E+03  0.11065610109E+04  0.65287376932E+03 0.  0.
         13    1    3    3    0    0 -0.10164593083E+03  0.30824680000E+03 -0.50575115766E+03  0.60094277468E+03  0.00000000000E+00 0.  1.
          3    1    3    3  501    0  0.10164580186E+03 -0.30824686056E+03 -0.38768776704E+03  0.50561823622E+03  0.00000000000E+00 0.  1.
         21    1    1    2  502  501  0.12897468909E-03  0.60556392547E-04  0.12540862911E-03  0.18981272708E-03  0.00000000000E+00 0. -1.
<mgrwt>
<rscale>  1 0.65287377E+03</rscale>
<asrwt>0</asrwt>
<pdfrwt beam="1">  1        1 0.38749609E+00 0.65287377E+03</pdfrwt>
<pdfrwt beam="2">0</pdfrwt>
<totfact> 0.15196154E+00</totfact>
</mgrwt>
</event>
<event>
 6    1  0.2173548E-003  0.6422617E+03  0.7818608E-02  0.9821409E-01
          1   -1    0    0  502    0  0.00000000000E+00  0.00000000000E+00  0.10334628557E+03  0.10334628557E+03  0.00000000000E+00 0.  1.
         13   -1    0    0    0    0 -0.00000000000E+00 -0.00000000000E+00 -0.10000000000E+04  0.10000000000E+04  0.00000000000E+00 0.  1.
    9000005    2    1    2  501    0 -0.35695566479E+00  0.33722796597E+00 -0.89652163771E+03  0.11028377737E+04  0.64226152547E+03 0.  0.
         13    1    3    3    0    0 -0.10876961447E+03  0.42505842885E+02  0.65441949725E+02  0.13386644275E+03  0.00000000000E+00 0.  1.
          1    1    3    3  501    0  0.10841265881E+03 -0.42168614919E+02 -0.96196358743E+03  0.96897133096E+03  0.00000000000E+00 0.  1.
         21    1    1    2  502  501  0.35695566479E+00 -0.33722796597E+00 -0.13207672730E+00  0.50851185783E+00  0.00000000000E+00 0. -1.
<mgrwt>
<rscale>  1 0.64226171E+03</rscale>
<asrwt>0</asrwt>
<pdfrwt beam="1">  1        1 0.37580547E+00 0.64226171E+03</pdfrwt>
<pdfrwt beam="2">0</pdfrwt>
<totfact> 0.17147739E+00</totfact>
</mgrwt>
</event>
<event>
 6    1  0.2173548E-003  0.6337782E+03  0.7818608E-02  0.9837704E-01
          1   -1    0    0  502    0  0.00000000000E+00  0.00000000000E+00  0.10132819437E+03  0.10132819437E+03  0.00000000000E+00 0.  1.
         13   -1    0    0    0    0 -0.00000000000E+00 -0.00000000000E+00 -0.10000000000E+04  0.10000000000E+04  0.00000000000E+00 0.  1.
    9000005    2    1    2  501    0  0.16229336458E+00  0.22947583918E+00 -0.89955735976E+03  0.11003991064E+04  0.63377809280E+03 0.  0.
         13    1    3    3    0    0  0.14577211418E+03  0.11707335589E+03 -0.54873328575E+01  0.18704488968E+03  0.00000000000E+00 0.  1.
          1    1    3    3  501    0 -0.14560982082E+03 -0.11684388005E+03 -0.89407002691E+03  0.91335421674E+03  0.00000000000E+00 0.  1.
         21    1    1    2  502  501 -0.16229336458E+00 -0.22947583918E+00  0.88555413713E+00  0.92908795425E+00  0.00000000000E+00 0. -1.
<mgrwt>
<rscale>  1 0.63377816E+03</rscale>
<asrwt>0</asrwt>
<pdfrwt beam="1">  1        1 0.36846694E+00 0.63377816E+03</pdfrwt>
<pdfrwt beam="2">0</pdfrwt>
<totfact> 0.18498629E+00</totfact>
</mgrwt>
</event>
<event>
 6    1  0.2173548E-003  0.6251488E+03  0.7818608E-02  0.9854562E-01
          1   -1    0    0  502    0  0.00000000000E+00  0.00000000000E+00  0.97714670894E+02  0.97714670894E+02  0.00000000000E+00 0.  1.
         13   -1    0    0    0    0 -0.00000000000E+00 -0.00000000000E+00 -0.10000000000E+04  0.10000000000E+04  0.00000000000E+00 0.  1.
    9000005    2    1    2  501    0  0.46823321995E-02  0.17810666355E-02 -0.90229666828E+03  0.10977022744E+04  0.62514878675E+03 0.  0.
         13    1    3    3    0    0  0.80044751551E+02 -0.30192964169E+03 -0.43082812779E+03  0.53214804940E+03  0.00000000000E+00 0.  1.
          3    1    3    3  501    0 -0.80040069219E+02  0.30193142276E+03 -0.47146854049E+03  0.56555422499E+03  0.00000000000E+00 0.  1.
         21    1    1    2  502  501 -0.46823321995E-02 -0.17810666355E-02  0.11339176064E-01  0.12396505435E-01  0.00000000000E+00 0. -1.
<mgrwt>
<rscale>  1 0.62514879E+03</rscale>
<asrwt>0</asrwt>
<pdfrwt beam="1">  1        1 0.35532683E+00 0.62514879E+03</pdfrwt>
<pdfrwt beam="2">0</pdfrwt>
<totfact> 0.21150898E+00</totfact>
</mgrwt>
</event>
<event>
 6    1  0.2173548E-003  0.6704984E+03  0.7818608E-02  0.9769058E-01
          1   -1    0    0  502    0  0.00000000000E+00  0.00000000000E+00  0.11239328178E+03  0.11239328178E+03  0.00000000000E+00 0.  1.
         13   -1    0    0    0    0 -0.00000000000E+00 -0.00000000000E+00 -0.10000000000E+04  0.10000000000E+04  0.00000000000E+00 0.  1.
    9000005    2    1    2  501    0  0.64969345152E-03  0.18945629284E-03 -0.88760788477E+03  0.11123919331E+04  0.67049836375E+03 0.  0.
         13    1    3    3    0    0  0.22931043062E+03 -0.21271939840E+03 -0.24361965400E+03  0.39646355679E+03  0.00000000000E+00 0.  1.
          3    1    3    3  501    0 -0.22930978092E+03  0.21271958786E+03 -0.64398823077E+03  0.71592837635E+03  0.00000000000E+00 0.  1.
         21    1    1    2  502  501 -0.64969345153E-03 -0.18945629285E-03  0.11665544753E-02  0.13486454730E-02  0.00000000000E+00 0.  1.
<mgrwt>
<rscale>  1 0.67049836E+03</rscale>
<asrwt>0</asrwt>
<pdfrwt beam="1">  1        1 0.40870370E+00 0.67049836E+03</pdfrwt>
<pdfrwt beam="2">0</pdfrwt>
<totfact> 0.12185028E+00</totfact>
</mgrwt>
</event>
<event>
 6    1  0.2173548E-003  0.6440023E+03  0.7818608E-02  0.9818099E-01
          1   -1    0    0  502    0  0.00000000000E+00  0.00000000000E+00  0.10368474315E+03  0.10368474315E+03  0.00000000000E+00 0.  1.
         13   -1    0    0    0    0 -0.00000000000E+00 -0.00000000000E+00 -0.10000000000E+04  0.10000000000E+04  0.00000000000E+00 0.  1.
    9000005    2    1    2  501    0 -0.19849516036E-04 -0.51392486284E-05 -0.89631526200E+03  0.11036847220E+04  0.64400226452E+03 0.  0.
         13    1    3    3    0    0  0.86664993260E+02  0.28935768055E+03 -0.63935115379E+03  0.70711285252E+03  0.00000000000E+00 0.  1.
          1    1    3    3  501    0 -0.86665013109E+02 -0.28935768569E+03 -0.25696410821E+03  0.39657186949E+03  0.00000000000E+00 0.  1.
         21    1    1    2  502  501  0.19849516033E-04  0.51392486299E-05  0.51540824759E-05  0.21141895123E-04  0.00000000000E+00 0.  1.
<mgrwt>
<rscale>  1 0.64400226E+03</rscale>
<asrwt>0</asrwt>
<pdfrwt beam="1">  1        1 0.37703622E+00 0.64400226E+03</pdfrwt>
<pdfrwt beam="2">0</pdfrwt>
<totfact> 0.16929624E+00</totfact>
</mgrwt>
</event>
<event>
 6    1  0.2173548E-003  0.6512835E+03  0.7818608E-02  0.9804374E-01
          1   -1    0    0  502    0  0.00000000000E+00  0.00000000000E+00  0.10613043531E+03  0.10613043531E+03  0.00000000000E+00 0.  1.
         13   -1    0    0    0    0 -0.00000000000E+00 -0.00000000000E+00 -0.10000000000E+04  0.10000000000E+04  0.00000000000E+00 0.  1.
    9000005    2    1    2  501    0  0.31089121811E-01 -0.26895407556E-01 -0.89395209352E+03  0.11060382350E+04  0.65128352506E+03 0.  0.
         13    1    3    3    0    0  0.73786838437E+02 -0.19574010057E+03 -0.23140008752E+02  0.21046174119E+03  0.00000000000E+00 0.  1.
          3    1    3    3  501    0 -0.73755749315E+02  0.19571320517E+03 -0.87081208476E+03  0.89557649378E+03  0.00000000000E+00 0.  1.
         21    1    1    2  502  501 -0.31089121811E-01  0.26895407556E-01  0.82528826015E-01  0.92200344717E-01  0.00000000000E+00 0. -1.
<mgrwt>
<rscale>  1 0.65128353E+03</rscale>
<asrwt>0</asrwt>
<pdfrwt beam="1">  1        1 0.38592967E+00 0.65128353E+03</pdfrwt>
<pdfrwt beam="2">0</pdfrwt>
<totfact> 0.15445293E+00</totfact>
</mgrwt>
</event>
<event>
 6    1  0.2891634E-003  0.6494014E+03  0.7818608E-02  0.9807903E-01
          1   -1    0    0  502    0  0.00000000000E+00  0.00000000000E+00  0.10543055106E+03  0.10543055106E+03  0.00000000000E+00 0.  1.
         13   -1    0    0    0    0 -0.00000000000E+00 -0.00000000000E+00 -0.10000000000E+04  0.10000000000E+04  0.00000000000E+00 0.  1.
    9000005    2    1    2  501    0 -0.53701948559E-05  0.45279437586E-05 -0.89456944542E+03  0.11054305432E+04  0.64940141144E+03 0.  0.
         13    1    3    3    0    0 -0.13843582042E+03  0.25395159272E+03 -0.19609958470E+03  0.34944375075E+03  0.00000000000E+00 0.  1.
          3    1    3    3  501    0  0.13843581505E+03 -0.25395158819E+03 -0.69846986073E+03  0.75598679246E+03  0.00000000000E+00 0.  1.
         21    1    1    2  502  501  0.53701948461E-05 -0.45279437737E-05 -0.35150719700E-05  0.78547436914E-05  0.00000000000E+00 0. -1.
<mgrwt>
<rscale>  1 0.64940141E+03</rscale>
<asrwt>0</asrwt>
<pdfrwt beam="1">  1        1 0.38338463E+00 0.64940141E+03</pdfrwt>
<pdfrwt beam="2">0</pdfrwt>
<totfact> 0.15856321E+00</totfact>
</mgrwt>
</event>
<event>
 6    1  0.2173548E-003  0.6523473E+03  0.7818608E-02  0.9802385E-01
          1   -1    0    0  502    0  0.00000000000E+00  0.00000000000E+00  0.10641694053E+03  0.10641694053E+03  0.00000000000E+00 0.  1.
         13   -1    0    0    0    0 -0.00000000000E+00 -0.00000000000E+00 -0.10000000000E+04  0.10000000000E+04  0.00000000000E+00 0.  1.
    9000005    2    1    2  501    0  0.17303418073E-02 -0.21459140685E-02 -0.89361067955E+03  0.11063891832E+04  0.65234728341E+03 0.  0.
         13    1    3    3    0    0  0.16781000781E+03  0.38887133801E+02 -0.91656464735E+03  0.93261093746E+03  0.00000000000E+00 0.  1.
          3    1    3    3  501    0 -0.16780827747E+03 -0.38889279715E+02  0.22953967808E+02  0.17377824577E+03  0.00000000000E+00 0.  1.
         21    1    1    2  502  501 -0.17303418073E-02  0.21459140685E-02  0.27620077955E-01  0.27757300593E-01  0.00000000000E+00 0.  1.
<mgrwt>
<rscale>  1 0.65234728E+03</rscale>
<asrwt>0</asrwt>
<pdfrwt beam="1">  1        1 0.38697151E+00 0.65234728E+03</pdfrwt>
<pdfrwt beam="2">0</pdfrwt>
<totfact> 0.15279144E+00</totfact>
</mgrwt>
</event>
<event>
 6    1  0.2173548E-003  0.6587050E+03  0.7818608E-02  0.9790581E-01
          3   -1    0    0  502    0  0.00000000000E+00  0.00000000000E+00  0.11353606155E+03  0.11353606155E+03  0.00000000000E+00 0.  1.
         13   -1    0    0    0    0 -0.00000000000E+00 -0.00000000000E+00 -0.10000000000E+04  0.10000000000E+04  0.00000000000E+00 0.  1.
    9000005    2    1    2  501    0  0.56588805276E-01 -0.11254916485E+00 -0.89152606913E+03  0.11084723636E+04  0.65870496669E+03 0.  0.
         13    1    3    3    0    0 -0.23293764460E+03  0.58072120422E+02 -0.66358943329E+02  0.24906992352E+03  0.00000000000E+00 0.  1.
          3    1    3    3  501    0  0.23299423341E+03 -0.58184669587E+02 -0.82516712580E+03  0.85940244011E+03  0.00000000000E+00 0.  1.
         21    1    1    2  502  501 -0.56588805276E-01  0.11254916485E+00  0.50621306750E+01  0.50636979153E+01  0.00000000000E+00 0.  1.
<mgrwt>
<rscale>  1 0.65870498E+03</rscale>
<asrwt>0</asrwt>
<pdfrwt beam="1">  1        3 0.41285928E+00 0.65870498E+03</pdfrwt>
<pdfrwt beam="2">0</pdfrwt>
<totfact> 0.50676714E-02</totfact>
</mgrwt>
</event>
<event>
 6    1  0.2173548E-003  0.6503996E+03  0.7818608E-02  0.9806030E-01
          1   -1    0    0  502    0  0.00000000000E+00  0.00000000000E+00  0.12110387182E+03  0.12110387182E+03  0.00000000000E+00 0.  1.
         13   -1    0    0    0    0 -0.00000000000E+00 -0.00000000000E+00 -0.10000000000E+04  0.10000000000E+04  0.00000000000E+00 0.  1.
    9000005    2    1    2  501    0 -0.27189150875E+01  0.15084709781E+01 -0.89407076029E+03  0.11056139576E+04  0.65039221304E+03 0.  0.
         13    1    3    3    0    0 -0.12393176055E+03  0.20620471911E+03 -0.82283446981E+03  0.85728410236E+03  0.00000000000E+00 0.  1.
          3    1    3    3  501    0  0.12121284546E+03 -0.20469624813E+03 -0.71236290479E+02  0.24832985520E+03  0.00000000000E+00 0.  1.
         21    1    1    2  502  501  0.27189150875E+01 -0.15084709781E+01  0.15174632112E+02  0.15489914256E+02  0.00000000000E+00 0.  1.
<mgrwt>
<rscale>  1 0.65039965E+03</rscale>
<asrwt>0</asrwt>
<pdfrwt beam="1">  1        1 0.44037864E+00 0.65039965E+03</pdfrwt>
<pdfrwt beam="2">0</pdfrwt>
<totfact> 0.87941306E-01</totfact>
</mgrwt>
</event>
<event>
 6    1  0.2173548E-003  0.6527939E+03  0.7818608E-02  0.9801551E-01
          1   -1    0    0  502    0  0.00000000000E+00  0.00000000000E+00  0.10653525257E+03  0.10653525257E+03  0.00000000000E+00 0.  1.
         13   -1    0    0    0    0 -0.00000000000E+00 -0.00000000000E+00 -0.10000000000E+04  0.10000000000E+04  0.00000000000E+00 0.  1.
    9000005    2    1    2  501    0 -0.40640215258E-03  0.10202173382E-03 -0.89346484151E+03  0.11065348231E+04  0.65279391218E+03 0.  0.
         13    1    3    3    0    0 -0.78530340401E+02  0.27511046523E+03 -0.18042629109E+03  0.33824019418E+03  0.00000000000E+00 0.  1.
          3    1    3    3  501    0  0.78529933999E+02 -0.27511036321E+03 -0.71303855042E+03  0.76829462894E+03  0.00000000000E+00 0.  1.
         21    1    1    2  502  501  0.40640215257E-03 -0.10202173384E-03  0.94079886384E-04  0.42944402291E-03  0.00000000000E+00 0. -1.
<mgrwt>
<rscale>  1 0.65279391E+03</rscale>
<asrwt>0</asrwt>
<pdfrwt beam="1">  1        1 0.38740174E+00 0.65279391E+03</pdfrwt>
<pdfrwt beam="2">0</pdfrwt>
<totfact> 0.15211008E+00</totfact>
</mgrwt>
</event>
<event>
 6    1  0.2173548E-003  0.6419714E+03  0.7818608E-02  0.9821962E-01
          1   -1    0    0  502    0  0.00000000000E+00  0.00000000000E+00  0.13476187660E+03  0.13476187660E+03  0.00000000000E+00 0.  1.
         13   -1    0    0    0    0 -0.00000000000E+00 -0.00000000000E+00 -0.10000000000E+04  0.10000000000E+04  0.00000000000E+00 0.  1.
    9000005    2    1    2  501    0  0.11637006910E+02  0.39819053321E+01 -0.89564821432E+03  0.11019586888E+04  0.64185352885E+03 0.  0.
         13    1    3    3    0    0  0.22968868591E+03  0.22674645979E+03 -0.37149961700E+03  0.49212073203E+03  0.00000000000E+00 0.  1.
          3    1    3    3  501    0 -0.21805167900E+03 -0.22276455446E+03 -0.52414859732E+03  0.60983795677E+03  0.00000000000E+00 0.  1.
         21    1    1    2  502  501 -0.11637006910E+02 -0.39819053321E+01  0.30410090919E+02  0.32803187797E+02  0.00000000000E+00 0.  1.
<mgrwt>
<rscale>  1 0.64197136E+03</rscale>
<asrwt>0</asrwt>
<pdfrwt beam="1">  1        1 0.49004422E+00 0.64197136E+03</pdfrwt>
<pdfrwt beam="2">0</pdfrwt>
<totfact> 0.51691466E-01</totfact>
</mgrwt>
</event>
<event>
 6    1  0.2173548E-003  0.6407978E+03  0.7818608E-02  0.9824201E-01
          1   -1    0    0  502    0  0.00000000000E+00  0.00000000000E+00  0.10270505400E+03  0.10270505400E+03  0.00000000000E+00 0.  1.
         13   -1    0    0    0    0 -0.00000000000E+00 -0.00000000000E+00 -0.10000000000E+04  0.10000000000E+04  0.00000000000E+00 0.  1.
    9000005    2    1    2  501    0  0.26173004587E-03  0.17835297492E-02 -0.89734453146E+03  0.11026554358E+04  0.64079778551E+03 0.  0.
         13    1    3    3    0    0 -0.99991077275E+01  0.14601142047E+03 -0.93912214345E+03  0.95045763576E+03  0.00000000000E+00 0.  1.
          1    1    3    3  501    0  0.99993694576E+01 -0.14600963694E+03  0.41777611985E+02  0.15219780002E+03  0.00000000000E+00 0.  1.
         21    1    1    2  502  501 -0.26173004588E-03 -0.17835297492E-02  0.49585462570E-01  0.49618218219E-01  0.00000000000E+00 0. -1.
<mgrwt>
<rscale>  1 0.64079779E+03</rscale>
<asrwt>0</asrwt>
<pdfrwt beam="1">  1        1 0.37347371E+00 0.64079779E+03</pdfrwt>
<pdfrwt beam="2">0</pdfrwt>
<totfact> 0.17562460E+00</totfact>
</mgrwt>
</event>
<event>
 6    1  0.2173548E-003  0.6512142E+03  0.7818608E-02  0.9804504E-01
          1   -1    0    0  502    0  0.00000000000E+00  0.00000000000E+00  0.11911094323E+03  0.11911094323E+03  0.00000000000E+00 0.  1.
         13   -1    0    0    0    0 -0.00000000000E+00 -0.00000000000E+00 -0.10000000000E+04  0.10000000000E+04  0.00000000000E+00 0.  1.
    9000005    2    1    2  501    0 -0.51479256141E+01 -0.29319332417E+01 -0.89323459216E+03  0.11054175282E+04  0.65118720633E+03 0.  0.
         13    1    3    3    0    0  0.29038393960E+03 -0.87799257198E+02 -0.63554873249E+03  0.70423982656E+03  0.00000000000E+00 0.  1.
          1    1    3    3  501    0 -0.29553186522E+03  0.84867323956E+02 -0.25768585967E+03  0.40117770166E+03  0.00000000000E+00 0.  1.
         21    1    1    2  502  501  0.51479256141E+01  0.29319332417E+01  0.12345535384E+02  0.13693415008E+02  0.00000000000E+00 0. -1.
<mgrwt>
<rscale>  1 0.65121415E+03</rscale>
<asrwt>0</asrwt>
<pdfrwt beam="1">  1        1 0.43313162E+00 0.65121415E+03</pdfrwt>
<pdfrwt beam="2">0</pdfrwt>
<totfact> 0.94879698E-01</totfact>
</mgrwt>
</event>
<event>
 6    1  0.2173548E-003  0.6490389E+03  0.7818608E-02  0.9808584E-01
          1   -1    0    0  502    0  0.00000000000E+00  0.00000000000E+00  0.10594169044E+03  0.10594169044E+03  0.00000000000E+00 0.  1.
         13   -1    0    0    0    0 -0.00000000000E+00 -0.00000000000E+00 -0.10000000000E+04  0.10000000000E+04  0.00000000000E+00 0.  1.
    9000005    2    1    2  501    0 -0.29686854151E-02  0.12714981922E-01 -0.89468706330E+03  0.11053128011E+04  0.64903886397E+03 0.  0.
         13    1    3    3    0    0  0.14421252183E+03  0.15966062920E+02  0.46997723175E+02  0.15251541759E+03  0.00000000000E+00 0.  1.
          1    1    3    3  501    0 -0.14421549052E+03 -0.15953347938E+02 -0.94168478648E+03  0.95279738355E+03  0.00000000000E+00 0.  1.
         21    1    1    2  502  501  0.29686854151E-02 -0.12714981922E-01  0.62875374237E+00  0.62888930059E+00  0.00000000000E+00 0.  1.
<mgrwt>
<rscale>  1 0.64903886E+03</rscale>
<asrwt>0</asrwt>
<pdfrwt beam="1">  1        1 0.38524332E+00 0.64903886E+03</pdfrwt>
<pdfrwt beam="2">0</pdfrwt>
<totfact> 0.15560127E+00</totfact>
</mgrwt>
</event>
<event>
 6    1  0.2173548E-003  0.6492283E+03  0.7818608E-02  0.9808228E-01
          1   -1    0    0  502    0  0.00000000000E+00  0.00000000000E+00  0.11311651065E+03  0.11311651065E+03  0.00000000000E+00 0.  1.
         13   -1    0    0    0    0 -0.00000000000E+00 -0.00000000000E+00 -0.10000000000E+04  0.10000000000E+04  0.00000000000E+00 0.  1.
    9000005    2    1    2  501    0 -0.96338496129E+00 -0.69010507880E+00 -0.89457549585E+03  0.11053337528E+04  0.64922721983E+03 0.  0.
         13    1    3    3    0    0  0.27050134159E+03  0.13090611112E+03 -0.24001045460E+03  0.38459381697E+03  0.00000000000E+00 0.  1.
          1    1    3    3  501    0 -0.27146472655E+03 -0.13159621620E+03 -0.65456504126E+03  0.72073993584E+03  0.00000000000E+00 0.  1.
         21    1    1    2  502  501  0.96338496129E+00  0.69010507880E+00  0.76920065053E+01  0.77827578454E+01  0.00000000000E+00 0.  1.
<mgrwt>
<rscale>  1 0.64922830E+03</rscale>
<asrwt>0</asrwt>
<pdfrwt beam="1">  1        1 0.41133363E+00 0.64922830E+03</pdfrwt>
<pdfrwt beam="2">0</pdfrwt>
<totfact> 0.11906999E+00</totfact>
</mgrwt>
</event>
<event>
 6    1  0.2173548E-003  0.6256937E+03  0.7818608E-02  0.9853489E-01
          1   -1    0    0  502    0  0.00000000000E+00  0.00000000000E+00  0.97983202922E+02  0.97983202922E+02  0.00000000000E+00 0.  1.
         13   -1    0    0    0    0 -0.00000000000E+00 -0.00000000000E+00 -0.10000000000E+04  0.10000000000E+04  0.00000000000E+00 0.  1.
    9000005    2    1    2  501    0 -0.97344004420E-02  0.31865347871E-02 -0.90212660021E+03  0.10978729231E+04  0.62569365694E+03 0.  0.
         13    1    3    3    0    0  0.12055957305E+03  0.77892439450E+02  0.36688315124E+02  0.14814815302E+03  0.00000000000E+00 0.  1.
          3    1    3    3  501    0 -0.12056930745E+03 -0.77889252915E+02 -0.93881491534E+03  0.94972477007E+03  0.00000000000E+00 0.  1.
         21    1    1    2  502  501  0.97344004420E-02 -0.31865347871E-02  0.10980313590E+00  0.11027983138E+00  0.00000000000E+00 0. -1.
<mgrwt>
<rscale>  1 0.62569366E+03</rscale>
<asrwt>0</asrwt>
<pdfrwt beam="1">  1        1 0.35630331E+00 0.62569366E+03</pdfrwt>
<pdfrwt beam="2">0</pdfrwt>
<totfact> 0.20942207E+00</totfact>
</mgrwt>
</event>
<event>
 6    1  0.2173548E-003  0.6184103E+03  0.7818608E-02  0.9867930E-01
          1   -1    0    0  502    0  0.00000000000E+00  0.00000000000E+00  0.95607959098E+02  0.95607959098E+02  0.00000000000E+00 0.  1.
         13   -1    0    0    0    0 -0.00000000000E+00 -0.00000000000E+00 -0.10000000000E+04  0.10000000000E+04  0.00000000000E+00 0.  1.
    9000005    2    1    2  501    0 -0.53519889775E-04  0.58952296158E-04 -0.90439216591E+03  0.10956078109E+04  0.61841028897E+03 0.  0.
         13    1    3    3    0    0 -0.24847504704E+03 -0.10215623532E+03 -0.72339246498E+03  0.77166858418E+03  0.00000000000E+00 0.  1.
          1    1    3    3  501    0  0.24847499352E+03  0.10215629427E+03 -0.18099970093E+03  0.32393922670E+03  0.00000000000E+00 0.  1.
         21    1    1    2  502  501  0.53519889796E-04 -0.58952296151E-04  0.12501027812E-03  0.14821376947E-03  0.00000000000E+00 0. -1.
<mgrwt>
<rscale>  1 0.61841029E+03</rscale>
<asrwt>0</asrwt>
<pdfrwt beam="1">  1        1 0.34766604E+00 0.61841029E+03</pdfrwt>
<pdfrwt beam="2">0</pdfrwt>
<totfact> 0.22869230E+00</totfact>
</mgrwt>
</event>
<event>
 6    1  0.2173548E-003  0.6560908E+03  0.7818608E-02  0.9795417E-01
          1   -1    0    0  502    0  0.00000000000E+00  0.00000000000E+00  0.11958248779E+03  0.11958248779E+03  0.00000000000E+00 0.  1.
         13   -1    0    0    0    0 -0.00000000000E+00 -0.00000000000E+00 -0.10000000000E+04  0.10000000000E+04  0.00000000000E+00 0.  1.
    9000005    2    1    2  501    0  0.52233164440E-01 -0.61414236044E+00 -0.89237744051E+03  0.11076066879E+04  0.65609046537E+03 0.  0.
         13    1    3    3    0    0 -0.17561690218E+03 -0.24945847615E+03 -0.24189631020E+03  0.38933873754E+03  0.00000000000E+00 0.  1.
          1    1    3    3  501    0  0.17566913534E+03  0.24884433379E+03 -0.65048113031E+03  0.71826795032E+03  0.00000000000E+00 0.  1.
         21    1    1    2  502  501 -0.52233164440E-01  0.61414236044E+00  0.11959928303E+02  0.11975799938E+02  0.00000000000E+00 0. -1.
<mgrwt>
<rscale>  1 0.65609075E+03</rscale>
<asrwt>0</asrwt>
<pdfrwt beam="1">  1        1 0.43484633E+00 0.65609075E+03</pdfrwt>
<pdfrwt beam="2">0</pdfrwt>
<totfact> 0.93097856E-01</totfact>
</mgrwt>
</event>
<event>
 6    1  0.2173548E-003  0.6580290E+03  0.7818608E-02  0.9791829E-01
          1   -1    0    0  502    0  0.00000000000E+00  0.00000000000E+00  0.10825059213E+03  0.10825059213E+03  0.00000000000E+00 0.  1.
         13   -1    0    0    0    0 -0.00000000000E+00 -0.00000000000E+00 -0.10000000000E+04  0.10000000000E+04  0.00000000000E+00 0.  1.
    9000005    2    1    2  501    0  0.56368480193E-04  0.41999606253E-04 -0.89174944948E+03  0.11082505104E+04  0.65802896081E+03 0.  0.
         13    1    3    3    0    0  0.13334069015E+02 -0.26873771035E+03 -0.12697490094E+03  0.29752374666E+03  0.00000000000E+00 0.  1.
          3    1    3    3  501    0 -0.13334012646E+02  0.26873775235E+03 -0.76477454853E+03  0.81072676378E+03  0.00000000000E+00 0.  1.
         21    1    1    2  502  501 -0.56368480192E-04 -0.41999606227E-04  0.41611566319E-04  0.81687789381E-04  0.00000000000E+00 0.  1.
<mgrwt>
<rscale>  1 0.65802896E+03</rscale>
<asrwt>0</asrwt>
<pdfrwt beam="1">  1        1 0.39363935E+00 0.65802896E+03</pdfrwt>
<pdfrwt beam="2">0</pdfrwt>
<totfact> 0.14258238E+00</totfact>
</mgrwt>
</event>
<event>
 6    1  0.2173548E-003  0.6386557E+03  0.7818608E-02  0.9828302E-01
          1   -1    0    0  502    0  0.00000000000E+00  0.00000000000E+00  0.11378751725E+03  0.11378751725E+03  0.00000000000E+00 0.  1.
         13   -1    0    0    0    0 -0.00000000000E+00 -0.00000000000E+00 -0.10000000000E+04  0.10000000000E+04  0.00000000000E+00 0.  1.
    9000005    2    1    2  501    0 -0.63763335610E+00  0.99935731436E+00 -0.89799696580E+03  0.11019435596E+04  0.63865456448E+03 0.  0.
         13    1    3    3    0    0 -0.16307569042E+03 -0.20402931721E+03 -0.76527599503E+03  0.80862166163E+03  0.00000000000E+00 0.  1.
          3    1    3    3  501    0  0.16243805707E+03  0.20502867453E+03 -0.13272097077E+03  0.29332189800E+03  0.00000000000E+00 0.  1.
         21    1    1    2  502  501  0.63763335610E+00 -0.99935731436E+00  0.11784483055E+02  0.11843957625E+02  0.00000000000E+00 0.  1.
<mgrwt>
<rscale>  1 0.63865566E+03</rscale>
<asrwt>0</asrwt>
<pdfrwt beam="1">  1        1 0.41377366E+00 0.63865566E+03</pdfrwt>
<pdfrwt beam="2">0</pdfrwt>
<totfact> 0.11634638E+00</totfact>
</mgrwt>
</event>
<event>
 6    1  0.2173548E-003  0.6491284E+03  0.7818608E-02  0.9808416E-01
          1   -1    0    0  502    0  0.00000000000E+00  0.00000000000E+00  0.10534208084E+03  0.10534208084E+03  0.00000000000E+00 0.  1.
         13   -1    0    0    0    0 -0.00000000000E+00 -0.00000000000E+00 -0.10000000000E+04  0.10000000000E+04  0.00000000000E+00 0.  1.
    9000005    2    1    2  501    0 -0.14531719117E-04 -0.10287674314E-04 -0.89465806992E+03  0.11053419290E+04  0.64912842952E+03 0.  0.
         13    1    3    3    0    0 -0.93962569017E+02  0.10553675583E+03 -0.94487277664E+03  0.95538030921E+03  0.00000000000E+00 0.  1.
          1    1    3    3  501    0  0.93962554485E+02 -0.10553676612E+03  0.50214706719E+02  0.14996161982E+03  0.00000000000E+00 0.  1.
         21    1    1    2  502  501  0.14531719114E-04  0.10287674308E-04  0.15076228430E-03  0.15180999133E-03  0.00000000000E+00 0.  1.
<mgrwt>
<rscale>  1 0.64912843E+03</rscale>
<asrwt>0</asrwt>
<pdfrwt beam="1">  1        1 0.38306292E+00 0.64912843E+03</pdfrwt>
<pdfrwt beam="2">0</pdfrwt>
<totfact> 0.15909115E+00</totfact>
</mgrwt>
</event>
<event>
 6    1  0.2173548E-003  0.6321015E+03  0.7818608E-02  0.9840956E-01
          1   -1    0    0  502    0  0.00000000000E+00  0.00000000000E+00  0.99903271228E+02  0.99903271228E+02  0.00000000000E+00 0.  1.
         13   -1    0    0    0    0 -0.00000000000E+00 -0.00000000000E+00 -0.10000000000E+04  0.10000000000E+04  0.00000000000E+00 0.  1.
    9000005    2    1    2  501    0 -0.79355261892E-03  0.15080871459E-03 -0.90011189815E+03  0.10998880804E+04  0.63210154256E+03 0.  0.
         13    1    3    3    0    0  0.29419701162E+03 -0.82762774874E+02 -0.59019460886E+03  0.66462864434E+03  0.00000000000E+00 0.  1.
          3    1    3    3  501    0 -0.29419780517E+03  0.82762925683E+02 -0.30991728929E+03  0.43525943601E+03  0.00000000000E+00 0.  1.
         21    1    1    2  502  501  0.79355261889E-03 -0.15080871459E-03  0.15169381684E-01  0.15190872579E-01  0.00000000000E+00 0.  1.
<mgrwt>
<rscale>  1 0.63210154E+03</rscale>
<asrwt>0</asrwt>
<pdfrwt beam="1">  1        1 0.36328539E+00 0.63210154E+03</pdfrwt>
<pdfrwt beam="2">0</pdfrwt>
<totfact> 0.19497850E+00</totfact>
</mgrwt>
</event>
<event>
 6    1  0.2173548E-003  0.6486036E+03  0.7818608E-02  0.9809403E-01
          1   -1    0    0  502    0  0.00000000000E+00  0.00000000000E+00  0.10581004863E+03  0.10581004863E+03  0.00000000000E+00 0.  1.
         13   -1    0    0    0    0 -0.00000000000E+00 -0.00000000000E+00 -0.10000000000E+04  0.10000000000E+04  0.00000000000E+00 0.  1.
    9000005    2    1    2  501    0 -0.68007905304E-02 -0.34094299608E-01 -0.89482782704E+03  0.11051712262E+04  0.64860357542E+03 0.  0.
         13    1    3    3    0    0  0.11629892911E+03 -0.88284847582E+02 -0.94083400283E+03  0.95209677875E+03  0.00000000000E+00 0.  1.
          3    1    3    3  501    0 -0.11630572990E+03  0.88250753282E+02  0.46006175785E+02  0.15307444749E+03  0.00000000000E+00 0.  1.
         21    1    1    2  502  501  0.68007905305E-02  0.34094299608E-01  0.63787567007E+00  0.63882238728E+00  0.00000000000E+00 0. -1.
<mgrwt>
<rscale>  1 0.64860358E+03</rscale>
<asrwt>0</asrwt>
<pdfrwt beam="1">  1        1 0.38476462E+00 0.64860358E+03</pdfrwt>
<pdfrwt beam="2">0</pdfrwt>
<totfact> 0.15637430E+00</totfact>
</mgrwt>
</event>
<event>
 6    1  0.2173548E-003  0.6562719E+03  0.7818608E-02  0.9795081E-01
          1   -1    0    0  502    0  0.00000000000E+00  0.00000000000E+00  0.10836893660E+03  0.10836893660E+03  0.00000000000E+00 0.  1.
         13   -1    0    0    0    0 -0.00000000000E+00 -0.00000000000E+00 -0.10000000000E+04  0.10000000000E+04  0.00000000000E+00 0.  1.
    9000005    2    1    2  501    0  0.13791373809E-01  0.30998976382E-03 -0.89232672463E+03  0.11076731386E+04  0.65627189358E+03 0.  0.
         13    1    3    3    0    0 -0.55520407785E+02  0.19793291949E+03 -0.14485487107E+02  0.20608198765E+03  0.00000000000E+00 0.  1.
          3    1    3    3  501    0  0.55534199158E+02 -0.19793260950E+03 -0.87784123753E+03  0.90159115096E+03  0.00000000000E+00 0.  1.
         21    1    1    2  502  501 -0.13791373809E-01 -0.30998976381E-03  0.69566123248E+00  0.69579799400E+00  0.00000000000E+00 0.  1.
<mgrwt>
<rscale>  1 0.65627189E+03</rscale>
<asrwt>0</asrwt>
<pdfrwt beam="1">  1        1 0.39406969E+00 0.65627189E+03</pdfrwt>
<pdfrwt beam="2">0</pdfrwt>
<totfact> 0.14200236E+00</totfact>
</mgrwt>
</event>
<event>
 6    1  0.2173548E-003  0.6471092E+03  0.7818608E-02  0.9812219E-01
          1   -1    0    0  502    0  0.00000000000E+00  0.00000000000E+00  0.10562775400E+03  0.10562775400E+03  0.00000000000E+00 0.  1.
         13   -1    0    0    0    0 -0.00000000000E+00 -0.00000000000E+00 -0.10000000000E+04  0.10000000000E+04  0.00000000000E+00 0.  1.
    9000005    2    1    2  501    0 -0.12186406898E+00  0.46140815644E-01 -0.89530743488E+03  0.11046835305E+04  0.64710917362E+03 0.  0.
         13    1    3    3    0    0  0.26524664168E+03  0.10393824645E+03 -0.18589442912E+03  0.34017007331E+03  0.00000000000E+00 0.  1.
          3    1    3    3  501    0 -0.26536850575E+03 -0.10389210563E+03 -0.70941300576E+03  0.76451345717E+03  0.00000000000E+00 0.  1.
         21    1    1    2  502  501  0.12186406898E+00 -0.46140815644E-01  0.93518887532E+00  0.94422352157E+00  0.00000000000E+00 0. -1.
<mgrwt>
<rscale>  1 0.64710919E+03</rscale>
<asrwt>0</asrwt>
<pdfrwt beam="1">  1        1 0.38410173E+00 0.64710919E+03</pdfrwt>
<pdfrwt beam="2">0</pdfrwt>
<totfact> 0.15747679E+00</totfact>
</mgrwt>
</event>
<event>
 6    1  0.2173548E-003  0.6303125E+03  0.7818608E-02  0.9844439E-01
          1   -1    0    0  502    0  0.00000000000E+00  0.00000000000E+00  0.10201882798E+03  0.10201882798E+03  0.00000000000E+00 0.  1.
         13   -1    0    0    0    0 -0.00000000000E+00 -0.00000000000E+00 -0.10000000000E+04  0.10000000000E+04  0.00000000000E+00 0.  1.
    9000005    2    1    2  501    0 -0.16730085587E+00  0.48360485835E-01 -0.90067343962E+03  0.10993209338E+04  0.63031249413E+03 0.  0.
         13    1    3    3    0    0 -0.69119022253E+01  0.27271189592E+03 -0.72568257005E+03  0.77526430657E+03  0.00000000000E+00 0.  1.
          3    1    3    3  501    0  0.67446013695E+01 -0.27266353543E+03 -0.17499086957E+03  0.32405662720E+03  0.00000000000E+00 0.  1.
         21    1    1    2  502  501  0.16730085587E+00 -0.48360485835E-01  0.26922676070E+01  0.26978942123E+01  0.00000000000E+00 0. -1.
<mgrwt>
<rscale>  1 0.63031252E+03</rscale>
<asrwt>0</asrwt>
<pdfrwt beam="1">  1        1 0.37097834E+00 0.63031252E+03</pdfrwt>
<pdfrwt beam="2">0</pdfrwt>
<totfact> 0.18046366E+00</totfact>
</mgrwt>
</event>
<event>
 6    1  0.2173548E-003  0.6566641E+03  0.7818608E-02  0.9794354E-01
          1   -1    0    0  502    0  0.00000000000E+00  0.00000000000E+00  0.10976141818E+03  0.10976141818E+03  0.00000000000E+00 0.  1.
         13   -1    0    0    0    0 -0.00000000000E+00 -0.00000000000E+00 -0.10000000000E+04  0.10000000000E+04  0.00000000000E+00 0.  1.
    9000005    2    1    2  501    0 -0.41089633169E+00 -0.17165182480E+01 -0.89174765325E+03  0.11074392280E+04  0.65666174804E+03 0.  0.
         13    1    3    3    0    0 -0.10811832442E+03 -0.10710067414E+03  0.44961271926E+02  0.15868724728E+03  0.00000000000E+00 0.  1.
          1    1    3    3  501    0  0.10770742809E+03  0.10538415589E+03 -0.93670892518E+03  0.94875198071E+03  0.00000000000E+00 0.  1.
         21    1    1    2  502  501  0.41089633169E+00  0.17165182480E+01  0.15090714374E+01  0.23221901934E+01  0.00000000000E+00 0. -1.
<mgrwt>
<rscale>  1 0.65666412E+03</rscale>
<asrwt>0</asrwt>
<pdfrwt beam="1">  1        1 0.39913327E+00 0.65666412E+03</pdfrwt>
<pdfrwt beam="2">0</pdfrwt>
<totfact> 0.13481238E+00</totfact>
</mgrwt>
</event>
<event>
 6    1  0.2173548E-003  0.6271132E+03  0.7818608E-02  0.9850698E-01
          1   -1    0    0  502    0  0.00000000000E+00  0.00000000000E+00  0.98409877181E+02  0.98409877181E+02  0.00000000000E+00 0.  1.
         13   -1    0    0    0    0 -0.00000000000E+00 -0.00000000000E+00 -0.10000000000E+04  0.10000000000E+04  0.00000000000E+00 0.  1.
    9000005    2    1    2  501    0  0.39476647722E-02  0.10718222630E+00 -0.90164675205E+03  0.10982885904E+04  0.62711318821E+03 0.  0.
         13    1    3    3    0    0 -0.16758768919E+03 -0.10370475537E+03 -0.23721891736E+02  0.19850198488E+03  0.00000000000E+00 0.  1.
          3    1    3    3  501    0  0.16759163685E+03  0.10381193760E+03 -0.87792486031E+03  0.89978660552E+03  0.00000000000E+00 0.  1.
         21    1    1    2  502  501 -0.39476647722E-02 -0.10718222630E+00  0.56629226581E-01  0.12128677997E+00  0.00000000000E+00 0. -1.
<mgrwt>
<rscale>  1 0.62711320E+03</rscale>
<asrwt>0</asrwt>
<pdfrwt beam="1">  1        1 0.35785485E+00 0.62711320E+03</pdfrwt>
<pdfrwt beam="2">0</pdfrwt>
<totfact> 0.20612635E+00</totfact>
</mgrwt>
</event>
<event>
 6    1  0.2173548E-003  0.6585490E+03  0.7818608E-02  0.9790868E-01
          1   -1    0    0  502    0  0.00000000000E+00  0.00000000000E+00  0.10962156748E+03  0.10962156748E+03  0.00000000000E+00 0.  1.
         13   -1    0    0    0    0 -0.00000000000E+00 -0.00000000000E+00 -0.10000000000E+04  0.10000000000E+04  0.00000000000E+00 0.  1.
    9000005    2    1    2  501    0 -0.19915917646E+01 -0.11900937023E+01 -0.89017405065E+03  0.11072925049E+04  0.65854496285E+03 0.  0.
         13    1    3    3    0    0  0.76553489062E+02  0.31921044378E+03 -0.46327627581E+03  0.56778574465E+03  0.00000000000E+00 0.  1.
          3    1    3    3  501    0 -0.78545080826E+02 -0.32040053748E+03 -0.42689777484E+03  0.53950676021E+03  0.00000000000E+00 0.  1.
         21    1    1    2  502  501  0.19915917646E+01  0.11900937023E+01 -0.20438186504E+00  0.23290626278E+01  0.00000000000E+00 0.  1.
<mgrwt>
<rscale>  1 0.65854905E+03</rscale>
<asrwt>0</asrwt>
<pdfrwt beam="1">  1        1 0.39862472E+00 0.65854905E+03</pdfrwt>
<pdfrwt beam="2">0</pdfrwt>
<totfact> 0.13546961E+00</totfact>
</mgrwt>
</event>
