<event>
 6    1  0.2944874E-003  0.6562815E+03  0.7818608E-02  0.9795063E-01
          1   -1    0    0  502    0  0.00000000000E+00  0.00000000000E+00  0.11003198771E+03  0.11003198771E+03  0.00000000000E+00 0.  1.
         13   -1    0    0    0    0 -0.00000000000E+00 -0.00000000000E+00 -0.10000000000E+04  0.10000000000E+04  0.00000000000E+00 0.  1.
    9000005    2    1    2  501    0  0.65326912085E+00 -0.13998528884E+00 -0.89227106736E+03  0.11076339846E+04  0.65628114383E+03 0.  0.
         13    1    3    3    0    0  0.29574816280E+03  0.10869521330E+03 -0.60276867114E+03  0.68015564108E+03  0.00000000000E+00 0.  1.
          1    1    3    3  501    0 -0.29509489367E+03 -0.10883519859E+03 -0.28950239622E+03  0.42747834348E+03  0.00000000000E+00 0.  1.
         21    1    1    2  502  501 -0.65326912085E+00  0.13998528884E+00  0.23030550712E+01  0.23980031456E+01  0.00000000000E+00 0. -1.
<mgrwt>
<rscale>  1 0.65628148E+03</rscale>
<asrwt>0</asrwt>
<pdfrwt beam="1">  1        1 0.40011716E+00 0.65628148E+03</pdfrwt>
<pdfrwt beam="2">0</pdfrwt>
<totfact> 0.13346750E+00</totfact>
</mgrwt>
</event>
<event>
 6    1  0.2944874E-003  0.6424557E+03  0.7818608E-02  0.9821039E-01
          1   -1    0    0  502    0  0.00000000000E+00  0.00000000000E+00  0.10319447679E+03  0.10319447679E+03  0.00000000000E+00 0.  1.
         13   -1    0    0    0    0 -0.00000000000E+00 -0.00000000000E+00 -0.10000000000E+04  0.10000000000E+04  0.00000000000E+00 0.  1.
    9000005    2    1    2  501    0  0.57765883383E-04  0.15640024543E-03 -0.89681266452E+03  0.11031873335E+04  0.64245570868E+03 0.  0.
         13    1    3    3    0    0 -0.14514200003E+03 -0.92160910994E+02  0.17529469806E+02  0.17282105196E+03  0.00000000000E+00 0.  1.
          3    1    3    3  501    0  0.14514205779E+03  0.92161067395E+02 -0.91434213433E+03  0.93036628158E+03  0.00000000000E+00 0.  1.
         21    1    1    2  502  501 -0.57765883390E-04 -0.15640024543E-03  0.71413091338E-02  0.71432551459E-02  0.00000000000E+00 0.  1.
<mgrwt>
<rscale>  1 0.64245571E+03</rscale>
<asrwt>0</asrwt>
<pdfrwt beam="1">  1        1 0.37525343E+00 0.64245571E+03</pdfrwt>
<pdfrwt beam="2">0</pdfrwt>
<totfact> 0.17243362E+00</totfact>
</mgrwt>
</event>
<event>
 6    1  0.2944874E-003  0.6450050E+03  0.7818608E-02  0.9816197E-01
          1   -1    0    0  502    0  0.00000000000E+00  0.00000000000E+00  0.10400798315E+03  0.10400798315E+03  0.00000000000E+00 0.  1.
         13   -1    0    0    0    0 -0.00000000000E+00 -0.00000000000E+00 -0.10000000000E+04  0.10000000000E+04  0.00000000000E+00 0.  1.
    9000005    2    1    2  501    0 -0.58186313026E-04 -0.32282874379E-04 -0.89599214234E+03  0.11040078411E+04  0.64500495664E+03 0.  0.
         13    1    3    3    0    0  0.30438748660E+03 -0.90922802460E+01 -0.62973034965E+03  0.69949605062E+03  0.00000000000E+00 0.  1.
          3    1    3    3  501    0 -0.30438754479E+03  0.90922479631E+01 -0.26626179269E+03  0.40451179049E+03  0.00000000000E+00 0.  1.
         21    1    1    2  502  501  0.58186313019E-04  0.32282874378E-04  0.12549636998E-03  0.14204636524E-03  0.00000000000E+00 0.  1.
<mgrwt>
<rscale>  1 0.64500496E+03</rscale>
<asrwt>0</asrwt>
<pdfrwt beam="1">  1        1 0.37821165E+00 0.64500496E+03</pdfrwt>
<pdfrwt beam="2">0</pdfrwt>
<totfact> 0.16725809E+00</totfact>
</mgrwt>
</event>
<event>
 6    1  0.2944874E-003  0.6642735E+03  0.7818608E-02  0.9780359E-01
          1   -1    0    0  502    0  0.00000000000E+00  0.00000000000E+00  0.11032255872E+03  0.11032255872E+03  0.00000000000E+00 0.  1.
         13   -1    0    0    0    0 -0.00000000000E+00 -0.00000000000E+00 -0.10000000000E+04  0.10000000000E+04  0.00000000000E+00 0.  1.
    9000005    2    1    2  501    0 -0.92400313929E-03  0.29482537119E-02 -0.88968483304E+03  0.11103145472E+04  0.66427350662E+03 0.  0.
         13    1    3    3    0    0  0.10516758318E+03 -0.26356933130E+03 -0.73330851310E+03  0.78630171584E+03  0.00000000000E+00 0.  1.
          1    1    3    3  501    0 -0.10516850718E+03  0.26357227956E+03 -0.15637631995E+03  0.32401283137E+03  0.00000000000E+00 0.  1.
         21    1    1    2  502  501  0.92400313930E-03 -0.29482537119E-02  0.73917618604E-02  0.80114995570E-02  0.00000000000E+00 0.  1.
<mgrwt>
<rscale>  1 0.66427351E+03</rscale>
<asrwt>0</asrwt>
<pdfrwt beam="1">  1        1 0.40117379E+00 0.66427351E+03</pdfrwt>
<pdfrwt beam="2">0</pdfrwt>
<totfact> 0.13182874E+00</totfact>
</mgrwt>
</event>
<event>
 6    1  0.2944874E-003  0.6583962E+03  0.7818608E-02  0.9791151E-01
          1   -1    0    0  502    0  0.00000000000E+00  0.00000000000E+00  0.10837284816E+03  0.10837284816E+03  0.00000000000E+00 0.  1.
         13   -1    0    0    0    0 -0.00000000000E+00 -0.00000000000E+00 -0.10000000000E+04  0.10000000000E+04  0.00000000000E+00 0.  1.
    9000005    2    1    2  501    0  0.55868852820E-03 -0.10106598950E-04 -0.89162856270E+03  0.11083713307E+04  0.65839616710E+03 0.  0.
         13    1    3    3    0    0 -0.65730415575E+02  0.32159589955E+03 -0.48796509979E+03  0.58809382649E+03  0.00000000000E+00 0.  1.
          1    1    3    3  501    0  0.65730974263E+02 -0.32159590965E+03 -0.40366346290E+03  0.52027750419E+03  0.00000000000E+00 0.  1.
         21    1    1    2  502  501 -0.55868852820E-03  0.10106598912E-04  0.14108590251E-02  0.15174841692E-02  0.00000000000E+00 0.  1.
<mgrwt>
<rscale>  1 0.65839617E+03</rscale>
<asrwt>0</asrwt>
<pdfrwt beam="1">  1        1 0.39408392E+00 0.65839617E+03</pdfrwt>
<pdfrwt beam="2">0</pdfrwt>
<totfact> 0.14192552E+00</totfact>
</mgrwt>
</event>
<event>
 6    1  0.2944874E-003  0.6407027E+03  0.7818608E-02  0.9824383E-01
          1   -1    0    0  502    0  0.00000000000E+00  0.00000000000E+00  0.10262621499E+03  0.10262621499E+03  0.00000000000E+00 0.  1.
         13   -1    0    0    0    0 -0.00000000000E+00 -0.00000000000E+00 -0.10000000000E+04  0.10000000000E+04  0.00000000000E+00 0.  1.
    9000005    2    1    2  501    0  0.28100180901E-03 -0.17897360526E-02 -0.89737420429E+03  0.11026243554E+04  0.64070274441E+03 0.  0.
         13    1    3    3    0    0 -0.15180609765E+03 -0.19799752654E+03 -0.10287654371E+03  0.26987347970E+03  0.00000000000E+00 0.  1.
          1    1    3    3  501    0  0.15180637865E+03  0.19799573680E+03 -0.79449766058E+03  0.83275087575E+03  0.00000000000E+00 0.  1.
         21    1    1    2  502  501 -0.28100180901E-03  0.17897360526E-02  0.41928255067E-03  0.18595469911E-02  0.00000000000E+00 0. -1.
<mgrwt>
<rscale>  1 0.64070274E+03</rscale>
<asrwt>0</asrwt>
<pdfrwt beam="1">  1        1 0.37318702E+00 0.64070274E+03</pdfrwt>
<pdfrwt beam="2">0</pdfrwt>
<totfact> 0.17613833E+00</totfact>
</mgrwt>
</event>
<event>
 6    1  0.2944874E-003  0.6646275E+03  0.7818608E-02  0.9779712E-01
          1   -1    0    0  502    0  0.00000000000E+00  0.00000000000E+00  0.11043276065E+03  0.11043276065E+03  0.00000000000E+00 0.  1.
         13   -1    0    0    0    0 -0.00000000000E+00 -0.00000000000E+00 -0.10000000000E+04  0.10000000000E+04  0.00000000000E+00 0.  1.
    9000005    2    1    2  501    0 -0.41450247937E-03  0.73154652134E-03 -0.88956671443E+03  0.11104317694E+04  0.66462754619E+03 0.  0.
         13    1    3    3    0    0  0.25617634710E+03 -0.14353370220E+03 -0.70471329107E+03  0.76344552333E+03  0.00000000000E+00 0.  1.
          3    1    3    3  501    0 -0.25617676161E+03  0.14353443375E+03 -0.18485342336E+03  0.34698624611E+03  0.00000000000E+00 0.  1.
         21    1    1    2  502  501  0.41450247938E-03 -0.73154652135E-03 -0.52491202162E-03  0.99121402772E-03  0.00000000000E+00 0. -1.
<mgrwt>
<rscale>  1 0.66462755E+03</rscale>
<asrwt>0</asrwt>
<pdfrwt beam="1">  1        1 0.40157452E+00 0.66462755E+03</pdfrwt>
<pdfrwt beam="2">0</pdfrwt>
<totfact> 0.13127828E+00</totfact>
</mgrwt>
</event>
<event>
 6    1  0.2944874E-003  0.6413473E+03  0.7818608E-02  0.9823152E-01
          1   -1    0    0  502    0  0.00000000000E+00  0.00000000000E+00  0.10283195209E+03  0.10283195209E+03  0.00000000000E+00 0.  1.
         13   -1    0    0    0    0 -0.00000000000E+00 -0.00000000000E+00 -0.10000000000E+04  0.10000000000E+04  0.00000000000E+00 0.  1.
    9000005    2    1    2  501    0 -0.41868836226E-03  0.22127268828E-03 -0.89716823215E+03  0.11028314440E+04  0.64134729827E+03 0.  0.
         13    1    3    3    0    0  0.19053737161E+03 -0.12786250940E+03 -0.83377235099E+03  0.86477144065E+03  0.00000000000E+00 0.  1.
          1    1    3    3  501    0 -0.19053779030E+03  0.12786273068E+03 -0.63395881161E+02  0.23806000331E+03  0.00000000000E+00 0.  1.
         21    1    1    2  502  501  0.41868836227E-03 -0.22127268827E-03  0.18424145334E-03  0.50814019759E-03  0.00000000000E+00 0.  1.
<mgrwt>
<rscale>  1 0.64134730E+03</rscale>
<asrwt>0</asrwt>
<pdfrwt beam="1">  1        1 0.37393516E+00 0.64134730E+03</pdfrwt>
<pdfrwt beam="2">0</pdfrwt>
<totfact> 0.17478805E+00</totfact>
</mgrwt>
</event>
<event>
 6    1  0.2944874E-003  0.6585942E+03  0.7818608E-02  0.9790785E-01
          1   -1    0    0  502    0  0.00000000000E+00  0.00000000000E+00  0.11133111999E+03  0.11133111999E+03  0.00000000000E+00 0.  1.
         13   -1    0    0    0    0 -0.00000000000E+00 -0.00000000000E+00 -0.10000000000E+04  0.10000000000E+04  0.00000000000E+00 0.  1.
    9000005    2    1    2  501    0 -0.50207411503E+00 -0.66538545820E+00 -0.89149674447E+03  0.11083829623E+04  0.65859369185E+03 0.  0.
         13    1    3    3    0    0  0.20283414299E+03 -0.19574065516E+03 -0.15916725483E+03  0.32371331244E+03  0.00000000000E+00 0.  1.
          3    1    3    3  501    0 -0.20333621710E+03  0.19507526970E+03 -0.73232948965E+03  0.78466964988E+03  0.00000000000E+00 0.  1.
         21    1    1    2  502  501  0.50207411503E+00  0.66538545820E+00  0.28278644642E+01  0.29481576710E+01  0.00000000000E+00 0.  1.
<mgrwt>
<rscale>  1 0.65859422E+03</rscale>
<asrwt>0</asrwt>
<pdfrwt beam="1">  1        1 0.40484129E+00 0.65859422E+03</pdfrwt>
<pdfrwt beam="2">0</pdfrwt>
<totfact> 0.12708499E+00</totfact>
</mgrwt>
</event>
<event>
 6    1  0.2944874E-003  0.6465809E+03  0.7818608E-02  0.9813216E-01
          1   -1    0    0  502    0  0.00000000000E+00  0.00000000000E+00  0.10451674793E+03  0.10451674793E+03  0.00000000000E+00 0.  1.
         13   -1    0    0    0    0 -0.00000000000E+00 -0.00000000000E+00 -0.10000000000E+04  0.10000000000E+04  0.00000000000E+00 0.  1.
    9000005    2    1    2  501    0  0.69521448012E-05  0.65988444078E-05 -0.89548328585E+03  0.11045167128E+04  0.64658089491E+03 0.  0.
         13    1    3    3    0    0  0.10414009271E+03 -0.21943684689E+03 -0.83284978266E+02  0.25677631567E+03  0.00000000000E+00 0.  1.
          3    1    3    3  501    0 -0.10414008576E+03  0.21943685349E+03 -0.81219830758E+03  0.84774039715E+03  0.00000000000E+00 0.  1.
         21    1    1    2  502  501 -0.69521448064E-05 -0.65988444107E-05  0.33778630410E-04  0.35112290402E-04  0.00000000000E+00 0. -1.
<mgrwt>
<rscale>  1 0.64658089E+03</rscale>
<asrwt>0</asrwt>
<pdfrwt beam="1">  1        1 0.38006170E+00 0.64658089E+03</pdfrwt>
<pdfrwt beam="2">0</pdfrwt>
<totfact> 0.16409749E+00</totfact>
</mgrwt>
</event>
<event>
 6    1  0.2944874E-003  0.6275406E+03  0.7818608E-02  0.9849860E-01
          1   -1    0    0  502    0  0.00000000000E+00  0.00000000000E+00  0.10707707935E+03  0.10707707935E+03  0.00000000000E+00 0.  1.
         13   -1    0    0    0    0 -0.00000000000E+00 -0.00000000000E+00 -0.10000000000E+04  0.10000000000E+04  0.00000000000E+00 0.  1.
    9000005    2    1    2  501    0  0.18708865664E+02  0.15331966471E+02 -0.83680728630E+03  0.10459701627E+04  0.62707420286E+03 0.  0.
         13    1    3    3    0    0 -0.48403389368E+02  0.12744639540E+03 -0.89327957142E+03  0.90362263391E+03  0.00000000000E+00 0.  1.
          3    1    3    3  501    0  0.67112255032E+02 -0.11211442893E+03  0.56472285120E+02  0.14234752874E+03  0.00000000000E+00 0.  1.
         21    1    1    2  502  501 -0.18708865664E+02 -0.15331966471E+02 -0.56115634348E+02  0.61106916700E+02  0.00000000000E+00 0.  1.
<mgrwt>
<rscale>  1 0.62754055E+03</rscale>
<asrwt>0</asrwt>
<pdfrwt beam="1">  1        1 0.38937202E+00 0.62754055E+03</pdfrwt>
<pdfrwt beam="2">0</pdfrwt>
<totfact> 0.14979581E+00</totfact>
</mgrwt>
</event>
<event>
 6    1  0.2944874E-003  0.5774046E+03  0.7818608E-02  0.9953426E-01
          1   -1    0    0  502    0  0.00000000000E+00  0.00000000000E+00  0.83369644540E+02  0.83369644540E+02  0.00000000000E+00 0.  1.
         13   -1    0    0    0    0 -0.00000000000E+00 -0.00000000000E+00 -0.10000000000E+04  0.10000000000E+04  0.00000000000E+00 0.  1.
    9000005    2    1    2  501    0  0.70810342812E-02 -0.90111414684E-03 -0.91665031907E+03  0.10833484432E+04  0.57740457375E+03 0.  0.
         13    1    3    3    0    0 -0.81521986641E+02 -0.81885266845E+02 -0.95472075804E+03  0.96168745290E+03  0.00000000000E+00 0.  1.
          1    1    3    3  501    0  0.81529067675E+02  0.81884365731E+02  0.38070438970E+02  0.12166099026E+03  0.00000000000E+00 0.  1.
         21    1    1    2  502  501 -0.70810342812E-02  0.90111414684E-03  0.19963607495E-01  0.21201383856E-01  0.00000000000E+00 0. -1.
<mgrwt>
<rscale>  1 0.57740457E+03</rscale>
<asrwt>0</asrwt>
<pdfrwt beam="1">  1        1 0.30316298E+00 0.57740457E+03</pdfrwt>
<pdfrwt beam="2">0</pdfrwt>
<totfact> 0.35900512E+00</totfact>
</mgrwt>
</event>
<event>
 6    1  0.2944874E-003  0.6516588E+03  0.7818608E-02  0.9803672E-01
          1   -1    0    0  502    0  0.00000000000E+00  0.00000000000E+00  0.10621665259E+03  0.10621665259E+03  0.00000000000E+00 0.  1.
         13   -1    0    0    0    0 -0.00000000000E+00 -0.00000000000E+00 -0.10000000000E+04  0.10000000000E+04  0.00000000000E+00 0.  1.
    9000005    2    1    2  501    0 -0.17017575201E-02 -0.18744573818E-01 -0.89383332078E+03  0.11061632523E+04  0.65165875657E+03 0.  0.
         13    1    3    3    0    0  0.25529177594E+03 -0.14921270519E+03 -0.21461893969E+03  0.36537598652E+03  0.00000000000E+00 0.  1.
          1    1    3    3  501    0 -0.25529347770E+03  0.14919396061E+03 -0.67921438109E+03  0.74078726576E+03  0.00000000000E+00 0.  1.
         21    1    1    2  502  501  0.17017575201E-02  0.18744573818E-01  0.49973371243E-01  0.53400307674E-01  0.00000000000E+00 0.  1.
<mgrwt>
<rscale>  1 0.65165876E+03</rscale>
<asrwt>0</asrwt>
<pdfrwt beam="1">  1        1 0.38624319E+00 0.65165876E+03</pdfrwt>
<pdfrwt beam="2">0</pdfrwt>
<totfact> 0.15394958E+00</totfact>
</mgrwt>
</event>
<event>
 6    1  0.2944874E-003  0.6346200E+03  0.7818608E-02  0.9836074E-01
          1   -1    0    0  502    0  0.00000000000E+00  0.00000000000E+00  0.10473823906E+03  0.10473823906E+03  0.00000000000E+00 0.  1.
         13   -1    0    0    0    0 -0.00000000000E+00 -0.00000000000E+00 -0.10000000000E+04  0.10000000000E+04  0.00000000000E+00 0.  1.
    9000005    2    1    2  501    0 -0.49285349788E+00 -0.24936375162E+00 -0.89929362488E+03  0.11006687165E+04  0.63461980326E+03 0.  0.
         13    1    3    3    0    0  0.11476530878E+02  0.19312384613E+03 -0.13500462643E+02  0.19393502313E+03  0.00000000000E+00 0.  1.
          1    1    3    3  501    0 -0.11969384376E+02 -0.19337320988E+03 -0.88579316224E+03  0.90673369339E+03  0.00000000000E+00 0.  1.
         21    1    1    2  502  501  0.49285349788E+00  0.24936375162E+00  0.40318639467E+01  0.40695225439E+01  0.00000000000E+00 0.  1.
<mgrwt>
<rscale>  1 0.63462004E+03</rscale>
<asrwt>0</asrwt>
<pdfrwt beam="1">  1        1 0.38086713E+00 0.63462004E+03</pdfrwt>
<pdfrwt beam="2">0</pdfrwt>
<totfact> 0.16312157E+00</totfact>
</mgrwt>
</event>
<event>
 6    1  0.2944874E-003  0.6465445E+03  0.7818608E-02  0.9813285E-01
          1   -1    0    0  502    0  0.00000000000E+00  0.00000000000E+00  0.10863999345E+03  0.10863999345E+03  0.00000000000E+00 0.  1.
         13   -1    0    0    0    0 -0.00000000000E+00 -0.00000000000E+00 -0.10000000000E+04  0.10000000000E+04  0.00000000000E+00 0.  1.
    9000005    2    1    2  501    0 -0.87642881027E+00 -0.14502137434E+01 -0.89530248126E+03  0.11043487985E+04  0.64654223724E+03 0.  0.
         13    1    3    3    0    0  0.44637432767E+02 -0.26295286806E+03 -0.76198585323E+03  0.80731601727E+03  0.00000000000E+00 0.  1.
          3    1    3    3  501    0 -0.45513861577E+02  0.26150265432E+03 -0.13331662803E+03  0.29703278122E+03  0.00000000000E+00 0.  1.
         21    1    1    2  502  501  0.87642881027E+00  0.14502137434E+01  0.39424747113E+01  0.42911949630E+01  0.00000000000E+00 0.  1.
<mgrwt>
<rscale>  1 0.64654446E+03</rscale>
<asrwt>0</asrwt>
<pdfrwt beam="1">  1        1 0.39505535E+00 0.64654446E+03</pdfrwt>
<pdfrwt beam="2">0</pdfrwt>
<totfact> 0.14083438E+00</totfact>
</mgrwt>
</event>
<event>
 6    1  0.3344868E-003  0.6369713E+03  0.7818608E-02  0.9831538E-01
          1   -1    0    0  502    0  0.00000000000E+00  0.00000000000E+00  0.10143312733E+03  0.10143312733E+03  0.00000000000E+00 0.  1.
         13   -1    0    0    0    0 -0.00000000000E+00 -0.00000000000E+00 -0.10000000000E+04  0.10000000000E+04  0.00000000000E+00 0.  1.
    9000005    2    1    2  501    0 -0.10996316973E-04 -0.63299526118E-05 -0.89856687419E+03  0.11014331146E+04  0.63697133252E+03 0.  0.
         13    1    3    3    0    0  0.27616527279E+03  0.15373041936E+03 -0.51698258145E+03  0.60594660594E+03  0.00000000000E+00 0.  1.
          1    1    3    3  501    0 -0.27616528378E+03 -0.15373042569E+03 -0.38158429273E+03  0.49548650861E+03  0.00000000000E+00 0.  1.
         21    1    1    2  502  501  0.10996317000E-04  0.63299526112E-05  0.15189661496E-05  0.12778675431E-04  0.00000000000E+00 0.  1.
<mgrwt>
<rscale>  1 0.63697133E+03</rscale>
<asrwt>0</asrwt>
<pdfrwt beam="1">  1        1 0.36884851E+00 0.63697133E+03</pdfrwt>
<pdfrwt beam="2">0</pdfrwt>
<totfact> 0.18416711E+00</totfact>
</mgrwt>
</event>
<event>
 6    1  0.2944874E-003  0.6317847E+03  0.7818608E-02  0.9841572E-01
          1   -1    0    0  502    0  0.00000000000E+00  0.00000000000E+00  0.99788718411E+02  0.99788718411E+02  0.00000000000E+00 0.  1.
         13   -1    0    0    0    0 -0.00000000000E+00 -0.00000000000E+00 -0.10000000000E+04  0.10000000000E+04  0.00000000000E+00 0.  1.
    9000005    2    1    2  501    0 -0.36801550891E-04 -0.52765543103E-04 -0.90021201002E+03  0.10997879871E+04  0.63178473683E+03 0.  0.
         13    1    3    3    0    0 -0.28638355535E+03  0.12539282588E+03 -0.37130706168E+03  0.48539451543E+03  0.00000000000E+00 0.  1.
          1    1    3    3  501    0  0.28638351855E+03 -0.12539287865E+03 -0.52890494833E+03  0.61439347171E+03  0.00000000000E+00 0.  1.
         21    1    1    2  502  501  0.36801550885E-04  0.52765543104E-04  0.72842887715E-03  0.73126410124E-03  0.00000000000E+00 0. -1.
<mgrwt>
<rscale>  1 0.63178474E+03</rscale>
<asrwt>0</asrwt>
<pdfrwt beam="1">  1        1 0.36286883E+00 0.63178474E+03</pdfrwt>
<pdfrwt beam="2">0</pdfrwt>
<totfact> 0.19581036E+00</totfact>
</mgrwt>
</event>
<event>
 6    1  0.2944874E-003  0.6354097E+03  0.7818608E-02  0.9834549E-01
          1   -1    0    0  502    0  0.00000000000E+00  0.00000000000E+00  0.10230000597E+03  0.10230000597E+03  0.00000000000E+00 0.  1.
         13   -1    0    0    0    0 -0.00000000000E+00 -0.00000000000E+00 -0.10000000000E+04  0.10000000000E+04  0.00000000000E+00 0.  1.
    9000005    2    1    2  501    0  0.61044957768E-01 -0.21947104047E+00 -0.89905314295E+03  0.11009278157E+04  0.63540967079E+03 0.  0.
         13    1    3    3    0    0  0.17192884582E+02 -0.30301042593E+03 -0.61306830590E+03  0.68407869518E+03  0.00000000000E+00 0.  1.
          3    1    3    3  501    0 -0.17131839624E+02  0.30279095489E+03 -0.28598483705E+03  0.41684912056E+03  0.00000000000E+00 0.  1.
         21    1    1    2  502  501 -0.61044957768E-01  0.21947104047E+00  0.13531489185E+01  0.13721902274E+01  0.00000000000E+00 0.  1.
<mgrwt>
<rscale>  1 0.63540971E+03</rscale>
<asrwt>0</asrwt>
<pdfrwt beam="1">  1        1 0.37200081E+00 0.63540971E+03</pdfrwt>
<pdfrwt beam="2">0</pdfrwt>
<totfact> 0.17843911E+00</totfact>
</mgrwt>
</event>
<event>
 6    1  0.2944874E-003  0.6562347E+03  0.7818608E-02  0.9795150E-01
          1   -1    0    0  502    0  0.00000000000E+00  0.00000000000E+00  0.10766229425E+03  0.10766229425E+03  0.00000000000E+00 0.  1.
         13   -1    0    0    0    0 -0.00000000000E+00 -0.00000000000E+00 -0.10000000000E+04  0.10000000000E+04  0.00000000000E+00 0.  1.
    9000005    2    1    2  501    0  0.13363910156E-04 -0.69010197080E-04 -0.89233900130E+03  0.11076609968E+04  0.65623470693E+03 0.  0.
         13    1    3    3    0    0  0.52414369893E+02 -0.30870772054E+03 -0.28067494058E+03  0.42050700964E+03  0.00000000000E+00 0.  1.
          1    1    3    3  501    0 -0.52414356529E+02  0.30870765153E+03 -0.61166406072E+03  0.68715398715E+03  0.00000000000E+00 0.  1.
         21    1    1    2  502  501 -0.13363910155E-04  0.69010197131E-04  0.12955481327E-02  0.12974536468E-02  0.00000000000E+00 0. -1.
<mgrwt>
<rscale>  1 0.65623471E+03</rscale>
<asrwt>0</asrwt>
<pdfrwt beam="1">  1        1 0.39150008E+00 0.65623471E+03</pdfrwt>
<pdfrwt beam="2">0</pdfrwt>
<totfact> 0.14578438E+00</totfact>
</mgrwt>
</event>
<event>
 6    1  0.2944874E-003  0.6521833E+03  0.7818608E-02  0.9802691E-01
          1   -1    0    0  502    0  0.00000000000E+00  0.00000000000E+00  0.10633821615E+03  0.10633821615E+03  0.00000000000E+00 0.  1.
         13   -1    0    0    0    0 -0.00000000000E+00 -0.00000000000E+00 -0.10000000000E+04  0.10000000000E+04  0.00000000000E+00 0.  1.
    9000005    2    1    2  501    0  0.83470417280E-04 -0.72997973007E-03 -0.89366418500E+03  0.11063357051E+04  0.65218326937E+03 0.  0.
         13    1    3    3    0    0 -0.26230091212E+03  0.39374853125E+02 -0.12504437844E+03  0.29323752171E+03  0.00000000000E+00 0.  1.
          1    1    3    3  501    0  0.26230099559E+03 -0.39375583105E+02 -0.76861980655E+03  0.81309818340E+03  0.00000000000E+00 0.  1.
         21    1    1    2  502  501 -0.83470417254E-04  0.72997973007E-03  0.24011490687E-02  0.25110465084E-02  0.00000000000E+00 0. -1.
<mgrwt>
<rscale>  1 0.65218327E+03</rscale>
<asrwt>0</asrwt>
<pdfrwt beam="1">  1        1 0.38668524E+00 0.65218327E+03</pdfrwt>
<pdfrwt beam="2">0</pdfrwt>
<totfact> 0.15324264E+00</totfact>
</mgrwt>
</event>
<event>
 6    1  0.2944874E-003  0.5990937E+03  0.7818608E-02  0.9907288E-01
          1   -1    0    0  502    0  0.00000000000E+00  0.00000000000E+00  0.89728570104E+02  0.89728570104E+02  0.00000000000E+00 0.  1.
         13   -1    0    0    0    0 -0.00000000000E+00 -0.00000000000E+00 -0.10000000000E+04  0.10000000000E+04  0.00000000000E+00 0.  1.
    9000005    2    1    2  501    0  0.56887691926E-05  0.20054866241E-04 -0.91027169545E+03  0.10897283037E+04  0.59909366249E+03 0.  0.
         13    1    3    3    0    0 -0.25060420090E+03 -0.12592797682E+03 -0.64649870727E+03  0.70471334553E+03  0.00000000000E+00 0.  1.
          1    1    3    3  501    0  0.25060420659E+03  0.12592799687E+03 -0.26377298817E+03  0.38501495821E+03  0.00000000000E+00 0.  1.
         21    1    1    2  502  501 -0.56887691683E-05 -0.20054866245E-04  0.26555092490E-03  0.26636789121E-03  0.00000000000E+00 0. -1.
<mgrwt>
<rscale>  1 0.59909366E+03</rscale>
<asrwt>0</asrwt>
<pdfrwt beam="1">  1        1 0.32628640E+00 0.59909366E+03</pdfrwt>
<pdfrwt beam="2">0</pdfrwt>
<totfact> 0.28413521E+00</totfact>
</mgrwt>
</event>
<event>
 6    1  0.2944874E-003  0.6504338E+03  0.7818608E-02  0.9805966E-01
          1   -1    0    0  502    0  0.00000000000E+00  0.00000000000E+00  0.10706211066E+03  0.10706211066E+03  0.00000000000E+00 0.  1.
         13   -1    0    0    0    0 -0.00000000000E+00 -0.00000000000E+00 -0.10000000000E+04  0.10000000000E+04  0.00000000000E+00 0.  1.
    9000005    2    1    2  501    0 -0.48674985559E+00 -0.35568322468E+00 -0.89415601307E+03  0.11057029707E+04  0.65043348644E+03 0.  0.
         13    1    3    3    0    0  0.55012965036E+01 -0.60186848359E+02  0.96153130937E+02  0.11357000294E+03  0.00000000000E+00 0.  1.
          1    1    3    3  501    0 -0.59880463592E+01  0.59831165135E+02 -0.99030914401E+03  0.99213296777E+03  0.00000000000E+00 0.  1.
         21    1    1    2  502  501  0.48674985559E+00  0.35568322468E+00  0.12181237295E+01  0.13591399481E+01  0.00000000000E+00 0.  1.
<mgrwt>
<rscale>  1 0.65043377E+03</rscale>
<asrwt>0</asrwt>
<pdfrwt beam="1">  1        1 0.38931759E+00 0.65043377E+03</pdfrwt>
<pdfrwt beam="2">0</pdfrwt>
<totfact> 0.14923124E+00</totfact>
</mgrwt>
</event>
<event>
 6    1  0.2944874E-003  0.6751180E+03  0.7818608E-02  0.9760756E-01
          1   -1    0    0  502    0  0.00000000000E+00  0.00000000000E+00  0.11394693556E+03  0.11394693556E+03  0.00000000000E+00 0.  1.
         13   -1    0    0    0    0 -0.00000000000E+00 -0.00000000000E+00 -0.10000000000E+04  0.10000000000E+04  0.00000000000E+00 0.  1.
    9000005    2    1    2  501    0  0.83729577580E-03  0.14020409282E-02 -0.88605292686E+03  0.11139452967E+04  0.67511801557E+03 0.  0.
         13    1    3    3    0    0 -0.29067247139E+03  0.70719479926E+02 -0.70105070199E+03  0.76220982494E+03  0.00000000000E+00 0.  1.
          3    1    3    3  501    0  0.29067330869E+03 -0.70718077885E+02 -0.18500222487E+03  0.35173547181E+03  0.00000000000E+00 0.  1.
         21    1    1    2  502  501 -0.83729577581E-03 -0.14020409282E-02 -0.13757686010E-03  0.16388137090E-02  0.00000000000E+00 0. -1.
<mgrwt>
<rscale>  1 0.67511802E+03</rscale>
<asrwt>0</asrwt>
<pdfrwt beam="1">  1        1 0.41435337E+00 0.67511802E+03</pdfrwt>
<pdfrwt beam="2">0</pdfrwt>
<totfact> 0.11483634E+00</totfact>
</mgrwt>
</event>
<event>
 6    1  0.2944874E-003  0.6635168E+03  0.7818608E-02  0.9781741E-01
          1   -1    0    0  502    0  0.00000000000E+00  0.00000000000E+00  0.11098169313E+03  0.11098169313E+03  0.00000000000E+00 0.  1.
         13   -1    0    0    0    0 -0.00000000000E+00 -0.00000000000E+00 -0.10000000000E+04  0.10000000000E+04  0.00000000000E+00 0.  1.
    9000005    2    1    2  501    0 -0.55119359048E-01 -0.16293293694E+01 -0.88904749073E+03  0.11093511705E+04  0.66351482347E+03 0.  0.
         13    1    3    3    0    0 -0.15360886915E+03  0.26122220402E+03 -0.66682188035E+03  0.73245077969E+03  0.00000000000E+00 0.  1.
          3    1    3    3  501    0  0.15355374979E+03 -0.26285153339E+03 -0.22222561038E+03  0.37690039081E+03  0.00000000000E+00 0.  1.
         21    1    1    2  502  501  0.55119359048E-01  0.16293293694E+01  0.29183861009E-01  0.16305226265E+01  0.00000000000E+00 0.  1.
<mgrwt>
<rscale>  1 0.66351683E+03</rscale>
<asrwt>0</asrwt>
<pdfrwt beam="1">  1        1 0.40357064E+00 0.66351683E+03</pdfrwt>
<pdfrwt beam="2">0</pdfrwt>
<totfact> 0.12863796E+00</totfact>
</mgrwt>
</event>
<event>
 6    1  0.2944874E-003  0.6435602E+03  0.7818608E-02  0.9818939E-01
          1   -1    0    0  502    0  0.00000000000E+00  0.00000000000E+00  0.10358584521E+03  0.10358584521E+03  0.00000000000E+00 0.  1.
         13   -1    0    0    0    0 -0.00000000000E+00 -0.00000000000E+00 -0.10000000000E+04  0.10000000000E+04  0.00000000000E+00 0.  1.
    9000005    2    1    2  501    0  0.10969702737E-01  0.20069625138E-01 -0.89645420665E+03  0.11035397228E+04  0.64356023390E+03 0.  0.
         13    1    3    3    0    0 -0.44457349264E+02 -0.28144740296E+03 -0.70455031093E+03  0.75998699802E+03  0.00000000000E+00 0.  1.
          1    1    3    3  501    0  0.44468318966E+02  0.28146747258E+03 -0.19190389573E+03  0.34355272479E+03  0.00000000000E+00 0.  1.
         21    1    1    2  502  501 -0.10969702737E-01 -0.20069625138E-01  0.40051869561E-01  0.46122407641E-01  0.00000000000E+00 0.  1.
<mgrwt>
<rscale>  1 0.64356023E+03</rscale>
<asrwt>0</asrwt>
<pdfrwt beam="1">  1        1 0.37667660E+00 0.64356023E+03</pdfrwt>
<pdfrwt beam="2">0</pdfrwt>
<totfact> 0.16992875E+00</totfact>
</mgrwt>
</event>
<event>
 6    1  0.2944874E-003  0.6482325E+03  0.7818608E-02  0.9810101E-01
          1   -1    0    0  502    0  0.00000000000E+00  0.00000000000E+00  0.10550024658E+03  0.10550024658E+03  0.00000000000E+00 0.  1.
         13   -1    0    0    0    0 -0.00000000000E+00 -0.00000000000E+00 -0.10000000000E+04  0.10000000000E+04  0.00000000000E+00 0.  1.
    9000005    2    1    2  501    0 -0.47459240578E-01 -0.56965736340E-02 -0.89494724754E+03  0.11050502068E+04  0.64823250564E+03 0.  0.
         13    1    3    3    0    0 -0.39699004015E+02 -0.23450530866E+03 -0.72111352602E+02  0.24853329331E+03  0.00000000000E+00 0.  1.
          3    1    3    3  501    0  0.39651544774E+02  0.23449961209E+03 -0.82283589493E+03  0.85651691347E+03  0.00000000000E+00 0.  1.
         21    1    1    2  502  501  0.47459240578E-01  0.56965736340E-02  0.44749411669E+00  0.45003979261E+00  0.00000000000E+00 0. -1.
<mgrwt>
<rscale>  1 0.64823251E+03</rscale>
<asrwt>0</asrwt>
<pdfrwt beam="1">  1        1 0.38363807E+00 0.64823251E+03</pdfrwt>
<pdfrwt beam="2">0</pdfrwt>
<totfact> 0.15818887E+00</totfact>
</mgrwt>
</event>
<event>
 6    1  0.2944874E-003  0.6463318E+03  0.7818608E-02  0.9813687E-01
          1   -1    0    0  502    0  0.00000000000E+00  0.00000000000E+00  0.10565830449E+03  0.10565830449E+03  0.00000000000E+00 0.  1.
         13   -1    0    0    0    0 -0.00000000000E+00 -0.00000000000E+00 -0.10000000000E+04  0.10000000000E+04  0.00000000000E+00 0.  1.
    9000005    2    1    2  501    0 -0.13150508265E-01 -0.37224125497E-01 -0.89556344516E+03  0.11044359172E+04  0.64633181049E+03 0.  0.
         13    1    3    3    0    0 -0.22853884996E+03  0.13204521284E+02 -0.57997679478E+02  0.23615269668E+03  0.00000000000E+00 0.  1.
          1    1    3    3  501    0  0.22852569945E+03 -0.13241745409E+02 -0.83756576568E+03  0.86828322048E+03  0.00000000000E+00 0.  1.
         21    1    1    2  502  501  0.13150508265E-01  0.37224125497E-01  0.12217496538E+01  0.12223873314E+01  0.00000000000E+00 0.  1.
<mgrwt>
<rscale>  1 0.64633181E+03</rscale>
<asrwt>0</asrwt>
<pdfrwt beam="1">  1        1 0.38421283E+00 0.64633181E+03</pdfrwt>
<pdfrwt beam="2">0</pdfrwt>
<totfact> 0.15732146E+00</totfact>
</mgrwt>
</event>
<event>
 6    1  0.2944874E-003  0.6516332E+03  0.7818608E-02  0.9803719E-01
          1   -1    0    0  502    0  0.00000000000E+00  0.00000000000E+00  0.11101744645E+03  0.11101744645E+03  0.00000000000E+00 0.  1.
         13   -1    0    0    0    0 -0.00000000000E+00 -0.00000000000E+00 -0.10000000000E+04  0.10000000000E+04  0.00000000000E+00 0.  1.
    9000005    2    1    2  501    0  0.21119260424E-01  0.11832493701E+00 -0.89384272642E+03  0.11061557876E+04  0.65163317315E+03 0.  0.
         13    1    3    3    0    0  0.55267896713E+02  0.17533597503E+03  0.97269770332E+01  0.18409741614E+03  0.00000000000E+00 0.  1.
          3    1    3    3  501    0 -0.55246777453E+02 -0.17521765009E+03 -0.90356970345E+03  0.92205837143E+03  0.00000000000E+00 0.  1.
         21    1    1    2  502  501 -0.21119260424E-01 -0.11832493701E+00  0.48601728669E+01  0.48616588845E+01  0.00000000000E+00 0.  1.
<mgrwt>
<rscale>  1 0.65163318E+03</rscale>
<asrwt>0</asrwt>
<pdfrwt beam="1">  1        1 0.40370066E+00 0.65163318E+03</pdfrwt>
<pdfrwt beam="2">0</pdfrwt>
<totfact> 0.12875600E+00</totfact>
</mgrwt>
</event>
<event>
 6    1  0.2944874E-003  0.6366385E+03  0.7818608E-02  0.9832179E-01
          1   -1    0    0  502    0  0.00000000000E+00  0.00000000000E+00  0.10134073839E+03  0.10134073839E+03  0.00000000000E+00 0.  1.
         13   -1    0    0    0    0 -0.00000000000E+00 -0.00000000000E+00 -0.10000000000E+04  0.10000000000E+04  0.00000000000E+00 0.  1.
    9000005    2    1    2  501    0 -0.25059098965E-03  0.11999971978E-02 -0.89867282113E+03  0.11013271236E+04  0.63663851098E+03 0.  0.
         13    1    3    3    0    0  0.30323690467E+03 -0.67118757636E+02 -0.57005158440E+03  0.64916589317E+03  0.00000000000E+00 0.  1.
          3    1    3    3  501    0 -0.30323715526E+03  0.67119957633E+02 -0.32862123673E+03  0.45216123040E+03  0.00000000000E+00 0.  1.
         21    1    1    2  502  501  0.25059098965E-03 -0.11999971978E-02  0.13559520726E-01  0.13614822490E-01  0.00000000000E+00 0.  1.
<mgrwt>
<rscale>  1 0.63663851E+03</rscale>
<asrwt>0</asrwt>
<pdfrwt beam="1">  1        1 0.36851255E+00 0.63663851E+03</pdfrwt>
<pdfrwt beam="2">0</pdfrwt>
<totfact> 0.18480469E+00</totfact>
</mgrwt>
</event>
<event>
 6    1  0.2944874E-003  0.6517324E+03  0.7818608E-02  0.9803534E-01
          1   -1    0    0  502    0  0.00000000000E+00  0.00000000000E+00  0.10619092780E+03  0.10619092780E+03  0.00000000000E+00 0.  1.
         13   -1    0    0    0    0 -0.00000000000E+00 -0.00000000000E+00 -0.10000000000E+04  0.10000000000E+04  0.00000000000E+00 0.  1.
    9000005    2    1    2  501    0  0.36968726484E-02 -0.20276286607E-02 -0.89380866165E+03  0.11061866914E+04  0.65173236278E+03 0.  0.
         13    1    3    3    0    0  0.18192872055E+03  0.42065039333E+02 -0.90018955301E+03  0.91935235805E+03  0.00000000000E+00 0.  1.
          1    1    3    3  501    0 -0.18192502368E+03 -0.42067066961E+02  0.63808913665E+01  0.18683433340E+03  0.00000000000E+00 0.  1.
         21    1    1    2  502  501 -0.36968726484E-02  0.20276286607E-02 -0.41055065230E-03  0.42363542348E-02  0.00000000000E+00 0.  1.
<mgrwt>
<rscale>  1 0.65173236E+03</rscale>
<asrwt>0</asrwt>
<pdfrwt beam="1">  1        1 0.38614964E+00 0.65173236E+03</pdfrwt>
<pdfrwt beam="2">0</pdfrwt>
<totfact> 0.15409432E+00</totfact>
</mgrwt>
</event>
<event>
 6    1  0.2944874E-003  0.7004839E+03  0.7818608E-02  0.9716405E-01
          1   -1    0    0  502    0  0.00000000000E+00  0.00000000000E+00  0.12267749810E+03  0.12267749810E+03  0.00000000000E+00 0.  1.
         13   -1    0    0    0    0 -0.00000000000E+00 -0.00000000000E+00 -0.10000000000E+04  0.10000000000E+04  0.00000000000E+00 0.  1.
    9000005    2    1    2  501    0 -0.19427418187E-03  0.32890492053E-03 -0.87733058024E+03  0.11226694107E+04  0.70048387473E+03 0.  0.
         13    1    3    3    0    0 -0.34227673027E+03 -0.13748457268E+02 -0.32168879143E+03  0.46992133245E+03  0.00000000000E+00 0.  1.
          1    1    3    3  501    0  0.34227653600E+03  0.13748786173E+02 -0.55564178881E+03  0.65274807827E+03  0.00000000000E+00 0.  1.
         21    1    1    2  502  501  0.19427418186E-03 -0.32890492053E-03  0.80783409702E-02  0.80873675405E-02  0.00000000000E+00 0. -1.
<mgrwt>
<rscale>  1 0.70048387E+03</rscale>
<asrwt>0</asrwt>
<pdfrwt beam="1">  1        1 0.44610093E+00 0.70048387E+03</pdfrwt>
<pdfrwt beam="2">0</pdfrwt>
<totfact> 0.81962018E-01</totfact>
</mgrwt>
</event>
<event>
 6    1  0.2944874E-003  0.6309631E+03  0.7818608E-02  0.9843171E-01
          1   -1    0    0  502    0  0.00000000000E+00  0.00000000000E+00  0.10053750876E+03  0.10053750876E+03  0.00000000000E+00 0.  1.
         13   -1    0    0    0    0 -0.00000000000E+00 -0.00000000000E+00 -0.10000000000E+04  0.10000000000E+04  0.00000000000E+00 0.  1.
    9000005    2    1    2  501    0  0.35527461824E+00 -0.17973329279E+00 -0.90042803593E+03  0.10994930947E+04  0.63096296162E+03 0.  0.
         13    1    3    3    0    0 -0.13538035661E+03  0.24558109004E+03 -0.19869885890E+03  0.34368466546E+03  0.00000000000E+00 0.  1.
          3    1    3    3  501    0  0.13573563123E+03 -0.24576082333E+03 -0.70172917703E+03  0.75580842928E+03  0.00000000000E+00 0.  1.
         21    1    1    2  502  501 -0.35527461824E+00  0.17973329279E+00  0.96554469661E+00  0.10444140329E+01  0.00000000000E+00 0. -1.
<mgrwt>
<rscale>  1 0.63096309E+03</rscale>
<asrwt>0</asrwt>
<pdfrwt beam="1">  1        1 0.36559171E+00 0.63096309E+03</pdfrwt>
<pdfrwt beam="2">0</pdfrwt>
<totfact> 0.19053393E+00</totfact>
</mgrwt>
</event>
<event>
 6    1  0.2944874E-003  0.6621551E+03  0.7818608E-02  0.9784235E-01
          1   -1    0    0  502    0  0.00000000000E+00  0.00000000000E+00  0.11205325431E+03  0.11205325431E+03  0.00000000000E+00 0.  1.
         13   -1    0    0    0    0 -0.00000000000E+00 -0.00000000000E+00 -0.10000000000E+04  0.10000000000E+04  0.00000000000E+00 0.  1.
    9000005    2    1    2  501    0 -0.72198166021E-01 -0.13503286595E+01 -0.89017804397E+03  0.11094441755E+04  0.66215375862E+03 0.  0.
         13    1    3    3    0    0 -0.32800658897E+03  0.22712420449E+02 -0.38017492282E+03  0.50263023028E+03  0.00000000000E+00 0.  1.
          3    1    3    3  501    0  0.32793439081E+03 -0.24062749108E+02 -0.51000312115E+03  0.60681394525E+03  0.00000000000E+00 0.  1.
         21    1    1    2  502  501  0.72198166021E-01  0.13503286595E+01  0.22312982754E+01  0.26090787757E+01  0.00000000000E+00 0.  1.
<mgrwt>
<rscale>  1 0.66215514E+03</rscale>
<asrwt>0</asrwt>
<pdfrwt beam="1">  1        1 0.40746724E+00 0.66215514E+03</pdfrwt>
<pdfrwt beam="2">0</pdfrwt>
<totfact> 0.12360938E+00</totfact>
</mgrwt>
</event>
<event>
 6    1  0.2944874E-003  0.6568166E+03  0.7818608E-02  0.9794072E-01
          1   -1    0    0  502    0  0.00000000000E+00  0.00000000000E+00  0.12898580786E+03  0.12898580786E+03  0.00000000000E+00 0.  1.
         13   -1    0    0    0    0 -0.00000000000E+00 -0.00000000000E+00 -0.10000000000E+04  0.10000000000E+04  0.00000000000E+00 0.  1.
    9000005    2    1    2  501    0  0.56990081126E+02  0.20230658331E+02 -0.81317696430E+03  0.10453060982E+04  0.65402669272E+03 0.  0.
         13    1    3    3    0    0  0.22729027962E+03 -0.94731834836E+02 -0.80264182496E+03  0.83956470323E+03  0.00000000000E+00 0.  1.
          3    1    3    3  501    0 -0.17030019850E+03  0.11496249317E+03 -0.10535139340E+02  0.20574139497E+03  0.00000000000E+00 0.  1.
         21    1    1    2  502  501 -0.56990081126E+02 -0.20230658331E+02 -0.57837227843E+02  0.83679709654E+02  0.00000000000E+00 0. -1.
<mgrwt>
<rscale>  1 0.65681661E+03</rscale>
<asrwt>0</asrwt>
<pdfrwt beam="1">  1        1 0.46904029E+00 0.65681661E+03</pdfrwt>
<pdfrwt beam="2">0</pdfrwt>
<totfact> 0.64730523E-01</totfact>
</mgrwt>
</event>
<event>
 6    1  0.2944874E-003  0.6438036E+03  0.7818608E-02  0.9818476E-01
          1   -1    0    0  502    0  0.00000000000E+00  0.00000000000E+00  0.10362078482E+03  0.10362078482E+03  0.00000000000E+00 0.  1.
         13   -1    0    0    0    0 -0.00000000000E+00 -0.00000000000E+00 -0.10000000000E+04  0.10000000000E+04  0.00000000000E+00 0.  1.
    9000005    2    1    2  501    0  0.28308745890E-04  0.14539701169E-04 -0.89637915845E+03  0.11036207198E+04  0.64380361712E+03 0.  0.
         13    1    3    3    0    0  0.12633623870E+02 -0.31064876469E+03 -0.30519338255E+03  0.43566645982E+03  0.00000000000E+00 0.  1.
          1    1    3    3  501    0 -0.12633595562E+02  0.31064877923E+03 -0.59118577590E+03  0.66795425996E+03  0.00000000000E+00 0.  1.
         21    1    1    2  502  501 -0.28308745890E-04 -0.14539701189E-04 -0.56725703987E-04  0.65043012672E-04  0.00000000000E+00 0.  1.
<mgrwt>
<rscale>  1 0.64380362E+03</rscale>
<asrwt>0</asrwt>
<pdfrwt beam="1">  1        1 0.37680365E+00 0.64380362E+03</pdfrwt>
<pdfrwt beam="2">0</pdfrwt>
<totfact> 0.16970232E+00</totfact>
</mgrwt>
</event>
<event>
 6    1  0.2944874E-003  0.6614520E+03  0.7818608E-02  0.9785525E-01
          1   -1    0    0  502    0  0.00000000000E+00  0.00000000000E+00  0.10960222765E+03  0.10960222765E+03  0.00000000000E+00 0.  1.
         13   -1    0    0    0    0 -0.00000000000E+00 -0.00000000000E+00 -0.10000000000E+04  0.10000000000E+04  0.00000000000E+00 0.  1.
    9000005    2    1    2  501    0  0.15220636703E+00  0.54857358832E+00 -0.89009328400E+03  0.11089566171E+04  0.66145173701E+03 0.  0.
         13    1    3    3    0    0  0.26737293211E+03  0.13184720931E+03 -0.68602657802E+03  0.74800029223E+03  0.00000000000E+00 0.  1.
          1    1    3    3  501    0 -0.26722072574E+03 -0.13129863572E+03 -0.20406670598E+03  0.36095632492E+03  0.00000000000E+00 0.  1.
         21    1    1    2  502  501 -0.15220636703E+00 -0.54857358832E+00 -0.30448835095E+00  0.64561049854E+00  0.00000000000E+00 0. -1.
<mgrwt>
<rscale>  1 0.66145198E+03</rscale>
<asrwt>0</asrwt>
<pdfrwt beam="1">  1        1 0.39855440E+00 0.66145198E+03</pdfrwt>
<pdfrwt beam="2">0</pdfrwt>
<totfact> 0.13549370E+00</totfact>
</mgrwt>
</event>
<event>
 6    1  0.2944874E-003  0.6350316E+03  0.7818608E-02  0.9835279E-01
          1   -1    0    0  502    0  0.00000000000E+00  0.00000000000E+00  0.10081767852E+03  0.10081767852E+03  0.00000000000E+00 0.  1.
         13   -1    0    0    0    0 -0.00000000000E+00 -0.00000000000E+00 -0.10000000000E+04  0.10000000000E+04  0.00000000000E+00 0.  1.
    9000005    2    1    2  501    0  0.35780541424E-04  0.11865064749E-04 -0.89918371274E+03  0.11008162868E+04  0.63503161176E+03 0.  0.
         13    1    3    3    0    0 -0.22031573215E+03 -0.21155106435E+03 -0.59994986546E+03  0.67322560537E+03  0.00000000000E+00 0.  1.
          1    1    3    3  501    0  0.22031576793E+03  0.21155107622E+03 -0.29923384728E+03  0.42759068139E+03  0.00000000000E+00 0.  1.
         21    1    1    2  502  501 -0.35780541419E-04 -0.11865064740E-04  0.13912570925E-02  0.13917676977E-02  0.00000000000E+00 0. -1.
<mgrwt>
<rscale>  1 0.63503161E+03</rscale>
<asrwt>0</asrwt>
<pdfrwt beam="1">  1        1 0.36661051E+00 0.63503161E+03</pdfrwt>
<pdfrwt beam="2">0</pdfrwt>
<totfact> 0.18844489E+00</totfact>
</mgrwt>
</event>
<event>
 6    1  0.3936270E-003  0.6331374E+03  0.7818608E-02  0.9838945E-01
          1   -1    0    0  502    0  0.00000000000E+00  0.00000000000E+00  0.10021575369E+03  0.10021575369E+03  0.00000000000E+00 0.  1.
         13   -1    0    0    0    0 -0.00000000000E+00 -0.00000000000E+00 -0.10000000000E+04  0.10000000000E+04  0.00000000000E+00 0.  1.
    9000005    2    1    2  501    0 -0.22489125854E-04 -0.98141647982E-05 -0.89978424346E+03  0.11002157290E+04  0.63313739862E+03 0.  0.
         13    1    3    3    0    0 -0.10513489488E+03 -0.88588982938E+02  0.45630609047E+02  0.14485684831E+03  0.00000000000E+00 0.  1.
          1    1    3    3  501    0  0.10513487240E+03  0.88588973124E+02 -0.94541485250E+03  0.95535888067E+03  0.00000000000E+00 0.  1.
         21    1    1    2  502  501  0.22489125847E-04  0.98141648068E-05 -0.28574663330E-05  0.24703111668E-04  0.00000000000E+00 0. -1.
<mgrwt>
<rscale>  1 0.63313740E+03</rscale>
<asrwt>0</asrwt>
<pdfrwt beam="1">  1        1 0.36442169E+00 0.63313740E+03</pdfrwt>
<pdfrwt beam="2">0</pdfrwt>
<totfact> 0.19272051E+00</totfact>
</mgrwt>
</event>
<event>
 6    1  0.3696824E-003  0.6540534E+03  0.7818608E-02  0.9799203E-01
          1   -1    0    0  502    0  0.00000000000E+00  0.00000000000E+00  0.10694648616E+03  0.10694648616E+03  0.00000000000E+00 0.  1.
         13   -1    0    0    0    0 -0.00000000000E+00 -0.00000000000E+00 -0.10000000000E+04  0.10000000000E+04  0.00000000000E+00 0.  1.
    9000005    2    1    2  501    0 -0.72773188720E-06 -0.16075030288E-04 -0.89305351322E+03  0.11069464701E+04  0.65405344591E+03 0.  0.
         13    1    3    3    0    0  0.12414219093E+03 -0.19513074563E+03 -0.55213502563E+02  0.23777262737E+03  0.00000000000E+00 0.  1.
          3    1    3    3  501    0 -0.12414219166E+03  0.19513072956E+03 -0.83784001065E+03  0.86917384269E+03  0.00000000000E+00 0.  1.
         21    1    1    2  502  501  0.72773188763E-06  0.16075030286E-04 -0.62155918415E-06  0.16103494286E-04  0.00000000000E+00 0.  1.
<mgrwt>
<rscale>  1 0.65405345E+03</rscale>
<asrwt>0</asrwt>
<pdfrwt beam="1">  1        1 0.38889713E+00 0.65405345E+03</pdfrwt>
<pdfrwt beam="2">0</pdfrwt>
<totfact> 0.14977227E+00</totfact>
</mgrwt>
</event>
<event>
 6    1  0.2944874E-003  0.5995598E+03  0.7818608E-02  0.9906320E-01
          1   -1    0    0  502    0  0.00000000000E+00  0.00000000000E+00  0.89868436236E+02  0.89868436236E+02  0.00000000000E+00 0.  1.
         13   -1    0    0    0    0 -0.00000000000E+00 -0.00000000000E+00 -0.10000000000E+04  0.10000000000E+04  0.00000000000E+00 0.  1.
    9000005    2    1    2  501    0 -0.75423165157E-04 -0.26228192496E-03 -0.91013196639E+03  0.10898679498E+04  0.59955979837E+03 0.  0.
         13    1    3    3    0    0  0.17334774122E+03  0.17697927768E+03 -0.76192535808E+03  0.80118746583E+03  0.00000000000E+00 0.  1.
          1    1    3    3  501    0 -0.17334781664E+03 -0.17697953996E+03 -0.14820660831E+03  0.28868048400E+03  0.00000000000E+00 0.  1.
         21    1    1    2  502  501  0.75423165181E-04  0.26228192496E-03  0.40262657225E-03  0.48640376097E-03  0.00000000000E+00 0. -1.
<mgrwt>
<rscale>  1 0.59955980E+03</rscale>
<asrwt>0</asrwt>
<pdfrwt beam="1">  1        1 0.32679500E+00 0.59955980E+03</pdfrwt>
<pdfrwt beam="2">0</pdfrwt>
<totfact> 0.28267546E+00</totfact>
</mgrwt>
</event>
<event>
 6    1  0.2944874E-003  0.6480395E+03  0.7818608E-02  0.9810465E-01
          1   -1    0    0  502    0  0.00000000000E+00  0.00000000000E+00  0.11465122750E+03  0.11465122750E+03  0.00000000000E+00 0.  1.
         13   -1    0    0    0    0 -0.00000000000E+00 -0.00000000000E+00 -0.10000000000E+04  0.10000000000E+04  0.00000000000E+00 0.  1.
    9000005    2    1    2  501    0 -0.36519468267E+01  0.88710042609E+00 -0.89460578355E+03  0.11046604359E+04  0.64802858507E+03 0.  0.
         13    1    3    3    0    0 -0.28982343235E+03  0.10613598056E+03 -0.62750602509E+03  0.69930413972E+03  0.00000000000E+00 0.  1.
          3    1    3    3  501    0  0.28617148553E+03 -0.10524888014E+03 -0.26709975846E+03  0.40535629620E+03  0.00000000000E+00 0.  1.
         21    1    1    2  502  501  0.36519468267E+01 -0.88710042609E+00  0.92570110485E+01  0.99907915774E+01  0.00000000000E+00 0. -1.
<mgrwt>
<rscale>  1 0.64803948E+03</rscale>
<asrwt>0</asrwt>
<pdfrwt beam="1">  1        1 0.41691443E+00 0.64803948E+03</pdfrwt>
<pdfrwt beam="2">0</pdfrwt>
<totfact> 0.11241553E+00</totfact>
</mgrwt>
</event>
<event>
 6    1  0.2944874E-003  0.6326176E+03  0.7818608E-02  0.9839954E-01
          1   -1    0    0  502    0  0.00000000000E+00  0.00000000000E+00  0.10683101861E+03  0.10683101861E+03  0.00000000000E+00 0.  1.
         13   -1    0    0    0    0 -0.00000000000E+00 -0.00000000000E+00 -0.10000000000E+04  0.10000000000E+04  0.00000000000E+00 0.  1.
    9000005    2    1    2  501    0 -0.97200844797E+00 -0.18928649053E+00 -0.89990893896E+03  0.11000187020E+04  0.63261683953E+03 0.  0.
         13    1    3    3    0    0  0.28160349327E+03  0.72345581208E+02 -0.23472341373E+03  0.37367029786E+03  0.00000000000E+00 0.  1.
          3    1    3    3  501    0 -0.28257550172E+03 -0.72534867699E+02 -0.66518552523E+03  0.72634840413E+03  0.00000000000E+00 0.  1.
         21    1    1    2  502  501  0.97200844797E+00  0.18928649053E+00  0.67399575675E+01  0.68123166258E+01  0.00000000000E+00 0. -1.
<mgrwt>
<rscale>  1 0.63261761E+03</rscale>
<asrwt>0</asrwt>
<pdfrwt beam="1">  1        1 0.38847725E+00 0.63261761E+03</pdfrwt>
<pdfrwt beam="2">0</pdfrwt>
<totfact> 0.15102195E+00</totfact>
</mgrwt>
</event>
<event>
 6    1  0.2944874E-003  0.6537341E+03  0.7818608E-02  0.9799798E-01
          1   -1    0    0  502    0  0.00000000000E+00  0.00000000000E+00  0.10684211176E+03  0.10684211176E+03  0.00000000000E+00 0.  1.
         13   -1    0    0    0    0 -0.00000000000E+00 -0.00000000000E+00 -0.10000000000E+04  0.10000000000E+04  0.00000000000E+00 0.  1.
    9000005    2    1    2  501    0 -0.60292479674E-04  0.33748945981E-04 -0.89315788963E+03  0.11068420426E+04  0.65373411381E+03 0.  0.
         13    1    3    3    0    0 -0.20702747882E+03 -0.22253253780E+03 -0.24297640246E+03  0.38912548042E+03  0.00000000000E+00 0.  1.
          3    1    3    3  501    0  0.20702741853E+03  0.22253257154E+03 -0.65018148718E+03  0.71771656222E+03  0.00000000000E+00 0.  1.
         21    1    1    2  502  501  0.60292479681E-04 -0.33748945987E-04  0.13888493217E-05  0.69109358004E-04  0.00000000000E+00 0.  1.
<mgrwt>
<rscale>  1 0.65373411E+03</rscale>
<asrwt>0</asrwt>
<pdfrwt beam="1">  1        1 0.38851759E+00 0.65373411E+03</pdfrwt>
<pdfrwt beam="2">0</pdfrwt>
<totfact> 0.15036237E+00</totfact>
</mgrwt>
</event>
<event>
 6    1  0.2944874E-003  0.6584562E+03  0.7818608E-02  0.9791040E-01
          1   -1    0    0  502    0  0.00000000000E+00  0.00000000000E+00  0.10839128063E+03  0.10839128063E+03  0.00000000000E+00 0.  1.
         13   -1    0    0    0    0 -0.00000000000E+00 -0.00000000000E+00 -0.10000000000E+04  0.10000000000E+04  0.00000000000E+00 0.  1.
    9000005    2    1    2  501    0  0.15030974907E-04  0.63162603396E-05 -0.89160884196E+03  0.11083911570E+04  0.65845624742E+03 0.  0.
         13    1    3    3    0    0  0.26376623408E+03 -0.82089735744E+02 -0.14430810305E+03  0.31166677648E+03  0.00000000000E+00 0.  1.
          3    1    3    3  501    0 -0.26376621905E+03  0.82089742061E+02 -0.74730073891E+03  0.79672438048E+03  0.00000000000E+00 0.  1.
         21    1    1    2  502  501 -0.15030974868E-04 -0.63162603401E-05  0.12258893199E-03  0.12366839369E-03  0.00000000000E+00 0. -1.
<mgrwt>
<rscale>  1 0.65845625E+03</rscale>
<asrwt>0</asrwt>
<pdfrwt beam="1">  1        1 0.39415094E+00 0.65845625E+03</pdfrwt>
<pdfrwt beam="2">0</pdfrwt>
<totfact> 0.14182661E+00</totfact>
</mgrwt>
</event>
<event>
 6    1  0.2944874E-003  0.6250761E+03  0.7818608E-02  0.9854705E-01
          1   -1    0    0  502    0  0.00000000000E+00  0.00000000000E+00  0.97732575186E+02  0.97732575186E+02  0.00000000000E+00 0.  1.
         13   -1    0    0    0    0 -0.00000000000E+00 -0.00000000000E+00 -0.10000000000E+04  0.10000000000E+04  0.00000000000E+00 0.  1.
    9000005    2    1    2  501    0  0.16328825568E-01  0.42962028016E-01 -0.90230871496E+03  0.10976707913E+04  0.62507611295E+03 0.  0.
         13    1    3    3    0    0  0.24373064295E+03 -0.19548991470E+03 -0.46413001653E+03  0.55949763655E+03  0.00000000000E+00 0.  1.
          1    1    3    3  501    0 -0.24371431412E+03  0.19553287673E+03 -0.43817869843E+03  0.53817315480E+03  0.00000000000E+00 0.  1.
         21    1    1    2  502  501 -0.16328825568E-01 -0.42962028016E-01  0.41290145348E-01  0.61783836871E-01  0.00000000000E+00 0. -1.
<mgrwt>
<rscale>  1 0.62507611E+03</rscale>
<asrwt>0</asrwt>
<pdfrwt beam="1">  1        1 0.35539193E+00 0.62507611E+03</pdfrwt>
<pdfrwt beam="2">0</pdfrwt>
<totfact> 0.21137336E+00</totfact>
</mgrwt>
</event>
<event>
 6    1  0.2944874E-003  0.6556138E+03  0.7818608E-02  0.9796302E-01
          1   -1    0    0  502    0  0.00000000000E+00  0.00000000000E+00  0.10745766727E+03  0.10745766727E+03  0.00000000000E+00 0.  1.
         13   -1    0    0    0    0 -0.00000000000E+00 -0.00000000000E+00 -0.10000000000E+04  0.10000000000E+04  0.00000000000E+00 0.  1.
    9000005    2    1    2  501    0 -0.23935436388E-05 -0.21230181289E-04 -0.89254264387E+03  0.11074573554E+04  0.65561377571E+03 0.  0.
         13    1    3    3    0    0 -0.36627195017E+02 -0.32434097426E+03 -0.49747206359E+03  0.59499333866E+03  0.00000000000E+00 0.  1.
          3    1    3    3  501    0  0.36627192624E+02  0.32434095303E+03 -0.39507058028E+03  0.51246401674E+03  0.00000000000E+00 0.  1.
         21    1    1    2  502  501  0.23935436442E-05  0.21230181298E-04  0.31114038026E-03  0.31187302845E-03  0.00000000000E+00 0. -1.
<mgrwt>
<rscale>  1 0.65561378E+03</rscale>
<asrwt>0</asrwt>
<pdfrwt beam="1">  1        1 0.39075598E+00 0.65561378E+03</pdfrwt>
<pdfrwt beam="2">0</pdfrwt>
<totfact> 0.14691392E+00</totfact>
</mgrwt>
</event>
<event>
 6    1  0.2944874E-003  0.6411031E+03  0.7818608E-02  0.9823618E-01
          1   -1    0    0  502    0  0.00000000000E+00  0.00000000000E+00  0.10275331612E+03  0.10275331612E+03  0.00000000000E+00 0.  1.
         13   -1    0    0    0    0 -0.00000000000E+00 -0.00000000000E+00 -0.10000000000E+04  0.10000000000E+04  0.00000000000E+00 0.  1.
    9000005    2    1    2  501    0  0.31851571016E-04  0.34443845095E-04 -0.89724667288E+03  0.11027532679E+04  0.64110309464E+03 0.  0.
         13    1    3    3    0    0  0.55234074149E+02  0.30289692773E+03 -0.29519818476E+03  0.42654345624E+03  0.00000000000E+00 0.  1.
          3    1    3    3  501    0 -0.55234042297E+02 -0.30289689329E+03 -0.60204848812E+03  0.67620981170E+03  0.00000000000E+00 0.  1.
         21    1    1    2  502  501 -0.31851571018E-04 -0.34443845121E-04 -0.11001136027E-04  0.48186367750E-04  0.00000000000E+00 0.  1.
<mgrwt>
<rscale>  1 0.64110309E+03</rscale>
<asrwt>0</asrwt>
<pdfrwt beam="1">  1        1 0.37364921E+00 0.64110309E+03</pdfrwt>
<pdfrwt beam="2">0</pdfrwt>
<totfact> 0.17530290E+00</totfact>
</mgrwt>
</event>
<event>
 6    1  0.2944874E-003  0.6579162E+03  0.7818608E-02  0.9792037E-01
          1   -1    0    0  502    0  0.00000000000E+00  0.00000000000E+00  0.11367242800E+03  0.11367242800E+03  0.00000000000E+00 0.  1.
         13   -1    0    0    0    0 -0.00000000000E+00 -0.00000000000E+00 -0.10000000000E+04  0.10000000000E+04  0.00000000000E+00 0.  1.
    9000005    2    1    2  501    0 -0.16627577849E+00  0.32562782610E+00 -0.89177978250E+03  0.11082079719E+04  0.65791610015E+03 0.  0.
         13    1    3    3    0    0  0.20821491535E+03 -0.22692904920E+03 -0.63959151521E+03  0.70987854642E+03  0.00000000000E+00 0.  1.
          1    1    3    3  501    0 -0.20838119113E+03  0.22725467703E+03 -0.25218826729E+03  0.39832942548E+03  0.00000000000E+00 0.  1.
         21    1    1    2  502  501  0.16627577849E+00 -0.32562782610E+00  0.54522104956E+01  0.54644560941E+01  0.00000000000E+00 0.  1.
<mgrwt>
<rscale>  1 0.65791620E+03</rscale>
<asrwt>0</asrwt>
<pdfrwt beam="1">  1        1 0.41335516E+00 0.65791620E+03</pdfrwt>
<pdfrwt beam="2">0</pdfrwt>
<totfact> 0.11641131E+00</totfact>
</mgrwt>
</event>
<event>
 6    1  0.2944874E-003  0.6761372E+03  0.7818608E-02  0.9758934E-01
          1   -1    0    0  502    0  0.00000000000E+00  0.00000000000E+00  0.11429050949E+03  0.11429050949E+03  0.00000000000E+00 0.  1.
         13   -1    0    0    0    0 -0.00000000000E+00 -0.00000000000E+00 -0.10000000000E+04  0.10000000000E+04  0.00000000000E+00 0.  1.
    9000005    2    1    2  501    0 -0.10979294046E-04 -0.23024582134E-04 -0.88570963497E+03  0.11142903628E+04  0.67613715704E+03 0.  0.
         13    1    3    3    0    0  0.20399605675E+03  0.21057599829E+03 -0.72026047003E+03  0.77764502630E+03  0.00000000000E+00 0.  1.
          1    1    3    3  501    0 -0.20399606773E+03 -0.21057602132E+03 -0.16544916494E+03  0.33664533650E+03  0.00000000000E+00 0.  1.
         21    1    1    2  502  501  0.10979294028E-04  0.23024582132E-04  0.14446114316E-03  0.14669593778E-03  0.00000000000E+00 0. -1.
<mgrwt>
<rscale>  1 0.67613716E+03</rscale>
<asrwt>0</asrwt>
<pdfrwt beam="1">  1        1 0.41560273E+00 0.67613716E+03</pdfrwt>
<pdfrwt beam="2">0</pdfrwt>
<totfact> 0.11333743E+00</totfact>
</mgrwt>
</event>
<event>
 6    1  0.2944874E-003  0.6503133E+03  0.7818608E-02  0.9806191E-01
          1   -1    0    0  502    0  0.00000000000E+00  0.00000000000E+00  0.10584501752E+03  0.10584501752E+03  0.00000000000E+00 0.  1.
         13   -1    0    0    0    0 -0.00000000000E+00 -0.00000000000E+00 -0.10000000000E+04  0.10000000000E+04  0.00000000000E+00 0.  1.
    9000005    2    1    2  501    0  0.11685605591E-01 -0.18990170061E-01 -0.89427198162E+03  0.11057259126E+04  0.65031332156E+03 0.  0.
         13    1    3    3    0    0  0.45027158819E+01  0.30922826787E+03 -0.27642673272E+03  0.41479408707E+03  0.00000000000E+00 0.  1.
          1    1    3    3  501    0 -0.44910302763E+01 -0.30924725804E+03 -0.61784524890E+03  0.69093182554E+03  0.00000000000E+00 0.  1.
         21    1    1    2  502  501 -0.11685605591E-01  0.18990170061E-01  0.11699914941E+00  0.11910491551E+00  0.00000000000E+00 0. -1.
<mgrwt>
<rscale>  1 0.65031332E+03</rscale>
<asrwt>0</asrwt>
<pdfrwt beam="1">  1        1 0.38489178E+00 0.65031332E+03</pdfrwt>
<pdfrwt beam="2">0</pdfrwt>
<totfact> 0.15612259E+00</totfact>
</mgrwt>
</event>
<event>
 6    1  0.2944874E-003  0.6329810E+03  0.7818608E-02  0.9839249E-01
          1   -1    0    0  502    0  0.00000000000E+00  0.00000000000E+00  0.10016626688E+03  0.10016626688E+03  0.00000000000E+00 0.  1.
         13   -1    0    0    0    0 -0.00000000000E+00 -0.00000000000E+00 -0.10000000000E+04  0.10000000000E+04  0.00000000000E+00 0.  1.
    9000005    2    1    2  501    0  0.20251633714E-04 -0.13709957045E-05 -0.89983376284E+03  0.11001662309E+04  0.63298099090E+03 0.  0.
         13    1    3    3    0    0  0.19654898805E+03  0.15214202451E+03 -0.79045268363E+03  0.82860976665E+03  0.00000000000E+00 0.  1.
          1    1    3    3  501    0 -0.19654896780E+03 -0.15214202588E+03 -0.10938107921E+03  0.27155646424E+03  0.00000000000E+00 0.  1.
         21    1    1    2  502  501 -0.20251633711E-04  0.13709957134E-05  0.29725262791E-04  0.35994437698E-04  0.00000000000E+00 0. -1.
<mgrwt>
<rscale>  1 0.63298099E+03</rscale>
<asrwt>0</asrwt>
<pdfrwt beam="1">  1        1 0.36424174E+00 0.63298099E+03</pdfrwt>
<pdfrwt beam="2">0</pdfrwt>
<totfact> 0.19307615E+00</totfact>
</mgrwt>
</event>
<event>
 6    1  0.2944874E-003  0.6515199E+03  0.7818608E-02  0.9803931E-01
          1   -1    0    0  502    0  0.00000000000E+00  0.00000000000E+00  0.10612502672E+03  0.10612502672E+03  0.00000000000E+00 0.  1.
         13   -1    0    0    0    0 -0.00000000000E+00 -0.00000000000E+00 -0.10000000000E+04  0.10000000000E+04  0.00000000000E+00 0.  1.
    9000005    2    1    2  501    0 -0.47038874745E-03 -0.30335917086E-03 -0.89388043541E+03  0.11061195360E+04  0.65151991151E+03 0.  0.
         13    1    3    3    0    0 -0.32811469062E+02  0.32110119147E+03 -0.37222159189E+03  0.49267786751E+03  0.00000000000E+00 0.  1.
          1    1    3    3  501    0  0.32810998673E+02 -0.32110149483E+03 -0.52165884351E+03  0.61344166848E+03  0.00000000000E+00 0.  1.
         21    1    1    2  502  501  0.47038874745E-03  0.30335917087E-03  0.54621222330E-02  0.54907259673E-02  0.00000000000E+00 0. -1.
<mgrwt>
<rscale>  1 0.65151991E+03</rscale>
<asrwt>0</asrwt>
<pdfrwt beam="1">  1        1 0.38591000E+00 0.65151991E+03</pdfrwt>
<pdfrwt beam="2">0</pdfrwt>
<totfact> 0.15447714E+00</totfact>
</mgrwt>
</event>
<event>
 6    1  0.2944874E-003  0.6381773E+03  0.7818608E-02  0.9829220E-01
          1   -1    0    0  502    0  0.00000000000E+00  0.00000000000E+00  0.10181782384E+03  0.10181782384E+03  0.00000000000E+00 0.  1.
         13   -1    0    0    0    0 -0.00000000000E+00 -0.00000000000E+00 -0.10000000000E+04  0.10000000000E+04  0.00000000000E+00 0.  1.
    9000005    2    1    2  501    0  0.26406196604E-04 -0.11605584115E-03 -0.89818241315E+03  0.11018175586E+04  0.63817731488E+03 0.  0.
         13    1    3    3    0    0  0.40054669215E+02  0.29763358000E+03 -0.63526121155E+03  0.70267128258E+03  0.00000000000E+00 0.  1.
          3    1    3    3  501    0 -0.40054642809E+02 -0.29763369605E+03 -0.26292120160E+03  0.39914627606E+03  0.00000000000E+00 0.  1.
         21    1    1    2  502  501 -0.26406196604E-04  0.11605584115E-03  0.23698754251E-03  0.26519679634E-03  0.00000000000E+00 0.  1.
<mgrwt>
<rscale>  1 0.63817731E+03</rscale>
<asrwt>0</asrwt>
<pdfrwt beam="1">  1        1 0.37024741E+00 0.63817731E+03</pdfrwt>
<pdfrwt beam="2">0</pdfrwt>
<totfact> 0.18154078E+00</totfact>
</mgrwt>
</event>
<event>
 6    1  0.2944874E-003  0.6344479E+03  0.7818608E-02  0.9836407E-01
          1   -1    0    0  502    0  0.00000000000E+00  0.00000000000E+00  0.10064228859E+03  0.10064228859E+03  0.00000000000E+00 0.  1.
         13   -1    0    0    0    0 -0.00000000000E+00 -0.00000000000E+00 -0.10000000000E+04  0.10000000000E+04  0.00000000000E+00 0.  1.
    9000005    2    1    2  501    0  0.15623119700E-02 -0.25953688744E-02 -0.89936874666E+03  0.11006308451E+04  0.63444788179E+03 0.  0.
         13    1    3    3    0    0 -0.71077924609E+02  0.26314564315E+03 -0.16817374897E+03  0.32028129936E+03  0.00000000000E+00 0.  1.
          1    1    3    3  501    0  0.71079486921E+02 -0.26314823852E+03 -0.73119499769E+03  0.78034954574E+03  0.00000000000E+00 0.  1.
         21    1    1    2  502  501 -0.15623119700E-02  0.25953688744E-02  0.11035245807E-01  0.11443487594E-01  0.00000000000E+00 0.  1.
<mgrwt>
<rscale>  1 0.63444788E+03</rscale>
<asrwt>0</asrwt>
<pdfrwt beam="1">  1        1 0.36597273E+00 0.63444788E+03</pdfrwt>
<pdfrwt beam="2">0</pdfrwt>
<totfact> 0.18968235E+00</totfact>
</mgrwt>
</event>
<event>
 6    1  0.2944874E-003  0.6469193E+03  0.7818608E-02  0.9812577E-01
          1   -1    0    0  502    0  0.00000000000E+00  0.00000000000E+00  0.10510119664E+03  0.10510119664E+03  0.00000000000E+00 0.  1.
         13   -1    0    0    0    0 -0.00000000000E+00 -0.00000000000E+00 -0.10000000000E+04  0.10000000000E+04  0.00000000000E+00 0.  1.
    9000005    2    1    2  501    0 -0.23581564697E-01  0.12649891171E+00 -0.89536420913E+03  0.11046183296E+04  0.64691929211E+03 0.  0.
         13    1    3    3    0    0 -0.14620692800E+03 -0.10579668762E+03 -0.90598153605E+03  0.92378133157E+03  0.00000000000E+00 0.  1.
          1    1    3    3  501    0  0.14618334643E+03  0.10592318653E+03  0.10617326916E+02  0.18083699801E+03  0.00000000000E+00 0.  1.
         21    1    1    2  502  501  0.23581564697E-01 -0.12649891171E+00  0.46540577037E+00  0.48286705825E+00  0.00000000000E+00 0.  1.
<mgrwt>
<rscale>  1 0.64691930E+03</rscale>
<asrwt>0</asrwt>
<pdfrwt beam="1">  1        1 0.38218698E+00 0.64691930E+03</pdfrwt>
<pdfrwt beam="2">0</pdfrwt>
<totfact> 0.16058046E+00</totfact>
</mgrwt>
</event>
<event>
 6    1  0.2944874E-003  0.6486901E+03  0.7818608E-02  0.9809240E-01
          1   -1    0    0  502    0  0.00000000000E+00  0.00000000000E+00  0.10989767146E+03  0.10989767146E+03  0.00000000000E+00 0.  1.
         13   -1    0    0    0    0 -0.00000000000E+00 -0.00000000000E+00 -0.10000000000E+04  0.10000000000E+04  0.00000000000E+00 0.  1.
    9000005    2    1    2  501    0 -0.82135551087E+01  0.73320630713E+01 -0.88613244494E+03  0.10981937571E+04  0.64859663617E+03 0.  0.
         13    1    3    3    0    0  0.23454638349E+03 -0.20559040276E+03 -0.32271292495E+03  0.44880179550E+03  0.00000000000E+00 0.  1.
          1    1    3    3  501    0 -0.24275993860E+03  0.21292246583E+03 -0.56341951999E+03  0.64939196156E+03  0.00000000000E+00 0.  1.
         21    1    1    2  502  501  0.82135551087E+01 -0.73320630713E+01 -0.39698836043E+01  0.11703914398E+02  0.00000000000E+00 0.  1.
<mgrwt>
<rscale>  1 0.64869008E+03</rscale>
<asrwt>0</asrwt>
<pdfrwt beam="1">  1        1 0.39962874E+00 0.64869008E+03</pdfrwt>
<pdfrwt beam="2">0</pdfrwt>
<totfact> 0.13433148E+00</totfact>
</mgrwt>
</event>
<event>
 6    1  0.2944874E-003  0.6434433E+03  0.7818608E-02  0.9819161E-01
          1   -1    0    0  502    0  0.00000000000E+00  0.00000000000E+00  0.10443594322E+03  0.10443594322E+03  0.00000000000E+00 0.  1.
         13   -1    0    0    0    0 -0.00000000000E+00 -0.00000000000E+00 -0.10000000000E+04  0.10000000000E+04  0.00000000000E+00 0.  1.
    9000005    2    1    2  501    0 -0.52101023283E-01 -0.98545174583E-01 -0.89649149903E+03  0.11035018261E+04  0.64344328418E+03 0.  0.
         13    1    3    3    0    0 -0.47131389300E+02  0.10440272001E+03  0.67342335599E+02  0.13287695800E+03  0.00000000000E+00 0.  1.
          1    1    3    3  501    0  0.47079288276E+02 -0.10450126519E+03 -0.96383383463E+03  0.97062486810E+03  0.00000000000E+00 0.  1.
         21    1    1    2  502  501  0.52101023283E-01  0.98545174583E-01  0.92744224796E+00  0.93411711865E+00  0.00000000000E+00 0. -1.
<mgrwt>
<rscale>  1 0.64344329E+03</rscale>
<asrwt>0</asrwt>
<pdfrwt beam="1">  1        1 0.37976787E+00 0.64344329E+03</pdfrwt>
<pdfrwt beam="2">0</pdfrwt>
<totfact> 0.16468315E+00</totfact>
</mgrwt>
</event>
<event>
 6    1  0.4212770E-003  0.6844751E+03  0.7818608E-02  0.9744156E-01
          1   -1    0    0  502    0  0.00000000000E+00  0.00000000000E+00  0.11712661206E+03  0.11712661206E+03  0.00000000000E+00 0.  1.
         13   -1    0    0    0    0 -0.00000000000E+00 -0.00000000000E+00 -0.10000000000E+04  0.10000000000E+04  0.00000000000E+00 0.  1.
    9000005    2    1    2  501    0  0.10837486298E-03 -0.34567248946E-04 -0.88287341262E+03  0.11171264957E+04  0.68447508692E+03 0.  0.
         13    1    3    3    0    0 -0.31918617732E+03 -0.29021186619E+02 -0.24555526075E+03  0.40375664843E+03  0.00000000000E+00 0.  1.
          3    1    3    3  501    0  0.31918628570E+03  0.29021152052E+02 -0.63731815187E+03  0.71336984724E+03  0.00000000000E+00 0.  1.
         21    1    1    2  502  501 -0.10837486299E-03  0.34567248948E-04  0.24681319794E-04  0.11640091570E-03  0.00000000000E+00 0.  1.
<mgrwt>
<rscale>  1 0.68447509E+03</rscale>
<asrwt>0</asrwt>
<pdfrwt beam="1">  1        1 0.42591585E+00 0.68447509E+03</pdfrwt>
<pdfrwt beam="2">0</pdfrwt>
<totfact> 0.10164833E+00</totfact>
</mgrwt>
</event>
<event>
 6    1  0.2944874E-003  0.6514449E+03  0.7818608E-02  0.9804072E-01
          1   -1    0    0  502    0  0.00000000000E+00  0.00000000000E+00  0.10611187507E+03  0.10611187507E+03  0.00000000000E+00 0.  1.
         13   -1    0    0    0    0 -0.00000000000E+00 -0.00000000000E+00 -0.10000000000E+04  0.10000000000E+04  0.00000000000E+00 0.  1.
    9000005    2    1    2  501    0 -0.52730334294E-02  0.16061974669E-02 -0.89390439232E+03  0.11060946991E+04  0.65144487167E+03 0.  0.
         13    1    3    3    0    0 -0.26155204525E+03  0.16944396572E+03 -0.28609247290E+03  0.42304802676E+03  0.00000000000E+00 0.  1.
          1    1    3    3  501    0  0.26154677222E+03 -0.16944235952E+03 -0.60781191942E+03  0.68304667238E+03  0.00000000000E+00 0.  1.
         21    1    1    2  502  501  0.52730334295E-02 -0.16061974668E-02  0.16267393113E-01  0.17175937545E-01  0.00000000000E+00 0.  1.
<mgrwt>
<rscale>  1 0.65144487E+03</rscale>
<asrwt>0</asrwt>
<pdfrwt beam="1">  1        1 0.38586218E+00 0.65144487E+03</pdfrwt>
<pdfrwt beam="2">0</pdfrwt>
<totfact> 0.15455458E+00</totfact>
</mgrwt>
</event>
<event>
 6    1  0.2944874E-003  0.6422897E+03  0.7818608E-02  0.9821355E-01
          1   -1    0    0  502    0  0.00000000000E+00  0.00000000000E+00  0.10313409362E+03  0.10313409362E+03  0.00000000000E+00 0.  1.
         13   -1    0    0    0    0 -0.00000000000E+00 -0.00000000000E+00 -0.10000000000E+04  0.10000000000E+04  0.00000000000E+00 0.  1.
    9000005    2    1    2  501    0  0.90081259714E-05 -0.42706993071E-05 -0.89686597337E+03  0.11031340259E+04  0.64228973594E+03 0.  0.
         13    1    3    3    0    0 -0.20025752792E+03  0.60167385390E+02 -0.86706276016E+03  0.89191985167E+03  0.00000000000E+00 0.  1.
          1    1    3    3  501    0  0.20025753693E+03 -0.60167389660E+02 -0.29803213214E+02  0.21121417422E+03  0.00000000000E+00 0.  1.
         21    1    1    2  502  501 -0.90081259828E-05  0.42706993048E-05  0.66994172506E-04  0.67731856287E-04  0.00000000000E+00 0.  1.
<mgrwt>
<rscale>  1 0.64228974E+03</rscale>
<asrwt>0</asrwt>
<pdfrwt beam="1">  1        1 0.37503386E+00 0.64228974E+03</pdfrwt>
<pdfrwt beam="2">0</pdfrwt>
<totfact> 0.17282308E+00</totfact>
</mgrwt>
</event>
<event>
 6    1  0.2944874E-003  0.6599533E+03  0.7818608E-02  0.9788280E-01
          1   -1    0    0  502    0  0.00000000000E+00  0.00000000000E+00  0.10889256617E+03  0.10889256617E+03  0.00000000000E+00 0.  1.
         13   -1    0    0    0    0 -0.00000000000E+00 -0.00000000000E+00 -0.10000000000E+04  0.10000000000E+04  0.00000000000E+00 0.  1.
    9000005    2    1    2  501    0  0.44799015402E-03  0.61105787785E-03 -0.89111538677E+03  0.11088845772E+04  0.65995331126E+03 0.  0.
         13    1    3    3    0    0 -0.15362361620E+03  0.26277059844E+03 -0.23145931883E+03  0.38238987844E+03  0.00000000000E+00 0.  1.
          3    1    3    3  501    0  0.15362406419E+03 -0.26276998739E+03 -0.65965606794E+03  0.72649469877E+03  0.00000000000E+00 0.  1.
         21    1    1    2  502  501 -0.44799015402E-03 -0.61105787786E-03  0.79529446399E-02  0.79889558363E-02  0.00000000000E+00 0.  1.
<mgrwt>
<rscale>  1 0.65995331E+03</rscale>
<asrwt>0</asrwt>
<pdfrwt beam="1">  1        1 0.39597380E+00 0.65995331E+03</pdfrwt>
<pdfrwt beam="2">0</pdfrwt>
<totfact> 0.13916513E+00</totfact>
</mgrwt>
</event>
<event>
 6    1  0.2944874E-003  0.6593288E+03  0.7818608E-02  0.9789430E-01
          1   -1    0    0  502    0  0.00000000000E+00  0.00000000000E+00  0.10867863189E+03  0.10867863189E+03  0.00000000000E+00 0.  1.
         13   -1    0    0    0    0 -0.00000000000E+00 -0.00000000000E+00 -0.10000000000E+04  0.10000000000E+04  0.00000000000E+00 0.  1.
    9000005    2    1    2  501    0  0.26223285357E-05 -0.31930038631E-05 -0.89132138145E+03  0.11086786179E+04  0.65932880477E+03 0.  0.
         13    1    3    3    0    0  0.14678361331E+02  0.32242144170E+03 -0.55855581457E+03  0.64510126208E+03  0.00000000000E+00 0.  1.
          1    1    3    3  501    0 -0.14678358709E+02 -0.32242144489E+03 -0.33276556689E+03  0.46357735584E+03  0.00000000000E+00 0.  1.
         21    1    1    2  502  501 -0.26223285360E-05  0.31930038821E-05  0.13342230456E-04  0.13967354592E-04  0.00000000000E+00 0.  1.
<mgrwt>
<rscale>  1 0.65932880E+03</rscale>
<asrwt>0</asrwt>
<pdfrwt beam="1">  1        1 0.39519586E+00 0.65932880E+03</pdfrwt>
<pdfrwt beam="2">0</pdfrwt>
<totfact> 0.14029476E+00</totfact>
</mgrwt>
</event>
<event>
 6    1  0.2944874E-003  0.6663605E+03  0.7818608E-02  0.9776555E-01
          1   -1    0    0  502    0  0.00000000000E+00  0.00000000000E+00  0.11171094958E+03  0.11171094958E+03  0.00000000000E+00 0.  1.
         13   -1    0    0    0    0 -0.00000000000E+00 -0.00000000000E+00 -0.10000000000E+04  0.10000000000E+04  0.00000000000E+00 0.  1.
    9000005    2    1    2  501    0  0.48857507670E-01  0.37997512013E-01 -0.88898942032E+03  0.11110078501E+04  0.66636045031E+03 0.  0.
         13    1    3    3    0    0 -0.14055007835E+03 -0.16807291136E+02 -0.94733664421E+03  0.95785360417E+03  0.00000000000E+00 0.  1.
          1    1    3    3  501    0  0.14059893586E+03  0.16845288649E+02  0.58347223891E+02  0.15315424594E+03  0.00000000000E+00 0.  1.
         21    1    1    2  502  501 -0.48857507670E-01 -0.37997512013E-01  0.70036989458E+00  0.70309946396E+00  0.00000000000E+00 0.  1.
<mgrwt>
<rscale>  1 0.66636045E+03</rscale>
<asrwt>0</asrwt>
<pdfrwt beam="1">  1        1 0.40622249E+00 0.66636045E+03</pdfrwt>
<pdfrwt beam="2">0</pdfrwt>
<totfact> 0.12510599E+00</totfact>
</mgrwt>
</event>
<event>
 6    1  0.2944874E-003  0.6434044E+03  0.7818608E-02  0.9819235E-01
          1   -1    0    0  502    0  0.00000000000E+00  0.00000000000E+00  0.13162561787E+03  0.13162561787E+03  0.00000000000E+00 0.  1.
         13   -1    0    0    0    0 -0.00000000000E+00 -0.00000000000E+00 -0.10000000000E+04  0.10000000000E+04  0.00000000000E+00 0.  1.
    9000005    2    1    2  501    0 -0.44802526404E+00 -0.63507073901E+00 -0.89650176790E+03  0.11034874965E+04  0.64340394089E+03 0.  0.
         13    1    3    3    0    0  0.31840575548E+03 -0.10602418112E+02 -0.52195290595E+03  0.61149772888E+03  0.00000000000E+00 0.  1.
          1    1    3    3  501    0 -0.31885378074E+03  0.99673473726E+01 -0.37454886194E+03  0.49198976767E+03  0.00000000000E+00 0.  1.
         21    1    1    2  502  501  0.44802526404E+00  0.63507073901E+00  0.28127385764E+02  0.28138121320E+02  0.00000000000E+00 0.  1.
<mgrwt>
<rscale>  1 0.64340441E+03</rscale>
<asrwt>0</asrwt>
<pdfrwt beam="1">  1        1 0.47863962E+00 0.64340441E+03</pdfrwt>
<pdfrwt beam="2">0</pdfrwt>
<totfact> 0.58520498E-01</totfact>
</mgrwt>
</event>
<event>
 6    1  0.2944874E-003  0.5608002E+03  0.7818608E-02  0.9990246E-01
          1   -1    0    0  502    0  0.00000000000E+00  0.00000000000E+00  0.78715254938E+02  0.78715254938E+02  0.00000000000E+00 0.  1.
         13   -1    0    0    0    0 -0.00000000000E+00 -0.00000000000E+00 -0.10000000000E+04  0.10000000000E+04  0.00000000000E+00 0.  1.
    9000005    2    1    2  501    0  0.12664778951E+00  0.53934625922E-01 -0.92131689452E+03  0.10785738965E+04  0.56080015267E+03 0.  0.
         13    1    3    3    0    0  0.24139896084E+03  0.12482354989E+03 -0.59411515795E+03  0.65332013425E+03  0.00000000000E+00 0.  1.
          1    1    3    3  501    0 -0.24127231305E+03 -0.12476961527E+03 -0.32720173657E+03  0.42525376230E+03  0.00000000000E+00 0.  1.
         21    1    1    2  502  501 -0.12664778951E+00 -0.53934625922E-01  0.32149461551E-01  0.14135838970E+00  0.00000000000E+00 0. -1.
<mgrwt>
<rscale>  1 0.56080017E+03</rscale>
<asrwt>0</asrwt>
<pdfrwt beam="1">  1        1 0.28623789E+00 0.56080017E+03</pdfrwt>
<pdfrwt beam="2">0</pdfrwt>
<totfact> 0.42596422E+00</totfact>
</mgrwt>
</event>
<event>
 6    1  0.2944874E-003  0.5788990E+03  0.7818608E-02  0.9950177E-01
          1   -1    0    0  502    0  0.00000000000E+00  0.00000000000E+00  0.83781040731E+02  0.83781040731E+02  0.00000000000E+00 0.  1.
         13   -1    0    0    0    0 -0.00000000000E+00 -0.00000000000E+00 -0.10000000000E+04  0.10000000000E+04  0.00000000000E+00 0.  1.
    9000005    2    1    2  501    0  0.43351358272E-05 -0.99380027141E-05 -0.91621897278E+03  0.10837810234E+04  0.57889904182E+03 0.  0.
         13    1    3    3    0    0 -0.27685533340E+03 -0.63786928616E+01 -0.61576405199E+03  0.67517029784E+03  0.00000000000E+00 0.  1.
          3    1    3    3  501    0  0.27685533774E+03  0.63786829236E+01 -0.30045492079E+03  0.40861072557E+03  0.00000000000E+00 0.  1.
         21    1    1    2  502  501 -0.43351358229E-05  0.99380027144E-05  0.13508218132E-04  0.17321352651E-04  0.00000000000E+00 0.  1.
<mgrwt>
<rscale>  1 0.57889904E+03</rscale>
<asrwt>0</asrwt>
<pdfrwt beam="1">  1        1 0.30465897E+00 0.57889904E+03</pdfrwt>
<pdfrwt beam="2">0</pdfrwt>
<totfact> 0.35361553E+00</totfact>
</mgrwt>
</event>
<event>
 6    1  0.2944874E-003  0.6512658E+03  0.7818608E-02  0.9804407E-01
          1   -1    0    0  502    0  0.00000000000E+00  0.00000000000E+00  0.10603754086E+03  0.10603754086E+03  0.00000000000E+00 0.  1.
         13   -1    0    0    0    0 -0.00000000000E+00 -0.00000000000E+00 -0.10000000000E+04  0.10000000000E+04  0.00000000000E+00 0.  1.
    9000005    2    1    2  501    0  0.87935611731E-04  0.17780214864E-03 -0.89396320978E+03  0.11060367645E+04  0.65126577055E+03 0.  0.
         13    1    3    3    0    0  0.20388293579E+03  0.25234057305E+03 -0.49480060414E+03  0.59166853403E+03  0.00000000000E+00 0.  1.
          1    1    3    3  501    0 -0.20388284786E+03 -0.25234039524E+03 -0.39916260564E+03  0.51436823042E+03  0.00000000000E+00 0.  1.
         21    1    1    2  502  501 -0.87935611743E-04 -0.17780214866E-03  0.75063906622E-03  0.77640536037E-03  0.00000000000E+00 0.  1.
<mgrwt>
<rscale>  1 0.65126577E+03</rscale>
<asrwt>0</asrwt>
<pdfrwt beam="1">  1        1 0.38559187E+00 0.65126577E+03</pdfrwt>
<pdfrwt beam="2">0</pdfrwt>
<totfact> 0.15498595E+00</totfact>
</mgrwt>
</event>
<event>
 6    1  0.2944874E-003  0.5077921E+03  0.7818608E-02  0.1011765E+00
          1   -1    0    0  502    0  0.00000000000E+00  0.00000000000E+00  0.64551430671E+02  0.64551430671E+02  0.00000000000E+00 0.  1.
         13   -1    0    0    0    0 -0.00000000000E+00 -0.00000000000E+00 -0.10000000000E+04  0.10000000000E+04  0.00000000000E+00 0.  1.
    9000005    2    1    2  501    0  0.29342205193E-02 -0.20547711350E-02 -0.93553674615E+03  0.10644631811E+04  0.50779214305E+03 0.  0.
         13    1    3    3    0    0  0.35899106017E+02 -0.12194075861E+03 -0.92849485021E+03  0.93715579350E+03  0.00000000000E+00 0.  1.
          1    1    3    3  501    0 -0.35896171797E+02  0.12193870384E+03 -0.70418959403E+01  0.12730738762E+03  0.00000000000E+00 0.  1.
         21    1    1    2  502  501 -0.29342205193E-02  0.20547711350E-02  0.88176822057E-01  0.88249553441E-01  0.00000000000E+00 0.  1.
<mgrwt>
<rscale>  1 0.50779214E+03</rscale>
<asrwt>0</asrwt>
<pdfrwt beam="1">  1        1 0.23473297E+00 0.50779214E+03</pdfrwt>
<pdfrwt beam="2">0</pdfrwt>
<totfact> 0.71912959E+00</totfact>
</mgrwt>
</event>
<event>
 6    1  0.3015349E-003  0.6631696E+03  0.7818608E-02  0.9782376E-01
          1   -1    0    0  502    0  0.00000000000E+00  0.00000000000E+00  0.10994847762E+03  0.10994847762E+03  0.00000000000E+00 0.  1.
         13   -1    0    0    0    0 -0.00000000000E+00 -0.00000000000E+00 -0.10000000000E+04  0.10000000000E+04  0.00000000000E+00 0.  1.
    9000005    2    1    2  501    0  0.22290288442E-05  0.46762380634E-06 -0.89005152866E+03  0.11099484709E+04  0.66316957444E+03 0.  0.
         13    1    3    3    0    0 -0.45239205017E+02  0.20249806819E+03 -0.12133668997E+02  0.20784436296E+03  0.00000000000E+00 0.  1.
          3    1    3    3  501    0  0.45239207246E+02 -0.20249806772E+03 -0.87791785967E+03  0.90210410797E+03  0.00000000000E+00 0.  1.
         21    1    1    2  502  501 -0.22290288446E-05 -0.46762380048E-06  0.62791321426E-05  0.66794267773E-05  0.00000000000E+00 0. -1.
<mgrwt>
<rscale>  1 0.66316957E+03</rscale>
<asrwt>0</asrwt>
<pdfrwt beam="1">  1        1 0.39981349E+00 0.66316957E+03</pdfrwt>
<pdfrwt beam="2">0</pdfrwt>
<totfact> 0.13371114E+00</totfact>
</mgrwt>
</event>
<event>
 6    1  0.2944874E-003  0.6502666E+03  0.7818608E-02  0.9806279E-01
          1   -1    0    0  502    0  0.00000000000E+00  0.00000000000E+00  0.10571545235E+03  0.10571545235E+03  0.00000000000E+00 0.  1.
         13   -1    0    0    0    0 -0.00000000000E+00 -0.00000000000E+00 -0.10000000000E+04  0.10000000000E+04  0.00000000000E+00 0.  1.
    9000005    2    1    2  501    0 -0.46120637342E-03  0.63735249515E-03 -0.89428827766E+03  0.11057116403E+04  0.65026664368E+03 0.  0.
         13    1    3    3    0    0 -0.28157097027E+03  0.51906425041E+02 -0.70911248074E+03  0.76473328593E+03  0.00000000000E+00 0.  1.
          1    1    3    3  501    0  0.28157050907E+03 -0.51905787689E+02 -0.18517579692E+03  0.34097835435E+03  0.00000000000E+00 0.  1.
         21    1    1    2  502  501  0.46120637341E-03 -0.63735249515E-03  0.37300099281E-02  0.38120733972E-02  0.00000000000E+00 0. -1.
<mgrwt>
<rscale>  1 0.65026664E+03</rscale>
<asrwt>0</asrwt>
<pdfrwt beam="1">  1        1 0.38442064E+00 0.65026664E+03</pdfrwt>
<pdfrwt beam="2">0</pdfrwt>
<totfact> 0.15687478E+00</totfact>
</mgrwt>
</event>
<event>
 6    1  0.2944874E-003  0.6489147E+03  0.7818608E-02  0.9808818E-01
          1   -1    0    0  502    0  0.00000000000E+00  0.00000000000E+00  0.12132031688E+03  0.12132031688E+03  0.00000000000E+00 0.  1.
         13   -1    0    0    0    0 -0.00000000000E+00 -0.00000000000E+00 -0.10000000000E+04  0.10000000000E+04  0.00000000000E+00 0.  1.
    9000005    2    1    2  501    0 -0.44553570785E-01  0.23393410297E+00 -0.89472645310E+03  0.11052717800E+04  0.64891465157E+03 0.  0.
         13    1    3    3    0    0  0.22403165150E+02  0.24623224141E+01  0.10393752419E+03  0.10635306190E+03  0.00000000000E+00 0.  1.
          1    1    3    3  501    0 -0.22447718721E+02 -0.22283883111E+01 -0.99866397729E+03  0.99891871807E+03  0.00000000000E+00 0.  1.
         21    1    1    2  502  501  0.44553570785E-01 -0.23393410297E+00  0.16046769976E+02  0.16048536906E+02  0.00000000000E+00 0.  1.
<mgrwt>
<rscale>  1 0.64891470E+03</rscale>
<asrwt>0</asrwt>
<pdfrwt beam="1">  1        1 0.44116572E+00 0.64891470E+03</pdfrwt>
<pdfrwt beam="2">0</pdfrwt>
<totfact> 0.87242001E-01</totfact>
</mgrwt>
</event>
<event>
 6    1  0.2944874E-003  0.6595072E+03  0.7818608E-02  0.9789101E-01
          1   -1    0    0  502    0  0.00000000000E+00  0.00000000000E+00  0.10873775277E+03  0.10873775277E+03  0.00000000000E+00 0.  1.
         13   -1    0    0    0    0 -0.00000000000E+00 -0.00000000000E+00 -0.10000000000E+04  0.10000000000E+04  0.00000000000E+00 0.  1.
    9000005    2    1    2  501    0  0.29645333086E-04  0.22834208096E-04 -0.89126255024E+03  0.11087374475E+04  0.65950723569E+03 0.  0.
         13    1    3    3    0    0 -0.29739781926E+03  0.14227313182E+03 -0.43370379219E+03  0.54478076902E+03  0.00000000000E+00 0.  1.
          3    1    3    3  501    0  0.29739784891E+03 -0.14227310898E+03 -0.45755875805E+03  0.56395667843E+03  0.00000000000E+00 0.  1.
         21    1    1    2  502  501 -0.29645333076E-04 -0.22834208085E-04  0.30301457079E-03  0.30531635551E-03  0.00000000000E+00 0. -1.
<mgrwt>
<rscale>  1 0.65950724E+03</rscale>
<asrwt>0</asrwt>
<pdfrwt beam="1">  1        1 0.39541084E+00 0.65950724E+03</pdfrwt>
<pdfrwt beam="2">0</pdfrwt>
<totfact> 0.13998157E+00</totfact>
</mgrwt>
</event>
<event>
 6    1  0.2944874E-003  0.6409201E+03  0.7818608E-02  0.9823968E-01
          1   -1    0    0  502    0  0.00000000000E+00  0.00000000000E+00  0.10269463488E+03  0.10269463488E+03  0.00000000000E+00 0.  1.
         13   -1    0    0    0    0 -0.00000000000E+00 -0.00000000000E+00 -0.10000000000E+04  0.10000000000E+04  0.00000000000E+00 0.  1.
    9000005    2    1    2  501    0 -0.69813638106E-05  0.18580398802E-05 -0.89730536828E+03  0.11026946270E+04  0.64092005464E+03 0.  0.
         13    1    3    3    0    0 -0.22768976728E+03  0.69033623494E+02 -0.81800225909E+03  0.85190138348E+03  0.00000000000E+00 0.  1.
          3    1    3    3  501    0  0.22768976030E+03 -0.69033621636E+02 -0.79303109192E+02  0.25079324351E+03  0.00000000000E+00 0.  1.
         21    1    1    2  502  501  0.69813638297E-05 -0.18580398769E-05  0.31608801347E-05  0.78856145184E-05  0.00000000000E+00 0.  1.
<mgrwt>
<rscale>  1 0.64092005E+03</rscale>
<asrwt>0</asrwt>
<pdfrwt beam="1">  1        1 0.37343582E+00 0.64092005E+03</pdfrwt>
<pdfrwt beam="2">0</pdfrwt>
<totfact> 0.17568808E+00</totfact>
</mgrwt>
</event>
<event>
 6    1  0.2944874E-003  0.6522779E+03  0.7818608E-02  0.9802514E-01
          1   -1    0    0  502    0  0.00000000000E+00  0.00000000000E+00  0.10662486956E+03  0.10662486956E+03  0.00000000000E+00 0.  1.
         13   -1    0    0    0    0 -0.00000000000E+00 -0.00000000000E+00 -0.10000000000E+04  0.10000000000E+04  0.00000000000E+00 0.  1.
    9000005    2    1    2  501    0  0.26992301966E-02 -0.52438865254E-02 -0.89363333918E+03  0.11063665935E+04  0.65227792714E+03 0.  0.
         13    1    3    3    0    0  0.18302313030E+02  0.22337060383E+03 -0.44942550941E+02  0.22858091391E+03  0.00000000000E+00 0.  1.
          3    1    3    3  501    0 -0.18299613800E+02 -0.22337584772E+03 -0.84869078824E+03  0.87778567956E+03  0.00000000000E+00 0.  1.
         21    1    1    2  502  501 -0.26992301966E-02  0.52438865254E-02  0.25820873951E+00  0.25827608745E+00  0.00000000000E+00 0. -1.
<mgrwt>
<rscale>  1 0.65227793E+03</rscale>
<asrwt>0</asrwt>
<pdfrwt beam="1">  1        1 0.38772762E+00 0.65227793E+03</pdfrwt>
<pdfrwt beam="2">0</pdfrwt>
<totfact> 0.15161987E+00</totfact>
</mgrwt>
</event>
<event>
 6    1  0.2944874E-003  0.6612543E+03  0.7818608E-02  0.9785887E-01
          1   -1    0    0  502    0  0.00000000000E+00  0.00000000000E+00  0.11015893769E+03  0.11015893769E+03  0.00000000000E+00 0.  1.
         13   -1    0    0    0    0 -0.00000000000E+00 -0.00000000000E+00 -0.10000000000E+04  0.10000000000E+04  0.00000000000E+00 0.  1.
    9000005    2    1    2  501    0  0.33509641849E-01  0.13544264703E-01 -0.89068525517E+03  0.11093139715E+04  0.66125430977E+03 0.  0.
         13    1    3    3    0    0  0.16490370535E+03  0.49317244095E+02  0.28233902412E+02  0.17442068641E+03  0.00000000000E+00 0.  1.
          1    1    3    3  501    0 -0.16487019571E+03 -0.49303699831E+02 -0.91891915758E+03  0.93489328505E+03  0.00000000000E+00 0.  1.
         21    1    1    2  502  501 -0.33509641849E-01 -0.13544264703E-01  0.84419285840E+00  0.84496622736E+00  0.00000000000E+00 0.  1.
<mgrwt>
<rscale>  1 0.66125431E+03</rscale>
<asrwt>0</asrwt>
<pdfrwt beam="1">  1        1 0.40057880E+00 0.66125431E+03</pdfrwt>
<pdfrwt beam="2">0</pdfrwt>
<totfact> 0.13271205E+00</totfact>
</mgrwt>
</event>
<event>
 6    1  0.2944874E-003  0.6514863E+03  0.7818608E-02  0.9803994E-01
          1   -1    0    0  502    0  0.00000000000E+00  0.00000000000E+00  0.10610861082E+03  0.10610861082E+03  0.00000000000E+00 0.  1.
         13   -1    0    0    0    0 -0.00000000000E+00 -0.00000000000E+00 -0.10000000000E+04  0.10000000000E+04  0.00000000000E+00 0.  1.
    9000005    2    1    2  501    0 -0.39860439358E-05 -0.41321419531E-06 -0.89389139128E+03  0.11061086063E+04  0.65148632335E+03 0.  0.
         13    1    3    3    0    0 -0.19068150085E+02  0.59543198448E+02 -0.98971728911E+03  0.99169012256E+03  0.00000000000E+00 0.  1.
          3    1    3    3  501    0  0.19068146098E+02 -0.59543198861E+02  0.95825897824E+02  0.11441848373E+03  0.00000000000E+00 0.  1.
         21    1    1    2  502  501  0.39860439346E-05  0.41321419821E-06  0.20995238080E-05  0.45240791818E-05  0.00000000000E+00 0.  1.
<mgrwt>
<rscale>  1 0.65148632E+03</rscale>
<asrwt>0</asrwt>
<pdfrwt beam="1">  1        1 0.38585031E+00 0.65148632E+03</pdfrwt>
<pdfrwt beam="2">0</pdfrwt>
<totfact> 0.15457209E+00</totfact>
</mgrwt>
</event>
<event>
 6    1  0.2944874E-003  0.6250813E+03  0.7818608E-02  0.9854695E-01
          1   -1    0    0  502    0  0.00000000000E+00  0.00000000000E+00  0.97965632643E+02  0.97965632643E+02  0.00000000000E+00 0.  1.
         13   -1    0    0    0    0 -0.00000000000E+00 -0.00000000000E+00 -0.10000000000E+04  0.10000000000E+04  0.00000000000E+00 0.  1.
    9000005    2    1    2  501    0  0.57590415606E-01 -0.13899310573E+00 -0.90229631580E+03  0.10976635520E+04  0.62508128208E+03 0.  0.
         13    1    3    3    0    0  0.58825784361E+02 -0.25303784960E+03 -0.75656274443E+03  0.79992237904E+03  0.00000000000E+00 0.  1.
          1    1    3    3  501    0 -0.58768193946E+02  0.25289885650E+03 -0.14573357137E+03  0.29774117294E+03  0.00000000000E+00 0.  1.
         21    1    1    2  502  501 -0.57590415606E-01  0.13899310573E+00  0.26194844386E+00  0.30208066249E+00  0.00000000000E+00 0. -1.
<mgrwt>
<rscale>  1 0.62508130E+03</rscale>
<asrwt>0</asrwt>
<pdfrwt beam="1">  1        1 0.35623942E+00 0.62508130E+03</pdfrwt>
<pdfrwt beam="2">0</pdfrwt>
<totfact> 0.20957976E+00</totfact>
</mgrwt>
</event>
<event>
 6    1  0.2944874E-003  0.6667849E+03  0.7818608E-02  0.9775784E-01
          1   -1    0    0  502    0  0.00000000000E+00  0.00000000000E+00  0.11181144071E+03  0.11181144071E+03  0.00000000000E+00 0.  1.
         13   -1    0    0    0    0 -0.00000000000E+00 -0.00000000000E+00 -0.10000000000E+04  0.10000000000E+04  0.00000000000E+00 0.  1.
    9000005    2    1    2  501    0  0.21515758051E-01 -0.82458026486E+00 -0.88854992937E+03  0.11109108943E+04  0.66678434119E+03 0.  0.
         13    1    3    3    0    0  0.30873071343E+03  0.11426275942E+03 -0.35765636213E+03  0.48609536613E+03  0.00000000000E+00 0.  1.
          3    1    3    3  501    0 -0.30870919767E+03 -0.11508733969E+03 -0.53089356723E+03  0.62481552815E+03  0.00000000000E+00 0.  1.
         21    1    1    2  502  501 -0.21515758051E-01  0.82458026486E+00  0.36137007818E+00  0.90054643103E+00  0.00000000000E+00 0. -1.
<mgrwt>
<rscale>  1 0.66678485E+03</rscale>
<asrwt>0</asrwt>
<pdfrwt beam="1">  1        1 0.40658791E+00 0.66678485E+03</pdfrwt>
<pdfrwt beam="2">0</pdfrwt>
<totfact> 0.12462575E+00</totfact>
</mgrwt>
</event>
<event>
 6    1  0.2944874E-003  0.6513159E+03  0.7818608E-02  0.9804313E-01
          1   -1    0    0  502    0  0.00000000000E+00  0.00000000000E+00  0.10605408366E+03  0.10605408366E+03  0.00000000000E+00 0.  1.
         13   -1    0    0    0    0 -0.00000000000E+00 -0.00000000000E+00 -0.10000000000E+04  0.10000000000E+04  0.00000000000E+00 0.  1.
    9000005    2    1    2  501    0 -0.11246607892E-03  0.12460333239E-02 -0.89394644160E+03  0.11060527268E+04  0.65131589412E+03 0.  0.
         13    1    3    3    0    0  0.17205729308E+03 -0.15018032098E+01  0.22558276391E+02  0.17353628827E+03  0.00000000000E+00 0.  1.
          3    1    3    3  501    0 -0.17205740555E+03  0.15030492431E+01 -0.91650471799E+03  0.93251643849E+03  0.00000000000E+00 0.  1.
         21    1    1    2  502  501  0.11246607892E-03 -0.12460333239E-02  0.52525955997E-03  0.13568880825E-02  0.00000000000E+00 0. -1.
<mgrwt>
<rscale>  1 0.65131589E+03</rscale>
<asrwt>0</asrwt>
<pdfrwt beam="1">  1        1 0.38565203E+00 0.65131589E+03</pdfrwt>
<pdfrwt beam="2">0</pdfrwt>
<totfact> 0.15488956E+00</totfact>
</mgrwt>
</event>
<event>
 6    1  0.2944874E-003  0.5747274E+03  0.7818608E-02  0.9959272E-01
          1   -1    0    0  502    0  0.00000000000E+00  0.00000000000E+00  0.82578783570E+02  0.82578783570E+02  0.00000000000E+00 0.  1.
         13   -1    0    0    0    0 -0.00000000000E+00 -0.00000000000E+00 -0.10000000000E+04  0.10000000000E+04  0.00000000000E+00 0.  1.
    9000005    2    1    2  501    0 -0.15774606948E-03 -0.11173344927E-03 -0.91742209316E+03  0.10825778858E+04  0.57472739779E+03 0.  0.
         13    1    3    3    0    0 -0.20946547885E+03  0.11151204146E+03 -0.76399513629E+03  0.79999955656E+03  0.00000000000E+00 0.  1.
          1    1    3    3  501    0  0.20946532110E+03 -0.11151215319E+03 -0.15342695687E+03  0.28257832923E+03  0.00000000000E+00 0.  1.
         21    1    1    2  502  501  0.15774606947E-03  0.11173344926E-03  0.87672856104E-03  0.89778680981E-03  0.00000000000E+00 0.  1.
<mgrwt>
<rscale>  1 0.57472740E+03</rscale>
<asrwt>0</asrwt>
<pdfrwt beam="1">  1        1 0.30028712E+00 0.57472740E+03</pdfrwt>
<pdfrwt beam="2">0</pdfrwt>
<totfact> 0.36958361E+00</totfact>
</mgrwt>
</event>
<event>
 6    1  0.2944874E-003  0.6413628E+03  0.7818608E-02  0.9823123E-01
          1   -1    0    0  502    0  0.00000000000E+00  0.00000000000E+00  0.10285896382E+03  0.10285896382E+03  0.00000000000E+00 0.  1.
         13   -1    0    0    0    0 -0.00000000000E+00 -0.00000000000E+00 -0.10000000000E+04  0.10000000000E+04  0.00000000000E+00 0.  1.
    9000005    2    1    2  501    0  0.19958890830E-01 -0.29520562456E-01 -0.89714661538E+03  0.11028228952E+04  0.64136283595E+03 0.  0.
         13    1    3    3    0    0 -0.21510557019E+03  0.13377113667E+03 -0.11045085855E+03  0.27634130254E+03  0.00000000000E+00 0.  1.
          1    1    3    3  501    0  0.21512552908E+03 -0.13380065723E+03 -0.78669575682E+03  0.82648159262E+03  0.00000000000E+00 0.  1.
         21    1    1    2  502  501 -0.19958890830E-01  0.29520562456E-01  0.55792015161E-02  0.36068662581E-01  0.00000000000E+00 0.  1.
<mgrwt>
<rscale>  1 0.64136284E+03</rscale>
<asrwt>0</asrwt>
<pdfrwt beam="1">  1        1 0.37403338E+00 0.64136284E+03</pdfrwt>
<pdfrwt beam="2">0</pdfrwt>
<totfact> 0.17461371E+00</totfact>
</mgrwt>
</event>
<event>
 6    1  0.2944874E-003  0.6481212E+03  0.7818608E-02  0.9810311E-01
          1   -1    0    0  502    0  0.00000000000E+00  0.00000000000E+00  0.10512546935E+03  0.10512546935E+03  0.00000000000E+00 0.  1.
         13   -1    0    0    0    0 -0.00000000000E+00 -0.00000000000E+00 -0.10000000000E+04  0.10000000000E+04  0.00000000000E+00 0.  1.
    9000005    2    1    2  501    0 -0.32631253431E-01  0.76549742160E-02 -0.89498189589E+03  0.11050129941E+04  0.64812122473E+03 0.  0.
         13    1    3    3    0    0  0.30187484042E+03  0.11777179668E+03 -0.44273592457E+03  0.54864716738E+03  0.00000000000E+00 0.  1.
          3    1    3    3  501    0 -0.30190747167E+03 -0.11776414171E+03 -0.45224597132E+03  0.55636582668E+03  0.00000000000E+00 0.  1.
         21    1    1    2  502  501  0.32631253431E-01 -0.76549742160E-02  0.10736523757E+00  0.11247529315E+00  0.00000000000E+00 0. -1.
<mgrwt>
<rscale>  1 0.64812123E+03</rscale>
<asrwt>0</asrwt>
<pdfrwt beam="1">  1        1 0.38227524E+00 0.64812123E+03</pdfrwt>
<pdfrwt beam="2">0</pdfrwt>
<totfact> 0.16040083E+00</totfact>
</mgrwt>
</event>
<event>
 6    1  0.2944874E-003  0.6534983E+03  0.7818608E-02  0.9800237E-01
          1   -1    0    0  502    0  0.00000000000E+00  0.00000000000E+00  0.10680532449E+03  0.10680532449E+03  0.00000000000E+00 0.  1.
         13   -1    0    0    0    0 -0.00000000000E+00 -0.00000000000E+00 -0.10000000000E+04  0.10000000000E+04  0.00000000000E+00 0.  1.
    9000005    2    1    2  501    0 -0.69017200245E-01 -0.35759827505E-01 -0.89318829201E+03  0.11067273316E+04  0.65349832098E+03 0.  0.
         13    1    3    3    0    0 -0.11065686470E+03  0.25370163764E+03 -0.15250845858E+03  0.31601944969E+03  0.00000000000E+00 0.  1.
          3    1    3    3  501    0  0.11058784750E+03 -0.25373739747E+03 -0.74067983343E+03  0.79070788192E+03  0.00000000000E+00 0.  1.
         21    1    1    2  502  501  0.69017200245E-01  0.35759827505E-01 -0.63835052195E-02  0.77992873596E-01  0.00000000000E+00 0. -1.
<mgrwt>
<rscale>  1 0.65349833E+03</rscale>
<asrwt>0</asrwt>
<pdfrwt beam="1">  1        1 0.38838382E+00 0.65349833E+03</pdfrwt>
<pdfrwt beam="2">0</pdfrwt>
<totfact> 0.15057431E+00</totfact>
</mgrwt>
</event>
<event>
 6    1  0.2944874E-003  0.6476690E+03  0.7818608E-02  0.9811163E-01
          1   -1    0    0  502    0  0.00000000000E+00  0.00000000000E+00  0.11568303739E+03  0.11568303739E+03  0.00000000000E+00 0.  1.
         13   -1    0    0    0    0 -0.00000000000E+00 -0.00000000000E+00 -0.10000000000E+04  0.10000000000E+04  0.00000000000E+00 0.  1.
    9000005    2    1    2  501    0  0.12604437696E+01  0.70479803918E+00 -0.89507793221E+03  0.11048256010E+04  0.64766736709E+03 0.  0.
         13    1    3    3    0    0 -0.11835041208E+03 -0.26072379430E+03 -0.70299552982E+03  0.75906945130E+03  0.00000000000E+00 0.  1.
          1    1    3    3  501    0  0.11961085585E+03  0.26142859234E+03 -0.19208240239E+03  0.34575614968E+03  0.00000000000E+00 0.  1.
         21    1    1    2  502  501 -0.12604437696E+01 -0.70479803918E+00  0.10760969594E+02  0.10857436409E+02  0.00000000000E+00 0.  1.
<mgrwt>
<rscale>  1 0.64766898E+03</rscale>
<asrwt>0</asrwt>
<pdfrwt beam="1">  1        1 0.42066648E+00 0.64766898E+03</pdfrwt>
<pdfrwt beam="2">0</pdfrwt>
<totfact> 0.10813108E+00</totfact>
</mgrwt>
</event>
<event>
 6    1  0.2944874E-003  0.6532034E+03  0.7818608E-02  0.9800787E-01
          1   -1    0    0  502    0  0.00000000000E+00  0.00000000000E+00  0.10672696788E+03  0.10672696788E+03  0.00000000000E+00 0.  1.
         13   -1    0    0    0    0 -0.00000000000E+00 -0.00000000000E+00 -0.10000000000E+04  0.10000000000E+04  0.00000000000E+00 0.  1.
    9000005    2    1    2  501    0  0.32863153748E-02  0.38540807249E-02 -0.89333119802E+03  0.11066685819E+04  0.65320342982E+03 0.  0.
         13    1    3    3    0    0  0.17541925589E+03 -0.10511663799E+03 -0.15230828797E+02  0.20506925919E+03  0.00000000000E+00 0.  1.
          3    1    3    3  501    0 -0.17541596957E+03  0.10512049207E+03 -0.87810036922E+03  0.90159932268E+03  0.00000000000E+00 0.  1.
         21    1    1    2  502  501 -0.32863153748E-02 -0.38540807249E-02  0.58165896915E-01  0.58386003211E-01  0.00000000000E+00 0.  1.
<mgrwt>
<rscale>  1 0.65320343E+03</rscale>
<asrwt>0</asrwt>
<pdfrwt beam="1">  1        1 0.38809888E+00 0.65320343E+03</pdfrwt>
<pdfrwt beam="2">0</pdfrwt>
<totfact> 0.15102089E+00</totfact>
</mgrwt>
</event>
<event>
 6    1  0.2944874E-003  0.6588658E+03  0.7818608E-02  0.9790284E-01
          1   -1    0    0  502    0  0.00000000000E+00  0.00000000000E+00  0.10852629495E+03  0.10852629495E+03  0.00000000000E+00 0.  1.
         13   -1    0    0    0    0 -0.00000000000E+00 -0.00000000000E+00 -0.10000000000E+04  0.10000000000E+04  0.00000000000E+00 0.  1.
    9000005    2    1    2  501    0 -0.53726606950E-04 -0.96976874332E-04 -0.89147395561E+03  0.11085260210E+04  0.65886578726E+03 0.  0.
         13    1    3    3    0    0  0.26350609339E+03  0.64205019513E+02 -0.13111718773E+03  0.30124651484E+03  0.00000000000E+00 0.  1.
          1    1    3    3  501    0 -0.26350614712E+03 -0.64205116489E+02 -0.76035676788E+03  0.80727950612E+03  0.00000000000E+00 0.  1.
         21    1    1    2  502  501  0.53726606937E-04  0.96976874336E-04  0.25056045453E-03  0.27399197766E-03  0.00000000000E+00 0. -1.
<mgrwt>
<rscale>  1 0.65886579E+03</rscale>
<asrwt>0</asrwt>
<pdfrwt beam="1">  1        1 0.39464190E+00 0.65886579E+03</pdfrwt>
<pdfrwt beam="2">0</pdfrwt>
<totfact> 0.14110491E+00</totfact>
</mgrwt>
</event>
<event>
 6    1  0.3783891E-003  0.6264264E+03  0.7818608E-02  0.9852047E-01
          1   -1    0    0  502    0  0.00000000000E+00  0.00000000000E+00  0.98102521497E+02  0.98102521497E+02  0.00000000000E+00 0.  1.
         13   -1    0    0    0    0 -0.00000000000E+00 -0.00000000000E+00 -0.10000000000E+04  0.10000000000E+04  0.00000000000E+00 0.  1.
    9000005    2    1    2  501    0 -0.10889878240E-04 -0.48318247536E-05 -0.90189748453E+03  0.10981025081E+04  0.62642640892E+03 0.  0.
         13    1    3    3    0    0  0.64535141806E+02 -0.42002822392E+02  0.81252446451E+02  0.11194186737E+03  0.00000000000E+00 0.  1.
          3    1    3    3  501    0 -0.64535152696E+02  0.42002817560E+02 -0.98314993098E+03  0.98616064077E+03  0.00000000000E+00 0.  1.
         21    1    1    2  502  501  0.10889878251E-04  0.48318247541E-05  0.60282233717E-05  0.13351983216E-04  0.00000000000E+00 0.  1.
<mgrwt>
<rscale>  1 0.62642641E+03</rscale>
<asrwt>0</asrwt>
<pdfrwt beam="1">  1        1 0.35673719E+00 0.62642641E+03</pdfrwt>
<pdfrwt beam="2">0</pdfrwt>
<totfact> 0.20848275E+00</totfact>
</mgrwt>
</event>
<event>
 6    1  0.2944874E-003  0.6501289E+03  0.7818608E-02  0.9806537E-01
          1   -1    0    0  502    0  0.00000000000E+00  0.00000000000E+00  0.10574742658E+03  0.10574742658E+03  0.00000000000E+00 0.  1.
         13   -1    0    0    0    0 -0.00000000000E+00 -0.00000000000E+00 -0.10000000000E+04  0.10000000000E+04  0.00000000000E+00 0.  1.
    9000005    2    1    2  501    0 -0.13758831777E-01  0.55517364189E-03 -0.89433246063E+03  0.11056663613E+04  0.65012887353E+03 0.  0.
         13    1    3    3    0    0 -0.24966047030E+03  0.94234401650E+02 -0.76287875770E+03  0.80820447403E+03  0.00000000000E+00 0.  1.
          1    1    3    3  501    0  0.24964671147E+03 -0.94233846477E+02 -0.13145370292E+03  0.29746188727E+03  0.00000000000E+00 0.  1.
         21    1    1    2  502  501  0.13758831777E-01 -0.55517364188E-03  0.79887209803E-01  0.81065282087E-01  0.00000000000E+00 0.  1.
<mgrwt>
<rscale>  1 0.65012887E+03</rscale>
<asrwt>0</asrwt>
<pdfrwt beam="1">  1        1 0.38453691E+00 0.65012887E+03</pdfrwt>
<pdfrwt beam="2">0</pdfrwt>
<totfact> 0.15669315E+00</totfact>
</mgrwt>
</event>
<event>
 6    1  0.2944874E-003  0.6423012E+03  0.7818608E-02  0.9821334E-01
          1   -1    0    0  502    0  0.00000000000E+00  0.00000000000E+00  0.10997952793E+03  0.10997952793E+03  0.00000000000E+00 0.  1.
         13   -1    0    0    0    0 -0.00000000000E+00 -0.00000000000E+00 -0.10000000000E+04  0.10000000000E+04  0.00000000000E+00 0.  1.
    9000005    2    1    2  501    0  0.10894934849E+00  0.12742602671E+00 -0.89686115705E+03  0.11031367888E+04  0.64230118460E+03 0.  0.
         13    1    3    3    0    0 -0.64573068657E+02  0.14353801164E+03  0.32364936424E+02  0.16068705950E+03  0.00000000000E+00 0.  1.
          1    1    3    3  501    0  0.64682018006E+02 -0.14341058561E+03 -0.92922609348E+03  0.94244972933E+03  0.00000000000E+00 0.  1.
         21    1    1    2  502  501 -0.10894934849E+00 -0.12742602671E+00  0.68406849829E+01  0.68427390998E+01  0.00000000000E+00 0.  1.
<mgrwt>
<rscale>  1 0.64230121E+03</rscale>
<asrwt>0</asrwt>
<pdfrwt beam="1">  1        1 0.39992640E+00 0.64230121E+03</pdfrwt>
<pdfrwt beam="2">0</pdfrwt>
<totfact> 0.13408570E+00</totfact>
</mgrwt>
</event>
<event>
 6    1  0.2944874E-003  0.6540761E+03  0.7818608E-02  0.9799161E-01
          1   -1    0    0  502    0  0.00000000000E+00  0.00000000000E+00  0.10695981181E+03  0.10695981181E+03  0.00000000000E+00 0.  1.
         13   -1    0    0    0    0 -0.00000000000E+00 -0.00000000000E+00 -0.10000000000E+04  0.10000000000E+04  0.00000000000E+00 0.  1.
    9000005    2    1    2  501    0 -0.25248829135E-03  0.50472620956E-04 -0.89304609836E+03  0.11069538960E+04  0.65407613788E+03 0.  0.
         13    1    3    3    0    0  0.58430305105E+02 -0.31547344440E+03 -0.55377682521E+03  0.64000497406E+03  0.00000000000E+00 0.  1.
          3    1    3    3  501    0 -0.58430557593E+02  0.31547349488E+03 -0.33926927315E+03  0.46694892198E+03  0.00000000000E+00 0.  1.
         21    1    1    2  502  501  0.25248829135E-03 -0.50472620936E-04  0.59101744257E-02  0.59157805542E-02  0.00000000000E+00 0. -1.
<mgrwt>
<rscale>  1 0.65407614E+03</rscale>
<asrwt>0</asrwt>
<pdfrwt beam="1">  1        1 0.38894559E+00 0.65407614E+03</pdfrwt>
<pdfrwt beam="2">0</pdfrwt>
<totfact> 0.14969759E+00</totfact>
</mgrwt>
</event>
<event>
 6    1  0.2944874E-003  0.6405127E+03  0.7818608E-02  0.9824746E-01
          1   -1    0    0  502    0  0.00000000000E+00  0.00000000000E+00  0.11217589505E+03  0.11217589505E+03  0.00000000000E+00 0.  1.
         13   -1    0    0    0    0 -0.00000000000E+00 -0.00000000000E+00 -0.10000000000E+04  0.10000000000E+04  0.00000000000E+00 0.  1.
    9000005    2    1    2  501    0  0.26587977409E+01  0.33148233988E+01 -0.89691537531E+03  0.11021405347E+04  0.64049864216E+03 0.  0.
         13    1    3    3    0    0 -0.13427709862E+03 -0.86508222043E+02  0.28579776025E+02  0.16226772721E+03  0.00000000000E+00 0.  1.
          1    1    3    3  501    0  0.13693589636E+03  0.89823045442E+02 -0.92549515134E+03  0.93987280754E+03  0.00000000000E+00 0.  1.
         21    1    1    2  502  501 -0.26587977409E+01 -0.33148233988E+01  0.90912703601E+01  0.10035360300E+02  0.00000000000E+00 0. -1.
<mgrwt>
<rscale>  1 0.64051274E+03</rscale>
<asrwt>0</asrwt>
<pdfrwt beam="1">  1        1 0.40791321E+00 0.64051274E+03</pdfrwt>
<pdfrwt beam="2">0</pdfrwt>
<totfact> 0.12355698E+00</totfact>
</mgrwt>
</event>
<event>
 6    1  0.2944874E-003  0.5882787E+03  0.7818608E-02  0.9930027E-01
          1   -1    0    0  502    0  0.00000000000E+00  0.00000000000E+00  0.86518284332E+02  0.86518284332E+02  0.00000000000E+00 0.  1.
         13   -1    0    0    0    0 -0.00000000000E+00 -0.00000000000E+00 -0.10000000000E+04  0.10000000000E+04  0.00000000000E+00 0.  1.
    9000005    2    1    2  501    0  0.13999118377E-03  0.47841303684E-03 -0.91348182953E+03  0.10865177730E+04  0.58827869092E+03 0.  0.
         13    1    3    3    0    0  0.20991259336E+03 -0.53136738897E+02 -0.89059197812E+02  0.23413318984E+03  0.00000000000E+00 0.  1.
          3    1    3    3  501    0 -0.20991245337E+03  0.53137217310E+02 -0.82442263172E+03  0.85238458318E+03  0.00000000000E+00 0.  1.
         21    1    1    2  502  501 -0.13999118376E-03 -0.47841303685E-03  0.11386586287E-03  0.51131399363E-03  0.00000000000E+00 0.  1.
<mgrwt>
<rscale>  1 0.58827869E+03</rscale>
<asrwt>0</asrwt>
<pdfrwt beam="1">  1        1 0.31461261E+00 0.58827869E+03</pdfrwt>
<pdfrwt beam="2">0</pdfrwt>
<totfact> 0.31976961E+00</totfact>
</mgrwt>
</event>
<event>
 6    1  0.2944874E-003  0.6496805E+03  0.7818608E-02  0.9807379E-01
          1   -1    0    0  502    0  0.00000000000E+00  0.00000000000E+00  0.12099167256E+03  0.12099167256E+03  0.00000000000E+00 0.  1.
         13   -1    0    0    0    0 -0.00000000000E+00 -0.00000000000E+00 -0.10000000000E+04  0.10000000000E+04  0.00000000000E+00 0.  1.
    9000005    2    1    2  501    0  0.38085096177E+01  0.14506484108E+01 -0.89418154495E+03  0.11052806683E+04  0.64966769288E+03 0.  0.
         13    1    3    3    0    0 -0.34134633276E+02 -0.28834302869E+03 -0.69043570248E+03  0.74900489627E+03  0.00000000000E+00 0.  1.
          1    1    3    3  501    0  0.37943142894E+02  0.28979367710E+03 -0.20374584248E+03  0.35627577199E+03  0.00000000000E+00 0.  1.
         21    1    1    2  502  501 -0.38085096177E+01 -0.14506484108E+01  0.15173217517E+02  0.15711004301E+02  0.00000000000E+00 0.  1.
<mgrwt>
<rscale>  1 0.64968048E+03</rscale>
<asrwt>0</asrwt>
<pdfrwt beam="1">  1        1 0.43997065E+00 0.64968048E+03</pdfrwt>
<pdfrwt beam="2">0</pdfrwt>
<totfact> 0.88332839E-01</totfact>
</mgrwt>
</event>
<event>
 6    1  0.2944874E-003  0.5787483E+03  0.7818608E-02  0.9950505E-01
          1   -1    0    0  502    0  0.00000000000E+00  0.00000000000E+00  0.87122312761E+02  0.87122312761E+02  0.00000000000E+00 0.  1.
         13   -1    0    0    0    0 -0.00000000000E+00 -0.00000000000E+00 -0.10000000000E+04  0.10000000000E+04  0.00000000000E+00 0.  1.
    9000005    2    1    2  501    0  0.18512521925E+00 -0.19107837249E+00 -0.91625693099E+03  0.10837326121E+04  0.57874825282E+03 0.  0.
         13    1    3    3    0    0 -0.91725522311E+02  0.80450638051E+02  0.33192559509E+02  0.12644217102E+03  0.00000000000E+00 0.  1.
          1    1    3    3  501    0  0.91910647530E+02 -0.80641716424E+02 -0.94944949050E+03  0.95729044107E+03  0.00000000000E+00 0.  1.
         21    1    1    2  502  501 -0.18512521925E+00  0.19107837249E+00  0.33792437506E+01  0.33897006678E+01  0.00000000000E+00 0.  1.
<mgrwt>
<rscale>  1 0.57874831E+03</rscale>
<asrwt>0</asrwt>
<pdfrwt beam="1">  1        1 0.31680908E+00 0.57874831E+03</pdfrwt>
<pdfrwt beam="2">0</pdfrwt>
<totfact> 0.31339998E+00</totfact>
</mgrwt>
</event>
<event>
 6    1  0.2944874E-003  0.6494506E+03  0.7818608E-02  0.9807811E-01
          1   -1    0    0  502    0  0.00000000000E+00  0.00000000000E+00  0.10571754420E+03  0.10571754420E+03  0.00000000000E+00 0.  1.
         13   -1    0    0    0    0 -0.00000000000E+00 -0.00000000000E+00 -0.10000000000E+04  0.10000000000E+04  0.00000000000E+00 0.  1.
    9000005    2    1    2  501    0  0.42246109089E-02  0.13618333156E-04 -0.89455345864E+03  0.11054465084E+04  0.64945060830E+03 0.  0.
         13    1    3    3    0    0 -0.13989686179E+03  0.18753028863E+03 -0.83056451332E+03  0.86288826152E+03  0.00000000000E+00 0.  1.
          1    1    3    3  501    0  0.13990108640E+03 -0.18753027501E+03 -0.63988945324E+02  0.24255824691E+03  0.00000000000E+00 0.  1.
         21    1    1    2  502  501 -0.42246109089E-02 -0.13618333168E-04  0.27100283912E+00  0.27103576579E+00  0.00000000000E+00 0. -1.
<mgrwt>
<rscale>  1 0.64945061E+03</rscale>
<asrwt>0</asrwt>
<pdfrwt beam="1">  1        1 0.38442824E+00 0.64945061E+03</pdfrwt>
<pdfrwt beam="2">0</pdfrwt>
<totfact> 0.15688626E+00</totfact>
</mgrwt>
</event>
<event>
 6    1  0.2944874E-003  0.6260983E+03  0.7818608E-02  0.9852692E-01
          3   -1    0    0  502    0  0.00000000000E+00  0.00000000000E+00  0.97999795558E+02  0.97999795558E+02  0.00000000000E+00 0.  1.
         13   -1    0    0    0    0 -0.00000000000E+00 -0.00000000000E+00 -0.10000000000E+04  0.10000000000E+04  0.00000000000E+00 0.  1.
    9000005    2    1    2  501    0 -0.10610606267E-04  0.11814881962E-04 -0.90200021812E+03  0.10979997746E+04  0.62609832417E+03 0.  0.
         13    1    3    3    0    0 -0.83981997050E+02  0.84668100588E+01 -0.97966710775E+03  0.98329665143E+03  0.00000000000E+00 0.  1.
          3    1    3    3  501    0  0.83981986440E+02 -0.84667982439E+01  0.77666889635E+02  0.11470312317E+03  0.00000000000E+00 0.  1.
         21    1    1    2  502  501  0.10610606269E-04 -0.11814881963E-04  0.13677815232E-04  0.20958507359E-04  0.00000000000E+00 0.  1.
<mgrwt>
<rscale>  1 0.62609832E+03</rscale>
<asrwt>0</asrwt>
<pdfrwt beam="1">  1        3 0.35636364E+00 0.62609832E+03</pdfrwt>
<pdfrwt beam="2">0</pdfrwt>
<totfact> 0.10111266E-01</totfact>
</mgrwt>
</event>
<event>
 6    1  0.2944874E-003  0.6453838E+03  0.7818608E-02  0.9815480E-01
          1   -1    0    0  502    0  0.00000000000E+00  0.00000000000E+00  0.10416349807E+03  0.10416349807E+03  0.00000000000E+00 0.  1.
         13   -1    0    0    0    0 -0.00000000000E+00 -0.00000000000E+00 -0.10000000000E+04  0.10000000000E+04  0.00000000000E+00 0.  1.
    9000005    2    1    2  501    0  0.58749219231E-01  0.45486078057E-01 -0.89581626272E+03  0.11040864911E+04  0.64538376000E+03 0.  0.
         13    1    3    3    0    0  0.84256824403E+02  0.21550293028E+03 -0.83277772881E+03  0.86432602125E+03  0.00000000000E+00 0.  1.
          3    1    3    3  501    0 -0.84198075184E+02 -0.21545744420E+03 -0.63038533914E+02  0.23976046981E+03  0.00000000000E+00 0.  1.
         21    1    1    2  502  501 -0.58749219231E-01 -0.45486078057E-01 -0.20239204311E-01  0.77007009086E-01  0.00000000000E+00 0.  1.
<mgrwt>
<rscale>  1 0.64538376E+03</rscale>
<asrwt>0</asrwt>
<pdfrwt beam="1">  1        1 0.37877716E+00 0.64538376E+03</pdfrwt>
<pdfrwt beam="2">0</pdfrwt>
<totfact> 0.16628902E+00</totfact>
</mgrwt>
</event>
<event>
 6    1  0.2944874E-003  0.6469950E+03  0.7818608E-02  0.9812434E-01
          1   -1    0    0  502    0  0.00000000000E+00  0.00000000000E+00  0.10526821328E+03  0.10526821328E+03  0.00000000000E+00 0.  1.
         13   -1    0    0    0    0 -0.00000000000E+00 -0.00000000000E+00 -0.10000000000E+04  0.10000000000E+04  0.00000000000E+00 0.  1.
    9000005    2    1    2  501    0 -0.17773717988E+00 -0.10144867554E-01 -0.89533515703E+03  0.11046391273E+04  0.64699499725E+03 0.  0.
         13    1    3    3    0    0  0.30521400198E+02 -0.90554814713E+02 -0.97531755080E+03  0.97998778321E+03  0.00000000000E+00 0.  1.
          3    1    3    3  501    0 -0.30699137378E+02  0.90544669845E+02  0.79982393767E+02  0.12465134410E+03  0.00000000000E+00 0.  1.
         21    1    1    2  502  501  0.17773717988E+00  0.10144867554E-01  0.60337031076E+00  0.62908596818E+00  0.00000000000E+00 0. -1.
<mgrwt>
<rscale>  1 0.64699502E+03</rscale>
<asrwt>0</asrwt>
<pdfrwt beam="1">  1        1 0.38279431E+00 0.64699502E+03</pdfrwt>
<pdfrwt beam="2">0</pdfrwt>
<totfact> 0.15958930E+00</totfact>
</mgrwt>
</event>
<event>
 6    1  0.2944874E-003  0.6347658E+03  0.7818608E-02  0.9835793E-01
          1   -1    0    0  502    0  0.00000000000E+00  0.00000000000E+00  0.12342820677E+03  0.12342820677E+03  0.00000000000E+00 0.  1.
         13   -1    0    0    0    0 -0.00000000000E+00 -0.00000000000E+00 -0.10000000000E+04  0.10000000000E+04  0.00000000000E+00 0.  1.
    9000005    2    1    2  501    0 -0.22083358172E+01  0.10574724145E+01 -0.89919539236E+03  0.11006724991E+04  0.63476105865E+03 0.  0.
         13    1    3    3    0    0 -0.14974338070E+03 -0.26378239567E+03 -0.28726264669E+03  0.41776076948E+03  0.00000000000E+00 0.  1.
          1    1    3    3  501    0  0.14753504488E+03  0.26483986809E+03 -0.61193274567E+03  0.68291172960E+03  0.00000000000E+00 0.  1.
         21    1    1    2  502  501  0.22083358172E+01 -0.10574724145E+01  0.22623599131E+02  0.22755707693E+02  0.00000000000E+00 0.  1.
<mgrwt>
<rscale>  1 0.63476578E+03</rscale>
<asrwt>0</asrwt>
<pdfrwt beam="1">  1        1 0.44883079E+00 0.63476578E+03</pdfrwt>
<pdfrwt beam="2">0</pdfrwt>
<totfact> 0.80696643E-01</totfact>
</mgrwt>
</event>
<event>
 6    1  0.2944874E-003  0.6488650E+03  0.7818608E-02  0.9808911E-01
          1   -1    0    0  502    0  0.00000000000E+00  0.00000000000E+00  0.10526351846E+03  0.10526351846E+03  0.00000000000E+00 0.  1.
         13   -1    0    0    0    0 -0.00000000000E+00 -0.00000000000E+00 -0.10000000000E+04  0.10000000000E+04  0.00000000000E+00 0.  1.
    9000005    2    1    2  501    0  0.33306334778E-02  0.84475154004E-02 -0.89474015749E+03  0.11052537222E+04  0.64886504065E+03 0.  0.
         13    1    3    3    0    0 -0.20241160253E+03  0.18927781637E+02 -0.87804486334E+03  0.90127215634E+03  0.00000000000E+00 0.  1.
          1    1    3    3  501    0  0.20241493317E+03 -0.18919334122E+02 -0.16695294151E+02  0.20398156588E+03  0.00000000000E+00 0.  1.
         21    1    1    2  502  501 -0.33306334779E-02 -0.84475154004E-02  0.36759513555E-02  0.97962367352E-02  0.00000000000E+00 0. -1.
<mgrwt>
<rscale>  1 0.64886504E+03</rscale>
<asrwt>0</asrwt>
<pdfrwt beam="1">  1        1 0.38277724E+00 0.64886504E+03</pdfrwt>
<pdfrwt beam="2">0</pdfrwt>
<totfact> 0.15956198E+00</totfact>
</mgrwt>
</event>
<event>
 6    1  0.2944874E-003  0.6335516E+03  0.7818608E-02  0.9838143E-01
          1   -1    0    0  502    0  0.00000000000E+00  0.00000000000E+00  0.10155900454E+03  0.10155900454E+03  0.00000000000E+00 0.  1.
         13   -1    0    0    0    0 -0.00000000000E+00 -0.00000000000E+00 -0.10000000000E+04  0.10000000000E+04  0.00000000000E+00 0.  1.
    9000005    2    1    2  501    0  0.65229981287E+00  0.50687691558E+00 -0.89949636573E+03  0.11002187711E+04  0.63355106338E+03 0.  0.
         13    1    3    3    0    0  0.27707242285E+03 -0.10900454755E+03 -0.63883801632E+03  0.70481567093E+03  0.00000000000E+00 0.  1.
          1    1    3    3  501    0 -0.27642012304E+03  0.10951142447E+03 -0.26065834941E+03  0.39540310018E+03  0.00000000000E+00 0.  1.
         21    1    1    2  502  501 -0.65229981287E+00 -0.50687691558E+00  0.10553702680E+01  0.13402334334E+01  0.00000000000E+00 0.  1.
<mgrwt>
<rscale>  1 0.63355160E+03</rscale>
<asrwt>0</asrwt>
<pdfrwt beam="1">  1        1 0.36930625E+00 0.63355160E+03</pdfrwt>
<pdfrwt beam="2">0</pdfrwt>
<totfact> 0.18343140E+00</totfact>
</mgrwt>
</event>
<event>
 6    1  0.2944874E-003  0.6487018E+03  0.7818608E-02  0.9809218E-01
          1   -1    0    0  502    0  0.00000000000E+00  0.00000000000E+00  0.13739716810E+03  0.13739716810E+03  0.00000000000E+00 0.  1.
         13   -1    0    0    0    0 -0.00000000000E+00 -0.00000000000E+00 -0.10000000000E+04  0.10000000000E+04  0.00000000000E+00 0.  1.
    9000005    2    1    2  501    0 -0.31310446710E+01 -0.10618112787E+01 -0.89470266231E+03  0.11051275230E+04  0.64869334605E+03 0.  0.
         13    1    3    3    0    0 -0.31827574846E+03  0.19461223287E+01 -0.56860355347E+03  0.65162354198E+03  0.00000000000E+00 0.  1.
          3    1    3    3  501    0  0.31514470378E+03 -0.30079336074E+01 -0.32609910884E+03  0.45350398099E+03  0.00000000000E+00 0.  1.
         21    1    1    2  502  501  0.31310446710E+01  0.10618112787E+01  0.32099830412E+02  0.32269645123E+02  0.00000000000E+00 0.  1.
<mgrwt>
<rscale>  1 0.64870177E+03</rscale>
<asrwt>0</asrwt>
<pdfrwt beam="1">  1        1 0.49962712E+00 0.64870177E+03</pdfrwt>
<pdfrwt beam="2">0</pdfrwt>
<totfact> 0.46441726E-01</totfact>
</mgrwt>
</event>
<event>
 6    1  0.2944874E-003  0.6508451E+03  0.7818608E-02  0.9805195E-01
          1   -1    0    0  502    0  0.00000000000E+00  0.00000000000E+00  0.10590002725E+03  0.10590002725E+03  0.00000000000E+00 0.  1.
         13   -1    0    0    0    0 -0.00000000000E+00 -0.00000000000E+00 -0.10000000000E+04  0.10000000000E+04  0.00000000000E+00 0.  1.
    9000005    2    1    2  501    0 -0.80892258723E-05  0.94474248158E-05 -0.89410015602E+03  0.11058998436E+04  0.65084512367E+03 0.  0.
         13    1    3    3    0    0 -0.23554152578E+03  0.22452552160E+03 -0.45195348326E+03  0.55691424048E+03  0.00000000000E+00 0.  1.
          1    1    3    3  501    0  0.23554151769E+03 -0.22452551216E+03 -0.44214667275E+03  0.54898560308E+03  0.00000000000E+00 0.  1.
         21    1    1    2  502  501  0.80892258681E-05 -0.94474248131E-05  0.18326268645E-03  0.18368424444E-03  0.00000000000E+00 0. -1.
<mgrwt>
<rscale>  1 0.65084512E+03</rscale>
<asrwt>0</asrwt>
<pdfrwt beam="1">  1        1 0.38509182E+00 0.65084512E+03</pdfrwt>
<pdfrwt beam="2">0</pdfrwt>
<totfact> 0.15578955E+00</totfact>
</mgrwt>
</event>
<event>
 6    1  0.2944874E-003  0.5886250E+03  0.7818608E-02  0.9929291E-01
          1   -1    0    0  502    0  0.00000000000E+00  0.00000000000E+00  0.86686660966E+02  0.86686660966E+02  0.00000000000E+00 0.  1.
         13   -1    0    0    0    0 -0.00000000000E+00 -0.00000000000E+00 -0.10000000000E+04  0.10000000000E+04  0.00000000000E+00 0.  1.
    9000005    2    1    2  501    0  0.24019087923E-02 -0.76388641366E-02 -0.91337990142E+03  0.10866196186E+04  0.58862496654E+03 0.  0.
         13    1    3    3    0    0 -0.28867832862E+03 -0.16217470904E+02 -0.55815439349E+03  0.62859725640E+03  0.00000000000E+00 0.  1.
          1    1    3    3  501    0  0.28868073053E+03  0.16209832039E+02 -0.35522550793E+03  0.45802236225E+03  0.00000000000E+00 0.  1.
         21    1    1    2  502  501 -0.24019087923E-02  0.76388641366E-02  0.66562387881E-01  0.67042321645E-01  0.00000000000E+00 0. -1.
<mgrwt>
<rscale>  1 0.58862497E+03</rscale>
<asrwt>0</asrwt>
<pdfrwt beam="1">  1        1 0.31522489E+00 0.58862497E+03</pdfrwt>
<pdfrwt beam="2">0</pdfrwt>
<totfact> 0.31780841E+00</totfact>
</mgrwt>
</event>
<event>
 6    1  0.2944874E-003  0.6521402E+03  0.7818608E-02  0.9802772E-01
          1   -1    0    0  502    0  0.00000000000E+00  0.00000000000E+00  0.10632531510E+03  0.10632531510E+03  0.00000000000E+00 0.  1.
         13   -1    0    0    0    0 -0.00000000000E+00 -0.00000000000E+00 -0.10000000000E+04  0.10000000000E+04  0.00000000000E+00 0.  1.
    9000005    2    1    2  501    0 -0.13990564886E-02 -0.68819604443E-02 -0.89367405612E+03  0.11063182643E+04  0.65214015613E+03 0.  0.
         13    1    3    3    0    0 -0.17613889737E+03 -0.24494031073E+03 -0.23698243853E+03  0.38364220722E+03  0.00000000000E+00 0.  1.
          1    1    3    3  501    0  0.17613749831E+03  0.24493342877E+03 -0.65669161758E+03  0.72267605706E+03  0.00000000000E+00 0.  1.
         21    1    1    2  502  501  0.13990564886E-02  0.68819604443E-02 -0.62878703225E-03  0.70508234800E-02  0.00000000000E+00 0.  1.
<mgrwt>
<rscale>  1 0.65214016E+03</rscale>
<asrwt>0</asrwt>
<pdfrwt beam="1">  1        1 0.38663832E+00 0.65214016E+03</pdfrwt>
<pdfrwt beam="2">0</pdfrwt>
<totfact> 0.15331716E+00</totfact>
</mgrwt>
</event>
<event>
 6    1  0.2944874E-003  0.6354500E+03  0.7818608E-02  0.9834471E-01
          1   -1    0    0  502    0  0.00000000000E+00  0.00000000000E+00  0.10554241633E+03  0.10554241633E+03  0.00000000000E+00 0.  1.
         13   -1    0    0    0    0 -0.00000000000E+00 -0.00000000000E+00 -0.10000000000E+04  0.10000000000E+04  0.00000000000E+00 0.  1.
    9000005    2    1    2  501    0  0.66614668319E-01  0.15999335442E+00 -0.89904901302E+03  0.11009477173E+04  0.63545001255E+03 0.  0.
         13    1    3    3    0    0 -0.16830048493E+03 -0.17891619488E+03 -0.79841964586E+03  0.83535021931E+03  0.00000000000E+00 0.  1.
          3    1    3    3  501    0  0.16836709959E+03  0.17907618824E+03 -0.10062936716E+03  0.26559749802E+03  0.00000000000E+00 0.  1.
         21    1    1    2  502  501 -0.66614668319E-01 -0.15999335442E+00  0.45914293496E+01  0.45946989955E+01  0.00000000000E+00 0.  1.
<mgrwt>
<rscale>  1 0.63545004E+03</rscale>
<asrwt>0</asrwt>
<pdfrwt beam="1">  1        1 0.38379141E+00 0.63545004E+03</pdfrwt>
<pdfrwt beam="2">0</pdfrwt>
<totfact> 0.15831887E+00</totfact>
</mgrwt>
</event>
<event>
 6    1  0.2944874E-003  0.6505179E+03  0.7818608E-02  0.9805808E-01
          3   -1    0    0  502    0  0.00000000000E+00  0.00000000000E+00  0.10584187662E+03  0.10584187662E+03  0.00000000000E+00 0.  1.
         13   -1    0    0    0    0 -0.00000000000E+00 -0.00000000000E+00 -0.10000000000E+04  0.10000000000E+04  0.00000000000E+00 0.  1.
    9000005    2    1    2  501    0 -0.14747353559E-01  0.33641591574E-01 -0.89419879084E+03  0.11057870762E+04  0.65051793139E+03 0.  0.
         13    1    3    3    0    0 -0.14926313127E+03 -0.28880676624E+03 -0.46382941257E+03  0.56641553170E+03  0.00000000000E+00 0.  1.
          3    1    3    3  501    0  0.14924838392E+03  0.28884040783E+03 -0.43036937827E+03  0.53937154453E+03  0.00000000000E+00 0.  1.
         21    1    1    2  502  501  0.14747353559E-01 -0.33641591574E-01  0.40667462296E-01  0.54800397902E-01  0.00000000000E+00 0.  1.
<mgrwt>
<rscale>  1 0.65051793E+03</rscale>
<asrwt>0</asrwt>
<pdfrwt beam="1">  1        3 0.38488036E+00 0.65051793E+03</pdfrwt>
<pdfrwt beam="2">0</pdfrwt>
<totfact> 0.71126904E-02</totfact>
</mgrwt>
</event>
<event>
 6    1  0.2944874E-003  0.6895286E+03  0.7818608E-02  0.9735309E-01
          1   -1    0    0  502    0  0.00000000000E+00  0.00000000000E+00  0.11897231525E+03  0.11897231525E+03  0.00000000000E+00 0.  1.
         13   -1    0    0    0    0 -0.00000000000E+00 -0.00000000000E+00 -0.10000000000E+04  0.10000000000E+04  0.00000000000E+00 0.  1.
    9000005    2    1    2  501    0 -0.11730981394E-01 -0.82223734017E-01 -0.88111970685E+03  0.11188483539E+04  0.68952860293E+03 0.  0.
         13    1    3    3    0    0  0.25018779986E+03 -0.22296649193E+03 -0.30906712242E+03  0.45588428124E+03  0.00000000000E+00 0.  1.
          1    1    3    3  501    0 -0.25019953084E+03  0.22288426819E+03 -0.57205258443E+03  0.66296407262E+03  0.00000000000E+00 0.  1.
         21    1    1    2  502  501  0.11730981394E-01  0.82223734017E-01  0.92022093943E-01  0.12396138162E+00  0.00000000000E+00 0. -1.
<mgrwt>
<rscale>  1 0.68952861E+03</rscale>
<asrwt>0</asrwt>
<pdfrwt beam="1">  1        1 0.43262751E+00 0.68952861E+03</pdfrwt>
<pdfrwt beam="2">0</pdfrwt>
<totfact> 0.94664771E-01</totfact>
</mgrwt>
</event>
<event>
 6    1  0.2944874E-003  0.6634712E+03  0.7818608E-02  0.9781825E-01
          1   -1    0    0  502    0  0.00000000000E+00  0.00000000000E+00  0.11005193866E+03  0.11005193866E+03  0.00000000000E+00 0.  1.
         13   -1    0    0    0    0 -0.00000000000E+00 -0.00000000000E+00 -0.10000000000E+04  0.10000000000E+04  0.00000000000E+00 0.  1.
    9000005    2    1    2  501    0 -0.13903386514E-03 -0.21848229068E-03 -0.88995147604E+03  0.11100485142E+04  0.66347123078E+03 0.  0.
         13    1    3    3    0    0  0.22798793344E+03  0.24094071827E+03 -0.43797518884E+03  0.54941167949E+03  0.00000000000E+00 0.  1.
          1    1    3    3  501    0 -0.22798807247E+03 -0.24094093676E+03 -0.45197628720E+03  0.56063683467E+03  0.00000000000E+00 0.  1.
         21    1    1    2  502  501  0.13903386514E-03  0.21848229067E-03  0.34146962475E-02  0.34245022105E-02  0.00000000000E+00 0. -1.
<mgrwt>
<rscale>  1 0.66347123E+03</rscale>
<asrwt>0</asrwt>
<pdfrwt beam="1">  1        1 0.40018971E+00 0.66347123E+03</pdfrwt>
<pdfrwt beam="2">0</pdfrwt>
<totfact> 0.13318809E+00</totfact>
</mgrwt>
</event>
<event>
 6    1  0.2944874E-003  0.6377430E+03  0.7818608E-02  0.9830054E-01
          1   -1    0    0  502    0  0.00000000000E+00  0.00000000000E+00  0.10193242704E+03  0.10193242704E+03  0.00000000000E+00 0.  1.
         13   -1    0    0    0    0 -0.00000000000E+00 -0.00000000000E+00 -0.10000000000E+04  0.10000000000E+04  0.00000000000E+00 0.  1.
    9000005    2    1    2  501    0 -0.29153318228E-01  0.15633871295E+00 -0.89829319601E+03  0.11016563881E+04  0.63774297820E+03 0.  0.
         13    1    3    3    0    0 -0.41112654285E+02 -0.31595457909E+03 -0.46742586690E+03  0.56568939131E+03  0.00000000000E+00 0.  1.
          1    1    3    3  501    0  0.41083500967E+02  0.31611091780E+03 -0.43086732911E+03  0.53596699684E+03  0.00000000000E+00 0.  1.
         21    1    1    2  502  501  0.29153318228E-01 -0.15633871295E+00  0.22562305412E+00  0.27603889524E+00  0.00000000000E+00 0. -1.
<mgrwt>
<rscale>  1 0.63774300E+03</rscale>
<asrwt>0</asrwt>
<pdfrwt beam="1">  1        1 0.37066415E+00 0.63774300E+03</pdfrwt>
<pdfrwt beam="2">0</pdfrwt>
<totfact> 0.18079148E+00</totfact>
</mgrwt>
</event>
<event>
 6    1  0.2944874E-003  0.6505517E+03  0.7818608E-02  0.9805745E-01
          1   -1    0    0  502    0  0.00000000000E+00  0.00000000000E+00  0.10626499612E+03  0.10626499612E+03  0.00000000000E+00 0.  1.
         13   -1    0    0    0    0 -0.00000000000E+00 -0.00000000000E+00 -0.10000000000E+04  0.10000000000E+04  0.00000000000E+00 0.  1.
    9000005    2    1    2  501    0  0.17271146130E+00 -0.15462290328E+00 -0.89416315145E+03  0.11057781205E+04  0.65055165569E+03 0.  0.
         13    1    3    3    0    0  0.29623727127E+03 -0.12136348942E+03 -0.54617590843E+03  0.63308272793E+03  0.00000000000E+00 0.  1.
          1    1    3    3  501    0 -0.29606455980E+03  0.12120886651E+03 -0.34798724301E+03  0.47269539261E+03  0.00000000000E+00 0.  1.
         21    1    1    2  502  501 -0.17271146130E+00  0.15462290328E+00  0.42814756334E+00  0.48687557658E+00  0.00000000000E+00 0. -1.
<mgrwt>
<rscale>  1 0.65055170E+03</rscale>
<asrwt>0</asrwt>
<pdfrwt beam="1">  1        1 0.38641898E+00 0.65055170E+03</pdfrwt>
<pdfrwt beam="2">0</pdfrwt>
<totfact> 0.15370547E+00</totfact>
</mgrwt>
</event>
<event>
 6    1  0.2944874E-003  0.6227065E+03  0.7818608E-02  0.9859386E-01
          1   -1    0    0  502    0  0.00000000000E+00  0.00000000000E+00  0.96942485138E+02  0.96942485138E+02  0.00000000000E+00 0.  1.
         13   -1    0    0    0    0 -0.00000000000E+00 -0.00000000000E+00 -0.10000000000E+04  0.10000000000E+04  0.00000000000E+00 0.  1.
    9000005    2    1    2  501    0 -0.33000905387E-02 -0.26474534901E-02 -0.90304432518E+03  0.10969286335E+04  0.62270649088E+03 0.  0.
         13    1    3    3    0    0 -0.25010425665E+03 -0.79474046242E+02 -0.15637364335E+03  0.30548482704E+03  0.00000000000E+00 0.  1.
          1    1    3    3  501    0  0.25010095656E+03  0.79471398789E+02 -0.74667068183E+03  0.79144380647E+03  0.00000000000E+00 0.  1.
         21    1    1    2  502  501  0.33000905387E-02  0.26474534900E-02 -0.13189684976E-01  0.13851620746E-01  0.00000000000E+00 0. -1.
<mgrwt>
<rscale>  1 0.62270649E+03</rscale>
<asrwt>0</asrwt>
<pdfrwt beam="1">  1        1 0.35251887E+00 0.62270649E+03</pdfrwt>
<pdfrwt beam="2">0</pdfrwt>
<totfact> 0.21765647E+00</totfact>
</mgrwt>
</event>
<event>
 6    1  0.2944874E-003  0.6743709E+03  0.7818608E-02  0.9762094E-01
          1   -1    0    0  502    0  0.00000000000E+00  0.00000000000E+00  0.12102267174E+03  0.12102267174E+03  0.00000000000E+00 0.  1.
         13   -1    0    0    0    0 -0.00000000000E+00 -0.00000000000E+00 -0.10000000000E+04  0.10000000000E+04  0.00000000000E+00 0.  1.
    9000005    2    1    2  501    0  0.76685218021E+00  0.59048836471E+00 -0.88627036428E+03  0.11136656946E+04  0.67437021281E+03 0.  0.
         13    1    3    3    0    0  0.31831427183E+03 -0.66802861752E+02 -0.29479843419E+03  0.43896778332E+03  0.00000000000E+00 0.  1.
          3    1    3    3  501    0 -0.31754741965E+03  0.67393350116E+02 -0.59147193009E+03  0.67469791125E+03  0.00000000000E+00 0.  1.
         21    1    1    2  502  501 -0.76685218021E+00 -0.59048836471E+00  0.72930360143E+01  0.73569771701E+01  0.00000000000E+00 0.  1.
<mgrwt>
<rscale>  1 0.67437091E+03</rscale>
<asrwt>0</asrwt>
<pdfrwt beam="1">  1        1 0.44008337E+00 0.67437091E+03</pdfrwt>
<pdfrwt beam="2">0</pdfrwt>
<totfact> 0.87789573E-01</totfact>
</mgrwt>
</event>
<event>
 6    1  0.2944874E-003  0.6499858E+03  0.7818608E-02  0.9806806E-01
          1   -1    0    0  502    0  0.00000000000E+00  0.00000000000E+00  0.10562043224E+03  0.10562043224E+03  0.00000000000E+00 0.  1.
         13   -1    0    0    0    0 -0.00000000000E+00 -0.00000000000E+00 -0.10000000000E+04  0.10000000000E+04  0.00000000000E+00 0.  1.
    9000005    2    1    2  501    0  0.71552843792E-05 -0.29014109828E-04 -0.89437959237E+03  0.11056203935E+04  0.64998584550E+03 0.  0.
         13    1    3    3    0    0  0.84877835579E+02  0.19521515552E+03 -0.29468417883E+02  0.21489902645E+03  0.00000000000E+00 0.  1.
          3    1    3    3  501    0 -0.84877828423E+02 -0.19521518453E+03 -0.86491117448E+03  0.89072136708E+03  0.00000000000E+00 0.  1.
         21    1    1    2  502  501 -0.71552843853E-05  0.29014109816E-04  0.24606846126E-04  0.38710638581E-04  0.00000000000E+00 0. -1.
<mgrwt>
<rscale>  1 0.64998585E+03</rscale>
<asrwt>0</asrwt>
<pdfrwt beam="1">  1        1 0.38407511E+00 0.64998585E+03</pdfrwt>
<pdfrwt beam="2">0</pdfrwt>
<totfact> 0.15743577E+00</totfact>
</mgrwt>
</event>
<event>
 6    1  0.2944874E-003  0.6444498E+03  0.7818608E-02  0.9817250E-01
          1   -1    0    0  502    0  0.00000000000E+00  0.00000000000E+00  0.10447878525E+03  0.10447878525E+03  0.00000000000E+00 0.  1.
         13   -1    0    0    0    0 -0.00000000000E+00 -0.00000000000E+00 -0.10000000000E+04  0.10000000000E+04  0.00000000000E+00 0.  1.
    9000005    2    1    2  501    0 -0.41876384475E-01 -0.31773070891E-01 -0.89616993054E+03  0.11038279432E+04  0.64444982821E+03 0.  0.
         13    1    3    3    0    0 -0.22480787389E+03  0.13943821742E+03 -0.76323768496E+03  0.80778299090E+03  0.00000000000E+00 0.  1.
          3    1    3    3  501    0  0.22476599751E+03 -0.13946999049E+03 -0.13293224559E+03  0.29604495233E+03  0.00000000000E+00 0.  1.
         21    1    1    2  502  501  0.41876384475E-01  0.31773070891E-01  0.64871579299E+00  0.65084202360E+00  0.00000000000E+00 0.  1.
<mgrwt>
<rscale>  1 0.64444983E+03</rscale>
<asrwt>0</asrwt>
<pdfrwt beam="1">  1        1 0.37992366E+00 0.64444983E+03</pdfrwt>
<pdfrwt beam="2">0</pdfrwt>
<totfact> 0.16439224E+00</totfact>
</mgrwt>
</event>
<event>
 6    1  0.2944874E-003  0.6433686E+03  0.7818608E-02  0.9819303E-01
          3   -1    0    0  502    0  0.00000000000E+00  0.00000000000E+00  0.10741765875E+03  0.10741765875E+03  0.00000000000E+00 0.  1.
         13   -1    0    0    0    0 -0.00000000000E+00 -0.00000000000E+00 -0.10000000000E+04  0.10000000000E+04  0.00000000000E+00 0.  1.
    9000005    2    1    2  501    0  0.10115057406E-01  0.66877870224E-01 -0.89651890298E+03  0.11034805160E+04  0.64336855781E+03 0.  0.
         13    1    3    3    0    0  0.30923192401E+03 -0.88378864414E+02 -0.43703451403E+03  0.54261807282E+03  0.00000000000E+00 0.  1.
          3    1    3    3  501    0 -0.30922180895E+03  0.88445742284E+02 -0.45948438895E+03  0.56086244316E+03  0.00000000000E+00 0.  1.
         21    1    1    2  502  501 -0.10115057406E-01 -0.66877870224E-01  0.39365617273E+01  0.39371427707E+01  0.00000000000E+00 0. -1.
<mgrwt>
<rscale>  1 0.64336856E+03</rscale>
<asrwt>0</asrwt>
<pdfrwt beam="1">  1        3 0.39061049E+00 0.64336856E+03</pdfrwt>
<pdfrwt beam="2">0</pdfrwt>
<totfact> 0.66433053E-02</totfact>
</mgrwt>
</event>
<event>
 6    1  0.2944874E-003  0.4804580E+03  0.7818608E-02  0.1019009E+00
          1   -1    0    0  502    0  0.00000000000E+00  0.00000000000E+00  0.57710058673E+02  0.57710058673E+02  0.00000000000E+00 0.  1.
         13   -1    0    0    0    0 -0.00000000000E+00 -0.00000000000E+00 -0.10000000000E+04  0.10000000000E+04  0.00000000000E+00 0.  1.
    9000005    2    1    2  501    0 -0.25175048106E-03 -0.19516932318E-03 -0.94228952750E+03  0.10577095364E+04  0.48045802090E+03 0.  0.
         13    1    3    3    0    0  0.16343449552E+03  0.16990199020E+03 -0.57280292195E+03  0.61941965419E+03  0.00000000000E+00 0.  1.
          1    1    3    3  501    0 -0.16343474727E+03 -0.16990218537E+03 -0.36948660555E+03  0.43828988226E+03  0.00000000000E+00 0.  1.
         21    1    1    2  502  501  0.25175048106E-03  0.19516932317E-03 -0.41382373179E-03  0.52222547852E-03  0.00000000000E+00 0.  1.
<mgrwt>
<rscale>  1 0.48045802E+03</rscale>
<asrwt>0</asrwt>
<pdfrwt beam="1">  1        1 0.20985520E+00 0.48045802E+03</pdfrwt>
<pdfrwt beam="2">0</pdfrwt>
<totfact> 0.93097647E+00</totfact>
</mgrwt>
</event>
<event>
 6    1  0.2944874E-003  0.6448713E+03  0.7818608E-02  0.9816451E-01
          1   -1    0    0  502    0  0.00000000000E+00  0.00000000000E+00  0.10398277840E+03  0.10398277840E+03  0.00000000000E+00 0.  1.
         13   -1    0    0    0    0 -0.00000000000E+00 -0.00000000000E+00 -0.10000000000E+04  0.10000000000E+04  0.00000000000E+00 0.  1.
    9000005    2    1    2  501    0 -0.60624927573E-03  0.66240298503E-03 -0.89603524563E+03  0.11039647320E+04  0.64487128028E+03 0.  0.
         13    1    3    3    0    0  0.22769793415E+03  0.21084337730E+03 -0.59788073729E+03  0.67361907261E+03  0.00000000000E+00 0.  1.
          3    1    3    3  501    0 -0.22769854040E+03 -0.21084271490E+03 -0.29815450834E+03  0.43034565941E+03  0.00000000000E+00 0.  1.
         21    1    1    2  502  501  0.60624927574E-03 -0.66240298503E-03  0.18024028437E-01  0.18046382380E-01  0.00000000000E+00 0. -1.
<mgrwt>
<rscale>  1 0.64487128E+03</rscale>
<asrwt>0</asrwt>
<pdfrwt beam="1">  1        1 0.37811999E+00 0.64487128E+03</pdfrwt>
<pdfrwt beam="2">0</pdfrwt>
<totfact> 0.16741788E+00</totfact>
</mgrwt>
</event>
<event>
 6    1  0.2944874E-003  0.6410665E+03  0.7818608E-02  0.9823688E-01
          1   -1    0    0  502    0  0.00000000000E+00  0.00000000000E+00  0.10274944649E+03  0.10274944649E+03  0.00000000000E+00 0.  1.
         13   -1    0    0    0    0 -0.00000000000E+00 -0.00000000000E+00 -0.10000000000E+04  0.10000000000E+04  0.00000000000E+00 0.  1.
    9000005    2    1    2  501    0  0.10896388135E-02 -0.32551726989E-02 -0.89725800705E+03  0.11027412405E+04  0.64106654274E+03 0.  0.
         13    1    3    3    0    0 -0.22013803008E+03 -0.28942689901E+02 -0.50965009448E+02  0.22780663681E+03  0.00000000000E+00 0.  1.
          3    1    3    3  501    0  0.22013911972E+03  0.28939434729E+02 -0.84629299760E+03  0.87493460367E+03  0.00000000000E+00 0.  1.
         21    1    1    2  502  501 -0.10896388135E-02  0.32551726989E-02  0.74535314488E-02  0.82060095724E-02  0.00000000000E+00 0. -1.
<mgrwt>
<rscale>  1 0.64106654E+03</rscale>
<asrwt>0</asrwt>
<pdfrwt beam="1">  1        1 0.37363514E+00 0.64106654E+03</pdfrwt>
<pdfrwt beam="2">0</pdfrwt>
<totfact> 0.17532906E+00</totfact>
</mgrwt>
</event>
<event>
 6    1  0.2944874E-003  0.6453754E+03  0.7818608E-02  0.9815496E-01
          3   -1    0    0  502    0  0.00000000000E+00  0.00000000000E+00  0.10412738824E+03  0.10412738824E+03  0.00000000000E+00 0.  1.
         13   -1    0    0    0    0 -0.00000000000E+00 -0.00000000000E+00 -0.10000000000E+04  0.10000000000E+04  0.00000000000E+00 0.  1.
    9000005    2    1    2  501    0  0.76653202825E-05  0.17378918542E-04 -0.89587265606E+03  0.11041273400E+04  0.64537536919E+03 0.  0.
         13    1    3    3    0    0 -0.18411428128E+03 -0.40875300478E+02 -0.89589439922E+03  0.91553024708E+03  0.00000000000E+00 0.  1.
          1    1    3    3  501    0  0.18411428894E+03  0.40875317857E+02  0.21743161047E-01  0.18859709297E+03  0.00000000000E+00 0.  1.
         21    1    1    2  502  501 -0.76653202728E-05 -0.17378918549E-04  0.44296254894E-04  0.48196910093E-04  0.00000000000E+00 0.  1.
<mgrwt>
<rscale>  1 0.64537537E+03</rscale>
<asrwt>0</asrwt>
<pdfrwt beam="1">  1        3 0.37864585E+00 0.64537537E+03</pdfrwt>
<pdfrwt beam="2">0</pdfrwt>
<totfact> 0.76791582E-02</totfact>
</mgrwt>
</event>
<event>
 6    1  0.2944874E-003  0.6441016E+03  0.7818608E-02  0.9817910E-01
          1   -1    0    0  502    0  0.00000000000E+00  0.00000000000E+00  0.10534144985E+03  0.10534144985E+03  0.00000000000E+00 0.  1.
         13   -1    0    0    0    0 -0.00000000000E+00 -0.00000000000E+00 -0.10000000000E+04  0.10000000000E+04  0.00000000000E+00 0.  1.
    9000005    2    1    2  501    0  0.11212908304E+00  0.56857581921E-01 -0.89628059862E+03  0.11037145365E+04  0.64410158427E+03 0.  0.
         13    1    3    3    0    0 -0.13547553918E+03  0.20448290020E+03 -0.80571639287E+03  0.84222668203E+03  0.00000000000E+00 0.  1.
          1    1    3    3  501    0  0.13558766826E+03 -0.20442604261E+03 -0.90564205754E+02  0.26148785449E+03  0.00000000000E+00 0.  1.
         21    1    1    2  502  501 -0.11212908304E+00 -0.56857581921E-01  0.16220484713E+01  0.16269133226E+01  0.00000000000E+00 0.  1.
<mgrwt>
<rscale>  1 0.64410160E+03</rscale>
<asrwt>0</asrwt>
<pdfrwt beam="1">  1        1 0.38306063E+00 0.64410160E+03</pdfrwt>
<pdfrwt beam="2">0</pdfrwt>
<totfact> 0.15924278E+00</totfact>
</mgrwt>
</event>
<event>
 6    1  0.2944874E-003  0.4808352E+03  0.7818608E-02  0.1018906E+00
          1   -1    0    0  502    0  0.00000000000E+00  0.00000000000E+00  0.58556281979E+02  0.58556281979E+02  0.00000000000E+00 0.  1.
         13   -1    0    0    0    0 -0.00000000000E+00 -0.00000000000E+00 -0.10000000000E+04  0.10000000000E+04  0.00000000000E+00 0.  1.
    9000005    2    1    2  501    0  0.26510692662E+01  0.12113016848E+01 -0.93284728434E+03  0.10494791628E+04  0.48082633236E+03 0.  0.
         13    1    3    3    0    0 -0.19404224022E+03 -0.21967061552E+01 -0.77006777693E+03  0.79414205126E+03  0.00000000000E+00 0.  1.
          3    1    3    3  501    0  0.19669330949E+03  0.34080078400E+01 -0.16277950741E+03  0.25533711158E+03  0.00000000000E+00 0.  1.
         21    1    1    2  502  501 -0.26510692662E+01 -0.12113016848E+01 -0.85964336784E+01  0.90771191472E+01  0.00000000000E+00 0.  1.
<mgrwt>
<rscale>  1 0.48083517E+03</rscale>
<asrwt>0</asrwt>
<pdfrwt beam="1">  1        1 0.21293238E+00 0.48083517E+03</pdfrwt>
<pdfrwt beam="2">0</pdfrwt>
<totfact> 0.90187519E+00</totfact>
</mgrwt>
</event>
<event>
 6    1  0.2944874E-003  0.6195230E+03  0.7818608E-02  0.9865710E-01
          1   -1    0    0  502    0  0.00000000000E+00  0.00000000000E+00  0.96146190679E+02  0.96146190679E+02  0.00000000000E+00 0.  1.
         13   -1    0    0    0    0 -0.00000000000E+00 -0.00000000000E+00 -0.10000000000E+04  0.10000000000E+04  0.00000000000E+00 0.  1.
    9000005    2    1    2  501    0 -0.23802927105E-02  0.28856733063E-01 -0.90404663652E+03  0.10959512017E+04  0.61952297346E+03 0.  0.
         13    1    3    3    0    0 -0.30270715705E+03 -0.59492672188E+02 -0.40260907060E+03  0.50721303681E+03  0.00000000000E+00 0.  1.
          1    1    3    3  501    0  0.30270477676E+03  0.59521528921E+02 -0.50143756592E+03  0.58873816488E+03  0.00000000000E+00 0.  1.
         21    1    1    2  502  501  0.23802927105E-02 -0.28856733063E-01  0.19282719994E+00  0.19498898911E+00  0.00000000000E+00 0.  1.
<mgrwt>
<rscale>  1 0.61952297E+03</rscale>
<asrwt>0</asrwt>
<pdfrwt beam="1">  1        1 0.34962325E+00 0.61952297E+03</pdfrwt>
<pdfrwt beam="2">0</pdfrwt>
<totfact> 0.22420279E+00</totfact>
</mgrwt>
</event>
<event>
 6    1  0.2944874E-003  0.6821131E+03  0.7818608E-02  0.9748320E-01
          1   -1    0    0  502    0  0.00000000000E+00  0.00000000000E+00  0.11631963133E+03  0.11631963133E+03  0.00000000000E+00 0.  1.
         13   -1    0    0    0    0 -0.00000000000E+00 -0.00000000000E+00 -0.10000000000E+04  0.10000000000E+04  0.00000000000E+00 0.  1.
    9000005    2    1    2  501    0  0.33766652052E-04 -0.32459316628E-04 -0.88368041215E+03  0.11163195674E+04  0.68211311802E+03 0.  0.
         13    1    3    3    0    0 -0.16189088746E+03 -0.20383687474E+03 -0.81196845763E+02  0.27267390544E+03  0.00000000000E+00 0.  1.
          3    1    3    3  501    0  0.16189092123E+03  0.20383684228E+03 -0.80248356639E+03  0.84364566198E+03  0.00000000000E+00 0.  1.
         21    1    1    2  502  501 -0.33766652068E-04  0.32459316614E-04  0.43485461728E-04  0.63912279013E-04  0.00000000000E+00 0. -1.
<mgrwt>
<rscale>  1 0.68211312E+03</rscale>
<asrwt>0</asrwt>
<pdfrwt beam="1">  1        1 0.42298137E+00 0.68211312E+03</pdfrwt>
<pdfrwt beam="2">0</pdfrwt>
<totfact> 0.10485361E+00</totfact>
</mgrwt>
</event>
<event>
 6    1  0.2944874E-003  0.6505122E+03  0.7818608E-02  0.9805818E-01
          1   -1    0    0  502    0  0.00000000000E+00  0.00000000000E+00  0.10583670623E+03  0.10583670623E+03  0.00000000000E+00 0.  1.
         13   -1    0    0    0    0 -0.00000000000E+00 -0.00000000000E+00 -0.10000000000E+04  0.10000000000E+04  0.00000000000E+00 0.  1.
    9000005    2    1    2  501    0 -0.18933352994E-02  0.17135858644E-02 -0.89420841507E+03  0.11057915127E+04  0.65051224434E+03 0.  0.
         13    1    3    3    0    0 -0.62244411716E+02 -0.28102991645E+03 -0.70456062769E+03  0.76108991507E+03  0.00000000000E+00 0.  1.
          1    1    3    3  501    0  0.62242518381E+02  0.28103163003E+03 -0.18964778738E+03  0.34470159766E+03  0.00000000000E+00 0.  1.
         21    1    1    2  502  501  0.18933352994E-02 -0.17135858644E-02  0.45121300007E-01  0.45193504062E-01  0.00000000000E+00 0. -1.
<mgrwt>
<rscale>  1 0.65051224E+03</rscale>
<asrwt>0</asrwt>
<pdfrwt beam="1">  1        1 0.38486156E+00 0.65051224E+03</pdfrwt>
<pdfrwt beam="2">0</pdfrwt>
<totfact> 0.15616492E+00</totfact>
</mgrwt>
</event>
<event>
 6    1  0.2944874E-003  0.6549049E+03  0.7818608E-02  0.9797619E-01
          1   -1    0    0  502    0  0.00000000000E+00  0.00000000000E+00  0.10723805050E+03  0.10723805050E+03  0.00000000000E+00 0.  1.
         13   -1    0    0    0    0 -0.00000000000E+00 -0.00000000000E+00 -0.10000000000E+04  0.10000000000E+04  0.00000000000E+00 0.  1.
    9000005    2    1    2  501    0  0.24995572492E-02  0.80147227834E-04 -0.89277475424E+03  0.11072250038E+04  0.65490491471E+03 0.  0.
         13    1    3    3    0    0  0.13664223960E+03 -0.29758035256E+03 -0.44725283710E+03  0.55431062426E+03  0.00000000000E+00 0.  1.
          1    1    3    3  501    0 -0.13663974004E+03  0.29758043271E+03 -0.44552191714E+03  0.55291437957E+03  0.00000000000E+00 0.  1.
         21    1    1    2  502  501 -0.24995572492E-02 -0.80147227842E-04  0.12804734844E-01  0.13046664112E-01  0.00000000000E+00 0.  1.
<mgrwt>
<rscale>  1 0.65490491E+03</rscale>
<asrwt>0</asrwt>
<pdfrwt beam="1">  1        1 0.38995737E+00 0.65490491E+03</pdfrwt>
<pdfrwt beam="2">0</pdfrwt>
<totfact> 0.14813660E+00</totfact>
</mgrwt>
</event>
<event>
 6    1  0.2944874E-003  0.6347511E+03  0.7818608E-02  0.9835821E-01
          1   -1    0    0  502    0  0.00000000000E+00  0.00000000000E+00  0.10075843889E+03  0.10075843889E+03  0.00000000000E+00 0.  1.
         13   -1    0    0    0    0 -0.00000000000E+00 -0.00000000000E+00 -0.10000000000E+04  0.10000000000E+04  0.00000000000E+00 0.  1.
    9000005    2    1    2  501    0  0.58484861703E-02 -0.55563978901E-03 -0.89927244916E+03  0.11007269971E+04  0.63475111999E+03 0.  0.
         13    1    3    3    0    0 -0.14057044196E+02 -0.24230603430E+03 -0.80424969940E+03  0.84007582618E+03  0.00000000000E+00 0.  1.
          1    1    3    3  501    0  0.14062892682E+02  0.24230547866E+03 -0.95022749764E+02  0.26065117094E+03  0.00000000000E+00 0.  1.
         21    1    1    2  502  501 -0.58484861703E-02  0.55563978902E-03  0.30888051002E-01  0.31441775089E-01  0.00000000000E+00 0. -1.
<mgrwt>
<rscale>  1 0.63475112E+03</rscale>
<asrwt>0</asrwt>
<pdfrwt beam="1">  1        1 0.36639510E+00 0.63475112E+03</pdfrwt>
<pdfrwt beam="2">0</pdfrwt>
<totfact> 0.18886485E+00</totfact>
</mgrwt>
</event>
<event>
 6    1  0.2944874E-003  0.6492249E+03  0.7818608E-02  0.9808235E-01
          1   -1    0    0  502    0  0.00000000000E+00  0.00000000000E+00  0.10539468660E+03  0.10539468660E+03  0.00000000000E+00 0.  1.
         13   -1    0    0    0    0 -0.00000000000E+00 -0.00000000000E+00 -0.10000000000E+04  0.10000000000E+04  0.00000000000E+00 0.  1.
    9000005    2    1    2  501    0  0.28300498180E-01  0.17685934074E-02 -0.89461586577E+03  0.11053644310E+04  0.64922490503E+03 0.  0.
         13    1    3    3    0    0  0.65176486804E+02 -0.17617915315E+03 -0.89805652470E+03  0.91749255582E+03  0.00000000000E+00 0.  1.
          1    1    3    3  501    0 -0.65148186306E+02  0.17618092174E+03  0.34406589243E+01  0.18787187522E+03  0.00000000000E+00 0.  1.
         21    1    1    2  502  501 -0.28300498180E-01 -0.17685934074E-02  0.10552369813E-01  0.30255555334E-01  0.00000000000E+00 0. -1.
<mgrwt>
<rscale>  1 0.64922491E+03</rscale>
<asrwt>0</asrwt>
<pdfrwt beam="1">  1        1 0.38325421E+00 0.64922491E+03</pdfrwt>
<pdfrwt beam="2">0</pdfrwt>
<totfact> 0.15877895E+00</totfact>
</mgrwt>
</event>
<event>
 6    1  0.2944874E-003  0.6566851E+03  0.7818608E-02  0.9794315E-01
          1   -1    0    0  502    0  0.00000000000E+00  0.00000000000E+00  0.10781583026E+03  0.10781583026E+03  0.00000000000E+00 0.  1.
         13   -1    0    0    0    0 -0.00000000000E+00 -0.00000000000E+00 -0.10000000000E+04  0.10000000000E+04  0.00000000000E+00 0.  1.
    9000005    2    1    2  501    0 -0.10310103852E-03 -0.10308730452E-04 -0.89219117256E+03  0.11078088267E+04  0.65668509049E+03 0.  0.
         13    1    3    3    0    0  0.26119773531E+03 -0.17195733032E+03 -0.61492099512E+03  0.68987057527E+03  0.00000000000E+00 0.  1.
          1    1    3    3  501    0 -0.26119783841E+03  0.17195732001E+03 -0.27727017744E+03  0.41793825141E+03  0.00000000000E+00 0.  1.
         21    1    1    2  502  501  0.10310103850E-03  0.10308730453E-04  0.70028176977E-02  0.70035842110E-02  0.00000000000E+00 0. -1.
<mgrwt>
<rscale>  1 0.65668509E+03</rscale>
<asrwt>0</asrwt>
<pdfrwt beam="1">  1        1 0.39205839E+00 0.65668509E+03</pdfrwt>
<pdfrwt beam="2">0</pdfrwt>
<totfact> 0.14494268E+00</totfact>
</mgrwt>
</event>
<event>
 6    1  0.2944874E-003  0.5136373E+03  0.7818608E-02  0.1010279E+00
          1   -1    0    0  502    0  0.00000000000E+00  0.00000000000E+00  0.66180805871E+02  0.66180805871E+02  0.00000000000E+00 0.  1.
         13   -1    0    0    0    0 -0.00000000000E+00 -0.00000000000E+00 -0.10000000000E+04  0.10000000000E+04  0.00000000000E+00 0.  1.
    9000005    2    1    2  501    0 -0.10345175431E+00  0.75023379363E-01 -0.93402472673E+03  0.10659387843E+04  0.51363730929E+03 0.  0.
         13    1    3    3    0    0 -0.86878167500E+02  0.20160662240E+03 -0.74387193300E+03  0.77558913020E+03  0.00000000000E+00 0.  1.
          3    1    3    3  501    0  0.86774715746E+02 -0.20153159902E+03 -0.19015279373E+03  0.29034965414E+03  0.00000000000E+00 0.  1.
         21    1    1    2  502  501  0.10345175431E+00 -0.75023379363E-01  0.20553259804E+00  0.24202153165E+00  0.00000000000E+00 0.  1.
<mgrwt>
<rscale>  1 0.51363733E+03</rscale>
<asrwt>0</asrwt>
<pdfrwt beam="1">  1        1 0.24065798E+00 0.51363733E+03</pdfrwt>
<pdfrwt beam="2">0</pdfrwt>
<totfact> 0.67676944E+00</totfact>
</mgrwt>
</event>
<event>
 6    1  0.2944874E-003  0.6476514E+03  0.7818608E-02  0.9811196E-01
          1   -1    0    0  502    0  0.00000000000E+00  0.00000000000E+00  0.10500353479E+03  0.10500353479E+03  0.00000000000E+00 0.  1.
         13   -1    0    0    0    0 -0.00000000000E+00 -0.00000000000E+00 -0.10000000000E+04  0.10000000000E+04  0.00000000000E+00 0.  1.
    9000005    2    1    2  501    0 -0.65881822966E-01 -0.20996400346E-01 -0.89512743583E+03  0.11048554316E+04  0.64765144444E+03 0.  0.
         13    1    3    3    0    0 -0.99908674706E+02 -0.15115607114E+03 -0.90547316765E+03  0.92342382385E+03  0.00000000000E+00 0.  1.
          3    1    3    3  501    0  0.99842792883E+02  0.15113507474E+03  0.10345731818E+02  0.18143160770E+03  0.00000000000E+00 0.  1.
         21    1    1    2  502  501  0.65881822966E-01  0.20996400346E-01  0.13097062482E+00  0.14810323423E+00  0.00000000000E+00 0.  1.
<mgrwt>
<rscale>  1 0.64765145E+03</rscale>
<asrwt>0</asrwt>
<pdfrwt beam="1">  1        1 0.38183184E+00 0.64765145E+03</pdfrwt>
<pdfrwt beam="2">0</pdfrwt>
<totfact> 0.16113969E+00</totfact>
</mgrwt>
</event>
<event>
 6    1  0.2944874E-003  0.6411531E+03  0.7818608E-02  0.9823523E-01
          1   -1    0    0  502    0  0.00000000000E+00  0.00000000000E+00  0.10450221376E+03  0.10450221376E+03  0.00000000000E+00 0.  1.
         13   -1    0    0    0    0 -0.00000000000E+00 -0.00000000000E+00 -0.10000000000E+04  0.10000000000E+04  0.00000000000E+00 0.  1.
    9000005    2    1    2  501    0 -0.58301428806E-01 -0.23016951494E-01 -0.89723004483E+03  0.11027688215E+04  0.64115311465E+03 0.  0.
         13    1    3    3    0    0  0.19503023265E+03 -0.13180150625E+03 -0.74318680226E+02  0.24684346240E+03  0.00000000000E+00 0.  1.
          3    1    3    3  501    0 -0.19508853408E+03  0.13177848930E+03 -0.82291136461E+03  0.85592535911E+03  0.00000000000E+00 0.  1.
         21    1    1    2  502  501  0.58301428806E-01  0.23016951494E-01  0.17322585903E+01  0.17333922407E+01  0.00000000000E+00 0.  1.
<mgrwt>
<rscale>  1 0.64115312E+03</rscale>
<asrwt>0</asrwt>
<pdfrwt beam="1">  1        1 0.38000885E+00 0.64115312E+03</pdfrwt>
<pdfrwt beam="2">0</pdfrwt>
<totfact> 0.16435006E+00</totfact>
</mgrwt>
</event>
<event>
 6    1  0.2944874E-003  0.6495963E+03  0.7818608E-02  0.9807537E-01
          1   -1    0    0  502    0  0.00000000000E+00  0.00000000000E+00  0.10549402394E+03  0.10549402394E+03  0.00000000000E+00 0.  1.
         13   -1    0    0    0    0 -0.00000000000E+00 -0.00000000000E+00 -0.10000000000E+04  0.10000000000E+04  0.00000000000E+00 0.  1.
    9000005    2    1    2  501    0 -0.81218289878E-04  0.20289060923E-03 -0.89450609656E+03  0.11054937744E+04  0.64959628109E+03 0.  0.
         13    1    3    3    0    0  0.87233657348E+02  0.36977514081E+02  0.81452896962E+02  0.12494647632E+03  0.00000000000E+00 0.  1.
          1    1    3    3  501    0 -0.87233738566E+02 -0.36977311190E+02 -0.97595899352E+03  0.98054729806E+03  0.00000000000E+00 0.  1.
         21    1    1    2  502  501  0.81218289889E-04 -0.20289060923E-03  0.12050670091E-03  0.24956537198E-03  0.00000000000E+00 0.  1.
<mgrwt>
<rscale>  1 0.64959628E+03</rscale>
<asrwt>0</asrwt>
<pdfrwt beam="1">  1        1 0.38361544E+00 0.64959628E+03</pdfrwt>
<pdfrwt beam="2">0</pdfrwt>
<totfact> 0.15818550E+00</totfact>
</mgrwt>
</event>
<event>
 6    1  0.2944874E-003  0.6429749E+03  0.7818608E-02  0.9820051E-01
          1   -1    0    0  502    0  0.00000000000E+00  0.00000000000E+00  0.10481847026E+03  0.10481847026E+03  0.00000000000E+00 0.  1.
         13   -1    0    0    0    0 -0.00000000000E+00 -0.00000000000E+00 -0.10000000000E+04  0.10000000000E+04  0.00000000000E+00 0.  1.
    9000005    2    1    2  501    0  0.12619479055E-01 -0.27055797760E-01 -0.89664563640E+03  0.11033540593E+04  0.64297494658E+03 0.  0.
         13    1    3    3    0    0 -0.13384811866E+03 -0.28497209782E+03 -0.33665247788E+03  0.46093308220E+03  0.00000000000E+00 0.  1.
          3    1    3    3  501    0  0.13386073814E+03  0.28494504202E+03 -0.55999315852E+03  0.64242097706E+03  0.00000000000E+00 0.  1.
         21    1    1    2  502  501 -0.12619479055E-01  0.27055797760E-01  0.14641066573E+01  0.14644109981E+01  0.00000000000E+00 0.  1.
<mgrwt>
<rscale>  1 0.64297495E+03</rscale>
<asrwt>0</asrwt>
<pdfrwt beam="1">  1        1 0.38115888E+00 0.64297495E+03</pdfrwt>
<pdfrwt beam="2">0</pdfrwt>
<totfact> 0.16238603E+00</totfact>
</mgrwt>
</event>
<event>
 6    1  0.2944874E-003  0.6574990E+03  0.7818608E-02  0.9792809E-01
          1   -1    0    0  502    0  0.00000000000E+00  0.00000000000E+00  0.10807829948E+03  0.10807829948E+03  0.00000000000E+00 0.  1.
         13   -1    0    0    0    0 -0.00000000000E+00 -0.00000000000E+00 -0.10000000000E+04  0.10000000000E+04  0.00000000000E+00 0.  1.
    9000005    2    1    2  501    0 -0.83411360663E-05 -0.71683151759E-04 -0.89192377601E+03  0.11080762227E+04  0.65749896820E+03 0.  0.
         13    1    3    3    0    0  0.23943414239E+03  0.15212967248E+03 -0.72596382549E+03  0.77942005472E+03  0.00000000000E+00 0.  1.
          1    1    3    3  501    0 -0.23943415073E+03 -0.15212974416E+03 -0.16595995052E+03  0.32865616801E+03  0.00000000000E+00 0.  1.
         21    1    1    2  502  501  0.83411360770E-05  0.71683151781E-04  0.20754856396E-02  0.20767399184E-02  0.00000000000E+00 0. -1.
<mgrwt>
<rscale>  1 0.65749897E+03</rscale>
<asrwt>0</asrwt>
<pdfrwt beam="1">  1        1 0.39301283E+00 0.65749897E+03</pdfrwt>
<pdfrwt beam="2">0</pdfrwt>
<totfact> 0.14351329E+00</totfact>
</mgrwt>
</event>
<event>
 6    1  0.2944874E-003  0.6665917E+03  0.7818608E-02  0.9776135E-01
          1   -1    0    0  502    0  0.00000000000E+00  0.00000000000E+00  0.11115923401E+03  0.11115923401E+03  0.00000000000E+00 0.  1.
         13   -1    0    0    0    0 -0.00000000000E+00 -0.00000000000E+00 -0.10000000000E+04  0.10000000000E+04  0.00000000000E+00 0.  1.
    9000005    2    1    2  501    0 -0.66507851130E-02  0.20766338696E-01 -0.88891206143E+03  0.11110846786E+04  0.66659171128E+03 0.  0.
         13    1    3    3    0    0 -0.17154618457E+03 -0.27344069998E+02 -0.91857992042E+03  0.93486087832E+03  0.00000000000E+00 0.  1.
          3    1    3    3  501    0  0.17153953379E+03  0.27364836337E+02  0.29667858997E+02  0.17622380026E+03  0.00000000000E+00 0.  1.
         21    1    1    2  502  501  0.66507851130E-02 -0.20766338696E-01  0.71295440124E-01  0.74555439426E-01  0.00000000000E+00 0.  1.
<mgrwt>
<rscale>  1 0.66659171E+03</rscale>
<asrwt>0</asrwt>
<pdfrwt beam="1">  1        1 0.40421625E+00 0.66659171E+03</pdfrwt>
<pdfrwt beam="2">0</pdfrwt>
<totfact> 0.12771231E+00</totfact>
</mgrwt>
</event>
<event>
 6    1  0.2944874E-003  0.6216333E+03  0.7818608E-02  0.9861513E-01
          1   -1    0    0  502    0  0.00000000000E+00  0.00000000000E+00  0.10901393481E+03  0.10901393481E+03  0.00000000000E+00 0.  1.
         13   -1    0    0    0    0 -0.00000000000E+00 -0.00000000000E+00 -0.10000000000E+04  0.10000000000E+04  0.00000000000E+00 0.  1.
    9000005    2    1    2  501    0 -0.47011253198E-01 -0.61646887216E+00 -0.90338455481E+03  0.10966000398E+04  0.62163301974E+03 0.  0.
         13    1    3    3    0    0  0.22270410350E+03  0.13453671830E+03 -0.75092886114E+03  0.79472724930E+03  0.00000000000E+00 0.  1.
          3    1    3    3  501    0 -0.22275111475E+03 -0.13515318717E+03 -0.15245569367E+03  0.30187279052E+03  0.00000000000E+00 0.  1.
         21    1    1    2  502  501  0.47011253198E-01  0.61646887216E+00  0.12398489619E+02  0.12413894987E+02  0.00000000000E+00 0.  1.
<mgrwt>
<rscale>  1 0.62163333E+03</rscale>
<asrwt>0</asrwt>
<pdfrwt beam="1">  1        1 0.39641514E+00 0.62163333E+03</pdfrwt>
<pdfrwt beam="2">0</pdfrwt>
<totfact> 0.13955715E+00</totfact>
</mgrwt>
</event>
<event>
 6    1  0.2944874E-003  0.6201481E+03  0.7818608E-02  0.9864465E-01
          1   -1    0    0  502    0  0.00000000000E+00  0.00000000000E+00  0.10814175532E+03  0.10814175532E+03  0.00000000000E+00 0.  1.
         13   -1    0    0    0    0 -0.00000000000E+00 -0.00000000000E+00 -0.10000000000E+04  0.10000000000E+04  0.00000000000E+00 0.  1.
    9000005    2    1    2  501    0  0.20425654862E+01  0.12985312436E+01 -0.90372012591E+03  0.10960354560E+04  0.62014336775E+03 0.  0.
         13    1    3    3    0    0 -0.24315690816E+03 -0.18170413789E+03 -0.34906451105E+03  0.46258805496E+03  0.00000000000E+00 0.  1.
          1    1    3    3  501    0  0.24519947365E+03  0.18300266914E+03 -0.55465561485E+03  0.63344740103E+03  0.00000000000E+00 0.  1.
         21    1    1    2  502  501 -0.20425654862E+01 -0.12985312436E+01  0.11861881230E+02  0.12106299330E+02  0.00000000000E+00 0.  1.
<mgrwt>
<rscale>  1 0.62014809E+03</rscale>
<asrwt>0</asrwt>
<pdfrwt beam="1">  1        1 0.39324358E+00 0.62014809E+03</pdfrwt>
<pdfrwt beam="2">0</pdfrwt>
<totfact> 0.14419861E+00</totfact>
</mgrwt>
</event>
<event>
 6    1  0.2944874E-003  0.6374141E+03  0.7818608E-02  0.9830687E-01
          1   -1    0    0  502    0  0.00000000000E+00  0.00000000000E+00  0.10159357908E+03  0.10159357908E+03  0.00000000000E+00 0.  1.
         13   -1    0    0    0    0 -0.00000000000E+00 -0.00000000000E+00 -0.10000000000E+04  0.10000000000E+04  0.00000000000E+00 0.  1.
    9000005    2    1    2  501    0  0.26267521295E-02  0.56513997697E-02 -0.89842525036E+03  0.11015737451E+04  0.63741413965E+03 0.  0.
         13    1    3    3    0    0 -0.29548046978E+03  0.87845456814E+02 -0.30936313587E+03  0.43672769793E+03  0.00000000000E+00 0.  1.
          1    1    3    3  501    0  0.29548309653E+03 -0.87839805414E+02 -0.58906211449E+03  0.66484604720E+03  0.00000000000E+00 0.  1.
         21    1    1    2  502  501 -0.26267521294E-02 -0.56513997697E-02  0.18829439568E-01  0.19833959275E-01  0.00000000000E+00 0. -1.
<mgrwt>
<rscale>  1 0.63741414E+03</rscale>
<asrwt>0</asrwt>
<pdfrwt beam="1">  1        1 0.36943198E+00 0.63741414E+03</pdfrwt>
<pdfrwt beam="2">0</pdfrwt>
<totfact> 0.18306932E+00</totfact>
</mgrwt>
</event>
<event>
 6    1  0.2944874E-003  0.6626394E+03  0.7818608E-02  0.9783347E-01
          1   -1    0    0  502    0  0.00000000000E+00  0.00000000000E+00  0.15700982680E+03  0.15700982680E+03  0.00000000000E+00 0.  1.
         13   -1    0    0    0    0 -0.00000000000E+00 -0.00000000000E+00 -0.10000000000E+04  0.10000000000E+04  0.00000000000E+00 0.  1.
    9000005    2    1    2  501    0 -0.22968953470E+00  0.69346659395E+00 -0.89022413209E+03  0.11097702192E+04  0.66263896689E+03 0.  0.
         13    1    3    3    0    0  0.61481621336E+02 -0.14129350690E+03  0.46017119706E+02  0.16081486299E+03  0.00000000000E+00 0.  1.
          1    1    3    3  501    0 -0.61711310871E+02  0.14198697349E+03 -0.93624125179E+03  0.94895535622E+03  0.00000000000E+00 0.  1.
         21    1    1    2  502  501  0.22968953470E+00 -0.69346659395E+00  0.47233958883E+02  0.47239607587E+02  0.00000000000E+00 0.  1.
<mgrwt>
<rscale>  1 0.66263937E+03</rscale>
<asrwt>0</asrwt>
<pdfrwt beam="1">  1        1 0.57094603E+00 0.66263937E+03</pdfrwt>
<pdfrwt beam="2">0</pdfrwt>
<totfact> 0.20356884E-01</totfact>
</mgrwt>
</event>
<event>
 6    1  0.2944874E-003  0.6403044E+03  0.7818608E-02  0.9825144E-01
          1   -1    0    0  502    0  0.00000000000E+00  0.00000000000E+00  0.10262912308E+03  0.10262912308E+03  0.00000000000E+00 0.  1.
         13   -1    0    0    0    0 -0.00000000000E+00 -0.00000000000E+00 -0.10000000000E+04  0.10000000000E+04  0.00000000000E+00 0.  1.
    9000005    2    1    2  501    0  0.16630696503E-01  0.12904968012E+00 -0.89746619342E+03  0.11024678295E+04  0.64030440395E+03 0.  0.
         13    1    3    3    0    0 -0.87310582904E+01 -0.83834239438E+02  0.83047365911E+02  0.11832698790E+03  0.00000000000E+00 0.  1.
          1    1    3    3  501    0  0.87476889870E+01  0.83963289118E+02 -0.98051355933E+03  0.98414084155E+03  0.00000000000E+00 0.  1.
         21    1    1    2  502  501 -0.16630696503E-01 -0.12904968012E+00  0.95316498723E-01  0.16129362955E+00  0.00000000000E+00 0.  1.
<mgrwt>
<rscale>  1 0.64030442E+03</rscale>
<asrwt>0</asrwt>
<pdfrwt beam="1">  1        1 0.37319760E+00 0.64030442E+03</pdfrwt>
<pdfrwt beam="2">0</pdfrwt>
<totfact> 0.17613228E+00</totfact>
</mgrwt>
</event>
<event>
 6    1  0.2944874E-003  0.6632053E+03  0.7818608E-02  0.9782311E-01
          1   -1    0    0  502    0  0.00000000000E+00  0.00000000000E+00  0.11958890834E+03  0.11958890834E+03  0.00000000000E+00 0.  1.
         13   -1    0    0    0    0 -0.00000000000E+00 -0.00000000000E+00 -0.10000000000E+04  0.10000000000E+04  0.00000000000E+00 0.  1.
    9000005    2    1    2  501    0  0.23486459605E+01  0.10003924866E+02 -0.88689356069E+03  0.11074391324E+04  0.66312566633E+03 0.  0.
         13    1    3    3    0    0 -0.33834157567E+02  0.17697229172E+03 -0.91650518529E+03  0.93404801639E+03  0.00000000000E+00 0.  1.
          3    1    3    3  501    0  0.36182803528E+02 -0.16696836686E+03  0.29611624603E+02  0.17339111602E+03  0.00000000000E+00 0.  1.
         21    1    1    2  502  501 -0.23486459605E+01 -0.10003924866E+02  0.64824690240E+01  0.12149775933E+02  0.00000000000E+00 0. -1.
<mgrwt>
<rscale>  1 0.66320528E+03</rscale>
<asrwt>0</asrwt>
<pdfrwt beam="1">  1        1 0.43486967E+00 0.66320528E+03</pdfrwt>
<pdfrwt beam="2">0</pdfrwt>
<totfact> 0.92942361E-01</totfact>
</mgrwt>
</event>
<event>
 6    1  0.2944874E-003  0.6468572E+03  0.7818608E-02  0.9812694E-01
          1   -1    0    0  502    0  0.00000000000E+00  0.00000000000E+00  0.11735155880E+03  0.11735155880E+03  0.00000000000E+00 0.  1.
         13   -1    0    0    0    0 -0.00000000000E+00 -0.00000000000E+00 -0.10000000000E+04  0.10000000000E+04  0.00000000000E+00 0.  1.
    9000005    2    1    2  501    0 -0.80754021654E+01  0.20386787486E+01 -0.89387358424E+03  0.11033739994E+04  0.64680354789E+03 0.  0.
         13    1    3    3    0    0 -0.16024072045E+03  0.27034233855E+03 -0.60011599639E+03  0.67742252518E+03  0.00000000000E+00 0.  1.
          1    1    3    3  501    0  0.15216531829E+03 -0.26830365980E+03 -0.29375758785E+03  0.42595147420E+03  0.00000000000E+00 0.  1.
         21    1    1    2  502  501  0.80754021654E+01 -0.20386787486E+01  0.11225143042E+02  0.13977559425E+02  0.00000000000E+00 0. -1.
<mgrwt>
<rscale>  1 0.64685717E+03</rscale>
<asrwt>0</asrwt>
<pdfrwt beam="1">  1        1 0.42673384E+00 0.64685717E+03</pdfrwt>
<pdfrwt beam="2">0</pdfrwt>
<totfact> 0.10153018E+00</totfact>
</mgrwt>
</event>
<event>
 6    1  0.2944874E-003  0.6531426E+03  0.7818608E-02  0.9800900E-01
          1   -1    0    0  502    0  0.00000000000E+00  0.00000000000E+00  0.10669503560E+03  0.10669503560E+03  0.00000000000E+00 0.  1.
         13   -1    0    0    0    0 -0.00000000000E+00 -0.00000000000E+00 -0.10000000000E+04  0.10000000000E+04  0.00000000000E+00 0.  1.
    9000005    2    1    2  501    0 -0.31269957793E-02 -0.11618152485E-02 -0.89335113017E+03  0.11066487495E+04  0.65314256707E+03 0.  0.
         13    1    3    3    0    0  0.23420106758E+03  0.71847773491E+02 -0.81257289430E+03  0.84869720818E+03  0.00000000000E+00 0.  1.
          1    1    3    3  501    0 -0.23420419458E+03 -0.71848935306E+02 -0.80778235864E+02  0.25795154129E+03  0.00000000000E+00 0.  1.
         21    1    1    2  502  501  0.31269957793E-02  0.11618152485E-02  0.46165766687E-01  0.46286131088E-01  0.00000000000E+00 0. -1.
<mgrwt>
<rscale>  1 0.65314257E+03</rscale>
<asrwt>0</asrwt>
<pdfrwt beam="1">  1        1 0.38798277E+00 0.65314257E+03</pdfrwt>
<pdfrwt beam="2">0</pdfrwt>
<totfact> 0.15120159E+00</totfact>
</mgrwt>
</event>
<event>
 6    1  0.2944874E-003  0.5560604E+03  0.7818608E-02  0.1000101E+00
          1   -1    0    0  502    0  0.00000000000E+00  0.00000000000E+00  0.78990651865E+02  0.78990651865E+02  0.00000000000E+00 0.  1.
         13   -1    0    0    0    0 -0.00000000000E+00 -0.00000000000E+00 -0.10000000000E+04  0.10000000000E+04  0.00000000000E+00 0.  1.
    9000005    2    1    2  501    0 -0.41766021427E+00  0.57253159721E+01 -0.90749234482E+03  0.10643051808E+04  0.55603076192E+03 0.  0.
         13    1    3    3    0    0  0.18925385566E+03  0.19643882787E+03 -0.33680641620E+03  0.43340950263E+03  0.00000000000E+00 0.  1.
          1    1    3    3  501    0 -0.18967151588E+03 -0.19071351190E+03 -0.57068592863E+03  0.63089567813E+03  0.00000000000E+00 0.  1.
         21    1    1    2  502  501  0.41766021427E+00 -0.57253159721E+01 -0.13517003310E+02  0.14685471103E+02  0.00000000000E+00 0. -1.
<mgrwt>
<rscale>  1 0.55606039E+03</rscale>
<asrwt>0</asrwt>
<pdfrwt beam="1">  1        1 0.28723934E+00 0.55606039E+03</pdfrwt>
<pdfrwt beam="2">0</pdfrwt>
<totfact> 0.42209622E+00</totfact>
</mgrwt>
</event>
<event>
 6    1  0.2944874E-003  0.6095389E+03  0.7818608E-02  0.9885811E-01
          1   -1    0    0  502    0  0.00000000000E+00  0.00000000000E+00  0.93258098347E+02  0.93258098347E+02  0.00000000000E+00 0.  1.
         13   -1    0    0    0    0 -0.00000000000E+00 -0.00000000000E+00 -0.10000000000E+04  0.10000000000E+04  0.00000000000E+00 0.  1.
    9000005    2    1    2  501    0  0.39476272415E+00 -0.89790721124E+00 -0.90623595254E+03  0.10921544410E+04  0.60953815246E+03 0.  0.
         13    1    3    3    0    0 -0.10184099287E+03 -0.22841726603E+02  0.59925505132E+02  0.12035114652E+03  0.00000000000E+00 0.  1.
          1    1    3    3  501    0  0.10223575559E+03  0.21943819392E+02 -0.96616145768E+03  0.97180329452E+03  0.00000000000E+00 0.  1.
         21    1    1    2  502  501 -0.39476272415E+00  0.89790721124E+00 -0.50594910835E+00  0.11036573148E+01  0.00000000000E+00 0. -1.
<mgrwt>
<rscale>  1 0.60953894E+03</rscale>
<asrwt>0</asrwt>
<pdfrwt beam="1">  1        1 0.33912107E+00 0.60953894E+03</pdfrwt>
<pdfrwt beam="2">0</pdfrwt>
<totfact> 0.24951046E+00</totfact>
</mgrwt>
</event>
<event>
 6    1  0.2944874E-003  0.6418323E+03  0.7818608E-02  0.9822227E-01
          1   -1    0    0  502    0  0.00000000000E+00  0.00000000000E+00  0.12376038192E+03  0.12376038192E+03  0.00000000000E+00 0.  1.
         13   -1    0    0    0    0 -0.00000000000E+00 -0.00000000000E+00 -0.10000000000E+04  0.10000000000E+04  0.00000000000E+00 0.  1.
    9000005    2    1    2  501    0  0.16485671376E+02 -0.27141895814E+00 -0.89334235839E+03  0.11000042300E+04  0.64162051530E+03 0.  0.
         13    1    3    3    0    0  0.23046785561E+02  0.26328239015E+03 -0.75984547401E+03  0.80449606317E+03  0.00000000000E+00 0.  1.
          3    1    3    3  501    0 -0.65611141855E+01 -0.26355380910E+03 -0.13349688438E+03  0.29550816681E+03  0.00000000000E+00 0.  1.
         21    1    1    2  502  501 -0.16485671376E+02  0.27141895814E+00  0.17102740305E+02  0.23756151938E+02  0.00000000000E+00 0.  1.
<mgrwt>
<rscale>  1 0.64183233E+03</rscale>
<asrwt>0</asrwt>
<pdfrwt beam="1">  1        1 0.45003870E+00 0.64183233E+03</pdfrwt>
<pdfrwt beam="2">0</pdfrwt>
<totfact> 0.79551405E-01</totfact>
</mgrwt>
</event>
<event>
 6    1  0.2944874E-003  0.6478001E+03  0.7818608E-02  0.9810916E-01
          1   -1    0    0  502    0  0.00000000000E+00  0.00000000000E+00  0.10496164107E+03  0.10496164107E+03  0.00000000000E+00 0.  1.
         13   -1    0    0    0    0 -0.00000000000E+00 -0.00000000000E+00 -0.10000000000E+04  0.10000000000E+04  0.00000000000E+00 0.  1.
    9000005    2    1    2  501    0  0.46280995963E-03 -0.95919053933E-03 -0.89508876606E+03  0.11049112227E+04  0.64780005473E+03 0.  0.
         13    1    3    3    0    0 -0.27937622445E+03 -0.34323939148E+02 -0.17420607157E+03  0.33102411236E+03  0.00000000000E+00 0.  1.
          3    1    3    3  501    0  0.27937668726E+03  0.34322979958E+02 -0.72088269448E+03  0.77388711034E+03  0.00000000000E+00 0.  1.
         21    1    1    2  502  501 -0.46280995961E-03  0.95919053933E-03  0.50407125929E-01  0.50418375459E-01  0.00000000000E+00 0. -1.
<mgrwt>
<rscale>  1 0.64780005E+03</rscale>
<asrwt>0</asrwt>
<pdfrwt beam="1">  1        1 0.38167950E+00 0.64780005E+03</pdfrwt>
<pdfrwt beam="2">0</pdfrwt>
<totfact> 0.16138508E+00</totfact>
</mgrwt>
</event>
<event>
 6    1  0.2944874E-003  0.5768328E+03  0.7818608E-02  0.9954672E-01
          1   -1    0    0  502    0  0.00000000000E+00  0.00000000000E+00  0.83290938146E+02  0.83290938146E+02  0.00000000000E+00 0.  1.
         13   -1    0    0    0    0 -0.00000000000E+00 -0.00000000000E+00 -0.10000000000E+04  0.10000000000E+04  0.00000000000E+00 0.  1.
    9000005    2    1    2  501    0 -0.70030355647E-02  0.33802520070E-04 -0.91681586535E+03  0.10831839053E+04  0.57683276751E+03 0.  0.
         13    1    3    3    0    0 -0.65200194015E+02 -0.13015334328E+02 -0.98541592231E+03  0.98765631885E+03  0.00000000000E+00 0.  1.
          3    1    3    3  501    0  0.65193190979E+02  0.13015368130E+02  0.68600056954E+02  0.95527586443E+02  0.00000000000E+00 0.  1.
         21    1    1    2  502  501  0.70030355647E-02 -0.33802520070E-04  0.10680350110E+00  0.10703285242E+00  0.00000000000E+00 0. -1.
<mgrwt>
<rscale>  1 0.57683277E+03</rscale>
<asrwt>0</asrwt>
<pdfrwt beam="1">  1        1 0.30287678E+00 0.57683277E+03</pdfrwt>
<pdfrwt beam="2">0</pdfrwt>
<totfact> 0.36006367E+00</totfact>
</mgrwt>
</event>
<event>
 6    1  0.2944874E-003  0.6296108E+03  0.7818608E-02  0.9845809E-01
          1   -1    0    0  502    0  0.00000000000E+00  0.00000000000E+00  0.99107919488E+02  0.99107919488E+02  0.00000000000E+00 0.  1.
         13   -1    0    0    0    0 -0.00000000000E+00 -0.00000000000E+00 -0.10000000000E+04  0.10000000000E+04  0.00000000000E+00 0.  1.
    9000005    2    1    2  501    0 -0.23750072329E-02  0.51507521141E-03 -0.90089725465E+03  0.10991022031E+04  0.62961082370E+03 0.  0.
         13    1    3    3    0    0  0.11689603614E+03 -0.28681591149E+03 -0.54879608630E+03  0.63016283189E+03  0.00000000000E+00 0.  1.
          3    1    3    3  501    0 -0.11689841115E+03  0.28681642657E+03 -0.35210116834E+03  0.46893937116E+03  0.00000000000E+00 0.  1.
         21    1    1    2  502  501  0.23750072329E-02 -0.51507521139E-03  0.51741351205E-02  0.57164356093E-02  0.00000000000E+00 0. -1.
<mgrwt>
<rscale>  1 0.62961082E+03</rscale>
<asrwt>0</asrwt>
<pdfrwt beam="1">  1        1 0.36039319E+00 0.62961082E+03</pdfrwt>
<pdfrwt beam="2">0</pdfrwt>
<totfact> 0.20083549E+00</totfact>
</mgrwt>
</event>
<event>
 6    1  0.2944874E-003  0.6531986E+03  0.7818608E-02  0.9800796E-01
          1   -1    0    0  502    0  0.00000000000E+00  0.00000000000E+00  0.10667449038E+03  0.10667449038E+03  0.00000000000E+00 0.  1.
         13   -1    0    0    0    0 -0.00000000000E+00 -0.00000000000E+00 -0.10000000000E+04  0.10000000000E+04  0.00000000000E+00 0.  1.
    9000005    2    1    2  501    0 -0.18628652073E-01  0.25755370135E-02 -0.89331582970E+03  0.11066533395E+04  0.65319862355E+03 0.  0.
         13    1    3    3    0    0 -0.16926243568E+03 -0.15748079153E+03 -0.83750753992E+03  0.86883188895E+03  0.00000000000E+00 0.  1.
          1    1    3    3  501    0  0.16924380702E+03  0.15748336707E+03 -0.55808289780E+02  0.23782145052E+03  0.00000000000E+00 0.  1.
         21    1    1    2  502  501  0.18628652073E-01 -0.25755370135E-02 -0.96799226385E-02  0.21150909467E-01  0.00000000000E+00 0.  1.
<mgrwt>
<rscale>  1 0.65319862E+03</rscale>
<asrwt>0</asrwt>
<pdfrwt beam="1">  1        1 0.38790806E+00 0.65319862E+03</pdfrwt>
<pdfrwt beam="2">0</pdfrwt>
<totfact> 0.15131529E+00</totfact>
</mgrwt>
</event>
<event>
 6    1  0.2944874E-003  0.6428348E+03  0.7818608E-02  0.9820318E-01
          1   -1    0    0  502    0  0.00000000000E+00  0.00000000000E+00  0.10330916585E+03  0.10330916585E+03  0.00000000000E+00 0.  1.
         13   -1    0    0    0    0 -0.00000000000E+00 -0.00000000000E+00 -0.10000000000E+04  0.10000000000E+04  0.00000000000E+00 0.  1.
    9000005    2    1    2  501    0 -0.71477474535E-05  0.21262544010E-05 -0.89669085233E+03  0.11033091462E+04  0.64283480572E+03 0.  0.
         13    1    3    3    0    0 -0.12308774613E+03  0.10922635168E+03  0.25520572722E+02  0.16653014376E+03  0.00000000000E+00 0.  1.
          3    1    3    3  501    0  0.12308773899E+03 -0.10922634955E+03 -0.92221142505E+03  0.93677900244E+03  0.00000000000E+00 0.  1.
         21    1    1    2  502  501  0.71477474541E-05 -0.21262544046E-05  0.18179900295E-04  0.19649937053E-04  0.00000000000E+00 0. -1.
<mgrwt>
<rscale>  1 0.64283481E+03</rscale>
<asrwt>0</asrwt>
<pdfrwt beam="1">  1        1 0.37567049E+00 0.64283481E+03</pdfrwt>
<pdfrwt beam="2">0</pdfrwt>
<totfact> 0.17169421E+00</totfact>
</mgrwt>
</event>
<event>
 6    1  0.2944874E-003  0.6429929E+03  0.7818608E-02  0.9820017E-01
          1   -1    0    0  502    0  0.00000000000E+00  0.00000000000E+00  0.10336191478E+03  0.10336191478E+03  0.00000000000E+00 0.  1.
         13   -1    0    0    0    0 -0.00000000000E+00 -0.00000000000E+00 -0.10000000000E+04  0.10000000000E+04  0.00000000000E+00 0.  1.
    9000005    2    1    2  501    0 -0.14055174972E-03 -0.11629305263E-03 -0.89664003285E+03  0.11033599586E+04  0.64299288472E+03 0.  0.
         13    1    3    3    0    0  0.18753520431E+03  0.24843498539E+03 -0.58635208969E+03  0.66385101334E+03  0.00000000000E+00 0.  1.
          1    1    3    3  501    0 -0.18753534486E+03 -0.24843510169E+03 -0.31028794316E+03  0.43950894529E+03  0.00000000000E+00 0.  1.
         21    1    1    2  502  501  0.14055174972E-03  0.11629305264E-03  0.19476325946E-02  0.19561573536E-02  0.00000000000E+00 0.  1.
<mgrwt>
<rscale>  1 0.64299288E+03</rscale>
<asrwt>0</asrwt>
<pdfrwt beam="1">  1        1 0.37586230E+00 0.64299288E+03</pdfrwt>
<pdfrwt beam="2">0</pdfrwt>
<totfact> 0.17135566E+00</totfact>
</mgrwt>
</event>
<event>
 6    1  0.2944874E-003  0.6411089E+03  0.7818608E-02  0.9823607E-01
          1   -1    0    0  502    0  0.00000000000E+00  0.00000000000E+00  0.10276036882E+03  0.10276036882E+03  0.00000000000E+00 0.  1.
         13   -1    0    0    0    0 -0.00000000000E+00 -0.00000000000E+00 -0.10000000000E+04  0.10000000000E+04  0.00000000000E+00 0.  1.
    9000005    2    1    2  501    0  0.81069750905E-04 -0.28878206354E-03 -0.89724484320E+03  0.11027551482E+04  0.64110888948E+03 0.  0.
         13    1    3    3    0    0  0.12675609780E+03 -0.17659979021E+03 -0.85384753485E+03  0.88108467641E+03  0.00000000000E+00 0.  1.
          3    1    3    3  501    0 -0.12675601673E+03  0.17659950143E+03 -0.43397308352E+02  0.22167047177E+03  0.00000000000E+00 0.  1.
         21    1    1    2  502  501 -0.81069750910E-04  0.28878206352E-03  0.52120210191E-02  0.52206446430E-02  0.00000000000E+00 0. -1.
<mgrwt>
<rscale>  1 0.64110889E+03</rscale>
<asrwt>0</asrwt>
<pdfrwt beam="1">  1        1 0.37367486E+00 0.64110889E+03</pdfrwt>
<pdfrwt beam="2">0</pdfrwt>
<totfact> 0.17525718E+00</totfact>
</mgrwt>
</event>
<event>
 6    1  0.2944874E-003  0.6420646E+03  0.7818608E-02  0.9821784E-01
          1   -1    0    0  502    0  0.00000000000E+00  0.00000000000E+00  0.10306270757E+03  0.10306270757E+03  0.00000000000E+00 0.  1.
         13   -1    0    0    0    0 -0.00000000000E+00 -0.00000000000E+00 -0.10000000000E+04  0.10000000000E+04  0.00000000000E+00 0.  1.
    9000005    2    1    2  501    0  0.27554790549E-03  0.53840898680E-03 -0.89693816110E+03  0.11030616491E+04  0.64206458929E+03 0.  0.
         13    1    3    3    0    0  0.75310701048E+02  0.11668130629E+03  0.48786484815E+02  0.14719493887E+03  0.00000000000E+00 0.  1.
          3    1    3    3  501    0 -0.75310425500E+02 -0.11668076788E+03 -0.94572464592E+03  0.95586671021E+03  0.00000000000E+00 0.  1.
         21    1    1    2  502  501 -0.27554790549E-03 -0.53840898680E-03  0.86867812923E-03  0.10584954310E-02  0.00000000000E+00 0. -1.
<mgrwt>
<rscale>  1 0.64206459E+03</rscale>
<asrwt>0</asrwt>
<pdfrwt beam="1">  1        1 0.37477427E+00 0.64206459E+03</pdfrwt>
<pdfrwt beam="2">0</pdfrwt>
<totfact> 0.17328551E+00</totfact>
</mgrwt>
</event>
<event>
 6    1  0.2944874E-003  0.5902594E+03  0.7818608E-02  0.9925823E-01
          1   -1    0    0  502    0  0.00000000000E+00  0.00000000000E+00  0.87102813291E+02  0.87102813291E+02  0.00000000000E+00 0.  1.
         13   -1    0    0    0    0 -0.00000000000E+00 -0.00000000000E+00 -0.10000000000E+04  0.10000000000E+04  0.00000000000E+00 0.  1.
    9000005    2    1    2  501    0 -0.62698630444E-04 -0.29864765230E-03 -0.91289844024E+03  0.10871015232E+04  0.59025940013E+03 0.  0.
         13    1    3    3    0    0  0.13760708336E+03  0.25884888803E+03 -0.39364075539E+03  0.49080698908E+03  0.00000000000E+00 0.  1.
          1    1    3    3  501    0 -0.13760714606E+03 -0.25884918668E+03 -0.51925768485E+03  0.59629453407E+03  0.00000000000E+00 0.  1.
         21    1    1    2  502  501  0.62698630433E-04  0.29864765231E-03  0.12535311933E-02  0.12901402990E-02  0.00000000000E+00 0. -1.
<mgrwt>
<rscale>  1 0.59025940E+03</rscale>
<asrwt>0</asrwt>
<pdfrwt beam="1">  1        1 0.31673817E+00 0.59025940E+03</pdfrwt>
<pdfrwt beam="2">0</pdfrwt>
<totfact> 0.31296811E+00</totfact>
</mgrwt>
</event>
<event>
 6    1  0.2944874E-003  0.6523491E+03  0.7818608E-02  0.9802381E-01
          1   -1    0    0  502    0  0.00000000000E+00  0.00000000000E+00  0.11182719746E+03  0.11182719746E+03  0.00000000000E+00 0.  1.
         13   -1    0    0    0    0 -0.00000000000E+00 -0.00000000000E+00 -0.10000000000E+04  0.10000000000E+04  0.00000000000E+00 0.  1.
    9000005    2    1    2  501    0  0.56117171577E+00 -0.26248377892E+00 -0.89359064173E+03  0.11063740522E+04  0.65234877531E+03 0.  0.
         13    1    3    3    0    0  0.28356902827E+03 -0.89295799611E+02 -0.67589833544E+03  0.73839264180E+03  0.00000000000E+00 0.  1.
          3    1    3    3  501    0 -0.28300785656E+03  0.89033315832E+02 -0.21769230629E+03  0.36798141043E+03  0.00000000000E+00 0.  1.
         21    1    1    2  502  501 -0.56117171577E+00  0.26248377892E+00  0.54178391900E+01  0.54531452316E+01  0.00000000000E+00 0. -1.
<mgrwt>
<rscale>  1 0.65234907E+03</rscale>
<asrwt>0</asrwt>
<pdfrwt beam="1">  1        1 0.40664521E+00 0.65234907E+03</pdfrwt>
<pdfrwt beam="2">0</pdfrwt>
<totfact> 0.12489484E+00</totfact>
</mgrwt>
</event>
<event>
 6    1  0.2944874E-003  0.6312051E+03  0.7818608E-02  0.9842700E-01
          1   -1    0    0  502    0  0.00000000000E+00  0.00000000000E+00  0.10024016612E+03  0.10024016612E+03  0.00000000000E+00 0.  1.
         13   -1    0    0    0    0 -0.00000000000E+00 -0.00000000000E+00 -0.10000000000E+04  0.10000000000E+04  0.00000000000E+00 0.  1.
    9000005    2    1    2  501    0 -0.14690537759E+00 -0.31294296457E-01 -0.90038523947E+03  0.10995969767E+04  0.63120512439E+03 0.  0.
         13    1    3    3    0    0 -0.31443969967E+03 -0.27423508067E+02 -0.44113782157E+03  0.54242690857E+03  0.00000000000E+00 0.  1.
          1    1    3    3  501    0  0.31429279429E+03  0.27392213770E+02 -0.45924741791E+03  0.55717006809E+03  0.00000000000E+00 0.  1.
         21    1    1    2  502  501  0.14690537759E+00  0.31294296457E-01  0.62540558958E+00  0.64318945454E+00  0.00000000000E+00 0.  1.
<mgrwt>
<rscale>  1 0.63120514E+03</rscale>
<asrwt>0</asrwt>
<pdfrwt beam="1">  1        1 0.36451046E+00 0.63120514E+03</pdfrwt>
<pdfrwt beam="2">0</pdfrwt>
<totfact> 0.19261551E+00</totfact>
</mgrwt>
</event>
<event>
 6    1  0.2944874E-003  0.6283172E+03  0.7818608E-02  0.9848338E-01
          1   -1    0    0  502    0  0.00000000000E+00  0.00000000000E+00  0.98701225519E+02  0.98701225519E+02  0.00000000000E+00 0.  1.
         13   -1    0    0    0    0 -0.00000000000E+00 -0.00000000000E+00 -0.10000000000E+04  0.10000000000E+04  0.00000000000E+00 0.  1.
    9000005    2    1    2  501    0  0.71700009472E-03 -0.10658679411E-02 -0.90130430508E+03  0.10986955477E+04  0.62831716210E+03 0.  0.
         13    1    3    3    0    0 -0.76963367581E+02 -0.28513369650E+03 -0.26336713894E+03  0.39571054409E+03  0.00000000000E+00 0.  1.
          1    1    3    3  501    0  0.76964084581E+02  0.28513263063E+03 -0.63793716613E+03  0.70298500361E+03  0.00000000000E+00 0.  1.
         21    1    1    2  502  501 -0.71700009472E-03  0.10658679411E-02  0.55305944671E-02  0.56778198953E-02  0.00000000000E+00 0. -1.
<mgrwt>
<rscale>  1 0.62831716E+03</rscale>
<asrwt>0</asrwt>
<pdfrwt beam="1">  1        1 0.35891430E+00 0.62831716E+03</pdfrwt>
<pdfrwt beam="2">0</pdfrwt>
<totfact> 0.20389603E+00</totfact>
</mgrwt>
</event>
<event>
 6    1  0.2944874E-003  0.6572301E+03  0.7818608E-02  0.9793306E-01
          1   -1    0    0  502    0  0.00000000000E+00  0.00000000000E+00  0.10798978346E+03  0.10798978346E+03  0.00000000000E+00 0.  1.
         13   -1    0    0    0    0 -0.00000000000E+00 -0.00000000000E+00 -0.10000000000E+04  0.10000000000E+04  0.00000000000E+00 0.  1.
    9000005    2    1    2  501    0  0.12790856769E-03 -0.58517154095E-03 -0.89201210536E+03  0.11079878019E+04  0.65723007625E+03 0.  0.
         13    1    3    3    0    0 -0.19783443390E+03 -0.32802155264E+02 -0.88488742689E+03  0.90732585266E+03  0.00000000000E+00 0.  1.
          1    1    3    3  501    0  0.19783456181E+03  0.32801570093E+02 -0.71246784699E+01  0.20066194928E+03  0.00000000000E+00 0.  1.
         21    1    1    2  502  501 -0.12790856768E-03  0.58517154095E-03  0.18888227789E-02  0.19815241165E-02  0.00000000000E+00 0. -1.
<mgrwt>
<rscale>  1 0.65723008E+03</rscale>
<asrwt>0</asrwt>
<pdfrwt beam="1">  1        1 0.39269095E+00 0.65723008E+03</pdfrwt>
<pdfrwt beam="2">0</pdfrwt>
<totfact> 0.14399370E+00</totfact>
</mgrwt>
</event>
<event>
 6    1  0.2944874E-003  0.6112191E+03  0.7818608E-02  0.9882400E-01
          1   -1    0    0  502    0  0.00000000000E+00  0.00000000000E+00  0.93506781713E+02  0.93506781713E+02  0.00000000000E+00 0.  1.
         13   -1    0    0    0    0 -0.00000000000E+00 -0.00000000000E+00 -0.10000000000E+04  0.10000000000E+04  0.00000000000E+00 0.  1.
    9000005    2    1    2  501    0  0.23510338947E+00 -0.12772038613E+00 -0.90638839719E+03  0.10932194256E+04  0.61121903951E+03 0.  0.
         13    1    3    3    0    0  0.21758077408E+03 -0.18847817298E+03 -0.26916948791E+03  0.39410357542E+03  0.00000000000E+00 0.  1.
          1    1    3    3  501    0 -0.21734567069E+03  0.18835045259E+03 -0.63721890929E+03  0.69911585014E+03  0.00000000000E+00 0.  1.
         21    1    1    2  502  501 -0.23510338947E+00  0.12772038613E+00 -0.10482109421E+00  0.28735615978E+00  0.00000000000E+00 0.  1.
<mgrwt>
<rscale>  1 0.61121910E+03</rscale>
<asrwt>0</asrwt>
<pdfrwt beam="1">  1        1 0.34002538E+00 0.61121910E+03</pdfrwt>
<pdfrwt beam="2">0</pdfrwt>
<totfact> 0.24719080E+00</totfact>
</mgrwt>
</event>
<event>
 6    1  0.2944874E-003  0.6254703E+03  0.7818608E-02  0.9853928E-01
          1   -1    0    0  502    0  0.00000000000E+00  0.00000000000E+00  0.97803527356E+02  0.97803527356E+02  0.00000000000E+00 0.  1.
         13   -1    0    0    0    0 -0.00000000000E+00 -0.00000000000E+00 -0.10000000000E+04  0.10000000000E+04  0.00000000000E+00 0.  1.
    9000005    2    1    2  501    0  0.43103503344E-05 -0.45390689280E-04 -0.90219673177E+03  0.10978032642E+04  0.62547027440E+03 0.  0.
         13    1    3    3    0    0  0.20339968792E+03 -0.21878492867E+03 -0.61353409523E+03  0.68239458092E+03  0.00000000000E+00 0.  1.
          3    1    3    3  501    0 -0.20339968361E+03  0.21878488328E+03 -0.28866263654E+03  0.41540868332E+03  0.00000000000E+00 0.  1.
         21    1    1    2  502  501 -0.43103503320E-05  0.45390689285E-04  0.25912974639E-03  0.26311046969E-03  0.00000000000E+00 0. -1.
<mgrwt>
<rscale>  1 0.62547027E+03</rscale>
<asrwt>0</asrwt>
<pdfrwt beam="1">  1        1 0.35564994E+00 0.62547027E+03</pdfrwt>
<pdfrwt beam="2">0</pdfrwt>
<totfact> 0.21081087E+00</totfact>
</mgrwt>
</event>
<event>
 6    1  0.2944874E-003  0.6528374E+03  0.7818608E-02  0.9801469E-01
          1   -1    0    0  502    0  0.00000000000E+00  0.00000000000E+00  0.10666338175E+03  0.10666338175E+03  0.00000000000E+00 0.  1.
         13   -1    0    0    0    0 -0.00000000000E+00 -0.00000000000E+00 -0.10000000000E+04  0.10000000000E+04  0.00000000000E+00 0.  1.
    9000005    2    1    2  501    0  0.78699364593E-03 -0.50003807540E-02 -0.89345075949E+03  0.11065491283E+04  0.65283743285E+03 0.  0.
         13    1    3    3    0    0  0.31004117665E+03  0.64574227927E+02 -0.58076553947E+03  0.66150130307E+03  0.00000000000E+00 0.  1.
          1    1    3    3  501    0 -0.31004038965E+03 -0.64579228307E+02 -0.31268522002E+03  0.44504782525E+03  0.00000000000E+00 0.  1.
         21    1    1    2  502  501 -0.78699364591E-03  0.50003807540E-02  0.11414123786E+00  0.11425342597E+00  0.00000000000E+00 0.  1.
<mgrwt>
<rscale>  1 0.65283743E+03</rscale>
<asrwt>0</asrwt>
<pdfrwt beam="1">  1        1 0.38786766E+00 0.65283743E+03</pdfrwt>
<pdfrwt beam="2">0</pdfrwt>
<totfact> 0.15138777E+00</totfact>
</mgrwt>
</event>
<event>
 6    1  0.2944874E-003  0.6430849E+03  0.7818608E-02  0.9819842E-01
          1   -1    0    0  502    0  0.00000000000E+00  0.00000000000E+00  0.10339507722E+03  0.10339507722E+03  0.00000000000E+00 0.  1.
         13   -1    0    0    0    0 -0.00000000000E+00 -0.00000000000E+00 -0.10000000000E+04  0.10000000000E+04  0.00000000000E+00 0.  1.
    9000005    2    1    2  501    0 -0.55082409608E-03  0.13716976980E-03 -0.89661043632E+03  0.11033895345E+04  0.64308490138E+03 0.  0.
         13    1    3    3    0    0  0.21068010029E+03  0.21555761917E+03 -0.64042802360E+03  0.70781300162E+03  0.00000000000E+00 0.  1.
          1    1    3    3  501    0 -0.21068065112E+03 -0.21555748200E+03 -0.25618241272E+03  0.39557653291E+03  0.00000000000E+00 0.  1.
         21    1    1    2  502  501  0.55082409607E-03 -0.13716976980E-03  0.55135394284E-02  0.55426834438E-02  0.00000000000E+00 0.  1.
<mgrwt>
<rscale>  1 0.64308490E+03</rscale>
<asrwt>0</asrwt>
<pdfrwt beam="1">  1        1 0.37598289E+00 0.64308490E+03</pdfrwt>
<pdfrwt beam="2">0</pdfrwt>
<totfact> 0.17114337E+00</totfact>
</mgrwt>
</event>
<event>
 6    1  0.2944874E-003  0.5829923E+03  0.7818608E-02  0.9941334E-01
          1   -1    0    0  502    0  0.00000000000E+00  0.00000000000E+00  0.10802990629E+03  0.10802990629E+03  0.00000000000E+00 0.  1.
         13   -1    0    0    0    0 -0.00000000000E+00 -0.00000000000E+00 -0.10000000000E+04  0.10000000000E+04  0.00000000000E+00 0.  1.
    9000005    2    1    2  501    0  0.19071397580E+01 -0.13385723034E+01 -0.91496613033E+03  0.10849161299E+04  0.58298761595E+03 0.  0.
         13    1    3    3    0    0 -0.11515284663E+02  0.56134217075E+02 -0.98876258975E+03  0.99042168342E+03  0.00000000000E+00 0.  1.
          1    1    3    3  501    0  0.13422424421E+02 -0.57472789379E+02  0.73796459419E+02  0.94494446499E+02  0.00000000000E+00 0.  1.
         21    1    1    2  502  501 -0.19071397580E+01  0.13385723034E+01  0.22996036616E+02  0.23113776366E+02  0.00000000000E+00 0. -1.
<mgrwt>
<rscale>  1 0.58299227E+03</rscale>
<asrwt>0</asrwt>
<pdfrwt beam="1">  1        1 0.39283685E+00 0.58299227E+03</pdfrwt>
<pdfrwt beam="2">0</pdfrwt>
<totfact> 0.14590084E+00</totfact>
</mgrwt>
</event>
<event>
 6    1  0.2944874E-003  0.6521751E+03  0.7818608E-02  0.9802706E-01
          1   -1    0    0  502    0  0.00000000000E+00  0.00000000000E+00  0.10753839095E+03  0.10753839095E+03  0.00000000000E+00 0.  1.
         13   -1    0    0    0    0 -0.00000000000E+00 -0.00000000000E+00 -0.10000000000E+04  0.10000000000E+04  0.00000000000E+00 0.  1.
    9000005    2    1    2  501    0 -0.15152133849E+01  0.15745056996E+01 -0.89245359322E+03  0.11053532127E+04  0.65217139910E+03 0.  0.
         13    1    3    3    0    0 -0.14879081946E+03  0.17015978447E+03 -0.47139533437E+02  0.23090083546E+03  0.00000000000E+00 0.  1.
          1    1    3    3  501    0  0.14727560607E+03 -0.16858527877E+03 -0.84531405978E+03  0.87445237722E+03  0.00000000000E+00 0.  1.
         21    1    1    2  502  501  0.15152133849E+01 -0.15745056996E+01 -0.80158275779E-02  0.21851782658E+01  0.00000000000E+00 0.  1.
<mgrwt>
<rscale>  1 0.65217506E+03</rscale>
<asrwt>0</asrwt>
<pdfrwt beam="1">  1        1 0.39104952E+00 0.65217506E+03</pdfrwt>
<pdfrwt beam="2">0</pdfrwt>
<totfact> 0.14656772E+00</totfact>
</mgrwt>
</event>
<event>
 6    1  0.2944874E-003  0.6404010E+03  0.7818608E-02  0.9824960E-01
          1   -1    0    0  502    0  0.00000000000E+00  0.00000000000E+00  0.10257651712E+03  0.10257651712E+03  0.00000000000E+00 0.  1.
         13   -1    0    0    0    0 -0.00000000000E+00 -0.00000000000E+00 -0.10000000000E+04  0.10000000000E+04  0.00000000000E+00 0.  1.
    9000005    2    1    2  501    0 -0.79548031467E-01 -0.39783849424E-02 -0.89743236988E+03  0.11024963754E+04  0.64040096262E+03 0.  0.
         13    1    3    3    0    0 -0.44169085259E+02  0.28343321576E+03 -0.20376501321E+03  0.35186002401E+03  0.00000000000E+00 0.  1.
          1    1    3    3  501    0  0.44089537227E+02 -0.28343719415E+03 -0.69366735667E+03  0.75063635139E+03  0.00000000000E+00 0.  1.
         21    1    1    2  502  501  0.79548031467E-01  0.39783849424E-02  0.88870015983E-02  0.80141722308E-01  0.00000000000E+00 0. -1.
<mgrwt>
<rscale>  1 0.64040097E+03</rscale>
<asrwt>0</asrwt>
<pdfrwt beam="1">  1        1 0.37300630E+00 0.64040097E+03</pdfrwt>
<pdfrwt beam="2">0</pdfrwt>
<totfact> 0.17647070E+00</totfact>
</mgrwt>
</event>
<event>
 6    1  0.3036682E-003  0.6338799E+03  0.7818608E-02  0.9837507E-01
          1   -1    0    0  502    0  0.00000000000E+00  0.00000000000E+00  0.10045095578E+03  0.10045095578E+03  0.00000000000E+00 0.  1.
         13   -1    0    0    0    0 -0.00000000000E+00 -0.00000000000E+00 -0.10000000000E+04  0.10000000000E+04  0.00000000000E+00 0.  1.
    9000005    2    1    2  501    0  0.41693342659E-04 -0.24929713334E-04 -0.89954902170E+03  0.11004509022E+04  0.63387991432E+03 0.  0.
         13    1    3    3    0    0 -0.16161489755E+02  0.26550309879E+03 -0.15059893542E+03  0.30566833099E+03  0.00000000000E+00 0.  1.
          1    1    3    3  501    0  0.16161531448E+02 -0.26550312372E+03 -0.74895008629E+03  0.79478257124E+03  0.00000000000E+00 0.  1.
         21    1    1    2  502  501 -0.41693342660E-04  0.24929713352E-04 -0.22519056445E-04  0.53543751579E-04  0.00000000000E+00 0. -1.
<mgrwt>
<rscale>  1 0.63387991E+03</rscale>
<asrwt>0</asrwt>
<pdfrwt beam="1">  1        1 0.36527697E+00 0.63387991E+03</pdfrwt>
<pdfrwt beam="2">0</pdfrwt>
<totfact> 0.19103878E+00</totfact>
</mgrwt>
</event>
<event>
 6    1  0.2944874E-003  0.6627623E+03  0.7818608E-02  0.9783122E-01
          1   -1    0    0  502    0  0.00000000000E+00  0.00000000000E+00  0.10981398082E+03  0.10981398082E+03  0.00000000000E+00 0.  1.
         13   -1    0    0    0    0 -0.00000000000E+00 -0.00000000000E+00 -0.10000000000E+04  0.10000000000E+04  0.00000000000E+00 0.  1.
    9000005    2    1    2  501    0 -0.14961851866E-03  0.76739733473E-04 -0.89018650725E+03  0.11098134646E+04  0.66276233183E+03 0.  0.
         13    1    3    3    0    0  0.12375535419E+02 -0.12146854692E+03 -0.96096092376E+03  0.96868656373E+03  0.00000000000E+00 0.  1.
          1    1    3    3  501    0 -0.12375685037E+02  0.12146862366E+03  0.70774416504E+02  0.14112690086E+03  0.00000000000E+00 0.  1.
         21    1    1    2  502  501  0.14961851866E-03 -0.76739733472E-04  0.48807773662E-03  0.51623111569E-03  0.00000000000E+00 0.  1.
<mgrwt>
<rscale>  1 0.66276233E+03</rscale>
<asrwt>0</asrwt>
<pdfrwt beam="1">  1        1 0.39932441E+00 0.66276233E+03</pdfrwt>
<pdfrwt beam="2">0</pdfrwt>
<totfact> 0.13439438E+00</totfact>
</mgrwt>
</event>
<event>
 6    1  0.2944874E-003  0.5643370E+03  0.7818608E-02  0.9982289E-01
          1   -1    0    0  502    0  0.00000000000E+00  0.00000000000E+00  0.79772859419E+02  0.79772859419E+02  0.00000000000E+00 0.  1.
         13   -1    0    0    0    0 -0.00000000000E+00 -0.00000000000E+00 -0.10000000000E+04  0.10000000000E+04  0.00000000000E+00 0.  1.
    9000005    2    1    2  501    0 -0.11282048027E-02 -0.94967522773E-02 -0.92038077518E+03  0.10796189274E+04  0.56433700665E+03 0.  0.
         13    1    3    3    0    0  0.22229136105E+03 -0.16825945931E+03 -0.54348922812E+03  0.61082340814E+03  0.00000000000E+00 0.  1.
          1    1    3    3  501    0 -0.22229248925E+03  0.16824996255E+03 -0.37689154706E+03  0.46879551931E+03  0.00000000000E+00 0.  1.
         21    1    1    2  502  501  0.11282048027E-02  0.94967522773E-02  0.15363460370E+00  0.15393197395E+00  0.00000000000E+00 0. -1.
<mgrwt>
<rscale>  1 0.56433701E+03</rscale>
<asrwt>0</asrwt>
<pdfrwt beam="1">  1        1 0.29008374E+00 0.56433701E+03</pdfrwt>
<pdfrwt beam="2">0</pdfrwt>
<totfact> 0.40974653E+00</totfact>
</mgrwt>
</event>
<event>
 6    1  0.3976416E-003  0.6472850E+03  0.7818608E-02  0.9811887E-01
          1   -1    0    0  502    0  0.00000000000E+00  0.00000000000E+00  0.10474446144E+03  0.10474446144E+03  0.00000000000E+00 0.  1.
         13   -1    0    0    0    0 -0.00000000000E+00 -0.00000000000E+00 -0.10000000000E+04  0.10000000000E+04  0.00000000000E+00 0.  1.
    9000005    2    1    2  501    0  0.37383011886E-06  0.46214851182E-05 -0.89525553781E+03  0.11047444567E+04  0.64728497336E+03 0.  0.
         13    1    3    3    0    0  0.19800552495E+03  0.20453121524E+03 -0.71040553651E+03  0.76532034614E+03  0.00000000000E+00 0.  1.
          1    1    3    3  501    0 -0.19800552458E+03 -0.20453121062E+03 -0.18485000130E+03  0.33942411060E+03  0.00000000000E+00 0.  1.
         21    1    1    2  502  501 -0.37383014463E-06 -0.46214851287E-05 -0.74711931439E-06  0.46963880846E-05  0.00000000000E+00 0. -1.
<mgrwt>
<rscale>  1 0.64728497E+03</rscale>
<asrwt>0</asrwt>
<pdfrwt beam="1">  1        1 0.38088975E+00 0.64728497E+03</pdfrwt>
<pdfrwt beam="2">0</pdfrwt>
<totfact> 0.16270140E+00</totfact>
</mgrwt>
</event>
<event>
 6    1  0.2944874E-003  0.6482892E+03  0.7818608E-02  0.9809995E-01
          1   -1    0    0  502    0  0.00000000000E+00  0.00000000000E+00  0.10590136061E+03  0.10590136061E+03  0.00000000000E+00 0.  1.
         13   -1    0    0    0    0 -0.00000000000E+00 -0.00000000000E+00 -0.10000000000E+04  0.10000000000E+04  0.00000000000E+00 0.  1.
    9000005    2    1    2  501    0 -0.16128408668E-01  0.72374575994E-02 -0.89493017994E+03  0.11050696322E+04  0.64828918291E+03 0.  0.
         13    1    3    3    0    0 -0.55788025820E+02 -0.13838249113E+03 -0.93798401408E+03  0.94977683081E+03  0.00000000000E+00 0.  1.
          1    1    3    3  501    0  0.55771897411E+02  0.13838972859E+03  0.43053834144E+02  0.15529280136E+03  0.00000000000E+00 0.  1.
         21    1    1    2  502  501  0.16128408668E-01 -0.72374575994E-02  0.83154054674E+00  0.83172843358E+00  0.00000000000E+00 0. -1.
<mgrwt>
<rscale>  1 0.64828918E+03</rscale>
<asrwt>0</asrwt>
<pdfrwt beam="1">  1        1 0.38509667E+00 0.64828918E+03</pdfrwt>
<pdfrwt beam="2">0</pdfrwt>
<totfact> 0.15585549E+00</totfact>
</mgrwt>
</event>
<event>
 6    1  0.2944874E-003  0.6421199E+03  0.7818608E-02  0.9821679E-01
          1   -1    0    0  502    0  0.00000000000E+00  0.00000000000E+00  0.10309316525E+03  0.10309316525E+03  0.00000000000E+00 0.  1.
         13   -1    0    0    0    0 -0.00000000000E+00 -0.00000000000E+00 -0.10000000000E+04  0.10000000000E+04  0.00000000000E+00 0.  1.
    9000005    2    1    2  501    0  0.19865672787E-02  0.38995518261E-02 -0.89692011641E+03  0.11030791811E+04  0.64211991451E+03 0.  0.
         13    1    3    3    0    0  0.56402471319E+02 -0.31565131202E+03 -0.47623128733E+03  0.57411952465E+03  0.00000000000E+00 0.  1.
          3    1    3    3  501    0 -0.56400484752E+02  0.31565521158E+03 -0.42068882908E+03  0.52895965648E+03  0.00000000000E+00 0.  1.
         21    1    1    2  502  501 -0.19865672787E-02 -0.38995518261E-02  0.13281661139E-01  0.13984115153E-01  0.00000000000E+00 0.  1.
<mgrwt>
<rscale>  1 0.64211991E+03</rscale>
<asrwt>0</asrwt>
<pdfrwt beam="1">  1        1 0.37488503E+00 0.64211991E+03</pdfrwt>
<pdfrwt beam="2">0</pdfrwt>
<totfact> 0.17308935E+00</totfact>
</mgrwt>
</event>
<event>
 6    1  0.2944874E-003  0.6470890E+03  0.7818608E-02  0.9812257E-01
          1   -1    0    0  502    0  0.00000000000E+00  0.00000000000E+00  0.10496669634E+03  0.10496669634E+03  0.00000000000E+00 0.  1.
         13   -1    0    0    0    0 -0.00000000000E+00 -0.00000000000E+00 -0.10000000000E+04  0.10000000000E+04  0.00000000000E+00 0.  1.
    9000005    2    1    2  501    0 -0.58519389992E-02 -0.20518642298E-02 -0.89531893097E+03  0.11046810017E+04  0.64708896402E+03 0.  0.
         13    1    3    3    0    0 -0.21626057065E+03  0.71708908709E+02 -0.83982970657E+03  0.87018661105E+03  0.00000000000E+00 0.  1.
          1    1    3    3  501    0  0.21625471871E+03 -0.71710960573E+02 -0.55489224403E+02  0.23449439067E+03  0.00000000000E+00 0.  1.
         21    1    1    2  502  501  0.58519389992E-02  0.20518642298E-02  0.28562731793E+00  0.28569462733E+00  0.00000000000E+00 0.  1.
<mgrwt>
<rscale>  1 0.64708896E+03</rscale>
<asrwt>0</asrwt>
<pdfrwt beam="1">  1        1 0.38169788E+00 0.64708896E+03</pdfrwt>
<pdfrwt beam="2">0</pdfrwt>
<totfact> 0.16137605E+00</totfact>
</mgrwt>
</event>
<event>
 6    1  0.2944874E-003  0.6422237E+03  0.7818608E-02  0.9821481E-01
          1   -1    0    0  502    0  0.00000000000E+00  0.00000000000E+00  0.10313200264E+03  0.10313200264E+03  0.00000000000E+00 0.  1.
         13   -1    0    0    0    0 -0.00000000000E+00 -0.00000000000E+00 -0.10000000000E+04  0.10000000000E+04  0.00000000000E+00 0.  1.
    9000005    2    1    2  501    0 -0.33224593680E-03 -0.70649773676E-04 -0.89688716283E+03  0.11031128342E+04  0.64222374763E+03 0.  0.
         13    1    3    3    0    0 -0.80336035588E+02  0.21659040946E+03 -0.83155007167E+03  0.86304160141E+03  0.00000000000E+00 0.  1.
          1    1    3    3  501    0  0.80335703342E+02 -0.21659048011E+03 -0.65337091169E+02  0.24007123274E+03  0.00000000000E+00 0.  1.
         21    1    1    2  502  501  0.33224593680E-03  0.70649773688E-04  0.19165473233E-01  0.19168483065E-01  0.00000000000E+00 0.  1.
<mgrwt>
<rscale>  1 0.64222375E+03</rscale>
<asrwt>0</asrwt>
<pdfrwt beam="1">  1        1 0.37502625E+00 0.64222375E+03</pdfrwt>
<pdfrwt beam="2">0</pdfrwt>
<totfact> 0.17283849E+00</totfact>
</mgrwt>
</event>
<event>
 6    1  0.2944874E-003  0.6492019E+03  0.7818608E-02  0.9808278E-01
          1   -1    0    0  502    0  0.00000000000E+00  0.00000000000E+00  0.10536925165E+03  0.10536925165E+03  0.00000000000E+00 0.  1.
         13   -1    0    0    0    0 -0.00000000000E+00 -0.00000000000E+00 -0.10000000000E+04  0.10000000000E+04  0.00000000000E+00 0.  1.
    9000005    2    1    2  501    0 -0.15395565809E-03  0.16635686289E-03 -0.89463422706E+03  0.11053657656E+04  0.64920187574E+03 0.  0.
         13    1    3    3    0    0 -0.38036083292E+02 -0.34581102793E+02  0.98391056590E+02  0.11101079371E+03  0.00000000000E+00 0.  1.
          3    1    3    3  501    0  0.38035929336E+02  0.34581269150E+02 -0.99302528365E+03  0.99435497186E+03  0.00000000000E+00 0.  1.
         21    1    1    2  502  501  0.15395565809E-03 -0.16635686289E-03  0.34787047337E-02  0.34860814068E-02  0.00000000000E+00 0. -1.
<mgrwt>
<rscale>  1 0.64920188E+03</rscale>
<asrwt>0</asrwt>
<pdfrwt beam="1">  1        1 0.38316172E+00 0.64920188E+03</pdfrwt>
<pdfrwt beam="2">0</pdfrwt>
<totfact> 0.15892913E+00</totfact>
</mgrwt>
</event>
<event>
 6    1  0.2944874E-003  0.5181163E+03  0.7818608E-02  0.1009156E+00
          1   -1    0    0  502    0  0.00000000000E+00  0.00000000000E+00  0.70349807341E+02  0.70349807341E+02  0.00000000000E+00 0.  1.
         13   -1    0    0    0    0 -0.00000000000E+00 -0.00000000000E+00 -0.10000000000E+04  0.10000000000E+04  0.00000000000E+00 0.  1.
    9000005    2    1    2  501    0 -0.84163126055E+01 -0.56690717106E+01 -0.92213376763E+03  0.10577216904E+04  0.51801690732E+03 0.  0.
         13    1    3    3    0    0 -0.12797601942E+03  0.45860516441E+02 -0.91742766023E+03  0.92744517912E+03  0.00000000000E+00 0.  1.
          3    1    3    3  501    0  0.11955970681E+03 -0.51529588152E+02 -0.47061073994E+01  0.13027651129E+03  0.00000000000E+00 0.  1.
         21    1    1    2  502  501  0.84163126055E+01  0.56690717106E+01 -0.75164250288E+01  0.12628116928E+02  0.00000000000E+00 0. -1.
<mgrwt>
<rscale>  1 0.51811629E+03</rscale>
<asrwt>0</asrwt>
<pdfrwt beam="1">  1        1 0.25581802E+00 0.51811629E+03</pdfrwt>
<pdfrwt beam="2">0</pdfrwt>
<totfact> 0.58088427E+00</totfact>
</mgrwt>
</event>
<event>
 6    1  0.2944874E-003  0.6506789E+03  0.7818608E-02  0.9805506E-01
          1   -1    0    0  502    0  0.00000000000E+00  0.00000000000E+00  0.10587877940E+03  0.10587877940E+03  0.00000000000E+00 0.  1.
         13   -1    0    0    0    0 -0.00000000000E+00 -0.00000000000E+00 -0.10000000000E+04  0.10000000000E+04  0.00000000000E+00 0.  1.
    9000005    2    1    2  501    0  0.29299800616E-01 -0.18004153811E-01 -0.89414402948E+03  0.11058375135E+04  0.65067892210E+03 0.  0.
         13    1    3    3    0    0  0.40193037657E+02  0.27741101974E+03 -0.16641468561E+03  0.32598497164E+03  0.00000000000E+00 0.  1.
          3    1    3    3  501    0 -0.40163737857E+02 -0.27742902390E+03 -0.72772934387E+03  0.77985254188E+03  0.00000000000E+00 0.  1.
         21    1    1    2  502  501 -0.29299800616E-01  0.18004153811E-01  0.22808877590E-01  0.41265878974E-01  0.00000000000E+00 0. -1.
<mgrwt>
<rscale>  1 0.65067892E+03</rscale>
<asrwt>0</asrwt>
<pdfrwt beam="1">  1        1 0.38501456E+00 0.65067892E+03</pdfrwt>
<pdfrwt beam="2">0</pdfrwt>
<totfact> 0.15591698E+00</totfact>
</mgrwt>
</event>
<event>
 6    1  0.2944874E-003  0.6561469E+03  0.7818608E-02  0.9795313E-01
          1   -1    0    0  502    0  0.00000000000E+00  0.00000000000E+00  0.10787348691E+03  0.10787348691E+03  0.00000000000E+00 0.  1.
         13   -1    0    0    0    0 -0.00000000000E+00 -0.00000000000E+00 -0.10000000000E+04  0.10000000000E+04  0.00000000000E+00 0.  1.
    9000005    2    1    2  501    0  0.11623634119E+00  0.19633429937E+00 -0.89230657012E+03  0.11075828349E+04  0.65614683498E+03 0.  0.
         13    1    3    3    0    0 -0.31581983286E+03  0.76213919383E+02 -0.36949998795E+03  0.49201724505E+03  0.00000000000E+00 0.  1.
          3    1    3    3  501    0  0.31593606920E+03 -0.76017585084E+02 -0.52280658218E+03  0.61556558987E+03  0.00000000000E+00 0.  1.
         21    1    1    2  502  501 -0.11623634119E+00 -0.19633429937E+00  0.18005703139E+00  0.29065198894E+00  0.00000000000E+00 0. -1.
<mgrwt>
<rscale>  1 0.65614687E+03</rscale>
<asrwt>0</asrwt>
<pdfrwt beam="1">  1        1 0.39226805E+00 0.65614687E+03</pdfrwt>
<pdfrwt beam="2">0</pdfrwt>
<totfact> 0.14464681E+00</totfact>
</mgrwt>
</event>
<event>
 6    1  0.2944874E-003  0.6549309E+03  0.7818608E-02  0.9797570E-01
          1   -1    0    0  502    0  0.00000000000E+00  0.00000000000E+00  0.10724126479E+03  0.10724126479E+03  0.00000000000E+00 0.  1.
         13   -1    0    0    0    0 -0.00000000000E+00 -0.00000000000E+00 -0.10000000000E+04  0.10000000000E+04  0.00000000000E+00 0.  1.
    9000005    2    1    2  501    0  0.54884385564E-02 -0.22536115158E-01 -0.89273160706E+03  0.11072055725E+04  0.65493087963E+03 0.  0.
         13    1    3    3    0    0  0.21868769973E+03  0.16175154632E+03 -0.75459776165E+03  0.80212571000E+03  0.00000000000E+00 0.  1.
          3    1    3    3  501    0 -0.21868221129E+03 -0.16177408244E+03 -0.13813384541E+03  0.30507986255E+03  0.00000000000E+00 0.  1.
         21    1    1    2  502  501 -0.54884385564E-02  0.22536115158E-01 -0.27128147794E-01  0.35692237909E-01  0.00000000000E+00 0.  1.
<mgrwt>
<rscale>  1 0.65493088E+03</rscale>
<asrwt>0</asrwt>
<pdfrwt beam="1">  1        1 0.38996906E+00 0.65493088E+03</pdfrwt>
<pdfrwt beam="2">0</pdfrwt>
<totfact> 0.14811821E+00</totfact>
</mgrwt>
</event>
<event>
 6    1  0.2944874E-003  0.6461867E+03  0.7818608E-02  0.9813961E-01
          1   -1    0    0  502    0  0.00000000000E+00  0.00000000000E+00  0.10446602124E+03  0.10446602124E+03  0.00000000000E+00 0.  1.
         13   -1    0    0    0    0 -0.00000000000E+00 -0.00000000000E+00 -0.10000000000E+04  0.10000000000E+04  0.00000000000E+00 0.  1.
    9000005    2    1    2  501    0 -0.11755820468E-02  0.97983586525E-02 -0.89561032080E+03  0.11043890440E+04  0.64618674828E+03 0.  0.
         13    1    3    3    0    0  0.18884275115E+03  0.21877576518E+03 -0.20092565985E+03  0.35198798400E+03  0.00000000000E+00 0.  1.
          3    1    3    3  501    0 -0.18884392674E+03 -0.21876596683E+03 -0.69468466095E+03  0.75240105999E+03  0.00000000000E+00 0.  1.
         21    1    1    2  502  501  0.11755820468E-02 -0.97983586525E-02  0.76342040445E-01  0.76977249657E-01  0.00000000000E+00 0. -1.
<mgrwt>
<rscale>  1 0.64618675E+03</rscale>
<asrwt>0</asrwt>
<pdfrwt beam="1">  1        1 0.37987724E+00 0.64618675E+03</pdfrwt>
<pdfrwt beam="2">0</pdfrwt>
<totfact> 0.16441721E+00</totfact>
</mgrwt>
</event>
<event>
 6    1  0.2944874E-003  0.6437889E+03  0.7818608E-02  0.9818504E-01
          1   -1    0    0  502    0  0.00000000000E+00  0.00000000000E+00  0.10372714799E+03  0.10372714799E+03  0.00000000000E+00 0.  1.
         13   -1    0    0    0    0 -0.00000000000E+00 -0.00000000000E+00 -0.10000000000E+04  0.10000000000E+04  0.00000000000E+00 0.  1.
    9000005    2    1    2  501    0  0.86026888222E-02  0.21980071879E-01 -0.89638257633E+03  0.11036149136E+04  0.64378890472E+03 0.  0.
         13    1    3    3    0    0  0.28367911106E+03  0.15079543370E+03 -0.48285924956E+03  0.57997082320E+03  0.00000000000E+00 0.  1.
          1    1    3    3  501    0 -0.28367050838E+03 -0.15077345363E+03 -0.41352332676E+03  0.52364409041E+03  0.00000000000E+00 0.  1.
         21    1    1    2  502  501 -0.86026888222E-02 -0.21980071879E-01  0.10972431865E+00  0.11223437939E+00  0.00000000000E+00 0.  1.
<mgrwt>
<rscale>  1 0.64378891E+03</rscale>
<asrwt>0</asrwt>
<pdfrwt beam="1">  1        1 0.37719042E+00 0.64378891E+03</pdfrwt>
<pdfrwt beam="2">0</pdfrwt>
<totfact> 0.16903820E+00</totfact>
</mgrwt>
</event>
<event>
 6    1  0.2944874E-003  0.6477864E+03  0.7818608E-02  0.9810942E-01
          1   -1    0    0  502    0  0.00000000000E+00  0.00000000000E+00  0.11371201882E+03  0.11371201882E+03  0.00000000000E+00 0.  1.
         13   -1    0    0    0    0 -0.00000000000E+00 -0.00000000000E+00 -0.10000000000E+04  0.10000000000E+04  0.00000000000E+00 0.  1.
    9000005    2    1    2  501    0  0.14439045354E+02 -0.79751357694E+01 -0.88556355843E+03  0.10972010040E+04  0.64757635719E+03 0.  0.
         13    1    3    3    0    0 -0.21121511690E+03 -0.11550625371E+03 -0.79610937228E+03  0.83171127976E+03  0.00000000000E+00 0.  1.
          1    1    3    3  501    0  0.22565416226E+03  0.10753111794E+03 -0.89454186154E+02  0.26548972426E+03  0.00000000000E+00 0.  1.
         21    1    1    2  502  501 -0.14439045354E+02  0.79751357694E+01 -0.72442274498E+00  0.16511014796E+02  0.00000000000E+00 0.  1.
<mgrwt>
<rscale>  1 0.64778641E+03</rscale>
<asrwt>0</asrwt>
<pdfrwt beam="1">  1        1 0.41349912E+00 0.64778641E+03</pdfrwt>
<pdfrwt beam="2">0</pdfrwt>
<totfact> 0.11646735E+00</totfact>
</mgrwt>
</event>
<event>
 6    1  0.2944874E-003  0.6434699E+03  0.7818608E-02  0.9819110E-01
          1   -1    0    0  502    0  0.00000000000E+00  0.00000000000E+00  0.10351362155E+03  0.10351362155E+03  0.00000000000E+00 0.  1.
         13   -1    0    0    0    0 -0.00000000000E+00 -0.00000000000E+00 -0.10000000000E+04  0.10000000000E+04  0.00000000000E+00 0.  1.
    9000005    2    1    2  501    0 -0.15616308417E-04  0.27232304291E-04 -0.89648661521E+03  0.11035133827E+04  0.64346991740E+03 0.  0.
         13    1    3    3    0    0  0.24452058638E+03  0.20222913926E+03 -0.35706962728E+03  0.47768782762E+03  0.00000000000E+00 0.  1.
          3    1    3    3  501    0 -0.24452060200E+03 -0.20222911203E+03 -0.53941698793E+03  0.62582555510E+03  0.00000000000E+00 0.  1.
         21    1    1    2  502  501  0.15616308433E-04 -0.27232304281E-04  0.23675243850E-03  0.23882458965E-03  0.00000000000E+00 0. -1.
<mgrwt>
<rscale>  1 0.64346992E+03</rscale>
<asrwt>0</asrwt>
<pdfrwt beam="1">  1        1 0.37641396E+00 0.64346992E+03</pdfrwt>
<pdfrwt beam="2">0</pdfrwt>
<totfact> 0.17038483E+00</totfact>
</mgrwt>
</event>
<event>
 6    1  0.2944874E-003  0.6521981E+03  0.7818608E-02  0.9802663E-01
          1   -1    0    0  502    0  0.00000000000E+00  0.00000000000E+00  0.10687073585E+03  0.10687073585E+03  0.00000000000E+00 0.  1.
         13   -1    0    0    0    0 -0.00000000000E+00 -0.00000000000E+00 -0.10000000000E+04  0.10000000000E+04  0.00000000000E+00 0.  1.
    9000005    2    1    2  501    0  0.88974821600E-01 -0.34127499190E+00 -0.89359372735E+03  0.11062875453E+04  0.65219802129E+03 0.  0.
         13    1    3    3    0    0  0.24032879353E+03  0.10957653698E+03 -0.77109453669E+03  0.81507774535E+03  0.00000000000E+00 0.  1.
          3    1    3    3  501    0 -0.24023981871E+03 -0.10991781197E+03 -0.12249919066E+03  0.29120979996E+03  0.00000000000E+00 0.  1.
         21    1    1    2  502  501 -0.88974821600E-01  0.34127499190E+00  0.46446320004E+00  0.58319053762E+00  0.00000000000E+00 0.  1.
<mgrwt>
<rscale>  1 0.65219812E+03</rscale>
<asrwt>0</asrwt>
<pdfrwt beam="1">  1        1 0.38862168E+00 0.65219812E+03</pdfrwt>
<pdfrwt beam="2">0</pdfrwt>
<totfact> 0.15024552E+00</totfact>
</mgrwt>
</event>
<event>
 6    1  0.2944874E-003  0.6495831E+03  0.7818608E-02  0.9807562E-01
          1   -1    0    0  502    0  0.00000000000E+00  0.00000000000E+00  0.11476853724E+03  0.11476853724E+03  0.00000000000E+00 0.  1.
         13   -1    0    0    0    0 -0.00000000000E+00 -0.00000000000E+00 -0.10000000000E+04  0.10000000000E+04  0.00000000000E+00 0.  1.
    9000005    2    1    2  501    0 -0.36131441278E+00  0.21971960233E+00 -0.89450510629E+03  0.11054852572E+04  0.64958301225E+03 0.  0.
         13    1    3    3    0    0  0.17102682879E+03  0.22558937297E+03 -0.71811557828E+03  0.77190072232E+03  0.00000000000E+00 0.  1.
          1    1    3    3  501    0 -0.17138814320E+03 -0.22536965337E+03 -0.17638952801E+03  0.33358453483E+03  0.00000000000E+00 0.  1.
         21    1    1    2  502  501  0.36131441278E+00 -0.21971960233E+00  0.92736435223E+01  0.92832800769E+01  0.00000000000E+00 0. -1.
<mgrwt>
<rscale>  1 0.64958315E+03</rscale>
<asrwt>0</asrwt>
<pdfrwt beam="1">  1        1 0.41734102E+00 0.64958315E+03</pdfrwt>
<pdfrwt beam="2">0</pdfrwt>
<totfact> 0.11188553E+00</totfact>
</mgrwt>
</event>
